<event>
 4    1  0.5410820E-008  0.5243398E+03  0.7818608E-02  0.1007614E+00
          2   -1    0    0  501    0  0.00000000000E+00  0.00000000000E+00  0.94553247857E+03  0.94553247857E+03  0.25500000000E-02 0. -1.
         -2   -1    0    0    0  501 -0.00000000000E+00 -0.00000000000E+00 -0.36820328920E+03  0.36820328921E+03  0.25500000000E-02 0.  1.
    8880022    1    1    2    0    0 -0.11752054758E+03 -0.48757512347E+03 -0.12565791790E+02  0.52449035479E+03  0.15294330000E+03 0.  1.
    8880022    1    1    2    0    0  0.11752054758E+03  0.48757512347E+03  0.58989498115E+03  0.78924541299E+03  0.15294330000E+03 0.  0.
<mgrwt>
<rscale>  0 0.52433981E+03</rscale>
<asrwt>0</asrwt>
<pdfrwt beam="1">  1        2 0.14546653E+00 0.52433981E+03</pdfrwt>
<pdfrwt beam="2">  1       -2 0.56646660E-01 0.52433981E+03</pdfrwt>
<totfact> 0.82667453E+01</totfact>
</mgrwt>
</event>
<event>
 4    1  0.5410820E-008  0.7899220E+03  0.7818608E-02  0.9574720E-01
         -2   -1    0    0    0  501 -0.00000000000E+00  0.00000000000E+00  0.15847652311E+04  0.15847652311E+04  0.25500000000E-02 0.  1.
          2   -1    0    0  501    0  0.00000000000E+00 -0.00000000000E+00 -0.52517111303E+03  0.52517111304E+03  0.25500000000E-02 0. -1.
    8880022    1    1    2    0    0  0.34967917312E+03  0.69159926082E+03  0.20240760459E+01  0.78992456069E+03  0.15294330000E+03 0.  0.
    8880022    1    1    2    0    0 -0.34967917312E+03 -0.69159926082E+03  0.10575700421E+04  0.13200117835E+04  0.15294330000E+03 0.  0.
<mgrwt>
<rscale>  0 0.78992197E+03</rscale>
<asrwt>0</asrwt>
<pdfrwt beam="1">  1        2 0.80795555E-01 0.78992197E+03</pdfrwt>
<pdfrwt beam="2">  1       -2 0.24381004E+00 0.78992197E+03</pdfrwt>
<totfact> 0.41718148E+00</totfact>
</mgrwt>
</event>
<event>
 4    1  0.5410820E-008  0.2565549E+03  0.7818608E-02  0.1109231E+00
          2   -1    0    0  501    0  0.00000000000E+00  0.00000000000E+00  0.21877012026E+04  0.21877012026E+04  0.25500000000E-02 0. -1.
         -2   -1    0    0    0  501 -0.00000000000E+00 -0.00000000000E+00 -0.14638264861E+03  0.14638264863E+03  0.25500000000E-02 0.  1.
    8880022    1    1    2    0    0 -0.29156341534E+02 -0.20390842685E+03 -0.19558381335E+02  0.25729928505E+03  0.15294330000E+03 0.  0.
    8880022    1    1    2    0    0  0.29156341534E+02  0.20390842685E+03  0.20608769353E+04  0.20767845661E+04  0.15294330000E+03 0.  0.
<mgrwt>
<rscale>  0 0.25655485E+03</rscale>
<asrwt>0</asrwt>
<pdfrwt beam="1">  1        2 0.33656940E+00 0.25655485E+03</pdfrwt>
<pdfrwt beam="2">  1       -2 0.22520408E-01 0.25655485E+03</pdfrwt>
<totfact> 0.10235614E+02</totfact>
</mgrwt>
</event>
<event>
 4    1  0.5410820E-008  0.6343139E+03  0.7818608E-02  0.9836667E-01
         -2   -1    0    0    0  501 -0.00000000000E+00  0.00000000000E+00  0.73798290755E+03  0.73798290756E+03  0.25500000000E-02 0.  1.
          2   -1    0    0  501    0  0.00000000000E+00 -0.00000000000E+00 -0.93324199319E+03  0.93324199319E+03  0.25500000000E-02 0. -1.
    8880022    1    1    2    0    0  0.45521206268E+03 -0.41442054235E+03 -0.63644835055E+03  0.89856583724E+03  0.15294330000E+03 0.  0.
    8880022    1    1    2    0    0 -0.45521206268E+03  0.41442054235E+03  0.44118926491E+03  0.77265906351E+03  0.15294330000E+03 0.  0.
<mgrwt>
<rscale>  0 0.63431385E+03</rscale>
<asrwt>0</asrwt>
<pdfrwt beam="1">  1        2 0.14357569E+00 0.63431385E+03</pdfrwt>
<pdfrwt beam="2">  1       -2 0.11353583E+00 0.63431385E+03</pdfrwt>
<totfact> 0.17445324E+01</totfact>
</mgrwt>
</event>
<event>
 4    1  0.5410820E-008  0.1097474E+04  0.7818608E-02  0.9207657E-01
          2   -1    0    0  501    0  0.00000000000E+00  0.00000000000E+00  0.15908293903E+04  0.15908293903E+04  0.25500000000E-02 0. -1.
         -2   -1    0    0    0  501 -0.00000000000E+00 -0.00000000000E+00 -0.90942975074E+03  0.90942975074E+03  0.25500000000E-02 0.  1.
    8880022    1    1    2    0    0  0.73068449435E+03  0.80446119193E+03  0.85230368262E+03  0.13895577930E+04  0.15294330000E+03 0.  0.
    8880022    1    1    2    0    0 -0.73068449435E+03 -0.80446119193E+03 -0.17090404308E+03  0.11107013480E+04  0.15294330000E+03 0.  0.
<mgrwt>
<rscale>  0 0.10974741E+04</rscale>
<asrwt>0</asrwt>
<pdfrwt beam="1">  1        2 0.24474298E+00 0.10974741E+04</pdfrwt>
<pdfrwt beam="2">  1       -2 0.13991227E+00 0.10974741E+04</pdfrwt>
<totfact> 0.39905111E+00</totfact>
</mgrwt>
</event>
<event>
 4    1  0.5410820E-008  0.2077534E+03  0.7818608E-02  0.1143358E+00
          2   -1    0    0  501    0  0.00000000000E+00  0.00000000000E+00  0.44222476673E+03  0.44222476674E+03  0.25500000000E-02 0. -1.
         -2   -1    0    0    0  501 -0.00000000000E+00 -0.00000000000E+00 -0.50747664348E+03  0.50747664348E+03  0.25500000000E-02 0.  1.
    8880022    1    1    2    0    0 -0.14011071020E+03 -0.11781810587E+02 -0.45937761743E+03  0.50417186612E+03  0.15294330000E+03 0.  1.
    8880022    1    1    2    0    0  0.14011071020E+03  0.11781810587E+02  0.39412574069E+03  0.44552954410E+03  0.15294330000E+03 0.  0.
<mgrwt>
<rscale>  0 0.20775340E+03</rscale>
<asrwt>0</asrwt>
<pdfrwt beam="1">  1        2 0.68034579E-01 0.20775340E+03</pdfrwt>
<pdfrwt beam="2">  1       -2 0.78073330E-01 0.20775340E+03</pdfrwt>
<totfact> 0.10945320E+02</totfact>
</mgrwt>
</event>
<event>
 4    1  0.5410820E-008  0.7986805E+03  0.7818608E-02  0.9561929E-01
         -2   -1    0    0    0  501 -0.00000000000E+00  0.00000000000E+00  0.20477424833E+03  0.20477424835E+03  0.25500000000E-02 0.  1.
          2   -1    0    0  501    0  0.00000000000E+00 -0.00000000000E+00 -0.36224781839E+04  0.36224781839E+04  0.25500000000E-02 0. -1.
    8880022    1    1    2    0    0  0.65717589626E+03  0.42733911789E+03 -0.24250345068E+04  0.25531711444E+04  0.15294330000E+03 0.  0.
    8880022    1    1    2    0    0 -0.65717589626E+03 -0.42733911789E+03 -0.99266942879E+03  0.12740812879E+04  0.15294330000E+03 0.  0.
<mgrwt>
<rscale>  0 0.79868050E+03</rscale>
<asrwt>0</asrwt>
<pdfrwt beam="1">  1        2 0.55730429E+00 0.79868050E+03</pdfrwt>
<pdfrwt beam="2">  1       -2 0.31503733E-01 0.79868050E+03</pdfrwt>
<totfact> 0.66964779E+00</totfact>
</mgrwt>
</event>
<event>
 4    1  0.5410820E-008  0.3133458E+03  0.7818608E-02  0.1078753E+00
         -2   -1    0    0    0  501 -0.00000000000E+00  0.00000000000E+00  0.12895836079E+04  0.12895836079E+04  0.25500000000E-02 0.  1.
          2   -1    0    0  501    0  0.00000000000E+00 -0.00000000000E+00 -0.17107702566E+03  0.17107702568E+03  0.25500000000E-02 0. -1.
    8880022    1    1    2    0    0  0.26742579241E+03  0.57248659644E+02  0.11033136839E+04  0.11469466864E+04  0.15294330000E+03 0.  1.
    8880022    1    1    2    0    0 -0.26742579241E+03 -0.57248659644E+02  0.15192898382E+02  0.31371394717E+03  0.15294330000E+03 0.  0.
<mgrwt>
<rscale>  0 0.31334584E+03</rscale>
<asrwt>0</asrwt>
<pdfrwt beam="1">  1        2 0.26319542E-01 0.31334584E+03</pdfrwt>
<pdfrwt beam="2">  1       -2 0.19839748E+00 0.31334584E+03</pdfrwt>
<totfact> 0.29914621E+01</totfact>
</mgrwt>
</event>
<event>
 4    1  0.5410820E-008  0.2175424E+03  0.7818608E-02  0.1135729E+00
          2   -1    0    0  501    0  0.00000000000E+00  0.00000000000E+00  0.40816191693E+03  0.40816191694E+03  0.25500000000E-02 0. -1.
         -2   -1    0    0    0  501 -0.00000000000E+00 -0.00000000000E+00 -0.23607638726E+03  0.23607638728E+03  0.25500000000E-02 0.  1.
    8880022    1    1    2    0    0  0.62878505595E+02  0.14134824832E+03 -0.14373973690E+03  0.26074086513E+03  0.15294330000E+03 0.  0.
    8880022    1    1    2    0    0 -0.62878505595E+02 -0.14134824832E+03  0.31582526657E+03  0.38349743909E+03  0.15294330000E+03 0.  0.
<mgrwt>
<rscale>  0 0.21754238E+03</rscale>
<asrwt>0</asrwt>
<pdfrwt beam="1">  1        2 0.62794141E-01 0.21754238E+03</pdfrwt>
<pdfrwt beam="2">  1       -2 0.36319444E-01 0.21754238E+03</pdfrwt>
<totfact> 0.56205053E+02</totfact>
</mgrwt>
</event>
<event>
 4    1  0.5410820E-008  0.6041945E+03  0.7818608E-02  0.9896742E-01
         -2   -1    0    0    0  501 -0.00000000000E+00  0.00000000000E+00  0.64511252698E+03  0.64511252699E+03  0.25500000000E-02 0.  1.
          2   -1    0    0  501    0  0.00000000000E+00 -0.00000000000E+00 -0.98341318051E+03  0.98341318052E+03  0.25500000000E-02 0. -1.
    8880022    1    1    2    0    0 -0.15740903730E+03  0.56292254157E+03 -0.69972476682E+03  0.92448136549E+03  0.15294330000E+03 0.  0.
    8880022    1    1    2    0    0  0.15740903730E+03 -0.56292254157E+03  0.36142411329E+03  0.70404434201E+03  0.15294330000E+03 0.  0.
<mgrwt>
<rscale>  0 0.60419454E+03</rscale>
<asrwt>0</asrwt>
<pdfrwt beam="1">  1        2 0.15129434E+00 0.60419454E+03</pdfrwt>
<pdfrwt beam="2">  1       -2 0.99248081E-01 0.60419454E+03</pdfrwt>
<totfact> 0.22431254E+01</totfact>
</mgrwt>
</event>
<event>
 4    1  0.5410820E-008  0.1142029E+04  0.7818608E-02  0.9165169E-01
         -2   -1    0    0    0  501 -0.00000000000E+00  0.00000000000E+00  0.30044146394E+03  0.30044146395E+03  0.25500000000E-02 0.  1.
          2   -1    0    0  501    0  0.00000000000E+00 -0.00000000000E+00 -0.47983740023E+04  0.47983740023E+04  0.25500000000E-02 0. -1.
    8880022    1    1    2    0    0  0.99538675630E+03 -0.53855656305E+03 -0.14619076303E+04  0.18551020292E+04  0.15294330000E+03 0.  0.
    8880022    1    1    2    0    0 -0.99538675630E+03  0.53855656305E+03 -0.30360249081E+04  0.32437134371E+04  0.15294330000E+03 0.  0.
<mgrwt>
<rscale>  0 0.11420287E+04</rscale>
<asrwt>0</asrwt>
<pdfrwt beam="1">  1        2 0.73821133E+00 0.11420287E+04</pdfrwt>
<pdfrwt beam="2">  1       -2 0.46221767E-01 0.11420287E+04</pdfrwt>
<totfact> 0.28162723E-01</totfact>
</mgrwt>
</event>
<event>
 4    1  0.5410820E-008  0.2056060E+03  0.7818608E-02  0.1145094E+00
         -2   -1    0    0    0  501 -0.00000000000E+00  0.00000000000E+00  0.39345050125E+03  0.39345050126E+03  0.25500000000E-02 0.  1.
          2   -1    0    0  501    0  0.00000000000E+00 -0.00000000000E+00 -0.15684497808E+04  0.15684497808E+04  0.25500000000E-02 0. -1.
    8880022    1    1    2    0    0  0.12031975503E+03 -0.66372791932E+02  0.35925536965E+03  0.41393026538E+03  0.15294330000E+03 0.  0.
    8880022    1    1    2    0    0 -0.12031975503E+03  0.66372791932E+02 -0.15342546491E+04  0.15479700166E+04  0.15294330000E+03 0.  0.
<mgrwt>
<rscale>  0 0.20560604E+03</rscale>
<asrwt>0</asrwt>
<pdfrwt beam="1">  1        2 0.24129996E+00 0.20560604E+03</pdfrwt>
<pdfrwt beam="2">  1       -2 0.60530847E-01 0.20560604E+03</pdfrwt>
<totfact> 0.33934383E+01</totfact>
</mgrwt>
</event>
<event>
 4    1  0.5410820E-008  0.6520332E+03  0.7818608E-02  0.9802971E-01
          2   -1    0    0  501    0  0.00000000000E+00  0.00000000000E+00  0.15673690130E+04  0.15673690130E+04  0.25500000000E-02 0. -1.
         -2   -1    0    0    0  501 -0.00000000000E+00 -0.00000000000E+00 -0.64255382564E+03  0.64255382564E+03  0.25500000000E-02 0.  1.
    8880022    1    1    2    0    0  0.60510590577E+03 -0.18868628860E+03  0.13023657206E+04  0.14564696344E+04  0.15294330000E+03 0.  0.
    8880022    1    1    2    0    0 -0.60510590577E+03  0.18868628860E+03 -0.37755053330E+03  0.75345320420E+03  0.15294330000E+03 0.  0.
<mgrwt>
<rscale>  0 0.65203322E+03</rscale>
<asrwt>0</asrwt>
<pdfrwt beam="1">  1        2 0.24113369E+00 0.65203322E+03</pdfrwt>
<pdfrwt beam="2">  1       -2 0.98854436E-01 0.65203322E+03</pdfrwt>
<totfact> 0.10277528E+01</totfact>
</mgrwt>
</event>
<event>
 4    1  0.5410820E-008  0.5476563E+03  0.7818608E-02  0.1002038E+00
         -2   -1    0    0    0  501 -0.00000000000E+00  0.00000000000E+00  0.25613238166E+03  0.25613238167E+03  0.25500000000E-02 0.  1.
          2   -1    0    0  501    0  0.00000000000E+00 -0.00000000000E+00 -0.18054240194E+04  0.18054240194E+04  0.25500000000E-02 0. -1.
    8880022    1    1    2    0    0  0.29079686582E+03  0.43814714725E+03 -0.13856867058E+04  0.14899849125E+04  0.15294330000E+03 0.  0.
    8880022    1    1    2    0    0 -0.29079686582E+03 -0.43814714725E+03 -0.16360493199E+03  0.57157148862E+03  0.15294330000E+03 0.  0.
<mgrwt>
<rscale>  0 0.54765627E+03</rscale>
<asrwt>0</asrwt>
<pdfrwt beam="1">  1        2 0.27775753E+00 0.54765627E+03</pdfrwt>
<pdfrwt beam="2">  1       -2 0.39404983E-01 0.54765627E+03</pdfrwt>
<totfact> 0.55001248E+01</totfact>
</mgrwt>
</event>
<event>
 4    1  0.5410820E-008  0.1586999E+03  0.7818608E-02  0.1190172E+00
          2   -1    0    0  501    0  0.00000000000E+00  0.00000000000E+00  0.28175458414E+04  0.28175458414E+04  0.25500000000E-02 0. -1.
         -2   -1    0    0    0  501 -0.00000000000E+00 -0.00000000000E+00 -0.90321658768E+02  0.90321658804E+02  0.25500000000E-02 0.  1.
    8880022    1    1    2    0    0  0.13230499552E+01 -0.42335042040E+02 -0.16501920961E+02  0.15955554724E+03  0.15294330000E+03 0.  0.
    8880022    1    1    2    0    0 -0.13230499552E+01  0.42335042040E+02  0.27437261036E+04  0.27483119530E+04  0.15294330000E+03 0. -1.
<mgrwt>
<rscale>  0 0.15869990E+03</rscale>
<asrwt>0</asrwt>
<pdfrwt beam="1">  1        2 0.43346863E+00 0.15869990E+03</pdfrwt>
<pdfrwt beam="2">  1       -2 0.13895639E-01 0.15869990E+03</pdfrwt>
<totfact> 0.10943989E+02</totfact>
</mgrwt>
</event>
<event>
 4    1  0.5410820E-008  0.4745309E+03  0.7818608E-02  0.1020649E+00
          2   -1    0    0  501    0  0.00000000000E+00  0.00000000000E+00  0.30300705769E+04  0.30300705769E+04  0.25500000000E-02 0. -1.
         -2   -1    0    0    0  501 -0.00000000000E+00 -0.00000000000E+00 -0.17591419215E+03  0.17591419217E+03  0.25500000000E-02 0.  1.
    8880022    1    1    2    0    0 -0.39920138548E+03  0.20597616808E+03  0.20885678276E+03  0.51845996635E+03  0.15294330000E+03 0.  0.
    8880022    1    1    2    0    0  0.39920138548E+03 -0.20597616808E+03  0.26452996020E+04  0.26875248028E+04  0.15294330000E+03 0.  0.
<mgrwt>
<rscale>  0 0.47453091E+03</rscale>
<asrwt>0</asrwt>
<pdfrwt beam="1">  1        2 0.46616467E+00 0.47453091E+03</pdfrwt>
<pdfrwt beam="2">  1       -2 0.27063724E-01 0.47453091E+03</pdfrwt>
<totfact> 0.23194113E+01</totfact>
</mgrwt>
</event>
<event>
 4    1  0.5410820E-008  0.4524963E+03  0.7818608E-02  0.1026980E+00
         -2   -1    0    0    0  501 -0.00000000000E+00  0.00000000000E+00  0.67704944137E+03  0.67704944138E+03  0.25500000000E-02 0.  1.
          2   -1    0    0  501    0  0.00000000000E+00 -0.00000000000E+00 -0.45409685568E+03  0.45409685569E+03  0.25500000000E-02 0. -1.
    8880022    1    1    2    0    0 -0.35432619574E+03  0.23625019753E+03 -0.21539373750E+03  0.50114601065E+03  0.15294330000E+03 0.  0.
    8880022    1    1    2    0    0  0.35432619574E+03 -0.23625019753E+03  0.43834632318E+03  0.63000028642E+03  0.15294330000E+03 0.  0.
<mgrwt>
<rscale>  0 0.45249626E+03</rscale>
<asrwt>0</asrwt>
<pdfrwt beam="1">  1        2 0.69861054E-01 0.45249626E+03</pdfrwt>
<pdfrwt beam="2">  1       -2 0.10416145E+00 0.45249626E+03</pdfrwt>
<totfact> 0.53432980E+01</totfact>
</mgrwt>
</event>
<event>
 4    1  0.5410820E-008  0.6511737E+03  0.7818608E-02  0.9804579E-01
          2   -1    0    0  501    0  0.00000000000E+00  0.00000000000E+00  0.22285893349E+04  0.22285893349E+04  0.25500000000E-02 0. -1.
         -2   -1    0    0    0  501 -0.00000000000E+00 -0.00000000000E+00 -0.76404403200E+03  0.76404403201E+03  0.25500000000E-02 0.  1.
    8880022    1    1    2    0    0 -0.22050285573E+03 -0.59330764528E+03 -0.56441652039E+03  0.86173843644E+03  0.15294330000E+03 0.  0.
    8880022    1    1    2    0    0  0.22050285573E+03  0.59330764528E+03  0.20289618233E+04  0.21308949305E+04  0.15294330000E+03 0.  0.
<mgrwt>
<rscale>  0 0.65117365E+03</rscale>
<asrwt>0</asrwt>
<pdfrwt beam="1">  1        2 0.34285989E+00 0.65117365E+03</pdfrwt>
<pdfrwt beam="2">  1       -2 0.11754524E+00 0.65117365E+03</pdfrwt>
<totfact> 0.29562395E+00</totfact>
</mgrwt>
</event>
<event>
 4    1  0.5410820E-008  0.5467529E+03  0.7818608E-02  0.1002248E+00
         -2   -1    0    0    0  501 -0.00000000000E+00  0.00000000000E+00  0.22590181086E+03  0.22590181088E+03  0.25500000000E-02 0.  1.
          2   -1    0    0  501    0  0.00000000000E+00 -0.00000000000E+00 -0.16617099915E+04  0.16617099915E+04  0.25500000000E-02 0. -1.
    8880022    1    1    2    0    0  0.46057554071E+03  0.25182792467E+03 -0.29199356788E+03  0.61983790546E+03  0.15294330000E+03 0.  1.
    8880022    1    1    2    0    0 -0.46057554071E+03 -0.25182792467E+03 -0.11438146128E+04  0.12677738969E+04  0.15294330000E+03 0.  0.
<mgrwt>
<rscale>  0 0.54675295E+03</rscale>
<asrwt>0</asrwt>
<pdfrwt beam="1">  1        2 0.25564768E+00 0.54675295E+03</pdfrwt>
<pdfrwt beam="2">  1       -2 0.34754126E-01 0.54675295E+03</pdfrwt>
<totfact> 0.83658973E+01</totfact>
</mgrwt>
</event>
<event>
 4    1  0.5410820E-008  0.3654776E+03  0.7818608E-02  0.1056436E+00
          2   -1    0    0  501    0  0.00000000000E+00  0.00000000000E+00  0.45093720990E+03  0.45093720991E+03  0.25500000000E-02 0. -1.
         -2   -1    0    0    0  501 -0.00000000000E+00 -0.00000000000E+00 -0.50995384159E+03  0.50995384160E+03  0.25500000000E-02 0.  1.
    8880022    1    1    2    0    0 -0.23139788184E+03 -0.23798577203E+03 -0.34055214036E+03  0.49954941771E+03  0.15294330000E+03 0.  0.
    8880022    1    1    2    0    0  0.23139788184E+03  0.23798577203E+03  0.28153550867E+03  0.46134163379E+03  0.15294330000E+03 0. -1.
<mgrwt>
<rscale>  0 0.36547758E+03</rscale>
<asrwt>0</asrwt>
<pdfrwt beam="1">  1        2 0.69374955E-01 0.36547758E+03</pdfrwt>
<pdfrwt beam="2">  1       -2 0.78454437E-01 0.36547758E+03</pdfrwt>
<totfact> 0.10399901E+02</totfact>
</mgrwt>
</event>
<event>
 4    1  0.5410820E-008  0.6911897E+03  0.7818608E-02  0.9732419E-01
          2   -1    0    0  501    0  0.00000000000E+00  0.00000000000E+00  0.21603984220E+04  0.21603984220E+04  0.25500000000E-02 0. -1.
         -2   -1    0    0    0  501 -0.00000000000E+00 -0.00000000000E+00 -0.57400391562E+03  0.57400391563E+03  0.25500000000E-02 0.  1.
    8880022    1    1    2    0    0 -0.44326858730E+03 -0.50780365036E+03  0.18651624557E+04  0.19891139301E+04  0.15294330000E+03 0.  0.
    8880022    1    1    2    0    0  0.44326858730E+03  0.50780365036E+03 -0.27876794932E+03  0.74528840752E+03  0.15294330000E+03 0.  0.
<mgrwt>
<rscale>  0 0.69118973E+03</rscale>
<asrwt>0</asrwt>
<pdfrwt beam="1">  1        2 0.33236899E+00 0.69118973E+03</pdfrwt>
<pdfrwt beam="2">  1       -2 0.88308294E-01 0.69118973E+03</pdfrwt>
<totfact> 0.63045970E+00</totfact>
</mgrwt>
</event>
<event>
 4    1  0.5410820E-008  0.7307112E+03  0.7818608E-02  0.9666107E-01
          2   -1    0    0  501    0  0.00000000000E+00  0.00000000000E+00  0.70801226688E+03  0.70801226689E+03  0.25500000000E-02 0. -1.
         -2   -1    0    0    0  501 -0.00000000000E+00 -0.00000000000E+00 -0.15221660604E+04  0.15221660604E+04  0.25500000000E-02 0.  1.
    8880022    1    1    2    0    0  0.65629691069E+03 -0.28252721755E+03  0.38499961937E+03  0.82593197273E+03  0.15294330000E+03 0.  0.
    8880022    1    1    2    0    0 -0.65629691069E+03  0.28252721755E+03 -0.11991534129E+04  0.14042463546E+04  0.15294330000E+03 0.  0.
<mgrwt>
<rscale>  0 0.73071124E+03</rscale>
<asrwt>0</asrwt>
<pdfrwt beam="1">  1        2 0.10892496E+00 0.73071124E+03</pdfrwt>
<pdfrwt beam="2">  1       -2 0.23417939E+00 0.73071124E+03</pdfrwt>
<totfact> 0.33496580E+00</totfact>
</mgrwt>
</event>
<event>
 4    1  0.5410820E-008  0.9755219E+03  0.7818608E-02  0.9335807E-01
         -2   -1    0    0    0  501 -0.00000000000E+00  0.00000000000E+00  0.85991146996E+03  0.85991146996E+03  0.25500000000E-02 0.  1.
          2   -1    0    0  501    0  0.00000000000E+00 -0.00000000000E+00 -0.13831106047E+04  0.13831106047E+04  0.25500000000E-02 0. -1.
    8880022    1    1    2    0    0  0.93113036141E+03 -0.24748237196E+03 -0.76298500876E+03  0.12384623737E+04  0.15294330000E+03 0.  0.
    8880022    1    1    2    0    0 -0.93113036141E+03  0.24748237196E+03  0.23978587406E+03  0.10045597010E+04  0.15294330000E+03 0.  0.
<mgrwt>
<rscale>  0 0.97552187E+03</rscale>
<asrwt>0</asrwt>
<pdfrwt beam="1">  1        2 0.21278625E+00 0.97552187E+03</pdfrwt>
<pdfrwt beam="2">  1       -2 0.13229407E+00 0.97552187E+03</pdfrwt>
<totfact> 0.61180469E+00</totfact>
</mgrwt>
</event>
<event>
 4    1  0.5410820E-008  0.6633385E+03  0.7818608E-02  0.9782067E-01
          2   -1    0    0  501    0  0.00000000000E+00  0.00000000000E+00  0.14251049956E+04  0.14251049956E+04  0.25500000000E-02 0. -1.
         -2   -1    0    0    0  501 -0.00000000000E+00 -0.00000000000E+00 -0.43163220808E+03  0.43163220809E+03  0.25500000000E-02 0.  1.
    8880022    1    1    2    0    0  0.52280713669E+03  0.37854862726E+03  0.14149511475E+01  0.66334004890E+03  0.15294330000E+03 0.  0.
    8880022    1    1    2    0    0 -0.52280713669E+03 -0.37854862726E+03  0.99205783641E+03  0.11933971548E+04  0.15294330000E+03 0.  0.
<mgrwt>
<rscale>  0 0.66333854E+03</rscale>
<asrwt>0</asrwt>
<pdfrwt beam="1">  1        2 0.21924692E+00 0.66333854E+03</pdfrwt>
<pdfrwt beam="2">  1       -2 0.66404956E-01 0.66333854E+03</pdfrwt>
<totfact> 0.30140018E+01</totfact>
</mgrwt>
</event>
<event>
 4    1  0.5410820E-008  0.2341865E+03  0.7818608E-02  0.1123727E+00
         -2   -1    0    0    0  501 -0.00000000000E+00  0.00000000000E+00  0.41954149256E+03  0.41954149256E+03  0.25500000000E-02 0.  1.
          2   -1    0    0  501    0  0.00000000000E+00 -0.00000000000E+00 -0.10964225099E+04  0.10964225099E+04  0.25500000000E-02 0. -1.
    8880022    1    1    2    0    0  0.13728360292E+03 -0.11227144175E+03  0.37292228121E+03  0.44035706546E+03  0.15294330000E+03 0.  0.
    8880022    1    1    2    0    0 -0.13728360292E+03  0.11227144175E+03 -0.10498032986E+04  0.10756069370E+04  0.15294330000E+03 0.  0.
<mgrwt>
<rscale>  0 0.23418650E+03</rscale>
<asrwt>0</asrwt>
<pdfrwt beam="1">  1        2 0.16868039E+00 0.23418650E+03</pdfrwt>
<pdfrwt beam="2">  1       -2 0.64544845E-01 0.23418650E+03</pdfrwt>
<totfact> 0.53393144E+01</totfact>
</mgrwt>
</event>
<event>
 4    1  0.5410820E-008  0.7475231E+03  0.7818608E-02  0.9639244E-01
          2   -1    0    0  501    0  0.00000000000E+00  0.00000000000E+00  0.11384005061E+04  0.11384005061E+04  0.25500000000E-02 0. -1.
         -2   -1    0    0    0  501 -0.00000000000E+00 -0.00000000000E+00 -0.93783707576E+03  0.93783707576E+03  0.25500000000E-02 0.  1.
    8880022    1    1    2    0    0  0.66337898656E+03  0.30875145918E+03 -0.61640258108E+03  0.96888747455E+03  0.15294330000E+03 0.  1.
    8880022    1    1    2    0    0 -0.66337898656E+03 -0.30875145918E+03  0.81696601144E+03  0.11073501073E+04  0.15294330000E+03 0.  0.
<mgrwt>
<rscale>  0 0.74752311E+03</rscale>
<asrwt>0</asrwt>
<pdfrwt beam="1">  1        2 0.17513854E+00 0.74752311E+03</pdfrwt>
<pdfrwt beam="2">  1       -2 0.14428263E+00 0.74752311E+03</pdfrwt>
<totfact> 0.69894658E+00</totfact>
</mgrwt>
</event>
<event>
 4    1  0.5410820E-008  0.6868152E+03  0.7818608E-02  0.9740049E-01
          2   -1    0    0  501    0  0.00000000000E+00  0.00000000000E+00  0.23093850211E+04  0.23093850211E+04  0.25500000000E-02 0. -1.
         -2   -1    0    0    0  501 -0.00000000000E+00 -0.00000000000E+00 -0.33009687490E+03  0.33009687491E+03  0.25500000000E-02 0.  1.
    8880022    1    1    2    0    0 -0.45832820164E+03 -0.48811749051E+03  0.17480494065E+03  0.70871139771E+03  0.15294330000E+03 0.  0.
    8880022    1    1    2    0    0  0.45832820164E+03  0.48811749051E+03  0.18044832056E+04  0.19307704983E+04  0.15294330000E+03 0.  0.
<mgrwt>
<rscale>  0 0.68681517E+03</rscale>
<asrwt>0</asrwt>
<pdfrwt beam="1">  1        2 0.35529001E+00 0.68681517E+03</pdfrwt>
<pdfrwt beam="2">  1       -2 0.50784134E-01 0.68681517E+03</pdfrwt>
<totfact> 0.17272398E+01</totfact>
</mgrwt>
</event>
<event>
 4    1  0.5410820E-008  0.3145897E+03  0.7818608E-02  0.1078167E+00
         -2   -1    0    0    0  501 -0.00000000000E+00  0.00000000000E+00  0.14552573409E+03  0.14552573411E+03  0.25500000000E-02 0.  1.
          2   -1    0    0  501    0  0.00000000000E+00 -0.00000000000E+00 -0.32739534956E+04  0.32739534956E+04  0.25500000000E-02 0. -1.
    8880022    1    1    2    0    0 -0.27425042679E+03 -0.19019242822E+02 -0.30860557637E+04  0.31020488162E+04  0.15294330000E+03 0.  0.
    8880022    1    1    2    0    0  0.27425042679E+03  0.19019242822E+02 -0.42371997747E+02  0.31743041348E+03  0.15294330000E+03 0.  0.
<mgrwt>
<rscale>  0 0.31458970E+03</rscale>
<asrwt>0</asrwt>
<pdfrwt beam="1">  1        2 0.50368510E+00 0.31458970E+03</pdfrwt>
<pdfrwt beam="2">  1       -2 0.22388577E-01 0.31458970E+03</pdfrwt>
<totfact> 0.24225866E+01</totfact>
</mgrwt>
</event>
<event>
 4    1  0.5410820E-008  0.7317137E+03  0.7818608E-02  0.9664484E-01
         -2   -1    0    0    0  501 -0.00000000000E+00  0.00000000000E+00  0.41183550923E+03  0.41183550923E+03  0.25500000000E-02 0.  1.
          2   -1    0    0  501    0  0.00000000000E+00 -0.00000000000E+00 -0.19395413002E+04  0.19395413002E+04  0.25500000000E-02 0. -1.
    8880022    1    1    2    0    0  0.41305580713E+03  0.58429286477E+03 -0.14389427230E+04  0.16142989391E+04  0.15294330000E+03 0.  0.
    8880022    1    1    2    0    0 -0.41305580713E+03 -0.58429286477E+03 -0.88763067893E+02  0.73707787028E+03  0.15294330000E+03 0.  0.
<mgrwt>
<rscale>  0 0.73171368E+03</rscale>
<asrwt>0</asrwt>
<pdfrwt beam="1">  1        2 0.29839096E+00 0.73171368E+03</pdfrwt>
<pdfrwt beam="2">  1       -2 0.63359310E-01 0.73171368E+03</pdfrwt>
<totfact> 0.17244168E+01</totfact>
</mgrwt>
</event>
<event>
 4    1  0.5410820E-008  0.2680036E+03  0.7818608E-02  0.1102428E+00
          2   -1    0    0  501    0  0.00000000000E+00  0.00000000000E+00  0.15001372988E+04  0.15001372988E+04  0.25500000000E-02 0. -1.
         -2   -1    0    0    0  501 -0.00000000000E+00 -0.00000000000E+00 -0.18216497716E+03  0.18216497718E+03  0.25500000000E-02 0.  1.
    8880022    1    1    2    0    0 -0.52087535998E+02 -0.21382502346E+03 -0.63211422328E+02  0.27535720254E+03  0.15294330000E+03 0.  0.
    8880022    1    1    2    0    0  0.52087535998E+02  0.21382502346E+03  0.13811837440E+04  0.14069450734E+04  0.15294330000E+03 0. -1.
<mgrwt>
<rscale>  0 0.26800355E+03</rscale>
<asrwt>0</asrwt>
<pdfrwt beam="1">  1        2 0.23079035E+00 0.26800355E+03</pdfrwt>
<pdfrwt beam="2">  1       -2 0.28025381E-01 0.26800355E+03</pdfrwt>
<totfact> 0.15964713E+02</totfact>
</mgrwt>
</event>
<event>
 4    1  0.6636486E-008  0.5459003E+03  0.7818608E-02  0.1002447E+00
          2   -1    0    0  501    0  0.00000000000E+00  0.00000000000E+00  0.16847345282E+04  0.16847345282E+04  0.25500000000E-02 0. -1.
         -2   -1    0    0    0  501 -0.00000000000E+00 -0.00000000000E+00 -0.16293952962E+04  0.16293952962E+04  0.25500000000E-02 0.  1.
    8880022    1    1    2    0    0 -0.30475222499E+03 -0.42631158131E+03 -0.15368666964E+04  0.16309403357E+04  0.15294330000E+03 0.  0.
    8880022    1    1    2    0    0  0.30475222499E+03  0.42631158131E+03  0.15922059285E+04  0.16831894887E+04  0.15294330000E+03 0.  0.
<mgrwt>
<rscale>  0 0.54590030E+03</rscale>
<asrwt>0</asrwt>
<pdfrwt beam="1">  1        2 0.25918993E+00 0.54590030E+03</pdfrwt>
<pdfrwt beam="2">  1       -2 0.25067620E+00 0.54590030E+03</pdfrwt>
<totfact> 0.70108665E-01</totfact>
</mgrwt>
</event>
<event>
 4    1  0.5410820E-008  0.1527864E+04  0.7818608E-02  0.8866133E-01
          2   -1    0    0  501    0  0.00000000000E+00  0.00000000000E+00  0.15629442428E+04  0.15629442428E+04  0.25500000000E-02 0. -1.
         -2   -1    0    0    0  501 -0.00000000000E+00 -0.00000000000E+00 -0.23447153621E+04  0.23447153621E+04  0.25500000000E-02 0.  1.
    8880022    1    1    2    0    0  0.14281891191E+04  0.52081790912E+03 -0.15680671356E+04  0.21893381761E+04  0.15294330000E+03 0.  0.
    8880022    1    1    2    0    0 -0.14281891191E+04 -0.52081790912E+03  0.78629601628E+03  0.17183214288E+04  0.15294330000E+03 0.  0.
<mgrwt>
<rscale>  0 0.15278636E+04</rscale>
<asrwt>0</asrwt>
<pdfrwt beam="1">  1        2 0.24045296E+00 0.15278636E+04</pdfrwt>
<pdfrwt beam="2">  1       -2 0.36072544E+00 0.15278636E+04</pdfrwt>
<totfact> 0.14611116E-01</totfact>
</mgrwt>
</event>
<event>
 4    1  0.5410820E-008  0.3292550E+03  0.7818608E-02  0.1071467E+00
          2   -1    0    0  501    0  0.00000000000E+00  0.00000000000E+00  0.11035909905E+04  0.11035909905E+04  0.25500000000E-02 0. -1.
         -2   -1    0    0    0  501 -0.00000000000E+00 -0.00000000000E+00 -0.10865382506E+04  0.10865382506E+04  0.25500000000E-02 0.  1.
    8880022    1    1    2    0    0  0.20024737349E+03  0.21193908068E+03  0.10529166768E+04  0.11031964312E+04  0.15294330000E+03 0.  0.
    8880022    1    1    2    0    0 -0.20024737349E+03 -0.21193908068E+03 -0.10358639369E+04  0.10869328099E+04  0.15294330000E+03 0.  1.
<mgrwt>
<rscale>  0 0.32925497E+03</rscale>
<asrwt>0</asrwt>
<pdfrwt beam="1">  1        2 0.16978323E+00 0.32925497E+03</pdfrwt>
<pdfrwt beam="2">  1       -2 0.16715973E+00 0.32925497E+03</pdfrwt>
<totfact> 0.53976799E+00</totfact>
</mgrwt>
</event>
<event>
 4    1  0.5410820E-008  0.5969763E+03  0.7818608E-02  0.9911699E-01
          2   -1    0    0  501    0  0.00000000000E+00  0.00000000000E+00  0.96677363688E+03  0.96677363688E+03  0.25500000000E-02 0. -1.
         -2   -1    0    0    0  501 -0.00000000000E+00 -0.00000000000E+00 -0.48502163660E+03  0.48502163661E+03  0.25500000000E-02 0.  1.
    8880022    1    1    2    0    0 -0.26656625833E+03 -0.51179247191E+03  0.59647264900E+03  0.84389595235E+03  0.15294330000E+03 0.  0.
    8880022    1    1    2    0    0  0.26656625833E+03  0.51179247191E+03 -0.11472064872E+03  0.60789932114E+03  0.15294330000E+03 0.  0.
<mgrwt>
<rscale>  0 0.59697635E+03</rscale>
<asrwt>0</asrwt>
<pdfrwt beam="1">  1        2 0.14873441E+00 0.59697635E+03</pdfrwt>
<pdfrwt beam="2">  1       -2 0.74618714E-01 0.59697635E+03</pdfrwt>
<totfact> 0.44065276E+01</totfact>
</mgrwt>
</event>
<event>
 4    1  0.5410820E-008  0.1533221E+04  0.7818608E-02  0.8862657E-01
          2   -1    0    0  501    0  0.00000000000E+00  0.00000000000E+00  0.32302244794E+04  0.32302244794E+04  0.25500000000E-02 0. -1.
         -2   -1    0    0    0  501 -0.00000000000E+00 -0.00000000000E+00 -0.11664753278E+04  0.11664753278E+04  0.25500000000E-02 0.  1.
    8880022    1    1    2    0    0  0.22648181480E+03  0.15086691014E+04  0.23800910956E+04  0.28311838065E+04  0.15294330000E+03 0.  0.
    8880022    1    1    2    0    0 -0.22648181480E+03 -0.15086691014E+04 -0.31634194403E+03  0.15655160007E+04  0.15294330000E+03 0.  0.
<mgrwt>
<rscale>  0 0.15332215E+04</rscale>
<asrwt>0</asrwt>
<pdfrwt beam="1">  1        2 0.49695760E+00 0.15332215E+04</pdfrwt>
<pdfrwt beam="2">  1       -2 0.17945775E+00 0.15332215E+04</pdfrwt>
<totfact> 0.21356879E-01</totfact>
</mgrwt>
</event>
<event>
 4    1  0.5410820E-008  0.4574695E+03  0.7818608E-02  0.1025518E+00
         -2   -1    0    0    0  501 -0.00000000000E+00  0.00000000000E+00  0.29194789365E+03  0.29194789366E+03  0.25500000000E-02 0.  1.
          2   -1    0    0  501    0  0.00000000000E+00 -0.00000000000E+00 -0.11383088693E+04  0.11383088693E+04  0.25500000000E-02 0. -1.
    8880022    1    1    2    0    0  0.32369523720E+03 -0.28479488932E+03 -0.85833092322E+03  0.97263064024E+03  0.15294330000E+03 0. -1.
    8880022    1    1    2    0    0 -0.32369523720E+03  0.28479488932E+03  0.11969947533E+02  0.45762612276E+03  0.15294330000E+03 0.  0.
<mgrwt>
<rscale>  0 0.45746955E+03</rscale>
<asrwt>0</asrwt>
<pdfrwt beam="1">  1        2 0.17512444E+00 0.45746955E+03</pdfrwt>
<pdfrwt beam="2">  1       -2 0.44915061E-01 0.45746955E+03</pdfrwt>
<totfact> 0.10134008E+02</totfact>
</mgrwt>
</event>
<event>
 4    1  0.5410820E-008  0.3104081E+03  0.7818608E-02  0.1080150E+00
         -2   -1    0    0    0  501 -0.00000000000E+00  0.00000000000E+00  0.10702833348E+03  0.10702833351E+03  0.25500000000E-02 0.  1.
          2   -1    0    0  501    0  0.00000000000E+00 -0.00000000000E+00 -0.11598273513E+04  0.11598273513E+04  0.25500000000E-02 0. -1.
    8880022    1    1    2    0    0 -0.19695308523E+03 -0.18485412223E+03 -0.82605784944E+03  0.88245384465E+03  0.15294330000E+03 0.  0.
    8880022    1    1    2    0    0  0.19695308523E+03  0.18485412223E+03 -0.22674116842E+03  0.38440184021E+03  0.15294330000E+03 0.  0.
<mgrwt>
<rscale>  0 0.31040815E+03</rscale>
<asrwt>0</asrwt>
<pdfrwt beam="1">  1        2 0.17843497E+00 0.31040815E+03</pdfrwt>
<pdfrwt beam="2">  1       -2 0.16465898E-01 0.31040815E+03</pdfrwt>
<totfact> 0.61752744E+02</totfact>
</mgrwt>
</event>
<event>
 4    1  0.5410820E-008  0.5281175E+03  0.7818608E-02  0.1006690E+00
         -2   -1    0    0    0  501 -0.00000000000E+00  0.00000000000E+00  0.53185051497E+03  0.53185051498E+03  0.25500000000E-02 0.  1.
          2   -1    0    0  501    0  0.00000000000E+00 -0.00000000000E+00 -0.27035487823E+04  0.27035487823E+04  0.25500000000E-02 0. -1.
    8880022    1    1    2    0    0  0.70157995481E+01  0.50543769254E+03 -0.25382053728E+04  0.25925652644E+04  0.15294330000E+03 0.  0.
    8880022    1    1    2    0    0 -0.70157995481E+01 -0.50543769254E+03  0.36650710547E+03  0.64283403291E+03  0.15294330000E+03 0.  0.
<mgrwt>
<rscale>  0 0.52811754E+03</rscale>
<asrwt>0</asrwt>
<pdfrwt beam="1">  1        2 0.41593057E+00 0.52811754E+03</pdfrwt>
<pdfrwt beam="2">  1       -2 0.81823158E-01 0.52811754E+03</pdfrwt>
<totfact> 0.38598519E+00</totfact>
</mgrwt>
</event>
<event>
 4    1  0.5410820E-008  0.6328591E+03  0.7818608E-02  0.9839485E-01
          2   -1    0    0  501    0  0.00000000000E+00  0.00000000000E+00  0.11517233063E+04  0.11517233063E+04  0.25500000000E-02 0. -1.
         -2   -1    0    0    0  501 -0.00000000000E+00 -0.00000000000E+00 -0.47152747797E+03  0.47152747798E+03  0.25500000000E-02 0.  1.
    8880022    1    1    2    0    0 -0.20492120671E+03  0.57890097819E+03  0.75593631065E+03  0.98587544969E+03  0.15294330000E+03 0.  0.
    8880022    1    1    2    0    0  0.20492120671E+03 -0.57890097819E+03 -0.75740482290E+02  0.63737533462E+03  0.15294330000E+03 0.  0.
<mgrwt>
<rscale>  0 0.63285914E+03</rscale>
<asrwt>0</asrwt>
<pdfrwt beam="1">  1        2 0.17718820E+00 0.63285914E+03</pdfrwt>
<pdfrwt beam="2">  1       -2 0.72542688E-01 0.63285914E+03</pdfrwt>
<totfact> 0.35883672E+01</totfact>
</mgrwt>
</event>
<event>
 4    1  0.5410820E-008  0.8423551E+03  0.7818608E-02  0.9500656E-01
          2   -1    0    0  501    0  0.00000000000E+00  0.00000000000E+00  0.14951915609E+04  0.14951915609E+04  0.25500000000E-02 0. -1.
         -2   -1    0    0    0  501 -0.00000000000E+00 -0.00000000000E+00 -0.83323830862E+03  0.83323830862E+03  0.25500000000E-02 0.  1.
    8880022    1    1    2    0    0 -0.71324724239E+02 -0.82527765688E+03 -0.43285827750E+03  0.94706302253E+03  0.15294330000E+03 0.  0.
    8880022    1    1    2    0    0  0.71324724239E+02  0.82527765688E+03  0.10948115298E+04  0.13813668470E+04  0.15294330000E+03 0.  0.
<mgrwt>
<rscale>  0 0.84235508E+03</rscale>
<asrwt>0</asrwt>
<pdfrwt beam="1">  1        2 0.23002947E+00 0.84235508E+03</pdfrwt>
<pdfrwt beam="2">  1       -2 0.12819051E+00 0.84235508E+03</pdfrwt>
<totfact> 0.58185222E+00</totfact>
</mgrwt>
</event>
<event>
 4    1  0.5410820E-008  0.5483294E+03  0.7818608E-02  0.1001881E+00
         -2   -1    0    0    0  501 -0.00000000000E+00  0.00000000000E+00  0.90577402499E+03  0.90577402500E+03  0.25500000000E-02 0.  1.
          2   -1    0    0  501    0  0.00000000000E+00 -0.00000000000E+00 -0.39439608387E+03  0.39439608388E+03  0.25500000000E-02 0. -1.
    8880022    1    1    2    0    0  0.36842900948E+03  0.37620940024E+03  0.51438024139E+03  0.75183251699E+03  0.15294330000E+03 0. -1.
    8880022    1    1    2    0    0 -0.36842900948E+03 -0.37620940024E+03 -0.30023002694E+01  0.54833759189E+03  0.15294330000E+03 0.  0.
<mgrwt>
<rscale>  0 0.54832937E+03</rscale>
<asrwt>0</asrwt>
<pdfrwt beam="1">  1        2 0.60676321E-01 0.54832937E+03</pdfrwt>
<pdfrwt beam="2">  1       -2 0.13934985E+00 0.54832937E+03</pdfrwt>
<totfact> 0.30245985E+01</totfact>
</mgrwt>
</event>
<event>
 4    1  0.5410820E-008  0.6123777E+03  0.7818608E-02  0.9880054E-01
          2   -1    0    0  501    0  0.00000000000E+00  0.00000000000E+00  0.23092923842E+04  0.23092923842E+04  0.25500000000E-02 0. -1.
         -2   -1    0    0    0  501 -0.00000000000E+00 -0.00000000000E+00 -0.23543413902E+03  0.23543413903E+03  0.25500000000E-02 0.  1.
    8880022    1    1    2    0    0 -0.19923955668E+03 -0.55849656542E+03  0.32821926311E+03  0.69479086941E+03  0.15294330000E+03 0.  0.
    8880022    1    1    2    0    0  0.19923955668E+03  0.55849656542E+03  0.17456389821E+04  0.18499356538E+04  0.15294330000E+03 0. -1.
<mgrwt>
<rscale>  0 0.61237772E+03</rscale>
<asrwt>0</asrwt>
<pdfrwt beam="1">  1        2 0.35527574E+00 0.61237772E+03</pdfrwt>
<pdfrwt beam="2">  1       -2 0.36220638E-01 0.61237772E+03</pdfrwt>
<totfact> 0.34063061E+01</totfact>
</mgrwt>
</event>
<event>
 4    1  0.5410820E-008  0.3758973E+03  0.7818608E-02  0.1052461E+00
         -2   -1    0    0    0  501 -0.00000000000E+00  0.00000000000E+00  0.20728149639E+03  0.20728149641E+03  0.25500000000E-02 0.  1.
          2   -1    0    0  501    0  0.00000000000E+00 -0.00000000000E+00 -0.15671120676E+04  0.15671120676E+04  0.25500000000E-02 0. -1.
    8880022    1    1    2    0    0 -0.31664230168E+03  0.13283374283E+03 -0.13033960462E+02  0.37612323458E+03  0.15294330000E+03 0.  1.
    8880022    1    1    2    0    0  0.31664230168E+03 -0.13283374283E+03 -0.13467966108E+04  0.13982703294E+04  0.15294330000E+03 0.  0.
<mgrwt>
<rscale>  0 0.37589733E+03</rscale>
<asrwt>0</asrwt>
<pdfrwt beam="1">  1        2 0.24109416E+00 0.37589733E+03</pdfrwt>
<pdfrwt beam="2">  1       -2 0.31889462E-01 0.37589733E+03</pdfrwt>
<totfact> 0.11356704E+02</totfact>
</mgrwt>
</event>
<event>
 4    1  0.5410820E-008  0.2656464E+03  0.7818608E-02  0.1103797E+00
         -2   -1    0    0    0  501 -0.00000000000E+00  0.00000000000E+00  0.13250846470E+03  0.13250846473E+03  0.25500000000E-02 0.  1.
          2   -1    0    0  501    0  0.00000000000E+00 -0.00000000000E+00 -0.17829111123E+04  0.17829111123E+04  0.25500000000E-02 0. -1.
    8880022    1    1    2    0    0  0.10949277335E+03 -0.18758386629E+03 -0.16272227391E+04  0.16487637399E+04  0.15294330000E+03 0.  0.
    8880022    1    1    2    0    0 -0.10949277335E+03  0.18758386629E+03 -0.23179908500E+02  0.26665583714E+03  0.15294330000E+03 0.  0.
<mgrwt>
<rscale>  0 0.26564643E+03</rscale>
<asrwt>0</asrwt>
<pdfrwt beam="1">  1        2 0.27429400E+00 0.26564643E+03</pdfrwt>
<pdfrwt beam="2">  1       -2 0.20385919E-01 0.26564643E+03</pdfrwt>
<totfact> 0.19813951E+02</totfact>
</mgrwt>
</event>
<event>
 4    1  0.5410820E-008  0.5064017E+03  0.7818608E-02  0.1012121E+00
          2   -1    0    0  501    0  0.00000000000E+00  0.00000000000E+00  0.12897586338E+04  0.12897586338E+04  0.25500000000E-02 0. -1.
         -2   -1    0    0    0  501 -0.00000000000E+00 -0.00000000000E+00 -0.25317033419E+03  0.25317033420E+03  0.25500000000E-02 0.  1.
    8880022    1    1    2    0    0 -0.28156633146E+03 -0.39213694902E+03  0.16088069273E+03  0.53134286116E+03  0.15294330000E+03 0.  0.
    8880022    1    1    2    0    0  0.28156633146E+03  0.39213694902E+03  0.87570760684E+03  0.10115861068E+04  0.15294330000E+03 0.  0.
<mgrwt>
<rscale>  0 0.50640166E+03</rscale>
<asrwt>0</asrwt>
<pdfrwt beam="1">  1        2 0.19842441E+00 0.50640166E+03</pdfrwt>
<pdfrwt beam="2">  1       -2 0.38949282E-01 0.50640166E+03</pdfrwt>
<totfact> 0.10865537E+02</totfact>
</mgrwt>
</event>
<event>
 4    1  0.5410820E-008  0.2503960E+03  0.7818608E-02  0.1113055E+00
          2   -1    0    0  501    0  0.00000000000E+00  0.00000000000E+00  0.21737749066E+04  0.21737749066E+04  0.25500000000E-02 0. -1.
         -2   -1    0    0    0  501 -0.00000000000E+00 -0.00000000000E+00 -0.64089328228E+03  0.64089328228E+03  0.25500000000E-02 0.  1.
    8880022    1    1    2    0    0 -0.12279573468E+03  0.15565259798E+03  0.21417422683E+04  0.21563297801E+04  0.15294330000E+03 0.  0.
    8880022    1    1    2    0    0  0.12279573468E+03 -0.15565259798E+03 -0.60886064396E+03  0.65833840880E+03  0.15294330000E+03 0.  1.
<mgrwt>
<rscale>  0 0.25039604E+03</rscale>
<asrwt>0</asrwt>
<pdfrwt beam="1">  1        2 0.33442691E+00 0.25039604E+03</pdfrwt>
<pdfrwt beam="2">  1       -2 0.98598965E-01 0.25039604E+03</pdfrwt>
<totfact> 0.54899107E+00</totfact>
</mgrwt>
</event>
<event>
 4    1  0.5410820E-008  0.4003745E+03  0.7818608E-02  0.1043650E+00
          2   -1    0    0  501    0  0.00000000000E+00  0.00000000000E+00  0.16749602511E+04  0.16749602511E+04  0.25500000000E-02 0. -1.
         -2   -1    0    0    0  501 -0.00000000000E+00 -0.00000000000E+00 -0.13886404541E+03  0.13886404543E+03  0.25500000000E-02 0.  1.
    8880022    1    1    2    0    0 -0.32842413220E+03 -0.17042784229E+03  0.26244083230E+03  0.47872215690E+03  0.15294330000E+03 0.  0.
    8880022    1    1    2    0    0  0.32842413220E+03  0.17042784229E+03  0.12736553734E+04  0.13351021397E+04  0.15294330000E+03 0.  0.
<mgrwt>
<rscale>  0 0.40037447E+03</rscale>
<asrwt>0</asrwt>
<pdfrwt beam="1">  1        2 0.25768621E+00 0.40037447E+03</pdfrwt>
<pdfrwt beam="2">  1       -2 0.21363698E-01 0.40037447E+03</pdfrwt>
<totfact> 0.20328840E+02</totfact>
</mgrwt>
</event>
<event>
 4    1  0.5410820E-008  0.7460282E+03  0.7818608E-02  0.9641602E-01
         -2   -1    0    0    0  501 -0.00000000000E+00  0.00000000000E+00  0.17640043072E+04  0.17640043072E+04  0.25500000000E-02 0.  1.
          2   -1    0    0  501    0  0.00000000000E+00 -0.00000000000E+00 -0.76457716542E+03  0.76457716543E+03  0.25500000000E-02 0. -1.
    8880022    1    1    2    0    0 -0.72808007532E+03  0.55370353163E+02  0.14686443073E+04  0.16472626464E+04  0.15294330000E+03 0.  0.
    8880022    1    1    2    0    0  0.72808007532E+03 -0.55370353163E+02 -0.46921716545E+03  0.88131882622E+03  0.15294330000E+03 0.  0.
<mgrwt>
<rscale>  0 0.74602823E+03</rscale>
<asrwt>0</asrwt>
<pdfrwt beam="1">  1        2 0.11762726E+00 0.74602823E+03</pdfrwt>
<pdfrwt beam="2">  1       -2 0.27138528E+00 0.74602823E+03</pdfrwt>
<totfact> 0.18028207E+00</totfact>
</mgrwt>
</event>
<event>
 4    1  0.5839927E-008  0.1005389E+04  0.7818608E-02  0.9302654E-01
          2   -1    0    0  501    0  0.00000000000E+00  0.00000000000E+00  0.27366176524E+04  0.27366176524E+04  0.25500000000E-02 0. -1.
         -2   -1    0    0    0  501 -0.00000000000E+00 -0.00000000000E+00 -0.10002785419E+04  0.10002785419E+04  0.25500000000E-02 0.  1.
    8880022    1    1    2    0    0  0.15568602258E+03  0.98141589606E+03  0.23520741106E+04  0.25579404946E+04  0.15294330000E+03 0.  0.
    8880022    1    1    2    0    0 -0.15568602258E+03 -0.98141589606E+03 -0.61573500006E+03  0.11789556997E+04  0.15294330000E+03 0.  0.
<mgrwt>
<rscale>  0 0.10053890E+04</rscale>
<asrwt>0</asrwt>
<pdfrwt beam="1">  1        2 0.42101809E+00 0.10053890E+04</pdfrwt>
<pdfrwt beam="2">  1       -2 0.15388901E+00 0.10053890E+04</pdfrwt>
<totfact> 0.71345781E-01</totfact>
</mgrwt>
</event>
<event>
 4    1  0.5410820E-008  0.4254987E+03  0.7818608E-02  0.1035291E+00
         -2   -1    0    0    0  501 -0.00000000000E+00  0.00000000000E+00  0.16293281881E+04  0.16293281881E+04  0.25500000000E-02 0.  1.
          2   -1    0    0  501    0  0.00000000000E+00 -0.00000000000E+00 -0.68166823621E+03  0.68166823621E+03  0.25500000000E-02 0. -1.
    8880022    1    1    2    0    0 -0.77300378349E+02 -0.38946389519E+03  0.15309623134E+04  0.15889917345E+04  0.15294330000E+03 0.  1.
    8880022    1    1    2    0    0  0.77300378349E+02  0.38946389519E+03 -0.58330236153E+03  0.72200468982E+03  0.15294330000E+03 0.  0.
<mgrwt>
<rscale>  0 0.42549868E+03</rscale>
<asrwt>0</asrwt>
<pdfrwt beam="1">  1        2 0.10487204E+00 0.42549868E+03</pdfrwt>
<pdfrwt beam="2">  1       -2 0.25066587E+00 0.42549868E+03</pdfrwt>
<totfact> 0.29641015E+00</totfact>
</mgrwt>
</event>
<event>
 4    1  0.5410820E-008  0.6920706E+03  0.7818608E-02  0.9730889E-01
         -2   -1    0    0    0  501 -0.00000000000E+00  0.00000000000E+00  0.10222815941E+04  0.10222815941E+04  0.25500000000E-02 0.  1.
          2   -1    0    0  501    0  0.00000000000E+00 -0.00000000000E+00 -0.12379928641E+04  0.12379928641E+04  0.25500000000E-02 0. -1.
    8880022    1    1    2    0    0  0.48954683254E+03 -0.46466546857E+03 -0.99883594912E+03  0.12151687147E+04  0.15294330000E+03 0.  0.
    8880022    1    1    2    0    0 -0.48954683254E+03  0.46466546857E+03  0.78312467919E+03  0.10451057435E+04  0.15294330000E+03 0.  0.
<mgrwt>
<rscale>  0 0.69207063E+03</rscale>
<asrwt>0</asrwt>
<pdfrwt beam="1">  1        2 0.19046044E+00 0.69207063E+03</pdfrwt>
<pdfrwt beam="2">  1       -2 0.15727409E+00 0.69207063E+03</pdfrwt>
<totfact> 0.48944088E+00</totfact>
</mgrwt>
</event>
<event>
 4    1  0.5410820E-008  0.5612908E+03  0.7818608E-02  0.9989138E-01
         -2   -1    0    0    0  501 -0.00000000000E+00  0.00000000000E+00  0.25678862065E+04  0.25678862065E+04  0.25500000000E-02 0.  1.
          2   -1    0    0  501    0  0.00000000000E+00 -0.00000000000E+00 -0.20820436036E+03  0.20820436038E+03  0.25500000000E-02 0. -1.
    8880022    1    1    2    0    0  0.32384912451E+03  0.43217757782E+03  0.20694204272E+04  0.21441894206E+04  0.15294330000E+03 0.  1.
    8880022    1    1    2    0    0 -0.32384912451E+03 -0.43217757782E+03  0.29026141892E+03  0.63190114618E+03  0.15294330000E+03 0.  0.
<mgrwt>
<rscale>  0 0.56129080E+03</rscale>
<asrwt>0</asrwt>
<pdfrwt beam="1">  1        2 0.32031441E-01 0.56129080E+03</pdfrwt>
<pdfrwt beam="2">  1       -2 0.39505941E+00 0.56129080E+03</pdfrwt>
<totfact> 0.14511301E+00</totfact>
</mgrwt>
</event>
<event>
 4    1  0.5410820E-008  0.1124294E+04  0.7818608E-02  0.9181831E-01
         -2   -1    0    0    0  501 -0.00000000000E+00  0.00000000000E+00  0.14297541696E+04  0.14297541696E+04  0.25500000000E-02 0.  1.
          2   -1    0    0  501    0  0.00000000000E+00 -0.00000000000E+00 -0.25128127871E+04  0.25128127871E+04  0.25500000000E-02 0. -1.
    8880022    1    1    2    0    0  0.10586767216E+04 -0.34619362739E+03 -0.21285842997E+04  0.24072617644E+04  0.15294330000E+03 0.  0.
    8880022    1    1    2    0    0 -0.10586767216E+04  0.34619362739E+03  0.10455256822E+04  0.15353051923E+04  0.15294330000E+03 0.  0.
<mgrwt>
<rscale>  0 0.11242945E+04</rscale>
<asrwt>0</asrwt>
<pdfrwt beam="1">  1        2 0.38658658E+00 0.11242945E+04</pdfrwt>
<pdfrwt beam="2">  1       -2 0.21996218E+00 0.11242945E+04</pdfrwt>
<totfact> 0.33419837E-01</totfact>
</mgrwt>
</event>
<event>
 4    1  0.5410820E-008  0.5416493E+03  0.7818608E-02  0.1003445E+00
         -2   -1    0    0    0  501 -0.00000000000E+00  0.00000000000E+00  0.90469210058E+03  0.90469210058E+03  0.25500000000E-02 0.  1.
          2   -1    0    0  501    0  0.00000000000E+00 -0.00000000000E+00 -0.71736943680E+03  0.71736943680E+03  0.25500000000E-02 0. -1.
    8880022    1    1    2    0    0 -0.18249546234E+03 -0.48650565404E+03  0.69401228625E+03  0.88036188677E+03  0.15294330000E+03 0.  1.
    8880022    1    1    2    0    0  0.18249546234E+03  0.48650565404E+03 -0.50668962247E+03  0.74169965062E+03  0.15294330000E+03 0.  0.
<mgrwt>
<rscale>  0 0.54164933E+03</rscale>
<asrwt>0</asrwt>
<pdfrwt beam="1">  1        2 0.11036453E+00 0.54164933E+03</pdfrwt>
<pdfrwt beam="2">  1       -2 0.13918340E+00 0.54164933E+03</pdfrwt>
<totfact> 0.15063568E+01</totfact>
</mgrwt>
</event>
<event>
 4    1  0.5410820E-008  0.2172999E+03  0.7818608E-02  0.1135912E+00
          2   -1    0    0  501    0  0.00000000000E+00  0.00000000000E+00  0.42721963525E+03  0.42721963525E+03  0.25500000000E-02 0. -1.
         -2   -1    0    0    0  501 -0.00000000000E+00 -0.00000000000E+00 -0.39454570018E+03  0.39454570018E+03  0.25500000000E-02 0.  1.
    8880022    1    1    2    0    0 -0.17660824252E+00  0.15436178429E+03  0.36494929431E+03  0.42474372518E+03  0.15294330000E+03 0.  0.
    8880022    1    1    2    0    0  0.17660824252E+00 -0.15436178429E+03 -0.33227535924E+03  0.39702161026E+03  0.15294330000E+03 0.  1.
<mgrwt>
<rscale>  0 0.21729990E+03</rscale>
<asrwt>0</asrwt>
<pdfrwt beam="1">  1        2 0.65726097E-01 0.21729990E+03</pdfrwt>
<pdfrwt beam="2">  1       -2 0.60699339E-01 0.21729990E+03</pdfrwt>
<totfact> 0.19423585E+02</totfact>
</mgrwt>
</event>
<event>
 4    1  0.5410820E-008  0.1571869E+03  0.7818608E-02  0.1191910E+00
          2   -1    0    0  501    0  0.00000000000E+00  0.00000000000E+00  0.83727716590E+03  0.83727716591E+03  0.25500000000E-02 0. -1.
         -2   -1    0    0    0  501 -0.00000000000E+00 -0.00000000000E+00 -0.54982112014E+02  0.54982112074E+02  0.25500000000E-02 0.  1.
    8880022    1    1    2    0    0  0.34996074114E+01  0.36108541744E+02  0.69480650457E+03  0.71236493867E+03  0.15294330000E+03 0.  0.
    8880022    1    1    2    0    0 -0.34996074114E+01 -0.36108541744E+02  0.87488549317E+02  0.17989433931E+03  0.15294330000E+03 0.  1.
<mgrwt>
<rscale>  0 0.15718692E+03</rscale>
<asrwt>0</asrwt>
<pdfrwt beam="1">  1        2 0.12881186E+00 0.15718692E+03</pdfrwt>
<pdfrwt beam="2">  1       -2 0.84587875E-02 0.15718692E+03</pdfrwt>
<totfact> 0.28566653E+03</totfact>
</mgrwt>
</event>
<event>
 4    1  0.5410820E-008  0.4886938E+03  0.7818608E-02  0.1016773E+00
          2   -1    0    0  501    0  0.00000000000E+00  0.00000000000E+00  0.13929294305E+04  0.13929294305E+04  0.25500000000E-02 0. -1.
         -2   -1    0    0    0  501 -0.00000000000E+00 -0.00000000000E+00 -0.81026196070E+03  0.81026196071E+03  0.25500000000E-02 0.  1.
    8880022    1    1    2    0    0  0.31586030830E+03  0.34009150172E+03  0.12694603606E+04  0.13602761572E+04  0.15294330000E+03 0.  0.
    8880022    1    1    2    0    0 -0.31586030830E+03 -0.34009150172E+03 -0.68679289075E+03  0.84291523399E+03  0.15294330000E+03 0.  0.
<mgrwt>
<rscale>  0 0.48869379E+03</rscale>
<asrwt>0</asrwt>
<pdfrwt beam="1">  1        2 0.21429684E+00 0.48869379E+03</pdfrwt>
<pdfrwt beam="2">  1       -2 0.12465569E+00 0.48869379E+03</pdfrwt>
<totfact> 0.75486973E+00</totfact>
</mgrwt>
</event>
<event>
 4    1  0.5410820E-008  0.6988704E+03  0.7818608E-02  0.9719166E-01
         -2   -1    0    0    0  501 -0.00000000000E+00  0.00000000000E+00  0.44709031362E+03  0.44709031362E+03  0.25500000000E-02 0.  1.
          2   -1    0    0  501    0  0.00000000000E+00 -0.00000000000E+00 -0.14302742027E+04  0.14302742027E+04  0.25500000000E-02 0. -1.
    8880022    1    1    2    0    0  0.67209491226E+03 -0.11539761771E+03 -0.94779696178E+03  0.11775987921E+04  0.15294330000E+03 0.  0.
    8880022    1    1    2    0    0 -0.67209491226E+03  0.11539761771E+03 -0.35386927326E+02  0.69976572430E+03  0.15294330000E+03 0.  0.
<mgrwt>
<rscale>  0 0.69887040E+03</rscale>
<asrwt>0</asrwt>
<pdfrwt beam="1">  1        2 0.22004218E+00 0.69887040E+03</pdfrwt>
<pdfrwt beam="2">  1       -2 0.68783126E-01 0.69887040E+03</pdfrwt>
<totfact> 0.27622010E+01</totfact>
</mgrwt>
</event>
<event>
 4    1  0.5410820E-008  0.6069873E+03  0.7818608E-02  0.9891015E-01
         -2   -1    0    0    0  501 -0.00000000000E+00  0.00000000000E+00  0.60066365205E+03  0.60066365205E+03  0.25500000000E-02 0.  1.
          2   -1    0    0  501    0  0.00000000000E+00 -0.00000000000E+00 -0.21033993511E+04  0.21033993511E+04  0.25500000000E-02 0. -1.
    8880022    1    1    2    0    0  0.52715623968E+03  0.25912970399E+03  0.38657975062E+03  0.71963703429E+03  0.15294330000E+03 0.  0.
    8880022    1    1    2    0    0 -0.52715623968E+03 -0.25912970399E+03 -0.18893154496E+04  0.19844259688E+04  0.15294330000E+03 0.  0.
<mgrwt>
<rscale>  0 0.60698728E+03</rscale>
<asrwt>0</asrwt>
<pdfrwt beam="1">  1        2 0.32359990E+00 0.60698728E+03</pdfrwt>
<pdfrwt beam="2">  1       -2 0.92409794E-01 0.60698728E+03</pdfrwt>
<totfact> 0.61999340E+00</totfact>
</mgrwt>
</event>
<event>
 4    1  0.5410820E-008  0.2510293E+03  0.7818608E-02  0.1112656E+00
          2   -1    0    0  501    0  0.00000000000E+00  0.00000000000E+00  0.68509843654E+03  0.68509843655E+03  0.25500000000E-02 0. -1.
         -2   -1    0    0    0  501 -0.00000000000E+00 -0.00000000000E+00 -0.16154848173E+03  0.16154848175E+03  0.25500000000E-02 0.  1.
    8880022    1    1    2    0    0  0.15529389621E+03  0.12453065289E+03 -0.16020674034E+02  0.25154004198E+03  0.15294330000E+03 0.  1.
    8880022    1    1    2    0    0 -0.15529389621E+03 -0.12453065289E+03  0.53957062885E+03  0.59510687632E+03  0.15294330000E+03 0.  0.
<mgrwt>
<rscale>  0 0.25102934E+03</rscale>
<asrwt>0</asrwt>
<pdfrwt beam="1">  1        2 0.10539976E+00 0.25102934E+03</pdfrwt>
<pdfrwt beam="2">  1       -2 0.24853613E-01 0.25102934E+03</pdfrwt>
<totfact> 0.62174401E+02</totfact>
</mgrwt>
</event>
<event>
 4    1  0.5410820E-008  0.2172638E+03  0.7818608E-02  0.1135940E+00
         -2   -1    0    0    0  501 -0.00000000000E+00  0.00000000000E+00  0.79308582635E+03  0.79308582635E+03  0.25500000000E-02 0.  1.
          2   -1    0    0  501    0  0.00000000000E+00 -0.00000000000E+00 -0.32392775581E+03  0.32392775582E+03  0.25500000000E-02 0. -1.
    8880022    1    1    2    0    0  0.31688714395E+02  0.15102223332E+03  0.73917344042E+03  0.77044202742E+03  0.15294330000E+03 0.  0.
    8880022    1    1    2    0    0 -0.31688714395E+02 -0.15102223332E+03 -0.27001536988E+03  0.34657155476E+03  0.15294330000E+03 0. -1.
<mgrwt>
<rscale>  0 0.21726376E+03</rscale>
<asrwt>0</asrwt>
<pdfrwt beam="1">  1        2 0.49835039E-01 0.21726376E+03</pdfrwt>
<pdfrwt beam="2">  1       -2 0.12201320E+00 0.21726376E+03</pdfrwt>
<totfact> 0.54625742E+01</totfact>
</mgrwt>
</event>
<event>
 4    1  0.5410820E-008  0.1140543E+04  0.7818608E-02  0.9166553E-01
          2   -1    0    0  501    0  0.00000000000E+00  0.00000000000E+00  0.10021298007E+04  0.10021298007E+04  0.25500000000E-02 0. -1.
         -2   -1    0    0    0  501 -0.00000000000E+00 -0.00000000000E+00 -0.14634123463E+04  0.14634123463E+04  0.25500000000E-02 0.  1.
    8880022    1    1    2    0    0 -0.75362234199E+03 -0.84231760481E+03  0.18372816190E+03  0.11552459791E+04  0.15294330000E+03 0.  0.
    8880022    1    1    2    0    0  0.75362234199E+03  0.84231760481E+03 -0.64501070754E+03  0.13102961679E+04  0.15294330000E+03 0.  0.
<mgrwt>
<rscale>  0 0.11405425E+04</rscale>
<asrwt>0</asrwt>
<pdfrwt beam="1">  1        2 0.15417382E+00 0.11405425E+04</pdfrwt>
<pdfrwt beam="2">  1       -2 0.22514036E+00 0.11405425E+04</pdfrwt>
<totfact> 0.22542292E+00</totfact>
</mgrwt>
</event>
<event>
 4    1  0.5410820E-008  0.1410571E+04  0.7818608E-02  0.8946202E-01
         -2   -1    0    0    0  501 -0.00000000000E+00  0.00000000000E+00  0.68129484619E+03  0.68129484620E+03  0.25500000000E-02 0.  1.
          2   -1    0    0  501    0  0.00000000000E+00 -0.00000000000E+00 -0.35138451028E+04  0.35138451028E+04  0.25500000000E-02 0. -1.
    8880022    1    1    2    0    0 -0.93441963771E+03 -0.10455523216E+04 -0.22782295996E+04  0.26795599411E+04  0.15294330000E+03 0.  0.
    8880022    1    1    2    0    0  0.93441963771E+03  0.10455523216E+04 -0.55432065701E+03  0.15155800079E+04  0.15294330000E+03 0.  0.
<mgrwt>
<rscale>  0 0.14105713E+04</rscale>
<asrwt>0</asrwt>
<pdfrwt beam="1">  1        2 0.54059154E+00 0.14105713E+04</pdfrwt>
<pdfrwt beam="2">  1       -2 0.10481459E+00 0.14105713E+04</pdfrwt>
<totfact> 0.57029595E-01</totfact>
</mgrwt>
</event>
<event>
 4    1  0.5410820E-008  0.2116544E+03  0.7818608E-02  0.1140263E+00
          2   -1    0    0  501    0  0.00000000000E+00  0.00000000000E+00  0.41047846922E+03  0.41047846922E+03  0.25500000000E-02 0. -1.
         -2   -1    0    0    0  501 -0.00000000000E+00 -0.00000000000E+00 -0.36833681264E+03  0.36833681265E+03  0.25500000000E-02 0.  1.
    8880022    1    1    2    0    0  0.69513802136E+02  0.12873908754E+03 -0.30559289647E+03  0.37173188286E+03  0.15294330000E+03 0.  0.
    8880022    1    1    2    0    0 -0.69513802136E+02 -0.12873908754E+03  0.34773455305E+03  0.40708339901E+03  0.15294330000E+03 0. -1.
<mgrwt>
<rscale>  0 0.21165437E+03</rscale>
<asrwt>0</asrwt>
<pdfrwt beam="1">  1        2 0.63150533E-01 0.21165437E+03</pdfrwt>
<pdfrwt beam="2">  1       -2 0.56667202E-01 0.21165437E+03</pdfrwt>
<totfact> 0.23387768E+02</totfact>
</mgrwt>
</event>
<event>
 4    1  0.5410820E-008  0.5680529E+03  0.7818608E-02  0.9973997E-01
         -2   -1    0    0    0  501 -0.00000000000E+00  0.00000000000E+00  0.59715967031E+03  0.59715967031E+03  0.25500000000E-02 0.  1.
          2   -1    0    0  501    0  0.00000000000E+00 -0.00000000000E+00 -0.93688899792E+03  0.93688899792E+03  0.25500000000E-02 0. -1.
    8880022    1    1    2    0    0 -0.33160689837E+03  0.43511983516E+03 -0.66886395270E+03  0.87753236193E+03  0.15294330000E+03 0.  0.
    8880022    1    1    2    0    0  0.33160689837E+03 -0.43511983516E+03  0.32913462509E+03  0.65651630631E+03  0.15294330000E+03 0.  0.
<mgrwt>
<rscale>  0 0.56805287E+03</rscale>
<asrwt>0</asrwt>
<pdfrwt beam="1">  1        2 0.14413677E+00 0.56805287E+03</pdfrwt>
<pdfrwt beam="2">  1       -2 0.91870718E-01 0.56805287E+03</pdfrwt>
<totfact> 0.28912287E+01</totfact>
</mgrwt>
</event>
<event>
 4    1  0.5410820E-008  0.4257064E+03  0.7818608E-02  0.1035225E+00
          2   -1    0    0  501    0  0.00000000000E+00  0.00000000000E+00  0.25484387208E+04  0.25484387208E+04  0.25500000000E-02 0. -1.
         -2   -1    0    0    0  501 -0.00000000000E+00 -0.00000000000E+00 -0.10761852383E+03  0.10761852386E+03  0.25500000000E-02 0.  1.
    8880022    1    1    2    0    0 -0.37582288773E+03  0.12880791260E+03  0.19938844070E+04  0.20388234359E+04  0.15294330000E+03 0.  0.
    8880022    1    1    2    0    0  0.37582288773E+03 -0.12880791260E+03  0.44693578990E+03  0.61723380869E+03  0.15294330000E+03 0.  0.
<mgrwt>
<rscale>  0 0.42570644E+03</rscale>
<asrwt>0</asrwt>
<pdfrwt beam="1">  1        2 0.39206748E+00 0.42570644E+03</pdfrwt>
<pdfrwt beam="2">  1       -2 0.16556697E-01 0.42570644E+03</pdfrwt>
<totfact> 0.10565278E+02</totfact>
</mgrwt>
</event>
<event>
 4    1  0.5410820E-008  0.4127965E+03  0.7818608E-02  0.1039437E+00
          2   -1    0    0  501    0  0.00000000000E+00  0.00000000000E+00  0.59093229537E+03  0.59093229538E+03  0.25500000000E-02 0. -1.
         -2   -1    0    0    0  501 -0.00000000000E+00 -0.00000000000E+00 -0.49154362241E+03  0.49154362242E+03  0.25500000000E-02 0.  1.
    8880022    1    1    2    0    0 -0.14584162494E+03  0.35459773390E+03 -0.29828384845E+03  0.50928797327E+03  0.15294330000E+03 0.  1.
    8880022    1    1    2    0    0  0.14584162494E+03 -0.35459773390E+03  0.39767252141E+03  0.57318794453E+03  0.15294330000E+03 0.  0.
<mgrwt>
<rscale>  0 0.41279654E+03</rscale>
<asrwt>0</asrwt>
<pdfrwt beam="1">  1        2 0.90912661E-01 0.41279654E+03</pdfrwt>
<pdfrwt beam="2">  1       -2 0.75622096E-01 0.41279654E+03</pdfrwt>
<totfact> 0.82329744E+01</totfact>
</mgrwt>
</event>
<event>
 4    1  0.5410820E-008  0.4439450E+03  0.7818608E-02  0.1029543E+00
          2   -1    0    0  501    0  0.00000000000E+00  0.00000000000E+00  0.14459980454E+04  0.14459980454E+04  0.25500000000E-02 0. -1.
         -2   -1    0    0    0  501 -0.00000000000E+00 -0.00000000000E+00 -0.36672320948E+03  0.36672320948E+03  0.25500000000E-02 0.  1.
    8880022    1    1    2    0    0  0.35646378111E+03  0.21593772680E+03 -0.17881246143E+03  0.47860325790E+03  0.15294330000E+03 0.  0.
    8880022    1    1    2    0    0 -0.35646378111E+03 -0.21593772680E+03  0.12580872974E+04  0.13341179970E+04  0.15294330000E+03 0.  0.
<mgrwt>
<rscale>  0 0.44394502E+03</rscale>
<asrwt>0</asrwt>
<pdfrwt beam="1">  1        2 0.22246124E+00 0.44394502E+03</pdfrwt>
<pdfrwt beam="2">  1       -2 0.56418956E-01 0.44394502E+03</pdfrwt>
<totfact> 0.42789109E+01</totfact>
</mgrwt>
</event>
<event>
 4    1  0.5410820E-008  0.5800207E+03  0.7818608E-02  0.9947746E-01
         -2   -1    0    0    0  501 -0.00000000000E+00  0.00000000000E+00  0.34509374382E+03  0.34509374383E+03  0.25500000000E-02 0.  1.
          2   -1    0    0  501    0  0.00000000000E+00 -0.00000000000E+00 -0.25079353274E+04  0.25079353274E+04  0.25500000000E-02 0. -1.
    8880022    1    1    2    0    0 -0.54969325765E+03  0.10425772948E+03  0.33893720235E+02  0.58101014531E+03  0.15294330000E+03 0.  0.
    8880022    1    1    2    0    0  0.54969325765E+03 -0.10425772948E+03 -0.21967353038E+04  0.22720189259E+04  0.15294330000E+03 0. -1.
<mgrwt>
<rscale>  0 0.58002069E+03</rscale>
<asrwt>0</asrwt>
<pdfrwt beam="1">  1        2 0.38583619E+00 0.58002069E+03</pdfrwt>
<pdfrwt beam="2">  1       -2 0.53091347E-01 0.58002069E+03</pdfrwt>
<totfact> 0.12465351E+01</totfact>
</mgrwt>
</event>
<event>
 4    1  0.5410820E-008  0.4660982E+03  0.7818608E-02  0.1023027E+00
         -2   -1    0    0    0  501 -0.00000000000E+00  0.00000000000E+00  0.41063677952E+03  0.41063677953E+03  0.25500000000E-02 0.  1.
          2   -1    0    0  501    0  0.00000000000E+00 -0.00000000000E+00 -0.60854460198E+03  0.60854460198E+03  0.25500000000E-02 0. -1.
    8880022    1    1    2    0    0 -0.14176165427E+03  0.41684473316E+03  0.85226319991E+02  0.47382599847E+03  0.15294330000E+03 0.  0.
    8880022    1    1    2    0    0  0.14176165427E+03 -0.41684473316E+03 -0.28313414245E+03  0.54535538305E+03  0.15294330000E+03 0.  0.
<mgrwt>
<rscale>  0 0.46609822E+03</rscale>
<asrwt>0</asrwt>
<pdfrwt beam="1">  1        2 0.93622247E-01 0.46609822E+03</pdfrwt>
<pdfrwt beam="2">  1       -2 0.63174889E-01 0.46609822E+03</pdfrwt>
<totfact> 0.11665074E+02</totfact>
</mgrwt>
</event>
<event>
 4    1  0.5410820E-008  0.1869515E+04  0.7818608E-02  0.8670182E-01
         -2   -1    0    0    0  501 -0.00000000000E+00  0.00000000000E+00  0.10455749805E+04  0.10455749805E+04  0.25500000000E-02 0.  1.
          2   -1    0    0  501    0  0.00000000000E+00 -0.00000000000E+00 -0.44503626603E+04  0.44503626603E+04  0.25500000000E-02 0. -1.
    8880022    1    1    2    0    0  0.57974534886E+03  0.17707592095E+04 -0.30733076997E+04  0.35972635041E+04  0.15294330000E+03 0.  0.
    8880022    1    1    2    0    0 -0.57974534886E+03 -0.17707592095E+04 -0.33147998005E+03  0.18986741368E+04  0.15294330000E+03 0.  0.
<mgrwt>
<rscale>  0 0.18695145E+04</rscale>
<asrwt>0</asrwt>
<pdfrwt beam="1">  1        2 0.68467117E+00 0.18695145E+04</pdfrwt>
<pdfrwt beam="2">  1       -2 0.16085769E+00 0.18695145E+04</pdfrwt>
<totfact> 0.31412174E-02</totfact>
</mgrwt>
</event>
<event>
 4    1  0.5410820E-008  0.3503444E+03  0.7818608E-02  0.1062474E+00
         -2   -1    0    0    0  501 -0.00000000000E+00  0.00000000000E+00  0.29457509303E+03  0.29457509304E+03  0.25500000000E-02 0.  1.
          2   -1    0    0  501    0  0.00000000000E+00 -0.00000000000E+00 -0.67484344208E+03  0.67484344209E+03  0.25500000000E-02 0. -1.
    8880022    1    1    2    0    0 -0.15076498283E+03  0.27680220580E+03  0.10966739688E+03  0.36710779362E+03  0.15294330000E+03 0.  0.
    8880022    1    1    2    0    0  0.15076498283E+03 -0.27680220580E+03 -0.48993574593E+03  0.60231074151E+03  0.15294330000E+03 0.  0.
<mgrwt>
<rscale>  0 0.35034439E+03</rscale>
<asrwt>0</asrwt>
<pdfrwt beam="1">  1        2 0.10382207E+00 0.35034439E+03</pdfrwt>
<pdfrwt beam="2">  1       -2 0.45319245E-01 0.35034439E+03</pdfrwt>
<totfact> 0.20520712E+02</totfact>
</mgrwt>
</event>
<event>
 4    1  0.5410820E-008  0.4975456E+03  0.7818608E-02  0.1014422E+00
         -2   -1    0    0    0  501 -0.00000000000E+00  0.00000000000E+00  0.90775252157E+03  0.90775252157E+03  0.25500000000E-02 0.  1.
          2   -1    0    0  501    0  0.00000000000E+00 -0.00000000000E+00 -0.11627432312E+04  0.11627432312E+04  0.25500000000E-02 0. -1.
    8880022    1    1    2    0    0  0.43628258502E+03  0.18389538266E+03  0.77824967801E+03  0.92370136954E+03  0.15294330000E+03 0.  0.
    8880022    1    1    2    0    0 -0.43628258502E+03 -0.18389538266E+03 -0.10332403877E+04  0.11467943833E+04  0.15294330000E+03 0.  0.
<mgrwt>
<rscale>  0 0.49754563E+03</rscale>
<asrwt>0</asrwt>
<pdfrwt beam="1">  1        2 0.17888357E+00 0.49754563E+03</pdfrwt>
<pdfrwt beam="2">  1       -2 0.13965423E+00 0.49754563E+03</pdfrwt>
<totfact> 0.76603125E+00</totfact>
</mgrwt>
</event>
<event>
 4    1  0.5410820E-008  0.6990158E+03  0.7818608E-02  0.9718917E-01
         -2   -1    0    0    0  501 -0.00000000000E+00  0.00000000000E+00  0.16260734310E+04  0.16260734310E+04  0.25500000000E-02 0.  1.
          2   -1    0    0  501    0  0.00000000000E+00 -0.00000000000E+00 -0.38764421360E+03  0.38764421360E+03  0.25500000000E-02 0. -1.
    8880022    1    1    2    0    0 -0.75537027058E+01  0.68203690360E+03  0.10966225274E+04  0.13004630009E+04  0.15294330000E+03 0.  1.
    8880022    1    1    2    0    0  0.75537027058E+01 -0.68203690360E+03  0.14180669001E+03  0.71325464362E+03  0.15294330000E+03 0.  0.
<mgrwt>
<rscale>  0 0.69901577E+03</rscale>
<asrwt>0</asrwt>
<pdfrwt beam="1">  1        2 0.59637572E-01 0.69901577E+03</pdfrwt>
<pdfrwt beam="2">  1       -2 0.25016514E+00 0.69901577E+03</pdfrwt>
<totfact> 0.54666962E+00</totfact>
</mgrwt>
</event>
<event>
 4    1  0.5410820E-008  0.1595599E+03  0.7818608E-02  0.1189195E+00
         -2   -1    0    0    0  501 -0.00000000000E+00  0.00000000000E+00  0.10246625864E+02  0.10246626181E+02  0.25500000000E-02 0.  1.
          2   -1    0    0  501    0  0.00000000000E+00 -0.00000000000E+00 -0.34717551962E+04  0.34717551962E+04  0.25500000000E-02 0. -1.
    8880022    1    1    2    0    0  0.32536748670E+02  0.31765701675E+02 -0.80241956675E+03  0.81812988818E+03  0.15294330000E+03 0.  1.
    8880022    1    1    2    0    0 -0.32536748670E+02 -0.31765701675E+02 -0.26590890036E+04  0.26638719342E+04  0.15294330000E+03 0.  0.
<mgrwt>
<rscale>  0 0.15955987E+03</rscale>
<asrwt>0</asrwt>
<pdfrwt beam="1">  1        2 0.53411525E+00 0.15955987E+03</pdfrwt>
<pdfrwt beam="2">  1       -2 0.15764068E-02 0.15955987E+03</pdfrwt>
<totfact> 0.11939188E+03</totfact>
</mgrwt>
</event>
<event>
 4    1  0.5410820E-008  0.4201302E+03  0.7818608E-02  0.1037024E+00
         -2   -1    0    0    0  501 -0.00000000000E+00  0.00000000000E+00  0.11169460302E+04  0.11169460302E+04  0.25500000000E-02 0.  1.
          2   -1    0    0  501    0  0.00000000000E+00 -0.00000000000E+00 -0.20929680715E+03  0.20929680716E+03  0.25500000000E-02 0. -1.
    8880022    1    1    2    0    0 -0.33314293421E+03  0.20526459964E+03  0.78202251043E+03  0.88773229654E+03  0.15294330000E+03 0.  0.
    8880022    1    1    2    0    0  0.33314293421E+03 -0.20526459964E+03  0.12562671263E+03  0.43851054083E+03  0.15294330000E+03 0.  0.
<mgrwt>
<rscale>  0 0.42013025E+03</rscale>
<asrwt>0</asrwt>
<pdfrwt beam="1">  1        2 0.32199509E-01 0.42013025E+03</pdfrwt>
<pdfrwt beam="2">  1       -2 0.17183785E+00 0.42013025E+03</pdfrwt>
<totfact> 0.35383507E+01</totfact>
</mgrwt>
</event>
<event>
 4    1  0.5410820E-008  0.2031016E+03  0.7818608E-02  0.1147148E+00
         -2   -1    0    0    0  501 -0.00000000000E+00  0.00000000000E+00  0.52672328798E+02  0.52672328860E+02  0.25500000000E-02 0.  1.
          2   -1    0    0  501    0  0.00000000000E+00 -0.00000000000E+00 -0.10099904855E+04  0.10099904855E+04  0.25500000000E-02 0. -1.
    8880022    1    1    2    0    0 -0.51637462261E+02  0.12325648338E+03 -0.73046667205E+03  0.75817662862E+03  0.15294330000E+03 0.  0.
    8880022    1    1    2    0    0  0.51637462261E+02 -0.12325648338E+03 -0.22685148467E+03  0.30448618575E+03  0.15294330000E+03 0.  1.
<mgrwt>
<rscale>  0 0.20310155E+03</rscale>
<asrwt>0</asrwt>
<pdfrwt beam="1">  1        2 0.15538314E+00 0.20310155E+03</pdfrwt>
<pdfrwt beam="2">  1       -2 0.81034359E-02 0.20310155E+03</pdfrwt>
<totfact> 0.23884313E+03</totfact>
</mgrwt>
</event>
<event>
 4    1  0.5410820E-008  0.9668190E+03  0.7818608E-02  0.9345705E-01
         -2   -1    0    0    0  501 -0.00000000000E+00  0.00000000000E+00  0.15979389479E+04  0.15979389479E+04  0.25500000000E-02 0.  1.
          2   -1    0    0  501    0  0.00000000000E+00 -0.00000000000E+00 -0.76773907234E+03  0.76773907235E+03  0.25500000000E-02 0. -1.
    8880022    1    1    2    0    0  0.35721134785E+03  0.88529506776E+03  0.99223261554E+03  0.13853752273E+04  0.15294330000E+03 0.  0.
    8880022    1    1    2    0    0 -0.35721134785E+03 -0.88529506776E+03 -0.16203273999E+03  0.98030279295E+03  0.15294330000E+03 0.  0.
<mgrwt>
<rscale>  0 0.96681899E+03</rscale>
<asrwt>0</asrwt>
<pdfrwt beam="1">  1        2 0.11811370E+00 0.96681899E+03</pdfrwt>
<pdfrwt beam="2">  1       -2 0.24583676E+00 0.96681899E+03</pdfrwt>
<totfact> 0.24821703E+00</totfact>
</mgrwt>
</event>
<event>
 4    1  0.5410820E-008  0.6678095E+03  0.7818608E-02  0.9773923E-01
          2   -1    0    0  501    0  0.00000000000E+00  0.00000000000E+00  0.16800147454E+04  0.16800147454E+04  0.25500000000E-02 0. -1.
         -2   -1    0    0    0  501 -0.00000000000E+00 -0.00000000000E+00 -0.41113990634E+03  0.41113990635E+03  0.25500000000E-02 0.  1.
    8880022    1    1    2    0    0 -0.48251094671E+03 -0.43561574667E+03  0.12568344724E+04  0.14232366060E+04  0.15294330000E+03 0.  0.
    8880022    1    1    2    0    0  0.48251094671E+03  0.43561574667E+03  0.12040366631E+02  0.66791804579E+03  0.15294330000E+03 0.  0.
<mgrwt>
<rscale>  0 0.66780951E+03</rscale>
<asrwt>0</asrwt>
<pdfrwt beam="1">  1        2 0.25846381E+00 0.66780951E+03</pdfrwt>
<pdfrwt beam="2">  1       -2 0.63252293E-01 0.66780951E+03</pdfrwt>
<totfact> 0.24179906E+01</totfact>
</mgrwt>
</event>
<event>
 4    1  0.5410820E-008  0.3149119E+03  0.7818608E-02  0.1078015E+00
          2   -1    0    0  501    0  0.00000000000E+00  0.00000000000E+00  0.14460637612E+04  0.14460637612E+04  0.25500000000E-02 0. -1.
         -2   -1    0    0    0  501 -0.00000000000E+00 -0.00000000000E+00 -0.19946365209E+03  0.19946365211E+03  0.25500000000E-02 0.  1.
    8880022    1    1    2    0    0  0.17550913055E+03 -0.21207163728E+03  0.12897810058E+04  0.13276688330E+04  0.15294330000E+03 0.  0.
    8880022    1    1    2    0    0 -0.17550913055E+03  0.21207163728E+03 -0.43180896635E+02  0.31785858034E+03  0.15294330000E+03 0.  0.
<mgrwt>
<rscale>  0 0.31491187E+03</rscale>
<asrwt>0</asrwt>
<pdfrwt beam="1">  1        2 0.22247135E+00 0.31491187E+03</pdfrwt>
<pdfrwt beam="2">  1       -2 0.30686715E-01 0.31491187E+03</pdfrwt>
<totfact> 0.14337609E+02</totfact>
</mgrwt>
</event>
<event>
 4    1  0.8016061E-008  0.8579281E+03  0.7818608E-02  0.9479758E-01
         -2   -1    0    0    0  501 -0.00000000000E+00  0.00000000000E+00  0.67971964311E+03  0.67971964312E+03  0.25500000000E-02 0.  1.
          2   -1    0    0  501    0  0.00000000000E+00 -0.00000000000E+00 -0.23913845649E+04  0.23913845649E+04  0.25500000000E-02 0. -1.
    8880022    1    1    2    0    0 -0.72472057799E+03  0.43293074360E+03 -0.19917084955E+04  0.21686270609E+04  0.15294330000E+03 0.  0.
    8880022    1    1    2    0    0  0.72472057799E+03 -0.43293074360E+03  0.28004357375E+03  0.90247714715E+03  0.15294330000E+03 0.  0.
<mgrwt>
<rscale>  0 0.85792808E+03</rscale>
<asrwt>0</asrwt>
<pdfrwt beam="1">  1        2 0.36790531E+00 0.85792808E+03</pdfrwt>
<pdfrwt beam="2">  1       -2 0.10457225E+00 0.85792808E+03</pdfrwt>
<totfact> 0.30674443E+00</totfact>
</mgrwt>
</event>
<event>
 4    1  0.5410820E-008  0.6264952E+03  0.7818608E-02  0.9851912E-01
          2   -1    0    0  501    0  0.00000000000E+00  0.00000000000E+00  0.23394731931E+04  0.23394731931E+04  0.25500000000E-02 0. -1.
         -2   -1    0    0    0  501 -0.00000000000E+00 -0.00000000000E+00 -0.27804384503E+03  0.27804384504E+03  0.25500000000E-02 0.  1.
    8880022    1    1    2    0    0 -0.37275084632E+03  0.47975140597E+03  0.20650682333E+03  0.65965242822E+03  0.15294330000E+03 0.  0.
    8880022    1    1    2    0    0  0.37275084632E+03 -0.47975140597E+03  0.18549225248E+04  0.19578646099E+04  0.15294330000E+03 0.  0.
<mgrwt>
<rscale>  0 0.62649522E+03</rscale>
<asrwt>0</asrwt>
<pdfrwt beam="1">  1        2 0.35991894E+00 0.62649522E+03</pdfrwt>
<pdfrwt beam="2">  1       -2 0.42775977E-01 0.62649522E+03</pdfrwt>
<totfact> 0.23684302E+01</totfact>
</mgrwt>
</event>
<event>
 4    1  0.5410820E-008  0.3840102E+03  0.7818608E-02  0.1049461E+00
          2   -1    0    0  501    0  0.00000000000E+00  0.00000000000E+00  0.78082646590E+03  0.78082646590E+03  0.25500000000E-02 0. -1.
         -2   -1    0    0    0  501 -0.00000000000E+00 -0.00000000000E+00 -0.87281853708E+03  0.87281853708E+03  0.25500000000E-02 0.  1.
    8880022    1    1    2    0    0 -0.12505177887E+03 -0.32929353007E+03 -0.77792079203E+03  0.86753938702E+03  0.15294330000E+03 0.  0.
    8880022    1    1    2    0    0  0.12505177887E+03  0.32929353007E+03  0.68592872085E+03  0.78610561596E+03  0.15294330000E+03 0.  0.
<mgrwt>
<rscale>  0 0.38401019E+03</rscale>
<asrwt>0</asrwt>
<pdfrwt beam="1">  1        2 0.12012715E+00 0.38401019E+03</pdfrwt>
<pdfrwt beam="2">  1       -2 0.13427978E+00 0.38401019E+03</pdfrwt>
<totfact> 0.15216501E+01</totfact>
</mgrwt>
</event>
<event>
 4    1  0.5410820E-008  0.6745438E+03  0.7818608E-02  0.9761784E-01
         -2   -1    0    0    0  501 -0.00000000000E+00  0.00000000000E+00  0.83225827419E+03  0.83225827419E+03  0.25500000000E-02 0.  1.
          2   -1    0    0  501    0  0.00000000000E+00 -0.00000000000E+00 -0.11220600154E+04  0.11220600154E+04  0.25500000000E-02 0. -1.
    8880022    1    1    2    0    0 -0.21230724201E+03 -0.62172609099E+03  0.55481360708E+03  0.87339995927E+03  0.15294330000E+03 0.  0.
    8880022    1    1    2    0    0  0.21230724201E+03  0.62172609099E+03 -0.84461534828E+03  0.10809183303E+04  0.15294330000E+03 0.  0.
<mgrwt>
<rscale>  0 0.67454381E+03</rscale>
<asrwt>0</asrwt>
<pdfrwt beam="1">  1        2 0.17262462E+00 0.67454381E+03</pdfrwt>
<pdfrwt beam="2">  1       -2 0.12803973E+00 0.67454381E+03</pdfrwt>
<totfact> 0.98066778E+00</totfact>
</mgrwt>
</event>
<event>
 4    1  0.5410820E-008  0.8417118E+03  0.7818608E-02  0.9501529E-01
         -2   -1    0    0    0  501 -0.00000000000E+00  0.00000000000E+00  0.98757100847E+03  0.98757100847E+03  0.25500000000E-02 0.  1.
          2   -1    0    0  501    0  0.00000000000E+00 -0.00000000000E+00 -0.11635061972E+04  0.11635061972E+04  0.25500000000E-02 0. -1.
    8880022    1    1    2    0    0 -0.29174299489E+03 -0.77457931989E+03 -0.75395051586E+03  0.11300089076E+04  0.15294330000E+03 0.  0.
    8880022    1    1    2    0    0  0.29174299489E+03  0.77457931989E+03  0.57801532715E+03  0.10210682981E+04  0.15294330000E+03 0.  0.
<mgrwt>
<rscale>  0 0.84171180E+03</rscale>
<asrwt>0</asrwt>
<pdfrwt beam="1">  1        2 0.17900095E+00 0.84171180E+03</pdfrwt>
<pdfrwt beam="2">  1       -2 0.15193400E+00 0.84171180E+03</pdfrwt>
<totfact> 0.58205503E+00</totfact>
</mgrwt>
</event>
<event>
 4    1  0.5410820E-008  0.1665891E+03  0.7818608E-02  0.1181452E+00
         -2   -1    0    0    0  501 -0.00000000000E+00  0.00000000000E+00  0.65762364155E+02  0.65762364204E+02  0.25500000000E-02 0.  1.
          2   -1    0    0  501    0  0.00000000000E+00 -0.00000000000E+00 -0.93306911149E+03  0.93306911150E+03  0.25500000000E-02 0. -1.
    8880022    1    1    2    0    0 -0.27301264327E+02  0.60124068924E+02 -0.80326349459E+03  0.82035611624E+03  0.15294330000E+03 0.  0.
    8880022    1    1    2    0    0  0.27301264327E+02 -0.60124068924E+02 -0.64043252752E+02  0.17847535946E+03  0.15294330000E+03 0.  1.
<mgrwt>
<rscale>  0 0.16658906E+03</rscale>
<asrwt>0</asrwt>
<pdfrwt beam="1">  1        2 0.14354908E+00 0.16658906E+03</pdfrwt>
<pdfrwt beam="2">  1       -2 0.10117287E-01 0.16658906E+03</pdfrwt>
<totfact> 0.18747026E+03</totfact>
</mgrwt>
</event>
<event>
 4    1  0.5410820E-008  0.6688647E+03  0.7818608E-02  0.9772011E-01
         -2   -1    0    0    0  501 -0.00000000000E+00  0.00000000000E+00  0.30264708523E+04  0.30264708523E+04  0.25500000000E-02 0.  1.
          2   -1    0    0  501    0  0.00000000000E+00 -0.00000000000E+00 -0.45110417573E+03  0.45110417573E+03  0.25500000000E-02 0. -1.
    8880022    1    1    2    0    0  0.56089277694E+03 -0.33073806688E+03 -0.13802694897E+03  0.68295788140E+03  0.15294330000E+03 0.  0.
    8880022    1    1    2    0    0 -0.56089277694E+03  0.33073806688E+03  0.27133936255E+04  0.27946171466E+04  0.15294330000E+03 0.  0.
<mgrwt>
<rscale>  0 0.66886473E+03</rscale>
<asrwt>0</asrwt>
<pdfrwt beam="1">  1        2 0.69400641E-01 0.66886473E+03</pdfrwt>
<pdfrwt beam="2">  1       -2 0.46561091E+00 0.66886473E+03</pdfrwt>
<totfact> 0.20591930E-01</totfact>
</mgrwt>
</event>
<event>
 4    1  0.5410820E-008  0.6006173E+03  0.7818608E-02  0.9904126E-01
         -2   -1    0    0    0  501 -0.00000000000E+00  0.00000000000E+00  0.87687355210E+03  0.87687355210E+03  0.25500000000E-02 0.  1.
          2   -1    0    0  501    0  0.00000000000E+00 -0.00000000000E+00 -0.12547106135E+04  0.12547106135E+04  0.25500000000E-02 0. -1.
    8880022    1    1    2    0    0 -0.38039649198E+02 -0.57957097443E+03  0.68484886861E+03  0.91091116755E+03  0.15294330000E+03 0.  1.
    8880022    1    1    2    0    0  0.38039649198E+02  0.57957097443E+03 -0.10626859301E+04  0.12206729981E+04  0.15294330000E+03 0.  0.
<mgrwt>
<rscale>  0 0.60061733E+03</rscale>
<asrwt>0</asrwt>
<pdfrwt beam="1">  1        2 0.19303240E+00 0.60061733E+03</pdfrwt>
<pdfrwt beam="2">  1       -2 0.13490362E+00 0.60061733E+03</pdfrwt>
<totfact> 0.72561481E+00</totfact>
</mgrwt>
</event>
<event>
 4    1  0.5410820E-008  0.4065534E+03  0.7818608E-02  0.1041534E+00
          2   -1    0    0  501    0  0.00000000000E+00  0.00000000000E+00  0.56065290936E+03  0.56065290936E+03  0.25500000000E-02 0. -1.
         -2   -1    0    0    0  501 -0.00000000000E+00 -0.00000000000E+00 -0.92920516758E+03  0.92920516758E+03  0.25500000000E-02 0.  1.
    8880022    1    1    2    0    0  0.26975123194E+03 -0.26292262799E+03 -0.79979202127E+03  0.89719171069E+03  0.15294330000E+03 0.  0.
    8880022    1    1    2    0    0 -0.26975123194E+03  0.26292262799E+03  0.43123976305E+03  0.59266636625E+03  0.15294330000E+03 0.  0.
<mgrwt>
<rscale>  0 0.40655343E+03</rscale>
<asrwt>0</asrwt>
<pdfrwt beam="1">  1        2 0.86254294E-01 0.40655343E+03</pdfrwt>
<pdfrwt beam="2">  1       -2 0.14295464E+00 0.40655343E+03</pdfrwt>
<totfact> 0.19337403E+01</totfact>
</mgrwt>
</event>
<event>
 4    1  0.5410820E-008  0.5164587E+03  0.7818608E-02  0.1009570E+00
          2   -1    0    0  501    0  0.00000000000E+00  0.00000000000E+00  0.25216740815E+04  0.25216740815E+04  0.25500000000E-02 0. -1.
         -2   -1    0    0    0  501 -0.00000000000E+00 -0.00000000000E+00 -0.40648137717E+03  0.40648137718E+03  0.25500000000E-02 0.  1.
    8880022    1    1    2    0    0  0.43668942978E+02  0.49135626481E+03 -0.20166322019E+03  0.55443454342E+03  0.15294330000E+03 0.  0.
    8880022    1    1    2    0    0 -0.43668942978E+02 -0.49135626481E+03  0.23168559245E+04  0.23737209153E+04  0.15294330000E+03 0. -1.
<mgrwt>
<rscale>  0 0.51645872E+03</rscale>
<asrwt>0</asrwt>
<pdfrwt beam="1">  1        2 0.38794985E+00 0.51645872E+03</pdfrwt>
<pdfrwt beam="2">  1       -2 0.62535597E-01 0.51645872E+03</pdfrwt>
<totfact> 0.88336696E+00</totfact>
</mgrwt>
</event>
<event>
 4    1  0.5410820E-008  0.4274373E+03  0.7818608E-02  0.1034673E+00
         -2   -1    0    0    0  501 -0.00000000000E+00  0.00000000000E+00  0.27779224740E+03  0.27779224741E+03  0.25500000000E-02 0.  1.
          2   -1    0    0  501    0  0.00000000000E+00 -0.00000000000E+00 -0.12126441983E+04  0.12126441983E+04  0.25500000000E-02 0. -1.
    8880022    1    1    2    0    0 -0.16171355196E+03 -0.36491059395E+03  0.36704845266E+02  0.42901038816E+03  0.15294330000E+03 0.  0.
    8880022    1    1    2    0    0  0.16171355196E+03  0.36491059395E+03 -0.97155679615E+03  0.10614260575E+04  0.15294330000E+03 0.  0.
<mgrwt>
<rscale>  0 0.42743733E+03</rscale>
<asrwt>0</asrwt>
<pdfrwt beam="1">  1        2 0.18656064E+00 0.42743733E+03</pdfrwt>
<pdfrwt beam="2">  1       -2 0.42737270E-01 0.42743733E+03</pdfrwt>
<totfact> 0.10150508E+02</totfact>
</mgrwt>
</event>
<event>
 4    1  0.5410820E-008  0.7629007E+03  0.7818608E-02  0.9615326E-01
         -2   -1    0    0    0  501 -0.00000000000E+00  0.00000000000E+00  0.38893889465E+03  0.38893889465E+03  0.25500000000E-02 0.  1.
          2   -1    0    0  501    0  0.00000000000E+00 -0.00000000000E+00 -0.18816533712E+04  0.18816533712E+04  0.25500000000E-02 0. -1.
    8880022    1    1    2    0    0 -0.66545309652E+03 -0.34029103499E+03 -0.23266963114E+03  0.79759176427E+03  0.15294330000E+03 0.  0.
    8880022    1    1    2    0    0  0.66545309652E+03  0.34029103499E+03 -0.12600448454E+04  0.14730005015E+04  0.15294330000E+03 0.  0.
<mgrwt>
<rscale>  0 0.76290069E+03</rscale>
<asrwt>0</asrwt>
<pdfrwt beam="1">  1        2 0.28948513E+00 0.76290069E+03</pdfrwt>
<pdfrwt beam="2">  1       -2 0.59836754E-01 0.76290069E+03</pdfrwt>
<totfact> 0.20849176E+01</totfact>
</mgrwt>
</event>
<event>
 4    1  0.5410820E-008  0.4624833E+03  0.7818608E-02  0.1024063E+00
         -2   -1    0    0    0  501 -0.00000000000E+00  0.00000000000E+00  0.87478684014E+03  0.87478684015E+03  0.25500000000E-02 0.  1.
          2   -1    0    0  501    0  0.00000000000E+00 -0.00000000000E+00 -0.21992271481E+04  0.21992271481E+04  0.25500000000E-02 0. -1.
    8880022    1    1    2    0    0  0.43003446342E+03 -0.74629050969E+02  0.78682922689E+03  0.91268341734E+03  0.15294330000E+03 0.  0.
    8880022    1    1    2    0    0 -0.43003446342E+03  0.74629050969E+02 -0.21112695349E+04  0.21613305709E+04  0.15294330000E+03 0.  0.
<mgrwt>
<rscale>  0 0.46248328E+03</rscale>
<asrwt>0</asrwt>
<pdfrwt beam="1">  1        2 0.33834264E+00 0.46248328E+03</pdfrwt>
<pdfrwt beam="2">  1       -2 0.13458259E+00 0.46248328E+03</pdfrwt>
<totfact> 0.22968062E+00</totfact>
</mgrwt>
</event>
<event>
 4    1  0.5410820E-008  0.3043605E+03  0.7818608E-02  0.1083081E+00
          2   -1    0    0  501    0  0.00000000000E+00  0.00000000000E+00  0.23074257454E+04  0.23074257454E+04  0.25500000000E-02 0. -1.
         -2   -1    0    0    0  501 -0.00000000000E+00 -0.00000000000E+00 -0.51846353376E+03  0.51846353377E+03  0.25500000000E-02 0.  1.
    8880022    1    1    2    0    0  0.20513045119E+03  0.16481859191E+03  0.22516187955E+04  0.22720965040E+04  0.15294330000E+03 0. -1.
    8880022    1    1    2    0    0 -0.20513045119E+03 -0.16481859191E+03 -0.46265658385E+03  0.55379277518E+03  0.15294330000E+03 0.  0.
<mgrwt>
<rscale>  0 0.30436052E+03</rscale>
<asrwt>0</asrwt>
<pdfrwt beam="1">  1        2 0.35498857E+00 0.30436052E+03</pdfrwt>
<pdfrwt beam="2">  1       -2 0.79763621E-01 0.30436052E+03</pdfrwt>
<totfact> 0.73332641E+00</totfact>
</mgrwt>
</event>
<event>
 4    1  0.5410820E-008  0.4473780E+03  0.7818608E-02  0.1028507E+00
          2   -1    0    0  501    0  0.00000000000E+00  0.00000000000E+00  0.25692353884E+04  0.25692353884E+04  0.25500000000E-02 0. -1.
         -2   -1    0    0    0  501 -0.00000000000E+00 -0.00000000000E+00 -0.11150763212E+03  0.11150763215E+03  0.25500000000E-02 0.  1.
    8880022    1    1    2    0    0 -0.26619141453E+03 -0.32541904410E+03  0.49302505884E+03  0.66574828959E+03  0.15294330000E+03 0.  0.
    8880022    1    1    2    0    0  0.26619141453E+03  0.32541904410E+03  0.19647026974E+04  0.20149947309E+04  0.15294330000E+03 0.  0.
<mgrwt>
<rscale>  0 0.44737800E+03</rscale>
<asrwt>0</asrwt>
<pdfrwt beam="1">  1        2 0.39526697E+00 0.44737800E+03</pdfrwt>
<pdfrwt beam="2">  1       -2 0.17155021E-01 0.44737800E+03</pdfrwt>
<totfact> 0.96405128E+01</totfact>
</mgrwt>
</event>
<event>
 4    1  0.5410820E-008  0.1082777E+04  0.7818608E-02  0.9222143E-01
         -2   -1    0    0    0  501 -0.00000000000E+00  0.00000000000E+00  0.10385770857E+04  0.10385770857E+04  0.25500000000E-02 0.  1.
          2   -1    0    0  501    0  0.00000000000E+00 -0.00000000000E+00 -0.20266848812E+04  0.20266848812E+04  0.25500000000E-02 0. -1.
    8880022    1    1    2    0    0 -0.91269660986E+03 -0.56213905871E+03  0.52604094207E+03  0.12037965562E+04  0.15294330000E+03 0.  0.
    8880022    1    1    2    0    0  0.91269660986E+03  0.56213905871E+03 -0.15141487375E+04  0.18614654107E+04  0.15294330000E+03 0.  0.
<mgrwt>
<rscale>  0 0.10827775E+04</rscale>
<asrwt>0</asrwt>
<pdfrwt beam="1">  1        2 0.31179767E+00 0.10827775E+04</pdfrwt>
<pdfrwt beam="2">  1       -2 0.15978109E+00 0.10827775E+04</pdfrwt>
<totfact> 0.16109561E+00</totfact>
</mgrwt>
</event>
<event>
 4    1  0.5410820E-008  0.4009532E+03  0.7818608E-02  0.1043450E+00
          2   -1    0    0  501    0  0.00000000000E+00  0.00000000000E+00  0.20784159195E+04  0.20784159195E+04  0.25500000000E-02 0. -1.
         -2   -1    0    0    0  501 -0.00000000000E+00 -0.00000000000E+00 -0.19435914712E+03  0.19435914714E+03  0.25500000000E-02 0.  1.
    8880022    1    1    2    0    0 -0.36876585039E+03 -0.37196379831E+02  0.18237584660E+04  0.18673131549E+04  0.15294330000E+03 0.  0.
    8880022    1    1    2    0    0  0.36876585039E+03  0.37196379831E+02  0.60298306343E+02  0.40546191172E+03  0.15294330000E+03 0. -1.
<mgrwt>
<rscale>  0 0.40095321E+03</rscale>
<asrwt>0</asrwt>
<pdfrwt beam="1">  1        2 0.31975630E+00 0.40095321E+03</pdfrwt>
<pdfrwt beam="2">  1       -2 0.29901407E-01 0.40095321E+03</pdfrwt>
<totfact> 0.67826830E+01</totfact>
</mgrwt>
</event>
<event>
 4    1  0.5410820E-008  0.5148230E+03  0.7818608E-02  0.1009981E+00
          2   -1    0    0  501    0  0.00000000000E+00  0.00000000000E+00  0.83672954138E+03  0.83672954139E+03  0.25500000000E-02 0. -1.
         -2   -1    0    0    0  501 -0.00000000000E+00 -0.00000000000E+00 -0.34847229905E+03  0.34847229906E+03  0.25500000000E-02 0.  1.
    8880022    1    1    2    0    0  0.41991933350E+03  0.25557542341E+03  0.65360517795E+02  0.51895538729E+03  0.15294330000E+03 0.  0.
    8880022    1    1    2    0    0 -0.41991933350E+03 -0.25557542341E+03  0.42289672454E+03  0.66624645315E+03  0.15294330000E+03 0.  0.
<mgrwt>
<rscale>  0 0.51482298E+03</rscale>
<asrwt>0</asrwt>
<pdfrwt beam="1">  1        2 0.12872762E+00 0.51482298E+03</pdfrwt>
<pdfrwt beam="2">  1       -2 0.53611123E-01 0.51482298E+03</pdfrwt>
<totfact> 0.10961990E+02</totfact>
</mgrwt>
</event>
<event>
 4    1  0.5410820E-008  0.3551294E+03  0.7818608E-02  0.1060529E+00
          2   -1    0    0  501    0  0.00000000000E+00  0.00000000000E+00  0.16308891726E+04  0.16308891726E+04  0.25500000000E-02 0. -1.
         -2   -1    0    0    0  501 -0.00000000000E+00 -0.00000000000E+00 -0.11476260458E+03  0.11476260461E+03  0.25500000000E-02 0.  1.
    8880022    1    1    2    0    0  0.23271534106E+02 -0.31966178968E+03  0.25957876962E+03  0.43988409239E+03  0.15294330000E+03 0.  0.
    8880022    1    1    2    0    0 -0.23271534106E+02  0.31966178968E+03  0.12565477983E+04  0.13057676848E+04  0.15294330000E+03 0.  0.
<mgrwt>
<rscale>  0 0.35512938E+03</rscale>
<asrwt>0</asrwt>
<pdfrwt beam="1">  1        2 0.25090604E+00 0.35512938E+03</pdfrwt>
<pdfrwt beam="2">  1       -2 0.17655784E-01 0.35512938E+03</pdfrwt>
<totfact> 0.30004540E+02</totfact>
</mgrwt>
</event>
<event>
 4    1  0.5410820E-008  0.1020098E+04  0.7818608E-02  0.9286772E-01
          2   -1    0    0  501    0  0.00000000000E+00  0.00000000000E+00  0.13194963098E+04  0.13194963098E+04  0.25500000000E-02 0. -1.
         -2   -1    0    0    0  501 -0.00000000000E+00 -0.00000000000E+00 -0.86921466144E+03  0.86921466145E+03  0.25500000000E-02 0.  1.
    8880022    1    1    2    0    0  0.73225641425E+03 -0.69354823217E+03 -0.10806230584E+03  0.10258058888E+04  0.15294330000E+03 0.  0.
    8880022    1    1    2    0    0 -0.73225641425E+03  0.69354823217E+03  0.55834395417E+03  0.11629050824E+04  0.15294330000E+03 0.  0.
<mgrwt>
<rscale>  0 0.10200982E+04</rscale>
<asrwt>0</asrwt>
<pdfrwt beam="1">  1        2 0.20299943E+00 0.10200982E+04</pdfrwt>
<pdfrwt beam="2">  1       -2 0.13372533E+00 0.10200982E+04</pdfrwt>
<totfact> 0.64459435E+00</totfact>
</mgrwt>
</event>
<event>
 4    1  0.5410820E-008  0.7761000E+03  0.7818608E-02  0.9595271E-01
         -2   -1    0    0    0  501 -0.00000000000E+00  0.00000000000E+00  0.36302392731E+03  0.36302392732E+03  0.25500000000E-02 0.  1.
          2   -1    0    0  501    0  0.00000000000E+00 -0.00000000000E+00 -0.24949111800E+04  0.24949111800E+04  0.25500000000E-02 0. -1.
    8880022    1    1    2    0    0 -0.55245727487E+03  0.52319257544E+03 -0.23891299562E+03  0.81204099899E+03  0.15294330000E+03 0.  0.
    8880022    1    1    2    0    0  0.55245727487E+03 -0.52319257544E+03 -0.18929742570E+04  0.20458941083E+04  0.15294330000E+03 0.  0.
<mgrwt>
<rscale>  0 0.77609997E+03</rscale>
<asrwt>0</asrwt>
<pdfrwt beam="1">  1        2 0.38383248E+00 0.77609997E+03</pdfrwt>
<pdfrwt beam="2">  1       -2 0.55849836E-01 0.77609997E+03</pdfrwt>
<totfact> 0.11015086E+01</totfact>
</mgrwt>
</event>
<event>
 4    1  0.5410820E-008  0.6786887E+03  0.7818608E-02  0.9754388E-01
         -2   -1    0    0    0  501 -0.00000000000E+00  0.00000000000E+00  0.67936698119E+03  0.67936698120E+03  0.25500000000E-02 0.  1.
          2   -1    0    0  501    0  0.00000000000E+00 -0.00000000000E+00 -0.10236531552E+04  0.10236531552E+04  0.25500000000E-02 0. -1.
    8880022    1    1    2    0    0  0.27507535407E+03  0.60129879237E+03  0.32265347596E+03  0.75148094233E+03  0.15294330000E+03 0.  0.
    8880022    1    1    2    0    0 -0.27507535407E+03 -0.60129879237E+03 -0.66693964995E+03  0.95153919405E+03  0.15294330000E+03 0.  0.
<mgrwt>
<rscale>  0 0.67868869E+03</rscale>
<asrwt>0</asrwt>
<pdfrwt beam="1">  1        2 0.15748510E+00 0.67868869E+03</pdfrwt>
<pdfrwt beam="2">  1       -2 0.10451800E+00 0.67868869E+03</pdfrwt>
<totfact> 0.18533611E+01</totfact>
</mgrwt>
</event>
<event>
 4    1  0.5410820E-008  0.5683293E+03  0.7818608E-02  0.9973382E-01
          2   -1    0    0  501    0  0.00000000000E+00  0.00000000000E+00  0.11016208214E+04  0.11016208214E+04  0.25500000000E-02 0. -1.
         -2   -1    0    0    0  501 -0.00000000000E+00 -0.00000000000E+00 -0.40882346830E+03  0.40882346831E+03  0.25500000000E-02 0.  1.
    8880022    1    1    2    0    0  0.30349400732E+03  0.45551943612E+03 -0.55229980579E+02  0.57100663125E+03  0.15294330000E+03 0.  1.
    8880022    1    1    2    0    0 -0.30349400732E+03 -0.45551943612E+03  0.74802733364E+03  0.93943765841E+03  0.15294330000E+03 0.  0.
<mgrwt>
<rscale>  0 0.56832933E+03</rscale>
<asrwt>0</asrwt>
<pdfrwt beam="1">  1        2 0.16948012E+00 0.56832933E+03</pdfrwt>
<pdfrwt beam="2">  1       -2 0.62895920E-01 0.56832933E+03</pdfrwt>
<totfact> 0.52741522E+01</totfact>
</mgrwt>
</event>
<event>
 4    1  0.5410820E-008  0.6147532E+03  0.7818608E-02  0.9875262E-01
         -2   -1    0    0    0  501 -0.00000000000E+00  0.00000000000E+00  0.21928841396E+03  0.21928841397E+03  0.25500000000E-02 0.  1.
          2   -1    0    0  501    0  0.00000000000E+00 -0.00000000000E+00 -0.19260951380E+04  0.19260951380E+04  0.25500000000E-02 0. -1.
    8880022    1    1    2    0    0  0.42032331080E+03 -0.42173238753E+03 -0.50542016514E+03  0.79584614634E+03  0.15294330000E+03 0.  0.
    8880022    1    1    2    0    0 -0.42032331080E+03  0.42173238753E+03 -0.12013865588E+04  0.13495374056E+04  0.15294330000E+03 0.  0.
<mgrwt>
<rscale>  0 0.61475324E+03</rscale>
<asrwt>0</asrwt>
<pdfrwt beam="1">  1        2 0.29632232E+00 0.61475324E+03</pdfrwt>
<pdfrwt beam="2">  1       -2 0.33736680E-01 0.61475324E+03</pdfrwt>
<totfact> 0.63057898E+01</totfact>
</mgrwt>
</event>
<event>
 4    1  0.5410820E-008  0.5939767E+03  0.7818608E-02  0.9917982E-01
         -2   -1    0    0    0  501 -0.00000000000E+00  0.00000000000E+00  0.19098066320E+03  0.19098066322E+03  0.25500000000E-02 0.  1.
          2   -1    0    0  501    0  0.00000000000E+00 -0.00000000000E+00 -0.21271975994E+04  0.21271975994E+04  0.25500000000E-02 0. -1.
    8880022    1    1    2    0    0  0.50469062522E+03 -0.27332046629E+03 -0.13885182163E+04  0.15102288550E+04  0.15294330000E+03 0.  0.
    8880022    1    1    2    0    0 -0.50469062522E+03  0.27332046629E+03 -0.54769871994E+03  0.80794940765E+03  0.15294330000E+03 0.  0.
<mgrwt>
<rscale>  0 0.59397673E+03</rscale>
<asrwt>0</asrwt>
<pdfrwt beam="1">  1        2 0.32726115E+00 0.59397673E+03</pdfrwt>
<pdfrwt beam="2">  1       -2 0.29381642E-01 0.59397673E+03</pdfrwt>
<totfact> 0.63654278E+01</totfact>
</mgrwt>
</event>
<event>
 4    1  0.5410820E-008  0.4159243E+03  0.7818608E-02  0.1038401E+00
         -2   -1    0    0    0  501 -0.00000000000E+00  0.00000000000E+00  0.34581414837E+03  0.34581414838E+03  0.25500000000E-02 0.  1.
          2   -1    0    0  501    0  0.00000000000E+00 -0.00000000000E+00 -0.95056777988E+03  0.95056777989E+03  0.25500000000E-02 0. -1.
    8880022    1    1    2    0    0 -0.38630946855E+03  0.19141208098E+02  0.14376368372E+03  0.44006935943E+03  0.15294330000E+03 0.  0.
    8880022    1    1    2    0    0  0.38630946855E+03 -0.19141208098E+02 -0.74851731523E+03  0.85631256884E+03  0.15294330000E+03 0.  0.
<mgrwt>
<rscale>  0 0.41592433E+03</rscale>
<asrwt>0</asrwt>
<pdfrwt beam="1">  1        2 0.14624120E+00 0.41592433E+03</pdfrwt>
<pdfrwt beam="2">  1       -2 0.53202177E-01 0.41592433E+03</pdfrwt>
<totfact> 0.94568123E+01</totfact>
</mgrwt>
</event>
<event>
 4    1  0.5410820E-008  0.2915771E+03  0.7818608E-02  0.1089529E+00
          2   -1    0    0  501    0  0.00000000000E+00  0.00000000000E+00  0.81218317406E+03  0.81218317407E+03  0.25500000000E-02 0. -1.
         -2   -1    0    0    0  501 -0.00000000000E+00 -0.00000000000E+00 -0.53589323935E+03  0.53589323936E+03  0.25500000000E-02 0.  1.
    8880022    1    1    2    0    0 -0.78690206302E+02  0.23544301922E+03  0.74277919944E+03  0.79795874330E+03  0.15294330000E+03 0.  0.
    8880022    1    1    2    0    0  0.78690206302E+02 -0.23544301922E+03 -0.46648926473E+03  0.55011767013E+03  0.15294330000E+03 0.  0.
<mgrwt>
<rscale>  0 0.29157712E+03</rscale>
<asrwt>0</asrwt>
<pdfrwt beam="1">  1        2 0.12495126E+00 0.29157712E+03</pdfrwt>
<pdfrwt beam="2">  1       -2 0.82445114E-01 0.29157712E+03</pdfrwt>
<totfact> 0.46821965E+01</totfact>
</mgrwt>
</event>
<event>
 4    1  0.5410820E-008  0.3715866E+03  0.7818608E-02  0.1054088E+00
         -2   -1    0    0    0  501 -0.00000000000E+00  0.00000000000E+00  0.63184351609E+03  0.63184351610E+03  0.25500000000E-02 0.  1.
          2   -1    0    0  501    0  0.00000000000E+00 -0.00000000000E+00 -0.93895105196E+03  0.93895105196E+03  0.25500000000E-02 0. -1.
    8880022    1    1    2    0    0  0.18656964747E+03  0.28262464302E+03  0.53440309291E+03  0.65089418565E+03  0.15294330000E+03 0.  0.
    8880022    1    1    2    0    0 -0.18656964747E+03 -0.28262464302E+03 -0.84151062877E+03  0.91990038241E+03  0.15294330000E+03 0.  0.
<mgrwt>
<rscale>  0 0.37158656E+03</rscale>
<asrwt>0</asrwt>
<pdfrwt beam="1">  1        2 0.14445401E+00 0.37158656E+03</pdfrwt>
<pdfrwt beam="2">  1       -2 0.97206695E-01 0.37158656E+03</pdfrwt>
<totfact> 0.26082630E+01</totfact>
</mgrwt>
</event>
<event>
 4    1  0.5410820E-008  0.4433268E+03  0.7818608E-02  0.1029731E+00
         -2   -1    0    0    0  501 -0.00000000000E+00  0.00000000000E+00  0.28514484945E+03  0.28514484946E+03  0.25500000000E-02 0.  1.
          2   -1    0    0  501    0  0.00000000000E+00 -0.00000000000E+00 -0.19521602150E+04  0.19521602150E+04  0.25500000000E-02 0. -1.
    8880022    1    1    2    0    0  0.71761612744E+02  0.40987464855E+03  0.66243028066E+02  0.44824853416E+03  0.15294330000E+03 0.  0.
    8880022    1    1    2    0    0 -0.71761612744E+02 -0.40987464855E+03 -0.17332583936E+04  0.17890565303E+04  0.15294330000E+03 0.  0.
<mgrwt>
<rscale>  0 0.44332675E+03</rscale>
<asrwt>0</asrwt>
<pdfrwt beam="1">  1        2 0.30033233E+00 0.44332675E+03</pdfrwt>
<pdfrwt beam="2">  1       -2 0.43868440E-01 0.44332675E+03</pdfrwt>
<totfact> 0.37921617E+01</totfact>
</mgrwt>
</event>
<event>
 4    1  0.5410820E-008  0.4417725E+03  0.7818608E-02  0.1030204E+00
         -2   -1    0    0    0  501 -0.00000000000E+00  0.00000000000E+00  0.20170948140E+03  0.20170948142E+03  0.25500000000E-02 0.  1.
          2   -1    0    0  501    0  0.00000000000E+00 -0.00000000000E+00 -0.99020167923E+03  0.99020167923E+03  0.25500000000E-02 0. -1.
    8880022    1    1    2    0    0  0.30364767310E+03 -0.28208038863E+03 -0.48439378178E+03  0.65559152211E+03  0.15294330000E+03 0.  0.
    8880022    1    1    2    0    0 -0.30364767310E+03  0.28208038863E+03 -0.30409841605E+03  0.53631963854E+03  0.15294330000E+03 0.  0.
<mgrwt>
<rscale>  0 0.44177246E+03</rscale>
<asrwt>0</asrwt>
<pdfrwt beam="1">  1        2 0.15233872E+00 0.44177246E+03</pdfrwt>
<pdfrwt beam="2">  1       -2 0.31032228E-01 0.44177246E+03</pdfrwt>
<totfact> 0.25338968E+02</totfact>
</mgrwt>
</event>
<event>
 4    1  0.5410820E-008  0.8268641E+03  0.7818608E-02  0.9521926E-01
          2   -1    0    0  501    0  0.00000000000E+00  0.00000000000E+00  0.23210085551E+04  0.23210085551E+04  0.25500000000E-02 0. -1.
         -2   -1    0    0    0  501 -0.00000000000E+00 -0.00000000000E+00 -0.40372427595E+03  0.40372427596E+03  0.25500000000E-02 0.  1.
    8880022    1    1    2    0    0  0.48094532268E+03  0.65498406307E+03  0.25025958984E+03  0.86390626899E+03  0.15294330000E+03 0.  0.
    8880022    1    1    2    0    0 -0.48094532268E+03 -0.65498406307E+03  0.16670246893E+04  0.18608265620E+04  0.15294330000E+03 0.  0.
<mgrwt>
<rscale>  0 0.82686406E+03</rscale>
<asrwt>0</asrwt>
<pdfrwt beam="1">  1        2 0.35707822E+00 0.82686406E+03</pdfrwt>
<pdfrwt beam="2">  1       -2 0.62111430E-01 0.82686406E+03</pdfrwt>
<totfact> 0.10946588E+01</totfact>
</mgrwt>
</event>
<event>
 4    1  0.5410820E-008  0.7371080E+03  0.7818608E-02  0.9655796E-01
          2   -1    0    0  501    0  0.00000000000E+00  0.00000000000E+00  0.28305909115E+04  0.28305909115E+04  0.25500000000E-02 0. -1.
         -2   -1    0    0    0  501 -0.00000000000E+00 -0.00000000000E+00 -0.39228468815E+03  0.39228468815E+03  0.25500000000E-02 0.  1.
    8880022    1    1    2    0    0 -0.51725391175E+03 -0.50237925991E+03  0.67577712477E+02  0.74019925037E+03  0.15294330000E+03 0.  0.
    8880022    1    1    2    0    0  0.51725391175E+03  0.50237925991E+03  0.23707285109E+04  0.24826763493E+04  0.15294330000E+03 0. -1.
<mgrwt>
<rscale>  0 0.73710799E+03</rscale>
<asrwt>0</asrwt>
<pdfrwt beam="1">  1        2 0.43547554E+00 0.73710799E+03</pdfrwt>
<pdfrwt beam="2">  1       -2 0.60351489E-01 0.73710799E+03</pdfrwt>
<totfact> 0.60215114E+00</totfact>
</mgrwt>
</event>
<event>
 4    1  0.5410820E-008  0.2866427E+03  0.7818608E-02  0.1092115E+00
         -2   -1    0    0    0  501 -0.00000000000E+00  0.00000000000E+00  0.21844175258E+03  0.21844175259E+03  0.25500000000E-02 0.  1.
          2   -1    0    0  501    0  0.00000000000E+00 -0.00000000000E+00 -0.49805555606E+03  0.49805555607E+03  0.25500000000E-02 0. -1.
    8880022    1    1    2    0    0  0.14121637423E+03  0.19705403853E+03  0.37440832689E+02  0.28907754568E+03  0.15294330000E+03 0.  0.
    8880022    1    1    2    0    0 -0.14121637423E+03 -0.19705403853E+03 -0.31705463617E+03  0.42741976298E+03  0.15294330000E+03 0.  0.
<mgrwt>
<rscale>  0 0.28664265E+03</rscale>
<asrwt>0</asrwt>
<pdfrwt beam="1">  1        2 0.76623931E-01 0.28664265E+03</pdfrwt>
<pdfrwt beam="2">  1       -2 0.33606424E-01 0.28664265E+03</pdfrwt>
<totfact> 0.52071146E+02</totfact>
</mgrwt>
</event>
<event>
 4    1  0.5410820E-008  0.1105265E+04  0.7818608E-02  0.9200076E-01
         -2   -1    0    0    0  501 -0.00000000000E+00  0.00000000000E+00  0.14763600243E+04  0.14763600243E+04  0.25500000000E-02 0.  1.
          2   -1    0    0  501    0  0.00000000000E+00 -0.00000000000E+00 -0.18984621462E+04  0.18984621462E+04  0.25500000000E-02 0. -1.
    8880022    1    1    2    0    0 -0.10555165440E+04  0.29000622435E+03 -0.14784625161E+04  0.18459311605E+04  0.15294330000E+03 0.  0.
    8880022    1    1    2    0    0  0.10555165440E+04 -0.29000622435E+03  0.10563603942E+04  0.15288910100E+04  0.15294330000E+03 0.  0.
<mgrwt>
<rscale>  0 0.11052649E+04</rscale>
<asrwt>0</asrwt>
<pdfrwt beam="1">  1        2 0.29207110E+00 0.11052649E+04</pdfrwt>
<pdfrwt beam="2">  1       -2 0.22713231E+00 0.11052649E+04</pdfrwt>
<totfact> 0.66708045E-01</totfact>
</mgrwt>
</event>
<event>
 4    1  0.5410820E-008  0.5479497E+03  0.7818608E-02  0.1001970E+00
         -2   -1    0    0    0  501 -0.00000000000E+00  0.00000000000E+00  0.23002271539E+04  0.23002271539E+04  0.25500000000E-02 0.  1.
          2   -1    0    0  501    0  0.00000000000E+00 -0.00000000000E+00 -0.13836473387E+04  0.13836473387E+04  0.25500000000E-02 0. -1.
    8880022    1    1    2    0    0 -0.30457892610E+03  0.42905578154E+03  0.22111932908E+04  0.22780747592E+04  0.15294330000E+03 0.  0.
    8880022    1    1    2    0    0  0.30457892610E+03 -0.42905578154E+03 -0.12946134757E+04  0.14057997334E+04  0.15294330000E+03 0.  0.
<mgrwt>
<rscale>  0 0.54794967E+03</rscale>
<asrwt>0</asrwt>
<pdfrwt beam="1">  1        2 0.21286882E+00 0.54794967E+03</pdfrwt>
<pdfrwt beam="2">  1       -2 0.35388110E+00 0.54794967E+03</pdfrwt>
<totfact> 0.24552014E-01</totfact>
</mgrwt>
</event>
<event>
 4    1  0.5410820E-008  0.7461918E+03  0.7818608E-02  0.9641344E-01
          2   -1    0    0  501    0  0.00000000000E+00  0.00000000000E+00  0.10038531355E+04  0.10038531355E+04  0.25500000000E-02 0. -1.
         -2   -1    0    0    0  501 -0.00000000000E+00 -0.00000000000E+00 -0.74660409140E+03  0.74660409141E+03  0.25500000000E-02 0.  1.
    8880022    1    1    2    0    0  0.37872864695E+03 -0.62447997170E+03  0.57239453850E+03  0.94044552410E+03  0.15294330000E+03 0.  0.
    8880022    1    1    2    0    0 -0.37872864695E+03  0.62447997170E+03 -0.31514549438E+03  0.81001170283E+03  0.15294330000E+03 0.  0.
<mgrwt>
<rscale>  0 0.74619185E+03</rscale>
<asrwt>0</asrwt>
<pdfrwt beam="1">  1        2 0.15443894E+00 0.74619185E+03</pdfrwt>
<pdfrwt beam="2">  1       -2 0.11486217E+00 0.74619185E+03</pdfrwt>
<totfact> 0.15067231E+01</totfact>
</mgrwt>
</event>
<event>
 4    1  0.5410820E-008  0.5302140E+03  0.7818608E-02  0.1006180E+00
          2   -1    0    0  501    0  0.00000000000E+00  0.00000000000E+00  0.13452807044E+04  0.13452807044E+04  0.25500000000E-02 0. -1.
         -2   -1    0    0    0  501 -0.00000000000E+00 -0.00000000000E+00 -0.23502287609E+03  0.23502287611E+03  0.25500000000E-02 0.  1.
    8880022    1    1    2    0    0 -0.27333502630E+03  0.42781211620E+03  0.81819270168E+03  0.97496984233E+03  0.15294330000E+03 0.  0.
    8880022    1    1    2    0    0  0.27333502630E+03 -0.42781211620E+03  0.29206512664E+03  0.60533373818E+03  0.15294330000E+03 0.  0.
<mgrwt>
<rscale>  0 0.53021401E+03</rscale>
<asrwt>0</asrwt>
<pdfrwt beam="1">  1        2 0.20696627E+00 0.53021401E+03</pdfrwt>
<pdfrwt beam="2">  1       -2 0.36157365E-01 0.53021401E+03</pdfrwt>
<totfact> 0.11621052E+02</totfact>
</mgrwt>
</event>
<event>
 4    1  0.5410820E-008  0.3781323E+03  0.7818608E-02  0.1051626E+00
          2   -1    0    0  501    0  0.00000000000E+00  0.00000000000E+00  0.12418364505E+04  0.12418364505E+04  0.25500000000E-02 0. -1.
         -2   -1    0    0    0  501 -0.00000000000E+00 -0.00000000000E+00 -0.18699946079E+03  0.18699946080E+03  0.25500000000E-02 0.  1.
    8880022    1    1    2    0    0 -0.77877843934E+01  0.34573356976E+03  0.84548044161E+02  0.38746919313E+03  0.15294330000E+03 0.  0.
    8880022    1    1    2    0    0  0.77877843934E+01 -0.34573356976E+03  0.97028894556E+03  0.10413667182E+04  0.15294330000E+03 0.  0.
<mgrwt>
<rscale>  0 0.37813226E+03</rscale>
<asrwt>0</asrwt>
<pdfrwt beam="1">  1        2 0.19105176E+00 0.37813226E+03</pdfrwt>
<pdfrwt beam="2">  1       -2 0.28769148E-01 0.37813226E+03</pdfrwt>
<totfact> 0.20746021E+02</totfact>
</mgrwt>
</event>
<event>
 4    1  0.5410820E-008  0.7730050E+03  0.7818608E-02  0.9599935E-01
          2   -1    0    0  501    0  0.00000000000E+00  0.00000000000E+00  0.24949179552E+04  0.24949179552E+04  0.25500000000E-02 0. -1.
         -2   -1    0    0    0  501 -0.00000000000E+00 -0.00000000000E+00 -0.38987640354E+03  0.38987640355E+03  0.25500000000E-02 0.  1.
    8880022    1    1    2    0    0  0.62455910576E+03  0.42903492828E+03  0.15672500446E+03  0.78873279779E+03  0.15294330000E+03 0.  0.
    8880022    1    1    2    0    0 -0.62455910576E+03 -0.42903492828E+03  0.19483165472E+04  0.20960615610E+04  0.15294330000E+03 0.  0.
<mgrwt>
<rscale>  0 0.77300498E+03</rscale>
<asrwt>0</asrwt>
<pdfrwt beam="1">  1        2 0.38383353E+00 0.77300498E+03</pdfrwt>
<pdfrwt beam="2">  1       -2 0.59980985E-01 0.77300498E+03</pdfrwt>
<totfact> 0.94884422E+00</totfact>
</mgrwt>
</event>
<event>
 4    1  0.5410820E-008  0.6038674E+03  0.7818608E-02  0.9897415E-01
          2   -1    0    0  501    0  0.00000000000E+00  0.00000000000E+00  0.24188813413E+04  0.24188813413E+04  0.25500000000E-02 0. -1.
         -2   -1    0    0    0  501 -0.00000000000E+00 -0.00000000000E+00 -0.17623629103E+03  0.17623629105E+03  0.25500000000E-02 0.  1.
    8880022    1    1    2    0    0  0.46130519856E+03 -0.35841550748E+03  0.16147228149E+04  0.17239447741E+04  0.15294330000E+03 0.  0.
    8880022    1    1    2    0    0 -0.46130519856E+03  0.35841550748E+03  0.62792223534E+03  0.87117285821E+03  0.15294330000E+03 0.  0.
<mgrwt>
<rscale>  0 0.60386738E+03</rscale>
<asrwt>0</asrwt>
<pdfrwt beam="1">  1        2 0.37213561E+00 0.60386738E+03</pdfrwt>
<pdfrwt beam="2">  1       -2 0.27113274E-01 0.60386738E+03</pdfrwt>
<totfact> 0.50869545E+01</totfact>
</mgrwt>
</event>
<event>
 4    1  0.5410820E-008  0.6804869E+03  0.7818608E-02  0.9751197E-01
          2   -1    0    0  501    0  0.00000000000E+00  0.00000000000E+00  0.10171334092E+04  0.10171334092E+04  0.25500000000E-02 0. -1.
         -2   -1    0    0    0  501 -0.00000000000E+00 -0.00000000000E+00 -0.51390766564E+03  0.51390766565E+03  0.25500000000E-02 0.  1.
    8880022    1    1    2    0    0 -0.65938747437E+03 -0.69849571362E+02 -0.69887755824E+01  0.68052281371E+03  0.15294330000E+03 0.  0.
    8880022    1    1    2    0    0  0.65938747437E+03  0.69849571362E+02  0.51021451914E+03  0.85051826114E+03  0.15294330000E+03 0.  0.
<mgrwt>
<rscale>  0 0.68048693E+03</rscale>
<asrwt>0</asrwt>
<pdfrwt beam="1">  1        2 0.15648206E+00 0.68048693E+03</pdfrwt>
<pdfrwt beam="2">  1       -2 0.79062719E-01 0.68048693E+03</pdfrwt>
<totfact> 0.35667153E+01</totfact>
</mgrwt>
</event>
<event>
 4    1  0.5410820E-008  0.1145071E+04  0.7818608E-02  0.9162342E-01
          2   -1    0    0  501    0  0.00000000000E+00  0.00000000000E+00  0.19878170102E+04  0.19878170102E+04  0.25500000000E-02 0. -1.
         -2   -1    0    0    0  501 -0.00000000000E+00 -0.00000000000E+00 -0.10675712569E+04  0.10675712569E+04  0.25500000000E-02 0.  1.
    8880022    1    1    2    0    0 -0.79566782321E+03  0.80914119216E+03 -0.48425596730E+03  0.12432587215E+04  0.15294330000E+03 0.  0.
    8880022    1    1    2    0    0  0.79566782321E+03 -0.80914119216E+03  0.14045017206E+04  0.18121295455E+04  0.15294330000E+03 0.  0.
<mgrwt>
<rscale>  0 0.11450714E+04</rscale>
<asrwt>0</asrwt>
<pdfrwt beam="1">  1        2 0.30581800E+00 0.11450714E+04</pdfrwt>
<pdfrwt beam="2">  1       -2 0.16424174E+00 0.11450714E+04</pdfrwt>
<totfact> 0.15573363E+00</totfact>
</mgrwt>
</event>
<event>
 4    1  0.5410820E-008  0.1971973E+03  0.7818608E-02  0.1152125E+00
          2   -1    0    0  501    0  0.00000000000E+00  0.00000000000E+00  0.80034897055E+03  0.80034897056E+03  0.25500000000E-02 0. -1.
         -2   -1    0    0    0  501 -0.00000000000E+00 -0.00000000000E+00 -0.30984258547E+03  0.30984258548E+03  0.25500000000E-02 0.  1.
    8880022    1    1    2    0    0  0.12356187626E+03  0.15085776803E+02 -0.26446476998E+03  0.32989147534E+03  0.15294330000E+03 0.  0.
    8880022    1    1    2    0    0 -0.12356187626E+03 -0.15085776803E+02  0.75497115507E+03  0.78030008069E+03  0.15294330000E+03 0.  0.
<mgrwt>
<rscale>  0 0.19719729E+03</rscale>
<asrwt>0</asrwt>
<pdfrwt beam="1">  1        2 0.12313061E+00 0.19719729E+03</pdfrwt>
<pdfrwt beam="2">  1       -2 0.47668091E-01 0.19719729E+03</pdfrwt>
<totfact> 0.15343304E+02</totfact>
</mgrwt>
</event>
<event>
 4    1  0.5410820E-008  0.6313854E+03  0.7818608E-02  0.9842349E-01
         -2   -1    0    0    0  501 -0.00000000000E+00  0.00000000000E+00  0.38833768229E+03  0.38833768230E+03  0.25500000000E-02 0.  1.
          2   -1    0    0  501    0  0.00000000000E+00 -0.00000000000E+00 -0.30824065990E+04  0.30824065990E+04  0.25500000000E-02 0. -1.
    8880022    1    1    2    0    0  0.49448074626E+03 -0.36158635099E+03 -0.27642770731E+04  0.28354673843E+04  0.15294330000E+03 0.  0.
    8880022    1    1    2    0    0 -0.49448074626E+03  0.36158635099E+03  0.70208156370E+02  0.63527689701E+03  0.15294330000E+03 0.  0.
<mgrwt>
<rscale>  0 0.63138542E+03</rscale>
<asrwt>0</asrwt>
<pdfrwt beam="1">  1        2 0.47421638E+00 0.63138542E+03</pdfrwt>
<pdfrwt beam="2">  1       -2 0.59744261E-01 0.63138542E+03</pdfrwt>
<totfact> 0.44283344E+00</totfact>
</mgrwt>
</event>
<event>
 4    1  0.5410820E-008  0.3775877E+03  0.7818608E-02  0.1051829E+00
         -2   -1    0    0    0  501 -0.00000000000E+00  0.00000000000E+00  0.20044579100E+03  0.20044579101E+03  0.25500000000E-02 0.  1.
          2   -1    0    0  501    0  0.00000000000E+00 -0.00000000000E+00 -0.93205932221E+03  0.93205932221E+03  0.25500000000E-02 0. -1.
    8880022    1    1    2    0    0  0.11131976933E+02  0.34504620726E+03 -0.64140133414E+03  0.74429035363E+03  0.15294330000E+03 0.  0.
    8880022    1    1    2    0    0 -0.11131976933E+02 -0.34504620726E+03 -0.90212197073E+02  0.38821475960E+03  0.15294330000E+03 0.  0.
<mgrwt>
<rscale>  0 0.37758768E+03</rscale>
<asrwt>0</asrwt>
<pdfrwt beam="1">  1        2 0.14339374E+00 0.37758768E+03</pdfrwt>
<pdfrwt beam="2">  1       -2 0.30837815E-01 0.37758768E+03</pdfrwt>
<totfact> 0.28077979E+02</totfact>
</mgrwt>
</event>
<event>
 4    1  0.5410820E-008  0.5493044E+03  0.7818608E-02  0.1001655E+00
         -2   -1    0    0    0  501 -0.00000000000E+00  0.00000000000E+00  0.10898784929E+04  0.10898784930E+04  0.25500000000E-02 0.  1.
          2   -1    0    0  501    0  0.00000000000E+00 -0.00000000000E+00 -0.18298087331E+04  0.18298087331E+04  0.25500000000E-02 0. -1.
    8880022    1    1    2    0    0  0.12578963260E+03 -0.51236773190E+03 -0.17148438373E+04  0.18006734195E+04  0.15294330000E+03 0. -1.
    8880022    1    1    2    0    0 -0.12578963260E+03  0.51236773190E+03  0.97491359714E+03  0.11190138066E+04  0.15294330000E+03 0.  0.
<mgrwt>
<rscale>  0 0.54930445E+03</rscale>
<asrwt>0</asrwt>
<pdfrwt beam="1">  1        2 0.28150904E+00 0.54930445E+03</pdfrwt>
<pdfrwt beam="2">  1       -2 0.16767361E+00 0.54930445E+03</pdfrwt>
<totfact> 0.19884612E+00</totfact>
</mgrwt>
</event>
<event>
 4    1  0.5410820E-008  0.2571765E+03  0.7818608E-02  0.1108852E+00
          2   -1    0    0  501    0  0.00000000000E+00  0.00000000000E+00  0.55045041042E+03  0.55045041042E+03  0.25500000000E-02 0. -1.
         -2   -1    0    0    0  501 -0.00000000000E+00 -0.00000000000E+00 -0.30551194178E+03  0.30551194179E+03  0.25500000000E-02 0.  1.
    8880022    1    1    2    0    0  0.12284480507E+03 -0.16630472713E+03 -0.21089128597E+03  0.33258817765E+03  0.15294330000E+03 0.  0.
    8880022    1    1    2    0    0 -0.12284480507E+03  0.16630472713E+03  0.45582975461E+03  0.52337417456E+03  0.15294330000E+03 0.  0.
<mgrwt>
<rscale>  0 0.25717652E+03</rscale>
<asrwt>0</asrwt>
<pdfrwt beam="1">  1        2 0.84684678E-01 0.25717652E+03</pdfrwt>
<pdfrwt beam="2">  1       -2 0.47001838E-01 0.25717652E+03</pdfrwt>
<totfact> 0.24482112E+02</totfact>
</mgrwt>
</event>
<event>
 4    1  0.5410820E-008  0.7030132E+03  0.7818608E-02  0.9712093E-01
          2   -1    0    0  501    0  0.00000000000E+00  0.00000000000E+00  0.16180933914E+04  0.16180933914E+04  0.25500000000E-02 0. -1.
         -2   -1    0    0    0  501 -0.00000000000E+00 -0.00000000000E+00 -0.65099949565E+03  0.65099949565E+03  0.25500000000E-02 0.  1.
    8880022    1    1    2    0    0  0.47126855404E+03  0.49874025333E+03  0.13101452245E+04  0.14868449995E+04  0.15294330000E+03 0.  0.
    8880022    1    1    2    0    0 -0.47126855404E+03 -0.49874025333E+03 -0.34305132877E+03  0.78224788751E+03  0.15294330000E+03 0.  0.
<mgrwt>
<rscale>  0 0.70301319E+03</rscale>
<asrwt>0</asrwt>
<pdfrwt beam="1">  1        2 0.24893744E+00 0.70301319E+03</pdfrwt>
<pdfrwt beam="2">  1       -2 0.10015377E+00 0.70301319E+03</pdfrwt>
<totfact> 0.92720723E+00</totfact>
</mgrwt>
</event>
<event>
 4    1  0.5410820E-008  0.4302144E+03  0.7818608E-02  0.1033792E+00
         -2   -1    0    0    0  501 -0.00000000000E+00  0.00000000000E+00  0.46132457007E+03  0.46132457008E+03  0.25500000000E-02 0.  1.
          2   -1    0    0  501    0  0.00000000000E+00 -0.00000000000E+00 -0.59651624273E+03  0.59651624274E+03  0.25500000000E-02 0. -1.
    8880022    1    1    2    0    0  0.91392525168E+02 -0.39158671752E+03 -0.37024953751E+03  0.56759943978E+03  0.15294330000E+03 0.  0.
    8880022    1    1    2    0    0 -0.91392525168E+02  0.39158671752E+03  0.23505786485E+03  0.49024137304E+03  0.15294330000E+03 0.  0.
<mgrwt>
<rscale>  0 0.43021437E+03</rscale>
<asrwt>0</asrwt>
<pdfrwt beam="1">  1        2 0.91771730E-01 0.43021437E+03</pdfrwt>
<pdfrwt beam="2">  1       -2 0.70973010E-01 0.43021437E+03</pdfrwt>
<totfact> 0.93365138E+01</totfact>
</mgrwt>
</event>
<event>
 4    1  0.5410820E-008  0.5457718E+03  0.7818608E-02  0.1002477E+00
         -2   -1    0    0    0  501 -0.00000000000E+00  0.00000000000E+00  0.18836191845E+03  0.18836191846E+03  0.25500000000E-02 0.  1.
          2   -1    0    0  501    0  0.00000000000E+00 -0.00000000000E+00 -0.22583221223E+04  0.22583221223E+04  0.25500000000E-02 0. -1.
    8880022    1    1    2    0    0  0.52383935902E+03  0.82155433870E+01 -0.17047708514E+04  0.17900029269E+04  0.15294330000E+03 0.  0.
    8880022    1    1    2    0    0 -0.52383935902E+03 -0.82155433870E+01 -0.36518935236E+03  0.65668111386E+03  0.15294330000E+03 0.  0.
<mgrwt>
<rscale>  0 0.54577177E+03</rscale>
<asrwt>0</asrwt>
<pdfrwt beam="1">  1        2 0.34743415E+00 0.54577177E+03</pdfrwt>
<pdfrwt beam="2">  1       -2 0.28978758E-01 0.54577177E+03</pdfrwt>
<totfact> 0.55803368E+01</totfact>
</mgrwt>
</event>
<event>
 4    1  0.5410820E-008  0.2125023E+03  0.7818608E-02  0.1139600E+00
          2   -1    0    0  501    0  0.00000000000E+00  0.00000000000E+00  0.25637285126E+04  0.25637285126E+04  0.25500000000E-02 0. -1.
         -2   -1    0    0    0  501 -0.00000000000E+00 -0.00000000000E+00 -0.32420698704E+02  0.32420698805E+02  0.25500000000E-02 0.  1.
    8880022    1    1    2    0    0 -0.49112457673E+02 -0.13911695870E+03  0.38841214008E+03  0.44274282069E+03  0.15294330000E+03 0.  1.
    8880022    1    1    2    0    0  0.49112457673E+02  0.13911695870E+03  0.21428956738E+04  0.21534063907E+04  0.15294330000E+03 0.  0.
<mgrwt>
<rscale>  0 0.21250227E+03</rscale>
<asrwt>0</asrwt>
<pdfrwt beam="1">  1        2 0.39441979E+00 0.21250227E+03</pdfrwt>
<pdfrwt beam="2">  1       -2 0.49877996E-02 0.21250227E+03</pdfrwt>
<totfact> 0.73590582E+02</totfact>
</mgrwt>
</event>
<event>
 4    1  0.5410820E-008  0.4333672E+03  0.7818608E-02  0.1032802E+00
         -2   -1    0    0    0  501 -0.00000000000E+00  0.00000000000E+00  0.37068083809E+03  0.37068083810E+03  0.25500000000E-02 0.  1.
          2   -1    0    0  501    0  0.00000000000E+00 -0.00000000000E+00 -0.21166111008E+04  0.21166111008E+04  0.25500000000E-02 0. -1.
    8880022    1    1    2    0    0 -0.39306820932E+03  0.99563205588E+02 -0.19575993983E+04  0.20049943906E+04  0.15294330000E+03 0.  0.
    8880022    1    1    2    0    0  0.39306820932E+03 -0.99563205588E+02  0.21166913562E+03  0.48229754827E+03  0.15294330000E+03 0.  0.
<mgrwt>
<rscale>  0 0.43336717E+03</rscale>
<asrwt>0</asrwt>
<pdfrwt beam="1">  1        2 0.32563247E+00 0.43336717E+03</pdfrwt>
<pdfrwt beam="2">  1       -2 0.57027823E-01 0.43336717E+03</pdfrwt>
<totfact> 0.18262496E+01</totfact>
</mgrwt>
</event>
<event>
 4    1  0.5410820E-008  0.5081169E+03  0.7818608E-02  0.1011682E+00
         -2   -1    0    0    0  501 -0.00000000000E+00  0.00000000000E+00  0.84262036337E+03  0.84262036337E+03  0.25500000000E-02 0.  1.
          2   -1    0    0  501    0  0.00000000000E+00 -0.00000000000E+00 -0.83447602852E+03  0.83447602852E+03  0.25500000000E-02 0. -1.
    8880022    1    1    2    0    0  0.39143146585E+03  0.28560905762E+03 -0.66299170421E+03  0.83530879268E+03  0.15294330000E+03 0.  0.
    8880022    1    1    2    0    0 -0.39143146585E+03 -0.28560905762E+03  0.67113603906E+03  0.84178759922E+03  0.15294330000E+03 0.  0.
<mgrwt>
<rscale>  0 0.50811690E+03</rscale>
<asrwt>0</asrwt>
<pdfrwt beam="1">  1        2 0.12838093E+00 0.50811690E+03</pdfrwt>
<pdfrwt beam="2">  1       -2 0.12963390E+00 0.50811690E+03</pdfrwt>
<totfact> 0.14909165E+01</totfact>
</mgrwt>
</event>
<event>
 4    1  0.5410820E-008  0.2329649E+03  0.7818608E-02  0.1124570E+00
          2   -1    0    0  501    0  0.00000000000E+00  0.00000000000E+00  0.61804947422E+03  0.61804947423E+03  0.25500000000E-02 0. -1.
         -2   -1    0    0    0  501 -0.00000000000E+00 -0.00000000000E+00 -0.12097044305E+03  0.12097044308E+03  0.25500000000E-02 0.  1.
    8880022    1    1    2    0    0  0.12246976143E+03  0.12602446815E+03  0.44199375966E+03  0.49963100948E+03  0.15294330000E+03 0.  0.
    8880022    1    1    2    0    0 -0.12246976143E+03 -0.12602446815E+03  0.55085271506E+02  0.23938890782E+03  0.15294330000E+03 0.  0.
<mgrwt>
<rscale>  0 0.23296494E+03</rscale>
<asrwt>0</asrwt>
<pdfrwt beam="1">  1        2 0.95084532E-01 0.23296494E+03</pdfrwt>
<pdfrwt beam="2">  1       -2 0.18610838E-01 0.23296494E+03</pdfrwt>
<totfact> 0.11595573E+03</totfact>
</mgrwt>
</event>
<event>
 4    1  0.7059326E-008  0.8412507E+03  0.7818608E-02  0.9502156E-01
          2   -1    0    0  501    0  0.00000000000E+00  0.00000000000E+00  0.19318597750E+04  0.19318597750E+04  0.25500000000E-02 0. -1.
         -2   -1    0    0    0  501 -0.00000000000E+00 -0.00000000000E+00 -0.78607702993E+03  0.78607702993E+03  0.25500000000E-02 0.  1.
    8880022    1    1    2    0    0  0.31323921857E+03  0.76563190245E+03  0.15659375004E+04  0.17776003281E+04  0.15294330000E+03 0.  0.
    8880022    1    1    2    0    0 -0.31323921857E+03 -0.76563190245E+03 -0.42015475541E+03  0.94033647681E+03  0.15294330000E+03 0.  0.
<mgrwt>
<rscale>  0 0.84125066E+03</rscale>
<asrwt>0</asrwt>
<pdfrwt beam="1">  1        2 0.29720919E+00 0.84125066E+03</pdfrwt>
<pdfrwt beam="2">  1       -2 0.12093493E+00 0.84125066E+03</pdfrwt>
<totfact> 0.38725810E+00</totfact>
</mgrwt>
</event>
<event>
 4    1  0.5410820E-008  0.1654213E+03  0.7818608E-02  0.1182709E+00
         -2   -1    0    0    0  501 -0.00000000000E+00  0.00000000000E+00  0.50099791315E+03  0.50099791316E+03  0.25500000000E-02 0.  1.
          2   -1    0    0  501    0  0.00000000000E+00 -0.00000000000E+00 -0.10061327288E+04  0.10061327288E+04  0.25500000000E-02 0. -1.
    8880022    1    1    2    0    0  0.14340273118E+02  0.61375153255E+02 -0.98539312837E+03  0.99918157675E+03  0.15294330000E+03 0.  0.
    8880022    1    1    2    0    0 -0.14340273118E+02 -0.61375153255E+02  0.48025831273E+03  0.50794906519E+03  0.15294330000E+03 0.  1.
<mgrwt>
<rscale>  0 0.16542130E+03</rscale>
<asrwt>0</asrwt>
<pdfrwt beam="1">  1        2 0.15478965E+00 0.16542130E+03</pdfrwt>
<pdfrwt beam="2">  1       -2 0.77076602E-01 0.16542130E+03</pdfrwt>
<totfact> 0.42291205E+01</totfact>
</mgrwt>
</event>
<event>
 4    1  0.5410820E-008  0.4445968E+03  0.7818608E-02  0.1029346E+00
         -2   -1    0    0    0  501 -0.00000000000E+00  0.00000000000E+00  0.47682285089E+03  0.47682285090E+03  0.25500000000E-02 0.  1.
          2   -1    0    0  501    0  0.00000000000E+00 -0.00000000000E+00 -0.14604765417E+04  0.14604765417E+04  0.25500000000E-02 0. -1.
    8880022    1    1    2    0    0 -0.64304924137E+01  0.41741264846E+03 -0.13115558506E+04  0.13848628353E+04  0.15294330000E+03 0.  0.
    8880022    1    1    2    0    0  0.64304924137E+01 -0.41741264846E+03  0.32790215985E+03  0.55243655724E+03  0.15294330000E+03 0.  0.
<mgrwt>
<rscale>  0 0.44459681E+03</rscale>
<asrwt>0</asrwt>
<pdfrwt beam="1">  1        2 0.22468870E+00 0.44459681E+03</pdfrwt>
<pdfrwt beam="2">  1       -2 0.73357362E-01 0.44459681E+03</pdfrwt>
<totfact> 0.24029988E+01</totfact>
</mgrwt>
</event>
<event>
 4    1  0.5444105E-008  0.9033350E+03  0.7818608E-02  0.9421422E-01
         -2   -1    0    0    0  501 -0.00000000000E+00  0.00000000000E+00  0.98433258446E+03  0.98433258446E+03  0.25500000000E-02 0.  1.
          2   -1    0    0  501    0  0.00000000000E+00 -0.00000000000E+00 -0.26579417711E+04  0.26579417711E+04  0.25500000000E-02 0. -1.
    8880022    1    1    2    0    0 -0.14606241902E+03 -0.87823020320E+03  0.67386529221E+03  0.11269909517E+04  0.15294330000E+03 0.  0.
    8880022    1    1    2    0    0  0.14606241902E+03  0.87823020320E+03 -0.23474744788E+04  0.25152834039E+04  0.15294330000E+03 0.  0.
<mgrwt>
<rscale>  0 0.90333503E+03</rscale>
<asrwt>0</asrwt>
<pdfrwt beam="1">  1        2 0.40891412E+00 0.90333503E+03</pdfrwt>
<pdfrwt beam="2">  1       -2 0.15143578E+00 0.90333503E+03</pdfrwt>
<totfact> 0.84289103E-01</totfact>
</mgrwt>
</event>
<event>
 4    1  0.5410820E-008  0.1857310E+03  0.7818608E-02  0.1162369E+00
          2   -1    0    0  501    0  0.00000000000E+00  0.00000000000E+00  0.14924555761E+04  0.14924555761E+04  0.25500000000E-02 0. -1.
         -2   -1    0    0    0  501 -0.00000000000E+00 -0.00000000000E+00 -0.42442597482E+02  0.42442597559E+02  0.25500000000E-02 0.  1.
    8880022    1    1    2    0    0 -0.10195106927E+03  0.26651845451E+02  0.12429154951E+04  0.12567159275E+04  0.15294330000E+03 0.  0.
    8880022    1    1    2    0    0  0.10195106927E+03 -0.26651845451E+02  0.20709748346E+03  0.27818224613E+03  0.15294330000E+03 0.  0.
<mgrwt>
<rscale>  0 0.18573097E+03</rscale>
<asrwt>0</asrwt>
<pdfrwt beam="1">  1        2 0.22960855E+00 0.18573097E+03</pdfrwt>
<pdfrwt beam="2">  1       -2 0.65296304E-02 0.18573097E+03</pdfrwt>
<totfact> 0.17936543E+03</totfact>
</mgrwt>
</event>
<event>
 4    1  0.5410820E-008  0.5278812E+03  0.7818608E-02  0.1006747E+00
         -2   -1    0    0    0  501 -0.00000000000E+00  0.00000000000E+00  0.99285905517E+03  0.99285905517E+03  0.25500000000E-02 0.  1.
          2   -1    0    0  501    0  0.00000000000E+00 -0.00000000000E+00 -0.26255625376E+04  0.26255625376E+04  0.25500000000E-02 0. -1.
    8880022    1    1    2    0    0  0.48227312106E+03  0.15059739672E+03 -0.25261313258E+04  0.25806972057E+04  0.15294330000E+03 0.  0.
    8880022    1    1    2    0    0 -0.48227312106E+03 -0.15059739672E+03  0.89342784338E+03  0.10377243871E+04  0.15294330000E+03 0.  0.
<mgrwt>
<rscale>  0 0.52788123E+03</rscale>
<asrwt>0</asrwt>
<pdfrwt beam="1">  1        2 0.40393270E+00 0.52788123E+03</pdfrwt>
<pdfrwt beam="2">  1       -2 0.15274755E+00 0.52788123E+03</pdfrwt>
<totfact> 0.94029162E-01</totfact>
</mgrwt>
</event>
<event>
 4    1  0.5962811E-008  0.5627345E+03  0.7818608E-02  0.9985886E-01
         -2   -1    0    0    0  501 -0.00000000000E+00  0.00000000000E+00  0.75023698276E+03  0.75023698276E+03  0.25500000000E-02 0.  1.
          2   -1    0    0  501    0  0.00000000000E+00 -0.00000000000E+00 -0.21692251471E+04  0.21692251471E+04  0.25500000000E-02 0. -1.
    8880022    1    1    2    0    0 -0.15917622898E+02 -0.54131791438E+03 -0.20195304676E+04  0.20964668892E+04  0.15294330000E+03 0.  0.
    8880022    1    1    2    0    0  0.15917622898E+02  0.54131791438E+03  0.60054230322E+03  0.82299524065E+03  0.15294330000E+03 0.  0.
<mgrwt>
<rscale>  0 0.56273449E+03</rscale>
<asrwt>0</asrwt>
<pdfrwt beam="1">  1        2 0.33372694E+00 0.56273449E+03</pdfrwt>
<pdfrwt beam="2">  1       -2 0.11542108E+00 0.56273449E+03</pdfrwt>
<totfact> 0.33982687E+00</totfact>
</mgrwt>
</event>
<event>
 4    1  0.5410820E-008  0.1054945E+04  0.7818608E-02  0.9250254E-01
         -2   -1    0    0    0  501 -0.00000000000E+00  0.00000000000E+00  0.17302444679E+04  0.17302444679E+04  0.25500000000E-02 0.  1.
          2   -1    0    0  501    0  0.00000000000E+00 -0.00000000000E+00 -0.89334997829E+03  0.89334997829E+03  0.25500000000E-02 0. -1.
    8880022    1    1    2    0    0 -0.52871475401E+03  0.89998743903E+03  0.11125896147E+04  0.15332201360E+04  0.15294330000E+03 0.  0.
    8880022    1    1    2    0    0  0.52871475401E+03 -0.89998743903E+03 -0.27569512507E+03  0.10903743103E+04  0.15294330000E+03 0.  0.
<mgrwt>
<rscale>  0 0.10549447E+04</rscale>
<asrwt>0</asrwt>
<pdfrwt beam="1">  1        2 0.13743846E+00 0.10549447E+04</pdfrwt>
<pdfrwt beam="2">  1       -2 0.26619146E+00 0.10549447E+04</pdfrwt>
<totfact> 0.15035527E+00</totfact>
</mgrwt>
</event>
<event>
 4    1  0.5410820E-008  0.6669781E+03  0.7818608E-02  0.9775432E-01
         -2   -1    0    0    0  501 -0.00000000000E+00  0.00000000000E+00  0.20386175051E+03  0.20386175053E+03  0.25500000000E-02 0.  1.
          2   -1    0    0  501    0  0.00000000000E+00 -0.00000000000E+00 -0.39875142312E+04  0.39875142312E+04  0.25500000000E-02 0. -1.
    8880022    1    1    2    0    0 -0.38780281964E+03  0.52065060479E+03 -0.48170563514E+03  0.82273935796E+03  0.15294330000E+03 0.  0.
    8880022    1    1    2    0    0  0.38780281964E+03 -0.52065060479E+03 -0.33019468456E+04  0.33686366238E+04  0.15294330000E+03 0. -1.
<mgrwt>
<rscale>  0 0.66697806E+03</rscale>
<asrwt>0</asrwt>
<pdfrwt beam="1">  1        2 0.61346367E+00 0.66697806E+03</pdfrwt>
<pdfrwt beam="2">  1       -2 0.31363349E-01 0.66697806E+03</pdfrwt>
<totfact> 0.37250024E+00</totfact>
</mgrwt>
</event>
<event>
 4    1  0.5410820E-008  0.7727130E+03  0.7818608E-02  0.9600376E-01
          2   -1    0    0  501    0  0.00000000000E+00  0.00000000000E+00  0.60085617810E+03  0.60085617810E+03  0.25500000000E-02 0. -1.
         -2   -1    0    0    0  501 -0.00000000000E+00 -0.00000000000E+00 -0.13427703075E+04  0.13427703075E+04  0.25500000000E-02 0.  1.
    8880022    1    1    2    0    0  0.15050089522E+03 -0.74232287646E+03  0.12451964371E+03  0.78268165116E+03  0.15294330000E+03 0.  0.
    8880022    1    1    2    0    0 -0.15050089522E+03  0.74232287646E+03 -0.86643377308E+03  0.11609448344E+04  0.15294330000E+03 0.  0.
<mgrwt>
<rscale>  0 0.77271303E+03</rscale>
<asrwt>0</asrwt>
<pdfrwt beam="1">  1        2 0.92439412E-01 0.77271303E+03</pdfrwt>
<pdfrwt beam="2">  1       -2 0.20658005E+00 0.77271303E+03</pdfrwt>
<totfact> 0.60751677E+00</totfact>
</mgrwt>
</event>
<event>
 4    1  0.5410820E-008  0.2796797E+03  0.7818608E-02  0.1095864E+00
          2   -1    0    0  501    0  0.00000000000E+00  0.00000000000E+00  0.10144636627E+04  0.10144636627E+04  0.25500000000E-02 0. -1.
         -2   -1    0    0    0  501 -0.00000000000E+00 -0.00000000000E+00 -0.34499625919E+03  0.34499625920E+03  0.25500000000E-02 0.  1.
    8880022    1    1    2    0    0  0.16793706178E+03  0.16317551220E+03  0.93370782833E+03  0.97469537098E+03  0.15294330000E+03 0.  0.
    8880022    1    1    2    0    0 -0.16793706178E+03 -0.16317551220E+03 -0.26424042484E+03  0.38476455091E+03  0.15294330000E+03 0.  0.
<mgrwt>
<rscale>  0 0.27967974E+03</rscale>
<asrwt>0</asrwt>
<pdfrwt beam="1">  1        2 0.15607133E+00 0.27967974E+03</pdfrwt>
<pdfrwt beam="2">  1       -2 0.53076348E-01 0.27967974E+03</pdfrwt>
<totfact> 0.88585415E+01</totfact>
</mgrwt>
</event>
<event>
 4    1  0.5410820E-008  0.3535567E+03  0.7818608E-02  0.1061165E+00
         -2   -1    0    0    0  501 -0.00000000000E+00  0.00000000000E+00  0.92381093835E+03  0.92381093835E+03  0.25500000000E-02 0.  1.
          2   -1    0    0  501    0  0.00000000000E+00 -0.00000000000E+00 -0.19595665424E+03  0.19595665426E+03  0.25500000000E-02 0. -1.
    8880022    1    1    2    0    0 -0.20534180922E+03 -0.24381436257E+03  0.67539663235E+03  0.76234045283E+03  0.15294330000E+03 0.  1.
    8880022    1    1    2    0    0  0.20534180922E+03  0.24381436257E+03  0.52457651755E+02  0.35742713978E+03  0.15294330000E+03 0.  0.
<mgrwt>
<rscale>  0 0.35355672E+03</rscale>
<asrwt>0</asrwt>
<pdfrwt beam="1">  1        2 0.30147178E-01 0.35355672E+03</pdfrwt>
<pdfrwt beam="2">  1       -2 0.14212476E+00 0.35355672E+03</pdfrwt>
<totfact> 0.63423685E+01</totfact>
</mgrwt>
</event>
<event>
 4    1  0.5410820E-008  0.1414223E+04  0.7818608E-02  0.8943587E-01
         -2   -1    0    0    0  501 -0.00000000000E+00  0.00000000000E+00  0.84666505956E+03  0.84666505956E+03  0.25500000000E-02 0.  1.
          2   -1    0    0  501    0  0.00000000000E+00 -0.00000000000E+00 -0.32092765338E+04  0.32092765338E+04  0.25500000000E-02 0. -1.
    8880022    1    1    2    0    0 -0.12776274399E+04  0.58677307721E+03 -0.13944621151E+03  0.14210810738E+04  0.15294330000E+03 0.  0.
    8880022    1    1    2    0    0  0.12776274399E+04 -0.58677307721E+03 -0.22231652628E+04  0.26348605196E+04  0.15294330000E+03 0.  0.
<mgrwt>
<rscale>  0 0.14142228E+04</rscale>
<asrwt>0</asrwt>
<pdfrwt beam="1">  1        2 0.49373485E+00 0.14142228E+04</pdfrwt>
<pdfrwt beam="2">  1       -2 0.13025616E+00 0.14142228E+04</pdfrwt>
<totfact> 0.53195043E-01</totfact>
</mgrwt>
</event>
<event>
 4    1  0.5410820E-008  0.4305526E+03  0.7818608E-02  0.1033686E+00
         -2   -1    0    0    0  501 -0.00000000000E+00  0.00000000000E+00  0.72880217668E+03  0.72880217668E+03  0.25500000000E-02 0.  1.
          2   -1    0    0  501    0  0.00000000000E+00 -0.00000000000E+00 -0.11546307593E+04  0.11546307593E+04  0.25500000000E-02 0. -1.
    8880022    1    1    2    0    0  0.13056802751E+03 -0.38070445971E+03 -0.10444598101E+04  0.11297220204E+04  0.15294330000E+03 0.  0.
    8880022    1    1    2    0    0 -0.13056802751E+03  0.38070445971E+03  0.61863122755E+03  0.75371091551E+03  0.15294330000E+03 0.  1.
<mgrwt>
<rscale>  0 0.43055261E+03</rscale>
<asrwt>0</asrwt>
<pdfrwt beam="1">  1        2 0.17763550E+00 0.43055261E+03</pdfrwt>
<pdfrwt beam="2">  1       -2 0.11212341E+00 0.43055261E+03</pdfrwt>
<totfact> 0.13551149E+01</totfact>
</mgrwt>
</event>
<event>
 4    1  0.5410820E-008  0.1905698E+03  0.7818608E-02  0.1157948E+00
          2   -1    0    0  501    0  0.00000000000E+00  0.00000000000E+00  0.67155389978E+03  0.67155389978E+03  0.25500000000E-02 0. -1.
         -2   -1    0    0    0  501 -0.00000000000E+00 -0.00000000000E+00 -0.60475171822E+03  0.60475171822E+03  0.25500000000E-02 0.  1.
    8880022    1    1    2    0    0 -0.11227533456E+03 -0.17873363391E+02 -0.57555078192E+03  0.60628010313E+03  0.15294330000E+03 0.  1.
    8880022    1    1    2    0    0  0.11227533456E+03  0.17873363391E+02  0.64235296348E+03  0.67002551487E+03  0.15294330000E+03 0.  0.
<mgrwt>
<rscale>  0 0.19056983E+03</rscale>
<asrwt>0</asrwt>
<pdfrwt beam="1">  1        2 0.10331598E+00 0.19056983E+03</pdfrwt>
<pdfrwt beam="2">  1       -2 0.93038727E-01 0.19056983E+03</pdfrwt>
<totfact> 0.46228969E+01</totfact>
</mgrwt>
</event>
<event>
 4    1  0.5410820E-008  0.2671389E+03  0.7818608E-02  0.1102928E+00
         -2   -1    0    0    0  501 -0.00000000000E+00  0.00000000000E+00  0.28020338173E+04  0.28020338173E+04  0.25500000000E-02 0.  1.
          2   -1    0    0  501    0  0.00000000000E+00 -0.00000000000E+00 -0.10650752109E+04  0.10650752109E+04  0.25500000000E-02 0. -1.
    8880022    1    1    2    0    0 -0.20945570910E+03  0.64030084238E+02  0.27787761090E+04  0.27915873374E+04  0.15294330000E+03 0.  0.
    8880022    1    1    2    0    0  0.20945570910E+03 -0.64030084238E+02 -0.10418175026E+04  0.10755216908E+04  0.15294330000E+03 0. -1.
<mgrwt>
<rscale>  0 0.26713891E+03</rscale>
<asrwt>0</asrwt>
<pdfrwt beam="1">  1        2 0.16385773E+00 0.26713891E+03</pdfrwt>
<pdfrwt beam="2">  1       -2 0.43108212E+00 0.26713891E+03</pdfrwt>
<totfact> 0.13874717E-01</totfact>
</mgrwt>
</event>
<event>
 4    1  0.5410820E-008  0.2773649E+03  0.7818608E-02  0.1097137E+00
         -2   -1    0    0    0  501 -0.00000000000E+00  0.00000000000E+00  0.93579079444E+02  0.93579079479E+02  0.25500000000E-02 0.  1.
          2   -1    0    0  501    0  0.00000000000E+00 -0.00000000000E+00 -0.38563791861E+04  0.38563791861E+04  0.25500000000E-02 0. -1.
    8880022    1    1    2    0    0  0.19383125723E+03 -0.12636873170E+03 -0.36332644574E+04  0.36438361493E+04  0.15294330000E+03 0.  0.
    8880022    1    1    2    0    0 -0.19383125723E+03  0.12636873170E+03 -0.12953564928E+03  0.30612211629E+03  0.15294330000E+03 0.  0.
<mgrwt>
<rscale>  0 0.27736486E+03</rscale>
<asrwt>0</asrwt>
<pdfrwt beam="1">  1        2 0.59328898E+00 0.27736486E+03</pdfrwt>
<pdfrwt beam="2">  1       -2 0.14396784E-01 0.27736486E+03</pdfrwt>
<totfact> 0.21036148E+01</totfact>
</mgrwt>
</event>
<event>
 4    1  0.7911690E-008  0.8757066E+03  0.7818608E-02  0.9456469E-01
         -2   -1    0    0    0  501 -0.00000000000E+00  0.00000000000E+00  0.14442021232E+04  0.14442021232E+04  0.25500000000E-02 0.  1.
          2   -1    0    0  501    0  0.00000000000E+00 -0.00000000000E+00 -0.27574289160E+04  0.27574289160E+04  0.25500000000E-02 0. -1.
    8880022    1    1    2    0    0 -0.52587850041E+03  0.68331709729E+03 -0.25443473790E+04  0.26908299260E+04  0.15294330000E+03 0.  0.
    8880022    1    1    2    0    0  0.52587850041E+03 -0.68331709729E+03  0.12311205862E+04  0.15108011131E+04  0.15294330000E+03 0.  1.
<mgrwt>
<rscale>  0 0.87570663E+03</rscale>
<asrwt>0</asrwt>
<pdfrwt beam="1">  1        2 0.42421983E+00 0.87570663E+03</pdfrwt>
<pdfrwt beam="2">  1       -2 0.22218494E+00 0.87570663E+03</pdfrwt>
<totfact> 0.24416278E-01</totfact>
</mgrwt>
</event>
<event>
 4    1  0.5410820E-008  0.5837196E+03  0.7818608E-02  0.9939770E-01
          2   -1    0    0  501    0  0.00000000000E+00  0.00000000000E+00  0.22033234207E+04  0.22033234207E+04  0.25500000000E-02 0. -1.
         -2   -1    0    0    0  501 -0.00000000000E+00 -0.00000000000E+00 -0.21985966298E+03  0.21985966300E+03  0.25500000000E-02 0.  1.
    8880022    1    1    2    0    0 -0.54278854560E+03  0.15072346415E+03  0.33185543722E+03  0.67145860045E+03  0.15294330000E+03 0.  0.
    8880022    1    1    2    0    0  0.54278854560E+03 -0.15072346415E+03  0.16516083205E+04  0.17517244833E+04  0.15294330000E+03 0.  0.
<mgrwt>
<rscale>  0 0.58371964E+03</rscale>
<asrwt>0</asrwt>
<pdfrwt beam="1">  1        2 0.33897283E+00 0.58371964E+03</pdfrwt>
<pdfrwt beam="2">  1       -2 0.33824564E-01 0.58371964E+03</pdfrwt>
<totfact> 0.44566198E+01</totfact>
</mgrwt>
</event>
<event>
 4    1  0.5410820E-008  0.1676432E+03  0.7818608E-02  0.1180328E+00
         -2   -1    0    0    0  501 -0.00000000000E+00  0.00000000000E+00  0.37870731489E+02  0.37870731575E+02  0.25500000000E-02 0.  1.
          2   -1    0    0  501    0  0.00000000000E+00 -0.00000000000E+00 -0.24412324399E+04  0.24412324399E+04  0.25500000000E-02 0. -1.
    8880022    1    1    2    0    0 -0.68644539497E+02 -0.71230055023E+00 -0.16755730324E+03  0.23702253702E+03  0.15294330000E+03 0.  1.
    8880022    1    1    2    0    0  0.68644539497E+02  0.71230055023E+00 -0.22358044052E+04  0.22420806345E+04  0.15294330000E+03 0.  0.
<mgrwt>
<rscale>  0 0.16764317E+03</rscale>
<asrwt>0</asrwt>
<pdfrwt beam="1">  1        2 0.37557410E+00 0.16764317E+03</pdfrwt>
<pdfrwt beam="2">  1       -2 0.58262683E-02 0.16764317E+03</pdfrwt>
<totfact> 0.68465037E+02</totfact>
</mgrwt>
</event>
<event>
 4    1  0.5410820E-008  0.5539852E+03  0.7818608E-02  0.1000576E+00
         -2   -1    0    0    0  501 -0.00000000000E+00  0.00000000000E+00  0.12092137915E+04  0.12092137915E+04  0.25500000000E-02 0.  1.
          2   -1    0    0  501    0  0.00000000000E+00 -0.00000000000E+00 -0.95157743243E+03  0.95157743243E+03  0.25500000000E-02 0. -1.
    8880022    1    1    2    0    0  0.16556479337E+03 -0.50605947561E+03 -0.79634624583E+03  0.97008602192E+03  0.15294330000E+03 0.  0.
    8880022    1    1    2    0    0 -0.16556479337E+03  0.50605947561E+03  0.10539826049E+04  0.11907052020E+04  0.15294330000E+03 0.  0.
<mgrwt>
<rscale>  0 0.55398515E+03</rscale>
<asrwt>0</asrwt>
<pdfrwt beam="1">  1        2 0.14639653E+00 0.55398515E+03</pdfrwt>
<pdfrwt beam="2">  1       -2 0.18603289E+00 0.55398515E+03</pdfrwt>
<totfact> 0.47081454E+00</totfact>
</mgrwt>
</event>
<event>
 4    1  0.5410820E-008  0.3806024E+03  0.7818608E-02  0.1050711E+00
         -2   -1    0    0    0  501 -0.00000000000E+00  0.00000000000E+00  0.54485782197E+03  0.54485782197E+03  0.25500000000E-02 0.  1.
          2   -1    0    0  501    0  0.00000000000E+00 -0.00000000000E+00 -0.44399703518E+03  0.44399703519E+03  0.25500000000E-02 0. -1.
    8880022    1    1    2    0    0 -0.24295519204E+03  0.24987852370E+03  0.36360359095E+03  0.52637033191E+03  0.15294330000E+03 0.  0.
    8880022    1    1    2    0    0  0.24295519204E+03 -0.24987852370E+03 -0.26274280416E+03  0.46248452525E+03  0.15294330000E+03 0.  0.
<mgrwt>
<rscale>  0 0.38060236E+03</rscale>
<asrwt>0</asrwt>
<pdfrwt beam="1">  1        2 0.68307236E-01 0.38060236E+03</pdfrwt>
<pdfrwt beam="2">  1       -2 0.83824280E-01 0.38060236E+03</pdfrwt>
<totfact> 0.91150402E+01</totfact>
</mgrwt>
</event>
<event>
 4    1  0.5410820E-008  0.5624302E+03  0.7818608E-02  0.9986571E-01
         -2   -1    0    0    0  501 -0.00000000000E+00  0.00000000000E+00  0.42543488263E+03  0.42543488264E+03  0.25500000000E-02 0.  1.
          2   -1    0    0  501    0  0.00000000000E+00 -0.00000000000E+00 -0.13031032496E+04  0.13031032496E+04  0.25500000000E-02 0. -1.
    8880022    1    1    2    0    0  0.34199505800E+03 -0.41949429655E+03 -0.10051833320E+04  0.11518338719E+04  0.15294330000E+03 0.  0.
    8880022    1    1    2    0    0 -0.34199505800E+03  0.41949429655E+03  0.12751496505E+03  0.57670426031E+03  0.15294330000E+03 0.  0.
<mgrwt>
<rscale>  0 0.56243021E+03</rscale>
<asrwt>0</asrwt>
<pdfrwt beam="1">  1        2 0.20047742E+00 0.56243021E+03</pdfrwt>
<pdfrwt beam="2">  1       -2 0.65451521E-01 0.56243021E+03</pdfrwt>
<totfact> 0.36933566E+01</totfact>
</mgrwt>
</event>
<event>
 4    1  0.5410820E-008  0.2178802E+03  0.7818608E-02  0.1135473E+00
         -2   -1    0    0    0  501 -0.00000000000E+00  0.00000000000E+00  0.91192950674E+02  0.91192950709E+02  0.25500000000E-02 0.  1.
          2   -1    0    0  501    0  0.00000000000E+00 -0.00000000000E+00 -0.32852662195E+04  0.32852662195E+04  0.25500000000E-02 0. -1.
    8880022    1    1    2    0    0 -0.11096873624E+03  0.10847146370E+03 -0.48325576637E+02  0.22317511786E+03  0.15294330000E+03 0.  1.
    8880022    1    1    2    0    0  0.11096873624E+03 -0.10847146370E+03 -0.31457476922E+04  0.31532840524E+04  0.15294330000E+03 0.  0.
<mgrwt>
<rscale>  0 0.21788018E+03</rscale>
<asrwt>0</asrwt>
<pdfrwt beam="1">  1        2 0.50542548E+00 0.21788018E+03</pdfrwt>
<pdfrwt beam="2">  1       -2 0.14029687E-01 0.21788018E+03</pdfrwt>
<totfact> 0.55036233E+01</totfact>
</mgrwt>
</event>
<event>
 4    1  0.5410820E-008  0.8084453E+03  0.7818608E-02  0.9547873E-01
         -2   -1    0    0    0  501 -0.00000000000E+00  0.00000000000E+00  0.46187382772E+03  0.46187382773E+03  0.25500000000E-02 0.  1.
          2   -1    0    0  501    0  0.00000000000E+00 -0.00000000000E+00 -0.33587035400E+04  0.33587035400E+04  0.25500000000E-02 0. -1.
    8880022    1    1    2    0    0  0.28891709638E+02 -0.79332053978E+03  0.47682608729E+01  0.80845939851E+03  0.15294330000E+03 0.  0.
    8880022    1    1    2    0    0 -0.28891709638E+02  0.79332053978E+03 -0.29015979732E+04  0.30121179693E+04  0.15294330000E+03 0.  0.
<mgrwt>
<rscale>  0 0.80844534E+03</rscale>
<asrwt>0</asrwt>
<pdfrwt beam="1">  1        2 0.51672360E+00 0.80844534E+03</pdfrwt>
<pdfrwt beam="2">  1       -2 0.71057514E-01 0.80844534E+03</pdfrwt>
<totfact> 0.19544929E+00</totfact>
</mgrwt>
</event>
<event>
 4    1  0.5410820E-008  0.6541757E+03  0.7818608E-02  0.9798975E-01
         -2   -1    0    0    0  501 -0.00000000000E+00  0.00000000000E+00  0.13204985523E+04  0.13204985523E+04  0.25500000000E-02 0.  1.
          2   -1    0    0  501    0  0.00000000000E+00 -0.00000000000E+00 -0.36042429730E+03  0.36042429731E+03  0.25500000000E-02 0. -1.
    8880022    1    1    2    0    0  0.53514534789E+03 -0.34376392763E+03  0.74692874894E+03  0.99289898294E+03  0.15294330000E+03 0.  0.
    8880022    1    1    2    0    0 -0.53514534789E+03  0.34376392763E+03  0.21314550602E+03  0.68802386664E+03  0.15294330000E+03 0.  0.
<mgrwt>
<rscale>  0 0.65417569E+03</rscale>
<asrwt>0</asrwt>
<pdfrwt beam="1">  1        2 0.55449892E-01 0.65417569E+03</pdfrwt>
<pdfrwt beam="2">  1       -2 0.20315362E+00 0.65417569E+03</pdfrwt>
<totfact> 0.11669512E+01</totfact>
</mgrwt>
</event>
<event>
 4    1  0.5410820E-008  0.5076245E+03  0.7818608E-02  0.1011808E+00
         -2   -1    0    0    0  501 -0.00000000000E+00  0.00000000000E+00  0.17629446938E+03  0.17629446940E+03  0.25500000000E-02 0.  1.
          2   -1    0    0  501    0  0.00000000000E+00 -0.00000000000E+00 -0.37987464681E+04  0.37987464681E+04  0.25500000000E-02 0. -1.
    8880022    1    1    2    0    0 -0.46550084411E+03  0.13266479380E+03 -0.33701638901E+04  0.34081794675E+04  0.15294330000E+03 0.  0.
    8880022    1    1    2    0    0  0.46550084411E+03 -0.13266479380E+03 -0.25228810855E+03  0.56686146995E+03  0.15294330000E+03 0.  0.
<mgrwt>
<rscale>  0 0.50762450E+03</rscale>
<asrwt>0</asrwt>
<pdfrwt beam="1">  1        2 0.58442247E+00 0.50762450E+03</pdfrwt>
<pdfrwt beam="2">  1       -2 0.27122229E-01 0.50762450E+03</pdfrwt>
<totfact> 0.70732605E+00</totfact>
</mgrwt>
</event>
<event>
 4    1  0.5410820E-008  0.4406243E+03  0.7818608E-02  0.1030555E+00
          2   -1    0    0  501    0  0.00000000000E+00  0.00000000000E+00  0.52714322977E+03  0.52714322978E+03  0.25500000000E-02 0. -1.
         -2   -1    0    0    0  501 -0.00000000000E+00 -0.00000000000E+00 -0.40657114468E+03  0.40657114468E+03  0.25500000000E-02 0.  1.
    8880022    1    1    2    0    0 -0.23264717169E+03  0.34151632031E+03 -0.82939418328E+02  0.44836224603E+03  0.15294330000E+03 0.  0.
    8880022    1    1    2    0    0  0.23264717169E+03 -0.34151632031E+03  0.20351150343E+03  0.48535212844E+03  0.15294330000E+03 0.  0.
<mgrwt>
<rscale>  0 0.44062428E+03</rscale>
<asrwt>0</asrwt>
<pdfrwt beam="1">  1        2 0.81098958E-01 0.44062428E+03</pdfrwt>
<pdfrwt beam="2">  1       -2 0.62549407E-01 0.44062428E+03</pdfrwt>
<totfact> 0.14128213E+02</totfact>
</mgrwt>
</event>
<event>
 4    1  0.5410820E-008  0.1325687E+04  0.7818608E-02  0.9009440E-01
         -2   -1    0    0    0  501 -0.00000000000E+00  0.00000000000E+00  0.11687957351E+04  0.11687957351E+04  0.25500000000E-02 0.  1.
          2   -1    0    0  501    0  0.00000000000E+00 -0.00000000000E+00 -0.17256383773E+04  0.17256383773E+04  0.25500000000E-02 0. -1.
    8880022    1    1    2    0    0  0.51171147810E+03 -0.12133447071E+04  0.24066029073E+03  0.13473540899E+04  0.15294330000E+03 0.  0.
    8880022    1    1    2    0    0 -0.51171147810E+03  0.12133447071E+04 -0.79750293297E+03  0.15470800225E+04  0.15294330000E+03 0.  0.
<mgrwt>
<rscale>  0 0.13256869E+04</rscale>
<asrwt>0</asrwt>
<pdfrwt beam="1">  1        2 0.26548283E+00 0.13256869E+04</pdfrwt>
<pdfrwt beam="2">  1       -2 0.17981473E+00 0.13256869E+04</pdfrwt>
<totfact> 0.16530344E+00</totfact>
</mgrwt>
</event>
<event>
 4    1  0.5410820E-008  0.4218379E+03  0.7818608E-02  0.1036470E+00
          2   -1    0    0  501    0  0.00000000000E+00  0.00000000000E+00  0.18018399789E+04  0.18018399789E+04  0.25500000000E-02 0. -1.
         -2   -1    0    0    0  501 -0.00000000000E+00 -0.00000000000E+00 -0.10605691439E+03  0.10605691442E+03  0.25500000000E-02 0.  1.
    8880022    1    1    2    0    0  0.38304587784E+03  0.88495136315E+02  0.10981373408E+04  0.11763727326E+04  0.15294330000E+03 0.  1.
    8880022    1    1    2    0    0 -0.38304587784E+03 -0.88495136315E+02  0.59764572377E+03  0.73152416080E+03  0.15294330000E+03 0. -1.
<mgrwt>
<rscale>  0 0.42183787E+03</rscale>
<asrwt>0</asrwt>
<pdfrwt beam="1">  1        2 0.27720614E+00 0.42183787E+03</pdfrwt>
<pdfrwt beam="2">  1       -2 0.16316449E-01 0.42183787E+03</pdfrwt>
<totfact> 0.27531672E+02</totfact>
</mgrwt>
</event>
<event>
 4    1  0.5410820E-008  0.2789196E+03  0.7818608E-02  0.1096280E+00
          2   -1    0    0  501    0  0.00000000000E+00  0.00000000000E+00  0.12995838621E+03  0.12995838623E+03  0.25500000000E-02 0. -1.
         -2   -1    0    0    0  501 -0.00000000000E+00 -0.00000000000E+00 -0.91426208776E+03  0.91426208776E+03  0.25500000000E-02 0.  1.
    8880022    1    1    2    0    0 -0.22116794953E+03 -0.74089343053E+02 -0.69892821072E+03  0.75252693601E+03  0.15294330000E+03 0.  0.
    8880022    1    1    2    0    0  0.22116794953E+03  0.74089343053E+02 -0.85375490828E+02  0.29169353799E+03  0.15294330000E+03 0.  0.
<mgrwt>
<rscale>  0 0.27891960E+03</rscale>
<asrwt>0</asrwt>
<pdfrwt beam="1">  1        2 0.19993598E-01 0.27891960E+03</pdfrwt>
<pdfrwt beam="2">  1       -2 0.14065570E+00 0.27891960E+03</pdfrwt>
<totfact> 0.10430535E+02</totfact>
</mgrwt>
</event>
<event>
 4    1  0.5410820E-008  0.1679490E+03  0.7818608E-02  0.1180004E+00
         -2   -1    0    0    0  501 -0.00000000000E+00  0.00000000000E+00  0.31980533578E+02  0.31980533679E+02  0.25500000000E-02 0.  1.
          2   -1    0    0  501    0  0.00000000000E+00 -0.00000000000E+00 -0.95193991147E+03  0.95193991147E+03  0.25500000000E-02 0. -1.
    8880022    1    1    2    0    0 -0.31395347240E+02 -0.61883262296E+02 -0.59332722950E+03  0.61663932754E+03  0.15294330000E+03 0.  0.
    8880022    1    1    2    0    0  0.31395347240E+02  0.61883262296E+02 -0.32663214839E+03  0.36728111762E+03  0.15294330000E+03 0.  0.
<mgrwt>
<rscale>  0 0.16794898E+03</rscale>
<asrwt>0</asrwt>
<pdfrwt beam="1">  1        2 0.14645227E+00 0.16794898E+03</pdfrwt>
<pdfrwt beam="2">  1       -2 0.49200828E-02 0.16794898E+03</pdfrwt>
<totfact> 0.55427980E+03</totfact>
</mgrwt>
</event>
<event>
 4    1  0.5410820E-008  0.1948920E+03  0.7818608E-02  0.1154122E+00
          2   -1    0    0  501    0  0.00000000000E+00  0.00000000000E+00  0.92508169601E+03  0.92508169602E+03  0.25500000000E-02 0. -1.
         -2   -1    0    0    0  501 -0.00000000000E+00 -0.00000000000E+00 -0.14827816221E+03  0.14827816223E+03  0.25500000000E-02 0.  1.
    8880022    1    1    2    0    0 -0.12021765261E+03 -0.11788110612E+02  0.84476750589E+03  0.86695734357E+03  0.15294330000E+03 0.  0.
    8880022    1    1    2    0    0  0.12021765261E+03  0.11788110612E+02 -0.67963972082E+02  0.20640251468E+03  0.15294330000E+03 0.  1.
<mgrwt>
<rscale>  0 0.19489201E+03</rscale>
<asrwt>0</asrwt>
<pdfrwt beam="1">  1        2 0.14232027E+00 0.19489201E+03</pdfrwt>
<pdfrwt beam="2">  1       -2 0.22812024E-01 0.19489201E+03</pdfrwt>
<totfact> 0.49523842E+02</totfact>
</mgrwt>
</event>
<event>
 4    1  0.5410820E-008  0.1598110E+03  0.7818608E-02  0.1188910E+00
         -2   -1    0    0    0  501 -0.00000000000E+00  0.00000000000E+00  0.80344537492E+03  0.80344537492E+03  0.25500000000E-02 0.  1.
          2   -1    0    0  501    0  0.00000000000E+00 -0.00000000000E+00 -0.10125666714E+04  0.10125666714E+04  0.25500000000E-02 0. -1.
    8880022    1    1    2    0    0  0.43782253867E+02 -0.15199304396E+02  0.78907919117E+03  0.80509970039E+03  0.15294330000E+03 0.  0.
    8880022    1    1    2    0    0 -0.43782253867E+02  0.15199304396E+02 -0.99820048765E+03  0.10109123459E+04  0.15294330000E+03 0. -1.
<mgrwt>
<rscale>  0 0.15981101E+03</rscale>
<asrwt>0</asrwt>
<pdfrwt beam="1">  1        2 0.15577949E+00 0.15981101E+03</pdfrwt>
<pdfrwt beam="2">  1       -2 0.12360698E+00 0.15981101E+03</pdfrwt>
<totfact> 0.14197491E+01</totfact>
</mgrwt>
</event>
<event>
 4    1  0.5410820E-008  0.8514618E+03  0.7818608E-02  0.9488377E-01
         -2   -1    0    0    0  501 -0.00000000000E+00  0.00000000000E+00  0.19919433250E+04  0.19919433250E+04  0.25500000000E-02 0.  1.
          2   -1    0    0  501    0  0.00000000000E+00 -0.00000000000E+00 -0.92727768201E+03  0.92727768202E+03  0.25500000000E-02 0. -1.
    8880022    1    1    2    0    0 -0.70404662770E+03 -0.45377731633E+03 -0.60531770256E+03  0.10446993256E+04  0.15294330000E+03 0.  0.
    8880022    1    1    2    0    0  0.70404662770E+03  0.45377731633E+03  0.16699833455E+04  0.18745216814E+04  0.15294330000E+03 0.  0.
<mgrwt>
<rscale>  0 0.85146178E+03</rscale>
<asrwt>0</asrwt>
<pdfrwt beam="1">  1        2 0.14265811E+00 0.85146178E+03</pdfrwt>
<pdfrwt beam="2">  1       -2 0.30645281E+00 0.85146178E+03</pdfrwt>
<totfact> 0.83862985E-01</totfact>
</mgrwt>
</event>
<event>
 4    1  0.7562058E-008  0.8810535E+03  0.7818608E-02  0.9449580E-01
         -2   -1    0    0    0  501 -0.00000000000E+00  0.00000000000E+00  0.84037623831E+03  0.84037623832E+03  0.25500000000E-02 0.  1.
          2   -1    0    0  501    0  0.00000000000E+00 -0.00000000000E+00 -0.19363785452E+04  0.19363785452E+04  0.25500000000E-02 0. -1.
    8880022    1    1    2    0    0  0.80436369766E+03  0.32536530377E+03 -0.15520348606E+04  0.17846757130E+04  0.15294330000E+03 0.  0.
    8880022    1    1    2    0    0 -0.80436369766E+03 -0.32536530377E+03  0.45603255375E+03  0.99207907049E+03  0.15294330000E+03 0.  0.
<mgrwt>
<rscale>  0 0.88105346E+03</rscale>
<asrwt>0</asrwt>
<pdfrwt beam="1">  1        2 0.29790439E+00 0.88105346E+03</pdfrwt>
<pdfrwt beam="2">  1       -2 0.12928865E+00 0.88105346E+03</pdfrwt>
<totfact> 0.32364393E+00</totfact>
</mgrwt>
</event>
<event>
 4    1  0.5410820E-008  0.7079841E+03  0.7818608E-02  0.9703675E-01
         -2   -1    0    0    0  501 -0.00000000000E+00  0.00000000000E+00  0.41267538155E+03  0.41267538156E+03  0.25500000000E-02 0.  1.
          2   -1    0    0  501    0  0.00000000000E+00 -0.00000000000E+00 -0.34601989295E+04  0.34601989295E+04  0.25500000000E-02 0. -1.
    8880022    1    1    2    0    0 -0.29317592184E+03  0.62601738956E+03  0.36212934329E+02  0.70890967182E+03  0.15294330000E+03 0.  0.
    8880022    1    1    2    0    0  0.29317592184E+03 -0.62601738956E+03 -0.30837364823E+04  0.31639646393E+04  0.15294330000E+03 0.  0.
<mgrwt>
<rscale>  0 0.70798414E+03</rscale>
<asrwt>0</asrwt>
<pdfrwt beam="1">  1        2 0.53233828E+00 0.70798414E+03</pdfrwt>
<pdfrwt beam="2">  1       -2 0.63488522E-01 0.70798414E+03</pdfrwt>
<totfact> 0.21809903E+00</totfact>
</mgrwt>
</event>
<event>
 4    1  0.5410820E-008  0.6280609E+03  0.7818608E-02  0.9848840E-01
         -2   -1    0    0    0  501 -0.00000000000E+00  0.00000000000E+00  0.12348284547E+04  0.12348284547E+04  0.25500000000E-02 0.  1.
          2   -1    0    0  501    0  0.00000000000E+00 -0.00000000000E+00 -0.39487881224E+03  0.39487881225E+03  0.25500000000E-02 0. -1.
    8880022    1    1    2    0    0 -0.48359637001E+03  0.37040977986E+03  0.77612159441E+03  0.99841135632E+03  0.15294330000E+03 0.  0.
    8880022    1    1    2    0    0  0.48359637001E+03 -0.37040977986E+03  0.63828048084E+02  0.63129591068E+03  0.15294330000E+03 0.  0.
<mgrwt>
<rscale>  0 0.62806091E+03</rscale>
<asrwt>0</asrwt>
<pdfrwt beam="1">  1        2 0.60750587E-01 0.62806091E+03</pdfrwt>
<pdfrwt beam="2">  1       -2 0.18997361E+00 0.62806091E+03</pdfrwt>
<totfact> 0.12888419E+01</totfact>
</mgrwt>
</event>
<event>
 4    1  0.5410820E-008  0.2074751E+03  0.7818608E-02  0.1143581E+00
          2   -1    0    0  501    0  0.00000000000E+00  0.00000000000E+00  0.49813941715E+03  0.49813941716E+03  0.25500000000E-02 0. -1.
         -2   -1    0    0    0  501 -0.00000000000E+00 -0.00000000000E+00 -0.86741727891E+02  0.86741727928E+02  0.25500000000E-02 0.  1.
    8880022    1    1    2    0    0  0.48084554287E+02 -0.13168951214E+03  0.18770606023E+03  0.27978468512E+03  0.15294330000E+03 0.  0.
    8880022    1    1    2    0    0 -0.48084554287E+02  0.13168951214E+03  0.22369162903E+03  0.30509645996E+03  0.15294330000E+03 0.  1.
<mgrwt>
<rscale>  0 0.20747507E+03</rscale>
<asrwt>0</asrwt>
<pdfrwt beam="1">  1        2 0.76636831E-01 0.20747507E+03</pdfrwt>
<pdfrwt beam="2">  1       -2 0.13344882E-01 0.20747507E+03</pdfrwt>
<totfact> 0.25716716E+03</totfact>
</mgrwt>
</event>
<event>
 4    1  0.5410820E-008  0.2618509E+03  0.7818608E-02  0.1106036E+00
          2   -1    0    0  501    0  0.00000000000E+00  0.00000000000E+00  0.10736569176E+04  0.10736569176E+04  0.25500000000E-02 0. -1.
         -2   -1    0    0    0  501 -0.00000000000E+00 -0.00000000000E+00 -0.89243378458E+02  0.89243378494E+02  0.25500000000E-02 0.  1.
    8880022    1    1    2    0    0 -0.20188113057E+03 -0.66469755871E+02  0.80229275061E+03  0.84394284761E+03  0.15294330000E+03 0.  0.
    8880022    1    1    2    0    0  0.20188113057E+03  0.66469755871E+02  0.18212078856E+03  0.31895744852E+03  0.15294330000E+03 0.  1.
<mgrwt>
<rscale>  0 0.26185086E+03</rscale>
<asrwt>0</asrwt>
<pdfrwt beam="1">  1        2 0.16517798E+00 0.26185086E+03</pdfrwt>
<pdfrwt beam="2">  1       -2 0.13729751E-01 0.26185086E+03</pdfrwt>
<totfact> 0.94136570E+02</totfact>
</mgrwt>
</event>
<event>
 4    1  0.5410820E-008  0.7732301E+03  0.7818608E-02  0.9599595E-01
         -2   -1    0    0    0  501 -0.00000000000E+00  0.00000000000E+00  0.78641996339E+03  0.78641996339E+03  0.25500000000E-02 0.  1.
          2   -1    0    0  501    0  0.00000000000E+00 -0.00000000000E+00 -0.50203821801E+04  0.50203821801E+04  0.25500000000E-02 0. -1.
    8880022    1    1    2    0    0 -0.36200173948E+02  0.75708833639E+03 -0.47915241529E+04  0.48535130125E+04  0.15294330000E+03 0.  0.
    8880022    1    1    2    0    0  0.36200173948E+02 -0.75708833639E+03  0.55756193615E+03  0.95328913103E+03  0.15294330000E+03 0.  0.
<mgrwt>
<rscale>  0 0.77323014E+03</rscale>
<asrwt>0</asrwt>
<pdfrwt beam="1">  1        2 0.77236647E+00 0.77323014E+03</pdfrwt>
<pdfrwt beam="2">  1       -2 0.12098769E+00 0.77323014E+03</pdfrwt>
<totfact> 0.19830242E-02</totfact>
</mgrwt>
</event>
<event>
 4    1  0.5410820E-008  0.3147894E+03  0.7818608E-02  0.1078073E+00
          2   -1    0    0  501    0  0.00000000000E+00  0.00000000000E+00  0.15642925383E+04  0.15642925383E+04  0.25500000000E-02 0. -1.
         -2   -1    0    0    0  501 -0.00000000000E+00 -0.00000000000E+00 -0.12056684095E+03  0.12056684098E+03  0.25500000000E-02 0.  1.
    8880022    1    1    2    0    0 -0.16382988158E+03  0.22104405135E+03  0.14150589786E+03  0.34513225709E+03  0.15294330000E+03 0.  0.
    8880022    1    1    2    0    0  0.16382988158E+03 -0.22104405135E+03  0.13022197994E+04  0.13397271222E+04  0.15294330000E+03 0. -1.
<mgrwt>
<rscale>  0 0.31478938E+03</rscale>
<asrwt>0</asrwt>
<pdfrwt beam="1">  1        2 0.24066040E+00 0.31478938E+03</pdfrwt>
<pdfrwt beam="2">  1       -2 0.18548744E-01 0.31478938E+03</pdfrwt>
<totfact> 0.30129370E+02</totfact>
</mgrwt>
</event>
<event>
 4    1  0.5410820E-008  0.3142042E+03  0.7818608E-02  0.1078348E+00
         -2   -1    0    0    0  501 -0.00000000000E+00  0.00000000000E+00  0.13485215384E+03  0.13485215386E+03  0.25500000000E-02 0.  1.
          2   -1    0    0  501    0  0.00000000000E+00 -0.00000000000E+00 -0.12878856547E+04  0.12878856547E+04  0.25500000000E-02 0. -1.
    8880022    1    1    2    0    0 -0.19494377353E+03 -0.19320857312E+03 -0.10919850896E+03  0.33263883558E+03  0.15294330000E+03 0.  1.
    8880022    1    1    2    0    0  0.19494377353E+03  0.19320857312E+03 -0.10438349919E+04  0.10900989730E+04  0.15294330000E+03 0. -1.
<mgrwt>
<rscale>  0 0.31420420E+03</rscale>
<asrwt>0</asrwt>
<pdfrwt beam="1">  1        2 0.19813625E+00 0.31420420E+03</pdfrwt>
<pdfrwt beam="2">  1       -2 0.20746486E-01 0.31420420E+03</pdfrwt>
<totfact> 0.35189514E+02</totfact>
</mgrwt>
</event>
<event>
 4    1  0.5410820E-008  0.1109820E+04  0.7818608E-02  0.9195673E-01
         -2   -1    0    0    0  501 -0.00000000000E+00  0.00000000000E+00  0.22799329248E+04  0.22799329248E+04  0.25500000000E-02 0.  1.
          2   -1    0    0  501    0  0.00000000000E+00 -0.00000000000E+00 -0.70464901397E+03  0.70464901398E+03  0.25500000000E-02 0. -1.
    8880022    1    1    2    0    0 -0.35956782484E+03 -0.10387588765E+04  0.15084769422E+04  0.18727528834E+04  0.15294330000E+03 0.  0.
    8880022    1    1    2    0    0  0.35956782484E+03  0.10387588765E+04  0.66806968548E+02  0.11118290553E+04  0.15294330000E+03 0.  0.
<mgrwt>
<rscale>  0 0.11098201E+04</rscale>
<asrwt>0</asrwt>
<pdfrwt beam="1">  1        2 0.10840754E+00 0.11098201E+04</pdfrwt>
<pdfrwt beam="2">  1       -2 0.35075891E+00 0.11098201E+04</pdfrwt>
<totfact> 0.62383020E-01</totfact>
</mgrwt>
</event>
<event>
 4    1  0.5410820E-008  0.1566550E+03  0.7818608E-02  0.1192526E+00
          2   -1    0    0  501    0  0.00000000000E+00  0.00000000000E+00  0.28774097052E+04  0.28774097052E+04  0.25500000000E-02 0. -1.
         -2   -1    0    0    0  501 -0.00000000000E+00 -0.00000000000E+00 -0.17669193215E+02  0.17669193399E+02  0.25500000000E-02 0.  1.
    8880022    1    1    2    0    0  0.58758930876E+00  0.33893962893E+02  0.24710001720E+04  0.24759609546E+04  0.15294330000E+03 0.  0.
    8880022    1    1    2    0    0 -0.58758930876E+00 -0.33893962893E+02  0.38874033998E+03  0.41911794393E+03  0.15294330000E+03 0.  1.
<mgrwt>
<rscale>  0 0.15665503E+03</rscale>
<asrwt>0</asrwt>
<pdfrwt beam="1">  1        2 0.44267807E+00 0.15665503E+03</pdfrwt>
<pdfrwt beam="2">  1       -2 0.27183396E-02 0.15665503E+03</pdfrwt>
<totfact> 0.12337522E+03</totfact>
</mgrwt>
</event>
<event>
 4    1  0.5410820E-008  0.6039846E+03  0.7818608E-02  0.9897174E-01
         -2   -1    0    0    0  501 -0.00000000000E+00  0.00000000000E+00  0.13953045535E+04  0.13953045535E+04  0.25500000000E-02 0.  1.
          2   -1    0    0  501    0  0.00000000000E+00 -0.00000000000E+00 -0.37957066380E+03  0.37957066381E+03  0.25500000000E-02 0. -1.
    8880022    1    1    2    0    0  0.45637531372E+02 -0.58251436386E+03  0.12803366553E+02  0.60412030887E+03  0.15294330000E+03 0.  0.
    8880022    1    1    2    0    0 -0.45637531372E+02  0.58251436386E+03  0.10029305231E+04  0.11707549084E+04  0.15294330000E+03 0.  0.
<mgrwt>
<rscale>  0 0.60398462E+03</rscale>
<asrwt>0</asrwt>
<pdfrwt beam="1">  1        2 0.58395486E-01 0.60398462E+03</pdfrwt>
<pdfrwt beam="2">  1       -2 0.21466224E+00 0.60398462E+03</pdfrwt>
<totfact> 0.93645348E+00</totfact>
</mgrwt>
</event>
<event>
 4    1  0.5410820E-008  0.1178936E+04  0.7818608E-02  0.9131496E-01
         -2   -1    0    0    0  501 -0.00000000000E+00  0.00000000000E+00  0.12157514437E+04  0.12157514437E+04  0.25500000000E-02 0.  1.
          2   -1    0    0  501    0  0.00000000000E+00 -0.00000000000E+00 -0.14983246861E+04  0.14983246861E+04  0.25500000000E-02 0. -1.
    8880022    1    1    2    0    0  0.29626491556E+02 -0.11685977946E+04 -0.80191586823E+03  0.14258187989E+04  0.15294330000E+03 0.  0.
    8880022    1    1    2    0    0 -0.29626491556E+02  0.11685977946E+04  0.51934262583E+03  0.12882573309E+04  0.15294330000E+03 0.  0.
<mgrwt>
<rscale>  0 0.11789360E+04</rscale>
<asrwt>0</asrwt>
<pdfrwt beam="1">  1        2 0.23051149E+00 0.11789360E+04</pdfrwt>
<pdfrwt beam="2">  1       -2 0.18703868E+00 0.11789360E+04</pdfrwt>
<totfact> 0.20076814E+00</totfact>
</mgrwt>
</event>
<event>
 4    1  0.5410820E-008  0.5432743E+03  0.7818608E-02  0.1003063E+00
         -2   -1    0    0    0  501 -0.00000000000E+00  0.00000000000E+00  0.30378125784E+03  0.30378125785E+03  0.25500000000E-02 0.  1.
          2   -1    0    0  501    0  0.00000000000E+00 -0.00000000000E+00 -0.16245394473E+04  0.16245394473E+04  0.25500000000E-02 0. -1.
    8880022    1    1    2    0    0 -0.26689575111E+03  0.44779677361E+03 -0.49116004732E+02  0.54548998831E+03  0.15294330000E+03 0.  0.
    8880022    1    1    2    0    0  0.26689575111E+03 -0.44779677361E+03 -0.12716421847E+04  0.13828307168E+04  0.15294330000E+03 0.  0.
<mgrwt>
<rscale>  0 0.54327428E+03</rscale>
<asrwt>0</asrwt>
<pdfrwt beam="1">  1        2 0.24992914E+00 0.54327428E+03</pdfrwt>
<pdfrwt beam="2">  1       -2 0.46735579E-01 0.54327428E+03</pdfrwt>
<totfact> 0.49300847E+01</totfact>
</mgrwt>
</event>
<event>
 4    1  0.5410820E-008  0.1534674E+03  0.7818608E-02  0.1196276E+00
          2   -1    0    0  501    0  0.00000000000E+00  0.00000000000E+00  0.15034658469E+04  0.15034658469E+04  0.25500000000E-02 0. -1.
         -2   -1    0    0    0  501 -0.00000000000E+00 -0.00000000000E+00 -0.80635357515E+02  0.80635357555E+02  0.25500000000E-02 0.  1.
    8880022    1    1    2    0    0  0.12635357491E+02 -0.96496600116E+00  0.45255199527E+00  0.15346804630E+03  0.15294330000E+03 0.  0.
    8880022    1    1    2    0    0 -0.12635357491E+02  0.96496600116E+00  0.14223779374E+04  0.14306331582E+04  0.15294330000E+03 0. -1.
<mgrwt>
<rscale>  0 0.15346738E+03</rscale>
<asrwt>0</asrwt>
<pdfrwt beam="1">  1        2 0.23130244E+00 0.15346738E+03</pdfrwt>
<pdfrwt beam="2">  1       -2 0.12405439E-01 0.15346738E+03</pdfrwt>
<totfact> 0.64906567E+02</totfact>
</mgrwt>
</event>
<event>
 4    1  0.1014194E-007  0.8307018E+03  0.7818608E-02  0.9516611E-01
          2   -1    0    0  501    0  0.00000000000E+00  0.00000000000E+00  0.36861377773E+04  0.36861377773E+04  0.25500000000E-02 0. -1.
         -2   -1    0    0    0  501 -0.00000000000E+00 -0.00000000000E+00 -0.15072431124E+04  0.15072431124E+04  0.25500000000E-02 0.  1.
    8880022    1    1    2    0    0  0.38266682584E+03  0.72127659356E+03  0.35195334778E+04  0.36162385677E+04  0.15294330000E+03 0.  0.
    8880022    1    1    2    0    0 -0.38266682584E+03 -0.72127659356E+03 -0.13406388130E+04  0.15771423220E+04  0.15294330000E+03 0.  0.
<mgrwt>
<rscale>  0 0.83070180E+03</rscale>
<asrwt>0</asrwt>
<pdfrwt beam="1">  1        2 0.56709812E+00 0.83070180E+03</pdfrwt>
<pdfrwt beam="2">  1       -2 0.23188356E+00 0.83070180E+03</pdfrwt>
<totfact> 0.54005987E-02</totfact>
</mgrwt>
</event>
<event>
 4    1  0.5410820E-008  0.3263082E+03  0.7818608E-02  0.1072782E+00
         -2   -1    0    0    0  501 -0.00000000000E+00  0.00000000000E+00  0.20873877689E+03  0.20873877691E+03  0.25500000000E-02 0.  1.
          2   -1    0    0  501    0  0.00000000000E+00 -0.00000000000E+00 -0.31225734657E+04  0.31225734657E+04  0.25500000000E-02 0. -1.
    8880022    1    1    2    0    0 -0.14032567501E+03 -0.25178185246E+03  0.66627339071E+02  0.33304091584E+03  0.15294330000E+03 0.  0.
    8880022    1    1    2    0    0  0.14032567501E+03  0.25178185246E+03 -0.29804620279E+04  0.29982713268E+04  0.15294330000E+03 0. -1.
<mgrwt>
<rscale>  0 0.32630821E+03</rscale>
<asrwt>0</asrwt>
<pdfrwt beam="1">  1        2 0.48039588E+00 0.32630821E+03</pdfrwt>
<pdfrwt beam="2">  1       -2 0.32113660E-01 0.32630821E+03</pdfrwt>
<totfact> 0.15646984E+01</totfact>
</mgrwt>
</event>
<event>
 4    1  0.5410820E-008  0.2033376E+03  0.7818608E-02  0.1146953E+00
          2   -1    0    0  501    0  0.00000000000E+00  0.00000000000E+00  0.14725418718E+04  0.14725418718E+04  0.25500000000E-02 0. -1.
         -2   -1    0    0    0  501 -0.00000000000E+00 -0.00000000000E+00 -0.70279796539E+02  0.70279796586E+02  0.25500000000E-02 0.  1.
    8880022    1    1    2    0    0 -0.99814655019E+02 -0.89395623390E+02  0.10335929872E+03  0.22809940921E+03  0.15294330000E+03 0.  0.
    8880022    1    1    2    0    0  0.99814655019E+02  0.89395623390E+02  0.12989027766E+04  0.13147222592E+04  0.15294330000E+03 0.  0.
<mgrwt>
<rscale>  0 0.20333764E+03</rscale>
<asrwt>0</asrwt>
<pdfrwt beam="1">  1        2 0.22654488E+00 0.20333764E+03</pdfrwt>
<pdfrwt beam="2">  1       -2 0.10812277E-01 0.20333764E+03</pdfrwt>
<totfact> 0.83396488E+02</totfact>
</mgrwt>
</event>
<event>
 4    1  0.5410820E-008  0.7877281E+03  0.7818608E-02  0.9577952E-01
         -2   -1    0    0    0  501 -0.00000000000E+00  0.00000000000E+00  0.31846595851E+03  0.31846595852E+03  0.25500000000E-02 0.  1.
          2   -1    0    0  501    0  0.00000000000E+00 -0.00000000000E+00 -0.24052272939E+04  0.24052272939E+04  0.25500000000E-02 0. -1.
    8880022    1    1    2    0    0 -0.29664620149E+03 -0.71352993014E+03 -0.16368544201E+04  0.18165373587E+04  0.15294330000E+03 0.  0.
    8880022    1    1    2    0    0  0.29664620149E+03  0.71352993014E+03 -0.44990691535E+03  0.90715589375E+03  0.15294330000E+03 0.  0.
<mgrwt>
<rscale>  0 0.78772811E+03</rscale>
<asrwt>0</asrwt>
<pdfrwt beam="1">  1        2 0.37003496E+00 0.78772811E+03</pdfrwt>
<pdfrwt beam="2">  1       -2 0.48994764E-01 0.78772811E+03</pdfrwt>
<totfact> 0.16171445E+01</totfact>
</mgrwt>
</event>
<event>
 4    1  0.5410820E-008  0.6761053E+03  0.7818608E-02  0.9758991E-01
         -2   -1    0    0    0  501 -0.00000000000E+00  0.00000000000E+00  0.83312729765E+03  0.83312729765E+03  0.25500000000E-02 0.  1.
          2   -1    0    0  501    0  0.00000000000E+00 -0.00000000000E+00 -0.16532253298E+04  0.16532253298E+04  0.25500000000E-02 0. -1.
    8880022    1    1    2    0    0  0.42056927451E+03 -0.50680198720E+03 -0.14262015705E+04  0.15783438604E+04  0.15294330000E+03 0.  0.
    8880022    1    1    2    0    0 -0.42056927451E+03  0.50680198720E+03  0.60610353834E+03  0.90800876708E+03  0.15294330000E+03 0.  0.
<mgrwt>
<rscale>  0 0.67610533E+03</rscale>
<asrwt>0</asrwt>
<pdfrwt beam="1">  1        2 0.25434236E+00 0.67610533E+03</pdfrwt>
<pdfrwt beam="2">  1       -2 0.12817343E+00 0.67610533E+03</pdfrwt>
<totfact> 0.48803709E+00</totfact>
</mgrwt>
</event>
<event>
 4    1  0.5410820E-008  0.4485662E+03  0.7818608E-02  0.1028150E+00
         -2   -1    0    0    0  501 -0.00000000000E+00  0.00000000000E+00  0.18600771613E+03  0.18600771615E+03  0.25500000000E-02 0.  1.
          2   -1    0    0  501    0  0.00000000000E+00 -0.00000000000E+00 -0.11464737741E+04  0.11464737741E+04  0.25500000000E-02 0. -1.
    8880022    1    1    2    0    0  0.15633810890E+03 -0.39163556718E+03 -0.32191870216E+03  0.55212618629E+03  0.15294330000E+03 0.  0.
    8880022    1    1    2    0    0 -0.15633810890E+03  0.39163556718E+03 -0.63854735579E+03  0.78035530394E+03  0.15294330000E+03 0.  0.
<mgrwt>
<rscale>  0 0.44856624E+03</rscale>
<asrwt>0</asrwt>
<pdfrwt beam="1">  1        2 0.17638058E+00 0.44856624E+03</pdfrwt>
<pdfrwt beam="2">  1       -2 0.28616572E-01 0.44856624E+03</pdfrwt>
<totfact> 0.23608165E+02</totfact>
</mgrwt>
</event>
<event>
 4    1  0.5410820E-008  0.3601605E+03  0.7818608E-02  0.1058520E+00
         -2   -1    0    0    0  501 -0.00000000000E+00  0.00000000000E+00  0.36463741668E+03  0.36463741669E+03  0.25500000000E-02 0.  1.
          2   -1    0    0  501    0  0.00000000000E+00 -0.00000000000E+00 -0.23313600632E+04  0.23313600632E+04  0.25500000000E-02 0. -1.
    8880022    1    1    2    0    0 -0.22457686254E+03 -0.23640889691E+03 -0.22242610331E+04  0.22532316193E+04  0.15294330000E+03 0.  0.
    8880022    1    1    2    0    0  0.22457686254E+03  0.23640889691E+03  0.25753838660E+03  0.44276586060E+03  0.15294330000E+03 0.  1.
<mgrwt>
<rscale>  0 0.36016050E+03</rscale>
<asrwt>0</asrwt>
<pdfrwt beam="1">  1        2 0.35867077E+00 0.36016050E+03</pdfrwt>
<pdfrwt beam="2">  1       -2 0.56098065E-01 0.36016050E+03</pdfrwt>
<totfact> 0.14775526E+01</totfact>
</mgrwt>
</event>
<event>
 4    1  0.6023931E-008  0.5120294E+03  0.7818608E-02  0.1010686E+00
          2   -1    0    0  501    0  0.00000000000E+00  0.00000000000E+00  0.25564265525E+04  0.25564265525E+04  0.25500000000E-02 0. -1.
         -2   -1    0    0    0  501 -0.00000000000E+00 -0.00000000000E+00 -0.54826474570E+03  0.54826474571E+03  0.25500000000E-02 0.  1.
    8880022    1    1    2    0    0  0.40736417167E+03  0.26988317064E+03 -0.39556883511E+03  0.64703079562E+03  0.15294330000E+03 0.  0.
    8880022    1    1    2    0    0 -0.40736417167E+03 -0.26988317064E+03  0.24037306419E+04  0.24576605026E+04  0.15294330000E+03 0.  0.
<mgrwt>
<rscale>  0 0.51202944E+03</rscale>
<asrwt>0</asrwt>
<pdfrwt beam="1">  1        2 0.39329639E+00 0.51202944E+03</pdfrwt>
<pdfrwt beam="2">  1       -2 0.84348423E-01 0.51202944E+03</pdfrwt>
<totfact> 0.43913100E+00</totfact>
</mgrwt>
</event>
<event>
 4    1  0.5410820E-008  0.4054873E+03  0.7818608E-02  0.1041896E+00
         -2   -1    0    0    0  501 -0.00000000000E+00  0.00000000000E+00  0.10859214407E+03  0.10859214410E+03  0.25500000000E-02 0.  1.
          2   -1    0    0  501    0  0.00000000000E+00 -0.00000000000E+00 -0.20637799304E+04  0.20637799304E+04  0.25500000000E-02 0. -1.
    8880022    1    1    2    0    0 -0.27765869828E+03 -0.25285162284E+03 -0.15381580702E+04  0.15907074520E+04  0.15294330000E+03 0.  1.
    8880022    1    1    2    0    0  0.27765869828E+03  0.25285162284E+03 -0.41702971608E+03  0.58166462245E+03  0.15294330000E+03 0.  0.
<mgrwt>
<rscale>  0 0.40548730E+03</rscale>
<asrwt>0</asrwt>
<pdfrwt beam="1">  1        2 0.31750458E+00 0.40548730E+03</pdfrwt>
<pdfrwt beam="2">  1       -2 0.16706485E-01 0.40548730E+03</pdfrwt>
<totfact> 0.19212354E+02</totfact>
</mgrwt>
</event>
<event>
 4    1  0.5410820E-008  0.4413422E+03  0.7818608E-02  0.1030336E+00
          2   -1    0    0  501    0  0.00000000000E+00  0.00000000000E+00  0.52355279723E+03  0.52355279724E+03  0.25500000000E-02 0. -1.
         -2   -1    0    0    0  501 -0.00000000000E+00 -0.00000000000E+00 -0.12647204495E+04  0.12647204495E+04  0.25500000000E-02 0.  1.
    8880022    1    1    2    0    0  0.28460686956E+03 -0.30064968840E+03 -0.11217818737E+04  0.12054781336E+04  0.15294330000E+03 0.  0.
    8880022    1    1    2    0    0 -0.28460686956E+03  0.30064968840E+03  0.38061422145E+03  0.58279511316E+03  0.15294330000E+03 0.  0.
<mgrwt>
<rscale>  0 0.44134222E+03</rscale>
<asrwt>0</asrwt>
<pdfrwt beam="1">  1        2 0.80546584E-01 0.44134222E+03</pdfrwt>
<pdfrwt beam="2">  1       -2 0.19457238E+00 0.44134222E+03</pdfrwt>
<totfact> 0.89735015E+00</totfact>
</mgrwt>
</event>
<event>
 4    1  0.5410820E-008  0.6856061E+03  0.7818608E-02  0.9742169E-01
         -2   -1    0    0    0  501 -0.00000000000E+00  0.00000000000E+00  0.94588073837E+03  0.94588073837E+03  0.25500000000E-02 0.  1.
          2   -1    0    0  501    0  0.00000000000E+00 -0.00000000000E+00 -0.75160098118E+03  0.75160098118E+03  0.25500000000E-02 0. -1.
    8880022    1    1    2    0    0  0.60186199046E+03 -0.29056186698E+03  0.59117050266E+03  0.90528353036E+03  0.15294330000E+03 0.  0.
    8880022    1    1    2    0    0 -0.60186199046E+03  0.29056186698E+03 -0.39689074547E+03  0.79219818920E+03  0.15294330000E+03 0.  0.
<mgrwt>
<rscale>  0 0.68560609E+03</rscale>
<asrwt>0</asrwt>
<pdfrwt beam="1">  1        2 0.11563092E+00 0.68560609E+03</pdfrwt>
<pdfrwt beam="2">  1       -2 0.14552011E+00 0.68560609E+03</pdfrwt>
<totfact> 0.12415009E+01</totfact>
</mgrwt>
</event>
<event>
 4    1  0.5410820E-008  0.4633733E+03  0.7818608E-02  0.1023807E+00
         -2   -1    0    0    0  501 -0.00000000000E+00  0.00000000000E+00  0.17570736406E+03  0.17570736408E+03  0.25500000000E-02 0.  1.
          2   -1    0    0  501    0  0.00000000000E+00 -0.00000000000E+00 -0.13523728793E+04  0.13523728793E+04  0.25500000000E-02 0. -1.
    8880022    1    1    2    0    0 -0.33716466679E+03 -0.27864527513E+03 -0.82555600378E+03  0.94670880965E+03  0.15294330000E+03 0.  0.
    8880022    1    1    2    0    0  0.33716466679E+03  0.27864527513E+03 -0.35110951143E+03  0.58137143369E+03  0.15294330000E+03 0.  0.
<mgrwt>
<rscale>  0 0.46337334E+03</rscale>
<asrwt>0</asrwt>
<pdfrwt beam="1">  1        2 0.20805736E+00 0.46337334E+03</pdfrwt>
<pdfrwt beam="2">  1       -2 0.27031903E-01 0.46337334E+03</pdfrwt>
<totfact> 0.19912139E+02</totfact>
</mgrwt>
</event>
<event>
 4    1  0.5410820E-008  0.3282190E+03  0.7818608E-02  0.1071928E+00
         -2   -1    0    0    0  501 -0.00000000000E+00  0.00000000000E+00  0.12702351498E+03  0.12702351501E+03  0.25500000000E-02 0.  1.
          2   -1    0    0  501    0  0.00000000000E+00 -0.00000000000E+00 -0.24150444650E+04  0.24150444650E+04  0.25500000000E-02 0. -1.
    8880022    1    1    2    0    0 -0.11402641745E+03  0.26708429984E+03 -0.12019325450E+03  0.34953414502E+03  0.15294330000E+03 0.  0.
    8880022    1    1    2    0    0  0.11402641745E+03 -0.26708429984E+03 -0.21678276955E+04  0.21925338350E+04  0.15294330000E+03 0.  0.
<mgrwt>
<rscale>  0 0.32821898E+03</rscale>
<asrwt>0</asrwt>
<pdfrwt beam="1">  1        2 0.37154527E+00 0.32821898E+03</pdfrwt>
<pdfrwt beam="2">  1       -2 0.19542081E-01 0.32821898E+03</pdfrwt>
<totfact> 0.96616256E+01</totfact>
</mgrwt>
</event>
<event>
 4    1  0.5410820E-008  0.4955743E+03  0.7818608E-02  0.1014941E+00
         -2   -1    0    0    0  501 -0.00000000000E+00  0.00000000000E+00  0.47383815577E+03  0.47383815578E+03  0.25500000000E-02 0.  1.
          2   -1    0    0  501    0  0.00000000000E+00 -0.00000000000E+00 -0.91025302790E+03  0.91025302790E+03  0.25500000000E-02 0. -1.
    8880022    1    1    2    0    0  0.10728512253E+03 -0.45901212209E+03 -0.67232310475E+03  0.83523184562E+03  0.15294330000E+03 0.  0.
    8880022    1    1    2    0    0 -0.10728512253E+03  0.45901212209E+03  0.23590823262E+03  0.54885933806E+03  0.15294330000E+03 0.  0.
<mgrwt>
<rscale>  0 0.49557429E+03</rscale>
<asrwt>0</asrwt>
<pdfrwt beam="1">  1        2 0.14003893E+00 0.49557429E+03</pdfrwt>
<pdfrwt beam="2">  1       -2 0.72898178E-01 0.49557429E+03</pdfrwt>
<totfact> 0.51094738E+01</totfact>
</mgrwt>
</event>
<event>
 4    1  0.5410820E-008  0.5617183E+03  0.7818608E-02  0.9988174E-01
          2   -1    0    0  501    0  0.00000000000E+00  0.00000000000E+00  0.29305627259E+03  0.29305627260E+03  0.25500000000E-02 0. -1.
         -2   -1    0    0    0  501 -0.00000000000E+00 -0.00000000000E+00 -0.20049484687E+04  0.20049484687E+04  0.25500000000E-02 0.  1.
    8880022    1    1    2    0    0  0.48339886999E+03  0.24178786235E+03 -0.16377653947E+04  0.17314164661E+04  0.15294330000E+03 0.  0.
    8880022    1    1    2    0    0 -0.48339886999E+03 -0.24178786235E+03 -0.74126801363E+02  0.56658827519E+03  0.15294330000E+03 0.  0.
<mgrwt>
<rscale>  0 0.56171834E+03</rscale>
<asrwt>0</asrwt>
<pdfrwt beam="1">  1        2 0.45085582E-01 0.56171834E+03</pdfrwt>
<pdfrwt beam="2">  1       -2 0.30845360E+00 0.56171834E+03</pdfrwt>
<totfact> 0.34133465E+00</totfact>
</mgrwt>
</event>
<event>
 4    1  0.5410820E-008  0.1100883E+04  0.7818608E-02  0.9204332E-01
          2   -1    0    0  501    0  0.00000000000E+00  0.00000000000E+00  0.32933195170E+04  0.32933195170E+04  0.25500000000E-02 0. -1.
         -2   -1    0    0    0  501 -0.00000000000E+00 -0.00000000000E+00 -0.78172653591E+03  0.78172653591E+03  0.25500000000E-02 0.  1.
    8880022    1    1    2    0    0  0.86385779250E+03 -0.66505665911E+03  0.27380813499E+04  0.29511068732E+04  0.15294330000E+03 0.  0.
    8880022    1    1    2    0    0 -0.86385779250E+03  0.66505665911E+03 -0.22648836879E+03  0.11239391797E+04  0.15294330000E+03 0.  0.
<mgrwt>
<rscale>  0 0.11008825E+04</rscale>
<asrwt>0</asrwt>
<pdfrwt beam="1">  1        2 0.50666455E+00 0.11008825E+04</pdfrwt>
<pdfrwt beam="2">  1       -2 0.12026562E+00 0.11008825E+04</pdfrwt>
<totfact> 0.59934267E-01</totfact>
</mgrwt>
</event>
<event>
 4    1  0.5410820E-008  0.5934476E+03  0.7818608E-02  0.9919094E-01
          2   -1    0    0  501    0  0.00000000000E+00  0.00000000000E+00  0.24894803721E+04  0.24894803721E+04  0.25500000000E-02 0. -1.
         -2   -1    0    0    0  501 -0.00000000000E+00 -0.00000000000E+00 -0.27280346228E+03  0.27280346229E+03  0.25500000000E-02 0.  1.
    8880022    1    1    2    0    0 -0.55644323942E+03 -0.13841721773E+03  0.20666473823E+04  0.21501654496E+04  0.15294330000E+03 0.  0.
    8880022    1    1    2    0    0  0.55644323942E+03  0.13841721773E+03  0.15002952752E+03  0.61211838480E+03  0.15294330000E+03 0.  1.
<mgrwt>
<rscale>  0 0.59344760E+03</rscale>
<asrwt>0</asrwt>
<pdfrwt beam="1">  1        2 0.38299699E+00 0.59344760E+03</pdfrwt>
<pdfrwt beam="2">  1       -2 0.41969763E-01 0.59344760E+03</pdfrwt>
<totfact> 0.20399333E+01</totfact>
</mgrwt>
</event>
<event>
 4    1  0.5410820E-008  0.9500677E+03  0.7818608E-02  0.9365071E-01
          2   -1    0    0  501    0  0.00000000000E+00  0.00000000000E+00  0.18298313239E+04  0.18298313239E+04  0.25500000000E-02 0. -1.
         -2   -1    0    0    0  501 -0.00000000000E+00 -0.00000000000E+00 -0.11112664961E+04  0.11112664961E+04  0.25500000000E-02 0.  1.
    8880022    1    1    2    0    0  0.49213143089E+03  0.79815014904E+03  0.14559071518E+04  0.17384747031E+04  0.15294330000E+03 0.  0.
    8880022    1    1    2    0    0 -0.49213143089E+03 -0.79815014904E+03 -0.73734232389E+03  0.12026231169E+04  0.15294330000E+03 0.  0.
<mgrwt>
<rscale>  0 0.95006771E+03</rscale>
<asrwt>0</asrwt>
<pdfrwt beam="1">  1        2 0.28151251E+00 0.95006771E+03</pdfrwt>
<pdfrwt beam="2">  1       -2 0.17096408E+00 0.95006771E+03</pdfrwt>
<totfact> 0.17470015E+00</totfact>
</mgrwt>
</event>
<event>
 4    1  0.5410820E-008  0.7280492E+03  0.7818608E-02  0.9670431E-01
         -2   -1    0    0    0  501 -0.00000000000E+00  0.00000000000E+00  0.50590470818E+03  0.50590470819E+03  0.25500000000E-02 0.  1.
          2   -1    0    0  501    0  0.00000000000E+00 -0.00000000000E+00 -0.16443869990E+04  0.16443869990E+04  0.25500000000E-02 0. -1.
    8880022    1    1    2    0    0 -0.63513783793E+03 -0.32134711150E+03 -0.12168678519E+04  0.14180349295E+04  0.15294330000E+03 0.  0.
    8880022    1    1    2    0    0  0.63513783793E+03  0.32134711150E+03  0.78385561128E+02  0.73225677767E+03  0.15294330000E+03 0.  1.
<mgrwt>
<rscale>  0 0.72804924E+03</rscale>
<asrwt>0</asrwt>
<pdfrwt beam="1">  1        2 0.25298261E+00 0.72804924E+03</pdfrwt>
<pdfrwt beam="2">  1       -2 0.77831494E-01 0.72804924E+03</pdfrwt>
<totfact> 0.15949590E+01</totfact>
</mgrwt>
</event>
<event>
 4    1  0.5410820E-008  0.1358028E+04  0.7818608E-02  0.8984773E-01
         -2   -1    0    0    0  501 -0.00000000000E+00  0.00000000000E+00  0.82733799550E+03  0.82733799551E+03  0.25500000000E-02 0.  1.
          2   -1    0    0  501    0  0.00000000000E+00 -0.00000000000E+00 -0.26188742082E+04  0.26188742082E+04  0.25500000000E-02 0. -1.
    8880022    1    1    2    0    0  0.75100274527E+03 -0.11210903018E+04 -0.15605007872E+04  0.20686717836E+04  0.15294330000E+03 0.  0.
    8880022    1    1    2    0    0 -0.75100274527E+03  0.11210903018E+04 -0.23103542549E+03  0.13775404201E+04  0.15294330000E+03 0.  0.
<mgrwt>
<rscale>  0 0.13580281E+04</rscale>
<asrwt>0</asrwt>
<pdfrwt beam="1">  1        2 0.40290372E+00 0.13580281E+04</pdfrwt>
<pdfrwt beam="2">  1       -2 0.12728277E+00 0.13580281E+04</pdfrwt>
<totfact> 0.13090097E+00</totfact>
</mgrwt>
</event>
<event>
 4    1  0.5410820E-008  0.5019078E+03  0.7818608E-02  0.1013282E+00
         -2   -1    0    0    0  501 -0.00000000000E+00  0.00000000000E+00  0.11166642002E+04  0.11166642002E+04  0.25500000000E-02 0.  1.
          2   -1    0    0  501    0  0.00000000000E+00 -0.00000000000E+00 -0.64466848135E+03  0.64466848135E+03  0.25500000000E-02 0. -1.
    8880022    1    1    2    0    0 -0.45842146280E+03  0.13553435558E+03  0.94604860286E+03  0.10709432343E+04  0.15294330000E+03 0.  0.
    8880022    1    1    2    0    0  0.45842146280E+03 -0.13553435558E+03 -0.47405288398E+03  0.69038944729E+03  0.15294330000E+03 0. -1.
<mgrwt>
<rscale>  0 0.50190781E+03</rscale>
<asrwt>0</asrwt>
<pdfrwt beam="1">  1        2 0.99179766E-01 0.50190781E+03</pdfrwt>
<pdfrwt beam="2">  1       -2 0.17179449E+00 0.50190781E+03</pdfrwt>
<totfact> 0.98818526E+00</totfact>
</mgrwt>
</event>
<event>
 4    1  0.5410820E-008  0.2560379E+03  0.7818608E-02  0.1109547E+00
         -2   -1    0    0    0  501 -0.00000000000E+00  0.00000000000E+00  0.40073258525E+03  0.40073258526E+03  0.25500000000E-02 0.  1.
          2   -1    0    0  501    0  0.00000000000E+00 -0.00000000000E+00 -0.94029294998E+03  0.94029294998E+03  0.25500000000E-02 0. -1.
    8880022    1    1    2    0    0  0.64596218704E+02  0.19491297389E+03  0.33962094659E+03  0.42532079569E+03  0.15294330000E+03 0.  1.
    8880022    1    1    2    0    0 -0.64596218704E+02 -0.19491297389E+03 -0.87918131132E+03  0.91570473956E+03  0.15294330000E+03 0.  0.
<mgrwt>
<rscale>  0 0.25603787E+03</rscale>
<asrwt>0</asrwt>
<pdfrwt beam="1">  1        2 0.14466045E+00 0.25603787E+03</pdfrwt>
<pdfrwt beam="2">  1       -2 0.61651167E-01 0.25603787E+03</pdfrwt>
<totfact> 0.72742079E+01</totfact>
</mgrwt>
</event>
<event>
 4    1  0.5410820E-008  0.4147389E+03  0.7818608E-02  0.1038792E+00
         -2   -1    0    0    0  501 -0.00000000000E+00  0.00000000000E+00  0.50624407343E+02  0.50624407407E+02  0.25500000000E-02 0.  1.
          2   -1    0    0  501    0  0.00000000000E+00 -0.00000000000E+00 -0.36380209725E+04  0.36380209725E+04  0.25500000000E-02 0. -1.
    8880022    1    1    2    0    0  0.73158121255E+02  0.37850312302E+03 -0.13197101148E+04  0.13833449190E+04  0.15294330000E+03 0.  0.
    8880022    1    1    2    0    0 -0.73158121255E+02 -0.37850312302E+03 -0.22676864503E+04  0.23053004609E+04  0.15294330000E+03 0.  0.
<mgrwt>
<rscale>  0 0.41473893E+03</rscale>
<asrwt>0</asrwt>
<pdfrwt beam="1">  1        2 0.55969533E+00 0.41473893E+03</pdfrwt>
<pdfrwt beam="2">  1       -2 0.77883732E-02 0.41473893E+03</pdfrwt>
<totfact> 0.77006648E+01</totfact>
</mgrwt>
</event>
<event>
 4    1  0.5410820E-008  0.2100658E+03  0.7818608E-02  0.1141514E+00
          2   -1    0    0  501    0  0.00000000000E+00  0.00000000000E+00  0.11093153194E+04  0.11093153194E+04  0.25500000000E-02 0. -1.
         -2   -1    0    0    0  501 -0.00000000000E+00 -0.00000000000E+00 -0.33403602326E+03  0.33403602327E+03  0.25500000000E-02 0.  1.
    8880022    1    1    2    0    0 -0.46052527911E+02 -0.13643733665E+03 -0.28970345138E+03  0.35784874586E+03  0.15294330000E+03 0.  0.
    8880022    1    1    2    0    0  0.46052527911E+02  0.13643733665E+03  0.10649827475E+04  0.10855025968E+04  0.15294330000E+03 0. -1.
<mgrwt>
<rscale>  0 0.21006579E+03</rscale>
<asrwt>0</asrwt>
<pdfrwt beam="1">  1        2 0.17066389E+00 0.21006579E+03</pdfrwt>
<pdfrwt beam="2">  1       -2 0.51390158E-01 0.21006579E+03</pdfrwt>
<totfact> 0.84398761E+01</totfact>
</mgrwt>
</event>
<event>
 4    1  0.5410820E-008  0.4669147E+03  0.7818608E-02  0.1022795E+00
          2   -1    0    0  501    0  0.00000000000E+00  0.00000000000E+00  0.14133464470E+04  0.14133464470E+04  0.25500000000E-02 0. -1.
         -2   -1    0    0    0  501 -0.00000000000E+00 -0.00000000000E+00 -0.38406701516E+03  0.38406701517E+03  0.25500000000E-02 0.  1.
    8880022    1    1    2    0    0  0.43580365955E+03 -0.68504211599E+02  0.12098323543E+04  0.12968051647E+04  0.15294330000E+03 0. -1.
    8880022    1    1    2    0    0 -0.43580365955E+03  0.68504211599E+02 -0.18055292245E+03  0.50060829748E+03  0.15294330000E+03 0.  0.
<mgrwt>
<rscale>  0 0.46691467E+03</rscale>
<asrwt>0</asrwt>
<pdfrwt beam="1">  1        2 0.21743792E+00 0.46691467E+03</pdfrwt>
<pdfrwt beam="2">  1       -2 0.59087232E-01 0.46691467E+03</pdfrwt>
<totfact> 0.40352924E+01</totfact>
</mgrwt>
</event>
<event>
 4    1  0.5410820E-008  0.2378148E+03  0.7818608E-02  0.1121257E+00
          2   -1    0    0  501    0  0.00000000000E+00  0.00000000000E+00  0.18190072838E+04  0.18190072838E+04  0.25500000000E-02 0. -1.
         -2   -1    0    0    0  501 -0.00000000000E+00 -0.00000000000E+00 -0.65169078002E+02  0.65169078052E+02  0.25500000000E-02 0.  1.
    8880022    1    1    2    0    0  0.17284133411E+03 -0.57359186757E+02  0.15581658754E+04  0.15762096153E+04  0.15294330000E+03 0. -1.
    8880022    1    1    2    0    0 -0.17284133411E+03  0.57359186757E+02  0.19567233039E+03  0.30796674655E+03  0.15294330000E+03 0.  0.
<mgrwt>
<rscale>  0 0.23781475E+03</rscale>
<asrwt>0</asrwt>
<pdfrwt beam="1">  1        2 0.27984726E+00 0.23781475E+03</pdfrwt>
<pdfrwt beam="2">  1       -2 0.10026013E-01 0.23781475E+03</pdfrwt>
<totfact> 0.61552468E+02</totfact>
</mgrwt>
</event>
<event>
 4    1  0.5410820E-008  0.1298021E+04  0.7818608E-02  0.9031136E-01
         -2   -1    0    0    0  501 -0.00000000000E+00  0.00000000000E+00  0.18507729858E+04  0.18507729858E+04  0.25500000000E-02 0.  1.
          2   -1    0    0  501    0  0.00000000000E+00 -0.00000000000E+00 -0.20136462820E+04  0.20136462820E+04  0.25500000000E-02 0. -1.
    8880022    1    1    2    0    0  0.10723765285E+04 -0.71517450752E+03  0.13488004578E+04  0.18719295722E+04  0.15294330000E+03 0.  0.
    8880022    1    1    2    0    0 -0.10723765285E+04  0.71517450752E+03 -0.15116737540E+04  0.19924896955E+04  0.15294330000E+03 0.  0.
<mgrwt>
<rscale>  0 0.12980207E+04</rscale>
<asrwt>0</asrwt>
<pdfrwt beam="1">  1        2 0.30979173E+00 0.12980207E+04</pdfrwt>
<pdfrwt beam="2">  1       -2 0.28473431E+00 0.12980207E+04</pdfrwt>
<totfact> 0.24886937E-01</totfact>
</mgrwt>
</event>
<event>
 4    1  0.5410820E-008  0.9130266E+03  0.7818608E-02  0.9409443E-01
          2   -1    0    0  501    0  0.00000000000E+00  0.00000000000E+00  0.57486326708E+03  0.57486326709E+03  0.25500000000E-02 0. -1.
         -2   -1    0    0    0  501 -0.00000000000E+00 -0.00000000000E+00 -0.16354485673E+04  0.16354485673E+04  0.25500000000E-02 0.  1.
    8880022    1    1    2    0    0 -0.68594759140E+03  0.58283939100E+03 -0.15825846915E+03  0.92664084193E+03  0.15294330000E+03 0.  0.
    8880022    1    1    2    0    0  0.68594759140E+03 -0.58283939100E+03 -0.90232683111E+03  0.12836709925E+04  0.15294330000E+03 0.  0.
<mgrwt>
<rscale>  0 0.91302656E+03</rscale>
<asrwt>0</asrwt>
<pdfrwt beam="1">  1        2 0.88440503E-01 0.91302656E+03</pdfrwt>
<pdfrwt beam="2">  1       -2 0.25160747E+00 0.91302656E+03</pdfrwt>
<totfact> 0.33099262E+00</totfact>
</mgrwt>
</event>
<event>
 4    1  0.5410820E-008  0.2595043E+03  0.7818608E-02  0.1107441E+00
          2   -1    0    0  501    0  0.00000000000E+00  0.00000000000E+00  0.49362734924E+03  0.49362734925E+03  0.25500000000E-02 0. -1.
         -2   -1    0    0    0  501 -0.00000000000E+00 -0.00000000000E+00 -0.20141359718E+04  0.20141359718E+04  0.25500000000E-02 0.  1.
    8880022    1    1    2    0    0 -0.11366878958E+03  0.17615402101E+03  0.45041818370E+03  0.51982595748E+03  0.15294330000E+03 0.  0.
    8880022    1    1    2    0    0  0.11366878958E+03 -0.17615402101E+03 -0.19709268062E+04  0.19879373635E+04  0.15294330000E+03 0.  1.
<mgrwt>
<rscale>  0 0.25950431E+03</rscale>
<asrwt>0</asrwt>
<pdfrwt beam="1">  1        2 0.75942670E-01 0.25950431E+03</pdfrwt>
<pdfrwt beam="2">  1       -2 0.30986707E+00 0.25950431E+03</pdfrwt>
<totfact> 0.20571286E+00</totfact>
</mgrwt>
</event>
<event>
 4    1  0.5410820E-008  0.2081822E+03  0.7818608E-02  0.1143014E+00
         -2   -1    0    0    0  501 -0.00000000000E+00  0.00000000000E+00  0.99336492182E+03  0.99336492183E+03  0.25500000000E-02 0.  1.
          2   -1    0    0  501    0  0.00000000000E+00 -0.00000000000E+00 -0.69606852757E+03  0.69606852758E+03  0.25500000000E-02 0. -1.
    8880022    1    1    2    0    0  0.59033341280E+02  0.12830908436E+03  0.96646330409E+03  0.98863093603E+03  0.15294330000E+03 0.  0.
    8880022    1    1    2    0    0 -0.59033341280E+02 -0.12830908436E+03 -0.66916690984E+03  0.70080251337E+03  0.15294330000E+03 0. -1.
<mgrwt>
<rscale>  0 0.20818215E+03</rscale>
<asrwt>0</asrwt>
<pdfrwt beam="1">  1        2 0.10708747E+00 0.20818215E+03</pdfrwt>
<pdfrwt beam="2">  1       -2 0.15282537E+00 0.20818215E+03</pdfrwt>
<totfact> 0.13227995E+01</totfact>
</mgrwt>
</event>
<event>
 4    1  0.5410820E-008  0.6007530E+03  0.7818608E-02  0.9903845E-01
         -2   -1    0    0    0  501 -0.00000000000E+00  0.00000000000E+00  0.60032749537E+03  0.60032749538E+03  0.25500000000E-02 0.  1.
          2   -1    0    0  501    0  0.00000000000E+00 -0.00000000000E+00 -0.14467375071E+04  0.14467375071E+04  0.25500000000E-02 0. -1.
    8880022    1    1    2    0    0 -0.26097626772E+03 -0.51904135485E+03  0.35928470844E+03  0.69999263931E+03  0.15294330000E+03 0.  0.
    8880022    1    1    2    0    0  0.26097626772E+03  0.51904135485E+03 -0.12056947202E+04  0.13470723632E+04  0.15294330000E+03 0.  0.
<mgrwt>
<rscale>  0 0.60075302E+03</rscale>
<asrwt>0</asrwt>
<pdfrwt beam="1">  1        2 0.22257500E+00 0.60075302E+03</pdfrwt>
<pdfrwt beam="2">  1       -2 0.92358077E-01 0.60075302E+03</pdfrwt>
<totfact> 0.14160251E+01</totfact>
</mgrwt>
</event>
<event>
 4    1  0.5410820E-008  0.6189975E+03  0.7818608E-02  0.9866758E-01
          2   -1    0    0  501    0  0.00000000000E+00  0.00000000000E+00  0.21761453339E+04  0.21761453339E+04  0.25500000000E-02 0. -1.
         -2   -1    0    0    0  501 -0.00000000000E+00 -0.00000000000E+00 -0.31237215983E+03  0.31237215984E+03  0.25500000000E-02 0.  1.
    8880022    1    1    2    0    0  0.59894655054E+03 -0.32083331191E+02  0.10997908850E+03  0.62869178734E+03  0.15294330000E+03 0.  1.
    8880022    1    1    2    0    0 -0.59894655054E+03  0.32083331191E+02  0.17537940856E+04  0.18598257064E+04  0.15294330000E+03 0.  0.
<mgrwt>
<rscale>  0 0.61899755E+03</rscale>
<asrwt>0</asrwt>
<pdfrwt beam="1">  1        2 0.33479158E+00 0.61899755E+03</pdfrwt>
<pdfrwt beam="2">  1       -2 0.48057256E-01 0.61899755E+03</pdfrwt>
<totfact> 0.23133457E+01</totfact>
</mgrwt>
</event>
<event>
 4    1  0.5410820E-008  0.3108416E+03  0.7818608E-02  0.1079943E+00
         -2   -1    0    0    0  501 -0.00000000000E+00  0.00000000000E+00  0.26874736654E+03  0.26874736655E+03  0.25500000000E-02 0.  1.
          2   -1    0    0  501    0  0.00000000000E+00 -0.00000000000E+00 -0.45500178145E+03  0.45500178146E+03  0.25500000000E-02 0. -1.
    8880022    1    1    2    0    0 -0.18080942469E+03 -0.20134256192E+03  0.72637026864E+02  0.31921570447E+03  0.15294330000E+03 0.  0.
    8880022    1    1    2    0    0  0.18080942469E+03  0.20134256192E+03 -0.25889144178E+03  0.40453344353E+03  0.15294330000E+03 0.  0.
<mgrwt>
<rscale>  0 0.31084165E+03</rscale>
<asrwt>0</asrwt>
<pdfrwt beam="1">  1        2 0.70000274E-01 0.31084165E+03</pdfrwt>
<pdfrwt beam="2">  1       -2 0.41345749E-01 0.31084165E+03</pdfrwt>
<totfact> 0.38860862E+02</totfact>
</mgrwt>
</event>
<event>
 4    1  0.6722125E-008  0.4386366E+03  0.7818608E-02  0.1031166E+00
         -2   -1    0    0    0  501 -0.00000000000E+00  0.00000000000E+00  0.21138481446E+04  0.21138481446E+04  0.25500000000E-02 0.  1.
          2   -1    0    0  501    0  0.00000000000E+00 -0.00000000000E+00 -0.14562896592E+04  0.14562896592E+04  0.25500000000E-02 0. -1.
    8880022    1    1    2    0    0  0.40666781131E+03 -0.60263293737E+02 -0.13996052185E+04  0.14667299663E+04  0.15294330000E+03 0.  0.
    8880022    1    1    2    0    0 -0.40666781131E+03  0.60263293737E+02  0.20571637039E+04  0.21034078375E+04  0.15294330000E+03 0.  1.
<mgrwt>
<rscale>  0 0.43863655E+03</rscale>
<asrwt>0</asrwt>
<pdfrwt beam="1">  1        2 0.22404456E+00 0.43863655E+03</pdfrwt>
<pdfrwt beam="2">  1       -2 0.32520741E+00 0.43863655E+03</pdfrwt>
<totfact> 0.34868470E-01</totfact>
</mgrwt>
</event>
<event>
 4    1  0.5410820E-008  0.4734279E+03  0.7818608E-02  0.1020957E+00
          2   -1    0    0  501    0  0.00000000000E+00  0.00000000000E+00  0.53730238664E+03  0.53730238664E+03  0.25500000000E-02 0. -1.
         -2   -1    0    0    0  501 -0.00000000000E+00 -0.00000000000E+00 -0.58554897695E+03  0.58554897695E+03  0.25500000000E-02 0.  1.
    8880022    1    1    2    0    0 -0.56581626957E+02  0.44445566428E+03  0.27695851121E+03  0.54848882209E+03  0.15294330000E+03 0.  0.
    8880022    1    1    2    0    0  0.56581626957E+02 -0.44445566428E+03 -0.32520510152E+03  0.57436254150E+03  0.15294330000E+03 0.  1.
<mgrwt>
<rscale>  0 0.47342789E+03</rscale>
<asrwt>0</asrwt>
<pdfrwt beam="1">  1        2 0.82661906E-01 0.47342789E+03</pdfrwt>
<pdfrwt beam="2">  1       -2 0.90084458E-01 0.47342789E+03</pdfrwt>
<totfact> 0.61728925E+01</totfact>
</mgrwt>
</event>
<event>
 4    1  0.5410820E-008  0.2605024E+03  0.7818608E-02  0.1106842E+00
          2   -1    0    0  501    0  0.00000000000E+00  0.00000000000E+00  0.20238685268E+04  0.20238685268E+04  0.25500000000E-02 0. -1.
         -2   -1    0    0    0  501 -0.00000000000E+00 -0.00000000000E+00 -0.63433959230E+02  0.63433959281E+02  0.25500000000E-02 0.  1.
    8880022    1    1    2    0    0  0.20940715843E+03  0.24869619497E+02  0.26365402614E+03  0.37064127468E+03  0.15294330000E+03 0.  1.
    8880022    1    1    2    0    0 -0.20940715843E+03 -0.24869619497E+02  0.16967805414E+04  0.17166612114E+04  0.15294330000E+03 0.  0.
<mgrwt>
<rscale>  0 0.26050242E+03</rscale>
<asrwt>0</asrwt>
<pdfrwt beam="1">  1        2 0.31136433E+00 0.26050242E+03</pdfrwt>
<pdfrwt beam="2">  1       -2 0.97590726E-02 0.26050242E+03</pdfrwt>
<totfact> 0.49984788E+02</totfact>
</mgrwt>
</event>
<event>
 4    1  0.5410820E-008  0.6688886E+03  0.7818608E-02  0.9771968E-01
         -2   -1    0    0    0  501 -0.00000000000E+00  0.00000000000E+00  0.12065584946E+04  0.12065584946E+04  0.25500000000E-02 0.  1.
          2   -1    0    0  501    0  0.00000000000E+00 -0.00000000000E+00 -0.14037737907E+04  0.14037737907E+04  0.25500000000E-02 0. -1.
    8880022    1    1    2    0    0 -0.50303313196E+03  0.41349475050E+03  0.10209807785E+04  0.12205792246E+04  0.15294330000E+03 0.  0.
    8880022    1    1    2    0    0  0.50303313196E+03 -0.41349475050E+03 -0.12181960746E+04  0.13897530607E+04  0.15294330000E+03 0.  0.
<mgrwt>
<rscale>  0 0.66888855E+03</rscale>
<asrwt>0</asrwt>
<pdfrwt beam="1">  1        2 0.21596520E+00 0.66888855E+03</pdfrwt>
<pdfrwt beam="2">  1       -2 0.18562438E+00 0.66888855E+03</pdfrwt>
<totfact> 0.24925528E+00</totfact>
</mgrwt>
</event>
<event>
 4    1  0.5410820E-008  0.9516251E+03  0.7818608E-02  0.9363253E-01
         -2   -1    0    0    0  501 -0.00000000000E+00  0.00000000000E+00  0.71033479331E+03  0.71033479331E+03  0.25500000000E-02 0.  1.
          2   -1    0    0  501    0  0.00000000000E+00 -0.00000000000E+00 -0.15344252712E+04  0.15344252712E+04  0.25500000000E-02 0. -1.
    8880022    1    1    2    0    0 -0.93093275681E+03  0.12475154644E+03  0.49564603644E+02  0.95291502716E+03  0.15294330000E+03 0.  0.
    8880022    1    1    2    0    0  0.93093275681E+03 -0.12475154644E+03 -0.87365508156E+03  0.12918450374E+04  0.15294330000E+03 0.  0.
<mgrwt>
<rscale>  0 0.95162514E+03</rscale>
<asrwt>0</asrwt>
<pdfrwt beam="1">  1        2 0.23606542E+00 0.95162514E+03</pdfrwt>
<pdfrwt beam="2">  1       -2 0.10928228E+00 0.95162514E+03</pdfrwt>
<totfact> 0.81043719E+00</totfact>
</mgrwt>
</event>
<event>
 4    1  0.5410820E-008  0.6311730E+03  0.7818608E-02  0.9842762E-01
         -2   -1    0    0    0  501 -0.00000000000E+00  0.00000000000E+00  0.28231248331E+03  0.28231248333E+03  0.25500000000E-02 0.  1.
          2   -1    0    0  501    0  0.00000000000E+00 -0.00000000000E+00 -0.34378080843E+04  0.34378080843E+04  0.25500000000E-02 0. -1.
    8880022    1    1    2    0    0 -0.60312285124E+03  0.10597417467E+03 -0.14958179755E+03  0.64865558393E+03  0.15294330000E+03 0.  0.
    8880022    1    1    2    0    0  0.60312285124E+03 -0.10597417467E+03 -0.30059138035E+04  0.30714649837E+04  0.15294330000E+03 0.  0.
<mgrwt>
<rscale>  0 0.63117300E+03</rscale>
<asrwt>0</asrwt>
<pdfrwt beam="1">  1        2 0.52889352E+00 0.63117300E+03</pdfrwt>
<pdfrwt beam="2">  1       -2 0.43432692E-01 0.63117300E+03</pdfrwt>
<totfact> 0.50151791E+00</totfact>
</mgrwt>
</event>
<event>
 4    1  0.5410820E-008  0.3697320E+03  0.7818608E-02  0.1054795E+00
          2   -1    0    0  501    0  0.00000000000E+00  0.00000000000E+00  0.15472930225E+04  0.15472930225E+04  0.25500000000E-02 0. -1.
         -2   -1    0    0    0  501 -0.00000000000E+00 -0.00000000000E+00 -0.15160906013E+03  0.15160906015E+03  0.25500000000E-02 0.  1.
    8880022    1    1    2    0    0 -0.28473858082E+03 -0.17953843852E+03  0.14913480827E+03  0.39867650341E+03  0.15294330000E+03 0.  0.
    8880022    1    1    2    0    0  0.28473858082E+03  0.17953843852E+03  0.12465491541E+04  0.13002255792E+04  0.15294330000E+03 0.  0.
<mgrwt>
<rscale>  0 0.36973202E+03</rscale>
<asrwt>0</asrwt>
<pdfrwt beam="1">  1        2 0.23804507E+00 0.36973202E+03</pdfrwt>
<pdfrwt beam="2">  1       -2 0.23324472E-01 0.36973202E+03</pdfrwt>
<totfact> 0.20504816E+02</totfact>
</mgrwt>
</event>
<event>
 4    1  0.5410820E-008  0.3646425E+03  0.7818608E-02  0.1056761E+00
         -2   -1    0    0    0  501 -0.00000000000E+00  0.00000000000E+00  0.54146194944E+03  0.54146194945E+03  0.25500000000E-02 0.  1.
          2   -1    0    0  501    0  0.00000000000E+00 -0.00000000000E+00 -0.81589296160E+03  0.81589296161E+03  0.25500000000E-02 0. -1.
    8880022    1    1    2    0    0  0.30379648858E+03 -0.13145401226E+03  0.43021039044E+03  0.56395487131E+03  0.15294330000E+03 0.  0.
    8880022    1    1    2    0    0 -0.30379648858E+03  0.13145401226E+03 -0.70464140259E+03  0.79340003975E+03  0.15294330000E+03 0. -1.
<mgrwt>
<rscale>  0 0.36464245E+03</rscale>
<asrwt>0</asrwt>
<pdfrwt beam="1">  1        2 0.12552199E+00 0.36464245E+03</pdfrwt>
<pdfrwt beam="2">  1       -2 0.83301838E-01 0.36464245E+03</pdfrwt>
<totfact> 0.44868121E+01</totfact>
</mgrwt>
</event>
<event>
 4    1  0.5410820E-008  0.4104363E+03  0.7818608E-02  0.1040225E+00
          2   -1    0    0  501    0  0.00000000000E+00  0.00000000000E+00  0.10671456639E+04  0.10671456639E+04  0.25500000000E-02 0. -1.
         -2   -1    0    0    0  501 -0.00000000000E+00 -0.00000000000E+00 -0.10493789994E+04  0.10493789994E+04  0.25500000000E-02 0.  1.
    8880022    1    1    2    0    0 -0.37154454189E+03 -0.83791023674E+02 -0.96653932300E+03  0.10500743775E+04  0.15294330000E+03 0.  0.
    8880022    1    1    2    0    0  0.37154454189E+03  0.83791023674E+02  0.98430598747E+03  0.10664502859E+04  0.15294330000E+03 0.  0.
<mgrwt>
<rscale>  0 0.41043627E+03</rscale>
<asrwt>0</asrwt>
<pdfrwt beam="1">  1        2 0.16417626E+00 0.41043627E+03</pdfrwt>
<pdfrwt beam="2">  1       -2 0.16144292E+00 0.41043627E+03</pdfrwt>
<totfact> 0.60910958E+00</totfact>
</mgrwt>
</event>
<event>
 4    1  0.5410820E-008  0.1485714E+04  0.7818608E-02  0.8894009E-01
         -2   -1    0    0    0  501 -0.00000000000E+00  0.00000000000E+00  0.13347974053E+04  0.13347974053E+04  0.25500000000E-02 0.  1.
          2   -1    0    0  501    0  0.00000000000E+00 -0.00000000000E+00 -0.31437564656E+04  0.31437564656E+04  0.25500000000E-02 0. -1.
    8880022    1    1    2    0    0 -0.13638437694E+04  0.56910991421E+03  0.63716936122E+03  0.16165804557E+04  0.15294330000E+03 0.  0.
    8880022    1    1    2    0    0  0.13638437694E+04 -0.56910991421E+03 -0.24461284216E+04  0.28619734153E+04  0.15294330000E+03 0.  0.
<mgrwt>
<rscale>  0 0.14857145E+04</rscale>
<asrwt>0</asrwt>
<pdfrwt beam="1">  1        2 0.48365484E+00 0.14857145E+04</pdfrwt>
<pdfrwt beam="2">  1       -2 0.20535345E+00 0.14857145E+04</pdfrwt>
<totfact> 0.16360598E-01</totfact>
</mgrwt>
</event>
<event>
 4    1  0.5410820E-008  0.6490107E+03  0.7818608E-02  0.9808637E-01
          2   -1    0    0  501    0  0.00000000000E+00  0.00000000000E+00  0.10012780972E+04  0.10012780972E+04  0.25500000000E-02 0. -1.
         -2   -1    0    0    0  501 -0.00000000000E+00 -0.00000000000E+00 -0.43011470608E+03  0.43011470609E+03  0.25500000000E-02 0.  1.
    8880022    1    1    2    0    0  0.25075746585E+03  0.57874335480E+03  0.39159640706E+03  0.75799906098E+03  0.15294330000E+03 0.  0.
    8880022    1    1    2    0    0 -0.25075746585E+03 -0.57874335480E+03  0.17956698407E+03  0.67339374232E+03  0.15294330000E+03 0.  0.
<mgrwt>
<rscale>  0 0.64901066E+03</rscale>
<asrwt>0</asrwt>
<pdfrwt beam="1">  1        2 0.15404278E+00 0.64901066E+03</pdfrwt>
<pdfrwt beam="2">  1       -2 0.66171494E-01 0.64901066E+03</pdfrwt>
<totfact> 0.54123075E+01</totfact>
</mgrwt>
</event>
<event>
 4    1  0.5410820E-008  0.8688849E+03  0.7818608E-02  0.9465335E-01
         -2   -1    0    0    0  501 -0.00000000000E+00  0.00000000000E+00  0.56338584936E+03  0.56338584936E+03  0.25500000000E-02 0.  1.
          2   -1    0    0  501    0  0.00000000000E+00 -0.00000000000E+00 -0.15606561209E+04  0.15606561209E+04  0.25500000000E-02 0. -1.
    8880022    1    1    2    0    0  0.32539911772E+03 -0.79100235798E+03 -0.89793179097E+03  0.12494968869E+04  0.15294330000E+03 0.  0.
    8880022    1    1    2    0    0 -0.32539911772E+03  0.79100235798E+03 -0.99338480608E+02  0.87454508339E+03  0.15294330000E+03 0.  0.
<mgrwt>
<rscale>  0 0.86888490E+03</rscale>
<asrwt>0</asrwt>
<pdfrwt beam="1">  1        2 0.24010094E+00 0.86888490E+03</pdfrwt>
<pdfrwt beam="2">  1       -2 0.86674747E-01 0.86888490E+03</pdfrwt>
<totfact> 0.13666497E+01</totfact>
</mgrwt>
</event>
<event>
 4    1  0.5410820E-008  0.5798888E+03  0.7818608E-02  0.9948032E-01
         -2   -1    0    0    0  501 -0.00000000000E+00  0.00000000000E+00  0.41756651253E+03  0.41756651254E+03  0.25500000000E-02 0.  1.
          2   -1    0    0  501    0  0.00000000000E+00 -0.00000000000E+00 -0.13366305675E+04  0.13366305675E+04  0.25500000000E-02 0. -1.
    8880022    1    1    2    0    0 -0.24173677729E+02 -0.55883355604E+03 -0.10125261849E+04  0.11668248533E+04  0.15294330000E+03 0. -1.
    8880022    1    1    2    0    0  0.24173677729E+02  0.55883355604E+03  0.93462129942E+02  0.58737222678E+03  0.15294330000E+03 0.  0.
<mgrwt>
<rscale>  0 0.57988875E+03</rscale>
<asrwt>0</asrwt>
<pdfrwt beam="1">  1        2 0.20563547E+00 0.57988875E+03</pdfrwt>
<pdfrwt beam="2">  1       -2 0.64241002E-01 0.57988875E+03</pdfrwt>
<totfact> 0.36697634E+01</totfact>
</mgrwt>
</event>
<event>
 4    1  0.5410820E-008  0.8900237E+03  0.7818608E-02  0.9438139E-01
          2   -1    0    0  501    0  0.00000000000E+00  0.00000000000E+00  0.21986575711E+04  0.21986575711E+04  0.25500000000E-02 0. -1.
         -2   -1    0    0    0  501 -0.00000000000E+00 -0.00000000000E+00 -0.92535788595E+03  0.92535788595E+03  0.25500000000E-02 0.  1.
    8880022    1    1    2    0    0 -0.17811821568E+03  0.85850132133E+03  0.18572705548E+04  0.20595135795E+04  0.15294330000E+03 0.  0.
    8880022    1    1    2    0    0  0.17811821568E+03 -0.85850132133E+03 -0.58397086970E+03  0.10645018775E+04  0.15294330000E+03 0.  0.
<mgrwt>
<rscale>  0 0.89002375E+03</rscale>
<asrwt>0</asrwt>
<pdfrwt beam="1">  1        2 0.33825501E+00 0.89002375E+03</pdfrwt>
<pdfrwt beam="2">  1       -2 0.14236275E+00 0.89002375E+03</pdfrwt>
<totfact> 0.18096595E+00</totfact>
</mgrwt>
</event>
<event>
 4    1  0.5410820E-008  0.5109044E+03  0.7818608E-02  0.1010971E+00
          2   -1    0    0  501    0  0.00000000000E+00  0.00000000000E+00  0.80446284588E+03  0.80446284588E+03  0.25500000000E-02 0. -1.
         -2   -1    0    0    0  501 -0.00000000000E+00 -0.00000000000E+00 -0.48581576306E+03  0.48581576306E+03  0.25500000000E-02 0.  1.
    8880022    1    1    2    0    0 -0.26041529615E+03  0.41208680798E+03 -0.21246647705E+03  0.55332207679E+03  0.15294330000E+03 0.  0.
    8880022    1    1    2    0    0  0.26041529615E+03 -0.41208680798E+03  0.53111355987E+03  0.73695653215E+03  0.15294330000E+03 0.  0.
<mgrwt>
<rscale>  0 0.51090441E+03</rscale>
<asrwt>0</asrwt>
<pdfrwt beam="1">  1        2 0.12376351E+00 0.51090441E+03</pdfrwt>
<pdfrwt beam="2">  1       -2 0.74740887E-01 0.51090441E+03</pdfrwt>
<totfact> 0.57012552E+01</totfact>
</mgrwt>
</event>
<event>
 4    1  0.5410820E-008  0.8069285E+03  0.7818608E-02  0.9550042E-01
          2   -1    0    0  501    0  0.00000000000E+00  0.00000000000E+00  0.16444914415E+04  0.16444914415E+04  0.25500000000E-02 0. -1.
         -2   -1    0    0    0  501 -0.00000000000E+00 -0.00000000000E+00 -0.10320647793E+04  0.10320647793E+04  0.25500000000E-02 0.  1.
    8880022    1    1    2    0    0 -0.73994369972E+03  0.28324058222E+03 -0.74444431549E+03  0.10978756296E+04  0.15294330000E+03 0.  0.
    8880022    1    1    2    0    0  0.73994369972E+03 -0.28324058222E+03  0.13568709777E+04  0.15786805913E+04  0.15294330000E+03 0.  0.
<mgrwt>
<rscale>  0 0.80692847E+03</rscale>
<asrwt>0</asrwt>
<pdfrwt beam="1">  1        2 0.25299868E+00 0.80692847E+03</pdfrwt>
<pdfrwt beam="2">  1       -2 0.15877920E+00 0.80692847E+03</pdfrwt>
<totfact> 0.27649646E+00</totfact>
</mgrwt>
</event>
<event>
 4    1  0.5410820E-008  0.4819643E+03  0.7818608E-02  0.1018597E+00
          2   -1    0    0  501    0  0.00000000000E+00  0.00000000000E+00  0.50445845143E+03  0.50445845144E+03  0.25500000000E-02 0. -1.
         -2   -1    0    0    0  501 -0.00000000000E+00 -0.00000000000E+00 -0.14068768504E+04  0.14068768504E+04  0.25500000000E-02 0.  1.
    8880022    1    1    2    0    0 -0.91081756643E+02 -0.44788618871E+03 -0.12350304907E+04  0.13257412607E+04  0.15294330000E+03 0.  0.
    8880022    1    1    2    0    0  0.91081756643E+02  0.44788618871E+03  0.33261209171E+03  0.58559404113E+03  0.15294330000E+03 0.  0.
<mgrwt>
<rscale>  0 0.48196429E+03</rscale>
<asrwt>0</asrwt>
<pdfrwt beam="1">  1        2 0.77608993E-01 0.48196429E+03</pdfrwt>
<pdfrwt beam="2">  1       -2 0.21644259E+00 0.48196429E+03</pdfrwt>
<totfact> 0.67479524E+00</totfact>
</mgrwt>
</event>
<event>
 4    1  0.5410820E-008  0.7965730E+03  0.7818608E-02  0.9564991E-01
          2   -1    0    0  501    0  0.00000000000E+00  0.00000000000E+00  0.68591128082E+03  0.68591128082E+03  0.25500000000E-02 0. -1.
         -2   -1    0    0    0  501 -0.00000000000E+00 -0.00000000000E+00 -0.14226611787E+04  0.14226611787E+04  0.25500000000E-02 0.  1.
    8880022    1    1    2    0    0  0.67803539020E+03 -0.38910791826E+03  0.25512449555E+03  0.83643118286E+03  0.15294330000E+03 0.  0.
    8880022    1    1    2    0    0 -0.67803539020E+03  0.38910791826E+03 -0.99187439340E+03  0.12721412766E+04  0.15294330000E+03 0.  0.
<mgrwt>
<rscale>  0 0.79657304E+03</rscale>
<asrwt>0</asrwt>
<pdfrwt beam="1">  1        2 0.10552481E+00 0.79657304E+03</pdfrwt>
<pdfrwt beam="2">  1       -2 0.21887095E+00 0.79657304E+03</pdfrwt>
<totfact> 0.42999379E+00</totfact>
</mgrwt>
</event>
<event>
 4    1  0.5410820E-008  0.4220332E+03  0.7818608E-02  0.1036407E+00
         -2   -1    0    0    0  501 -0.00000000000E+00  0.00000000000E+00  0.38478781163E+03  0.38478781164E+03  0.25500000000E-02 0.  1.
          2   -1    0    0  501    0  0.00000000000E+00 -0.00000000000E+00 -0.65133782326E+03  0.65133782326E+03  0.25500000000E-02 0. -1.
    8880022    1    1    2    0    0  0.27380895316E+02  0.39239094828E+03  0.14538975061E+03  0.44637450904E+03  0.15294330000E+03 0.  0.
    8880022    1    1    2    0    0 -0.27380895316E+02 -0.39239094828E+03 -0.41193976225E+03  0.58975112586E+03  0.15294330000E+03 0.  0.
<mgrwt>
<rscale>  0 0.42203320E+03</rscale>
<asrwt>0</asrwt>
<pdfrwt beam="1">  1        2 0.10020582E+00 0.42203320E+03</pdfrwt>
<pdfrwt beam="2">  1       -2 0.59198125E-01 0.42203320E+03</pdfrwt>
<totfact> 0.12374292E+02</totfact>
</mgrwt>
</event>
<event>
 4    1  0.5410820E-008  0.1006172E+04  0.7818608E-02  0.9301801E-01
         -2   -1    0    0    0  501 -0.00000000000E+00  0.00000000000E+00  0.51436070697E+03  0.51436070698E+03  0.25500000000E-02 0.  1.
          2   -1    0    0  501    0  0.00000000000E+00 -0.00000000000E+00 -0.24319813262E+04  0.24319813262E+04  0.25500000000E-02 0. -1.
    8880022    1    1    2    0    0 -0.76483685365E+03  0.63562146432E+03 -0.16021113159E+04  0.18918621462E+04  0.15294330000E+03 0.  0.
    8880022    1    1    2    0    0  0.76483685365E+03 -0.63562146432E+03 -0.31550930335E+03  0.10544798870E+04  0.15294330000E+03 0.  0.
<mgrwt>
<rscale>  0 0.10061718E+04</rscale>
<asrwt>0</asrwt>
<pdfrwt beam="1">  1        2 0.37415097E+00 0.10061718E+04</pdfrwt>
<pdfrwt beam="2">  1       -2 0.79132418E-01 0.10061718E+04</pdfrwt>
<totfact> 0.54430202E+00</totfact>
</mgrwt>
</event>
<event>
 4    1  0.5410820E-008  0.9005159E+03  0.7818608E-02  0.9424937E-01
          2   -1    0    0  501    0  0.00000000000E+00  0.00000000000E+00  0.25360892240E+04  0.25360892240E+04  0.25500000000E-02 0. -1.
         -2   -1    0    0    0  501 -0.00000000000E+00 -0.00000000000E+00 -0.60596908414E+03  0.60596908415E+03  0.25500000000E-02 0.  1.
    8880022    1    1    2    0    0 -0.83831980196E+03  0.29113091017E+03  0.20447622804E+04  0.22342743192E+04  0.15294330000E+03 0.  0.
    8880022    1    1    2    0    0  0.83831980196E+03 -0.29113091017E+03 -0.11464214050E+03  0.90778398896E+03  0.15294330000E+03 0.  0.
<mgrwt>
<rscale>  0 0.90051594E+03</rscale>
<asrwt>0</asrwt>
<pdfrwt beam="1">  1        2 0.39016758E+00 0.90051594E+03</pdfrwt>
<pdfrwt beam="2">  1       -2 0.93226011E-01 0.90051594E+03</pdfrwt>
<totfact> 0.33101913E+00</totfact>
</mgrwt>
</event>
<event>
 4    1  0.5410820E-008  0.4517432E+03  0.7818608E-02  0.1027203E+00
          2   -1    0    0  501    0  0.00000000000E+00  0.00000000000E+00  0.95720269273E+03  0.95720269273E+03  0.25500000000E-02 0. -1.
         -2   -1    0    0    0  501 -0.00000000000E+00 -0.00000000000E+00 -0.29205090548E+03  0.29205090550E+03  0.25500000000E-02 0.  1.
    8880022    1    1    2    0    0  0.26242347236E+03  0.33438623288E+03  0.65714367500E+03  0.79743946115E+03  0.15294330000E+03 0.  0.
    8880022    1    1    2    0    0 -0.26242347236E+03 -0.33438623288E+03  0.80081122422E+01  0.45181413708E+03  0.15294330000E+03 0.  0.
<mgrwt>
<rscale>  0 0.45174316E+03</rscale>
<asrwt>0</asrwt>
<pdfrwt beam="1">  1        2 0.14726195E+00 0.45174316E+03</pdfrwt>
<pdfrwt beam="2">  1       -2 0.44930909E-01 0.45174316E+03</pdfrwt>
<totfact> 0.13095265E+02</totfact>
</mgrwt>
</event>
<event>
 4    1  0.5410820E-008  0.8032618E+03  0.7818608E-02  0.9555308E-01
          2   -1    0    0  501    0  0.00000000000E+00  0.00000000000E+00  0.97643082255E+03  0.97643082255E+03  0.25500000000E-02 0. -1.
         -2   -1    0    0    0  501 -0.00000000000E+00 -0.00000000000E+00 -0.71737452826E+03  0.71737452826E+03  0.25500000000E-02 0.  1.
    8880022    1    1    2    0    0 -0.44555644557E+03  0.65062835260E+03  0.36735200152E+03  0.88327625657E+03  0.15294330000E+03 0.  0.
    8880022    1    1    2    0    0  0.44555644557E+03 -0.65062835260E+03 -0.10829570723E+03  0.81052909424E+03  0.15294330000E+03 0.  0.
<mgrwt>
<rscale>  0 0.80326176E+03</rscale>
<asrwt>0</asrwt>
<pdfrwt beam="1">  1        2 0.15022013E+00 0.80326176E+03</pdfrwt>
<pdfrwt beam="2">  1       -2 0.11036531E+00 0.80326176E+03</pdfrwt>
<totfact> 0.17188171E+01</totfact>
</mgrwt>
</event>
<event>
 4    1  0.5410820E-008  0.2206900E+03  0.7818608E-02  0.1133370E+00
          2   -1    0    0  501    0  0.00000000000E+00  0.00000000000E+00  0.30452369469E+04  0.30452369469E+04  0.25500000000E-02 0. -1.
         -2   -1    0    0    0  501 -0.00000000000E+00 -0.00000000000E+00 -0.61075047340E+02  0.61075047393E+02  0.25500000000E-02 0.  1.
    8880022    1    1    2    0    0 -0.15909859276E+03  0.22661588944E+00  0.28264699980E+04  0.28350726122E+04  0.15294330000E+03 0.  0.
    8880022    1    1    2    0    0  0.15909859276E+03 -0.22661588944E+00  0.15769190149E+03  0.27123938207E+03  0.15294330000E+03 0.  0.
<mgrwt>
<rscale>  0 0.22068998E+03</rscale>
<asrwt>0</asrwt>
<pdfrwt beam="1">  1        2 0.46849812E+00 0.22068998E+03</pdfrwt>
<pdfrwt beam="2">  1       -2 0.93961586E-02 0.22068998E+03</pdfrwt>
<totfact> 0.14663373E+02</totfact>
</mgrwt>
</event>
<event>
 4    1  0.5410820E-008  0.4260402E+03  0.7818608E-02  0.1035118E+00
          2   -1    0    0  501    0  0.00000000000E+00  0.00000000000E+00  0.12093503257E+04  0.12093503257E+04  0.25500000000E-02 0. -1.
         -2   -1    0    0    0  501 -0.00000000000E+00 -0.00000000000E+00 -0.35234188131E+03  0.35234188132E+03  0.25500000000E-02 0.  1.
    8880022    1    1    2    0    0 -0.15098529117E+02 -0.39735454503E+03  0.10201075493E+04  0.11054997355E+04  0.15294330000E+03 0.  0.
    8880022    1    1    2    0    0  0.15098529117E+02  0.39735454503E+03 -0.16309910491E+03  0.45619247152E+03  0.15294330000E+03 0.  0.
<mgrwt>
<rscale>  0 0.42604020E+03</rscale>
<asrwt>0</asrwt>
<pdfrwt beam="1">  1        2 0.18605390E+00 0.42604020E+03</pdfrwt>
<pdfrwt beam="2">  1       -2 0.54206442E-01 0.42604020E+03</pdfrwt>
<totfact> 0.63340736E+01</totfact>
</mgrwt>
</event>
<event>
 4    1  0.5410820E-008  0.4733580E+03  0.7818608E-02  0.1020977E+00
         -2   -1    0    0    0  501 -0.00000000000E+00  0.00000000000E+00  0.30655110825E+03  0.30655110826E+03  0.25500000000E-02 0.  1.
          2   -1    0    0  501    0  0.00000000000E+00 -0.00000000000E+00 -0.19168278035E+04  0.19168278035E+04  0.25500000000E-02 0. -1.
    8880022    1    1    2    0    0  0.18667969163E+03  0.40721839962E+03 -0.16795487984E+04  0.17449790690E+04  0.15294330000E+03 0.  0.
    8880022    1    1    2    0    0 -0.18667969163E+03 -0.40721839962E+03  0.69272103092E+02  0.47839984275E+03  0.15294330000E+03 0.  0.
<mgrwt>
<rscale>  0 0.47335799E+03</rscale>
<asrwt>0</asrwt>
<pdfrwt beam="1">  1        2 0.29489658E+00 0.47335799E+03</pdfrwt>
<pdfrwt beam="2">  1       -2 0.47161710E-01 0.47335799E+03</pdfrwt>
<totfact> 0.34100569E+01</totfact>
</mgrwt>
</event>
<event>
 4    1  0.5410820E-008  0.6354774E+03  0.7818608E-02  0.9834418E-01
          2   -1    0    0  501    0  0.00000000000E+00  0.00000000000E+00  0.20535687701E+04  0.20535687701E+04  0.25500000000E-02 0. -1.
         -2   -1    0    0    0  501 -0.00000000000E+00 -0.00000000000E+00 -0.39065183159E+03  0.39065183160E+03  0.25500000000E-02 0.  1.
    8880022    1    1    2    0    0  0.39235405667E+03  0.47591819192E+03 -0.29773061187E+02  0.63617444099E+03  0.15294330000E+03 0.  0.
    8880022    1    1    2    0    0 -0.39235405667E+03 -0.47591819192E+03  0.16926899997E+04  0.18080461607E+04  0.15294330000E+03 0.  0.
<mgrwt>
<rscale>  0 0.63547737E+03</rscale>
<asrwt>0</asrwt>
<pdfrwt beam="1">  1        2 0.31593365E+00 0.63547737E+03</pdfrwt>
<pdfrwt beam="2">  1       -2 0.60100283E-01 0.63547737E+03</pdfrwt>
<totfact> 0.16974125E+01</totfact>
</mgrwt>
</event>
<event>
 4    1  0.5410820E-008  0.3097679E+03  0.7818608E-02  0.1080457E+00
         -2   -1    0    0    0  501 -0.00000000000E+00  0.00000000000E+00  0.29194503666E+03  0.29194503667E+03  0.25500000000E-02 0.  1.
          2   -1    0    0  501    0  0.00000000000E+00 -0.00000000000E+00 -0.28403117357E+04  0.28403117357E+04  0.25500000000E-02 0. -1.
    8880022    1    1    2    0    0  0.41680309048E+01  0.26934576700E+03  0.19854428112E+03  0.36793477583E+03  0.15294330000E+03 0.  0.
    8880022    1    1    2    0    0 -0.41680309048E+01 -0.26934576700E+03 -0.27469109801E+04  0.27643219965E+04  0.15294330000E+03 0. -1.
<mgrwt>
<rscale>  0 0.30976793E+03</rscale>
<asrwt>0</asrwt>
<pdfrwt beam="1">  1        2 0.43697102E+00 0.30976793E+03</pdfrwt>
<pdfrwt beam="2">  1       -2 0.44914623E-01 0.30976793E+03</pdfrwt>
<totfact> 0.12235498E+01</totfact>
</mgrwt>
</event>
<event>
 4    1  0.5410820E-008  0.2877863E+03  0.7818608E-02  0.1091511E+00
          2   -1    0    0  501    0  0.00000000000E+00  0.00000000000E+00  0.10328729140E+04  0.10328729140E+04  0.25500000000E-02 0. -1.
         -2   -1    0    0    0  501 -0.00000000000E+00 -0.00000000000E+00 -0.13876693255E+03  0.13876693258E+03  0.25500000000E-02 0.  1.
    8880022    1    1    2    0    0  0.31874856816E+02  0.24168838611E+03  0.82768290382E+03  0.87628758109E+03  0.15294330000E+03 0.  0.
    8880022    1    1    2    0    0 -0.31874856816E+02 -0.24168838611E+03  0.66423077634E+02  0.29535226550E+03  0.15294330000E+03 0.  0.
<mgrwt>
<rscale>  0 0.28778627E+03</rscale>
<asrwt>0</asrwt>
<pdfrwt beam="1">  1        2 0.15890352E+00 0.28778627E+03</pdfrwt>
<pdfrwt beam="2">  1       -2 0.21348760E-01 0.28778627E+03</pdfrwt>
<totfact> 0.47233963E+02</totfact>
</mgrwt>
</event>
<event>
 4    1  0.5410820E-008  0.7121142E+03  0.7818608E-02  0.9696737E-01
          2   -1    0    0  501    0  0.00000000000E+00  0.00000000000E+00  0.97326191110E+03  0.97326191111E+03  0.25500000000E-02 0. -1.
         -2   -1    0    0    0  501 -0.00000000000E+00 -0.00000000000E+00 -0.81452098927E+03  0.81452098927E+03  0.25500000000E-02 0.  1.
    8880022    1    1    2    0    0 -0.60938345608E+03  0.33521157846E+03 -0.45719776202E+03  0.84624845376E+03  0.15294330000E+03 0.  0.
    8880022    1    1    2    0    0  0.60938345608E+03 -0.33521157846E+03  0.61593868385E+03  0.94153444662E+03  0.15294330000E+03 0.  0.
<mgrwt>
<rscale>  0 0.71211421E+03</rscale>
<asrwt>0</asrwt>
<pdfrwt beam="1">  1        2 0.14973260E+00 0.71211421E+03</pdfrwt>
<pdfrwt beam="2">  1       -2 0.12531092E+00 0.71211421E+03</pdfrwt>
<totfact> 0.12756186E+01</totfact>
</mgrwt>
</event>
<event>
 4    1  0.5410820E-008  0.2953671E+03  0.7818608E-02  0.1087580E+00
          2   -1    0    0  501    0  0.00000000000E+00  0.00000000000E+00  0.30014430174E+03  0.30014430175E+03  0.25500000000E-02 0. -1.
         -2   -1    0    0    0  501 -0.00000000000E+00 -0.00000000000E+00 -0.32666565215E+03  0.32666565216E+03  0.25500000000E-02 0.  1.
    8880022    1    1    2    0    0  0.21309277848E+03 -0.13579964557E+03 -0.11730145504E+03  0.31780711186E+03  0.15294330000E+03 0.  1.
    8880022    1    1    2    0    0 -0.21309277848E+03  0.13579964557E+03  0.90780104632E+02  0.30900284204E+03  0.15294330000E+03 0.  0.
<mgrwt>
<rscale>  0 0.29536711E+03</rscale>
<asrwt>0</asrwt>
<pdfrwt beam="1">  1        2 0.46176046E-01 0.29536711E+03</pdfrwt>
<pdfrwt beam="2">  1       -2 0.50256254E-01 0.29536711E+03</pdfrwt>
<totfact> 0.41737473E+02</totfact>
</mgrwt>
</event>
<event>
 4    1  0.5410820E-008  0.3569034E+03  0.7818608E-02  0.1059817E+00
          2   -1    0    0  501    0  0.00000000000E+00  0.00000000000E+00  0.56140707258E+03  0.56140707258E+03  0.25500000000E-02 0. -1.
         -2   -1    0    0    0  501 -0.00000000000E+00 -0.00000000000E+00 -0.10481660301E+04  0.10481660301E+04  0.25500000000E-02 0.  1.
    8880022    1    1    2    0    0  0.54174606356E+02 -0.31788909508E+03  0.46899627427E+03  0.58935347885E+03  0.15294330000E+03 0.  0.
    8880022    1    1    2    0    0 -0.54174606356E+02  0.31788909508E+03 -0.95575523175E+03  0.10202196238E+04  0.15294330000E+03 0.  0.
<mgrwt>
<rscale>  0 0.35690337E+03</rscale>
<asrwt>0</asrwt>
<pdfrwt beam="1">  1        2 0.86370319E-01 0.35690337E+03</pdfrwt>
<pdfrwt beam="2">  1       -2 0.16125631E+00 0.35690337E+03</pdfrwt>
<totfact> 0.14205363E+01</totfact>
</mgrwt>
</event>
<event>
 4    1  0.5410820E-008  0.4438003E+03  0.7818608E-02  0.1029587E+00
          2   -1    0    0  501    0  0.00000000000E+00  0.00000000000E+00  0.17821262975E+04  0.17821262975E+04  0.25500000000E-02 0. -1.
         -2   -1    0    0    0  501 -0.00000000000E+00 -0.00000000000E+00 -0.12216453057E+03  0.12216453059E+03  0.25500000000E-02 0.  1.
    8880022    1    1    2    0    0 -0.13805648619E+03 -0.39307434346E+03  0.53600498995E+03  0.69588794726E+03  0.15294330000E+03 0.  0.
    8880022    1    1    2    0    0  0.13805648619E+03  0.39307434346E+03  0.11239567769E+04  0.12084028808E+04  0.15294330000E+03 0.  0.
<mgrwt>
<rscale>  0 0.44380028E+03</rscale>
<asrwt>0</asrwt>
<pdfrwt beam="1">  1        2 0.27417330E+00 0.44380028E+03</pdfrwt>
<pdfrwt beam="2">  1       -2 0.18794542E-01 0.44380028E+03</pdfrwt>
<totfact> 0.22102521E+02</totfact>
</mgrwt>
</event>
<event>
 4    1  0.5410820E-008  0.4268277E+03  0.7818608E-02  0.1034867E+00
         -2   -1    0    0    0  501 -0.00000000000E+00  0.00000000000E+00  0.84989533766E+03  0.84989533766E+03  0.25500000000E-02 0.  1.
          2   -1    0    0  501    0  0.00000000000E+00 -0.00000000000E+00 -0.13246672224E+04  0.13246672224E+04  0.25500000000E-02 0. -1.
    8880022    1    1    2    0    0  0.72143209230E+02  0.39189992426E+03  0.75804352633E+03  0.86994932846E+03  0.15294330000E+03 0.  0.
    8880022    1    1    2    0    0 -0.72143209230E+02 -0.39189992426E+03 -0.12328154111E+04  0.13046132316E+04  0.15294330000E+03 0.  0.
<mgrwt>
<rscale>  0 0.42682765E+03</rscale>
<asrwt>0</asrwt>
<pdfrwt beam="1">  1        2 0.20379496E+00 0.42682765E+03</pdfrwt>
<pdfrwt beam="2">  1       -2 0.13075313E+00 0.42682765E+03</pdfrwt>
<totfact> 0.74216652E+00</totfact>
</mgrwt>
</event>
<event>
 4    1  0.5410820E-008  0.5950831E+03  0.7818608E-02  0.9915660E-01
         -2   -1    0    0    0  501 -0.00000000000E+00  0.00000000000E+00  0.29822350842E+03  0.29822350843E+03  0.25500000000E-02 0.  1.
          2   -1    0    0  501    0  0.00000000000E+00 -0.00000000000E+00 -0.19009369425E+04  0.19009369425E+04  0.25500000000E-02 0. -1.
    8880022    1    1    2    0    0 -0.61018110643E+02 -0.57184699985E+03 -0.14750120703E+04  0.15905296167E+04  0.15294330000E+03 0.  0.
    8880022    1    1    2    0    0  0.61018110643E+02  0.57184699985E+03 -0.12770136381E+03  0.60863083425E+03  0.15294330000E+03 0.  1.
<mgrwt>
<rscale>  0 0.59508306E+03</rscale>
<asrwt>0</asrwt>
<pdfrwt beam="1">  1        2 0.29245183E+00 0.59508306E+03</pdfrwt>
<pdfrwt beam="2">  1       -2 0.45880541E-01 0.59508306E+03</pdfrwt>
<totfact> 0.35953944E+01</totfact>
</mgrwt>
</event>
<event>
 4    1  0.5410820E-008  0.3608945E+03  0.7818608E-02  0.1058230E+00
         -2   -1    0    0    0  501 -0.00000000000E+00  0.00000000000E+00  0.16461500132E+03  0.16461500134E+03  0.25500000000E-02 0.  1.
          2   -1    0    0  501    0  0.00000000000E+00 -0.00000000000E+00 -0.20268843778E+04  0.20268843778E+04  0.25500000000E-02 0. -1.
    8880022    1    1    2    0    0 -0.23467777135E+03  0.22755112434E+03 -0.17866920159E+04  0.18227762297E+04  0.15294330000E+03 0.  0.
    8880022    1    1    2    0    0  0.23467777135E+03 -0.22755112434E+03 -0.75577360583E+02  0.36872314953E+03  0.15294330000E+03 0.  0.
<mgrwt>
<rscale>  0 0.36089448E+03</rscale>
<asrwt>0</asrwt>
<pdfrwt beam="1">  1        2 0.31182835E+00 0.36089448E+03</pdfrwt>
<pdfrwt beam="2">  1       -2 0.25325386E-01 0.36089448E+03</pdfrwt>
<totfact> 0.98485841E+01</totfact>
</mgrwt>
</event>
<event>
 4    1  0.5410820E-008  0.7300566E+03  0.7818608E-02  0.9667168E-01
         -2   -1    0    0    0  501 -0.00000000000E+00  0.00000000000E+00  0.10920115179E+04  0.10920115179E+04  0.25500000000E-02 0.  1.
          2   -1    0    0  501    0  0.00000000000E+00 -0.00000000000E+00 -0.99955508095E+03  0.99955508096E+03  0.25500000000E-02 0. -1.
    8880022    1    1    2    0    0 -0.42528787690E+03  0.57334219921E+03  0.79431678154E+03  0.10788521020E+04  0.15294330000E+03 0.  0.
    8880022    1    1    2    0    0  0.42528787690E+03 -0.57334219921E+03 -0.70186034462E+03  0.10127144968E+04  0.15294330000E+03 0.  0.
<mgrwt>
<rscale>  0 0.73005665E+03</rscale>
<asrwt>0</asrwt>
<pdfrwt beam="1">  1        2 0.15377770E+00 0.73005665E+03</pdfrwt>
<pdfrwt beam="2">  1       -2 0.16800177E+00 0.73005665E+03</pdfrwt>
<totfact> 0.56779719E+00</totfact>
</mgrwt>
</event>
<event>
 4    1  0.5410820E-008  0.1897798E+03  0.7818608E-02  0.1158660E+00
         -2   -1    0    0    0  501 -0.00000000000E+00  0.00000000000E+00  0.28322433330E+02  0.28322433445E+02  0.25500000000E-02 0.  1.
          2   -1    0    0  501    0  0.00000000000E+00 -0.00000000000E+00 -0.16264793660E+04  0.16264793660E+04  0.25500000000E-02 0. -1.
    8880022    1    1    2    0    0  0.10911086989E+03 -0.26824075571E+02 -0.11855329813E+04  0.12006268428E+04  0.15294330000E+03 0.  0.
    8880022    1    1    2    0    0 -0.10911086989E+03  0.26824075571E+02 -0.41262395137E+03  0.45417495662E+03  0.15294330000E+03 0.  0.
<mgrwt>
<rscale>  0 0.18977978E+03</rscale>
<asrwt>0</asrwt>
<pdfrwt beam="1">  1        2 0.25022752E+00 0.18977978E+03</pdfrwt>
<pdfrwt beam="2">  1       -2 0.43572987E-02 0.18977978E+03</pdfrwt>
<totfact> 0.28196270E+03</totfact>
</mgrwt>
</event>
<event>
 4    1  0.5410820E-008  0.3551217E+03  0.7818608E-02  0.1060532E+00
          2   -1    0    0  501    0  0.00000000000E+00  0.00000000000E+00  0.35449464278E+04  0.35449464278E+04  0.25500000000E-02 0. -1.
         -2   -1    0    0    0  501 -0.00000000000E+00 -0.00000000000E+00 -0.74352918615E+02  0.74352918658E+02  0.25500000000E-02 0.  1.
    8880022    1    1    2    0    0 -0.22883214959E+03  0.22440054166E+03  0.30421831625E+04  0.30628401531E+04  0.15294330000E+03 0. -1.
    8880022    1    1    2    0    0  0.22883214959E+03 -0.22440054166E+03  0.42841034665E+03  0.55645919340E+03  0.15294330000E+03 0.  0.
<mgrwt>
<rscale>  0 0.35512168E+03</rscale>
<asrwt>0</asrwt>
<pdfrwt beam="1">  1        2 0.54537658E+00 0.35512168E+03</pdfrwt>
<pdfrwt beam="2">  1       -2 0.11438906E-01 0.35512168E+03</pdfrwt>
<totfact> 0.49095951E+01</totfact>
</mgrwt>
</event>
<event>
 4    1  0.5410820E-008  0.7836871E+03  0.7818608E-02  0.9583934E-01
         -2   -1    0    0    0  501 -0.00000000000E+00  0.00000000000E+00  0.64098878221E+03  0.64098878221E+03  0.25500000000E-02 0.  1.
          2   -1    0    0  501    0  0.00000000000E+00 -0.00000000000E+00 -0.95815337767E+03  0.95815337767E+03  0.25500000000E-02 0. -1.
    8880022    1    1    2    0    0 -0.73931120074E+03  0.21022059683E+03 -0.15899401725E+03  0.79965273801E+03  0.15294330000E+03 0. -1.
    8880022    1    1    2    0    0  0.73931120074E+03 -0.21022059683E+03 -0.15817057821E+03  0.79948942188E+03  0.15294330000E+03 0.  1.
<mgrwt>
<rscale>  0 0.78368706E+03</rscale>
<asrwt>0</asrwt>
<pdfrwt beam="1">  1        2 0.14740821E+00 0.78368706E+03</pdfrwt>
<pdfrwt beam="2">  1       -2 0.98613658E-01 0.78368706E+03</pdfrwt>
<totfact> 0.23182035E+01</totfact>
</mgrwt>
</event>
<event>
 4    1  0.5410820E-008  0.3570907E+03  0.7818608E-02  0.1059742E+00
          2   -1    0    0  501    0  0.00000000000E+00  0.00000000000E+00  0.57100041331E+03  0.57100041332E+03  0.25500000000E-02 0. -1.
         -2   -1    0    0    0  501 -0.00000000000E+00 -0.00000000000E+00 -0.65773557639E+03  0.65773557639E+03  0.25500000000E-02 0.  1.
    8880022    1    1    2    0    0 -0.32245858259E+03 -0.11939636006E+02 -0.54266281556E+03  0.64961271293E+03  0.15294330000E+03 0.  0.
    8880022    1    1    2    0    0  0.32245858259E+03  0.11939636006E+02  0.45592765248E+03  0.57912327678E+03  0.15294330000E+03 0.  0.
<mgrwt>
<rscale>  0 0.35709067E+03</rscale>
<asrwt>0</asrwt>
<pdfrwt beam="1">  1        2 0.87846217E-01 0.35709067E+03</pdfrwt>
<pdfrwt beam="2">  1       -2 0.10119009E+00 0.35709067E+03</pdfrwt>
<totfact> 0.44545196E+01</totfact>
</mgrwt>
</event>
<event>
 4    1  0.5410820E-008  0.1306572E+04  0.7818608E-02  0.9024370E-01
         -2   -1    0    0    0  501 -0.00000000000E+00  0.00000000000E+00  0.51684487613E+03  0.51684487613E+03  0.25500000000E-02 0.  1.
          2   -1    0    0  501    0  0.00000000000E+00 -0.00000000000E+00 -0.47151711344E+04  0.47151711344E+04  0.25500000000E-02 0. -1.
    8880022    1    1    2    0    0 -0.11432603572E+03  0.12925435333E+04 -0.35308113172E+04  0.37648053653E+04  0.15294330000E+03 0.  0.
    8880022    1    1    2    0    0  0.11432603572E+03 -0.12925435333E+04 -0.66751494106E+03  0.14672106452E+04  0.15294330000E+03 0.  0.
<mgrwt>
<rscale>  0 0.13065722E+04</rscale>
<asrwt>0</asrwt>
<pdfrwt beam="1">  1        2 0.72541092E+00 0.13065722E+04</pdfrwt>
<pdfrwt beam="2">  1       -2 0.79514599E-01 0.13065722E+04</pdfrwt>
<totfact> 0.10581419E-01</totfact>
</mgrwt>
</event>
<event>
 4    1  0.5410820E-008  0.8057062E+03  0.7818608E-02  0.9551794E-01
          2   -1    0    0  501    0  0.00000000000E+00  0.00000000000E+00  0.11614971194E+04  0.11614971194E+04  0.25500000000E-02 0. -1.
         -2   -1    0    0    0  501 -0.00000000000E+00 -0.00000000000E+00 -0.63753120725E+03  0.63753120725E+03  0.25500000000E-02 0.  1.
    8880022    1    1    2    0    0  0.19017177141E+03  0.76785778182E+03  0.57788359234E+03  0.99152003261E+03  0.15294330000E+03 0.  0.
    8880022    1    1    2    0    0 -0.19017177141E+03 -0.76785778182E+03 -0.53917680174E+02  0.80750829407E+03  0.15294330000E+03 0.  0.
<mgrwt>
<rscale>  0 0.80570623E+03</rscale>
<asrwt>0</asrwt>
<pdfrwt beam="1">  1        2 0.17869186E+00 0.80570623E+03</pdfrwt>
<pdfrwt beam="2">  1       -2 0.98081725E-01 0.80570623E+03</pdfrwt>
<totfact> 0.17492197E+01</totfact>
</mgrwt>
</event>
<event>
 4    1  0.5410820E-008  0.8405133E+03  0.7818608E-02  0.9503159E-01
         -2   -1    0    0    0  501 -0.00000000000E+00  0.00000000000E+00  0.31041775384E+03  0.31041775385E+03  0.25500000000E-02 0.  1.
          2   -1    0    0  501    0  0.00000000000E+00 -0.00000000000E+00 -0.27473110473E+04  0.27473110473E+04  0.25500000000E-02 0. -1.
    8880022    1    1    2    0    0 -0.81759615469E+03 -0.12086122292E+03 -0.18517918126E+04  0.20336163545E+04  0.15294330000E+03 0.  0.
    8880022    1    1    2    0    0  0.81759615469E+03  0.12086122292E+03 -0.58510148092E+03  0.10241124466E+04  0.15294330000E+03 0.  0.
<mgrwt>
<rscale>  0 0.84051327E+03</rscale>
<asrwt>0</asrwt>
<pdfrwt beam="1">  1        2 0.42266322E+00 0.84051327E+03</pdfrwt>
<pdfrwt beam="2">  1       -2 0.47756579E-01 0.84051327E+03</pdfrwt>
<totfact> 0.10749761E+01</totfact>
</mgrwt>
</event>
<event>
 4    1  0.5410820E-008  0.6824589E+03  0.7818608E-02  0.9747709E-01
          2   -1    0    0  501    0  0.00000000000E+00  0.00000000000E+00  0.12485754187E+04  0.12485754187E+04  0.25500000000E-02 0. -1.
         -2   -1    0    0    0  501 -0.00000000000E+00 -0.00000000000E+00 -0.57086662485E+03  0.57086662486E+03  0.25500000000E-02 0.  1.
    8880022    1    1    2    0    0 -0.66287629204E+03  0.54346119283E+02 -0.19669494129E+03  0.71023871492E+03  0.15294330000E+03 0.  0.
    8880022    1    1    2    0    0  0.66287629204E+03 -0.54346119283E+02  0.87440373514E+03  0.11092033286E+04  0.15294330000E+03 0.  0.
<mgrwt>
<rscale>  0 0.68245889E+03</rscale>
<asrwt>0</asrwt>
<pdfrwt beam="1">  1        2 0.19208853E+00 0.68245889E+03</pdfrwt>
<pdfrwt beam="2">  1       -2 0.87825634E-01 0.68245889E+03</pdfrwt>
<totfact> 0.20369617E+01</totfact>
</mgrwt>
</event>
<event>
 4    1  0.5410820E-008  0.1889968E+03  0.7818608E-02  0.1159369E+00
         -2   -1    0    0    0  501 -0.00000000000E+00  0.00000000000E+00  0.22379466425E+03  0.22379466426E+03  0.25500000000E-02 0.  1.
          2   -1    0    0  501    0  0.00000000000E+00 -0.00000000000E+00 -0.71800472294E+03  0.71800472295E+03  0.25500000000E-02 0. -1.
    8880022    1    1    2    0    0 -0.10938379131E+03 -0.19061038300E+02 -0.66237979589E+03  0.68881549344E+03  0.15294330000E+03 0. -1.
    8880022    1    1    2    0    0  0.10938379131E+03  0.19061038300E+02  0.16816973720E+03  0.25298389377E+03  0.15294330000E+03 0.  0.
<mgrwt>
<rscale>  0 0.18899680E+03</rscale>
<asrwt>0</asrwt>
<pdfrwt beam="1">  1        2 0.11046226E+00 0.18899680E+03</pdfrwt>
<pdfrwt beam="2">  1       -2 0.34429949E-01 0.18899680E+03</pdfrwt>
<totfact> 0.32719785E+02</totfact>
</mgrwt>
</event>
<event>
 4    1  0.5410820E-008  0.5588633E+03  0.7818608E-02  0.9994630E-01
          2   -1    0    0  501    0  0.00000000000E+00  0.00000000000E+00  0.19046303092E+04  0.19046303092E+04  0.25500000000E-02 0. -1.
         -2   -1    0    0    0  501 -0.00000000000E+00 -0.00000000000E+00 -0.28016347184E+03  0.28016347186E+03  0.25500000000E-02 0.  1.
    8880022    1    1    2    0    0  0.52563135219E+03  0.11246427275E+03  0.10877230036E+03  0.56935015359E+03  0.15294330000E+03 0.  0.
    8880022    1    1    2    0    0 -0.52563135219E+03 -0.11246427275E+03  0.15156945370E+04  0.16154436275E+04  0.15294330000E+03 0.  0.
<mgrwt>
<rscale>  0 0.55886330E+03</rscale>
<asrwt>0</asrwt>
<pdfrwt beam="1">  1        2 0.29302005E+00 0.55886330E+03</pdfrwt>
<pdfrwt beam="2">  1       -2 0.43102072E-01 0.55886330E+03</pdfrwt>
<totfact> 0.40743793E+01</totfact>
</mgrwt>
</event>
<event>
 4    1  0.5410820E-008  0.1002808E+04  0.7818608E-02  0.9305471E-01
          2   -1    0    0  501    0  0.00000000000E+00  0.00000000000E+00  0.13400566299E+04  0.13400566299E+04  0.25500000000E-02 0. -1.
         -2   -1    0    0    0  501 -0.00000000000E+00 -0.00000000000E+00 -0.93855534217E+03  0.93855534217E+03  0.25500000000E-02 0.  1.
    8880022    1    1    2    0    0 -0.42861709995E+03 -0.89359878865E+03 -0.30931999350E+03  0.10494293329E+04  0.15294330000E+03 0.  0.
    8880022    1    1    2    0    0  0.42861709995E+03  0.89359878865E+03  0.71082128121E+03  0.12291826391E+04  0.15294330000E+03 0.  0.
<mgrwt>
<rscale>  0 0.10028076E+04</rscale>
<asrwt>0</asrwt>
<pdfrwt beam="1">  1        2 0.20616256E+00 0.10028076E+04</pdfrwt>
<pdfrwt beam="2">  1       -2 0.14439313E+00 0.10028076E+04</pdfrwt>
<totfact> 0.51477619E+00</totfact>
</mgrwt>
</event>
<event>
 4    1  0.5410820E-008  0.2610433E+03  0.7818608E-02  0.1106518E+00
         -2   -1    0    0    0  501 -0.00000000000E+00  0.00000000000E+00  0.53567388075E+02  0.53567388135E+02  0.25500000000E-02 0.  1.
          2   -1    0    0  501    0  0.00000000000E+00 -0.00000000000E+00 -0.17953648871E+04  0.17953648871E+04  0.25500000000E-02 0. -1.
    8880022    1    1    2    0    0  0.79593616243E+02  0.19600204032E+03 -0.13699801622E+04  0.13946287109E+04  0.15294330000E+03 0.  0.
    8880022    1    1    2    0    0 -0.79593616243E+02 -0.19600204032E+03 -0.37181733686E+03  0.45430356433E+03  0.15294330000E+03 0.  1.
<mgrwt>
<rscale>  0 0.26104328E+03</rscale>
<asrwt>0</asrwt>
<pdfrwt beam="1">  1        2 0.27620994E+00 0.26104328E+03</pdfrwt>
<pdfrwt beam="2">  1       -2 0.82411380E-02 0.26104328E+03</pdfrwt>
<totfact> 0.86072501E+02</totfact>
</mgrwt>
</event>
<event>
 4    1  0.5410820E-008  0.3633923E+03  0.7818608E-02  0.1057249E+00
         -2   -1    0    0    0  501 -0.00000000000E+00  0.00000000000E+00  0.39521504665E+03  0.39521504666E+03  0.25500000000E-02 0.  1.
          2   -1    0    0  501    0  0.00000000000E+00 -0.00000000000E+00 -0.39100680964E+03  0.39100680965E+03  0.25500000000E-02 0. -1.
    8880022    1    1    2    0    0 -0.13195481243E+03  0.30207653898E+03 -0.14782405618E+03  0.39230844055E+03  0.15294330000E+03 0.  0.
    8880022    1    1    2    0    0  0.13195481243E+03 -0.30207653898E+03  0.15203229319E+03  0.39391341576E+03  0.15294330000E+03 0.  0.
<mgrwt>
<rscale>  0 0.36339230E+03</rscale>
<asrwt>0</asrwt>
<pdfrwt beam="1">  1        2 0.60154894E-01 0.36339230E+03</pdfrwt>
<pdfrwt beam="2">  1       -2 0.60802314E-01 0.36339230E+03</pdfrwt>
<totfact> 0.21096980E+02</totfact>
</mgrwt>
</event>
<event>
 4    1  0.5410820E-008  0.2968117E+03  0.7818608E-02  0.1086845E+00
         -2   -1    0    0    0  501 -0.00000000000E+00  0.00000000000E+00  0.15166932793E+03  0.15166932795E+03  0.25500000000E-02 0.  1.
          2   -1    0    0  501    0  0.00000000000E+00 -0.00000000000E+00 -0.12775998085E+04  0.12775998085E+04  0.25500000000E-02 0. -1.
    8880022    1    1    2    0    0 -0.12131926926E+03 -0.22357808784E+03 -0.10907112115E+04  0.11303752149E+04  0.15294330000E+03 0.  0.
    8880022    1    1    2    0    0  0.12131926926E+03  0.22357808784E+03 -0.35219269108E+02  0.29889392163E+03  0.15294330000E+03 0.  1.
<mgrwt>
<rscale>  0 0.29681169E+03</rscale>
<asrwt>0</asrwt>
<pdfrwt beam="1">  1        2 0.19655381E+00 0.29681169E+03</pdfrwt>
<pdfrwt beam="2">  1       -2 0.23333744E-01 0.29681169E+03</pdfrwt>
<totfact> 0.29119368E+02</totfact>
</mgrwt>
</event>
<event>
 4    1  0.5410820E-008  0.4720662E+03  0.7818608E-02  0.1021339E+00
          2   -1    0    0  501    0  0.00000000000E+00  0.00000000000E+00  0.21706909130E+04  0.21706909130E+04  0.25500000000E-02 0. -1.
         -2   -1    0    0    0  501 -0.00000000000E+00 -0.00000000000E+00 -0.22907676384E+03  0.22907676386E+03  0.25500000000E-02 0.  1.
    8880022    1    1    2    0    0 -0.42544959052E+02  0.44457259111E+03  0.79456930851E+02  0.47870650631E+03  0.15294330000E+03 0.  0.
    8880022    1    1    2    0    0  0.42544959052E+02 -0.44457259111E+03  0.18621572183E+04  0.19210611706E+04  0.15294330000E+03 0.  0.
<mgrwt>
<rscale>  0 0.47206622E+03</rscale>
<asrwt>0</asrwt>
<pdfrwt beam="1">  1        2 0.33395246E+00 0.47206622E+03</pdfrwt>
<pdfrwt beam="2">  1       -2 0.35242578E-01 0.47206622E+03</pdfrwt>
<totfact> 0.43860075E+01</totfact>
</mgrwt>
</event>
<event>
 4    1  0.5410820E-008  0.8563929E+03  0.7818608E-02  0.9481797E-01
          2   -1    0    0  501    0  0.00000000000E+00  0.00000000000E+00  0.42584732557E+04  0.42584732557E+04  0.25500000000E-02 0. -1.
         -2   -1    0    0    0  501 -0.00000000000E+00 -0.00000000000E+00 -0.34048296179E+03  0.34048296180E+03  0.25500000000E-02 0.  1.
    8880022    1    1    2    0    0  0.32682526391E+03 -0.77666105311E+03  0.35754792855E+04  0.36766099764E+04  0.15294330000E+03 0.  0.
    8880022    1    1    2    0    0 -0.32682526391E+03  0.77666105311E+03  0.34251100841E+03  0.92234624109E+03  0.15294330000E+03 0.  0.
<mgrwt>
<rscale>  0 0.85639290E+03</rscale>
<asrwt>0</asrwt>
<pdfrwt beam="1">  1        2 0.65514973E+00 0.85639290E+03</pdfrwt>
<pdfrwt beam="2">  1       -2 0.52381995E-01 0.85639290E+03</pdfrwt>
<totfact> 0.78010690E-01</totfact>
</mgrwt>
</event>
<event>
 4    1  0.5410820E-008  0.2511583E+03  0.7818608E-02  0.1112575E+00
          2   -1    0    0  501    0  0.00000000000E+00  0.00000000000E+00  0.39814881818E+03  0.39814881818E+03  0.25500000000E-02 0. -1.
         -2   -1    0    0    0  501 -0.00000000000E+00 -0.00000000000E+00 -0.17725954332E+03  0.17725954334E+03  0.25500000000E-02 0.  1.
    8880022    1    1    2    0    0  0.16488494061E+03 -0.11181137154E+03  0.16686233418E+02  0.25171195809E+03  0.15294330000E+03 0.  0.
    8880022    1    1    2    0    0 -0.16488494061E+03  0.11181137154E+03  0.20420304144E+03  0.32369640343E+03  0.15294330000E+03 0.  1.
<mgrwt>
<rscale>  0 0.25115828E+03</rscale>
<asrwt>0</asrwt>
<pdfrwt beam="1">  1        2 0.61253664E-01 0.25115828E+03</pdfrwt>
<pdfrwt beam="2">  1       -2 0.27270699E-01 0.25115828E+03</pdfrwt>
<totfact> 0.97701473E+02</totfact>
</mgrwt>
</event>
<event>
 4    1  0.5410820E-008  0.8551342E+03  0.7818608E-02  0.9483472E-01
          2   -1    0    0  501    0  0.00000000000E+00  0.00000000000E+00  0.21279165709E+04  0.21279165709E+04  0.25500000000E-02 0. -1.
         -2   -1    0    0    0  501 -0.00000000000E+00 -0.00000000000E+00 -0.39450837228E+03  0.39450837229E+03  0.25500000000E-02 0.  1.
    8880022    1    1    2    0    0  0.83791407454E+03  0.75913224916E+02  0.13195490442E+04  0.15724071187E+04  0.15294330000E+03 0.  0.
    8880022    1    1    2    0    0 -0.83791407454E+03 -0.75913224916E+02  0.41385915441E+03  0.95001782443E+03  0.15294330000E+03 0.  0.
<mgrwt>
<rscale>  0 0.85513418E+03</rscale>
<asrwt>0</asrwt>
<pdfrwt beam="1">  1        2 0.32737178E+00 0.85513418E+03</pdfrwt>
<pdfrwt beam="2">  1       -2 0.60693596E-01 0.85513418E+03</pdfrwt>
<totfact> 0.14653733E+01</totfact>
</mgrwt>
</event>
<event>
 4    1  0.5410820E-008  0.8118217E+03  0.7818608E-02  0.9543062E-01
         -2   -1    0    0    0  501 -0.00000000000E+00  0.00000000000E+00  0.28004649965E+03  0.28004649966E+03  0.25500000000E-02 0.  1.
          2   -1    0    0  501    0  0.00000000000E+00 -0.00000000000E+00 -0.25947948454E+04  0.25947948454E+04  0.25500000000E-02 0. -1.
    8880022    1    1    2    0    0 -0.30449425261E+03 -0.73684879281E+03 -0.71892577561E+03  0.10843932945E+04  0.15294330000E+03 0.  0.
    8880022    1    1    2    0    0  0.30449425261E+03  0.73684879281E+03 -0.15958225701E+04  0.17904480505E+04  0.15294330000E+03 0.  0.
<mgrwt>
<rscale>  0 0.81182175E+03</rscale>
<asrwt>0</asrwt>
<pdfrwt beam="1">  1        2 0.39919919E+00 0.81182175E+03</pdfrwt>
<pdfrwt beam="2">  1       -2 0.43084078E-01 0.81182175E+03</pdfrwt>
<totfact> 0.16270052E+01</totfact>
</mgrwt>
</event>
<event>
 4    1  0.5410820E-008  0.8551928E+03  0.7818608E-02  0.9483394E-01
         -2   -1    0    0    0  501 -0.00000000000E+00  0.00000000000E+00  0.77305061908E+03  0.77305061909E+03  0.25500000000E-02 0.  1.
          2   -1    0    0  501    0  0.00000000000E+00 -0.00000000000E+00 -0.11498415591E+04  0.11498415591E+04  0.25500000000E-02 0. -1.
    8880022    1    1    2    0    0 -0.30691762171E+03  0.78343134185E+03  0.21635276232E+03  0.88213562715E+03  0.15294330000E+03 0.  0.
    8880022    1    1    2    0    0  0.30691762171E+03 -0.78343134185E+03 -0.59314370234E+03  0.10407565510E+04  0.15294330000E+03 0.  0.
<mgrwt>
<rscale>  0 0.85519281E+03</rscale>
<asrwt>0</asrwt>
<pdfrwt beam="1">  1        2 0.17689870E+00 0.85519281E+03</pdfrwt>
<pdfrwt beam="2">  1       -2 0.11893086E+00 0.85519281E+03</pdfrwt>
<totfact> 0.11101039E+01</totfact>
</mgrwt>
</event>
<event>
 4    1  0.5410820E-008  0.6072529E+03  0.7818608E-02  0.9890472E-01
         -2   -1    0    0    0  501 -0.00000000000E+00  0.00000000000E+00  0.64595111853E+03  0.64595111854E+03  0.25500000000E-02 0.  1.
          2   -1    0    0  501    0  0.00000000000E+00 -0.00000000000E+00 -0.12306580281E+04  0.12306580281E+04  0.25500000000E-02 0. -1.
    8880022    1    1    2    0    0 -0.48802366776E+03 -0.32741007655E+03 -0.97938445978E+03  0.11523671427E+04  0.15294330000E+03 0.  0.
    8880022    1    1    2    0    0  0.48802366776E+03  0.32741007655E+03  0.39467755025E+03  0.72424200390E+03  0.15294330000E+03 0.  0.
<mgrwt>
<rscale>  0 0.60725292E+03</rscale>
<asrwt>0</asrwt>
<pdfrwt beam="1">  1        2 0.18933200E+00 0.60725292E+03</pdfrwt>
<pdfrwt beam="2">  1       -2 0.99377095E-01 0.60725292E+03</pdfrwt>
<totfact> 0.15818843E+01</totfact>
</mgrwt>
</event>
<event>
 4    1  0.5410820E-008  0.2362927E+03  0.7818608E-02  0.1122287E+00
          2   -1    0    0  501    0  0.00000000000E+00  0.00000000000E+00  0.21949209500E+04  0.21949209500E+04  0.25500000000E-02 0. -1.
         -2   -1    0    0    0  501 -0.00000000000E+00 -0.00000000000E+00 -0.33150535958E+03  0.33150535959E+03  0.25500000000E-02 0.  1.
    8880022    1    1    2    0    0  0.16320335944E+03  0.76205451963E+02 -0.28207203345E+03  0.36796588498E+03  0.15294330000E+03 0.  0.
    8880022    1    1    2    0    0 -0.16320335944E+03 -0.76205451963E+02  0.21454876239E+04  0.21584604246E+04  0.15294330000E+03 0. -1.
<mgrwt>
<rscale>  0 0.23629274E+03</rscale>
<asrwt>0</asrwt>
<pdfrwt beam="1">  1        2 0.33768015E+00 0.23629274E+03</pdfrwt>
<pdfrwt beam="2">  1       -2 0.51000823E-01 0.23629274E+03</pdfrwt>
<totfact> 0.22300868E+01</totfact>
</mgrwt>
</event>
<event>
 4    1  0.5410820E-008  0.5876395E+03  0.7818608E-02  0.9931387E-01
          2   -1    0    0  501    0  0.00000000000E+00  0.00000000000E+00  0.24813795008E+04  0.24813795008E+04  0.25500000000E-02 0. -1.
         -2   -1    0    0    0  501 -0.00000000000E+00 -0.00000000000E+00 -0.39595442631E+03  0.39595442631E+03  0.25500000000E-02 0.  1.
    8880022    1    1    2    0    0  0.14380215476E+03 -0.54886195916E+03  0.22012940235E+04  0.22783800255E+04  0.15294330000E+03 0. -1.
    8880022    1    1    2    0    0 -0.14380215476E+03  0.54886195916E+03 -0.11586894894E+03  0.59895390162E+03  0.15294330000E+03 0.  0.
<mgrwt>
<rscale>  0 0.58763948E+03</rscale>
<asrwt>0</asrwt>
<pdfrwt beam="1">  1        2 0.38175069E+00 0.58763948E+03</pdfrwt>
<pdfrwt beam="2">  1       -2 0.60916067E-01 0.58763948E+03</pdfrwt>
<totfact> 0.96747084E+00</totfact>
</mgrwt>
</event>
<event>
 4    1  0.7262412E-008  0.1207198E+04  0.7818608E-02  0.9106579E-01
          2   -1    0    0  501    0  0.00000000000E+00  0.00000000000E+00  0.21587997281E+04  0.21587997281E+04  0.25500000000E-02 0. -1.
         -2   -1    0    0    0  501 -0.00000000000E+00 -0.00000000000E+00 -0.16079793433E+04  0.16079793433E+04  0.25500000000E-02 0.  1.
    8880022    1    1    2    0    0  0.66735627128E+03  0.99426919692E+03  0.17099781082E+04  0.20931680325E+04  0.15294330000E+03 0.  0.
    8880022    1    1    2    0    0 -0.66735627128E+03 -0.99426919692E+03 -0.11591577234E+04  0.16736110389E+04  0.15294330000E+03 0.  0.
<mgrwt>
<rscale>  0 0.12071981E+04</rscale>
<asrwt>0</asrwt>
<pdfrwt beam="1">  1        2 0.33212304E+00 0.12071981E+04</pdfrwt>
<pdfrwt beam="2">  1       -2 0.24738144E+00 0.12071981E+04</pdfrwt>
<totfact> 0.35341720E-01</totfact>
</mgrwt>
</event>
<event>
 4    1  0.1136560E-007  0.7922711E+03  0.7818608E-02  0.9571272E-01
         -2   -1    0    0    0  501 -0.00000000000E+00  0.00000000000E+00  0.76139046987E+03  0.76139046988E+03  0.25500000000E-02 0.  1.
          2   -1    0    0  501    0  0.00000000000E+00 -0.00000000000E+00 -0.20790602795E+04  0.20790602795E+04  0.25500000000E-02 0. -1.
    8880022    1    1    2    0    0 -0.37317829259E+03  0.68193824877E+03  0.44444595205E+03  0.90841932526E+03  0.15294330000E+03 0.  1.
    8880022    1    1    2    0    0  0.37317829259E+03 -0.68193824877E+03 -0.17621157617E+04  0.19320314241E+04  0.15294330000E+03 0.  0.
<mgrwt>
<rscale>  0 0.79227108E+03</rscale>
<asrwt>0</asrwt>
<pdfrwt beam="1">  1        2 0.31985542E+00 0.79227108E+03</pdfrwt>
<pdfrwt beam="2">  1       -2 0.11713700E+00 0.79227108E+03</pdfrwt>
<totfact> 0.35080291E+00</totfact>
</mgrwt>
</event>
<event>
 4    1  0.5410820E-008  0.3183267E+03  0.7818608E-02  0.1076422E+00
          2   -1    0    0  501    0  0.00000000000E+00  0.00000000000E+00  0.21655726217E+04  0.21655726217E+04  0.25500000000E-02 0. -1.
         -2   -1    0    0    0  501 -0.00000000000E+00 -0.00000000000E+00 -0.54678297254E+03  0.54678297255E+03  0.25500000000E-02 0.  1.
    8880022    1    1    2    0    0 -0.12106631312E+03 -0.25156145081E+03  0.21062460047E+04  0.21301652755E+04  0.15294330000E+03 0.  0.
    8880022    1    1    2    0    0  0.12106631312E+03  0.25156145081E+03 -0.48745635551E+03  0.58219031875E+03  0.15294330000E+03 0.  0.
<mgrwt>
<rscale>  0 0.31832667E+03</rscale>
<asrwt>0</asrwt>
<pdfrwt beam="1">  1        2 0.33316502E+00 0.31832667E+03</pdfrwt>
<pdfrwt beam="2">  1       -2 0.84120457E-01 0.31832667E+03</pdfrwt>
<totfact> 0.77151306E+00</totfact>
</mgrwt>
</event>
<event>
 4    1  0.5410820E-008  0.7095732E+03  0.7818608E-02  0.9700999E-01
          2   -1    0    0  501    0  0.00000000000E+00  0.00000000000E+00  0.14386152312E+04  0.14386152312E+04  0.25500000000E-02 0. -1.
         -2   -1    0    0    0  501 -0.00000000000E+00 -0.00000000000E+00 -0.12919367672E+04  0.12919367672E+04  0.25500000000E-02 0.  1.
    8880022    1    1    2    0    0 -0.62023266720E+03  0.30889146386E+03  0.12391125077E+04  0.14278984409E+04  0.15294330000E+03 0.  0.
    8880022    1    1    2    0    0  0.62023266720E+03 -0.30889146386E+03 -0.10924340437E+04  0.13026535575E+04  0.15294330000E+03 0.  0.
<mgrwt>
<rscale>  0 0.70957322E+03</rscale>
<asrwt>0</asrwt>
<pdfrwt beam="1">  1        2 0.22132542E+00 0.70957322E+03</pdfrwt>
<pdfrwt beam="2">  1       -2 0.19875950E+00 0.70957322E+03</pdfrwt>
<totfact> 0.19357317E+00</totfact>
</mgrwt>
</event>
<event>
 4    1  0.5410820E-008  0.4484609E+03  0.7818608E-02  0.1028182E+00
         -2   -1    0    0    0  501 -0.00000000000E+00  0.00000000000E+00  0.25157219771E+03  0.25157219772E+03  0.25500000000E-02 0.  1.
          2   -1    0    0  501    0  0.00000000000E+00 -0.00000000000E+00 -0.25293340221E+04  0.25293340221E+04  0.25500000000E-02 0. -1.
    8880022    1    1    2    0    0 -0.30502621031E+03  0.29100613074E+03  0.11026406290E+02  0.44859646873E+03  0.15294330000E+03 0.  0.
    8880022    1    1    2    0    0  0.30502621031E+03 -0.29100613074E+03 -0.22887882307E+04  0.23323097511E+04  0.15294330000E+03 0.  0.
<mgrwt>
<rscale>  0 0.44846093E+03</rscale>
<asrwt>0</asrwt>
<pdfrwt beam="1">  1        2 0.38912830E+00 0.44846093E+03</pdfrwt>
<pdfrwt beam="2">  1       -2 0.38703417E-01 0.44846093E+03</pdfrwt>
<totfact> 0.23426628E+01</totfact>
</mgrwt>
</event>
<event>
 4    1  0.5410820E-008  0.2845531E+03  0.7818608E-02  0.1093228E+00
          2   -1    0    0  501    0  0.00000000000E+00  0.00000000000E+00  0.11433891301E+04  0.11433891301E+04  0.25500000000E-02 0. -1.
         -2   -1    0    0    0  501 -0.00000000000E+00 -0.00000000000E+00 -0.35150682092E+03  0.35150682093E+03  0.25500000000E-02 0.  1.
    8880022    1    1    2    0    0  0.13754288550E+03  0.19662348482E+03  0.10638666615E+04  0.11012641675E+04  0.15294330000E+03 0. -1.
    8880022    1    1    2    0    0 -0.13754288550E+03 -0.19662348482E+03 -0.27198435229E+03  0.39363178357E+03  0.15294330000E+03 0.  0.
<mgrwt>
<rscale>  0 0.28455315E+03</rscale>
<asrwt>0</asrwt>
<pdfrwt beam="1">  1        2 0.17590602E+00 0.28455315E+03</pdfrwt>
<pdfrwt beam="2">  1       -2 0.54077972E-01 0.28455315E+03</pdfrwt>
<totfact> 0.71387109E+01</totfact>
</mgrwt>
</event>
<event>
 4    1  0.5410820E-008  0.4753278E+03  0.7818608E-02  0.1020427E+00
         -2   -1    0    0    0  501 -0.00000000000E+00  0.00000000000E+00  0.11827096107E+03  0.11827096110E+03  0.25500000000E-02 0.  1.
          2   -1    0    0  501    0  0.00000000000E+00 -0.00000000000E+00 -0.36273589483E+04  0.36273589483E+04  0.25500000000E-02 0. -1.
    8880022    1    1    2    0    0 -0.28582218536E+03 -0.34763567917E+03 -0.46603208382E+03  0.66567442735E+03  0.15294330000E+03 0.  0.
    8880022    1    1    2    0    0  0.28582218536E+03  0.34763567917E+03 -0.30430559034E+04  0.30799554820E+04  0.15294330000E+03 0.  0.
<mgrwt>
<rscale>  0 0.47532782E+03</rscale>
<asrwt>0</asrwt>
<pdfrwt beam="1">  1        2 0.55805514E+00 0.47532782E+03</pdfrwt>
<pdfrwt beam="2">  1       -2 0.18195535E-01 0.47532782E+03</pdfrwt>
<totfact> 0.19136499E+01</totfact>
</mgrwt>
</event>
<event>
 4    1  0.5410820E-008  0.5444723E+03  0.7818608E-02  0.1002782E+00
          2   -1    0    0  501    0  0.00000000000E+00  0.00000000000E+00  0.72861874347E+03  0.72861874348E+03  0.25500000000E-02 0. -1.
         -2   -1    0    0    0  501 -0.00000000000E+00 -0.00000000000E+00 -0.64144610310E+03  0.64144610311E+03  0.25500000000E-02 0.  1.
    8880022    1    1    2    0    0  0.52092601058E+03  0.41164472510E+02  0.45784992394E+03  0.71139062979E+03  0.15294330000E+03 0.  0.
    8880022    1    1    2    0    0 -0.52092601058E+03 -0.41164472510E+02 -0.37067728357E+03  0.65867421679E+03  0.15294330000E+03 0.  0.
<mgrwt>
<rscale>  0 0.54447229E+03</rscale>
<asrwt>0</asrwt>
<pdfrwt beam="1">  1        2 0.11209519E+00 0.54447229E+03</pdfrwt>
<pdfrwt beam="2">  1       -2 0.98684017E-01 0.54447229E+03</pdfrwt>
<totfact> 0.34311219E+01</totfact>
</mgrwt>
</event>
<event>
 4    1  0.5410820E-008  0.3818358E+03  0.7818608E-02  0.1050257E+00
          2   -1    0    0  501    0  0.00000000000E+00  0.00000000000E+00  0.27823761684E+03  0.27823761685E+03  0.25500000000E-02 0. -1.
         -2   -1    0    0    0  501 -0.00000000000E+00 -0.00000000000E+00 -0.53110307380E+03  0.53110307381E+03  0.25500000000E-02 0.  1.
    8880022    1    1    2    0    0 -0.23704261671E+03  0.25732807068E+03 -0.79658515125E+02  0.39005649609E+03  0.15294330000E+03 0.  1.
    8880022    1    1    2    0    0  0.23704261671E+03 -0.25732807068E+03 -0.17320694183E+03  0.41928419457E+03  0.15294330000E+03 0. -1.
<mgrwt>
<rscale>  0 0.38183582E+03</rscale>
<asrwt>0</asrwt>
<pdfrwt beam="1">  1        2 0.42805787E-01 0.38183582E+03</pdfrwt>
<pdfrwt beam="2">  1       -2 0.81708165E-01 0.38183582E+03</pdfrwt>
<totfact> 0.16137172E+02</totfact>
</mgrwt>
</event>
<event>
 4    1  0.5410820E-008  0.2919803E+03  0.7818608E-02  0.1089320E+00
         -2   -1    0    0    0  501 -0.00000000000E+00  0.00000000000E+00  0.43344354618E+03  0.43344354618E+03  0.25500000000E-02 0.  1.
          2   -1    0    0  501    0  0.00000000000E+00 -0.00000000000E+00 -0.98417524421E+03  0.98417524421E+03  0.25500000000E-02 0. -1.
    8880022    1    1    2    0    0 -0.89543615532E+02 -0.23204046913E+03 -0.90940405185E+03  0.95512733231E+03  0.15294330000E+03 0. -1.
    8880022    1    1    2    0    0  0.89543615532E+02  0.23204046913E+03  0.35867235382E+03  0.46249145809E+03  0.15294330000E+03 0.  0.
<mgrwt>
<rscale>  0 0.29198029E+03</rscale>
<asrwt>0</asrwt>
<pdfrwt beam="1">  1        2 0.15141158E+00 0.29198029E+03</pdfrwt>
<pdfrwt beam="2">  1       -2 0.66683623E-01 0.29198029E+03</pdfrwt>
<totfact> 0.57410931E+01</totfact>
</mgrwt>
</event>
<event>
 4    1  0.5410820E-008  0.1087812E+04  0.7818608E-02  0.9217153E-01
          2   -1    0    0  501    0  0.00000000000E+00  0.00000000000E+00  0.30215368377E+04  0.30215368377E+04  0.25500000000E-02 0. -1.
         -2   -1    0    0    0  501 -0.00000000000E+00 -0.00000000000E+00 -0.82895723168E+03  0.82895723168E+03  0.25500000000E-02 0.  1.
    8880022    1    1    2    0    0 -0.68413055453E+02 -0.10748317498E+04 -0.30207950610E+03  0.11289762254E+04  0.15294330000E+03 0.  0.
    8880022    1    1    2    0    0  0.68413055453E+02  0.10748317498E+04  0.24946591121E+04  0.27215178440E+04  0.15294330000E+03 0.  0.
<mgrwt>
<rscale>  0 0.10878122E+04</rscale>
<asrwt>0</asrwt>
<pdfrwt beam="1">  1        2 0.46485182E+00 0.10878122E+04</pdfrwt>
<pdfrwt beam="2">  1       -2 0.12753188E+00 0.10878122E+04</pdfrwt>
<totfact> 0.77229031E-01</totfact>
</mgrwt>
</event>
<event>
 4    1  0.5410820E-008  0.5925397E+03  0.7818608E-02  0.9921006E-01
          2   -1    0    0  501    0  0.00000000000E+00  0.00000000000E+00  0.22366648775E+04  0.22366648775E+04  0.25500000000E-02 0. -1.
         -2   -1    0    0    0  501 -0.00000000000E+00 -0.00000000000E+00 -0.35424302958E+03  0.35424302959E+03  0.25500000000E-02 0.  1.
    8880022    1    1    2    0    0  0.54059352149E+03 -0.18833545573E+03  0.19079255906E+04  0.19978196394E+04  0.15294330000E+03 0. -1.
    8880022    1    1    2    0    0 -0.54059352149E+03  0.18833545573E+03 -0.25503742667E+02  0.59308826769E+03  0.15294330000E+03 0.  0.
<mgrwt>
<rscale>  0 0.59253966E+03</rscale>
<asrwt>0</asrwt>
<pdfrwt beam="1">  1        2 0.34410230E+00 0.59253966E+03</pdfrwt>
<pdfrwt beam="2">  1       -2 0.54498926E-01 0.59253966E+03</pdfrwt>
<totfact> 0.16664816E+01</totfact>
</mgrwt>
</event>
<event>
 4    1  0.5410820E-008  0.6862136E+03  0.7818608E-02  0.9741104E-01
          2   -1    0    0  501    0  0.00000000000E+00  0.00000000000E+00  0.87818877966E+03  0.87818877967E+03  0.25500000000E-02 0. -1.
         -2   -1    0    0    0  501 -0.00000000000E+00 -0.00000000000E+00 -0.63266697721E+03  0.63266697721E+03  0.25500000000E-02 0.  1.
    8880022    1    1    2    0    0  0.66298134921E+03  0.89180318337E+02  0.41773502683E+03  0.80336268536E+03  0.15294330000E+03 0.  0.
    8880022    1    1    2    0    0 -0.66298134921E+03 -0.89180318337E+02 -0.17221322438E+03  0.70749307151E+03  0.15294330000E+03 0.  0.
<mgrwt>
<rscale>  0 0.68621356E+03</rscale>
<asrwt>0</asrwt>
<pdfrwt beam="1">  1        2 0.13510597E+00 0.68621356E+03</pdfrwt>
<pdfrwt beam="2">  1       -2 0.97333381E-01 0.68621356E+03</pdfrwt>
<totfact> 0.27285576E+01</totfact>
</mgrwt>
</event>
<event>
 4    1  0.5410820E-008  0.2775963E+03  0.7818608E-02  0.1097009E+00
         -2   -1    0    0    0  501 -0.00000000000E+00  0.00000000000E+00  0.13339631386E+04  0.13339631386E+04  0.25500000000E-02 0.  1.
          2   -1    0    0  501    0  0.00000000000E+00 -0.00000000000E+00 -0.31165173975E+03  0.31165173976E+03  0.25500000000E-02 0. -1.
    8880022    1    1    2    0    0  0.21123756646E+03 -0.95114439478E+02 -0.23148936766E+03  0.36145130576E+03  0.15294330000E+03 0.  0.
    8880022    1    1    2    0    0 -0.21123756646E+03  0.95114439478E+02  0.12538007665E+04  0.12841635726E+04  0.15294330000E+03 0.  1.
<mgrwt>
<rscale>  0 0.27759632E+03</rscale>
<asrwt>0</asrwt>
<pdfrwt beam="1">  1        2 0.47946422E-01 0.27759632E+03</pdfrwt>
<pdfrwt beam="2">  1       -2 0.20522510E+00 0.27759632E+03</pdfrwt>
<totfact> 0.14125819E+01</totfact>
</mgrwt>
</event>
<event>
 4    1  0.5410820E-008  0.3162164E+03  0.7818608E-02  0.1077404E+00
          2   -1    0    0  501    0  0.00000000000E+00  0.00000000000E+00  0.52830833049E+03  0.52830833049E+03  0.25500000000E-02 0. -1.
         -2   -1    0    0    0  501 -0.00000000000E+00 -0.00000000000E+00 -0.46270869381E+03  0.46270869382E+03  0.25500000000E-02 0.  1.
    8880022    1    1    2    0    0  0.24798098551E+03 -0.12290884837E+03 -0.34811462578E+03  0.47029416313E+03  0.15294330000E+03 0.  1.
    8880022    1    1    2    0    0 -0.24798098551E+03  0.12290884837E+03  0.41371426245E+03  0.52072286118E+03  0.15294330000E+03 0.  0.
<mgrwt>
<rscale>  0 0.31621639E+03</rscale>
<asrwt>0</asrwt>
<pdfrwt beam="1">  1        2 0.81278205E-01 0.31621639E+03</pdfrwt>
<pdfrwt beam="2">  1       -2 0.71185953E-01 0.31621639E+03</pdfrwt>
<totfact> 0.10814590E+02</totfact>
</mgrwt>
</event>
<event>
 4    1  0.5410820E-008  0.3952439E+03  0.7818608E-02  0.1045439E+00
         -2   -1    0    0    0  501 -0.00000000000E+00  0.00000000000E+00  0.71733354721E+03  0.71733354722E+03  0.25500000000E-02 0.  1.
          2   -1    0    0  501    0  0.00000000000E+00 -0.00000000000E+00 -0.33615404869E+03  0.33615404870E+03  0.25500000000E-02 0. -1.
    8880022    1    1    2    0    0 -0.57669925808E+02  0.35986140707E+03  0.50317370077E+03  0.63984488652E+03  0.15294330000E+03 0.  0.
    8880022    1    1    2    0    0  0.57669925808E+02 -0.35986140707E+03 -0.12199420225E+03  0.41364270940E+03  0.15294330000E+03 0. -1.
<mgrwt>
<rscale>  0 0.39524386E+03</rscale>
<asrwt>0</asrwt>
<pdfrwt beam="1">  1        2 0.51716008E-01 0.39524386E+03</pdfrwt>
<pdfrwt beam="2">  1       -2 0.11035901E+00 0.39524386E+03</pdfrwt>
<totfact> 0.65338898E+01</totfact>
</mgrwt>
</event>
<event>
 4    1  0.5410820E-008  0.2403597E+04  0.7818608E-02  0.8438158E-01
         -2   -1    0    0    0  501 -0.00000000000E+00  0.00000000000E+00  0.18359433656E+04  0.18359433656E+04  0.25500000000E-02 0.  1.
          2   -1    0    0  501    0  0.00000000000E+00 -0.00000000000E+00 -0.39573055214E+04  0.39573055214E+04  0.25500000000E-02 0. -1.
    8880022    1    1    2    0    0  0.23942779078E+04 -0.14601058039E+03  0.25025187023E+03  0.24165892164E+04  0.15294330000E+03 0.  0.
    8880022    1    1    2    0    0 -0.23942779078E+04  0.14601058039E+03 -0.23716140261E+04  0.33766596706E+04  0.15294330000E+03 0.  0.
<mgrwt>
<rscale>  0 0.24035968E+04</rscale>
<asrwt>0</asrwt>
<pdfrwt beam="1">  1        2 0.60881623E+00 0.24035968E+04</pdfrwt>
<pdfrwt beam="2">  1       -2 0.28245283E+00 0.24035968E+04</pdfrwt>
<totfact> 0.12790494E-02</totfact>
</mgrwt>
</event>
<event>
 4    1  0.5410820E-008  0.5953014E+03  0.7818608E-02  0.9915202E-01
         -2   -1    0    0    0  501 -0.00000000000E+00  0.00000000000E+00  0.29298668264E+03  0.29298668265E+03  0.25500000000E-02 0.  1.
          2   -1    0    0  501    0  0.00000000000E+00 -0.00000000000E+00 -0.22325109522E+04  0.22325109522E+04  0.25500000000E-02 0. -1.
    8880022    1    1    2    0    0  0.57520064389E+03 -0.11675419844E+02 -0.18245305434E+04  0.19191913540E+04  0.15294330000E+03 0.  0.
    8880022    1    1    2    0    0 -0.57520064389E+03  0.11675419844E+02 -0.11499372608E+03  0.60630628086E+03  0.15294330000E+03 0.  0.
<mgrwt>
<rscale>  0 0.59530139E+03</rscale>
<asrwt>0</asrwt>
<pdfrwt beam="1">  1        2 0.34346321E+00 0.59530139E+03</pdfrwt>
<pdfrwt beam="2">  1       -2 0.45074876E-01 0.59530139E+03</pdfrwt>
<totfact> 0.24594180E+01</totfact>
</mgrwt>
</event>
<event>
 4    1  0.5410820E-008  0.1689688E+03  0.7818608E-02  0.1178928E+00
         -2   -1    0    0    0  501 -0.00000000000E+00  0.00000000000E+00  0.59440059447E+02  0.59440059501E+02  0.25500000000E-02 0.  1.
          2   -1    0    0  501    0  0.00000000000E+00 -0.00000000000E+00 -0.15755737071E+04  0.15755737071E+04  0.25500000000E-02 0. -1.
    8880022    1    1    2    0    0 -0.71350653831E+02  0.82394140473E+01 -0.76468160909E+02  0.18546653713E+03  0.15294330000E+03 0.  0.
    8880022    1    1    2    0    0  0.71350653831E+02 -0.82394140473E+01 -0.14396654867E+04  0.14495472294E+04  0.15294330000E+03 0. -1.
<mgrwt>
<rscale>  0 0.16896880E+03</rscale>
<asrwt>0</asrwt>
<pdfrwt beam="1">  1        2 0.24239592E+00 0.16896880E+03</pdfrwt>
<pdfrwt beam="2">  1       -2 0.91446257E-02 0.16896880E+03</pdfrwt>
<totfact> 0.96326938E+02</totfact>
</mgrwt>
</event>
<event>
 4    1  0.5410820E-008  0.8514235E+03  0.7818608E-02  0.9488428E-01
         -2   -1    0    0    0  501 -0.00000000000E+00  0.00000000000E+00  0.85652599719E+03  0.85652599719E+03  0.25500000000E-02 0.  1.
          2   -1    0    0  501    0  0.00000000000E+00 -0.00000000000E+00 -0.18188069387E+04  0.18188069387E+04  0.25500000000E-02 0. -1.
    8880022    1    1    2    0    0 -0.24056207091E+03  0.80228438789E+03 -0.14592543237E+04  0.16894807437E+04  0.15294330000E+03 0.  0.
    8880022    1    1    2    0    0  0.24056207091E+03 -0.80228438789E+03  0.49697338228E+03  0.98585219213E+03  0.15294330000E+03 0.  0.
<mgrwt>
<rscale>  0 0.85142352E+03</rscale>
<asrwt>0</asrwt>
<pdfrwt beam="1">  1        2 0.27981645E+00 0.85142352E+03</pdfrwt>
<pdfrwt beam="2">  1       -2 0.13177323E+00 0.85142352E+03</pdfrwt>
<totfact> 0.35920817E+00</totfact>
</mgrwt>
</event>
<event>
 4    1  0.5410820E-008  0.6860603E+03  0.7818608E-02  0.9741372E-01
         -2   -1    0    0    0  501 -0.00000000000E+00  0.00000000000E+00  0.79373795756E+03  0.79373795756E+03  0.25500000000E-02 0.  1.
          2   -1    0    0  501    0  0.00000000000E+00 -0.00000000000E+00 -0.94010173516E+03  0.94010173516E+03  0.25500000000E-02 0. -1.
    8880022    1    1    2    0    0 -0.62301037161E+03 -0.24319775018E+03  0.45359428897E+03  0.82245151884E+03  0.15294330000E+03 0.  0.
    8880022    1    1    2    0    0  0.62301037161E+03  0.24319775018E+03 -0.59995806657E+03  0.91138817388E+03  0.15294330000E+03 0.  0.
<mgrwt>
<rscale>  0 0.68606029E+03</rscale>
<asrwt>0</asrwt>
<pdfrwt beam="1">  1        2 0.14463104E+00 0.68606029E+03</pdfrwt>
<pdfrwt beam="2">  1       -2 0.12211353E+00 0.68606029E+03</pdfrwt>
<totfact> 0.14344922E+01</totfact>
</mgrwt>
</event>
<event>
 4    1  0.5410820E-008  0.4031875E+03  0.7818608E-02  0.1042682E+00
         -2   -1    0    0    0  501 -0.00000000000E+00  0.00000000000E+00  0.64146014397E+03  0.64146014398E+03  0.25500000000E-02 0.  1.
          2   -1    0    0  501    0  0.00000000000E+00 -0.00000000000E+00 -0.60628476202E+03  0.60628476202E+03  0.25500000000E-02 0. -1.
    8880022    1    1    2    0    0 -0.32375635075E+03 -0.18533837643E+03  0.49353663790E+03  0.63729000808E+03  0.15294330000E+03 0.  0.
    8880022    1    1    2    0    0  0.32375635075E+03  0.18533837643E+03 -0.45836125595E+03  0.61045489792E+03  0.15294330000E+03 0. -1.
<mgrwt>
<rscale>  0 0.40318748E+03</rscale>
<asrwt>0</asrwt>
<pdfrwt beam="1">  1        2 0.93274579E-01 0.40318748E+03</pdfrwt>
<pdfrwt beam="2">  1       -2 0.98686175E-01 0.40318748E+03</pdfrwt>
<totfact> 0.43736965E+01</totfact>
</mgrwt>
</event>
<event>
 4    1  0.5410820E-008  0.2757404E+03  0.7818608E-02  0.1098038E+00
         -2   -1    0    0    0  501 -0.00000000000E+00  0.00000000000E+00  0.12420154286E+03  0.12420154289E+03  0.25500000000E-02 0.  1.
          2   -1    0    0  501    0  0.00000000000E+00 -0.00000000000E+00 -0.67037600023E+03  0.67037600023E+03  0.25500000000E-02 0. -1.
    8880022    1    1    2    0    0  0.19266922463E+03  0.12457798503E+03 -0.39015085128E+03  0.47775563235E+03  0.15294330000E+03 0.  0.
    8880022    1    1    2    0    0 -0.19266922463E+03 -0.12457798503E+03 -0.15602360608E+03  0.31682191077E+03  0.15294330000E+03 0.  0.
<mgrwt>
<rscale>  0 0.27574038E+03</rscale>
<asrwt>0</asrwt>
<pdfrwt beam="1">  1        2 0.10313477E+00 0.27574038E+03</pdfrwt>
<pdfrwt beam="2">  1       -2 0.19107930E-01 0.27574038E+03</pdfrwt>
<totfact> 0.10071401E+03</totfact>
</mgrwt>
</event>
<event>
 4    1  0.5410820E-008  0.3557147E+03  0.7818608E-02  0.1060294E+00
          2   -1    0    0  501    0  0.00000000000E+00  0.00000000000E+00  0.92097382763E+03  0.92097382763E+03  0.25500000000E-02 0. -1.
         -2   -1    0    0    0  501 -0.00000000000E+00 -0.00000000000E+00 -0.18276639767E+03  0.18276639768E+03  0.25500000000E-02 0.  1.
    8880022    1    1    2    0    0  0.78924692330E+02  0.31130725915E+03  0.94123304832E+02  0.36795674499E+03  0.15294330000E+03 0.  0.
    8880022    1    1    2    0    0 -0.78924692330E+02 -0.31130725915E+03  0.64408412513E+03  0.73578348032E+03  0.15294330000E+03 0.  0.
<mgrwt>
<rscale>  0 0.35571473E+03</rscale>
<asrwt>0</asrwt>
<pdfrwt beam="1">  1        2 0.14168828E+00 0.35571473E+03</pdfrwt>
<pdfrwt beam="2">  1       -2 0.28117907E-01 0.35571473E+03</pdfrwt>
<totfact> 0.33860288E+02</totfact>
</mgrwt>
</event>
<event>
 4    1  0.5410820E-008  0.5955916E+03  0.7818608E-02  0.9914594E-01
         -2   -1    0    0    0  501 -0.00000000000E+00  0.00000000000E+00  0.59576513029E+03  0.59576513030E+03  0.25500000000E-02 0.  1.
          2   -1    0    0  501    0  0.00000000000E+00 -0.00000000000E+00 -0.20517170713E+04  0.20517170713E+04  0.25500000000E-02 0. -1.
    8880022    1    1    2    0    0 -0.72027660599E+02 -0.57109521126E+03  0.38726721949E+03  0.71042612320E+03  0.15294330000E+03 0.  0.
    8880022    1    1    2    0    0  0.72027660599E+02  0.57109521126E+03 -0.18432191605E+04  0.19370560784E+04  0.15294330000E+03 0.  0.
<mgrwt>
<rscale>  0 0.59559162E+03</rscale>
<asrwt>0</asrwt>
<pdfrwt beam="1">  1        2 0.31564878E+00 0.59559162E+03</pdfrwt>
<pdfrwt beam="2">  1       -2 0.91656175E-01 0.59559162E+03</pdfrwt>
<totfact> 0.67562241E+00</totfact>
</mgrwt>
</event>
<event>
 4    1  0.5410820E-008  0.6708119E+03  0.7818608E-02  0.9768492E-01
          2   -1    0    0  501    0  0.00000000000E+00  0.00000000000E+00  0.38855438774E+04  0.38855438774E+04  0.25500000000E-02 0. -1.
         -2   -1    0    0    0  501 -0.00000000000E+00 -0.00000000000E+00 -0.26775821068E+03  0.26775821069E+03  0.25500000000E-02 0.  1.
    8880022    1    1    2    0    0  0.64425009049E+03 -0.10741888225E+03  0.24452628983E+03  0.71399002429E+03  0.15294330000E+03 0.  0.
    8880022    1    1    2    0    0 -0.64425009049E+03  0.10741888225E+03  0.33732593769E+04  0.34393120638E+04  0.15294330000E+03 0. -1.
<mgrwt>
<rscale>  0 0.67081193E+03</rscale>
<asrwt>0</asrwt>
<pdfrwt beam="1">  1        2 0.59777594E+00 0.67081193E+03</pdfrwt>
<pdfrwt beam="2">  1       -2 0.41193574E-01 0.67081193E+03</pdfrwt>
<totfact> 0.26486068E+00</totfact>
</mgrwt>
</event>
<event>
 4    1  0.5410820E-008  0.4321412E+03  0.7818608E-02  0.1033186E+00
         -2   -1    0    0    0  501 -0.00000000000E+00  0.00000000000E+00  0.50019181767E+03  0.50019181768E+03  0.25500000000E-02 0.  1.
          2   -1    0    0  501    0  0.00000000000E+00 -0.00000000000E+00 -0.12317977716E+04  0.12317977716E+04  0.25500000000E-02 0. -1.
    8880022    1    1    2    0    0  0.32895376578E+02  0.40283031791E+03 -0.10887439051E+04  0.11713706992E+04  0.15294330000E+03 0.  0.
    8880022    1    1    2    0    0 -0.32895376578E+02 -0.40283031791E+03  0.35713795118E+03  0.56061889017E+03  0.15294330000E+03 0.  1.
<mgrwt>
<rscale>  0 0.43214121E+03</rscale>
<asrwt>0</asrwt>
<pdfrwt beam="1">  1        2 0.18950735E+00 0.43214121E+03</pdfrwt>
<pdfrwt beam="2">  1       -2 0.76952588E-01 0.43214121E+03</pdfrwt>
<totfact> 0.29131328E+01</totfact>
</mgrwt>
</event>
<event>
 4    1  0.5410820E-008  0.6629912E+03  0.7818608E-02  0.9782703E-01
         -2   -1    0    0    0  501 -0.00000000000E+00  0.00000000000E+00  0.51109716953E+03  0.51109716954E+03  0.25500000000E-02 0.  1.
          2   -1    0    0  501    0  0.00000000000E+00 -0.00000000000E+00 -0.16696419990E+04  0.16696419990E+04  0.25500000000E-02 0. -1.
    8880022    1    1    2    0    0 -0.58097242381E+03 -0.28042239319E+03  0.18000650055E+03  0.68699320891E+03  0.15294330000E+03 0.  0.
    8880022    1    1    2    0    0  0.58097242381E+03  0.28042239319E+03 -0.13385513300E+04  0.14937459596E+04  0.15294330000E+03 0.  1.
<mgrwt>
<rscale>  0 0.66299120E+03</rscale>
<asrwt>0</asrwt>
<pdfrwt beam="1">  1        2 0.25686800E+00 0.66299120E+03</pdfrwt>
<pdfrwt beam="2">  1       -2 0.78630334E-01 0.66299120E+03</pdfrwt>
<totfact> 0.15243317E+01</totfact>
</mgrwt>
</event>
<event>
 4    1  0.5410820E-008  0.2639035E+03  0.7818608E-02  0.1104820E+00
         -2   -1    0    0    0  501 -0.00000000000E+00  0.00000000000E+00  0.17264901377E+03  0.17264901379E+03  0.25500000000E-02 0.  1.
          2   -1    0    0  501    0  0.00000000000E+00 -0.00000000000E+00 -0.69826435640E+03  0.69826435640E+03  0.25500000000E-02 0. -1.
    8880022    1    1    2    0    0  0.19660156456E+03  0.87184943757E+02 -0.54578579259E+03  0.60624019498E+03  0.15294330000E+03 0.  0.
    8880022    1    1    2    0    0 -0.19660156456E+03 -0.87184943757E+02  0.20170449960E+02  0.26467317520E+03  0.15294330000E+03 0.  0.
<mgrwt>
<rscale>  0 0.26390347E+03</rscale>
<asrwt>0</asrwt>
<pdfrwt beam="1">  1        2 0.10742528E+00 0.26390347E+03</pdfrwt>
<pdfrwt beam="2">  1       -2 0.26561387E-01 0.26390347E+03</pdfrwt>
<totfact> 0.53957215E+02</totfact>
</mgrwt>
</event>
<event>
 4    1  0.5410820E-008  0.1881496E+04  0.7818608E-02  0.8664122E-01
          2   -1    0    0  501    0  0.00000000000E+00  0.00000000000E+00  0.19302252576E+04  0.19302252576E+04  0.25500000000E-02 0. -1.
         -2   -1    0    0    0  501 -0.00000000000E+00 -0.00000000000E+00 -0.19720379053E+04  0.19720379053E+04  0.25500000000E-02 0.  1.
    8880022    1    1    2    0    0  0.49540112804E+03  0.18086498202E+04  0.49531055495E+03  0.19456003311E+04  0.15294330000E+03 0.  0.
    8880022    1    1    2    0    0 -0.49540112804E+03 -0.18086498202E+04 -0.53712320261E+03  0.19566628318E+04  0.15294330000E+03 0.  0.
<mgrwt>
<rscale>  0 0.18814962E+04</rscale>
<asrwt>0</asrwt>
<pdfrwt beam="1">  1        2 0.29695773E+00 0.18814962E+04</pdfrwt>
<pdfrwt beam="2">  1       -2 0.30339045E+00 0.18814962E+04</pdfrwt>
<totfact> 0.19949973E-01</totfact>
</mgrwt>
</event>
<event>
 4    1  0.5410820E-008  0.2264929E+03  0.7818608E-02  0.1129133E+00
          2   -1    0    0  501    0  0.00000000000E+00  0.00000000000E+00  0.72322863329E+03  0.72322863329E+03  0.25500000000E-02 0. -1.
         -2   -1    0    0    0  501 -0.00000000000E+00 -0.00000000000E+00 -0.14268204556E+03  0.14268204558E+03  0.25500000000E-02 0.  1.
    8880022    1    1    2    0    0 -0.11106196153E+03 -0.12479024871E+03  0.59729837714E+03  0.63879916235E+03  0.15294330000E+03 0. -1.
    8880022    1    1    2    0    0  0.11106196153E+03  0.12479024871E+03 -0.16751789413E+02  0.22711151652E+03  0.15294330000E+03 0.  0.
<mgrwt>
<rscale>  0 0.22649287E+03</rscale>
<asrwt>0</asrwt>
<pdfrwt beam="1">  1        2 0.11126594E+00 0.22649287E+03</pdfrwt>
<pdfrwt beam="2">  1       -2 0.21951084E-01 0.22649287E+03</pdfrwt>
<totfact> 0.72402839E+02</totfact>
</mgrwt>
</event>
<event>
 4    1  0.5410820E-008  0.5082893E+03  0.7818608E-02  0.1011638E+00
          2   -1    0    0  501    0  0.00000000000E+00  0.00000000000E+00  0.70917622080E+03  0.70917622081E+03  0.25500000000E-02 0. -1.
         -2   -1    0    0    0  501 -0.00000000000E+00 -0.00000000000E+00 -0.64656143703E+03  0.64656143704E+03  0.25500000000E-02 0.  1.
    8880022    1    1    2    0    0  0.28531963818E+03  0.39186608693E+03  0.47918672818E+03  0.69855414930E+03  0.15294330000E+03 0.  0.
    8880022    1    1    2    0    0 -0.28531963818E+03 -0.39186608693E+03 -0.41657194441E+03  0.65718350855E+03  0.15294330000E+03 0.  0.
<mgrwt>
<rscale>  0 0.50828927E+03</rscale>
<asrwt>0</asrwt>
<pdfrwt beam="1">  1        2 0.10910403E+00 0.50828927E+03</pdfrwt>
<pdfrwt beam="2">  1       -2 0.99470990E-01 0.50828927E+03</pdfrwt>
<totfact> 0.34993590E+01</totfact>
</mgrwt>
</event>
<event>
 4    1  0.5410820E-008  0.8681730E+03  0.7818608E-02  0.9466265E-01
         -2   -1    0    0    0  501 -0.00000000000E+00  0.00000000000E+00  0.44027874173E+03  0.44027874174E+03  0.25500000000E-02 0.  1.
          2   -1    0    0  501    0  0.00000000000E+00 -0.00000000000E+00 -0.28190672618E+04  0.28190672618E+04  0.25500000000E-02 0. -1.
    8880022    1    1    2    0    0 -0.45526799297E+03  0.72323149484E+03 -0.16810356918E+03  0.88429814177E+03  0.15294330000E+03 0.  0.
    8880022    1    1    2    0    0  0.45526799297E+03 -0.72323149484E+03 -0.22106849509E+04  0.23750478617E+04  0.15294330000E+03 0. -1.
<mgrwt>
<rscale>  0 0.86817302E+03</rscale>
<asrwt>0</asrwt>
<pdfrwt beam="1">  1        2 0.43370264E+00 0.86817302E+03</pdfrwt>
<pdfrwt beam="2">  1       -2 0.67735193E-01 0.86817302E+03</pdfrwt>
<totfact> 0.46685352E+00</totfact>
</mgrwt>
</event>
<event>
 4    1  0.5410820E-008  0.6030111E+03  0.7818608E-02  0.9899179E-01
         -2   -1    0    0    0  501 -0.00000000000E+00  0.00000000000E+00  0.14306406325E+04  0.14306406325E+04  0.25500000000E-02 0.  1.
          2   -1    0    0  501    0  0.00000000000E+00 -0.00000000000E+00 -0.72624629127E+03  0.72624629128E+03  0.25500000000E-02 0. -1.
    8880022    1    1    2    0    0 -0.86241298591E+02 -0.57688230628E+03 -0.51728893143E+03  0.79448741241E+03  0.15294330000E+03 0.  0.
    8880022    1    1    2    0    0  0.86241298591E+02  0.57688230628E+03  0.12216832727E+04  0.13623995114E+04  0.15294330000E+03 0.  0.
<mgrwt>
<rscale>  0 0.60301112E+03</rscale>
<asrwt>0</asrwt>
<pdfrwt beam="1">  1        2 0.11173020E+00 0.60301112E+03</pdfrwt>
<pdfrwt beam="2">  1       -2 0.22009856E+00 0.60301112E+03</pdfrwt>
<totfact> 0.40441115E+00</totfact>
</mgrwt>
</event>
<event>
 4    1  0.5410820E-008  0.1242500E+04  0.7818608E-02  0.9076448E-01
          2   -1    0    0  501    0  0.00000000000E+00  0.00000000000E+00  0.24884259061E+04  0.24884259061E+04  0.25500000000E-02 0. -1.
         -2   -1    0    0    0  501 -0.00000000000E+00 -0.00000000000E+00 -0.14246698790E+04  0.14246698790E+04  0.25500000000E-02 0.  1.
    8880022    1    1    2    0    0  0.78596912984E+03  0.95008836387E+03  0.20019398732E+04  0.23561770479E+04  0.15294330000E+03 0.  0.
    8880022    1    1    2    0    0 -0.78596912984E+03 -0.95008836387E+03 -0.93818384606E+03  0.15569187372E+04  0.15294330000E+03 0.  0.
<mgrwt>
<rscale>  0 0.12425003E+04</rscale>
<asrwt>0</asrwt>
<pdfrwt beam="1">  1        2 0.38283475E+00 0.12425003E+04</pdfrwt>
<pdfrwt beam="2">  1       -2 0.21917999E+00 0.12425003E+04</pdfrwt>
<totfact> 0.34298092E-01</totfact>
</mgrwt>
</event>
<event>
 4    1  0.5410820E-008  0.8856705E+03  0.7818608E-02  0.9443673E-01
         -2   -1    0    0    0  501 -0.00000000000E+00  0.00000000000E+00  0.36930080640E+04  0.36930080640E+04  0.25500000000E-02 0.  1.
          2   -1    0    0  501    0  0.00000000000E+00 -0.00000000000E+00 -0.37674676513E+03  0.37674676514E+03  0.25500000000E-02 0. -1.
    8880022    1    1    2    0    0  0.17340033029E+03 -0.85495783402E+03  0.31416591989E+03  0.93974062950E+03  0.15294330000E+03 0.  0.
    8880022    1    1    2    0    0 -0.17340033029E+03  0.85495783402E+03  0.30020953789E+04  0.31300141996E+04  0.15294330000E+03 0.  0.
<mgrwt>
<rscale>  0 0.88567049E+03</rscale>
<asrwt>0</asrwt>
<pdfrwt beam="1">  1        2 0.57961038E-01 0.88567049E+03</pdfrwt>
<pdfrwt beam="2">  1       -2 0.56815511E+00 0.88567049E+03</pdfrwt>
<totfact> 0.59548829E-02</totfact>
</mgrwt>
</event>
<event>
 4    1  0.5410820E-008  0.3604669E+03  0.7818608E-02  0.1058399E+00
          2   -1    0    0  501    0  0.00000000000E+00  0.00000000000E+00  0.66643344487E+03  0.66643344488E+03  0.25500000000E-02 0. -1.
         -2   -1    0    0    0  501 -0.00000000000E+00 -0.00000000000E+00 -0.23039171723E+03  0.23039171725E+03  0.25500000000E-02 0.  1.
    8880022    1    1    2    0    0  0.13109243231E+03  0.29893066246E+03  0.42203498272E+02  0.36292913227E+03  0.15294330000E+03 0.  0.
    8880022    1    1    2    0    0 -0.13109243231E+03 -0.29893066246E+03  0.39383822937E+03  0.53389602986E+03  0.15294330000E+03 0.  0.
<mgrwt>
<rscale>  0 0.36046695E+03</rscale>
<asrwt>0</asrwt>
<pdfrwt beam="1">  1        2 0.10252822E+00 0.36046695E+03</pdfrwt>
<pdfrwt beam="2">  1       -2 0.35444880E-01 0.36046695E+03</pdfrwt>
<totfact> 0.33436774E+02</totfact>
</mgrwt>
</event>
<event>
 4    1  0.5410820E-008  0.3046694E+03  0.7818608E-02  0.1082929E+00
          2   -1    0    0  501    0  0.00000000000E+00  0.00000000000E+00  0.13533922630E+04  0.13533922630E+04  0.25500000000E-02 0. -1.
         -2   -1    0    0    0  501 -0.00000000000E+00 -0.00000000000E+00 -0.11677035723E+03  0.11677035726E+03  0.25500000000E-02 0.  1.
    8880022    1    1    2    0    0 -0.34334758872E+02  0.26125262340E+03  0.14611407666E+03  0.33789463641E+03  0.15294330000E+03 0.  1.
    8880022    1    1    2    0    0  0.34334758872E+02 -0.26125262340E+03  0.10905078291E+04  0.11322679838E+04  0.15294330000E+03 0.  0.
<mgrwt>
<rscale>  0 0.30466943E+03</rscale>
<asrwt>0</asrwt>
<pdfrwt beam="1">  1        2 0.20821418E+00 0.30466943E+03</pdfrwt>
<pdfrwt beam="2">  1       -2 0.17964671E-01 0.30466943E+03</pdfrwt>
<totfact> 0.41466973E+02</totfact>
</mgrwt>
</event>
<event>
 4    1  0.5410820E-008  0.9897941E+03  0.7818608E-02  0.9319810E-01
          2   -1    0    0  501    0  0.00000000000E+00  0.00000000000E+00  0.29611666284E+04  0.29611666284E+04  0.25500000000E-02 0. -1.
         -2   -1    0    0    0  501 -0.00000000000E+00 -0.00000000000E+00 -0.76017422546E+03  0.76017422546E+03  0.25500000000E-02 0.  1.
    8880022    1    1    2    0    0  0.97726512988E+03 -0.35406945412E+02 -0.29782586776E+03  0.10336308269E+04  0.15294330000E+03 0.  1.
    8880022    1    1    2    0    0 -0.97726512988E+03  0.35406945412E+02  0.24988182707E+04  0.26877100269E+04  0.15294330000E+03 0.  0.
<mgrwt>
<rscale>  0 0.98979414E+03</rscale>
<asrwt>0</asrwt>
<pdfrwt beam="1">  1        2 0.45556410E+00 0.98979414E+03</pdfrwt>
<pdfrwt beam="2">  1       -2 0.11694988E+00 0.98979414E+03</pdfrwt>
<totfact> 0.10617332E+00</totfact>
</mgrwt>
</event>
<event>
 4    1  0.5410820E-008  0.7099104E+03  0.7818608E-02  0.9700433E-01
          2   -1    0    0  501    0  0.00000000000E+00  0.00000000000E+00  0.53364352034E+03  0.53364352034E+03  0.25500000000E-02 0. -1.
         -2   -1    0    0    0  501 -0.00000000000E+00 -0.00000000000E+00 -0.11340082618E+04  0.11340082618E+04  0.25500000000E-02 0.  1.
    8880022    1    1    2    0    0 -0.41990913522E+03 -0.55159531068E+03  0.40772081090E+02  0.71108022348E+03  0.15294330000E+03 0.  0.
    8880022    1    1    2    0    0  0.41990913522E+03  0.55159531068E+03 -0.64113682256E+03  0.95657155868E+03  0.15294330000E+03 0.  0.
<mgrwt>
<rscale>  0 0.70991036E+03</rscale>
<asrwt>0</asrwt>
<pdfrwt beam="1">  1        2 0.82099003E-01 0.70991036E+03</pdfrwt>
<pdfrwt beam="2">  1       -2 0.17446281E+00 0.70991036E+03</pdfrwt>
<totfact> 0.11539028E+01</totfact>
</mgrwt>
</event>
<event>
 4    1  0.5410820E-008  0.5834915E+03  0.7818608E-02  0.9940260E-01
         -2   -1    0    0    0  501 -0.00000000000E+00  0.00000000000E+00  0.62907500701E+03  0.62907500701E+03  0.25500000000E-02 0.  1.
          2   -1    0    0  501    0  0.00000000000E+00 -0.00000000000E+00 -0.17876611044E+04  0.17876611044E+04  0.25500000000E-02 0. -1.
    8880022    1    1    2    0    0  0.13187503909E+03 -0.54743002352E+03 -0.15882998428E+04  0.16920870842E+04  0.15294330000E+03 0.  0.
    8880022    1    1    2    0    0 -0.13187503909E+03  0.54743002352E+03  0.42971374548E+03  0.72464902723E+03  0.15294330000E+03 0.  0.
<mgrwt>
<rscale>  0 0.58349148E+03</rscale>
<asrwt>0</asrwt>
<pdfrwt beam="1">  1        2 0.27502478E+00 0.58349148E+03</pdfrwt>
<pdfrwt beam="2">  1       -2 0.96780771E-01 0.58349148E+03</pdfrwt>
<totfact> 0.82930139E+00</totfact>
</mgrwt>
</event>
<event>
 4    1  0.5410820E-008  0.5714153E+03  0.7818608E-02  0.9966552E-01
         -2   -1    0    0    0  501 -0.00000000000E+00  0.00000000000E+00  0.24654738527E+03  0.24654738528E+03  0.25500000000E-02 0.  1.
          2   -1    0    0  501    0  0.00000000000E+00 -0.00000000000E+00 -0.17836779512E+04  0.17836779512E+04  0.25500000000E-02 0. -1.
    8880022    1    1    2    0    0 -0.54486564299E+03 -0.79026612509E+02 -0.12836951136E+04  0.14051293791E+04  0.15294330000E+03 0.  0.
    8880022    1    1    2    0    0  0.54486564299E+03  0.79026612509E+02 -0.25343545233E+03  0.62509595736E+03  0.15294330000E+03 0.  0.
<mgrwt>
<rscale>  0 0.57141528E+03</rscale>
<asrwt>0</asrwt>
<pdfrwt beam="1">  1        2 0.27441198E+00 0.57141528E+03</pdfrwt>
<pdfrwt beam="2">  1       -2 0.37930368E-01 0.57141528E+03</pdfrwt>
<totfact> 0.60605818E+01</totfact>
</mgrwt>
</event>
<event>
 4    1  0.5410820E-008  0.5332273E+03  0.7818608E-02  0.1005452E+00
         -2   -1    0    0    0  501 -0.00000000000E+00  0.00000000000E+00  0.26180546888E+03  0.26180546890E+03  0.25500000000E-02 0.  1.
          2   -1    0    0  501    0  0.00000000000E+00 -0.00000000000E+00 -0.22854580393E+04  0.22854580393E+04  0.25500000000E-02 0. -1.
    8880022    1    1    2    0    0  0.41960494496E+03  0.29132686965E+03 -0.89164626606E+02  0.54063077833E+03  0.15294330000E+03 0.  0.
    8880022    1    1    2    0    0 -0.41960494496E+03 -0.29132686965E+03 -0.19344879438E+04  0.20066327298E+04  0.15294330000E+03 0.  0.
<mgrwt>
<rscale>  0 0.53322726E+03</rscale>
<asrwt>0</asrwt>
<pdfrwt beam="1">  1        2 0.35160892E+00 0.53322726E+03</pdfrwt>
<pdfrwt beam="2">  1       -2 0.40277766E-01 0.53322726E+03</pdfrwt>
<totfact> 0.29035853E+01</totfact>
</mgrwt>
</event>
<event>
 4    1  0.5410820E-008  0.7070040E+03  0.7818608E-02  0.9705329E-01
         -2   -1    0    0    0  501 -0.00000000000E+00  0.00000000000E+00  0.73235421290E+03  0.73235421290E+03  0.25500000000E-02 0.  1.
          2   -1    0    0  501    0  0.00000000000E+00 -0.00000000000E+00 -0.13787012444E+04  0.13787012444E+04  0.25500000000E-02 0. -1.
    8880022    1    1    2    0    0 -0.67744183699E+03  0.13242206954E+03 -0.10732269194E+04  0.12851734204E+04  0.15294330000E+03 0.  0.
    8880022    1    1    2    0    0  0.67744183699E+03 -0.13242206954E+03  0.42687988796E+03  0.82588203683E+03  0.15294330000E+03 0.  0.
<mgrwt>
<rscale>  0 0.70700403E+03</rscale>
<asrwt>0</asrwt>
<pdfrwt beam="1">  1        2 0.21210788E+00 0.70700403E+03</pdfrwt>
<pdfrwt beam="2">  1       -2 0.11266988E+00 0.70700403E+03</pdfrwt>
<totfact> 0.94899542E+00</totfact>
</mgrwt>
</event>
<event>
 4    1  0.5410820E-008  0.4577391E+03  0.7818608E-02  0.1025439E+00
          2   -1    0    0  501    0  0.00000000000E+00  0.00000000000E+00  0.21148972875E+04  0.21148972875E+04  0.25500000000E-02 0. -1.
         -2   -1    0    0    0  501 -0.00000000000E+00 -0.00000000000E+00 -0.30742427507E+03  0.30742427508E+03  0.25500000000E-02 0.  1.
    8880022    1    1    2    0    0 -0.39461071920E+03  0.17440123272E+03  0.19008230382E+04  0.19551606802E+04  0.15294330000E+03 0.  0.
    8880022    1    1    2    0    0  0.39461071920E+03 -0.17440123272E+03 -0.93350025822E+02  0.46716088237E+03  0.15294330000E+03 0.  0.
<mgrwt>
<rscale>  0 0.45773908E+03</rscale>
<asrwt>0</asrwt>
<pdfrwt beam="1">  1        2 0.32536883E+00 0.45773908E+03</pdfrwt>
<pdfrwt beam="2">  1       -2 0.47296040E-01 0.45773908E+03</pdfrwt>
<totfact> 0.26625128E+01</totfact>
</mgrwt>
</event>
<event>
 4    1  0.5410820E-008  0.8343965E+03  0.7818608E-02  0.9511522E-01
          2   -1    0    0  501    0  0.00000000000E+00  0.00000000000E+00  0.16262289265E+04  0.16262289265E+04  0.25500000000E-02 0. -1.
         -2   -1    0    0    0  501 -0.00000000000E+00 -0.00000000000E+00 -0.10823287068E+04  0.10823287068E+04  0.25500000000E-02 0.  1.
    8880022    1    1    2    0    0  0.62595113623E+03 -0.53010476387E+03  0.13248507486E+04  0.15657097575E+04  0.15294330000E+03 0.  0.
    8880022    1    1    2    0    0 -0.62595113623E+03  0.53010476387E+03 -0.78095052895E+03  0.11428478758E+04  0.15294330000E+03 0.  0.
<mgrwt>
<rscale>  0 0.83439651E+03</rscale>
<asrwt>0</asrwt>
<pdfrwt beam="1">  1        2 0.25018906E+00 0.83439651E+03</pdfrwt>
<pdfrwt beam="2">  1       -2 0.16651211E+00 0.83439651E+03</pdfrwt>
<totfact> 0.24745258E+00</totfact>
</mgrwt>
</event>
<event>
 4    1  0.5410820E-008  0.1932941E+03  0.7818608E-02  0.1155523E+00
          2   -1    0    0  501    0  0.00000000000E+00  0.00000000000E+00  0.56146454162E+03  0.56146454163E+03  0.25500000000E-02 0. -1.
         -2   -1    0    0    0  501 -0.00000000000E+00 -0.00000000000E+00 -0.18632810297E+03  0.18632810299E+03  0.25500000000E-02 0.  1.
    8880022    1    1    2    0    0 -0.93907904908E+02 -0.71779270312E+02  0.48735324951E+03  0.52428599168E+03  0.15294330000E+03 0.  0.
    8880022    1    1    2    0    0  0.93907904908E+02  0.71779270312E+02 -0.11221681086E+03  0.22350665293E+03  0.15294330000E+03 0.  1.
<mgrwt>
<rscale>  0 0.19329411E+03</rscale>
<asrwt>0</asrwt>
<pdfrwt beam="1">  1        2 0.86379160E-01 0.19329411E+03</pdfrwt>
<pdfrwt beam="2">  1       -2 0.28665862E-01 0.19329411E+03</pdfrwt>
<totfact> 0.60961639E+02</totfact>
</mgrwt>
</event>
<event>
 4    1  0.5410820E-008  0.3239581E+03  0.7818608E-02  0.1073842E+00
         -2   -1    0    0    0  501 -0.00000000000E+00  0.00000000000E+00  0.32202206071E+03  0.32202206072E+03  0.25500000000E-02 0.  1.
          2   -1    0    0  501    0  0.00000000000E+00 -0.00000000000E+00 -0.11944389177E+04  0.11944389177E+04  0.25500000000E-02 0. -1.
    8880022    1    1    2    0    0 -0.27772479493E+03 -0.66529175992E+02  0.21035698823E+03  0.38626274541E+03  0.15294330000E+03 0.  0.
    8880022    1    1    2    0    0  0.27772479493E+03  0.66529175992E+02 -0.10827738452E+04  0.11301982330E+04  0.15294330000E+03 0.  0.
<mgrwt>
<rscale>  0 0.32395809E+03</rscale>
<asrwt>0</asrwt>
<pdfrwt beam="1">  1        2 0.18375983E+00 0.32395809E+03</pdfrwt>
<pdfrwt beam="2">  1       -2 0.49541856E-01 0.32395809E+03</pdfrwt>
<totfact> 0.78956180E+01</totfact>
</mgrwt>
</event>
<event>
 4    1  0.5410820E-008  0.2081476E+03  0.7818608E-02  0.1143041E+00
         -2   -1    0    0    0  501 -0.00000000000E+00  0.00000000000E+00  0.17187234163E+03  0.17187234165E+03  0.25500000000E-02 0.  1.
          2   -1    0    0  501    0  0.00000000000E+00 -0.00000000000E+00 -0.19238672836E+04  0.19238672836E+04  0.25500000000E-02 0. -1.
    8880022    1    1    2    0    0 -0.43684590967E+02 -0.13425885166E+03  0.10081319307E+03  0.23127631882E+03  0.15294330000E+03 0.  0.
    8880022    1    1    2    0    0  0.43684590967E+02  0.13425885166E+03 -0.18528081350E+04  0.18644633064E+04  0.15294330000E+03 0.  0.
<mgrwt>
<rscale>  0 0.20814763E+03</rscale>
<asrwt>0</asrwt>
<pdfrwt beam="1">  1        2 0.29597957E+00 0.20814763E+03</pdfrwt>
<pdfrwt beam="2">  1       -2 0.26441900E-01 0.20814763E+03</pdfrwt>
<totfact> 0.10795591E+02</totfact>
</mgrwt>
</event>
<event>
 4    1  0.5410820E-008  0.4528201E+03  0.7818608E-02  0.1026884E+00
          2   -1    0    0  501    0  0.00000000000E+00  0.00000000000E+00  0.80653896017E+03  0.80653896017E+03  0.25500000000E-02 0. -1.
         -2   -1    0    0    0  501 -0.00000000000E+00 -0.00000000000E+00 -0.38276085335E+03  0.38276085336E+03  0.25500000000E-02 0.  1.
    8880022    1    1    2    0    0 -0.21326586863E+03 -0.36901493291E+03  0.55647861836E+03  0.71743603000E+03  0.15294330000E+03 0.  0.
    8880022    1    1    2    0    0  0.21326586863E+03  0.36901493291E+03 -0.13270051154E+03  0.47186378353E+03  0.15294330000E+03 0.  0.
<mgrwt>
<rscale>  0 0.45282006E+03</rscale>
<asrwt>0</asrwt>
<pdfrwt beam="1">  1        2 0.12408292E+00 0.45282006E+03</pdfrwt>
<pdfrwt beam="2">  1       -2 0.58886285E-01 0.45282006E+03</pdfrwt>
<totfact> 0.95346673E+01</totfact>
</mgrwt>
</event>
<event>
 4    1  0.5410820E-008  0.7229476E+03  0.7818608E-02  0.9678774E-01
         -2   -1    0    0    0  501 -0.00000000000E+00  0.00000000000E+00  0.36389091141E+03  0.36389091142E+03  0.25500000000E-02 0.  1.
          2   -1    0    0  501    0  0.00000000000E+00 -0.00000000000E+00 -0.18300131421E+04  0.18300131421E+04  0.25500000000E-02 0. -1.
    8880022    1    1    2    0    0 -0.39195377580E+03 -0.58790633183E+03 -0.12418708430E+04  0.14369747601E+04  0.15294330000E+03 0.  0.
    8880022    1    1    2    0    0  0.39195377580E+03  0.58790633183E+03 -0.22425138767E+03  0.75692929343E+03  0.15294330000E+03 0.  0.
<mgrwt>
<rscale>  0 0.72294763E+03</rscale>
<asrwt>0</asrwt>
<pdfrwt beam="1">  1        2 0.28154048E+00 0.72294763E+03</pdfrwt>
<pdfrwt beam="2">  1       -2 0.55983218E-01 0.72294763E+03</pdfrwt>
<totfact> 0.25710086E+01</totfact>
</mgrwt>
</event>
<event>
 4    1  0.5410820E-008  0.5098657E+03  0.7818608E-02  0.1011235E+00
         -2   -1    0    0    0  501 -0.00000000000E+00  0.00000000000E+00  0.12361512946E+03  0.12361512949E+03  0.25500000000E-02 0.  1.
          2   -1    0    0  501    0  0.00000000000E+00 -0.00000000000E+00 -0.27086308382E+04  0.27086308382E+04  0.25500000000E-02 0. -1.
    8880022    1    1    2    0    0 -0.16699494228E+03  0.45681946918E+03 -0.62288700391E+03  0.80495416691E+03  0.15294330000E+03 0.  0.
    8880022    1    1    2    0    0  0.16699494228E+03 -0.45681946918E+03 -0.19621287048E+04  0.20272918007E+04  0.15294330000E+03 0.  0.
<mgrwt>
<rscale>  0 0.50986566E+03</rscale>
<asrwt>0</asrwt>
<pdfrwt beam="1">  1        2 0.41671239E+00 0.50986566E+03</pdfrwt>
<pdfrwt beam="2">  1       -2 0.19017714E-01 0.50986566E+03</pdfrwt>
<totfact> 0.66461483E+01</totfact>
</mgrwt>
</event>
<event>
 4    1  0.5410820E-008  0.2301645E+03  0.7818608E-02  0.1126524E+00
          2   -1    0    0  501    0  0.00000000000E+00  0.00000000000E+00  0.24255285318E+03  0.24255285320E+03  0.25500000000E-02 0. -1.
         -2   -1    0    0    0  501 -0.00000000000E+00 -0.00000000000E+00 -0.73473997169E+03  0.73473997170E+03  0.25500000000E-02 0.  1.
    8880022    1    1    2    0    0  0.12939461559E+03  0.11331838176E+03 -0.65572384421E+03  0.69494563462E+03  0.15294330000E+03 0.  1.
    8880022    1    1    2    0    0 -0.12939461559E+03 -0.11331838176E+03  0.16353672570E+03  0.28234719028E+03  0.15294330000E+03 0.  0.
<mgrwt>
<rscale>  0 0.23016445E+03</rscale>
<asrwt>0</asrwt>
<pdfrwt beam="1">  1        2 0.37315824E-01 0.23016445E+03</pdfrwt>
<pdfrwt beam="2">  1       -2 0.11303692E+00 0.23016445E+03</pdfrwt>
<totfact> 0.89543816E+01</totfact>
</mgrwt>
</event>
<event>
 4    1  0.5410820E-008  0.7715706E+03  0.7818608E-02  0.9602104E-01
         -2   -1    0    0    0  501 -0.00000000000E+00  0.00000000000E+00  0.55248388173E+03  0.55248388173E+03  0.25500000000E-02 0.  1.
          2   -1    0    0  501    0  0.00000000000E+00 -0.00000000000E+00 -0.11524854496E+04  0.11524854496E+04  0.25500000000E-02 0. -1.
    8880022    1    1    2    0    0  0.25968786517E+03  0.71027586469E+03 -0.51739762011E+03  0.92898952717E+03  0.15294330000E+03 0.  0.
    8880022    1    1    2    0    0 -0.25968786517E+03 -0.71027586469E+03 -0.82603947769E+02  0.77597980417E+03  0.15294330000E+03 0.  0.
<mgrwt>
<rscale>  0 0.77157063E+03</rscale>
<asrwt>0</asrwt>
<pdfrwt beam="1">  1        2 0.17730545E+00 0.77157063E+03</pdfrwt>
<pdfrwt beam="2">  1       -2 0.84997521E-01 0.77157063E+03</pdfrwt>
<totfact> 0.24768082E+01</totfact>
</mgrwt>
</event>
<event>
 4    1  0.5919888E-008  0.9689648E+03  0.7818608E-02  0.9343254E-01
         -2   -1    0    0    0  501 -0.00000000000E+00  0.00000000000E+00  0.16313906421E+04  0.16313906421E+04  0.25500000000E-02 0.  1.
          2   -1    0    0  501    0  0.00000000000E+00 -0.00000000000E+00 -0.27260836044E+04  0.27260836044E+04  0.25500000000E-02 0. -1.
    8880022    1    1    2    0    0  0.26198020848E+03  0.92025399687E+03  0.13877905251E+04  0.16925883265E+04  0.15294330000E+03 0.  0.
    8880022    1    1    2    0    0 -0.26198020848E+03 -0.92025399687E+03 -0.24824834874E+04  0.26648859200E+04  0.15294330000E+03 0.  0.
<mgrwt>
<rscale>  0 0.96896476E+03</rscale>
<asrwt>0</asrwt>
<pdfrwt beam="1">  1        2 0.41939748E+00 0.96896476E+03</pdfrwt>
<pdfrwt beam="2">  1       -2 0.25098318E+00 0.96896476E+03</pdfrwt>
<totfact> 0.16602003E-01</totfact>
</mgrwt>
</event>
<event>
 4    1  0.5410820E-008  0.1490300E+04  0.7818608E-02  0.8890929E-01
         -2   -1    0    0    0  501 -0.00000000000E+00  0.00000000000E+00  0.15682023606E+04  0.15682023607E+04  0.25500000000E-02 0.  1.
          2   -1    0    0  501    0  0.00000000000E+00 -0.00000000000E+00 -0.16767864524E+04  0.16767864524E+04  0.25500000000E-02 0. -1.
    8880022    1    1    2    0    0 -0.40899305267E+03  0.14248955031E+04 -0.69382646628E+03  0.16438945617E+04  0.15294330000E+03 0. -1.
    8880022    1    1    2    0    0  0.40899305267E+03 -0.14248955031E+04  0.58524237450E+03  0.16010942513E+04  0.15294330000E+03 0.  0.
<mgrwt>
<rscale>  0 0.14903000E+04</rscale>
<asrwt>0</asrwt>
<pdfrwt beam="1">  1        2 0.25796715E+00 0.14903000E+04</pdfrwt>
<pdfrwt beam="2">  1       -2 0.24126190E+00 0.14903000E+04</pdfrwt>
<totfact> 0.69100550E-01</totfact>
</mgrwt>
</event>
<event>
 4    1  0.5410820E-008  0.9953319E+03  0.7818608E-02  0.9313680E-01
         -2   -1    0    0    0  501 -0.00000000000E+00  0.00000000000E+00  0.11467011049E+04  0.11467011049E+04  0.25500000000E-02 0.  1.
          2   -1    0    0  501    0  0.00000000000E+00 -0.00000000000E+00 -0.11376592103E+04  0.11376592103E+04  0.25500000000E-02 0. -1.
    8880022    1    1    2    0    0 -0.24643638220E+03  0.95213604722E+03 -0.55572399470E+03  0.11399626109E+04  0.15294330000E+03 0.  0.
    8880022    1    1    2    0    0  0.24643638220E+03 -0.95213604722E+03  0.56476588927E+03  0.11443977043E+04  0.15294330000E+03 0.  0.
<mgrwt>
<rscale>  0 0.99533190E+03</rscale>
<asrwt>0</asrwt>
<pdfrwt beam="1">  1        2 0.17502449E+00 0.99533190E+03</pdfrwt>
<pdfrwt beam="2">  1       -2 0.17641556E+00 0.99533190E+03</pdfrwt>
<totfact> 0.39342247E+00</totfact>
</mgrwt>
</event>
<event>
 4    1  0.5410820E-008  0.2741880E+03  0.7818608E-02  0.1098906E+00
          2   -1    0    0  501    0  0.00000000000E+00  0.00000000000E+00  0.89935007966E+03  0.89935007967E+03  0.25500000000E-02 0. -1.
         -2   -1    0    0    0  501 -0.00000000000E+00 -0.00000000000E+00 -0.70170412861E+03  0.70170412862E+03  0.25500000000E-02 0.  1.
    8880022    1    1    2    0    0  0.95860598818E+02 -0.20639319434E+03  0.85015591375E+03  0.89327718866E+03  0.15294330000E+03 0.  0.
    8880022    1    1    2    0    0 -0.95860598818E+02  0.20639319434E+03 -0.65250996270E+03  0.70777701963E+03  0.15294330000E+03 0.  1.
<mgrwt>
<rscale>  0 0.27418800E+03</rscale>
<asrwt>0</asrwt>
<pdfrwt beam="1">  1        2 0.13836155E+00 0.27418800E+03</pdfrwt>
<pdfrwt beam="2">  1       -2 0.10795448E+00 0.27418800E+03</pdfrwt>
<totfact> 0.22112213E+01</totfact>
</mgrwt>
</event>
<event>
 4    1  0.5410820E-008  0.9490928E+03  0.7818608E-02  0.9366212E-01
         -2   -1    0    0    0  501 -0.00000000000E+00  0.00000000000E+00  0.41889908263E+03  0.41889908264E+03  0.25500000000E-02 0.  1.
          2   -1    0    0  501    0  0.00000000000E+00 -0.00000000000E+00 -0.22803588268E+04  0.22803588268E+04  0.25500000000E-02 0. -1.
    8880022    1    1    2    0    0  0.42505285695E+03  0.83469493108E+03 -0.60846801864E+03  0.11273910333E+04  0.15294330000E+03 0.  0.
    8880022    1    1    2    0    0 -0.42505285695E+03 -0.83469493108E+03 -0.12529917255E+04  0.15718668762E+04  0.15294330000E+03 0.  0.
<mgrwt>
<rscale>  0 0.94909284E+03</rscale>
<asrwt>0</asrwt>
<pdfrwt beam="1">  1        2 0.35082443E+00 0.94909284E+03</pdfrwt>
<pdfrwt beam="2">  1       -2 0.64446014E-01 0.94909284E+03</pdfrwt>
<totfact> 0.10485797E+01</totfact>
</mgrwt>
</event>
<event>
 4    1  0.5410820E-008  0.5289306E+03  0.7818608E-02  0.1006492E+00
          2   -1    0    0  501    0  0.00000000000E+00  0.00000000000E+00  0.11194724383E+04  0.11194724383E+04  0.25500000000E-02 0. -1.
         -2   -1    0    0    0  501 -0.00000000000E+00 -0.00000000000E+00 -0.54509854444E+03  0.54509854445E+03  0.25500000000E-02 0.  1.
    8880022    1    1    2    0    0 -0.29384814069E+03 -0.41234593408E+03 -0.32528250787E+03  0.62094787389E+03  0.15294330000E+03 0.  0.
    8880022    1    1    2    0    0  0.29384814069E+03  0.41234593408E+03  0.89965640169E+03  0.10436231088E+04  0.15294330000E+03 0.  0.
<mgrwt>
<rscale>  0 0.52893057E+03</rscale>
<asrwt>0</asrwt>
<pdfrwt beam="1">  1        2 0.17222653E+00 0.52893057E+03</pdfrwt>
<pdfrwt beam="2">  1       -2 0.83861315E-01 0.52893057E+03</pdfrwt>
<totfact> 0.27534653E+01</totfact>
</mgrwt>
</event>
<event>
 4    1  0.5410820E-008  0.4540056E+03  0.7818608E-02  0.1026534E+00
         -2   -1    0    0    0  501 -0.00000000000E+00  0.00000000000E+00  0.17966941857E+03  0.17966941859E+03  0.25500000000E-02 0.  1.
          2   -1    0    0  501    0  0.00000000000E+00 -0.00000000000E+00 -0.13022750084E+04  0.13022750084E+04  0.25500000000E-02 0. -1.
    8880022    1    1    2    0    0 -0.11064991176E+03  0.41289955510E+03 -0.81697742522E+03  0.93465138522E+03  0.15294330000E+03 0.  0.
    8880022    1    1    2    0    0  0.11064991176E+03 -0.41289955510E+03 -0.30562816465E+03  0.54729304181E+03  0.15294330000E+03 0.  1.
<mgrwt>
<rscale>  0 0.45400562E+03</rscale>
<asrwt>0</asrwt>
<pdfrwt beam="1">  1        2 0.20035000E+00 0.45400562E+03</pdfrwt>
<pdfrwt beam="2">  1       -2 0.27641450E-01 0.45400562E+03</pdfrwt>
<totfact> 0.20428373E+02</totfact>
</mgrwt>
</event>
<event>
 4    1  0.5410820E-008  0.4715705E+03  0.7818608E-02  0.1021478E+00
         -2   -1    0    0    0  501 -0.00000000000E+00  0.00000000000E+00  0.33883717331E+03  0.33883717332E+03  0.25500000000E-02 0.  1.
          2   -1    0    0  501    0  0.00000000000E+00 -0.00000000000E+00 -0.86548683907E+03  0.86548683907E+03  0.25500000000E-02 0. -1.
    8880022    1    1    2    0    0 -0.14251891299E+03 -0.42270021936E+03 -0.55936490573E+03  0.73162002897E+03  0.15294330000E+03 0.  0.
    8880022    1    1    2    0    0  0.14251891299E+03  0.42270021936E+03  0.32715239979E+02  0.47270398343E+03  0.15294330000E+03 0.  0.
<mgrwt>
<rscale>  0 0.47157053E+03</rscale>
<asrwt>0</asrwt>
<pdfrwt beam="1">  1        2 0.13315182E+00 0.47157053E+03</pdfrwt>
<pdfrwt beam="2">  1       -2 0.52128796E-01 0.47157053E+03</pdfrwt>
<totfact> 0.11142430E+02</totfact>
</mgrwt>
</event>
<event>
 4    1  0.5410820E-008  0.5697769E+03  0.7818608E-02  0.9970172E-01
          2   -1    0    0  501    0  0.00000000000E+00  0.00000000000E+00  0.99723196137E+03  0.99723196137E+03  0.25500000000E-02 0. -1.
         -2   -1    0    0    0  501 -0.00000000000E+00 -0.00000000000E+00 -0.76436697136E+03  0.76436697137E+03  0.25500000000E-02 0.  1.
    8880022    1    1    2    0    0 -0.14958908808E+03 -0.52808825279E+03 -0.55094159172E+03  0.79257957866E+03  0.15294330000E+03 0.  0.
    8880022    1    1    2    0    0  0.14958908808E+03  0.52808825279E+03  0.78380658172E+03  0.96901935408E+03  0.15294330000E+03 0.  0.
<mgrwt>
<rscale>  0 0.56977693E+03</rscale>
<asrwt>0</asrwt>
<pdfrwt beam="1">  1        2 0.15342030E+00 0.56977693E+03</pdfrwt>
<pdfrwt beam="2">  1       -2 0.11759492E+00 0.56977693E+03</pdfrwt>
<totfact> 0.14692315E+01</totfact>
</mgrwt>
</event>
<event>
 4    1  0.5410820E-008  0.5887247E+03  0.7818608E-02  0.9929079E-01
         -2   -1    0    0    0  501 -0.00000000000E+00  0.00000000000E+00  0.11123176281E+03  0.11123176284E+03  0.25500000000E-02 0.  1.
          2   -1    0    0  501    0  0.00000000000E+00 -0.00000000000E+00 -0.40501893054E+04  0.40501893054E+04  0.25500000000E-02 0. -1.
    8880022    1    1    2    0    0  0.51147690091E+03  0.24818641636E+03 -0.97018223738E+03  0.11348349414E+04  0.15294330000E+03 0.  0.
    8880022    1    1    2    0    0 -0.51147690091E+03 -0.24818641636E+03 -0.29687753052E+04  0.30265861269E+04  0.15294330000E+03 0.  0.
<mgrwt>
<rscale>  0 0.58872470E+03</rscale>
<asrwt>0</asrwt>
<pdfrwt beam="1">  1        2 0.62310593E+00 0.58872470E+03</pdfrwt>
<pdfrwt beam="2">  1       -2 0.17112582E-01 0.58872470E+03</pdfrwt>
<totfact> 0.99841277E+00</totfact>
</mgrwt>
</event>
<event>
 4    1  0.5410820E-008  0.6770734E+03  0.7818608E-02  0.9757263E-01
         -2   -1    0    0    0  501 -0.00000000000E+00  0.00000000000E+00  0.12449605154E+04  0.12449605154E+04  0.25500000000E-02 0.  1.
          2   -1    0    0  501    0  0.00000000000E+00 -0.00000000000E+00 -0.58518852765E+03  0.58518852766E+03  0.25500000000E-02 0. -1.
    8880022    1    1    2    0    0  0.65335218097E+03 -0.90374905959E+02  0.88707136704E+03  0.11159408404E+04  0.15294330000E+03 0.  0.
    8880022    1    1    2    0    0 -0.65335218097E+03  0.90374905959E+02 -0.22729937926E+03  0.71420820272E+03  0.15294330000E+03 0.  0.
<mgrwt>
<rscale>  0 0.67707337E+03</rscale>
<asrwt>0</asrwt>
<pdfrwt beam="1">  1        2 0.90029005E-01 0.67707337E+03</pdfrwt>
<pdfrwt beam="2">  1       -2 0.19153238E+00 0.67707337E+03</pdfrwt>
<totfact> 0.79524835E+00</totfact>
</mgrwt>
</event>
<event>
 4    1  0.5410820E-008  0.8421300E+03  0.7818608E-02  0.9500961E-01
         -2   -1    0    0    0  501 -0.00000000000E+00  0.00000000000E+00  0.53119026825E+03  0.53119026825E+03  0.25500000000E-02 0.  1.
          2   -1    0    0  501    0  0.00000000000E+00 -0.00000000000E+00 -0.17644465645E+04  0.17644465645E+04  0.25500000000E-02 0. -1.
    8880022    1    1    2    0    0  0.43629841659E+03 -0.70387140727E+03 -0.50412723203E+02  0.84363757738E+03  0.15294330000E+03 0.  0.
    8880022    1    1    2    0    0 -0.43629841659E+03  0.70387140727E+03 -0.11828435730E+04  0.14519992554E+04  0.15294330000E+03 0.  0.
<mgrwt>
<rscale>  0 0.84212999E+03</rscale>
<asrwt>0</asrwt>
<pdfrwt beam="1">  1        2 0.27145331E+00 0.84212999E+03</pdfrwt>
<pdfrwt beam="2">  1       -2 0.81721581E-01 0.84212999E+03</pdfrwt>
<totfact> 0.12102786E+01</totfact>
</mgrwt>
</event>
<event>
 4    1  0.5410820E-008  0.4499727E+03  0.7818608E-02  0.1027730E+00
          2   -1    0    0  501    0  0.00000000000E+00  0.00000000000E+00  0.16775423763E+04  0.16775423763E+04  0.25500000000E-02 0. -1.
         -2   -1    0    0    0  501 -0.00000000000E+00 -0.00000000000E+00 -0.17684501188E+03  0.17684501190E+03  0.25500000000E-02 0.  1.
    8880022    1    1    2    0    0 -0.15240151619E+03 -0.39478800322E+03  0.12727914163E+04  0.13499901600E+04  0.15294330000E+03 0.  0.
    8880022    1    1    2    0    0  0.15240151619E+03  0.39478800322E+03  0.22790594810E+03  0.50439722821E+03  0.15294330000E+03 0.  0.
<mgrwt>
<rscale>  0 0.44997271E+03</rscale>
<asrwt>0</asrwt>
<pdfrwt beam="1">  1        2 0.25808344E+00 0.44997271E+03</pdfrwt>
<pdfrwt beam="2">  1       -2 0.27206925E-01 0.44997271E+03</pdfrwt>
<totfact> 0.13087020E+02</totfact>
</mgrwt>
</event>
<event>
 4    1  0.5410820E-008  0.9436428E+03  0.7818608E-02  0.9372612E-01
         -2   -1    0    0    0  501 -0.00000000000E+00  0.00000000000E+00  0.38830612440E+03  0.38830612441E+03  0.25500000000E-02 0.  1.
          2   -1    0    0  501    0  0.00000000000E+00 -0.00000000000E+00 -0.28595271620E+04  0.28595271620E+04  0.25500000000E-02 0. -1.
    8880022    1    1    2    0    0 -0.24068759084E+03  0.89952187331E+03 -0.51292038286E+03  0.10740340260E+04  0.15294330000E+03 0.  0.
    8880022    1    1    2    0    0  0.24068759084E+03 -0.89952187331E+03 -0.19583006547E+04  0.21737992603E+04  0.15294330000E+03 0.  0.
<mgrwt>
<rscale>  0 0.94364282E+03</rscale>
<asrwt>0</asrwt>
<pdfrwt beam="1">  1        2 0.43992724E+00 0.94364282E+03</pdfrwt>
<pdfrwt beam="2">  1       -2 0.59739406E-01 0.94364282E+03</pdfrwt>
<totfact> 0.57140708E+00</totfact>
</mgrwt>
</event>
<event>
 4    1  0.5410820E-008  0.9099195E+03  0.7818608E-02  0.9413266E-01
         -2   -1    0    0    0  501 -0.00000000000E+00  0.00000000000E+00  0.57894999034E+03  0.57894999035E+03  0.25500000000E-02 0.  1.
          2   -1    0    0  501    0  0.00000000000E+00 -0.00000000000E+00 -0.19204330491E+04  0.19204330491E+04  0.25500000000E-02 0. -1.
    8880022    1    1    2    0    0 -0.86444320491E+03 -0.23937367190E+03 -0.13022091015E+04  0.15886163811E+04  0.15294330000E+03 0. -1.
    8880022    1    1    2    0    0  0.86444320491E+03  0.23937367190E+03 -0.39273957335E+02  0.91076665840E+03  0.15294330000E+03 0.  0.
<mgrwt>
<rscale>  0 0.90991948E+03</rscale>
<asrwt>0</asrwt>
<pdfrwt beam="1">  1        2 0.29545123E+00 0.90991948E+03</pdfrwt>
<pdfrwt beam="2">  1       -2 0.89069231E-01 0.90991948E+03</pdfrwt>
<totfact> 0.80968957E+00</totfact>
</mgrwt>
</event>
<event>
 4    1  0.5410820E-008  0.2214130E+03  0.7818608E-02  0.1132834E+00
          2   -1    0    0  501    0  0.00000000000E+00  0.00000000000E+00  0.29366415552E+04  0.29366415553E+04  0.25500000000E-02 0. -1.
         -2   -1    0    0    0  501 -0.00000000000E+00 -0.00000000000E+00 -0.17581157943E+03  0.17581157945E+03  0.25500000000E-02 0.  1.
    8880022    1    1    2    0    0  0.73602208418E+02 -0.14217871979E+03 -0.10008508447E+03  0.24298302532E+03  0.15294330000E+03 0.  0.
    8880022    1    1    2    0    0 -0.73602208418E+02  0.14217871979E+03  0.28609150603E+04  0.28694701094E+04  0.15294330000E+03 0. -1.
<mgrwt>
<rscale>  0 0.22141302E+03</rscale>
<asrwt>0</asrwt>
<pdfrwt beam="1">  1        2 0.45179098E+00 0.22141302E+03</pdfrwt>
<pdfrwt beam="2">  1       -2 0.27047937E-01 0.22141302E+03</pdfrwt>
<totfact> 0.29045521E+01</totfact>
</mgrwt>
</event>
<event>
 4    1  0.5410820E-008  0.4608889E+03  0.7818608E-02  0.1024524E+00
         -2   -1    0    0    0  501 -0.00000000000E+00  0.00000000000E+00  0.26167239910E+03  0.26167239911E+03  0.25500000000E-02 0.  1.
          2   -1    0    0  501    0  0.00000000000E+00 -0.00000000000E+00 -0.21690734782E+04  0.21690734782E+04  0.25500000000E-02 0. -1.
    8880022    1    1    2    0    0  0.29082913087E+03  0.32318007982E+03 -0.19151144994E+04  0.19697924120E+04  0.15294330000E+03 0.  0.
    8880022    1    1    2    0    0 -0.29082913087E+03 -0.32318007982E+03  0.77134203110E+01  0.46095346536E+03  0.15294330000E+03 0.  0.
<mgrwt>
<rscale>  0 0.46088892E+03</rscale>
<asrwt>0</asrwt>
<pdfrwt beam="1">  1        2 0.33370360E+00 0.46088892E+03</pdfrwt>
<pdfrwt beam="2">  1       -2 0.40257294E-01 0.46088892E+03</pdfrwt>
<totfact> 0.34148890E+01</totfact>
</mgrwt>
</event>
<event>
 4    1  0.5410820E-008  0.6394099E+03  0.7818608E-02  0.9826856E-01
         -2   -1    0    0    0  501 -0.00000000000E+00  0.00000000000E+00  0.47496755894E+03  0.47496755894E+03  0.25500000000E-02 0.  1.
          2   -1    0    0  501    0  0.00000000000E+00 -0.00000000000E+00 -0.14704925100E+04  0.14704925100E+04  0.25500000000E-02 0. -1.
    8880022    1    1    2    0    0  0.17783627666E+03  0.59483414152E+03  0.12859406160E+03  0.65221275893E+03  0.15294330000E+03 0.  0.
    8880022    1    1    2    0    0 -0.17783627666E+03 -0.59483414152E+03 -0.11241190126E+04  0.12932473100E+04  0.15294330000E+03 0.  0.
<mgrwt>
<rscale>  0 0.63940992E+03</rscale>
<asrwt>0</asrwt>
<pdfrwt beam="1">  1        2 0.22622961E+00 0.63940992E+03</pdfrwt>
<pdfrwt beam="2">  1       -2 0.73071933E-01 0.63940992E+03</pdfrwt>
<totfact> 0.23161385E+01</totfact>
</mgrwt>
</event>
<event>
 4    1  0.5410820E-008  0.4181398E+03  0.7818608E-02  0.1037673E+00
         -2   -1    0    0    0  501 -0.00000000000E+00  0.00000000000E+00  0.11712640779E+04  0.11712640779E+04  0.25500000000E-02 0.  1.
          2   -1    0    0  501    0  0.00000000000E+00 -0.00000000000E+00 -0.10326190918E+04  0.10326190918E+04  0.25500000000E-02 0. -1.
    8880022    1    1    2    0    0  0.16669477870E+03 -0.35165620412E+03  0.10885082807E+04  0.11660579597E+04  0.15294330000E+03 0.  0.
    8880022    1    1    2    0    0 -0.16669477870E+03  0.35165620412E+03 -0.94986329457E+03  0.10378252100E+04  0.15294330000E+03 0. -1.
<mgrwt>
<rscale>  0 0.41813979E+03</rscale>
<asrwt>0</asrwt>
<pdfrwt beam="1">  1        2 0.15886448E+00 0.41813979E+03</pdfrwt>
<pdfrwt beam="2">  1       -2 0.18019447E+00 0.41813979E+03</pdfrwt>
<totfact> 0.47207176E+00</totfact>
</mgrwt>
</event>
<event>
 4    1  0.5410820E-008  0.3328211E+03  0.7818608E-02  0.1069895E+00
         -2   -1    0    0    0  501 -0.00000000000E+00  0.00000000000E+00  0.20007385186E+03  0.20007385188E+03  0.25500000000E-02 0.  1.
          2   -1    0    0  501    0  0.00000000000E+00 -0.00000000000E+00 -0.15426255604E+04  0.15426255604E+04  0.25500000000E-02 0. -1.
    8880022    1    1    2    0    0 -0.24427514162E+02 -0.29458699528E+03  0.26403934192E+02  0.33386677282E+03  0.15294330000E+03 0.  0.
    8880022    1    1    2    0    0  0.24427514162E+02  0.29458699528E+03 -0.13689556427E+04  0.14088326395E+04  0.15294330000E+03 0.  0.
<mgrwt>
<rscale>  0 0.33282105E+03</rscale>
<asrwt>0</asrwt>
<pdfrwt beam="1">  1        2 0.23732700E+00 0.33282105E+03</pdfrwt>
<pdfrwt beam="2">  1       -2 0.30780594E-01 0.33282105E+03</pdfrwt>
<totfact> 0.12598540E+02</totfact>
</mgrwt>
</event>
<event>
 4    1  0.5410820E-008  0.7154246E+03  0.7818608E-02  0.9691212E-01
          2   -1    0    0  501    0  0.00000000000E+00  0.00000000000E+00  0.25588508904E+04  0.25588508904E+04  0.25500000000E-02 0. -1.
         -2   -1    0    0    0  501 -0.00000000000E+00 -0.00000000000E+00 -0.40534113089E+03  0.40534113090E+03  0.25500000000E-02 0.  1.
    8880022    1    1    2    0    0 -0.19007900924E+03  0.67254041913E+03  0.21935010628E+02  0.71576074412E+03  0.15294330000E+03 0.  0.
    8880022    1    1    2    0    0  0.19007900924E+03 -0.67254041913E+03  0.21315747489E+04  0.22484312772E+04  0.15294330000E+03 0.  0.
<mgrwt>
<rscale>  0 0.71542456E+03</rscale>
<asrwt>0</asrwt>
<pdfrwt beam="1">  1        2 0.39366937E+00 0.71542456E+03</pdfrwt>
<pdfrwt beam="2">  1       -2 0.62360173E-01 0.71542456E+03</pdfrwt>
<totfact> 0.81146701E+00</totfact>
</mgrwt>
</event>
<event>
 4    1  0.5410820E-008  0.5472375E+03  0.7818608E-02  0.1002135E+00
          2   -1    0    0  501    0  0.00000000000E+00  0.00000000000E+00  0.86591366297E+03  0.86591366298E+03  0.25500000000E-02 0. -1.
         -2   -1    0    0    0  501 -0.00000000000E+00 -0.00000000000E+00 -0.75551861469E+03  0.75551861469E+03  0.25500000000E-02 0.  1.
    8880022    1    1    2    0    0 -0.17294881805E+03 -0.49615114250E+03  0.65218754568E+03  0.85136214247E+03  0.15294330000E+03 0.  0.
    8880022    1    1    2    0    0  0.17294881805E+03  0.49615114250E+03 -0.54179249740E+03  0.77007013520E+03  0.15294330000E+03 0.  0.
<mgrwt>
<rscale>  0 0.54723752E+03</rscale>
<asrwt>0</asrwt>
<pdfrwt beam="1">  1        2 0.13321749E+00 0.54723752E+03</pdfrwt>
<pdfrwt beam="2">  1       -2 0.11623363E+00 0.54723752E+03</pdfrwt>
<totfact> 0.18485840E+01</totfact>
</mgrwt>
</event>
<event>
 4    1  0.5410820E-008  0.6448683E+03  0.7818608E-02  0.9816456E-01
         -2   -1    0    0    0  501 -0.00000000000E+00  0.00000000000E+00  0.81769594975E+03  0.81769594975E+03  0.25500000000E-02 0.  1.
          2   -1    0    0  501    0  0.00000000000E+00 -0.00000000000E+00 -0.12163434454E+04  0.12163434454E+04  0.25500000000E-02 0. -1.
    8880022    1    1    2    0    0  0.21722462146E+03 -0.58760265644E+03  0.57647414647E+03  0.86497255020E+03  0.15294330000E+03 0.  1.
    8880022    1    1    2    0    0 -0.21722462146E+03  0.58760265644E+03 -0.97512164210E+03  0.11690668449E+04  0.15294330000E+03 0.  0.
<mgrwt>
<rscale>  0 0.64486826E+03</rscale>
<asrwt>0</asrwt>
<pdfrwt beam="1">  1        2 0.18712976E+00 0.64486826E+03</pdfrwt>
<pdfrwt beam="2">  1       -2 0.12579938E+00 0.64486826E+03</pdfrwt>
<totfact> 0.90475334E+00</totfact>
</mgrwt>
</event>
<event>
 4    1  0.5410820E-008  0.4506793E+03  0.7818608E-02  0.1027520E+00
          2   -1    0    0  501    0  0.00000000000E+00  0.00000000000E+00  0.33128201781E+04  0.33128201781E+04  0.25500000000E-02 0. -1.
         -2   -1    0    0    0  501 -0.00000000000E+00 -0.00000000000E+00 -0.14039776588E+03  0.14039776590E+03  0.25500000000E-02 0.  1.
    8880022    1    1    2    0    0  0.28221075377E+03 -0.31634985061E+03  0.29032687116E+03  0.53609838897E+03  0.15294330000E+03 0.  0.
    8880022    1    1    2    0    0 -0.28221075377E+03  0.31634985061E+03  0.28820955411E+04  0.29171195551E+04  0.15294330000E+03 0.  0.
<mgrwt>
<rscale>  0 0.45067925E+03</rscale>
<asrwt>0</asrwt>
<pdfrwt beam="1">  1        2 0.50966466E+00 0.45067925E+03</pdfrwt>
<pdfrwt beam="2">  1       -2 0.21599655E-01 0.45067925E+03</pdfrwt>
<totfact> 0.23238102E+01</totfact>
</mgrwt>
</event>
<event>
 4    1  0.5410820E-008  0.3532273E+03  0.7818608E-02  0.1061298E+00
          2   -1    0    0  501    0  0.00000000000E+00  0.00000000000E+00  0.50138220763E+03  0.50138220763E+03  0.25500000000E-02 0. -1.
         -2   -1    0    0    0  501 -0.00000000000E+00 -0.00000000000E+00 -0.52662238331E+03  0.52662238331E+03  0.25500000000E-02 0.  1.
    8880022    1    1    2    0    0 -0.10072036075E+03 -0.30204841885E+03  0.36068087413E+03  0.50483678985E+03  0.15294330000E+03 0.  0.
    8880022    1    1    2    0    0  0.10072036075E+03  0.30204841885E+03 -0.38592104981E+03  0.52316780110E+03  0.15294330000E+03 0.  0.
<mgrwt>
<rscale>  0 0.35322725E+03</rscale>
<asrwt>0</asrwt>
<pdfrwt beam="1">  1        2 0.77135724E-01 0.35322725E+03</pdfrwt>
<pdfrwt beam="2">  1       -2 0.81018829E-01 0.35322725E+03</pdfrwt>
<totfact> 0.86029885E+01</totfact>
</mgrwt>
</event>
<event>
 4    1  0.5410820E-008  0.1231360E+04  0.7818608E-02  0.9085841E-01
         -2   -1    0    0    0  501 -0.00000000000E+00  0.00000000000E+00  0.94287089057E+03  0.94287089057E+03  0.25500000000E-02 0.  1.
          2   -1    0    0  501    0  0.00000000000E+00 -0.00000000000E+00 -0.21064937613E+04  0.21064937613E+04  0.25500000000E-02 0. -1.
    8880022    1    1    2    0    0  0.88997831883E+03 -0.83713496064E+03  0.15980196835E+03  0.12416862214E+04  0.15294330000E+03 0.  0.
    8880022    1    1    2    0    0 -0.88997831883E+03  0.83713496064E+03 -0.13234248391E+04  0.18076784305E+04  0.15294330000E+03 0.  0.
<mgrwt>
<rscale>  0 0.12313602E+04</rscale>
<asrwt>0</asrwt>
<pdfrwt beam="1">  1        2 0.32407596E+00 0.12313602E+04</pdfrwt>
<pdfrwt beam="2">  1       -2 0.14505706E+00 0.12313602E+04</pdfrwt>
<totfact> 0.18520037E+00</totfact>
</mgrwt>
</event>
<event>
 4    1  0.5410820E-008  0.3727670E+03  0.7818608E-02  0.1053640E+00
         -2   -1    0    0    0  501 -0.00000000000E+00  0.00000000000E+00  0.18171741841E+03  0.18171741843E+03  0.25500000000E-02 0.  1.
          2   -1    0    0  501    0  0.00000000000E+00 -0.00000000000E+00 -0.27692519223E+04  0.27692519223E+04  0.25500000000E-02 0. -1.
    8880022    1    1    2    0    0  0.32395221513E+03  0.10304643349E+03 -0.25491164200E+04  0.25762278201E+04  0.15294330000E+03 0.  0.
    8880022    1    1    2    0    0 -0.32395221513E+03 -0.10304643349E+03 -0.38418083898E+02  0.37474152068E+03  0.15294330000E+03 0.  1.
<mgrwt>
<rscale>  0 0.37276703E+03</rscale>
<asrwt>0</asrwt>
<pdfrwt beam="1">  1        2 0.42603873E+00 0.37276703E+03</pdfrwt>
<pdfrwt beam="2">  1       -2 0.27956528E-01 0.37276703E+03</pdfrwt>
<totfact> 0.32109054E+01</totfact>
</mgrwt>
</event>
<event>
 4    1  0.5410820E-008  0.5692633E+03  0.7818608E-02  0.9971310E-01
          2   -1    0    0  501    0  0.00000000000E+00  0.00000000000E+00  0.23109915827E+04  0.23109915827E+04  0.25500000000E-02 0. -1.
         -2   -1    0    0    0  501 -0.00000000000E+00 -0.00000000000E+00 -0.23896908360E+03  0.23896908361E+03  0.25500000000E-02 0.  1.
    8880022    1    1    2    0    0  0.34072512142E+00 -0.54833288513E+03  0.18555817810E+04  0.19409390686E+04  0.15294330000E+03 0.  0.
    8880022    1    1    2    0    0 -0.34072512142E+00  0.54833288513E+03  0.21644071808E+03  0.60902159770E+03  0.15294330000E+03 0.  0.
<mgrwt>
<rscale>  0 0.56926332E+03</rscale>
<asrwt>0</asrwt>
<pdfrwt beam="1">  1        2 0.35553716E+00 0.56926332E+03</pdfrwt>
<pdfrwt beam="2">  1       -2 0.36764475E-01 0.56926332E+03</pdfrwt>
<totfact> 0.33287358E+01</totfact>
</mgrwt>
</event>
<event>
 4    1  0.5410820E-008  0.2128118E+03  0.7818608E-02  0.1139359E+00
         -2   -1    0    0    0  501 -0.00000000000E+00  0.00000000000E+00  0.36723117144E+03  0.36723117145E+03  0.25500000000E-02 0.  1.
          2   -1    0    0  501    0  0.00000000000E+00 -0.00000000000E+00 -0.43173405761E+03  0.43173405762E+03  0.25500000000E-02 0. -1.
    8880022    1    1    2    0    0 -0.11197307041E+03 -0.96743148099E+02  0.30538797963E+03  0.37222395990E+03  0.15294330000E+03 0.  1.
    8880022    1    1    2    0    0  0.11197307041E+03  0.96743148099E+02 -0.36989086580E+03  0.42674126918E+03  0.15294330000E+03 0.  0.
<mgrwt>
<rscale>  0 0.21281179E+03</rscale>
<asrwt>0</asrwt>
<pdfrwt beam="1">  1        2 0.66420624E-01 0.21281179E+03</pdfrwt>
<pdfrwt beam="2">  1       -2 0.56497103E-01 0.21281179E+03</pdfrwt>
<totfact> 0.22269238E+02</totfact>
</mgrwt>
</event>
<event>
 4    1  0.5410820E-008  0.4989718E+03  0.7818608E-02  0.1014048E+00
         -2   -1    0    0    0  501 -0.00000000000E+00  0.00000000000E+00  0.21898156305E+04  0.21898156305E+04  0.25500000000E-02 0.  1.
          2   -1    0    0  501    0  0.00000000000E+00 -0.00000000000E+00 -0.51828100773E+03  0.51828100773E+03  0.25500000000E-02 0. -1.
    8880022    1    1    2    0    0  0.20352055113E+03  0.42913934770E+03 -0.36057789401E+03  0.61562104020E+03  0.15294330000E+03 0.  0.
    8880022    1    1    2    0    0 -0.20352055113E+03 -0.42913934770E+03  0.20321125168E+04  0.20924755981E+04  0.15294330000E+03 0.  1.
<mgrwt>
<rscale>  0 0.49897179E+03</rscale>
<asrwt>0</asrwt>
<pdfrwt beam="1">  1        2 0.79735543E-01 0.49897179E+03</pdfrwt>
<pdfrwt beam="2">  1       -2 0.33689470E+00 0.49897179E+03</pdfrwt>
<totfact> 0.12316040E+00</totfact>
</mgrwt>
</event>
<event>
 4    1  0.5410820E-008  0.1541877E+04  0.7818608E-02  0.8857073E-01
         -2   -1    0    0    0  501 -0.00000000000E+00  0.00000000000E+00  0.15468939566E+04  0.15468939566E+04  0.25500000000E-02 0.  1.
          2   -1    0    0  501    0  0.00000000000E+00 -0.00000000000E+00 -0.21464350547E+04  0.21464350547E+04  0.25500000000E-02 0. -1.
    8880022    1    1    2    0    0  0.72402486018E+03 -0.13526934758E+04  0.68432490940E+03  0.16869154906E+04  0.15294330000E+03 0.  0.
    8880022    1    1    2    0    0 -0.72402486018E+03  0.13526934758E+04 -0.12838660075E+04  0.20064135207E+04  0.15294330000E+03 0.  0.
<mgrwt>
<rscale>  0 0.15418765E+04</rscale>
<asrwt>0</asrwt>
<pdfrwt beam="1">  1        2 0.33022078E+00 0.15418765E+04</pdfrwt>
<pdfrwt beam="2">  1       -2 0.23798368E+00 0.15418765E+04</pdfrwt>
<totfact> 0.39375805E-01</totfact>
</mgrwt>
</event>
<event>
 4    1  0.5410820E-008  0.3504278E+03  0.7818608E-02  0.1062440E+00
         -2   -1    0    0    0  501 -0.00000000000E+00  0.00000000000E+00  0.30626796794E+03  0.30626796796E+03  0.25500000000E-02 0.  1.
          2   -1    0    0  501    0  0.00000000000E+00 -0.00000000000E+00 -0.18239059389E+04  0.18239059389E+04  0.25500000000E-02 0. -1.
    8880022    1    1    2    0    0  0.61520581203E+02  0.30922996909E+03  0.18194101041E+03  0.39484445036E+03  0.15294330000E+03 0.  0.
    8880022    1    1    2    0    0 -0.61520581203E+02 -0.30922996909E+03 -0.16995789814E+04  0.17353294565E+04  0.15294330000E+03 0.  0.
<mgrwt>
<rscale>  0 0.35042775E+03</rscale>
<asrwt>0</asrwt>
<pdfrwt beam="1">  1        2 0.28060091E+00 0.35042775E+03</pdfrwt>
<pdfrwt beam="2">  1       -2 0.47118150E-01 0.35042775E+03</pdfrwt>
<totfact> 0.39396762E+01</totfact>
</mgrwt>
</event>
<event>
 4    1  0.5410820E-008  0.5381301E+03  0.7818608E-02  0.1004279E+00
          2   -1    0    0  501    0  0.00000000000E+00  0.00000000000E+00  0.15231751423E+04  0.15231751423E+04  0.25500000000E-02 0. -1.
         -2   -1    0    0    0  501 -0.00000000000E+00 -0.00000000000E+00 -0.67783450400E+03  0.67783450400E+03  0.25500000000E-02 0.  1.
    8880022    1    1    2    0    0 -0.10923318034E+03 -0.50424250176E+03  0.13561686362E+04  0.14590330397E+04  0.15294330000E+03 0.  0.
    8880022    1    1    2    0    0  0.10923318034E+03  0.50424250176E+03 -0.51082799788E+03  0.74197660657E+03  0.15294330000E+03 0.  0.
<mgrwt>
<rscale>  0 0.53813013E+03</rscale>
<asrwt>0</asrwt>
<pdfrwt beam="1">  1        2 0.23433463E+00 0.53813013E+03</pdfrwt>
<pdfrwt beam="2">  1       -2 0.10428223E+00 0.53813013E+03</pdfrwt>
<totfact> 0.97677292E+00</totfact>
</mgrwt>
</event>
<event>
 4    1  0.5410820E-008  0.8435661E+03  0.7818608E-02  0.9499013E-01
         -2   -1    0    0    0  501 -0.00000000000E+00  0.00000000000E+00  0.70308668378E+03  0.70308668379E+03  0.25500000000E-02 0.  1.
          2   -1    0    0  501    0  0.00000000000E+00 -0.00000000000E+00 -0.13428079563E+04  0.13428079563E+04  0.25500000000E-02 0. -1.
    8880022    1    1    2    0    0  0.78273201380E+03 -0.27485035752E+03 -0.82750496276E+03  0.11816802617E+04  0.15294330000E+03 0.  0.
    8880022    1    1    2    0    0 -0.78273201380E+03  0.27485035752E+03  0.18778369026E+03  0.86421437838E+03  0.15294330000E+03 0.  0.
<mgrwt>
<rscale>  0 0.84356611E+03</rscale>
<asrwt>0</asrwt>
<pdfrwt beam="1">  1        2 0.20658584E+00 0.84356611E+03</pdfrwt>
<pdfrwt beam="2">  1       -2 0.10816718E+00 0.84356611E+03</pdfrwt>
<totfact> 0.10792813E+01</totfact>
</mgrwt>
</event>
<event>
 4    1  0.5410820E-008  0.3796682E+03  0.7818608E-02  0.1051056E+00
          2   -1    0    0  501    0  0.00000000000E+00  0.00000000000E+00  0.15565276675E+04  0.15565276675E+04  0.25500000000E-02 0. -1.
         -2   -1    0    0    0  501 -0.00000000000E+00 -0.00000000000E+00 -0.43835711725E+03  0.43835711726E+03  0.25500000000E-02 0.  1.
    8880022    1    1    2    0    0 -0.65507713308E+02 -0.34126969907E+03 -0.32675194675E+03  0.50091392048E+03  0.15294330000E+03 0.  0.
    8880022    1    1    2    0    0  0.65507713308E+02  0.34126969907E+03  0.14449224970E+04  0.14939708643E+04  0.15294330000E+03 0.  0.
<mgrwt>
<rscale>  0 0.37966817E+03</rscale>
<asrwt>0</asrwt>
<pdfrwt beam="1">  1        2 0.23946580E+00 0.37966817E+03</pdfrwt>
<pdfrwt beam="2">  1       -2 0.67439556E-01 0.37966817E+03</pdfrwt>
<totfact> 0.25929842E+01</totfact>
</mgrwt>
</event>
<event>
 4    1  0.5410820E-008  0.4291873E+03  0.7818608E-02  0.1034117E+00
          2   -1    0    0  501    0  0.00000000000E+00  0.00000000000E+00  0.15475377958E+04  0.15475377958E+04  0.25500000000E-02 0. -1.
         -2   -1    0    0    0  501 -0.00000000000E+00 -0.00000000000E+00 -0.14494919913E+03  0.14494919916E+03  0.25500000000E-02 0.  1.
    8880022    1    1    2    0    0 -0.39900284435E+03 -0.40084791573E+02  0.10591496231E+04  0.11428034115E+04  0.15294330000E+03 0.  0.
    8880022    1    1    2    0    0  0.39900284435E+03  0.40084791573E+02  0.34343897362E+03  0.54968358347E+03  0.15294330000E+03 0.  0.
<mgrwt>
<rscale>  0 0.42918727E+03</rscale>
<asrwt>0</asrwt>
<pdfrwt beam="1">  1        2 0.23808275E+00 0.42918727E+03</pdfrwt>
<pdfrwt beam="2">  1       -2 0.22299876E-01 0.42918727E+03</pdfrwt>
<totfact> 0.22001982E+02</totfact>
</mgrwt>
</event>
<event>
 4    1  0.5410820E-008  0.1534174E+04  0.7818608E-02  0.8862040E-01
         -2   -1    0    0    0  501 -0.00000000000E+00  0.00000000000E+00  0.18972667867E+04  0.18972667867E+04  0.25500000000E-02 0.  1.
          2   -1    0    0  501    0  0.00000000000E+00 -0.00000000000E+00 -0.21848127863E+04  0.21848127863E+04  0.25500000000E-02 0. -1.
    8880022    1    1    2    0    0 -0.16246763491E+03 -0.15178611820E+04  0.11980229399E+04  0.19465222623E+04  0.15294330000E+03 0.  0.
    8880022    1    1    2    0    0  0.16246763491E+03  0.15178611820E+04 -0.14855689395E+04  0.21355573107E+04  0.15294330000E+03 0.  0.
<mgrwt>
<rscale>  0 0.15341740E+04</rscale>
<asrwt>0</asrwt>
<pdfrwt beam="1">  1        2 0.33612504E+00 0.15341740E+04</pdfrwt>
<pdfrwt beam="2">  1       -2 0.29188720E+00 0.15341740E+04</pdfrwt>
<totfact> 0.17519829E-01</totfact>
</mgrwt>
</event>
<event>
 4    1  0.5410820E-008  0.7093390E+03  0.7818608E-02  0.9701393E-01
          2   -1    0    0  501    0  0.00000000000E+00  0.00000000000E+00  0.10036426493E+04  0.10036426493E+04  0.25500000000E-02 0. -1.
         -2   -1    0    0    0  501 -0.00000000000E+00 -0.00000000000E+00 -0.95442211734E+03  0.95442211735E+03  0.25500000000E-02 0.  1.
    8880022    1    1    2    0    0  0.63383844014E+03 -0.27931880136E+03 -0.64994473684E+03  0.96207586756E+03  0.15294330000E+03 0.  0.
    8880022    1    1    2    0    0 -0.63383844014E+03  0.27931880136E+03  0.69916526877E+03  0.99598889907E+03  0.15294330000E+03 0.  0.
<mgrwt>
<rscale>  0 0.70933900E+03</rscale>
<asrwt>0</asrwt>
<pdfrwt beam="1">  1        2 0.15440656E+00 0.70933900E+03</pdfrwt>
<pdfrwt beam="2">  1       -2 0.14683417E+00 0.70933900E+03</pdfrwt>
<totfact> 0.81294464E+00</totfact>
</mgrwt>
</event>
<event>
 4    1  0.5410820E-008  0.5695278E+03  0.7818608E-02  0.9970724E-01
          2   -1    0    0  501    0  0.00000000000E+00  0.00000000000E+00  0.84637313765E+03  0.84637313766E+03  0.25500000000E-02 0. -1.
         -2   -1    0    0    0  501 -0.00000000000E+00 -0.00000000000E+00 -0.46860968455E+03  0.46860968456E+03  0.25500000000E-02 0.  1.
    8880022    1    1    2    0    0  0.38793106975E+03  0.38791722302E+03 -0.91753773511E+02  0.57687147161E+03  0.15294330000E+03 0.  0.
    8880022    1    1    2    0    0 -0.38793106975E+03 -0.38791722302E+03  0.46951722661E+03  0.73811135061E+03  0.15294330000E+03 0.  0.
<mgrwt>
<rscale>  0 0.56952782E+03</rscale>
<asrwt>0</asrwt>
<pdfrwt beam="1">  1        2 0.13021125E+00 0.56952782E+03</pdfrwt>
<pdfrwt beam="2">  1       -2 0.72093798E-01 0.56952782E+03</pdfrwt>
<totfact> 0.57323240E+01</totfact>
</mgrwt>
</event>
<event>
 4    1  0.5410820E-008  0.6044328E+03  0.7818608E-02  0.9896252E-01
          2   -1    0    0  501    0  0.00000000000E+00  0.00000000000E+00  0.36464029128E+04  0.36464029128E+04  0.25500000000E-02 0. -1.
         -2   -1    0    0    0  501 -0.00000000000E+00 -0.00000000000E+00 -0.12647088918E+03  0.12647088921E+03  0.25500000000E-02 0.  1.
    8880022    1    1    2    0    0 -0.58471663518E+03  0.73326183529E+01  0.26198775081E+04  0.26886980346E+04  0.15294330000E+03 0.  0.
    8880022    1    1    2    0    0  0.58471663518E+03 -0.73326183529E+01  0.90005451556E+03  0.10841757675E+04  0.15294330000E+03 0.  0.
<mgrwt>
<rscale>  0 0.60443276E+03</rscale>
<asrwt>0</asrwt>
<pdfrwt beam="1">  1        2 0.56098510E+00 0.60443276E+03</pdfrwt>
<pdfrwt beam="2">  1       -2 0.19457059E-01 0.60443276E+03</pdfrwt>
<totfact> 0.15982303E+01</totfact>
</mgrwt>
</event>
<event>
 4    1  0.5410820E-008  0.3830474E+03  0.7818608E-02  0.1049813E+00
         -2   -1    0    0    0  501 -0.00000000000E+00  0.00000000000E+00  0.10666146581E+03  0.10666146584E+03  0.25500000000E-02 0.  1.
          2   -1    0    0  501    0  0.00000000000E+00 -0.00000000000E+00 -0.16179651476E+04  0.16179651476E+04  0.25500000000E-02 0. -1.
    8880022    1    1    2    0    0  0.15029755886E+02  0.35086713886E+03 -0.42191772046E+03  0.56985950773E+03  0.15294330000E+03 0.  0.
    8880022    1    1    2    0    0 -0.15029755886E+02 -0.35086713886E+03 -0.10893859613E+04  0.11547671057E+04  0.15294330000E+03 0.  0.
<mgrwt>
<rscale>  0 0.38304738E+03</rscale>
<asrwt>0</asrwt>
<pdfrwt beam="1">  1        2 0.24891770E+00 0.38304738E+03</pdfrwt>
<pdfrwt beam="2">  1       -2 0.16409457E-01 0.38304738E+03</pdfrwt>
<totfact> 0.34381065E+02</totfact>
</mgrwt>
</event>
<event>
 4    1  0.5410820E-008  0.6518336E+03  0.7818608E-02  0.9803345E-01
          2   -1    0    0  501    0  0.00000000000E+00  0.00000000000E+00  0.17002407661E+04  0.17002407661E+04  0.25500000000E-02 0. -1.
         -2   -1    0    0    0  501 -0.00000000000E+00 -0.00000000000E+00 -0.35366198562E+03  0.35366198563E+03  0.25500000000E-02 0.  1.
    8880022    1    1    2    0    0  0.24814121793E+03  0.58302767632E+03  0.12295505546E+04  0.13916470654E+04  0.15294330000E+03 0. -1.
    8880022    1    1    2    0    0 -0.24814121793E+03 -0.58302767632E+03  0.11702822591E+03  0.66225568632E+03  0.15294330000E+03 0.  0.
<mgrwt>
<rscale>  0 0.65183356E+03</rscale>
<asrwt>0</asrwt>
<pdfrwt beam="1">  1        2 0.26157550E+00 0.65183356E+03</pdfrwt>
<pdfrwt beam="2">  1       -2 0.54409536E-01 0.65183356E+03</pdfrwt>
<totfact> 0.32407341E+01</totfact>
</mgrwt>
</event>
<event>
 4    1  0.5410820E-008  0.7579049E+03  0.7818608E-02  0.9623030E-01
          2   -1    0    0  501    0  0.00000000000E+00  0.00000000000E+00  0.19869905647E+04  0.19869905647E+04  0.25500000000E-02 0. -1.
         -2   -1    0    0    0  501 -0.00000000000E+00 -0.00000000000E+00 -0.57857915311E+03  0.57857915311E+03  0.25500000000E-02 0.  1.
    8880022    1    1    2    0    0  0.20525634920E+03 -0.71337090067E+03  0.16115838094E+04  0.17809048932E+04  0.15294330000E+03 0.  0.
    8880022    1    1    2    0    0 -0.20525634920E+03  0.71337090067E+03 -0.20317239779E+03  0.78466482465E+03  0.15294330000E+03 0.  0.
<mgrwt>
<rscale>  0 0.75790492E+03</rscale>
<asrwt>0</asrwt>
<pdfrwt beam="1">  1        2 0.30569085E+00 0.75790492E+03</pdfrwt>
<pdfrwt beam="2">  1       -2 0.89012179E-01 0.75790492E+03</pdfrwt>
<totfact> 0.76157766E+00</totfact>
</mgrwt>
</event>
<event>
 4    1  0.5410820E-008  0.1227913E+04  0.7818608E-02  0.9088769E-01
         -2   -1    0    0    0  501 -0.00000000000E+00  0.00000000000E+00  0.93691227242E+03  0.93691227242E+03  0.25500000000E-02 0.  1.
          2   -1    0    0  501    0  0.00000000000E+00 -0.00000000000E+00 -0.23226887064E+04  0.23226887064E+04  0.25500000000E-02 0. -1.
    8880022    1    1    2    0    0  0.11263422997E+04 -0.46446993774E+03  0.21035080932E+03  0.12458003112E+04  0.15294330000E+03 0.  0.
    8880022    1    1    2    0    0 -0.11263422997E+04  0.46446993774E+03 -0.15961272433E+04  0.20138006677E+04  0.15294330000E+03 0.  0.
<mgrwt>
<rscale>  0 0.12279133E+04</rscale>
<asrwt>0</asrwt>
<pdfrwt beam="1">  1        2 0.35733672E+00 0.12279133E+04</pdfrwt>
<pdfrwt beam="2">  1       -2 0.14414035E+00 0.12279133E+04</pdfrwt>
<totfact> 0.14253281E+00</totfact>
</mgrwt>
</event>
<event>
 4    1  0.5410820E-008  0.8090460E+03  0.7818608E-02  0.9547015E-01
         -2   -1    0    0    0  501 -0.00000000000E+00  0.00000000000E+00  0.62084180811E+03  0.62084180812E+03  0.25500000000E-02 0.  1.
          2   -1    0    0  501    0  0.00000000000E+00 -0.00000000000E+00 -0.22438667125E+04  0.22438667125E+04  0.25500000000E-02 0. -1.
    8880022    1    1    2    0    0 -0.70730093708E+03 -0.36178607955E+03  0.23139495922E+03  0.84148622278E+03  0.15294330000E+03 0.  0.
    8880022    1    1    2    0    0  0.70730093708E+03  0.36178607955E+03 -0.18544198636E+04  0.20232222979E+04  0.15294330000E+03 0.  0.
<mgrwt>
<rscale>  0 0.80904600E+03</rscale>
<asrwt>0</asrwt>
<pdfrwt beam="1">  1        2 0.34521026E+00 0.80904600E+03</pdfrwt>
<pdfrwt beam="2">  1       -2 0.95514126E-01 0.80904600E+03</pdfrwt>
<totfact> 0.46341495E+00</totfact>
</mgrwt>
</event>
<event>
 4    1  0.5410820E-008  0.9744894E+03  0.7818608E-02  0.9336976E-01
         -2   -1    0    0    0  501 -0.00000000000E+00  0.00000000000E+00  0.66431739145E+03  0.66431739146E+03  0.25500000000E-02 0.  1.
          2   -1    0    0  501    0  0.00000000000E+00 -0.00000000000E+00 -0.15991881986E+04  0.15991881986E+04  0.25500000000E-02 0. -1.
    8880022    1    1    2    0    0  0.35653889467E+03 -0.89393397036E+03 -0.98754218579E+02  0.97948046202E+03  0.15294330000E+03 0.  0.
    8880022    1    1    2    0    0 -0.35653889467E+03  0.89393397036E+03 -0.83611658861E+03  0.12840251281E+04  0.15294330000E+03 0.  0.
<mgrwt>
<rscale>  0 0.97448939E+03</rscale>
<asrwt>0</asrwt>
<pdfrwt beam="1">  1        2 0.24602895E+00 0.97448939E+03</pdfrwt>
<pdfrwt beam="2">  1       -2 0.10220268E+00 0.97448939E+03</pdfrwt>
<totfact> 0.87437234E+00</totfact>
</mgrwt>
</event>
<event>
 4    1  0.5410820E-008  0.6769314E+03  0.7818608E-02  0.9757517E-01
          2   -1    0    0  501    0  0.00000000000E+00  0.00000000000E+00  0.32115039630E+04  0.32115039630E+04  0.25500000000E-02 0. -1.
         -2   -1    0    0    0  501 -0.00000000000E+00 -0.00000000000E+00 -0.36863847961E+03  0.36863847962E+03  0.25500000000E-02 0.  1.
    8880022    1    1    2    0    0 -0.65938792157E+03 -0.72112491627E+01  0.19979206936E+02  0.67722614757E+03  0.15294330000E+03 0.  0.
    8880022    1    1    2    0    0  0.65938792157E+03  0.72112491627E+01  0.28228862764E+04  0.29029162950E+04  0.15294330000E+03 0.  0.
<mgrwt>
<rscale>  0 0.67693137E+03</rscale>
<asrwt>0</asrwt>
<pdfrwt beam="1">  1        2 0.49407754E+00 0.67693137E+03</pdfrwt>
<pdfrwt beam="2">  1       -2 0.56713612E-01 0.67693137E+03</pdfrwt>
<totfact> 0.40553601E+00</totfact>
</mgrwt>
</event>
<event>
 4    1  0.5410820E-008  0.4672180E+03  0.7818608E-02  0.1022708E+00
          2   -1    0    0  501    0  0.00000000000E+00  0.00000000000E+00  0.37568384490E+03  0.37568384491E+03  0.25500000000E-02 0. -1.
         -2   -1    0    0    0  501 -0.00000000000E+00 -0.00000000000E+00 -0.77114903816E+03  0.77114903816E+03  0.25500000000E-02 0.  1.
    8880022    1    1    2    0    0 -0.44021129296E+03  0.33392204346E+02 -0.48243173078E+03  0.67158994159E+03  0.15294330000E+03 0.  0.
    8880022    1    1    2    0    0  0.44021129296E+03 -0.33392204346E+02  0.86966537530E+02  0.47524294148E+03  0.15294330000E+03 0.  0.
<mgrwt>
<rscale>  0 0.46721802E+03</rscale>
<asrwt>0</asrwt>
<pdfrwt beam="1">  1        2 0.57797515E-01 0.46721802E+03</pdfrwt>
<pdfrwt beam="2">  1       -2 0.11863831E+00 0.46721802E+03</pdfrwt>
<totfact> 0.48186001E+01</totfact>
</mgrwt>
</event>
<event>
 4    1  0.5410820E-008  0.6835450E+03  0.7818608E-02  0.9745794E-01
         -2   -1    0    0    0  501 -0.00000000000E+00  0.00000000000E+00  0.26759734925E+03  0.26759734926E+03  0.25500000000E-02 0.  1.
          2   -1    0    0  501    0  0.00000000000E+00 -0.00000000000E+00 -0.23457309499E+04  0.23457309499E+04  0.25500000000E-02 0. -1.
    8880022    1    1    2    0    0 -0.31204015188E+03  0.58861961691E+03 -0.16997468801E+04  0.18320407253E+04  0.15294330000E+03 0.  0.
    8880022    1    1    2    0    0  0.31204015188E+03 -0.58861961691E+03 -0.37838672061E+03  0.78128757391E+03  0.15294330000E+03 0.  1.
<mgrwt>
<rscale>  0 0.68354500E+03</rscale>
<asrwt>0</asrwt>
<pdfrwt beam="1">  1        2 0.36088167E+00 0.68354500E+03</pdfrwt>
<pdfrwt beam="2">  1       -2 0.41168825E-01 0.68354500E+03</pdfrwt>
<totfact> 0.25090894E+01</totfact>
</mgrwt>
</event>
<event>
 4    1  0.5410820E-008  0.6762731E+03  0.7818608E-02  0.9758691E-01
          2   -1    0    0  501    0  0.00000000000E+00  0.00000000000E+00  0.67666345738E+03  0.67666345739E+03  0.25500000000E-02 0. -1.
         -2   -1    0    0    0  501 -0.00000000000E+00 -0.00000000000E+00 -0.10562442063E+04  0.10562442063E+04  0.25500000000E-02 0.  1.
    8880022    1    1    2    0    0  0.38633151304E+03  0.53357433830E+03 -0.70974017660E+03  0.98034503301E+03  0.15294330000E+03 0.  0.
    8880022    1    1    2    0    0 -0.38633151304E+03 -0.53357433830E+03  0.33015942764E+03  0.75256263071E+03  0.15294330000E+03 0.  0.
<mgrwt>
<rscale>  0 0.67627307E+03</rscale>
<asrwt>0</asrwt>
<pdfrwt beam="1">  1        2 0.10410207E+00 0.67627307E+03</pdfrwt>
<pdfrwt beam="2">  1       -2 0.16249911E+00 0.67627307E+03</pdfrwt>
<totfact> 0.10579888E+01</totfact>
</mgrwt>
</event>
<event>
 4    1  0.5410820E-008  0.8985916E+03  0.7818608E-02  0.9427344E-01
         -2   -1    0    0    0  501 -0.00000000000E+00  0.00000000000E+00  0.58313350583E+03  0.58313350583E+03  0.25500000000E-02 0.  1.
          2   -1    0    0  501    0  0.00000000000E+00 -0.00000000000E+00 -0.18277917485E+04  0.18277917485E+04  0.25500000000E-02 0. -1.
    8880022    1    1    2    0    0 -0.46385090754E+03  0.75426623472E+03 -0.12158494858E+04  0.15118719663E+04  0.15294330000E+03 0.  0.
    8880022    1    1    2    0    0  0.46385090754E+03 -0.75426623472E+03 -0.28808756855E+02  0.89905328804E+03  0.15294330000E+03 0.  1.
<mgrwt>
<rscale>  0 0.89859160E+03</rscale>
<asrwt>0</asrwt>
<pdfrwt beam="1">  1        2 0.28119873E+00 0.89859160E+03</pdfrwt>
<pdfrwt beam="2">  1       -2 0.89712848E-01 0.89859160E+03</pdfrwt>
<totfact> 0.89638619E+00</totfact>
</mgrwt>
</event>
<event>
 4    1  0.5410820E-008  0.3791916E+03  0.7818608E-02  0.1051233E+00
         -2   -1    0    0    0  501 -0.00000000000E+00  0.00000000000E+00  0.29440105792E+03  0.29440105793E+03  0.25500000000E-02 0.  1.
          2   -1    0    0  501    0  0.00000000000E+00 -0.00000000000E+00 -0.26176600951E+04  0.26176600951E+04  0.25500000000E-02 0. -1.
    8880022    1    1    2    0    0  0.26195574905E+03  0.22753851457E+03 -0.24748207102E+04  0.25037020172E+04  0.15294330000E+03 0.  0.
    8880022    1    1    2    0    0 -0.26195574905E+03 -0.22753851457E+03  0.15156167305E+03  0.40835913584E+03  0.15294330000E+03 0.  0.
<mgrwt>
<rscale>  0 0.37919157E+03</rscale>
<asrwt>0</asrwt>
<pdfrwt beam="1">  1        2 0.40271692E+00 0.37919157E+03</pdfrwt>
<pdfrwt beam="2">  1       -2 0.45292472E-01 0.37919157E+03</pdfrwt>
<totfact> 0.15701033E+01</totfact>
</mgrwt>
</event>
<event>
 4    1  0.5410820E-008  0.9811149E+03  0.7818608E-02  0.9329504E-01
          2   -1    0    0  501    0  0.00000000000E+00  0.00000000000E+00  0.99217702491E+03  0.99217702492E+03  0.25500000000E-02 0. -1.
         -2   -1    0    0    0  501 -0.00000000000E+00 -0.00000000000E+00 -0.10095823201E+04  0.10095823201E+04  0.25500000000E-02 0.  1.
    8880022    1    1    2    0    0 -0.94273712937E+03  0.22459181983E+03 -0.20644213596E+03  0.10025990171E+04  0.15294330000E+03 0.  0.
    8880022    1    1    2    0    0  0.94273712937E+03 -0.22459181983E+03  0.18903684079E+03  0.99916032788E+03  0.15294330000E+03 0.  0.
<mgrwt>
<rscale>  0 0.98111489E+03</rscale>
<asrwt>0</asrwt>
<pdfrwt beam="1">  1        2 0.15264262E+00 0.98111489E+03</pdfrwt>
<pdfrwt beam="2">  1       -2 0.15532036E+00 0.98111489E+03</pdfrwt>
<totfact> 0.69082066E+00</totfact>
</mgrwt>
</event>
<event>
 4    1  0.5410820E-008  0.9489046E+03  0.7818608E-02  0.9366432E-01
         -2   -1    0    0    0  501 -0.00000000000E+00  0.00000000000E+00  0.10303197517E+04  0.10303197517E+04  0.25500000000E-02 0.  1.
          2   -1    0    0  501    0  0.00000000000E+00 -0.00000000000E+00 -0.17686032100E+04  0.17686032100E+04  0.25500000000E-02 0. -1.
    8880022    1    1    2    0    0 -0.34972925829E+03 -0.86874488968E+03 -0.13645006575E+04  0.16620114124E+04  0.15294330000E+03 0.  0.
    8880022    1    1    2    0    0  0.34972925829E+03  0.86874488968E+03  0.62621719923E+03  0.11369115494E+04  0.15294330000E+03 0.  0.
<mgrwt>
<rscale>  0 0.94890457E+03</rscale>
<asrwt>0</asrwt>
<pdfrwt beam="1">  1        2 0.27209280E+00 0.94890457E+03</pdfrwt>
<pdfrwt beam="2">  1       -2 0.15851073E+00 0.94890457E+03</pdfrwt>
<totfact> 0.23248101E+00</totfact>
</mgrwt>
</event>
<event>
 4    1  0.5410820E-008  0.5151708E+03  0.7818608E-02  0.1009893E+00
         -2   -1    0    0    0  501 -0.00000000000E+00  0.00000000000E+00  0.80133555773E+03  0.80133555773E+03  0.25500000000E-02 0.  1.
          2   -1    0    0  501    0  0.00000000000E+00 -0.00000000000E+00 -0.45250168170E+03  0.45250168171E+03  0.25500000000E-02 0. -1.
    8880022    1    1    2    0    0 -0.21346035169E+02  0.49148102864E+03  0.49900883434E+03  0.71722431950E+03  0.15294330000E+03 0.  0.
    8880022    1    1    2    0    0  0.21346035169E+02 -0.49148102864E+03 -0.15017495831E+03  0.53661291994E+03  0.15294330000E+03 0.  0.
<mgrwt>
<rscale>  0 0.51517076E+03</rscale>
<asrwt>0</asrwt>
<pdfrwt beam="1">  1        2 0.69615643E-01 0.51517076E+03</pdfrwt>
<pdfrwt beam="2">  1       -2 0.12328239E+00 0.51517076E+03</pdfrwt>
<totfact> 0.35426157E+01</totfact>
</mgrwt>
</event>
<event>
 4    1  0.5410820E-008  0.7486442E+03  0.7818608E-02  0.9637480E-01
          2   -1    0    0  501    0  0.00000000000E+00  0.00000000000E+00  0.90646326882E+03  0.90646326882E+03  0.25500000000E-02 0. -1.
         -2   -1    0    0    0  501 -0.00000000000E+00 -0.00000000000E+00 -0.11921050538E+04  0.11921050538E+04  0.25500000000E-02 0.  1.
    8880022    1    1    2    0    0  0.64246788528E+03 -0.35257828322E+03  0.58515545288E+03  0.95019734080E+03  0.15294330000E+03 0.  0.
    8880022    1    1    2    0    0 -0.64246788528E+03  0.35257828322E+03 -0.87079723789E+03  0.11483709818E+04  0.15294330000E+03 0.  0.
<mgrwt>
<rscale>  0 0.74864416E+03</rscale>
<asrwt>0</asrwt>
<pdfrwt beam="1">  1        2 0.13945589E+00 0.74864416E+03</pdfrwt>
<pdfrwt beam="2">  1       -2 0.18340078E+00 0.74864416E+03</pdfrwt>
<totfact> 0.50914894E+00</totfact>
</mgrwt>
</event>
<event>
 4    1  0.5410820E-008  0.4399523E+03  0.7818608E-02  0.1030761E+00
          2   -1    0    0  501    0  0.00000000000E+00  0.00000000000E+00  0.57602307687E+03  0.57602307687E+03  0.25500000000E-02 0. -1.
         -2   -1    0    0    0  501 -0.00000000000E+00 -0.00000000000E+00 -0.11926083087E+04  0.11926083087E+04  0.25500000000E-02 0.  1.
    8880022    1    1    2    0    0 -0.23137360551E+03  0.34151519450E+03 -0.10577436733E+04  0.11455914214E+04  0.15294330000E+03 0.  0.
    8880022    1    1    2    0    0  0.23137360551E+03 -0.34151519450E+03  0.44115844149E+03  0.62303996414E+03  0.15294330000E+03 0.  0.
<mgrwt>
<rscale>  0 0.43995230E+03</rscale>
<asrwt>0</asrwt>
<pdfrwt beam="1">  1        2 0.88618935E-01 0.43995230E+03</pdfrwt>
<pdfrwt beam="2">  1       -2 0.18347820E+00 0.43995230E+03</pdfrwt>
<totfact> 0.95070878E+00</totfact>
</mgrwt>
</event>
<event>
 4    1  0.5410820E-008  0.2069218E+03  0.7818608E-02  0.1144027E+00
          2   -1    0    0  501    0  0.00000000000E+00  0.00000000000E+00  0.33082996944E+03  0.33082996945E+03  0.25500000000E-02 0. -1.
         -2   -1    0    0    0  501 -0.00000000000E+00 -0.00000000000E+00 -0.27438562075E+03  0.27438562076E+03  0.25500000000E-02 0.  1.
    8880022    1    1    2    0    0 -0.38987304380E+02 -0.13380942032E+03  0.24817481905E+03  0.32312128480E+03  0.15294330000E+03 0.  0.
    8880022    1    1    2    0    0  0.38987304380E+02  0.13380942032E+03 -0.19173047036E+03  0.28209430541E+03  0.15294330000E+03 0.  0.
<mgrwt>
<rscale>  0 0.20692178E+03</rscale>
<asrwt>0</asrwt>
<pdfrwt beam="1">  1        2 0.50896918E-01 0.20692178E+03</pdfrwt>
<pdfrwt beam="2">  1       -2 0.42213173E-01 0.20692178E+03</pdfrwt>
<totfact> 0.52986911E+02</totfact>
</mgrwt>
</event>
<event>
 4    1  0.5410820E-008  0.8417240E+03  0.7818608E-02  0.9501512E-01
          2   -1    0    0  501    0  0.00000000000E+00  0.00000000000E+00  0.19143771758E+04  0.19143771758E+04  0.25500000000E-02 0. -1.
         -2   -1    0    0    0  501 -0.00000000000E+00 -0.00000000000E+00 -0.14057512492E+04  0.14057512492E+04  0.25500000000E-02 0.  1.
    8880022    1    1    2    0    0 -0.70041016251E+03  0.44105929924E+03 -0.11705683454E+04  0.14417800129E+04  0.15294330000E+03 0.  0.
    8880022    1    1    2    0    0  0.70041016251E+03 -0.44105929924E+03  0.16791942721E+04  0.18783484122E+04  0.15294330000E+03 0.  0.
<mgrwt>
<rscale>  0 0.84172404E+03</rscale>
<asrwt>0</asrwt>
<pdfrwt beam="1">  1        2 0.29451956E+00 0.84172404E+03</pdfrwt>
<pdfrwt beam="2">  1       -2 0.21626942E+00 0.84172404E+03</pdfrwt>
<totfact> 0.79824981E-01</totfact>
</mgrwt>
</event>
<event>
 4    1  0.5410820E-008  0.5588450E+03  0.7818608E-02  0.9994671E-01
         -2   -1    0    0    0  501 -0.00000000000E+00  0.00000000000E+00  0.53084437289E+03  0.53084437290E+03  0.25500000000E-02 0.  1.
          2   -1    0    0  501    0  0.00000000000E+00 -0.00000000000E+00 -0.13466556094E+04  0.13466556094E+04  0.25500000000E-02 0. -1.
    8880022    1    1    2    0    0 -0.37962284430E+03  0.38052937834E+03 -0.11123579997E+04  0.12448486190E+04  0.15294330000E+03 0. -1.
    8880022    1    1    2    0    0  0.37962284430E+03 -0.38052937834E+03  0.29654676321E+03  0.63265136329E+03  0.15294330000E+03 0.  0.
<mgrwt>
<rscale>  0 0.55884503E+03</rscale>
<asrwt>0</asrwt>
<pdfrwt beam="1">  1        2 0.20717779E+00 0.55884503E+03</pdfrwt>
<pdfrwt beam="2">  1       -2 0.81668365E-01 0.55884503E+03</pdfrwt>
<totfact> 0.21473507E+01</totfact>
</mgrwt>
</event>
<event>
 4    1  0.5410820E-008  0.7813784E+03  0.7818608E-02  0.9587369E-01
          2   -1    0    0  501    0  0.00000000000E+00  0.00000000000E+00  0.16708788224E+04  0.16708788224E+04  0.25500000000E-02 0. -1.
         -2   -1    0    0    0  501 -0.00000000000E+00 -0.00000000000E+00 -0.42290435390E+03  0.42290435391E+03  0.25500000000E-02 0.  1.
    8880022    1    1    2    0    0  0.52817021718E+03 -0.55515478402E+03  0.23797480475E+03  0.81681348743E+03  0.15294330000E+03 0.  0.
    8880022    1    1    2    0    0 -0.52817021718E+03  0.55515478402E+03  0.10099996638E+04  0.12769696889E+04  0.15294330000E+03 0.  0.
<mgrwt>
<rscale>  0 0.78137844E+03</rscale>
<asrwt>0</asrwt>
<pdfrwt beam="1">  1        2 0.25705828E+00 0.78137844E+03</pdfrwt>
<pdfrwt beam="2">  1       -2 0.65062207E-01 0.78137844E+03</pdfrwt>
<totfact> 0.22688896E+01</totfact>
</mgrwt>
</event>
<event>
 4    1  0.5410820E-008  0.2843135E+03  0.7818608E-02  0.1093356E+00
         -2   -1    0    0    0  501 -0.00000000000E+00  0.00000000000E+00  0.35575694215E+03  0.35575694216E+03  0.25500000000E-02 0.  1.
          2   -1    0    0  501    0  0.00000000000E+00 -0.00000000000E+00 -0.11973261701E+04  0.11973261701E+04  0.25500000000E-02 0. -1.
    8880022    1    1    2    0    0  0.17247595324E+03  0.16641681070E+03 -0.11197709446E+04  0.11553013159E+04  0.15294330000E+03 0.  0.
    8880022    1    1    2    0    0 -0.17247595324E+03 -0.16641681070E+03  0.27820171662E+03  0.39778179631E+03  0.15294330000E+03 0.  0.
<mgrwt>
<rscale>  0 0.28431349E+03</rscale>
<asrwt>0</asrwt>
<pdfrwt beam="1">  1        2 0.18420402E+00 0.28431349E+03</pdfrwt>
<pdfrwt beam="2">  1       -2 0.54731838E-01 0.28431349E+03</pdfrwt>
<totfact> 0.64850323E+01</totfact>
</mgrwt>
</event>
<event>
 4    1  0.5410820E-008  0.3380739E+03  0.7818608E-02  0.1067619E+00
          2   -1    0    0  501    0  0.00000000000E+00  0.00000000000E+00  0.10648779879E+04  0.10648779879E+04  0.25500000000E-02 0. -1.
         -2   -1    0    0    0  501 -0.00000000000E+00 -0.00000000000E+00 -0.25348206908E+03  0.25348206910E+03  0.25500000000E-02 0.  1.
    8880022    1    1    2    0    0  0.15631171711E+03  0.25781573940E+03  0.90623019952E+03  0.96723685617E+03  0.15294330000E+03 0.  0.
    8880022    1    1    2    0    0 -0.15631171711E+03 -0.25781573940E+03 -0.94834280665E+02  0.35112320087E+03  0.15294330000E+03 0.  0.
<mgrwt>
<rscale>  0 0.33807390E+03</rscale>
<asrwt>0</asrwt>
<pdfrwt beam="1">  1        2 0.16382739E+00 0.33807390E+03</pdfrwt>
<pdfrwt beam="2">  1       -2 0.38997240E-01 0.33807390E+03</pdfrwt>
<totfact> 0.15003424E+02</totfact>
</mgrwt>
</event>
<event>
 4    1  0.5410820E-008  0.4980584E+03  0.7818608E-02  0.1014287E+00
          2   -1    0    0  501    0  0.00000000000E+00  0.00000000000E+00  0.11671298673E+04  0.11671298673E+04  0.25500000000E-02 0. -1.
         -2   -1    0    0    0  501 -0.00000000000E+00 -0.00000000000E+00 -0.54298777603E+03  0.54298777603E+03  0.25500000000E-02 0.  1.
    8880022    1    1    2    0    0 -0.30335892967E+03 -0.36420313425E+03  0.97911144503E+03  0.10985087337E+04  0.15294330000E+03 0. -1.
    8880022    1    1    2    0    0  0.30335892967E+03  0.36420313425E+03 -0.35496935377E+03  0.61160890963E+03  0.15294330000E+03 0.  0.
<mgrwt>
<rscale>  0 0.49805845E+03</rscale>
<asrwt>0</asrwt>
<pdfrwt beam="1">  1        2 0.17955844E+00 0.49805845E+03</pdfrwt>
<pdfrwt beam="2">  1       -2 0.83536582E-01 0.49805845E+03</pdfrwt>
<totfact> 0.26145637E+01</totfact>
</mgrwt>
</event>
<event>
 4    1  0.5410820E-008  0.1000942E+04  0.7818608E-02  0.9307512E-01
          2   -1    0    0  501    0  0.00000000000E+00  0.00000000000E+00  0.27958052275E+04  0.27958052275E+04  0.25500000000E-02 0. -1.
         -2   -1    0    0    0  501 -0.00000000000E+00 -0.00000000000E+00 -0.85883456713E+03  0.85883456714E+03  0.25500000000E-02 0.  1.
    8880022    1    1    2    0    0  0.54038581888E+03 -0.82853846999E+03 -0.42644969349E+03  0.10879999189E+04  0.15294330000E+03 0.  0.
    8880022    1    1    2    0    0 -0.54038581888E+03  0.82853846999E+03  0.23634203539E+04  0.25666398757E+04  0.15294330000E+03 0.  0.
<mgrwt>
<rscale>  0 0.10009418E+04</rscale>
<asrwt>0</asrwt>
<pdfrwt beam="1">  1        2 0.43012389E+00 0.10009418E+04</pdfrwt>
<pdfrwt beam="2">  1       -2 0.13212839E+00 0.10009418E+04</pdfrwt>
<totfact> 0.98139430E-01</totfact>
</mgrwt>
</event>
<event>
 4    1  0.5410820E-008  0.7620635E+03  0.7818608E-02  0.9616612E-01
         -2   -1    0    0    0  501 -0.00000000000E+00  0.00000000000E+00  0.77680671500E+03  0.77680671500E+03  0.25500000000E-02 0.  1.
          2   -1    0    0  501    0  0.00000000000E+00 -0.00000000000E+00 -0.93879429781E+03  0.93879429782E+03  0.25500000000E-02 0. -1.
    8880022    1    1    2    0    0  0.74641086508E+03  0.14829006725E+02 -0.46810745287E+03  0.89435189909E+03  0.15294330000E+03 0.  0.
    8880022    1    1    2    0    0 -0.74641086508E+03 -0.14829006725E+02  0.30611987006E+03  0.82124911373E+03  0.15294330000E+03 0.  0.
<mgrwt>
<rscale>  0 0.76206347E+03</rscale>
<asrwt>0</asrwt>
<pdfrwt beam="1">  1        2 0.14442989E+00 0.76206347E+03</pdfrwt>
<pdfrwt beam="2">  1       -2 0.11950873E+00 0.76206347E+03</pdfrwt>
<totfact> 0.15035177E+01</totfact>
</mgrwt>
</event>
<event>
 4    1  0.5410820E-008  0.5493467E+03  0.7818608E-02  0.1001645E+00
          2   -1    0    0  501    0  0.00000000000E+00  0.00000000000E+00  0.20251983128E+03  0.20251983130E+03  0.25500000000E-02 0. -1.
         -2   -1    0    0    0  501 -0.00000000000E+00 -0.00000000000E+00 -0.18532733048E+04  0.18532733048E+04  0.25500000000E-02 0.  1.
    8880022    1    1    2    0    0 -0.51313127614E+03  0.12282691790E+03 -0.37037197601E+03  0.66253846073E+03  0.15294330000E+03 0.  0.
    8880022    1    1    2    0    0  0.51313127614E+03 -0.12282691790E+03 -0.12803814975E+04  0.13932546754E+04  0.15294330000E+03 0.  0.
<mgrwt>
<rscale>  0 0.54934671E+03</rscale>
<asrwt>0</asrwt>
<pdfrwt beam="1">  1        2 0.31156898E-01 0.54934671E+03</pdfrwt>
<pdfrwt beam="2">  1       -2 0.28511896E+00 0.54934671E+03</pdfrwt>
<totfact> 0.71052181E+00</totfact>
</mgrwt>
</event>
<event>
 4    1  0.5410820E-008  0.1117408E+04  0.7818608E-02  0.9188389E-01
          2   -1    0    0  501    0  0.00000000000E+00  0.00000000000E+00  0.10979567620E+04  0.10979567620E+04  0.25500000000E-02 0. -1.
         -2   -1    0    0    0  501 -0.00000000000E+00 -0.00000000000E+00 -0.19964637438E+04  0.19964637438E+04  0.25500000000E-02 0.  1.
    8880022    1    1    2    0    0 -0.97695039788E+03  0.52036306515E+03 -0.14642877681E+04  0.18419392282E+04  0.15294330000E+03 0.  0.
    8880022    1    1    2    0    0  0.97695039788E+03 -0.52036306515E+03  0.56578078637E+03  0.12524812776E+04  0.15294330000E+03 0.  0.
<mgrwt>
<rscale>  0 0.11174084E+04</rscale>
<asrwt>0</asrwt>
<pdfrwt beam="1">  1        2 0.16891643E+00 0.11174084E+04</pdfrwt>
<pdfrwt beam="2">  1       -2 0.30714827E+00 0.11174084E+04</pdfrwt>
<totfact> 0.62049799E-01</totfact>
</mgrwt>
</event>
<event>
 4    1  0.5410820E-008  0.2973183E+03  0.7818608E-02  0.1086589E+00
          2   -1    0    0  501    0  0.00000000000E+00  0.00000000000E+00  0.32220705726E+04  0.32220705727E+04  0.25500000000E-02 0. -1.
         -2   -1    0    0    0  501 -0.00000000000E+00 -0.00000000000E+00 -0.57084214659E+02  0.57084214716E+02  0.25500000000E-02 0.  1.
    8880022    1    1    2    0    0 -0.16349464906E+03 -0.19564250359E+03  0.40086984861E+03  0.49909395711E+03  0.15294330000E+03 0.  0.
    8880022    1    1    2    0    0  0.16349464906E+03  0.19564250359E+03  0.27641165094E+04  0.27800608303E+04  0.15294330000E+03 0. -1.
<mgrwt>
<rscale>  0 0.29731825E+03</rscale>
<asrwt>0</asrwt>
<pdfrwt beam="1">  1        2 0.49570325E+00 0.29731825E+03</pdfrwt>
<pdfrwt beam="2">  1       -2 0.87821854E-02 0.29731825E+03</pdfrwt>
<totfact> 0.12380558E+02</totfact>
</mgrwt>
</event>
<event>
 4    1  0.5410820E-008  0.1470815E+04  0.7818608E-02  0.8904096E-01
          2   -1    0    0  501    0  0.00000000000E+00  0.00000000000E+00  0.27020926426E+04  0.27020926426E+04  0.25500000000E-02 0. -1.
         -2   -1    0    0    0  501 -0.00000000000E+00 -0.00000000000E+00 -0.16111028031E+04  0.16111028031E+04  0.25500000000E-02 0.  1.
    8880022    1    1    2    0    0 -0.14449032592E+04  0.22838354828E+03  0.20751189623E+04  0.25435044396E+04  0.15294330000E+03 0.  0.
    8880022    1    1    2    0    0  0.14449032592E+04 -0.22838354828E+03 -0.98412912287E+03  0.17696910061E+04  0.15294330000E+03 0.  0.
<mgrwt>
<rscale>  0 0.14708148E+04</rscale>
<asrwt>0</asrwt>
<pdfrwt beam="1">  1        2 0.41570656E+00 0.14708148E+04</pdfrwt>
<pdfrwt beam="2">  1       -2 0.24786197E+00 0.14708148E+04</pdfrwt>
<totfact> 0.16527160E-01</totfact>
</mgrwt>
</event>
<event>
 4    1  0.5410820E-008  0.6273200E+03  0.7818608E-02  0.9850293E-01
         -2   -1    0    0    0  501 -0.00000000000E+00  0.00000000000E+00  0.93169693287E+03  0.93169693287E+03  0.25500000000E-02 0.  1.
          2   -1    0    0  501    0  0.00000000000E+00 -0.00000000000E+00 -0.19422223387E+04  0.19422223387E+04  0.25500000000E-02 0. -1.
    8880022    1    1    2    0    0 -0.52389941469E+03  0.30930259786E+03 -0.17764054849E+04  0.18839179370E+04  0.15294330000E+03 0.  0.
    8880022    1    1    2    0    0  0.52389941469E+03 -0.30930259786E+03  0.76588007908E+03  0.99000133450E+03  0.15294330000E+03 0.  0.
<mgrwt>
<rscale>  0 0.62731997E+03</rscale>
<asrwt>0</asrwt>
<pdfrwt beam="1">  1        2 0.29880344E+00 0.62731997E+03</pdfrwt>
<pdfrwt beam="2">  1       -2 0.14333799E+00 0.62731997E+03</pdfrwt>
<totfact> 0.25787244E+00</totfact>
</mgrwt>
</event>
<event>
 4    1  0.5410820E-008  0.3013899E+03  0.7818608E-02  0.1084548E+00
          2   -1    0    0  501    0  0.00000000000E+00  0.00000000000E+00  0.12979335638E+04  0.12979335638E+04  0.25500000000E-02 0. -1.
         -2   -1    0    0    0  501 -0.00000000000E+00 -0.00000000000E+00 -0.16592517627E+03  0.16592517629E+03  0.25500000000E-02 0.  1.
    8880022    1    1    2    0    0  0.20186836388E+03 -0.16338103648E+03  0.11225659176E+04  0.11623209934E+04  0.15294330000E+03 0.  0.
    8880022    1    1    2    0    0 -0.20186836388E+03  0.16338103648E+03  0.94424699437E+01  0.30153774667E+03  0.15294330000E+03 0.  0.
<mgrwt>
<rscale>  0 0.30138987E+03</rscale>
<asrwt>0</asrwt>
<pdfrwt beam="1">  1        2 0.19968208E+00 0.30138987E+03</pdfrwt>
<pdfrwt beam="2">  1       -2 0.25526951E-01 0.30138987E+03</pdfrwt>
<totfact> 0.24183116E+02</totfact>
</mgrwt>
</event>
<event>
 4    1  0.5410820E-008  0.6626885E+03  0.7818608E-02  0.9783257E-01
          2   -1    0    0  501    0  0.00000000000E+00  0.00000000000E+00  0.62305069451E+03  0.62305069451E+03  0.25500000000E-02 0. -1.
         -2   -1    0    0    0  501 -0.00000000000E+00 -0.00000000000E+00 -0.78261816237E+03  0.78261816237E+03  0.25500000000E-02 0.  1.
    8880022    1    1    2    0    0 -0.20319589917E+03 -0.61194424462E+03 -0.30134038770E+03  0.72798489973E+03  0.15294330000E+03 0.  0.
    8880022    1    1    2    0    0  0.20319589917E+03  0.61194424462E+03  0.14177291984E+03  0.67768395715E+03  0.15294330000E+03 0.  0.
<mgrwt>
<rscale>  0 0.66268845E+03</rscale>
<asrwt>0</asrwt>
<pdfrwt beam="1">  1        2 0.95853953E-01 0.66268845E+03</pdfrwt>
<pdfrwt beam="2">  1       -2 0.12040279E+00 0.66268845E+03</pdfrwt>
<totfact> 0.25474027E+01</totfact>
</mgrwt>
</event>
<event>
 4    1  0.5410820E-008  0.2097973E+03  0.7818608E-02  0.1141727E+00
         -2   -1    0    0    0  501 -0.00000000000E+00  0.00000000000E+00  0.10676285154E+04  0.10676285154E+04  0.25500000000E-02 0.  1.
          2   -1    0    0  501    0  0.00000000000E+00 -0.00000000000E+00 -0.83095857606E+02  0.83095857645E+02  0.25500000000E-02 0. -1.
    8880022    1    1    2    0    0 -0.13014767869E+03 -0.60702907821E+02  0.83854616915E+02  0.22593474961E+03  0.15294330000E+03 0. -1.
    8880022    1    1    2    0    0  0.13014767869E+03  0.60702907821E+02  0.90067804089E+03  0.92478962346E+03  0.15294330000E+03 0.  0.
<mgrwt>
<rscale>  0 0.20979732E+03</rscale>
<asrwt>0</asrwt>
<pdfrwt beam="1">  1        2 0.12783979E-01 0.20979732E+03</pdfrwt>
<pdfrwt beam="2">  1       -2 0.16425054E+00 0.20979732E+03</pdfrwt>
<totfact> 0.11865289E+02</totfact>
</mgrwt>
</event>
<event>
 4    1  0.5410820E-008  0.1347913E+04  0.7818608E-02  0.8992409E-01
         -2   -1    0    0    0  501 -0.00000000000E+00  0.00000000000E+00  0.86875256511E+03  0.86875256511E+03  0.25500000000E-02 0.  1.
          2   -1    0    0  501    0  0.00000000000E+00 -0.00000000000E+00 -0.27512978497E+04  0.27512978497E+04  0.25500000000E-02 0. -1.
    8880022    1    1    2    0    0  0.69844605144E+03 -0.11426510736E+04 -0.54792555168E+02  0.13490264044E+04  0.15294330000E+03 0.  0.
    8880022    1    1    2    0    0 -0.69844605144E+03  0.11426510736E+04 -0.18277527294E+04  0.22710240104E+04  0.15294330000E+03 0.  0.
<mgrwt>
<rscale>  0 0.13479132E+04</rscale>
<asrwt>0</asrwt>
<pdfrwt beam="1">  1        2 0.42327659E+00 0.13479132E+04</pdfrwt>
<pdfrwt beam="2">  1       -2 0.13365424E+00 0.13479132E+04</pdfrwt>
<totfact> 0.96600441E-01</totfact>
</mgrwt>
</event>
<event>
 4    1  0.5410820E-008  0.5731677E+03  0.7818608E-02  0.9962693E-01
         -2   -1    0    0    0  501 -0.00000000000E+00  0.00000000000E+00  0.39027788247E+03  0.39027788247E+03  0.25500000000E-02 0.  1.
          2   -1    0    0  501    0  0.00000000000E+00 -0.00000000000E+00 -0.13015578894E+04  0.13015578894E+04  0.25500000000E-02 0. -1.
    8880022    1    1    2    0    0  0.34630900924E+03 -0.43034832885E+03  0.47140921071E+02  0.57510306335E+03  0.15294330000E+03 0.  1.
    8880022    1    1    2    0    0 -0.34630900924E+03  0.43034832885E+03 -0.95842092797E+03  0.11167327085E+04  0.15294330000E+03 0.  0.
<mgrwt>
<rscale>  0 0.57316775E+03</rscale>
<asrwt>0</asrwt>
<pdfrwt beam="1">  1        2 0.20023967E+00 0.57316775E+03</pdfrwt>
<pdfrwt beam="2">  1       -2 0.60042752E-01 0.57316775E+03</pdfrwt>
<totfact> 0.44380200E+01</totfact>
</mgrwt>
</event>
<event>
 4    1  0.5410820E-008  0.5464142E+03  0.7818608E-02  0.1002327E+00
          2   -1    0    0  501    0  0.00000000000E+00  0.00000000000E+00  0.10195812971E+04  0.10195812971E+04  0.25500000000E-02 0. -1.
         -2   -1    0    0    0  501 -0.00000000000E+00 -0.00000000000E+00 -0.98227532180E+03  0.98227532181E+03  0.25500000000E-02 0.  1.
    8880022    1    1    2    0    0 -0.16255478911E+03  0.49875126055E+03  0.85721438831E+03  0.10165554780E+04  0.15294330000E+03 0.  0.
    8880022    1    1    2    0    0  0.16255478911E+03 -0.49875126055E+03 -0.81990841305E+03  0.98530114085E+03  0.15294330000E+03 0.  0.
<mgrwt>
<rscale>  0 0.54641425E+03</rscale>
<asrwt>0</asrwt>
<pdfrwt beam="1">  1        2 0.15685866E+00 0.54641425E+03</pdfrwt>
<pdfrwt beam="2">  1       -2 0.15111928E+00 0.54641425E+03</pdfrwt>
<totfact> 0.75500765E+00</totfact>
</mgrwt>
</event>
<event>
 4    1  0.5410820E-008  0.2101763E+03  0.7818608E-02  0.1141426E+00
          2   -1    0    0  501    0  0.00000000000E+00  0.00000000000E+00  0.32760714946E+03  0.32760714947E+03  0.25500000000E-02 0. -1.
         -2   -1    0    0    0  501 -0.00000000000E+00 -0.00000000000E+00 -0.33281273262E+03  0.33281273263E+03  0.25500000000E-02 0.  1.
    8880022    1    1    2    0    0  0.10376936860E+03 -0.10007173276E+03  0.25207695616E+03  0.32820249603E+03  0.15294330000E+03 0.  0.
    8880022    1    1    2    0    0 -0.10376936860E+03  0.10007173276E+03 -0.25728253932E+03  0.33221738608E+03  0.15294330000E+03 0.  0.
<mgrwt>
<rscale>  0 0.21017632E+03</rscale>
<asrwt>0</asrwt>
<pdfrwt beam="1">  1        2 0.50401100E-01 0.21017632E+03</pdfrwt>
<pdfrwt beam="2">  1       -2 0.51201959E-01 0.21017632E+03</pdfrwt>
<totfact> 0.36643771E+02</totfact>
</mgrwt>
</event>
<event>
 4    1  0.5410820E-008  0.3497764E+03  0.7818608E-02  0.1062707E+00
          2   -1    0    0  501    0  0.00000000000E+00  0.00000000000E+00  0.24592119249E+03  0.24592119250E+03  0.25500000000E-02 0. -1.
         -2   -1    0    0    0  501 -0.00000000000E+00 -0.00000000000E+00 -0.67100452067E+03  0.67100452068E+03  0.25500000000E-02 0.  1.
    8880022    1    1    2    0    0 -0.30363251842E+03  0.82214380240E+02  0.20593711382E+02  0.35038216924E+03  0.15294330000E+03 0.  0.
    8880022    1    1    2    0    0  0.30363251842E+03 -0.82214380240E+02 -0.44567703957E+03  0.56654354393E+03  0.15294330000E+03 0.  0.
<mgrwt>
<rscale>  0 0.34977645E+03</rscale>
<asrwt>0</asrwt>
<pdfrwt beam="1">  1        2 0.37834030E-01 0.34977645E+03</pdfrwt>
<pdfrwt beam="2">  1       -2 0.10323146E+00 0.34977645E+03</pdfrwt>
<totfact> 0.10823258E+02</totfact>
</mgrwt>
</event>
<event>
 4    1  0.5410820E-008  0.1250453E+04  0.7818608E-02  0.9069806E-01
          2   -1    0    0  501    0  0.00000000000E+00  0.00000000000E+00  0.21092879168E+04  0.21092879168E+04  0.25500000000E-02 0. -1.
         -2   -1    0    0    0  501 -0.00000000000E+00 -0.00000000000E+00 -0.84738516528E+03  0.84738516528E+03  0.25500000000E-02 0.  1.
    8880022    1    1    2    0    0 -0.70109171562E+03  0.10240659575E+04  0.11540017543E+04  0.17015735015E+04  0.15294330000E+03 0.  0.
    8880022    1    1    2    0    0  0.70109171562E+03 -0.10240659575E+04  0.10790099719E+03  0.12550995806E+04  0.15294330000E+03 0.  0.
<mgrwt>
<rscale>  0 0.12504529E+04</rscale>
<asrwt>0</asrwt>
<pdfrwt beam="1">  1        2 0.32450583E+00 0.12504529E+04</pdfrwt>
<pdfrwt beam="2">  1       -2 0.13036695E+00 0.12504529E+04</pdfrwt>
<totfact> 0.24297325E+00</totfact>
</mgrwt>
</event>
<event>
 4    1  0.5410820E-008  0.4800463E+03  0.7818608E-02  0.1019122E+00
         -2   -1    0    0    0  501 -0.00000000000E+00  0.00000000000E+00  0.34451118893E+03  0.34451118894E+03  0.25500000000E-02 0.  1.
          2   -1    0    0  501    0  0.00000000000E+00 -0.00000000000E+00 -0.94887506782E+03  0.94887506782E+03  0.25500000000E-02 0. -1.
    8880022    1    1    2    0    0  0.18425825631E+03 -0.41605492003E+03  0.49096371638E+02  0.48255042039E+03  0.15294330000E+03 0.  0.
    8880022    1    1    2    0    0 -0.18425825631E+03  0.41605492003E+03 -0.65346025053E+03  0.81083583636E+03  0.15294330000E+03 0.  0.
<mgrwt>
<rscale>  0 0.48004630E+03</rscale>
<asrwt>0</asrwt>
<pdfrwt beam="1">  1        2 0.14598078E+00 0.48004630E+03</pdfrwt>
<pdfrwt beam="2">  1       -2 0.53001722E-01 0.48004630E+03</pdfrwt>
<totfact> 0.94802577E+01</totfact>
</mgrwt>
</event>
<event>
 4    1  0.5410820E-008  0.3203562E+03  0.7818608E-02  0.1075485E+00
          2   -1    0    0  501    0  0.00000000000E+00  0.00000000000E+00  0.71416467687E+03  0.71416467687E+03  0.25500000000E-02 0. -1.
         -2   -1    0    0    0  501 -0.00000000000E+00 -0.00000000000E+00 -0.85211771090E+03  0.85211771091E+03  0.25500000000E-02 0.  1.
    8880022    1    1    2    0    0  0.25769578991E+03 -0.11326656296E+03  0.64508207953E+03  0.72024924628E+03  0.15294330000E+03 0. -1.
    8880022    1    1    2    0    0 -0.25769578991E+03  0.11326656296E+03 -0.78303511357E+03  0.84603314150E+03  0.15294330000E+03 0.  0.
<mgrwt>
<rscale>  0 0.32035619E+03</rscale>
<asrwt>0</asrwt>
<pdfrwt beam="1">  1        2 0.10987149E+00 0.32035619E+03</pdfrwt>
<pdfrwt beam="2">  1       -2 0.13109503E+00 0.32035619E+03</pdfrwt>
<totfact> 0.18330700E+01</totfact>
</mgrwt>
</event>
<event>
 4    1  0.5410820E-008  0.9367834E+03  0.7818608E-02  0.9380734E-01
         -2   -1    0    0    0  501 -0.00000000000E+00  0.00000000000E+00  0.11254462254E+04  0.11254462254E+04  0.25500000000E-02 0.  1.
          2   -1    0    0  501    0  0.00000000000E+00 -0.00000000000E+00 -0.16560196017E+04  0.16560196017E+04  0.25500000000E-02 0. -1.
    8880022    1    1    2    0    0 -0.26680938307E+03  0.88486395641E+03  0.74636417433E+03  0.11977573218E+04  0.15294330000E+03 0.  0.
    8880022    1    1    2    0    0  0.26680938307E+03 -0.88486395641E+03 -0.12769375507E+04  0.15837085053E+04  0.15294330000E+03 0.  0.
<mgrwt>
<rscale>  0 0.93678339E+03</rscale>
<asrwt>0</asrwt>
<pdfrwt beam="1">  1        2 0.25477225E+00 0.93678339E+03</pdfrwt>
<pdfrwt beam="2">  1       -2 0.17314557E+00 0.93678339E+03</pdfrwt>
<totfact> 0.21058559E+00</totfact>
</mgrwt>
</event>
<event>
 4    1  0.5410820E-008  0.1099187E+04  0.7818608E-02  0.9205984E-01
          2   -1    0    0  501    0  0.00000000000E+00  0.00000000000E+00  0.34915706639E+04  0.34915706639E+04  0.25500000000E-02 0. -1.
         -2   -1    0    0    0  501 -0.00000000000E+00 -0.00000000000E+00 -0.86548993540E+03  0.86548993541E+03  0.25500000000E-02 0.  1.
    8880022    1    1    2    0    0  0.29347983646E+03 -0.10481843569E+04 -0.37470028667E+03  0.11612979025E+04  0.15294330000E+03 0.  0.
    8880022    1    1    2    0    0 -0.29347983646E+03  0.10481843569E+04  0.30007810152E+04  0.31957626968E+04  0.15294330000E+03 0.  0.
<mgrwt>
<rscale>  0 0.10991872E+04</rscale>
<asrwt>0</asrwt>
<pdfrwt beam="1">  1        2 0.53716473E+00 0.10991872E+04</pdfrwt>
<pdfrwt beam="2">  1       -2 0.13315229E+00 0.10991872E+04</pdfrwt>
<totfact> 0.34103904E-01</totfact>
</mgrwt>
</event>
<event>
 4    1  0.5410820E-008  0.3736824E+03  0.7818608E-02  0.1053294E+00
          2   -1    0    0  501    0  0.00000000000E+00  0.00000000000E+00  0.79485439727E+03  0.79485439727E+03  0.25500000000E-02 0. -1.
         -2   -1    0    0    0  501 -0.00000000000E+00 -0.00000000000E+00 -0.51508181264E+03  0.51508181265E+03  0.25500000000E-02 0.  1.
    8880022    1    1    2    0    0 -0.14559634406E+03 -0.30829955454E+03  0.67155401493E+03  0.76852023963E+03  0.15294330000E+03 0.  0.
    8880022    1    1    2    0    0  0.14559634406E+03  0.30829955454E+03 -0.39178143031E+03  0.54141597029E+03  0.15294330000E+03 0.  0.
<mgrwt>
<rscale>  0 0.37368244E+03</rscale>
<asrwt>0</asrwt>
<pdfrwt beam="1">  1        2 0.12228529E+00 0.37368244E+03</pdfrwt>
<pdfrwt beam="2">  1       -2 0.79243356E-01 0.37368244E+03</pdfrwt>
<totfact> 0.51813439E+01</totfact>
</mgrwt>
</event>
<event>
 4    1  0.6414435E-008  0.1460815E+04  0.7818608E-02  0.8910937E-01
          2   -1    0    0  501    0  0.00000000000E+00  0.00000000000E+00  0.25374959670E+04  0.25374959670E+04  0.25500000000E-02 0. -1.
         -2   -1    0    0    0  501 -0.00000000000E+00 -0.00000000000E+00 -0.22347995029E+04  0.22347995029E+04  0.25500000000E-02 0.  1.
    8880022    1    1    2    0    0  0.34263840313E+03 -0.14118025385E+04 -0.17330885545E+04  0.22666219521E+04  0.15294330000E+03 0.  0.
    8880022    1    1    2    0    0 -0.34263840313E+03  0.14118025385E+04  0.20357850186E+04  0.25056735178E+04  0.15294330000E+03 0.  0.
<mgrwt>
<rscale>  0 0.14608145E+04</rscale>
<asrwt>0</asrwt>
<pdfrwt beam="1">  1        2 0.39038399E+00 0.14608145E+04</pdfrwt>
<pdfrwt beam="2">  1       -2 0.34381531E+00 0.14608145E+04</pdfrwt>
<totfact> 0.53234587E-02</totfact>
</mgrwt>
</event>
<event>
 4    1  0.5410820E-008  0.4335707E+03  0.7818608E-02  0.1032738E+00
         -2   -1    0    0    0  501 -0.00000000000E+00  0.00000000000E+00  0.11779476674E+03  0.11779476677E+03  0.25500000000E-02 0.  1.
          2   -1    0    0  501    0  0.00000000000E+00 -0.00000000000E+00 -0.23645681584E+04  0.23645681584E+04  0.25500000000E-02 0. -1.
    8880022    1    1    2    0    0 -0.16632090354E+03  0.37003955204E+03 -0.18310734119E+04  0.18817049200E+04  0.15294330000E+03 0.  0.
    8880022    1    1    2    0    0  0.16632090354E+03 -0.37003955204E+03 -0.41569997976E+03  0.60065800520E+03  0.15294330000E+03 0.  0.
<mgrwt>
<rscale>  0 0.43357072E+03</rscale>
<asrwt>0</asrwt>
<pdfrwt beam="1">  1        2 0.36377968E+00 0.43357072E+03</pdfrwt>
<pdfrwt beam="2">  1       -2 0.18122274E-01 0.43357072E+03</pdfrwt>
<totfact> 0.11437546E+02</totfact>
</mgrwt>
</event>
<event>
 4    1  0.5410820E-008  0.7194458E+03  0.7818608E-02  0.9684543E-01
          2   -1    0    0  501    0  0.00000000000E+00  0.00000000000E+00  0.18192548839E+04  0.18192548839E+04  0.25500000000E-02 0. -1.
         -2   -1    0    0    0  501 -0.00000000000E+00 -0.00000000000E+00 -0.68183763285E+03  0.68183763285E+03  0.25500000000E-02 0.  1.
    8880022    1    1    2    0    0 -0.45808337106E+03 -0.53326379364E+03 -0.38591423749E+03  0.81641417195E+03  0.15294330000E+03 0.  0.
    8880022    1    1    2    0    0  0.45808337106E+03  0.53326379364E+03  0.15233314886E+04  0.16846783448E+04  0.15294330000E+03 0.  0.
<mgrwt>
<rscale>  0 0.71944583E+03</rscale>
<asrwt>0</asrwt>
<pdfrwt beam="1">  1        2 0.27988537E+00 0.71944583E+03</pdfrwt>
<pdfrwt beam="2">  1       -2 0.10489810E+00 0.71944583E+03</pdfrwt>
<totfact> 0.64300687E+00</totfact>
</mgrwt>
</event>
<event>
 4    1  0.5410820E-008  0.5366991E+03  0.7818608E-02  0.1004620E+00
          2   -1    0    0  501    0  0.00000000000E+00  0.00000000000E+00  0.22594420671E+04  0.22594420671E+04  0.25500000000E-02 0. -1.
         -2   -1    0    0    0  501 -0.00000000000E+00 -0.00000000000E+00 -0.45256525303E+03  0.45256525303E+03  0.25500000000E-02 0.  1.
    8880022    1    1    2    0    0  0.80372297634E+02 -0.50812849175E+03  0.20526904162E+04  0.21216936320E+04  0.15294330000E+03 0.  0.
    8880022    1    1    2    0    0 -0.80372297634E+02  0.50812849175E+03 -0.24581360214E+03  0.59031368811E+03  0.15294330000E+03 0.  0.
<mgrwt>
<rscale>  0 0.53669910E+03</rscale>
<asrwt>0</asrwt>
<pdfrwt beam="1">  1        2 0.34760647E+00 0.53669910E+03</pdfrwt>
<pdfrwt beam="2">  1       -2 0.69625424E-01 0.53669910E+03</pdfrwt>
<totfact> 0.97582069E+00</totfact>
</mgrwt>
</event>
<event>
 4    1  0.6148536E-008  0.5544268E+03  0.7818608E-02  0.1000474E+00
         -2   -1    0    0    0  501 -0.00000000000E+00  0.00000000000E+00  0.12577497628E+04  0.12577497628E+04  0.25500000000E-02 0.  1.
          2   -1    0    0  501    0  0.00000000000E+00 -0.00000000000E+00 -0.23966626855E+04  0.23966626855E+04  0.25500000000E-02 0. -1.
    8880022    1    1    2    0    0  0.33746806681E+03  0.41244725443E+03 -0.23009949298E+04  0.23668474293E+04  0.15294330000E+03 0.  0.
    8880022    1    1    2    0    0 -0.33746806681E+03 -0.41244725443E+03  0.11620820071E+04  0.12875650190E+04  0.15294330000E+03 0.  0.
<mgrwt>
<rscale>  0 0.55442681E+03</rscale>
<asrwt>0</asrwt>
<pdfrwt beam="1">  1        2 0.36871734E+00 0.55442681E+03</pdfrwt>
<pdfrwt beam="2">  1       -2 0.19349996E+00 0.55442681E+03</pdfrwt>
<totfact> 0.65087816E-01</totfact>
</mgrwt>
</event>
<event>
 4    1  0.5410820E-008  0.7079227E+03  0.7818608E-02  0.9703778E-01
         -2   -1    0    0    0  501 -0.00000000000E+00  0.00000000000E+00  0.23618612036E+03  0.23618612038E+03  0.25500000000E-02 0.  1.
          2   -1    0    0  501    0  0.00000000000E+00 -0.00000000000E+00 -0.23804296464E+04  0.23804296464E+04  0.25500000000E-02 0. -1.
    8880022    1    1    2    0    0  0.36325447383E+03 -0.58805535226E+03 -0.15033117129E+04  0.16616560021E+04  0.15294330000E+03 0.  0.
    8880022    1    1    2    0    0 -0.36325447383E+03  0.58805535226E+03 -0.64093181309E+03  0.95495976466E+03  0.15294330000E+03 0.  0.
<mgrwt>
<rscale>  0 0.70792271E+03</rscale>
<asrwt>0</asrwt>
<pdfrwt beam="1">  1        2 0.36621993E+00 0.70792271E+03</pdfrwt>
<pdfrwt beam="2">  1       -2 0.36336328E-01 0.70792271E+03</pdfrwt>
<totfact> 0.30445608E+01</totfact>
</mgrwt>
</event>
<event>
 4    1  0.5410820E-008  0.4426381E+03  0.7818608E-02  0.1029940E+00
          2   -1    0    0  501    0  0.00000000000E+00  0.00000000000E+00  0.30635818883E+04  0.30635818883E+04  0.25500000000E-02 0. -1.
         -2   -1    0    0    0  501 -0.00000000000E+00 -0.00000000000E+00 -0.94508681635E+02  0.94508681670E+02  0.25500000000E-02 0.  1.
    8880022    1    1    2    0    0  0.21838949363E+03 -0.35333114200E+03  0.58670034176E+03  0.73494612787E+03  0.15294330000E+03 0.  0.
    8880022    1    1    2    0    0 -0.21838949363E+03  0.35333114200E+03  0.23823728649E+04  0.24231444421E+04  0.15294330000E+03 0.  0.
<mgrwt>
<rscale>  0 0.44263814E+03</rscale>
<asrwt>0</asrwt>
<pdfrwt beam="1">  1        2 0.47132035E+00 0.44263814E+03</pdfrwt>
<pdfrwt beam="2">  1       -2 0.14539795E-01 0.44263814E+03</pdfrwt>
<totfact> 0.65587871E+01</totfact>
</mgrwt>
</event>
<event>
 4    1  0.5410820E-008  0.4429252E+03  0.7818608E-02  0.1029853E+00
         -2   -1    0    0    0  501 -0.00000000000E+00  0.00000000000E+00  0.10097073907E+03  0.10097073910E+03  0.25500000000E-02 0.  1.
          2   -1    0    0  501    0  0.00000000000E+00 -0.00000000000E+00 -0.33315114700E+04  0.33315114700E+04  0.25500000000E-02 0. -1.
    8880022    1    1    2    0    0 -0.31957249073E+03  0.26582797804E+03 -0.50727575408E+03  0.67343257601E+03  0.15294330000E+03 0.  0.
    8880022    1    1    2    0    0  0.31957249073E+03 -0.26582797804E+03 -0.27232649768E+04  0.27590496331E+04  0.15294330000E+03 0.  0.
<mgrwt>
<rscale>  0 0.44292521E+03</rscale>
<asrwt>0</asrwt>
<pdfrwt beam="1">  1        2 0.51254014E+00 0.44292521E+03</pdfrwt>
<pdfrwt beam="2">  1       -2 0.15533962E-01 0.44292521E+03</pdfrwt>
<totfact> 0.39875602E+01</totfact>
</mgrwt>
</event>
<event>
 4    1  0.5410820E-008  0.5861225E+03  0.7818608E-02  0.9934623E-01
          2   -1    0    0  501    0  0.00000000000E+00  0.00000000000E+00  0.15385261467E+04  0.15385261467E+04  0.25500000000E-02 0. -1.
         -2   -1    0    0    0  501 -0.00000000000E+00 -0.00000000000E+00 -0.24833763208E+03  0.24833763210E+03  0.25500000000E-02 0.  1.
    8880022    1    1    2    0    0  0.98397789604E+02 -0.55719454048E+03  0.92882871215E+03  0.10982997362E+04  0.15294330000E+03 0.  0.
    8880022    1    1    2    0    0 -0.98397789604E+02  0.55719454048E+03  0.36135980245E+03  0.68856404261E+03  0.15294330000E+03 0.  0.
<mgrwt>
<rscale>  0 0.58612246E+03</rscale>
<asrwt>0</asrwt>
<pdfrwt beam="1">  1        2 0.23669633E+00 0.58612246E+03</pdfrwt>
<pdfrwt beam="2">  1       -2 0.38205789E-01 0.58612246E+03</pdfrwt>
<totfact> 0.81098868E+01</totfact>
</mgrwt>
</event>
<event>
 4    1  0.5410820E-008  0.1804849E+03  0.7818608E-02  0.1167335E+00
         -2   -1    0    0    0  501 -0.00000000000E+00  0.00000000000E+00  0.13247398754E+03  0.13247398756E+03  0.25500000000E-02 0.  1.
          2   -1    0    0  501    0  0.00000000000E+00 -0.00000000000E+00 -0.33868630066E+03  0.33868630067E+03  0.25500000000E-02 0. -1.
    8880022    1    1    2    0    0 -0.27366837824E+02  0.91837917595E+02  0.20201935415E+02  0.18161199886E+03  0.15294330000E+03 0.  0.
    8880022    1    1    2    0    0  0.27366837824E+02 -0.91837917595E+02 -0.22641424854E+03  0.28954828937E+03  0.15294330000E+03 0. -1.
<mgrwt>
<rscale>  0 0.18048490E+03</rscale>
<asrwt>0</asrwt>
<pdfrwt beam="1">  1        2 0.52105584E-01 0.18048490E+03</pdfrwt>
<pdfrwt beam="2">  1       -2 0.20380614E-01 0.18048490E+03</pdfrwt>
<totfact> 0.19244688E+03</totfact>
</mgrwt>
</event>
<event>
 4    1  0.5410820E-008  0.8615565E+03  0.7818608E-02  0.9474956E-01
          2   -1    0    0  501    0  0.00000000000E+00  0.00000000000E+00  0.11121233750E+04  0.11121233750E+04  0.25500000000E-02 0. -1.
         -2   -1    0    0    0  501 -0.00000000000E+00 -0.00000000000E+00 -0.11487925497E+04  0.11487925497E+04  0.25500000000E-02 0.  1.
    8880022    1    1    2    0    0 -0.45461068216E+03 -0.71569346881E+03 -0.75008606981E+03  0.11423260387E+04  0.15294330000E+03 0.  0.
    8880022    1    1    2    0    0  0.45461068216E+03  0.71569346881E+03  0.71341689514E+03  0.11185898859E+04  0.15294330000E+03 0.  0.
<mgrwt>
<rscale>  0 0.86155654E+03</rscale>
<asrwt>0</asrwt>
<pdfrwt beam="1">  1        2 0.17109590E+00 0.86155654E+03</pdfrwt>
<pdfrwt beam="2">  1       -2 0.17673732E+00 0.86155654E+03</pdfrwt>
<totfact> 0.41208197E+00</totfact>
</mgrwt>
</event>
<event>
 4    1  0.5410820E-008  0.5221517E+03  0.7818608E-02  0.1008153E+00
          2   -1    0    0  501    0  0.00000000000E+00  0.00000000000E+00  0.13761671147E+04  0.13761671147E+04  0.25500000000E-02 0. -1.
         -2   -1    0    0    0  501 -0.00000000000E+00 -0.00000000000E+00 -0.81080035745E+03  0.81080035746E+03  0.25500000000E-02 0.  1.
    8880022    1    1    2    0    0  0.42993422757E+03 -0.25378591230E+03  0.12332298005E+04  0.13392154879E+04  0.15294330000E+03 0.  0.
    8880022    1    1    2    0    0 -0.42993422757E+03  0.25378591230E+03 -0.66786304320E+03  0.84775198425E+03  0.15294330000E+03 0.  0.
<mgrwt>
<rscale>  0 0.52215169E+03</rscale>
<asrwt>0</asrwt>
<pdfrwt beam="1">  1        2 0.21171802E+00 0.52215169E+03</pdfrwt>
<pdfrwt beam="2">  1       -2 0.12473852E+00 0.52215169E+03</pdfrwt>
<totfact> 0.76471093E+00</totfact>
</mgrwt>
</event>
<event>
 4    1  0.5410820E-008  0.3954583E+03  0.7818608E-02  0.1045364E+00
         -2   -1    0    0    0  501 -0.00000000000E+00  0.00000000000E+00  0.88393552469E+02  0.88393552506E+02  0.25500000000E-02 0.  1.
          2   -1    0    0  501    0  0.00000000000E+00 -0.00000000000E+00 -0.26325484807E+04  0.26325484807E+04  0.25500000000E-02 0. -1.
    8880022    1    1    2    0    0  0.31634233863E+02 -0.36331102816E+03 -0.20511720092E+04  0.20889456413E+04  0.15294330000E+03 0.  0.
    8880022    1    1    2    0    0 -0.31634233863E+02  0.36331102816E+03 -0.49298291907E+03  0.63199639195E+03  0.15294330000E+03 0.  0.
<mgrwt>
<rscale>  0 0.39545832E+03</rscale>
<asrwt>0</asrwt>
<pdfrwt beam="1">  1        2 0.40500740E+00 0.39545832E+03</pdfrwt>
<pdfrwt beam="2">  1       -2 0.13599010E-01 0.39545832E+03</pdfrwt>
<totfact> 0.13255864E+02</totfact>
</mgrwt>
</event>
<event>
 4    1  0.5410820E-008  0.5190145E+03  0.7818608E-02  0.1008932E+00
         -2   -1    0    0    0  501 -0.00000000000E+00  0.00000000000E+00  0.20942708312E+03  0.20942708313E+03  0.25500000000E-02 0.  1.
          2   -1    0    0  501    0  0.00000000000E+00 -0.00000000000E+00 -0.23757076802E+04  0.23757076802E+04  0.25500000000E-02 0. -1.
    8880022    1    1    2    0    0 -0.22112418605E+03  0.44394648949E+03 -0.20783121105E+03  0.55907947242E+03  0.15294330000E+03 0.  0.
    8880022    1    1    2    0    0  0.22112418605E+03 -0.44394648949E+03 -0.19584493860E+04  0.20260552909E+04  0.15294330000E+03 0.  0.
<mgrwt>
<rscale>  0 0.51901449E+03</rscale>
<asrwt>0</asrwt>
<pdfrwt beam="1">  1        2 0.36549347E+00 0.51901449E+03</pdfrwt>
<pdfrwt beam="2">  1       -2 0.32219553E-01 0.51901449E+03</pdfrwt>
<totfact> 0.39718249E+01</totfact>
</mgrwt>
</event>
<event>
 4    1  0.5410820E-008  0.2776246E+03  0.7818608E-02  0.1096993E+00
         -2   -1    0    0    0  501 -0.00000000000E+00  0.00000000000E+00  0.54375589024E+03  0.54375589025E+03  0.25500000000E-02 0.  1.
          2   -1    0    0  501    0  0.00000000000E+00 -0.00000000000E+00 -0.27912838818E+03  0.27912838819E+03  0.25500000000E-02 0. -1.
    8880022    1    1    2    0    0  0.23147559878E+03 -0.10140276182E+02  0.42096383612E+03  0.50426776852E+03  0.15294330000E+03 0.  1.
    8880022    1    1    2    0    0 -0.23147559878E+03  0.10140276182E+02 -0.15633633405E+03  0.31861650992E+03  0.15294330000E+03 0.  0.
<mgrwt>
<rscale>  0 0.27762462E+03</rscale>
<asrwt>0</asrwt>
<pdfrwt beam="1">  1        2 0.42942829E-01 0.27762462E+03</pdfrwt>
<pdfrwt beam="2">  1       -2 0.83654752E-01 0.27762462E+03</pdfrwt>
<totfact> 0.15359011E+02</totfact>
</mgrwt>
</event>
<event>
 4    1  0.5410820E-008  0.2291268E+03  0.7818608E-02  0.1127256E+00
         -2   -1    0    0    0  501 -0.00000000000E+00  0.00000000000E+00  0.25148422853E+03  0.25148422854E+03  0.25500000000E-02 0.  1.
          2   -1    0    0  501    0  0.00000000000E+00 -0.00000000000E+00 -0.45396534606E+03  0.45396534607E+03  0.25500000000E-02 0. -1.
    8880022    1    1    2    0    0 -0.86698932198E+02 -0.14693778528E+03  0.15799366297E+03  0.27831828568E+03  0.15294330000E+03 0.  0.
    8880022    1    1    2    0    0  0.86698932198E+02  0.14693778528E+03 -0.36047478050E+03  0.42713128893E+03  0.15294330000E+03 0. -1.
<mgrwt>
<rscale>  0 0.22912676E+03</rscale>
<asrwt>0</asrwt>
<pdfrwt beam="1">  1        2 0.69840822E-01 0.22912676E+03</pdfrwt>
<pdfrwt beam="2">  1       -2 0.38689881E-01 0.22912676E+03</pdfrwt>
<totfact> 0.44387787E+02</totfact>
</mgrwt>
</event>
<event>
 4    1  0.5410820E-008  0.7920612E+03  0.7818608E-02  0.9571580E-01
         -2   -1    0    0    0  501 -0.00000000000E+00  0.00000000000E+00  0.61412157513E+03  0.61412157513E+03  0.25500000000E-02 0.  1.
          2   -1    0    0  501    0  0.00000000000E+00 -0.00000000000E+00 -0.16468087245E+04  0.16468087245E+04  0.25500000000E-02 0. -1.
    8880022    1    1    2    0    0  0.74474993572E+03 -0.22207396072E+03  0.18022297096E+03  0.81230615106E+03  0.15294330000E+03 0.  0.
    8880022    1    1    2    0    0 -0.74474993572E+03  0.22207396072E+03 -0.12129101203E+04  0.14486241485E+04  0.15294330000E+03 0.  0.
<mgrwt>
<rscale>  0 0.79206121E+03</rscale>
<asrwt>0</asrwt>
<pdfrwt beam="1">  1        2 0.25335519E+00 0.79206121E+03</pdfrwt>
<pdfrwt beam="2">  1       -2 0.94480243E-01 0.79206121E+03</pdfrwt>
<totfact> 0.10126706E+01</totfact>
</mgrwt>
</event>
<event>
 4    1  0.5410820E-008  0.5400534E+03  0.7818608E-02  0.1003823E+00
          2   -1    0    0  501    0  0.00000000000E+00  0.00000000000E+00  0.13054039555E+04  0.13054039555E+04  0.25500000000E-02 0. -1.
         -2   -1    0    0    0  501 -0.00000000000E+00 -0.00000000000E+00 -0.36874589716E+03  0.36874589717E+03  0.25500000000E-02 0.  1.
    8880022    1    1    2    0    0  0.22755610071E+01 -0.51793907716E+03  0.99382240090E+03  0.11310794328E+04  0.15294330000E+03 0.  0.
    8880022    1    1    2    0    0 -0.22755610071E+01  0.51793907716E+03 -0.57164342556E+02  0.54307041984E+03  0.15294330000E+03 0.  0.
<mgrwt>
<rscale>  0 0.54005344E+03</rscale>
<asrwt>0</asrwt>
<pdfrwt beam="1">  1        2 0.20083138E+00 0.54005344E+03</pdfrwt>
<pdfrwt beam="2">  1       -2 0.56730137E-01 0.54005344E+03</pdfrwt>
<totfact> 0.49941272E+01</totfact>
</mgrwt>
</event>
<event>
 4    1  0.5410820E-008  0.7170862E+03  0.7818608E-02  0.9688451E-01
          2   -1    0    0  501    0  0.00000000000E+00  0.00000000000E+00  0.23305375440E+04  0.23305375440E+04  0.25500000000E-02 0. -1.
         -2   -1    0    0    0  501 -0.00000000000E+00 -0.00000000000E+00 -0.38668284777E+03  0.38668284778E+03  0.25500000000E-02 0.  1.
    8880022    1    1    2    0    0  0.74464762111E+02 -0.69661754814E+03  0.18622058738E+04  0.19955007839E+04  0.15294330000E+03 0.  0.
    8880022    1    1    2    0    0 -0.74464762111E+02  0.69661754814E+03  0.81648822449E+02  0.72171960788E+03  0.15294330000E+03 0.  0.
<mgrwt>
<rscale>  0 0.71708623E+03</rscale>
<asrwt>0</asrwt>
<pdfrwt beam="1">  1        2 0.35854423E+00 0.71708623E+03</pdfrwt>
<pdfrwt beam="2">  1       -2 0.59489670E-01 0.71708623E+03</pdfrwt>
<totfact> 0.12049757E+01</totfact>
</mgrwt>
</event>
<event>
 4    1  0.5410820E-008  0.4579015E+03  0.7818608E-02  0.1025392E+00
         -2   -1    0    0    0  501 -0.00000000000E+00  0.00000000000E+00  0.26220792364E+03  0.26220792365E+03  0.25500000000E-02 0.  1.
          2   -1    0    0  501    0  0.00000000000E+00 -0.00000000000E+00 -0.80215301533E+03  0.80215301533E+03  0.25500000000E-02 0. -1.
    8880022    1    1    2    0    0  0.30539398758E+03  0.30498628252E+03 -0.24022684021E+03  0.51709061870E+03  0.15294330000E+03 0. -1.
    8880022    1    1    2    0    0 -0.30539398758E+03 -0.30498628252E+03 -0.29971825148E+03  0.54727032028E+03  0.15294330000E+03 0.  1.
<mgrwt>
<rscale>  0 0.45790149E+03</rscale>
<asrwt>0</asrwt>
<pdfrwt beam="1">  1        2 0.12340816E+00 0.45790149E+03</pdfrwt>
<pdfrwt beam="2">  1       -2 0.40339681E-01 0.45790149E+03</pdfrwt>
<totfact> 0.20536515E+02</totfact>
</mgrwt>
</event>
<event>
 4    1  0.5410820E-008  0.1720835E+03  0.7818608E-02  0.1175692E+00
         -2   -1    0    0    0  501 -0.00000000000E+00  0.00000000000E+00  0.90727414130E+02  0.90727414166E+02  0.25500000000E-02 0.  1.
          2   -1    0    0  501    0  0.00000000000E+00 -0.00000000000E+00 -0.12310511144E+04  0.12310511144E+04  0.25500000000E-02 0. -1.
    8880022    1    1    2    0    0 -0.20931046639E+02  0.76045745664E+02 -0.36185655063E+01  0.17212150121E+03  0.15294330000E+03 0.  0.
    8880022    1    1    2    0    0  0.20931046639E+02 -0.76045745664E+02 -0.11367051348E+04  0.11496570274E+04  0.15294330000E+03 0. -1.
<mgrwt>
<rscale>  0 0.17208346E+03</rscale>
<asrwt>0</asrwt>
<pdfrwt beam="1">  1        2 0.18939247E+00 0.17208346E+03</pdfrwt>
<pdfrwt beam="2">  1       -2 0.13958065E-01 0.17208346E+03</pdfrwt>
<totfact> 0.74911498E+02</totfact>
</mgrwt>
</event>
<event>
 4    1  0.5410820E-008  0.5190086E+03  0.7818608E-02  0.1008933E+00
          2   -1    0    0  501    0  0.00000000000E+00  0.00000000000E+00  0.10419251353E+04  0.10419251353E+04  0.25500000000E-02 0. -1.
         -2   -1    0    0    0  501 -0.00000000000E+00 -0.00000000000E+00 -0.31787853409E+03  0.31787853410E+03  0.25500000000E-02 0.  1.
    8880022    1    1    2    0    0 -0.19942789528E+03  0.45409999039E+03  0.68246851098E+02  0.52347642964E+03  0.15294330000E+03 0.  0.
    8880022    1    1    2    0    0  0.19942789528E+03 -0.45409999039E+03  0.65579975009E+03  0.83632723974E+03  0.15294330000E+03 0.  0.
<mgrwt>
<rscale>  0 0.51900861E+03</rscale>
<asrwt>0</asrwt>
<pdfrwt beam="1">  1        2 0.16029618E+00 0.51900861E+03</pdfrwt>
<pdfrwt beam="2">  1       -2 0.48904390E-01 0.51900861E+03</pdfrwt>
<totfact> 0.97092756E+01</totfact>
</mgrwt>
</event>
<event>
 4    1  0.5410820E-008  0.3765136E+03  0.7818608E-02  0.1052230E+00
          2   -1    0    0  501    0  0.00000000000E+00  0.00000000000E+00  0.45702798700E+03  0.45702798700E+03  0.25500000000E-02 0. -1.
         -2   -1    0    0    0  501 -0.00000000000E+00 -0.00000000000E+00 -0.36066370062E+03  0.36066370063E+03  0.25500000000E-02 0.  1.
    8880022    1    1    2    0    0 -0.22858466751E+03  0.25713791712E+03 -0.10477479398E+03  0.39081999579E+03  0.15294330000E+03 0.  1.
    8880022    1    1    2    0    0  0.22858466751E+03 -0.25713791712E+03  0.20113908036E+03  0.42687169185E+03  0.15294330000E+03 0.  0.
<mgrwt>
<rscale>  0 0.37651363E+03</rscale>
<asrwt>0</asrwt>
<pdfrwt beam="1">  1        2 0.70311998E-01 0.37651363E+03</pdfrwt>
<pdfrwt beam="2">  1       -2 0.55486723E-01 0.37651363E+03</pdfrwt>
<totfact> 0.21431449E+02</totfact>
</mgrwt>
</event>
<event>
 4    1  0.5410820E-008  0.3719352E+03  0.7818608E-02  0.1053955E+00
         -2   -1    0    0    0  501 -0.00000000000E+00  0.00000000000E+00  0.36837697474E+03  0.36837697475E+03  0.25500000000E-02 0.  1.
          2   -1    0    0  501    0  0.00000000000E+00 -0.00000000000E+00 -0.24526093121E+04  0.24526093121E+04  0.25500000000E-02 0. -1.
    8880022    1    1    2    0    0  0.96824521617E+02 -0.32491408410E+03  0.25591033647E+03  0.45147082227E+03  0.15294330000E+03 0.  0.
    8880022    1    1    2    0    0 -0.96824521617E+02  0.32491408410E+03 -0.23401426739E+04  0.23695154646E+04  0.15294330000E+03 0.  0.
<mgrwt>
<rscale>  0 0.37193521E+03</rscale>
<asrwt>0</asrwt>
<pdfrwt beam="1">  1        2 0.37732450E+00 0.37193521E+03</pdfrwt>
<pdfrwt beam="2">  1       -2 0.56673383E-01 0.37193521E+03</pdfrwt>
<totfact> 0.12368453E+01</totfact>
</mgrwt>
</event>
<event>
 4    1  0.5410820E-008  0.4215500E+03  0.7818608E-02  0.1036563E+00
          2   -1    0    0  501    0  0.00000000000E+00  0.00000000000E+00  0.84053222214E+03  0.84053222215E+03  0.25500000000E-02 0. -1.
         -2   -1    0    0    0  501 -0.00000000000E+00 -0.00000000000E+00 -0.21143967105E+03  0.21143967106E+03  0.25500000000E-02 0.  1.
    8880022    1    1    2    0    0  0.11491478372E+03  0.37564259365E+03  0.30933612368E+03  0.52287020963E+03  0.15294330000E+03 0. -1.
    8880022    1    1    2    0    0 -0.11491478372E+03 -0.37564259365E+03  0.31975642741E+03  0.52910168358E+03  0.15294330000E+03 0.  1.
<mgrwt>
<rscale>  0 0.42155002E+03</rscale>
<asrwt>0</asrwt>
<pdfrwt beam="1">  1        2 0.12931265E+00 0.42155002E+03</pdfrwt>
<pdfrwt beam="2">  1       -2 0.32529180E-01 0.42155002E+03</pdfrwt>
<totfact> 0.29147467E+02</totfact>
</mgrwt>
</event>
<event>
 4    1  0.5410820E-008  0.4213899E+03  0.7818608E-02  0.1036615E+00
         -2   -1    0    0    0  501 -0.00000000000E+00  0.00000000000E+00  0.34901261304E+03  0.34901261305E+03  0.25500000000E-02 0.  1.
          2   -1    0    0  501    0  0.00000000000E+00 -0.00000000000E+00 -0.84882867625E+03  0.84882867625E+03  0.25500000000E-02 0. -1.
    8880022    1    1    2    0    0 -0.27859846317E+03 -0.27669608811E+03 -0.62898894650E+03  0.75709746842E+03  0.15294330000E+03 0.  0.
    8880022    1    1    2    0    0  0.27859846317E+03  0.27669608811E+03  0.12917288329E+03  0.44074382088E+03  0.15294330000E+03 0.  0.
<mgrwt>
<rscale>  0 0.42138994E+03</rscale>
<asrwt>0</asrwt>
<pdfrwt beam="1">  1        2 0.13058903E+00 0.42138994E+03</pdfrwt>
<pdfrwt beam="2">  1       -2 0.53694249E-01 0.42138994E+03</pdfrwt>
<totfact> 0.10825091E+02</totfact>
</mgrwt>
</event>
<event>
 4    1  0.5410820E-008  0.4855300E+03  0.7818608E-02  0.1017626E+00
         -2   -1    0    0    0  501 -0.00000000000E+00  0.00000000000E+00  0.17874530235E+04  0.17874530235E+04  0.25500000000E-02 0.  1.
          2   -1    0    0  501    0  0.00000000000E+00 -0.00000000000E+00 -0.16824690172E+03  0.16824690174E+03  0.25500000000E-02 0. -1.
    8880022    1    1    2    0    0 -0.45393038769E+03 -0.79340353281E+02  0.12641914161E+04  0.13542227579E+04  0.15294330000E+03 0.  0.
    8880022    1    1    2    0    0  0.45393038769E+03  0.79340353281E+02  0.35501470565E+03  0.60147716728E+03  0.15294330000E+03 0.  0.
<mgrwt>
<rscale>  0 0.48552996E+03</rscale>
<asrwt>0</asrwt>
<pdfrwt beam="1">  1        2 0.25884139E-01 0.48552996E+03</pdfrwt>
<pdfrwt beam="2">  1       -2 0.27499277E+00 0.48552996E+03</pdfrwt>
<totfact> 0.10162926E+01</totfact>
</mgrwt>
</event>
<event>
 4    1  0.5410820E-008  0.7110325E+03  0.7818608E-02  0.9698549E-01
         -2   -1    0    0    0  501 -0.00000000000E+00  0.00000000000E+00  0.12144607970E+03  0.12144607972E+03  0.25500000000E-02 0.  1.
          2   -1    0    0  501    0  0.00000000000E+00 -0.00000000000E+00 -0.44919631028E+04  0.44919631028E+04  0.25500000000E-02 0. -1.
    8880022    1    1    2    0    0 -0.38918129301E+03 -0.57507695322E+03 -0.15609244592E+04  0.17152412079E+04  0.15294330000E+03 0.  0.
    8880022    1    1    2    0    0  0.38918129301E+03  0.57507695322E+03 -0.28095925639E+04  0.28981679746E+04  0.15294330000E+03 0. -1.
<mgrwt>
<rscale>  0 0.71103251E+03</rscale>
<asrwt>0</asrwt>
<pdfrwt beam="1">  1        2 0.69107112E+00 0.71103251E+03</pdfrwt>
<pdfrwt beam="2">  1       -2 0.18684016E-01 0.71103251E+03</pdfrwt>
<totfact> 0.34419016E+00</totfact>
</mgrwt>
</event>
<event>
 4    1  0.5410820E-008  0.1031617E+04  0.7818608E-02  0.9274531E-01
         -2   -1    0    0    0  501 -0.00000000000E+00  0.00000000000E+00  0.70282352190E+03  0.70282352190E+03  0.25500000000E-02 0.  1.
          2   -1    0    0  501    0  0.00000000000E+00 -0.00000000000E+00 -0.36357050002E+04  0.36357050002E+04  0.25500000000E-02 0. -1.
    8880022    1    1    2    0    0 -0.18341770850E+03 -0.10035939044E+04 -0.31234975458E+04  0.32894484876E+04  0.15294330000E+03 0.  0.
    8880022    1    1    2    0    0  0.18341770850E+03  0.10035939044E+04  0.19061606750E+03  0.10490800345E+04  0.15294330000E+03 0.  0.
<mgrwt>
<rscale>  0 0.10316174E+04</rscale>
<asrwt>0</asrwt>
<pdfrwt beam="1">  1        2 0.55933922E+00 0.10316174E+04</pdfrwt>
<pdfrwt beam="2">  1       -2 0.10812670E+00 0.10316174E+04</pdfrwt>
<totfact> 0.45945867E-01</totfact>
</mgrwt>
</event>
<event>
 4    1  0.5410820E-008  0.3672207E+03  0.7818608E-02  0.1055761E+00
         -2   -1    0    0    0  501 -0.00000000000E+00  0.00000000000E+00  0.28643542039E+03  0.28643542040E+03  0.25500000000E-02 0.  1.
          2   -1    0    0  501    0  0.00000000000E+00 -0.00000000000E+00 -0.36322584060E+04  0.36322584060E+04  0.25500000000E-02 0. -1.
    8880022    1    1    2    0    0 -0.32962619121E+03 -0.52971055141E+02  0.15505138612E+03  0.39861252360E+03  0.15294330000E+03 0.  0.
    8880022    1    1    2    0    0  0.32962619121E+03  0.52971055141E+02 -0.35008743718E+04  0.35200813028E+04  0.15294330000E+03 0.  0.
<mgrwt>
<rscale>  0 0.36722066E+03</rscale>
<asrwt>0</asrwt>
<pdfrwt beam="1">  1        2 0.55880895E+00 0.36722066E+03</pdfrwt>
<pdfrwt beam="2">  1       -2 0.44066990E-01 0.36722066E+03</pdfrwt>
<totfact> 0.39265397E+00</totfact>
</mgrwt>
</event>
<event>
 4    1  0.5410820E-008  0.5410353E+03  0.7818608E-02  0.1003590E+00
          2   -1    0    0  501    0  0.00000000000E+00  0.00000000000E+00  0.20701762543E+04  0.20701762543E+04  0.25500000000E-02 0. -1.
         -2   -1    0    0    0  501 -0.00000000000E+00 -0.00000000000E+00 -0.24191345201E+03  0.24191345203E+03  0.25500000000E-02 0.  1.
    8880022    1    1    2    0    0  0.21037034049E+03  0.47441741001E+03  0.16895234304E+03  0.56680164636E+03  0.15294330000E+03 0.  0.
    8880022    1    1    2    0    0 -0.21037034049E+03 -0.47441741001E+03  0.16593104592E+04  0.17452880600E+04  0.15294330000E+03 0. -1.
<mgrwt>
<rscale>  0 0.54103532E+03</rscale>
<asrwt>0</asrwt>
<pdfrwt beam="1">  1        2 0.31848863E+00 0.54103532E+03</pdfrwt>
<pdfrwt beam="2">  1       -2 0.37217457E-01 0.54103532E+03</pdfrwt>
<totfact> 0.44230904E+01</totfact>
</mgrwt>
</event>
<event>
 4    1  0.5410820E-008  0.2494920E+03  0.7818608E-02  0.1113626E+00
         -2   -1    0    0    0  501 -0.00000000000E+00  0.00000000000E+00  0.51576673396E+02  0.51576673459E+02  0.25500000000E-02 0.  1.
          2   -1    0    0  501    0  0.00000000000E+00 -0.00000000000E+00 -0.42646242423E+04  0.42646242423E+04  0.25500000000E-02 0. -1.
    8880022    1    1    2    0    0  0.12160983092E+03  0.15513104509E+03 -0.39339198702E+04  0.39418234093E+04  0.15294330000E+03 0.  0.
    8880022    1    1    2    0    0 -0.12160983092E+03 -0.15513104509E+03 -0.27912769871E+03  0.37437750644E+03  0.15294330000E+03 0.  1.
<mgrwt>
<rscale>  0 0.24949197E+03</rscale>
<asrwt>0</asrwt>
<pdfrwt beam="1">  1        2 0.65609576E+00 0.24949197E+03</pdfrwt>
<pdfrwt beam="2">  1       -2 0.79348762E-02 0.24949197E+03</pdfrwt>
<totfact> 0.26638711E+01</totfact>
</mgrwt>
</event>
<event>
 4    1  0.5410820E-008  0.8732559E+03  0.7818608E-02  0.9459645E-01
         -2   -1    0    0    0  501 -0.00000000000E+00  0.00000000000E+00  0.14982341834E+04  0.14982341834E+04  0.25500000000E-02 0.  1.
          2   -1    0    0  501    0  0.00000000000E+00 -0.00000000000E+00 -0.12817462933E+04  0.12817462933E+04  0.25500000000E-02 0. -1.
    8880022    1    1    2    0    0 -0.85655052033E+03 -0.74198146770E+02  0.11875234798E+04  0.14740379327E+04  0.15294330000E+03 0.  0.
    8880022    1    1    2    0    0  0.85655052033E+03  0.74198146770E+02 -0.97103558974E+03  0.13059425441E+04  0.15294330000E+03 0.  0.
<mgrwt>
<rscale>  0 0.87325587E+03</rscale>
<asrwt>0</asrwt>
<pdfrwt beam="1">  1        2 0.19719174E+00 0.87325587E+03</pdfrwt>
<pdfrwt beam="2">  1       -2 0.23049756E+00 0.87325587E+03</pdfrwt>
<totfact> 0.14570087E+00</totfact>
</mgrwt>
</event>
<event>
 4    1  0.5410820E-008  0.1132850E+04  0.7818608E-02  0.9173752E-01
          2   -1    0    0  501    0  0.00000000000E+00  0.00000000000E+00  0.42353830473E+03  0.42353830474E+03  0.25500000000E-02 0. -1.
         -2   -1    0    0    0  501 -0.00000000000E+00 -0.00000000000E+00 -0.31799071194E+04  0.31799071194E+04  0.25500000000E-02 0.  1.
    8880022    1    1    2    0    0  0.10755754082E+04  0.32108482565E+03 -0.17692902680E+04  0.21008897233E+04  0.15294330000E+03 0.  0.
    8880022    1    1    2    0    0 -0.10755754082E+04 -0.32108482565E+03 -0.98707854666E+03  0.15025557009E+04  0.15294330000E+03 0.  0.
<mgrwt>
<rscale>  0 0.11328502E+04</rscale>
<asrwt>0</asrwt>
<pdfrwt beam="1">  1        2 0.65159741E-01 0.11328502E+04</pdfrwt>
<pdfrwt beam="2">  1       -2 0.48921646E+00 0.11328502E+04</pdfrwt>
<totfact> 0.14340178E-01</totfact>
</mgrwt>
</event>
<event>
 4    1  0.5410820E-008  0.4410470E+03  0.7818608E-02  0.1030426E+00
         -2   -1    0    0    0  501 -0.00000000000E+00  0.00000000000E+00  0.46155082947E+03  0.46155082948E+03  0.25500000000E-02 0.  1.
          2   -1    0    0  501    0  0.00000000000E+00 -0.00000000000E+00 -0.54286134691E+03  0.54286134691E+03  0.25500000000E-02 0. -1.
    8880022    1    1    2    0    0  0.59367935738E+02 -0.40939738683E+03  0.19684280212E+03  0.48297982763E+03  0.15294330000E+03 0.  0.
    8880022    1    1    2    0    0 -0.59367935738E+02  0.40939738683E+03 -0.27815331956E+03  0.52143234876E+03  0.15294330000E+03 0.  0.
<mgrwt>
<rscale>  0 0.44104696E+03</rscale>
<asrwt>0</asrwt>
<pdfrwt beam="1">  1        2 0.83517130E-01 0.44104696E+03</pdfrwt>
<pdfrwt beam="2">  1       -2 0.71007820E-01 0.44104696E+03</pdfrwt>
<totfact> 0.10405546E+02</totfact>
</mgrwt>
</event>
<event>
 4    1  0.5410820E-008  0.8428354E+03  0.7818608E-02  0.9500004E-01
         -2   -1    0    0    0  501 -0.00000000000E+00  0.00000000000E+00  0.35385039240E+03  0.35385039241E+03  0.25500000000E-02 0.  1.
          2   -1    0    0  501    0  0.00000000000E+00 -0.00000000000E+00 -0.24483375155E+04  0.24483375155E+04  0.25500000000E-02 0. -1.
    8880022    1    1    2    0    0 -0.82824858384E+03 -0.31370444610E+02 -0.16417375732E+04  0.18454467572E+04  0.15294330000E+03 0.  0.
    8880022    1    1    2    0    0  0.82824858384E+03  0.31370444610E+02 -0.45274954982E+03  0.95674115063E+03  0.15294330000E+03 0.  0.
<mgrwt>
<rscale>  0 0.84283538E+03</rscale>
<asrwt>0</asrwt>
<pdfrwt beam="1">  1        2 0.37666730E+00 0.84283538E+03</pdfrwt>
<pdfrwt beam="2">  1       -2 0.54438523E-01 0.84283538E+03</pdfrwt>
<totfact> 0.12221065E+01</totfact>
</mgrwt>
</event>
<event>
 4    1  0.5410820E-008  0.6577900E+03  0.7818608E-02  0.9792271E-01
          2   -1    0    0  501    0  0.00000000000E+00  0.00000000000E+00  0.87581016601E+03  0.87581016601E+03  0.25500000000E-02 0. -1.
         -2   -1    0    0    0  501 -0.00000000000E+00 -0.00000000000E+00 -0.88020967914E+03  0.88020967915E+03  0.25500000000E-02 0.  1.
    8880022    1    1    2    0    0  0.49409298391E+03  0.40640889625E+03 -0.58375885713E+03  0.87946695446E+03  0.15294330000E+03 0.  0.
    8880022    1    1    2    0    0 -0.49409298391E+03 -0.40640889625E+03  0.57935934399E+03  0.87655289069E+03  0.15294330000E+03 0.  0.
<mgrwt>
<rscale>  0 0.65779003E+03</rscale>
<asrwt>0</asrwt>
<pdfrwt beam="1">  1        2 0.13474002E+00 0.65779003E+03</pdfrwt>
<pdfrwt beam="2">  1       -2 0.13541687E+00 0.65779003E+03</pdfrwt>
<totfact> 0.12246572E+01</totfact>
</mgrwt>
</event>
<event>
 4    1  0.5410820E-008  0.9704091E+03  0.7818608E-02  0.9341609E-01
         -2   -1    0    0    0  501 -0.00000000000E+00  0.00000000000E+00  0.57238434734E+03  0.57238434734E+03  0.25500000000E-02 0.  1.
          2   -1    0    0  501    0  0.00000000000E+00 -0.00000000000E+00 -0.25452386733E+04  0.25452386733E+04  0.25500000000E-02 0. -1.
    8880022    1    1    2    0    0  0.66135215809E+03 -0.69348070408E+03 -0.59475805690E+02  0.97223000798E+03  0.15294330000E+03 0.  0.
    8880022    1    1    2    0    0 -0.66135215809E+03  0.69348070408E+03 -0.19133785203E+04  0.21453930127E+04  0.15294330000E+03 0.  0.
<mgrwt>
<rscale>  0 0.97040910E+03</rscale>
<asrwt>0</asrwt>
<pdfrwt beam="1">  1        2 0.39157518E+00 0.97040910E+03</pdfrwt>
<pdfrwt beam="2">  1       -2 0.88059131E-01 0.97040910E+03</pdfrwt>
<totfact> 0.36943188E+00</totfact>
</mgrwt>
</event>
<event>
 4    1  0.5410820E-008  0.4931850E+03  0.7818608E-02  0.1015573E+00
         -2   -1    0    0    0  501 -0.00000000000E+00  0.00000000000E+00  0.18629169849E+03  0.18629169851E+03  0.25500000000E-02 0.  1.
          2   -1    0    0  501    0  0.00000000000E+00 -0.00000000000E+00 -0.29951329837E+04  0.29951329837E+04  0.25500000000E-02 0. -1.
    8880022    1    1    2    0    0 -0.43101040957E+03  0.18458011224E+03 -0.25991257543E+04  0.26455030014E+04  0.15294330000E+03 0.  0.
    8880022    1    1    2    0    0  0.43101040957E+03 -0.18458011224E+03 -0.20971553093E+03  0.53592168077E+03  0.15294330000E+03 0.  1.
<mgrwt>
<rscale>  0 0.49318500E+03</rscale>
<asrwt>0</asrwt>
<pdfrwt beam="1">  1        2 0.46078965E+00 0.49318500E+03</pdfrwt>
<pdfrwt beam="2">  1       -2 0.28660264E-01 0.49318500E+03</pdfrwt>
<totfact> 0.21830389E+01</totfact>
</mgrwt>
</event>
<event>
 4    1  0.5410820E-008  0.5373364E+03  0.7818608E-02  0.1004468E+00
          2   -1    0    0  501    0  0.00000000000E+00  0.00000000000E+00  0.10182477024E+04  0.10182477024E+04  0.25500000000E-02 0. -1.
         -2   -1    0    0    0  501 -0.00000000000E+00 -0.00000000000E+00 -0.56250269611E+03  0.56250269612E+03  0.25500000000E-02 0.  1.
    8880022    1    1    2    0    0 -0.41019513673E+03 -0.31157461342E+03 -0.32871244847E+03  0.62990659364E+03  0.15294330000E+03 0.  0.
    8880022    1    1    2    0    0  0.41019513673E+03  0.31157461342E+03  0.78445745473E+03  0.95084380485E+03  0.15294330000E+03 0.  0.
<mgrwt>
<rscale>  0 0.53733643E+03</rscale>
<asrwt>0</asrwt>
<pdfrwt beam="1">  1        2 0.15665349E+00 0.53733643E+03</pdfrwt>
<pdfrwt beam="2">  1       -2 0.86538877E-01 0.53733643E+03</pdfrwt>
<totfact> 0.29539138E+01</totfact>
</mgrwt>
</event>
<event>
 4    1  0.5410820E-008  0.1737059E+04  0.7818608E-02  0.8740506E-01
          2   -1    0    0  501    0  0.00000000000E+00  0.00000000000E+00  0.19240282270E+04  0.19240282270E+04  0.25500000000E-02 0. -1.
         -2   -1    0    0    0  501 -0.00000000000E+00 -0.00000000000E+00 -0.20230600793E+04  0.20230600793E+04  0.25500000000E-02 0.  1.
    8880022    1    1    2    0    0 -0.21713836568E+03 -0.17166346121E+04 -0.98525134513E+03  0.19970216142E+04  0.15294330000E+03 0.  0.
    8880022    1    1    2    0    0  0.21713836568E+03  0.17166346121E+04  0.88621949284E+03  0.19500666922E+04  0.15294330000E+03 0.  0.
<mgrwt>
<rscale>  0 0.17370593E+04</rscale>
<asrwt>0</asrwt>
<pdfrwt beam="1">  1        2 0.29600434E+00 0.17370593E+04</pdfrwt>
<pdfrwt beam="2">  1       -2 0.31124001E+00 0.17370593E+04</pdfrwt>
<totfact> 0.18250666E-01</totfact>
</mgrwt>
</event>
<event>
 4    1  0.5410820E-008  0.7904704E+03  0.7818608E-02  0.9573914E-01
         -2   -1    0    0    0  501 -0.00000000000E+00  0.00000000000E+00  0.86277561450E+03  0.86277561450E+03  0.25500000000E-02 0.  1.
          2   -1    0    0  501    0  0.00000000000E+00 -0.00000000000E+00 -0.89669366621E+03  0.89669366621E+03  0.25500000000E-02 0. -1.
    8880022    1    1    2    0    0  0.20481903041E+03 -0.74799797659E+03  0.36886125086E+03  0.87229701571E+03  0.15294330000E+03 0.  0.
    8880022    1    1    2    0    0 -0.20481903041E+03  0.74799797659E+03 -0.40277930257E+03  0.88717226501E+03  0.15294330000E+03 0.  0.
<mgrwt>
<rscale>  0 0.79047041E+03</rscale>
<asrwt>0</asrwt>
<pdfrwt beam="1">  1        2 0.13795287E+00 0.79047041E+03</pdfrwt>
<pdfrwt beam="2">  1       -2 0.13273471E+00 0.79047041E+03</pdfrwt>
<totfact> 0.12283538E+01</totfact>
</mgrwt>
</event>
<event>
 4    1  0.5410820E-008  0.7817444E+03  0.7818608E-02  0.9586824E-01
         -2   -1    0    0    0  501 -0.00000000000E+00  0.00000000000E+00  0.58422838240E+03  0.58422838241E+03  0.25500000000E-02 0.  1.
          2   -1    0    0  501    0  0.00000000000E+00 -0.00000000000E+00 -0.13209033088E+04  0.13209033088E+04  0.25500000000E-02 0. -1.
    8880022    1    1    2    0    0  0.38277548483E+03 -0.66424059121E+03 -0.80286823783E+03  0.11205898871E+04  0.15294330000E+03 0.  0.
    8880022    1    1    2    0    0 -0.38277548483E+03  0.66424059121E+03  0.66193311478E+02  0.78454180405E+03  0.15294330000E+03 0.  0.
<mgrwt>
<rscale>  0 0.78174439E+03</rscale>
<asrwt>0</asrwt>
<pdfrwt beam="1">  1        2 0.20321589E+00 0.78174439E+03</pdfrwt>
<pdfrwt beam="2">  1       -2 0.89881290E-01 0.78174439E+03</pdfrwt>
<totfact> 0.17334461E+01</totfact>
</mgrwt>
</event>
<event>
 4    1  0.5410820E-008  0.3668144E+03  0.7818608E-02  0.1055918E+00
         -2   -1    0    0    0  501 -0.00000000000E+00  0.00000000000E+00  0.14435711845E+03  0.14435711847E+03  0.25500000000E-02 0.  1.
          2   -1    0    0  501    0  0.00000000000E+00 -0.00000000000E+00 -0.19476200821E+04  0.19476200821E+04  0.25500000000E-02 0. -1.
    8880022    1    1    2    0    0 -0.23518310857E+02  0.33257792477E+03 -0.16569370511E+04  0.16970542806E+04  0.15294330000E+03 0.  0.
    8880022    1    1    2    0    0  0.23518310857E+02 -0.33257792477E+03 -0.14632591249E+03  0.39492291991E+03  0.15294330000E+03 0.  0.
<mgrwt>
<rscale>  0 0.36681445E+03</rscale>
<asrwt>0</asrwt>
<pdfrwt beam="1">  1        2 0.29963384E+00 0.36681445E+03</pdfrwt>
<pdfrwt beam="2">  1       -2 0.22208789E-01 0.36681445E+03</pdfrwt>
<totfact> 0.13672542E+02</totfact>
</mgrwt>
</event>
<event>
 4    1  0.5410820E-008  0.1269848E+04  0.7818608E-02  0.9053824E-01
         -2   -1    0    0    0  501 -0.00000000000E+00  0.00000000000E+00  0.11030184560E+04  0.11030184560E+04  0.25500000000E-02 0.  1.
          2   -1    0    0  501    0  0.00000000000E+00 -0.00000000000E+00 -0.19707561010E+04  0.19707561010E+04  0.25500000000E-02 0. -1.
    8880022    1    1    2    0    0 -0.12157664830E+04 -0.33321605519E+03  0.34707389535E+03  0.13164243323E+04  0.15294330000E+03 0.  0.
    8880022    1    1    2    0    0  0.12157664830E+04  0.33321605519E+03 -0.12148115404E+04  0.17573502248E+04  0.15294330000E+03 0.  0.
<mgrwt>
<rscale>  0 0.12698475E+04</rscale>
<asrwt>0</asrwt>
<pdfrwt beam="1">  1        2 0.30319325E+00 0.12698475E+04</pdfrwt>
<pdfrwt beam="2">  1       -2 0.16969515E+00 0.12698475E+04</pdfrwt>
<totfact> 0.14326252E+00</totfact>
</mgrwt>
</event>
<event>
 4    1  0.5410820E-008  0.2120667E+03  0.7818608E-02  0.1139940E+00
         -2   -1    0    0    0  501 -0.00000000000E+00  0.00000000000E+00  0.51772687063E+02  0.51772687126E+02  0.25500000000E-02 0.  1.
          2   -1    0    0  501    0  0.00000000000E+00 -0.00000000000E+00 -0.46081821678E+04  0.46081821678E+04  0.25500000000E-02 0. -1.
    8880022    1    1    2    0    0  0.13859782251E+03  0.48695959769E+02 -0.17928624603E+03  0.27769743235E+03  0.15294330000E+03 0.  1.
    8880022    1    1    2    0    0 -0.13859782251E+03 -0.48695959769E+02 -0.43771232347E+04  0.43822574226E+04  0.15294330000E+03 0.  0.
<mgrwt>
<rscale>  0 0.21206675E+03</rscale>
<asrwt>0</asrwt>
<pdfrwt beam="1">  1        2 0.70895078E+00 0.21206675E+03</pdfrwt>
<pdfrwt beam="2">  1       -2 0.79650324E-02 0.21206675E+03</pdfrwt>
<totfact> 0.13333659E+01</totfact>
</mgrwt>
</event>
<event>
 4    1  0.5410820E-008  0.4795892E+03  0.7818608E-02  0.1019248E+00
         -2   -1    0    0    0  501 -0.00000000000E+00  0.00000000000E+00  0.32950384677E+03  0.32950384678E+03  0.25500000000E-02 0.  1.
          2   -1    0    0  501    0  0.00000000000E+00 -0.00000000000E+00 -0.23583510645E+04  0.23583510645E+04  0.25500000000E-02 0. -1.
    8880022    1    1    2    0    0 -0.26785762518E+03  0.36724164025E+03  0.11320675006E+03  0.49276926748E+03  0.15294330000E+03 0.  0.
    8880022    1    1    2    0    0  0.26785762518E+03 -0.36724164025E+03 -0.21420539678E+04  0.21950856438E+04  0.15294330000E+03 0.  0.
<mgrwt>
<rscale>  0 0.47958918E+03</rscale>
<asrwt>0</asrwt>
<pdfrwt beam="1">  1        2 0.36282323E+00 0.47958918E+03</pdfrwt>
<pdfrwt beam="2">  1       -2 0.50692901E-01 0.47958918E+03</pdfrwt>
<totfact> 0.16977195E+01</totfact>
</mgrwt>
</event>
<event>
 4    1  0.5410820E-008  0.6111930E+03  0.7818608E-02  0.9882453E-01
          2   -1    0    0  501    0  0.00000000000E+00  0.00000000000E+00  0.17479744868E+04  0.17479744868E+04  0.25500000000E-02 0. -1.
         -2   -1    0    0    0  501 -0.00000000000E+00 -0.00000000000E+00 -0.66432712165E+03  0.66432712166E+03  0.25500000000E-02 0.  1.
    8880022    1    1    2    0    0 -0.32892214067E+03 -0.49190994903E+03 -0.45155591534E+03  0.75990760640E+03  0.15294330000E+03 0.  0.
    8880022    1    1    2    0    0  0.32892214067E+03  0.49190994903E+03  0.15352032805E+04  0.16523940020E+04  0.15294330000E+03 0.  0.
<mgrwt>
<rscale>  0 0.61119295E+03</rscale>
<asrwt>0</asrwt>
<pdfrwt beam="1">  1        2 0.26891915E+00 0.61119295E+03</pdfrwt>
<pdfrwt beam="2">  1       -2 0.10220417E+00 0.61119295E+03</pdfrwt>
<totfact> 0.76222486E+00</totfact>
</mgrwt>
</event>
<event>
 4    1  0.5410820E-008  0.8140200E+03  0.7818608E-02  0.9539943E-01
          2   -1    0    0  501    0  0.00000000000E+00  0.00000000000E+00  0.17661392504E+04  0.17661392504E+04  0.25500000000E-02 0. -1.
         -2   -1    0    0    0  501 -0.00000000000E+00 -0.00000000000E+00 -0.66533500897E+03  0.66533500897E+03  0.25500000000E-02 0.  1.
    8880022    1    1    2    0    0  0.64235026568E+03 -0.47604941437E+03  0.13532457274E+04  0.15792094733E+04  0.15294330000E+03 0.  0.
    8880022    1    1    2    0    0 -0.64235026568E+03  0.47604941437E+03 -0.25244148598E+03  0.85226478608E+03  0.15294330000E+03 0.  0.
<mgrwt>
<rscale>  0 0.81402000E+03</rscale>
<asrwt>0</asrwt>
<pdfrwt beam="1">  1        2 0.27171373E+00 0.81402000E+03</pdfrwt>
<pdfrwt beam="2">  1       -2 0.10235923E+00 0.81402000E+03</pdfrwt>
<totfact> 0.71873211E+00</totfact>
</mgrwt>
</event>
<event>
 4    1  0.5410820E-008  0.5136373E+03  0.7818608E-02  0.1010279E+00
         -2   -1    0    0    0  501 -0.00000000000E+00  0.00000000000E+00  0.55472112141E+03  0.55472112141E+03  0.25500000000E-02 0.  1.
          2   -1    0    0  501    0  0.00000000000E+00 -0.00000000000E+00 -0.18734676919E+04  0.18734676919E+04  0.25500000000E-02 0. -1.
    8880022    1    1    2    0    0  0.29916409130E+02  0.48942481195E+03  0.38935496943E+03  0.64453128963E+03  0.15294330000E+03 0.  0.
    8880022    1    1    2    0    0 -0.29916409130E+02 -0.48942481195E+03 -0.17081015399E+04  0.17836575237E+04  0.15294330000E+03 0.  0.
<mgrwt>
<rscale>  0 0.51363731E+03</rscale>
<asrwt>0</asrwt>
<pdfrwt beam="1">  1        2 0.28822580E+00 0.51363731E+03</pdfrwt>
<pdfrwt beam="2">  1       -2 0.85341712E-01 0.51363731E+03</pdfrwt>
<totfact> 0.10103480E+01</totfact>
</mgrwt>
</event>
<event>
 4    1  0.5410820E-008  0.4595736E+03  0.7818608E-02  0.1024905E+00
          2   -1    0    0  501    0  0.00000000000E+00  0.00000000000E+00  0.51649968261E+03  0.51649968262E+03  0.25500000000E-02 0. -1.
         -2   -1    0    0    0  501 -0.00000000000E+00 -0.00000000000E+00 -0.24213162043E+04  0.24213162043E+04  0.25500000000E-02 0.  1.
    8880022    1    1    2    0    0  0.41243232391E+03 -0.13310089011E+03 -0.22915464269E+04  0.23371762767E+04  0.15294330000E+03 0.  0.
    8880022    1    1    2    0    0 -0.41243232391E+03  0.13310089011E+03  0.38672990521E+03  0.60063961021E+03  0.15294330000E+03 0.  0.
<mgrwt>
<rscale>  0 0.45957363E+03</rscale>
<asrwt>0</asrwt>
<pdfrwt beam="1">  1        2 0.79461491E-01 0.45957363E+03</pdfrwt>
<pdfrwt beam="2">  1       -2 0.37251018E+00 0.45957363E+03</pdfrwt>
<totfact> 0.75366868E-01</totfact>
</mgrwt>
</event>
<event>
 4    1  0.5410820E-008  0.5974420E+03  0.7818608E-02  0.9910727E-01
          2   -1    0    0  501    0  0.00000000000E+00  0.00000000000E+00  0.45737587335E+03  0.45737587336E+03  0.25500000000E-02 0. -1.
         -2   -1    0    0    0  501 -0.00000000000E+00 -0.00000000000E+00 -0.14851693249E+04  0.14851693249E+04  0.25500000000E-02 0.  1.
    8880022    1    1    2    0    0 -0.24724503178E+03  0.52193404662E+03 -0.11829737632E+04  0.13252787753E+04  0.15294330000E+03 0.  0.
    8880022    1    1    2    0    0  0.24724503178E+03 -0.52193404662E+03  0.15518031168E+03  0.61726642295E+03  0.15294330000E+03 0. -1.
<mgrwt>
<rscale>  0 0.59744197E+03</rscale>
<asrwt>0</asrwt>
<pdfrwt beam="1">  1        2 0.70365519E-01 0.59744197E+03</pdfrwt>
<pdfrwt beam="2">  1       -2 0.22848759E+00 0.59744197E+03</pdfrwt>
<totfact> 0.62360031E+00</totfact>
</mgrwt>
</event>
<event>
 4    1  0.5410820E-008  0.3756603E+03  0.7818608E-02  0.1052549E+00
         -2   -1    0    0    0  501 -0.00000000000E+00  0.00000000000E+00  0.11171391785E+04  0.11171391785E+04  0.25500000000E-02 0.  1.
          2   -1    0    0  501    0  0.00000000000E+00 -0.00000000000E+00 -0.87571697936E+03  0.87571697937E+03  0.25500000000E-02 0. -1.
    8880022    1    1    2    0    0  0.32570233715E+03 -0.10792113243E+03  0.10424737433E+04  0.11080939228E+04  0.15294330000E+03 0.  0.
    8880022    1    1    2    0    0 -0.32570233715E+03  0.10792113243E+03 -0.80105154414E+03  0.88476223509E+03  0.15294330000E+03 0.  0.
<mgrwt>
<rscale>  0 0.37566027E+03</rscale>
<asrwt>0</asrwt>
<pdfrwt beam="1">  1        2 0.13472569E+00 0.37566027E+03</pdfrwt>
<pdfrwt beam="2">  1       -2 0.17186756E+00 0.37566027E+03</pdfrwt>
<totfact> 0.68576603E+00</totfact>
</mgrwt>
</event>
<event>
 4    1  0.5410820E-008  0.5149447E+03  0.7818608E-02  0.1009950E+00
          2   -1    0    0  501    0  0.00000000000E+00  0.00000000000E+00  0.20415782022E+03  0.20415782024E+03  0.25500000000E-02 0. -1.
         -2   -1    0    0    0  501 -0.00000000000E+00 -0.00000000000E+00 -0.23858910151E+04  0.23858910151E+04  0.25500000000E-02 0.  1.
    8880022    1    1    2    0    0 -0.90472004321E+02 -0.48331271512E+03 -0.21673274733E+03  0.55869589308E+03  0.15294330000E+03 0. -1.
    8880022    1    1    2    0    0  0.90472004321E+02  0.48331271512E+03 -0.19650004476E+04  0.20313529423E+04  0.15294330000E+03 0.  0.
<mgrwt>
<rscale>  0 0.51494467E+03</rscale>
<asrwt>0</asrwt>
<pdfrwt beam="1">  1        2 0.31408897E-01 0.51494467E+03</pdfrwt>
<pdfrwt beam="2">  1       -2 0.36706014E+00 0.51494467E+03</pdfrwt>
<totfact> 0.22559378E+00</totfact>
</mgrwt>
</event>
<event>
 4    1  0.5410820E-008  0.3983236E+03  0.7818608E-02  0.1044362E+00
          2   -1    0    0  501    0  0.00000000000E+00  0.00000000000E+00  0.73726655824E+03  0.73726655824E+03  0.25500000000E-02 0. -1.
         -2   -1    0    0    0  501 -0.00000000000E+00 -0.00000000000E+00 -0.27593324938E+03  0.27593324939E+03  0.25500000000E-02 0.  1.
    8880022    1    1    2    0    0  0.21608266074E+03 -0.29762106183E+03  0.46833268797E+03  0.61481474637E+03  0.15294330000E+03 0.  1.
    8880022    1    1    2    0    0 -0.21608266074E+03  0.29762106183E+03 -0.69993791106E+01  0.39838506126E+03  0.15294330000E+03 0.  0.
<mgrwt>
<rscale>  0 0.39832357E+03</rscale>
<asrwt>0</asrwt>
<pdfrwt beam="1">  1        2 0.11342563E+00 0.39832357E+03</pdfrwt>
<pdfrwt beam="2">  1       -2 0.42451269E-01 0.39832357E+03</pdfrwt>
<totfact> 0.20821891E+02</totfact>
</mgrwt>
</event>
<event>
 4    1  0.5410820E-008  0.1149397E+04  0.7818608E-02  0.9158340E-01
          2   -1    0    0  501    0  0.00000000000E+00  0.00000000000E+00  0.11633143764E+04  0.11633143764E+04  0.25500000000E-02 0. -1.
         -2   -1    0    0    0  501 -0.00000000000E+00 -0.00000000000E+00 -0.25091121393E+04  0.25091121393E+04  0.25500000000E-02 0.  1.
    8880022    1    1    2    0    0 -0.71206169905E+03 -0.88920744819E+03 -0.20314376929E+04  0.23340635172E+04  0.15294330000E+03 0.  0.
    8880022    1    1    2    0    0  0.71206169905E+03  0.88920744819E+03  0.68563992998E+03  0.13383629985E+04  0.15294330000E+03 0.  0.
<mgrwt>
<rscale>  0 0.11493970E+04</rscale>
<asrwt>0</asrwt>
<pdfrwt beam="1">  1        2 0.17897144E+00 0.11493970E+04</pdfrwt>
<pdfrwt beam="2">  1       -2 0.38601725E+00 0.11493970E+04</pdfrwt>
<totfact> 0.18085528E-01</totfact>
</mgrwt>
</event>
<event>
 4    1  0.5410820E-008  0.2748545E+03  0.7818608E-02  0.1098533E+00
          2   -1    0    0  501    0  0.00000000000E+00  0.00000000000E+00  0.16184455574E+04  0.16184455574E+04  0.25500000000E-02 0. -1.
         -2   -1    0    0    0  501 -0.00000000000E+00 -0.00000000000E+00 -0.30370714001E+03  0.30370714002E+03  0.25500000000E-02 0.  1.
    8880022    1    1    2    0    0 -0.20516055761E+03 -0.10031206501E+03  0.15415111228E+04  0.15658229656E+04  0.15294330000E+03 0.  0.
    8880022    1    1    2    0    0  0.20516055761E+03  0.10031206501E+03 -0.22677270547E+03  0.35632973178E+03  0.15294330000E+03 0.  1.
<mgrwt>
<rscale>  0 0.27485454E+03</rscale>
<asrwt>0</asrwt>
<pdfrwt beam="1">  1        2 0.24899163E+00 0.27485454E+03</pdfrwt>
<pdfrwt beam="2">  1       -2 0.46724174E-01 0.27485454E+03</pdfrwt>
<totfact> 0.52583864E+01</totfact>
</mgrwt>
</event>
<event>
 4    1  0.5410820E-008  0.3295111E+03  0.7818608E-02  0.1071353E+00
         -2   -1    0    0    0  501 -0.00000000000E+00  0.00000000000E+00  0.11658019204E+04  0.11658019204E+04  0.25500000000E-02 0.  1.
          2   -1    0    0  501    0  0.00000000000E+00 -0.00000000000E+00 -0.22682013398E+03  0.22682013400E+03  0.25500000000E-02 0. -1.
    8880022    1    1    2    0    0 -0.17388203704E+03 -0.23441615463E+03 -0.65077418427E+02  0.33587589935E+03  0.15294330000E+03 0.  0.
    8880022    1    1    2    0    0  0.17388203704E+03  0.23441615463E+03  0.10040592049E+04  0.10567461551E+04  0.15294330000E+03 0.  0.
<mgrwt>
<rscale>  0 0.32951108E+03</rscale>
<asrwt>0</asrwt>
<pdfrwt beam="1">  1        2 0.34895405E-01 0.32951108E+03</pdfrwt>
<pdfrwt beam="2">  1       -2 0.17935414E+00 0.32951108E+03</pdfrwt>
<totfact> 0.29096345E+01</totfact>
</mgrwt>
</event>
<event>
 4    1  0.5410820E-008  0.5102921E+03  0.7818608E-02  0.1011127E+00
         -2   -1    0    0    0  501 -0.00000000000E+00  0.00000000000E+00  0.26870963274E+03  0.26870963275E+03  0.25500000000E-02 0.  1.
          2   -1    0    0  501    0  0.00000000000E+00 -0.00000000000E+00 -0.13100636053E+04  0.13100636053E+04  0.25500000000E-02 0. -1.
    8880022    1    1    2    0    0  0.25482338702E+03 -0.41481493514E+03 -0.11794359509E+03  0.52374491274E+03  0.15294330000E+03 0.  0.
    8880022    1    1    2    0    0 -0.25482338702E+03  0.41481493514E+03 -0.92341037752E+03  0.10550283254E+04  0.15294330000E+03 0.  0.
<mgrwt>
<rscale>  0 0.51029211E+03</rscale>
<asrwt>0</asrwt>
<pdfrwt beam="1">  1        2 0.20154824E+00 0.51029211E+03</pdfrwt>
<pdfrwt beam="2">  1       -2 0.41339944E-01 0.51029211E+03</pdfrwt>
<totfact> 0.94214536E+01</totfact>
</mgrwt>
</event>
<event>
 4    1  0.5410820E-008  0.3580820E+03  0.7818608E-02  0.1059346E+00
         -2   -1    0    0    0  501 -0.00000000000E+00  0.00000000000E+00  0.25603732277E+03  0.25603732278E+03  0.25500000000E-02 0.  1.
          2   -1    0    0  501    0  0.00000000000E+00 -0.00000000000E+00 -0.20872672927E+04  0.20872672927E+04  0.25500000000E-02 0. -1.
    8880022    1    1    2    0    0 -0.22304411771E+03  0.23469640542E+03  0.10585517586E+03  0.37340065939E+03  0.15294330000E+03 0.  0.
    8880022    1    1    2    0    0  0.22304411771E+03 -0.23469640542E+03 -0.19370851458E+04  0.19699039561E+04  0.15294330000E+03 0.  0.
<mgrwt>
<rscale>  0 0.35808202E+03</rscale>
<asrwt>0</asrwt>
<pdfrwt beam="1">  1        2 0.32111803E+00 0.35808202E+03</pdfrwt>
<pdfrwt beam="2">  1       -2 0.39390359E-01 0.35808202E+03</pdfrwt>
<totfact> 0.40418963E+01</totfact>
</mgrwt>
</event>
<event>
 4    1  0.5410820E-008  0.4260555E+03  0.7818608E-02  0.1035113E+00
         -2   -1    0    0    0  501 -0.00000000000E+00  0.00000000000E+00  0.25145096414E+03  0.25145096416E+03  0.25500000000E-02 0.  1.
          2   -1    0    0  501    0  0.00000000000E+00 -0.00000000000E+00 -0.24278593858E+04  0.24278593858E+04  0.25500000000E-02 0. -1.
    8880022    1    1    2    0    0  0.37077088274E+03  0.14373787013E+03  0.34758117308E+02  0.42747093764E+03  0.15294330000E+03 0.  0.
    8880022    1    1    2    0    0 -0.37077088274E+03 -0.14373787013E+03 -0.22111665389E+04  0.22518394123E+04  0.15294330000E+03 0. -1.
<mgrwt>
<rscale>  0 0.42605548E+03</rscale>
<asrwt>0</asrwt>
<pdfrwt beam="1">  1        2 0.37351681E+00 0.42605548E+03</pdfrwt>
<pdfrwt beam="2">  1       -2 0.38684765E-01 0.42605548E+03</pdfrwt>
<totfact> 0.26856674E+01</totfact>
</mgrwt>
</event>
<event>
 4    1  0.5410820E-008  0.5486471E+03  0.7818608E-02  0.1001808E+00
         -2   -1    0    0    0  501 -0.00000000000E+00  0.00000000000E+00  0.59679600640E+03  0.59679600640E+03  0.25500000000E-02 0.  1.
          2   -1    0    0  501    0  0.00000000000E+00 -0.00000000000E+00 -0.80818677865E+03  0.80818677865E+03  0.25500000000E-02 0. -1.
    8880022    1    1    2    0    0  0.53548930712E+02 -0.52417025057E+03  0.32501160664E+03  0.63768811893E+03  0.15294330000E+03 0.  0.
    8880022    1    1    2    0    0 -0.53548930712E+02  0.52417025057E+03 -0.53640237889E+03  0.76729466612E+03  0.15294330000E+03 0.  0.
<mgrwt>
<rscale>  0 0.54864706E+03</rscale>
<asrwt>0</asrwt>
<pdfrwt beam="1">  1        2 0.12433643E+00 0.54864706E+03</pdfrwt>
<pdfrwt beam="2">  1       -2 0.91814770E-01 0.54864706E+03</pdfrwt>
<totfact> 0.35484496E+01</totfact>
</mgrwt>
</event>
<event>
 4    1  0.5410820E-008  0.4064213E+03  0.7818608E-02  0.1041579E+00
          2   -1    0    0  501    0  0.00000000000E+00  0.00000000000E+00  0.11293182176E+04  0.11293182176E+04  0.25500000000E-02 0. -1.
         -2   -1    0    0    0  501 -0.00000000000E+00 -0.00000000000E+00 -0.19884701319E+03  0.19884701320E+03  0.25500000000E-02 0.  1.
    8880022    1    1    2    0    0 -0.11873033606E+02  0.37635842377E+03  0.12373894209E+03  0.42484068882E+03  0.15294330000E+03 0.  0.
    8880022    1    1    2    0    0  0.11873033606E+02 -0.37635842377E+03  0.80673226228E+03  0.90332454195E+03  0.15294330000E+03 0.  0.
<mgrwt>
<rscale>  0 0.40642131E+03</rscale>
<asrwt>0</asrwt>
<pdfrwt beam="1">  1        2 0.17374127E+00 0.40642131E+03</pdfrwt>
<pdfrwt beam="2">  1       -2 0.30591848E-01 0.40642131E+03</pdfrwt>
<totfact> 0.21475802E+02</totfact>
</mgrwt>
</event>
<event>
 4    1  0.5410820E-008  0.5513454E+03  0.7818608E-02  0.1001183E+00
          2   -1    0    0  501    0  0.00000000000E+00  0.00000000000E+00  0.17777247340E+04  0.17777247340E+04  0.25500000000E-02 0. -1.
         -2   -1    0    0    0  501 -0.00000000000E+00 -0.00000000000E+00 -0.23461668780E+03  0.23461668781E+03  0.25500000000E-02 0.  1.
    8880022    1    1    2    0    0  0.49912418766E+03  0.17738423113E+03  0.12955106390E+04  0.14079522680E+04  0.15294330000E+03 0.  0.
    8880022    1    1    2    0    0 -0.49912418766E+03 -0.17738423113E+03  0.24759740715E+03  0.60438915377E+03  0.15294330000E+03 0.  0.
<mgrwt>
<rscale>  0 0.55134542E+03</rscale>
<asrwt>0</asrwt>
<pdfrwt beam="1">  1        2 0.27349610E+00 0.55134542E+03</pdfrwt>
<pdfrwt beam="2">  1       -2 0.36094876E-01 0.55134542E+03</pdfrwt>
<totfact> 0.67335051E+01</totfact>
</mgrwt>
</event>
<event>
 4    1  0.5410820E-008  0.8948054E+03  0.7818608E-02  0.9432098E-01
          2   -1    0    0  501    0  0.00000000000E+00  0.00000000000E+00  0.17069515144E+04  0.17069515144E+04  0.25500000000E-02 0. -1.
         -2   -1    0    0    0  501 -0.00000000000E+00 -0.00000000000E+00 -0.56302323934E+03  0.56302323934E+03  0.25500000000E-02 0.  1.
    8880022    1    1    2    0    0  0.16687945183E+03 -0.86569993514E+03  0.10831680639E+03  0.90133751320E+03  0.15294330000E+03 0.  0.
    8880022    1    1    2    0    0 -0.16687945183E+03  0.86569993514E+03  0.10356114687E+04  0.13686372405E+04  0.15294330000E+03 0.  0.
<mgrwt>
<rscale>  0 0.89480544E+03</rscale>
<asrwt>0</asrwt>
<pdfrwt beam="1">  1        2 0.26260793E+00 0.89480544E+03</pdfrwt>
<pdfrwt beam="2">  1       -2 0.86618959E-01 0.89480544E+03</pdfrwt>
<totfact> 0.11327780E+01</totfact>
</mgrwt>
</event>
<event>
 4    1  0.5410820E-008  0.8664024E+03  0.7818608E-02  0.9468583E-01
         -2   -1    0    0    0  501 -0.00000000000E+00  0.00000000000E+00  0.41692447625E+03  0.41692447626E+03  0.25500000000E-02 0.  1.
          2   -1    0    0  501    0  0.00000000000E+00 -0.00000000000E+00 -0.19577885220E+04  0.19577885220E+04  0.25500000000E-02 0. -1.
    8880022    1    1    2    0    0  0.70381629414E+03  0.48156427458E+03 -0.11070294499E+04  0.14057622069E+04  0.15294330000E+03 0.  0.
    8880022    1    1    2    0    0 -0.70381629414E+03 -0.48156427458E+03 -0.43383459585E+03  0.96895079133E+03  0.15294330000E+03 0.  0.
<mgrwt>
<rscale>  0 0.86640244E+03</rscale>
<asrwt>0</asrwt>
<pdfrwt beam="1">  1        2 0.30119823E+00 0.86640244E+03</pdfrwt>
<pdfrwt beam="2">  1       -2 0.64142228E-01 0.86640244E+03</pdfrwt>
<totfact> 0.16126974E+01</totfact>
</mgrwt>
</event>
<event>
 4    1  0.5410820E-008  0.9173320E+03  0.7818608E-02  0.9404171E-01
          2   -1    0    0  501    0  0.00000000000E+00  0.00000000000E+00  0.17187074747E+04  0.17187074747E+04  0.25500000000E-02 0. -1.
         -2   -1    0    0    0  501 -0.00000000000E+00 -0.00000000000E+00 -0.10248308600E+04  0.10248308600E+04  0.25500000000E-02 0.  1.
    8880022    1    1    2    0    0  0.14884451498E+03  0.89216123545E+03 -0.64439812503E+03  0.11210472587E+04  0.15294330000E+03 0.  0.
    8880022    1    1    2    0    0 -0.14884451498E+03 -0.89216123545E+03  0.13382747397E+04  0.16224910760E+04  0.15294330000E+03 0.  0.
<mgrwt>
<rscale>  0 0.91733201E+03</rscale>
<asrwt>0</asrwt>
<pdfrwt beam="1">  1        2 0.26441653E+00 0.91733201E+03</pdfrwt>
<pdfrwt beam="2">  1       -2 0.15766629E+00 0.91733201E+03</pdfrwt>
<totfact> 0.25236305E+00</totfact>
</mgrwt>
</event>
<event>
 4    1  0.5410820E-008  0.2244858E+03  0.7818608E-02  0.1130582E+00
          2   -1    0    0  501    0  0.00000000000E+00  0.00000000000E+00  0.13718197955E+04  0.13718197955E+04  0.25500000000E-02 0. -1.
         -2   -1    0    0    0  501 -0.00000000000E+00 -0.00000000000E+00 -0.15041542159E+03  0.15041542161E+03  0.25500000000E-02 0.  1.
    8880022    1    1    2    0    0  0.37068495198E+00 -0.16432315262E+03  0.12723826338E+04  0.12920338447E+04  0.15294330000E+03 0. -1.
    8880022    1    1    2    0    0 -0.37068495198E+00  0.16432315262E+03 -0.50978259880E+02  0.23020137248E+03  0.15294330000E+03 0.  0.
<mgrwt>
<rscale>  0 0.22448583E+03</rscale>
<asrwt>0</asrwt>
<pdfrwt beam="1">  1        2 0.21104920E+00 0.22448583E+03</pdfrwt>
<pdfrwt beam="2">  1       -2 0.23140834E-01 0.22448583E+03</pdfrwt>
<totfact> 0.26539321E+02</totfact>
</mgrwt>
</event>
<event>
 4    1  0.5410820E-008  0.1852650E+03  0.7818608E-02  0.1162803E+00
          2   -1    0    0  501    0  0.00000000000E+00  0.00000000000E+00  0.21171540170E+03  0.21171540172E+03  0.25500000000E-02 0. -1.
         -2   -1    0    0    0  501 -0.00000000000E+00 -0.00000000000E+00 -0.19869857630E+04  0.19869857630E+04  0.25500000000E-02 0.  1.
    8880022    1    1    2    0    0  0.10455241551E+03  0.49901418214E+00 -0.19411833633E+04  0.19500040922E+04  0.15294330000E+03 0.  1.
    8880022    1    1    2    0    0 -0.10455241551E+03 -0.49901418214E+00  0.16591300204E+03  0.24869707249E+03  0.15294330000E+03 0.  0.
<mgrwt>
<rscale>  0 0.18526497E+03</rscale>
<asrwt>0</asrwt>
<pdfrwt beam="1">  1        2 0.32571602E-01 0.18526497E+03</pdfrwt>
<pdfrwt beam="2">  1       -2 0.30569010E+00 0.18526497E+03</pdfrwt>
<totfact> 0.56626959E+00</totfact>
</mgrwt>
</event>
<event>
 4    1  0.5410820E-008  0.8491801E+03  0.7818608E-02  0.9491438E-01
          2   -1    0    0  501    0  0.00000000000E+00  0.00000000000E+00  0.57112579209E+03  0.57112579210E+03  0.25500000000E-02 0. -1.
         -2   -1    0    0    0  501 -0.00000000000E+00 -0.00000000000E+00 -0.13180696528E+04  0.13180696528E+04  0.25500000000E-02 0.  1.
    8880022    1    1    2    0    0 -0.48024076070E+03  0.68343544977E+03 -0.17970398928E+03  0.86798639334E+03  0.15294330000E+03 0.  0.
    8880022    1    1    2    0    0  0.48024076070E+03 -0.68343544977E+03 -0.56723987142E+03  0.10212090516E+04  0.15294330000E+03 0.  0.
<mgrwt>
<rscale>  0 0.84918011E+03</rscale>
<asrwt>0</asrwt>
<pdfrwt beam="1">  1        2 0.87865507E-01 0.84918011E+03</pdfrwt>
<pdfrwt beam="2">  1       -2 0.20277995E+00 0.84918011E+03</pdfrwt>
<totfact> 0.67744884E+00</totfact>
</mgrwt>
</event>
<event>
 4    1  0.5410820E-008  0.3208140E+03  0.7818608E-02  0.1075275E+00
         -2   -1    0    0    0  501 -0.00000000000E+00  0.00000000000E+00  0.58437504267E+02  0.58437504323E+02  0.25500000000E-02 0.  1.
          2   -1    0    0  501    0  0.00000000000E+00 -0.00000000000E+00 -0.27169349512E+04  0.27169349512E+04  0.25500000000E-02 0. -1.
    8880022    1    1    2    0    0 -0.94713979650E+02 -0.26562982661E+03 -0.50622054791E+03  0.59931697695E+03  0.15294330000E+03 0.  0.
    8880022    1    1    2    0    0  0.94713979650E+02  0.26562982661E+03 -0.21522768990E+04  0.21760554785E+04  0.15294330000E+03 0.  0.
<mgrwt>
<rscale>  0 0.32081396E+03</rscale>
<asrwt>0</asrwt>
<pdfrwt beam="1">  1        2 0.41798990E+00 0.32081396E+03</pdfrwt>
<pdfrwt beam="2">  1       -2 0.89903874E-02 0.32081396E+03</pdfrwt>
<totfact> 0.23617783E+02</totfact>
</mgrwt>
</event>
<event>
 4    1  0.5410820E-008  0.1165739E+04  0.7818608E-02  0.9143386E-01
         -2   -1    0    0    0  501 -0.00000000000E+00  0.00000000000E+00  0.50622846199E+03  0.50622846200E+03  0.25500000000E-02 0.  1.
          2   -1    0    0  501    0  0.00000000000E+00 -0.00000000000E+00 -0.32618909702E+04  0.32618909702E+04  0.25500000000E-02 0. -1.
    8880022    1    1    2    0    0  0.11384588269E+04  0.19866141392E+03 -0.58512439792E+03  0.13043454573E+04  0.15294330000E+03 0.  0.
    8880022    1    1    2    0    0 -0.11384588269E+04 -0.19866141392E+03 -0.21705381103E+04  0.24637739749E+04  0.15294330000E+03 0.  0.
<mgrwt>
<rscale>  0 0.11657386E+04</rscale>
<asrwt>0</asrwt>
<pdfrwt beam="1">  1        2 0.50182937E+00 0.11657386E+04</pdfrwt>
<pdfrwt beam="2">  1       -2 0.77881304E-01 0.11657386E+04</pdfrwt>
<totfact> 0.17393219E+00</totfact>
</mgrwt>
</event>
<event>
 4    1  0.5410820E-008  0.8609325E+03  0.7818608E-02  0.9475780E-01
          2   -1    0    0  501    0  0.00000000000E+00  0.00000000000E+00  0.15129766322E+04  0.15129766322E+04  0.25500000000E-02 0. -1.
         -2   -1    0    0    0  501 -0.00000000000E+00 -0.00000000000E+00 -0.84535123668E+03  0.84535123668E+03  0.25500000000E-02 0.  1.
    8880022    1    1    2    0    0  0.54374086541E+03  0.64973769244E+03 -0.43080892584E+03  0.96270513725E+03  0.15294330000E+03 0.  0.
    8880022    1    1    2    0    0 -0.54374086541E+03 -0.64973769244E+03  0.10984343213E+04  0.13956227316E+04  0.15294330000E+03 0.  0.
<mgrwt>
<rscale>  0 0.86093255E+03</rscale>
<asrwt>0</asrwt>
<pdfrwt beam="1">  1        2 0.23276563E+00 0.86093255E+03</pdfrwt>
<pdfrwt beam="2">  1       -2 0.13005404E+00 0.86093255E+03</pdfrwt>
<totfact> 0.54695822E+00</totfact>
</mgrwt>
</event>
<event>
 4    1  0.5410820E-008  0.4002300E+03  0.7818608E-02  0.1043700E+00
         -2   -1    0    0    0  501 -0.00000000000E+00  0.00000000000E+00  0.20938739986E+03  0.20938739987E+03  0.25500000000E-02 0.  1.
          2   -1    0    0  501    0  0.00000000000E+00 -0.00000000000E+00 -0.21878428099E+04  0.21878428099E+04  0.25500000000E-02 0. -1.
    8880022    1    1    2    0    0  0.34781375486E+03 -0.12576955378E+03 -0.22624577141E+02  0.40086894771E+03  0.15294330000E+03 0.  0.
    8880022    1    1    2    0    0 -0.34781375486E+03  0.12576955378E+03 -0.19558308329E+04  0.19963612620E+04  0.15294330000E+03 0.  0.
<mgrwt>
<rscale>  0 0.40022999E+03</rscale>
<asrwt>0</asrwt>
<pdfrwt beam="1">  1        2 0.33659119E+00 0.40022999E+03</pdfrwt>
<pdfrwt beam="2">  1       -2 0.32213448E-01 0.40022999E+03</pdfrwt>
<totfact> 0.51632375E+01</totfact>
</mgrwt>
</event>
<event>
 4    1  0.5410820E-008  0.2245839E+03  0.7818608E-02  0.1130511E+00
          2   -1    0    0  501    0  0.00000000000E+00  0.00000000000E+00  0.77122105677E+03  0.77122105678E+03  0.25500000000E-02 0. -1.
         -2   -1    0    0    0  501 -0.00000000000E+00 -0.00000000000E+00 -0.11856645104E+03  0.11856645107E+03  0.25500000000E-02 0.  1.
    8880022    1    1    2    0    0  0.15444344397E+03  0.56510889524E+02  0.28411220493E+02  0.22637382465E+03  0.15294330000E+03 0.  0.
    8880022    1    1    2    0    0 -0.15444344397E+03 -0.56510889524E+02  0.62424338524E+03  0.66341368320E+03  0.15294330000E+03 0.  0.
<mgrwt>
<rscale>  0 0.22458386E+03</rscale>
<asrwt>0</asrwt>
<pdfrwt beam="1">  1        2 0.11864939E+00 0.22458386E+03</pdfrwt>
<pdfrwt beam="2">  1       -2 0.18240993E-01 0.22458386E+03</pdfrwt>
<totfact> 0.91798556E+02</totfact>
</mgrwt>
</event>
<event>
 4    1  0.5410820E-008  0.7436912E+03  0.7818608E-02  0.9645300E-01
          2   -1    0    0  501    0  0.00000000000E+00  0.00000000000E+00  0.18839313172E+04  0.18839313172E+04  0.25500000000E-02 0. -1.
         -2   -1    0    0    0  501 -0.00000000000E+00 -0.00000000000E+00 -0.10670092197E+04  0.10670092197E+04  0.25500000000E-02 0.  1.
    8880022    1    1    2    0    0  0.72203977914E+03 -0.91342862147E+02  0.16646583265E+04  0.18232289922E+04  0.15294330000E+03 0.  0.
    8880022    1    1    2    0    0 -0.72203977914E+03  0.91342862147E+02 -0.84773622897E+03  0.11277115447E+04  0.15294330000E+03 0.  0.
<mgrwt>
<rscale>  0 0.74369121E+03</rscale>
<asrwt>0</asrwt>
<pdfrwt beam="1">  1        2 0.28983559E+00 0.74369121E+03</pdfrwt>
<pdfrwt beam="2">  1       -2 0.16415527E+00 0.74369121E+03</pdfrwt>
<totfact> 0.18882718E+00</totfact>
</mgrwt>
</event>
<event>
 4    1  0.5410820E-008  0.5499425E+03  0.7818608E-02  0.1001507E+00
          2   -1    0    0  501    0  0.00000000000E+00  0.00000000000E+00  0.13447091834E+04  0.13447091834E+04  0.25500000000E-02 0. -1.
         -2   -1    0    0    0  501 -0.00000000000E+00 -0.00000000000E+00 -0.12329299388E+04  0.12329299388E+04  0.25500000000E-02 0.  1.
    8880022    1    1    2    0    0 -0.48471236364E+03 -0.20999776927E+03 -0.11094640834E+04  0.12382840320E+04  0.15294330000E+03 0.  0.
    8880022    1    1    2    0    0  0.48471236364E+03  0.20999776927E+03  0.12212433279E+04  0.13393550902E+04  0.15294330000E+03 0.  0.
<mgrwt>
<rscale>  0 0.54994253E+03</rscale>
<asrwt>0</asrwt>
<pdfrwt beam="1">  1        2 0.20687834E+00 0.54994253E+03</pdfrwt>
<pdfrwt beam="2">  1       -2 0.18968153E+00 0.54994253E+03</pdfrwt>
<totfact> 0.25915666E+00</totfact>
</mgrwt>
</event>
<event>
 4    1  0.5410820E-008  0.7150425E+03  0.7818608E-02  0.9691848E-01
         -2   -1    0    0    0  501 -0.00000000000E+00  0.00000000000E+00  0.67465901427E+03  0.67465901427E+03  0.25500000000E-02 0.  1.
          2   -1    0    0  501    0  0.00000000000E+00 -0.00000000000E+00 -0.26513706383E+04  0.26513706383E+04  0.25500000000E-02 0. -1.
    8880022    1    1    2    0    0 -0.53740237044E+03 -0.44619811902E+03 -0.23937453146E+04  0.24982598650E+04  0.15294330000E+03 0.  0.
    8880022    1    1    2    0    0  0.53740237044E+03  0.44619811902E+03  0.41703369052E+03  0.82776978757E+03  0.15294330000E+03 0.  1.
<mgrwt>
<rscale>  0 0.71504246E+03</rscale>
<asrwt>0</asrwt>
<pdfrwt beam="1">  1        2 0.40790317E+00 0.71504246E+03</pdfrwt>
<pdfrwt beam="2">  1       -2 0.10379370E+00 0.71504246E+03</pdfrwt>
<totfact> 0.22798807E+00</totfact>
</mgrwt>
</event>
<event>
 4    1  0.5410820E-008  0.1887160E+03  0.7818608E-02  0.1159625E+00
         -2   -1    0    0    0  501 -0.00000000000E+00  0.00000000000E+00  0.52640676141E+03  0.52640676141E+03  0.25500000000E-02 0.  1.
          2   -1    0    0  501    0  0.00000000000E+00 -0.00000000000E+00 -0.27131353256E+03  0.27131353257E+03  0.25500000000E-02 0. -1.
    8880022    1    1    2    0    0 -0.17947621494E+02 -0.10908695629E+03 -0.21802404414E+03  0.28835432715E+03  0.15294330000E+03 0.  0.
    8880022    1    1    2    0    0  0.17947621494E+02  0.10908695629E+03  0.47311727299E+03  0.50936596683E+03  0.15294330000E+03 0.  0.
<mgrwt>
<rscale>  0 0.18871601E+03</rscale>
<asrwt>0</asrwt>
<pdfrwt beam="1">  1        2 0.41740544E-01 0.18871601E+03</pdfrwt>
<pdfrwt beam="2">  1       -2 0.80985654E-01 0.18871601E+03</pdfrwt>
<totfact> 0.17134575E+02</totfact>
</mgrwt>
</event>
<event>
 4    1  0.5410820E-008  0.7542254E+03  0.7818608E-02  0.9628745E-01
          2   -1    0    0  501    0  0.00000000000E+00  0.00000000000E+00  0.53098425891E+03  0.53098425892E+03  0.25500000000E-02 0. -1.
         -2   -1    0    0    0  501 -0.00000000000E+00 -0.00000000000E+00 -0.13952779440E+04  0.13952779440E+04  0.25500000000E-02 0.  1.
    8880022    1    1    2    0    0 -0.52121502249E+03 -0.52325825045E+03  0.31937557429E+02  0.75490128953E+03  0.15294330000E+03 0.  0.
    8880022    1    1    2    0    0  0.52121502249E+03  0.52325825045E+03 -0.89623124251E+03  0.11713609134E+04  0.15294330000E+03 0.  0.
<mgrwt>
<rscale>  0 0.75422540E+03</rscale>
<asrwt>0</asrwt>
<pdfrwt beam="1">  1        2 0.81689886E-01 0.75422540E+03</pdfrwt>
<pdfrwt beam="2">  1       -2 0.21465814E+00 0.75422540E+03</pdfrwt>
<totfact> 0.62668010E+00</totfact>
</mgrwt>
</event>
<event>
 4    1  0.5410820E-008  0.8683566E+03  0.7818608E-02  0.9466025E-01
         -2   -1    0    0    0  501 -0.00000000000E+00  0.00000000000E+00  0.23709942005E+04  0.23709942005E+04  0.25500000000E-02 0.  1.
          2   -1    0    0  501    0  0.00000000000E+00 -0.00000000000E+00 -0.38346503289E+03  0.38346503290E+03  0.25500000000E-02 0. -1.
    8880022    1    1    2    0    0  0.85375601397E+03  0.41859014617E+02  0.15626887794E+04  0.17877470131E+04  0.15294330000E+03 0.  0.
    8880022    1    1    2    0    0 -0.85375601397E+03 -0.41859014617E+02  0.42484038824E+03  0.96671222035E+03  0.15294330000E+03 0.  0.
<mgrwt>
<rscale>  0 0.86835659E+03</rscale>
<asrwt>0</asrwt>
<pdfrwt beam="1">  1        2 0.58994621E-01 0.86835659E+03</pdfrwt>
<pdfrwt beam="2">  1       -2 0.36476834E+00 0.86835659E+03</pdfrwt>
<totfact> 0.10839425E+00</totfact>
</mgrwt>
</event>
<event>
 4    1  0.5410820E-008  0.3075930E+03  0.7818608E-02  0.1081505E+00
          2   -1    0    0  501    0  0.00000000000E+00  0.00000000000E+00  0.31250830593E+03  0.31250830594E+03  0.25500000000E-02 0. -1.
         -2   -1    0    0    0  501 -0.00000000000E+00 -0.00000000000E+00 -0.30525154243E+03  0.30525154244E+03  0.25500000000E-02 0.  1.
    8880022    1    1    2    0    0 -0.11570106973E+03 -0.24048925549E+03  0.31561829946E+02  0.30920805563E+03  0.15294330000E+03 0.  1.
    8880022    1    1    2    0    0  0.11570106973E+03  0.24048925549E+03 -0.24305066442E+02  0.30855179275E+03  0.15294330000E+03 0. -1.
<mgrwt>
<rscale>  0 0.30759303E+03</rscale>
<asrwt>0</asrwt>
<pdfrwt beam="1">  1        2 0.48078201E-01 0.30759303E+03</pdfrwt>
<pdfrwt beam="2">  1       -2 0.46961776E-01 0.30759303E+03</pdfrwt>
<totfact> 0.45722799E+02</totfact>
</mgrwt>
</event>
<event>
 4    1  0.5410820E-008  0.3641225E+03  0.7818608E-02  0.1056963E+00
         -2   -1    0    0    0  501 -0.00000000000E+00  0.00000000000E+00  0.41345538821E+03  0.41345538822E+03  0.25500000000E-02 0.  1.
          2   -1    0    0  501    0  0.00000000000E+00 -0.00000000000E+00 -0.32419390047E+03  0.32419390048E+03  0.25500000000E-02 0. -1.
    8880022    1    1    2    0    0 -0.31733672424E+03  0.92146200920E+02  0.62099373586E+01  0.36417541822E+03  0.15294330000E+03 0.  0.
    8880022    1    1    2    0    0  0.31733672424E+03 -0.92146200920E+02  0.83051550388E+02  0.37347387048E+03  0.15294330000E+03 0.  0.
<mgrwt>
<rscale>  0 0.36412247E+03</rscale>
<asrwt>0</asrwt>
<pdfrwt beam="1">  1        2 0.49875985E-01 0.36412247E+03</pdfrwt>
<pdfrwt beam="2">  1       -2 0.63608521E-01 0.36412247E+03</pdfrwt>
<totfact> 0.23562056E+02</totfact>
</mgrwt>
</event>
<event>
 4    1  0.5410820E-008  0.1906421E+03  0.7818608E-02  0.1157883E+00
          2   -1    0    0  501    0  0.00000000000E+00  0.00000000000E+00  0.13646601499E+04  0.13646601499E+04  0.25500000000E-02 0. -1.
         -2   -1    0    0    0  501 -0.00000000000E+00 -0.00000000000E+00 -0.30652236073E+02  0.30652236179E+02  0.25500000000E-02 0.  1.
    8880022    1    1    2    0    0  0.68431447841E+02  0.90938913415E+02  0.41436195226E+03  0.45611427244E+03  0.15294330000E+03 0.  0.
    8880022    1    1    2    0    0 -0.68431447841E+02 -0.90938913415E+02  0.91964596152E+03  0.93919811360E+03  0.15294330000E+03 0.  1.
<mgrwt>
<rscale>  0 0.19064208E+03</rscale>
<asrwt>0</asrwt>
<pdfrwt beam="1">  1        2 0.20994772E+00 0.19064208E+03</pdfrwt>
<pdfrwt beam="2">  1       -2 0.47157286E-02 0.19064208E+03</pdfrwt>
<totfact> 0.34445482E+03</totfact>
</mgrwt>
</event>
<event>
 4    1  0.5410820E-008  0.9740267E+03  0.7818608E-02  0.9337500E-01
         -2   -1    0    0    0  501 -0.00000000000E+00  0.00000000000E+00  0.17632367129E+04  0.17632367129E+04  0.25500000000E-02 0.  1.
          2   -1    0    0  501    0  0.00000000000E+00 -0.00000000000E+00 -0.24512920536E+04  0.24512920536E+04  0.25500000000E-02 0. -1.
    8880022    1    1    2    0    0 -0.95239784867E+03  0.13518421830E+03 -0.22057086497E+04  0.24111986097E+04  0.15294330000E+03 0.  0.
    8880022    1    1    2    0    0  0.95239784867E+03 -0.13518421830E+03  0.15176533090E+04  0.18033301568E+04  0.15294330000E+03 0.  0.
<mgrwt>
<rscale>  0 0.97402674E+03</rscale>
<asrwt>0</asrwt>
<pdfrwt beam="1">  1        2 0.37712185E+00 0.97402674E+03</pdfrwt>
<pdfrwt beam="2">  1       -2 0.27126719E+00 0.97402674E+03</pdfrwt>
<totfact> 0.18013234E-01</totfact>
</mgrwt>
</event>
<event>
 4    1  0.5410820E-008  0.2474102E+03  0.7818608E-02  0.1114953E+00
         -2   -1    0    0    0  501 -0.00000000000E+00  0.00000000000E+00  0.29535366867E+02  0.29535366977E+02  0.25500000000E-02 0.  1.
          2   -1    0    0  501    0  0.00000000000E+00 -0.00000000000E+00 -0.25354611974E+04  0.25354611974E+04  0.25500000000E-02 0. -1.
    8880022    1    1    2    0    0  0.18678562698E+03  0.54141242772E+02 -0.70493260454E+03  0.74708886659E+03  0.15294330000E+03 0.  0.
    8880022    1    1    2    0    0 -0.18678562698E+03 -0.54141242772E+02 -0.18009932260E+04  0.18179076978E+04  0.15294330000E+03 0.  0.
<mgrwt>
<rscale>  0 0.24741018E+03</rscale>
<asrwt>0</asrwt>
<pdfrwt beam="1">  1        2 0.39007078E+00 0.24741018E+03</pdfrwt>
<pdfrwt beam="2">  1       -2 0.45439046E-02 0.24741018E+03</pdfrwt>
<totfact> 0.87222946E+02</totfact>
</mgrwt>
</event>
<event>
 4    1  0.5410820E-008  0.1941658E+03  0.7818608E-02  0.1154757E+00
          2   -1    0    0  501    0  0.00000000000E+00  0.00000000000E+00  0.37284170820E+04  0.37284170820E+04  0.25500000000E-02 0. -1.
         -2   -1    0    0    0  501 -0.00000000000E+00 -0.00000000000E+00 -0.46441925612E+02  0.46441925682E+02  0.25500000000E-02 0.  1.
    8880022    1    1    2    0    0  0.30779373708E+02  0.11559127835E+03  0.17162717383E+03  0.25914523590E+03  0.15294330000E+03 0.  0.
    8880022    1    1    2    0    0 -0.30779373708E+02 -0.11559127835E+03  0.35103479825E+04  0.35157137717E+04  0.15294330000E+03 0. -1.
<mgrwt>
<rscale>  0 0.19416582E+03</rscale>
<asrwt>0</asrwt>
<pdfrwt beam="1">  1        2 0.57360279E+00 0.19416582E+03</pdfrwt>
<pdfrwt beam="2">  1       -2 0.71449096E-02 0.19416582E+03</pdfrwt>
<totfact> 0.83210070E+01</totfact>
</mgrwt>
</event>
<event>
 4    1  0.5410820E-008  0.6892875E+03  0.7818608E-02  0.9735729E-01
         -2   -1    0    0    0  501 -0.00000000000E+00  0.00000000000E+00  0.23323373006E+03  0.23323373008E+03  0.25500000000E-02 0.  1.
          2   -1    0    0  501    0  0.00000000000E+00 -0.00000000000E+00 -0.27581655343E+04  0.27581655343E+04  0.25500000000E-02 0. -1.
    8880022    1    1    2    0    0  0.33313674833E+03 -0.58373413346E+03 -0.20272267660E+04  0.21412065864E+04  0.15294330000E+03 0.  0.
    8880022    1    1    2    0    0 -0.33313674833E+03  0.58373413346E+03 -0.49770503823E+03  0.85019267801E+03  0.15294330000E+03 0.  0.
<mgrwt>
<rscale>  0 0.68928752E+03</rscale>
<asrwt>0</asrwt>
<pdfrwt beam="1">  1        2 0.42433313E+00 0.68928752E+03</pdfrwt>
<pdfrwt beam="2">  1       -2 0.35882114E-01 0.68928752E+03</pdfrwt>
<totfact> 0.19035638E+01</totfact>
</mgrwt>
</event>
<event>
 4    1  0.5410820E-008  0.5086683E+03  0.7818608E-02  0.1011541E+00
         -2   -1    0    0    0  501 -0.00000000000E+00  0.00000000000E+00  0.14120396221E+03  0.14120396224E+03  0.25500000000E-02 0.  1.
          2   -1    0    0  501    0  0.00000000000E+00 -0.00000000000E+00 -0.46640742877E+04  0.46640742877E+04  0.25500000000E-02 0. -1.
    8880022    1    1    2    0    0 -0.16114505379E+02 -0.48486300323E+03 -0.41335252608E+04  0.41647058172E+04  0.15294330000E+03 0. -1.
    8880022    1    1    2    0    0  0.16114505379E+02  0.48486300323E+03 -0.38934506472E+03  0.64057243277E+03  0.15294330000E+03 0.  0.
<mgrwt>
<rscale>  0 0.50866832E+03</rscale>
<asrwt>0</asrwt>
<pdfrwt beam="1">  1        2 0.71754977E+00 0.50866832E+03</pdfrwt>
<pdfrwt beam="2">  1       -2 0.21723690E-01 0.50866832E+03</pdfrwt>
<totfact> 0.19091830E+00</totfact>
</mgrwt>
</event>
<event>
 4    1  0.5410820E-008  0.1201788E+04  0.7818608E-02  0.9111293E-01
         -2   -1    0    0    0  501 -0.00000000000E+00  0.00000000000E+00  0.96837308033E+03  0.96837308034E+03  0.25500000000E-02 0.  1.
          2   -1    0    0  501    0  0.00000000000E+00 -0.00000000000E+00 -0.32205009562E+04  0.32205009562E+04  0.25500000000E-02 0. -1.
    8880022    1    1    2    0    0  0.11375804268E+04 -0.35610931470E+03 -0.26607077040E+04  0.29195308203E+04  0.15294330000E+03 0.  0.
    8880022    1    1    2    0    0 -0.11375804268E+04  0.35610931470E+03  0.40857982815E+03  0.12693432162E+04  0.15294330000E+03 0.  0.
<mgrwt>
<rscale>  0 0.12017881E+04</rscale>
<asrwt>0</asrwt>
<pdfrwt beam="1">  1        2 0.49546168E+00 0.12017881E+04</pdfrwt>
<pdfrwt beam="2">  1       -2 0.14898048E+00 0.12017881E+04</pdfrwt>
<totfact> 0.37926150E-01</totfact>
</mgrwt>
</event>
<event>
 4    1  0.5410820E-008  0.9494469E+03  0.7818608E-02  0.9365797E-01
          2   -1    0    0  501    0  0.00000000000E+00  0.00000000000E+00  0.22594014754E+04  0.22594014754E+04  0.25500000000E-02 0. -1.
         -2   -1    0    0    0  501 -0.00000000000E+00 -0.00000000000E+00 -0.57707172493E+03  0.57707172494E+03  0.25500000000E-02 0.  1.
    8880022    1    1    2    0    0 -0.15667128841E+03 -0.92385709887E+03  0.16290432451E+04  0.18855321209E+04  0.15294330000E+03 0.  0.
    8880022    1    1    2    0    0  0.15667128841E+03  0.92385709887E+03  0.53286505349E+02  0.95094107936E+03  0.15294330000E+03 0.  0.
<mgrwt>
<rscale>  0 0.94944694E+03</rscale>
<asrwt>0</asrwt>
<pdfrwt beam="1">  1        2 0.34760023E+00 0.94944694E+03</pdfrwt>
<pdfrwt beam="2">  1       -2 0.88780264E-01 0.94944694E+03</pdfrwt>
<totfact> 0.52753614E+00</totfact>
</mgrwt>
</event>
<event>
 4    1  0.5410820E-008  0.3758885E+03  0.7818608E-02  0.1052464E+00
          2   -1    0    0  501    0  0.00000000000E+00  0.00000000000E+00  0.92667817251E+03  0.92667817251E+03  0.25500000000E-02 0. -1.
         -2   -1    0    0    0  501 -0.00000000000E+00 -0.00000000000E+00 -0.74505683258E+03  0.74505683258E+03  0.25500000000E-02 0.  1.
    8880022    1    1    2    0    0 -0.27677113415E+03  0.20321966905E+03  0.83626001025E+03  0.91685492437E+03  0.15294330000E+03 0.  0.
    8880022    1    1    2    0    0  0.27677113415E+03 -0.20321966905E+03 -0.65463867032E+03  0.75488008073E+03  0.15294330000E+03 0.  0.
<mgrwt>
<rscale>  0 0.37588848E+03</rscale>
<asrwt>0</asrwt>
<pdfrwt beam="1">  1        2 0.14256587E+00 0.37588848E+03</pdfrwt>
<pdfrwt beam="2">  1       -2 0.11462413E+00 0.37588848E+03</pdfrwt>
<totfact> 0.17946442E+01</totfact>
</mgrwt>
</event>
<event>
 4    1  0.5410820E-008  0.5582242E+03  0.7818608E-02  0.9996081E-01
          2   -1    0    0  501    0  0.00000000000E+00  0.00000000000E+00  0.15383835466E+04  0.15383835466E+04  0.25500000000E-02 0. -1.
         -2   -1    0    0    0  501 -0.00000000000E+00 -0.00000000000E+00 -0.21984048472E+03  0.21984048473E+03  0.25500000000E-02 0.  1.
    8880022    1    1    2    0    0 -0.43498282977E+03  0.31466250173E+03  0.41279555402E+03  0.69427255068E+03  0.15294330000E+03 0.  0.
    8880022    1    1    2    0    0  0.43498282977E+03 -0.31466250173E+03  0.90574750790E+03  0.10639514807E+04  0.15294330000E+03 0.  0.
<mgrwt>
<rscale>  0 0.55822415E+03</rscale>
<asrwt>0</asrwt>
<pdfrwt beam="1">  1        2 0.23667440E+00 0.55822415E+03</pdfrwt>
<pdfrwt beam="2">  1       -2 0.33821612E-01 0.55822415E+03</pdfrwt>
<totfact> 0.10266791E+02</totfact>
</mgrwt>
</event>
<event>
 4    1  0.5410820E-008  0.9028832E+03  0.7818608E-02  0.9421984E-01
         -2   -1    0    0    0  501 -0.00000000000E+00  0.00000000000E+00  0.58774984440E+03  0.58774984441E+03  0.25500000000E-02 0.  1.
          2   -1    0    0  501    0  0.00000000000E+00 -0.00000000000E+00 -0.19295118987E+04  0.19295118987E+04  0.25500000000E-02 0. -1.
    8880022    1    1    2    0    0 -0.49123808628E+03  0.74195121472E+03 -0.34802333264E+01  0.90288993098E+03  0.15294330000E+03 0.  0.
    8880022    1    1    2    0    0  0.49123808628E+03 -0.74195121472E+03 -0.13382818210E+04  0.16143718121E+04  0.15294330000E+03 0.  0.
<mgrwt>
<rscale>  0 0.90288322E+03</rscale>
<asrwt>0</asrwt>
<pdfrwt beam="1">  1        2 0.29684798E+00 0.90288322E+03</pdfrwt>
<pdfrwt beam="2">  1       -2 0.90423054E-01 0.90288322E+03</pdfrwt>
<totfact> 0.77370055E+00</totfact>
</mgrwt>
</event>
<event>
 4    1  0.5410820E-008  0.1519683E+04  0.7818608E-02  0.8871468E-01
         -2   -1    0    0    0  501 -0.00000000000E+00  0.00000000000E+00  0.11882506654E+04  0.11882506654E+04  0.25500000000E-02 0.  1.
          2   -1    0    0  501    0  0.00000000000E+00 -0.00000000000E+00 -0.25869588819E+04  0.25869588819E+04  0.25500000000E-02 0. -1.
    8880022    1    1    2    0    0 -0.14717422573E+04 -0.34643906163E+03 -0.16407153583E+04  0.22363773911E+04  0.15294330000E+03 0.  0.
    8880022    1    1    2    0    0  0.14717422573E+04  0.34643906163E+03  0.24200714186E+03  0.15388321562E+04  0.15294330000E+03 0.  0.
<mgrwt>
<rscale>  0 0.15196832E+04</rscale>
<asrwt>0</asrwt>
<pdfrwt beam="1">  1        2 0.39799367E+00 0.15196832E+04</pdfrwt>
<pdfrwt beam="2">  1       -2 0.18280780E+00 0.15196832E+04</pdfrwt>
<totfact> 0.50458786E-01</totfact>
</mgrwt>
</event>
<event>
 4    1  0.5410820E-008  0.4339222E+03  0.7818608E-02  0.1032628E+00
          2   -1    0    0  501    0  0.00000000000E+00  0.00000000000E+00  0.36956407740E+04  0.36956407740E+04  0.25500000000E-02 0. -1.
         -2   -1    0    0    0  501 -0.00000000000E+00 -0.00000000000E+00 -0.10364505036E+03  0.10364505039E+03  0.25500000000E-02 0.  1.
    8880022    1    1    2    0    0 -0.17089136770E+03 -0.36836528563E+03  0.31505243668E+04  0.31802660710E+04  0.15294330000E+03 0. -1.
    8880022    1    1    2    0    0  0.17089136770E+03  0.36836528563E+03  0.44147135679E+03  0.61901975340E+03  0.15294330000E+03 0.  0.
<mgrwt>
<rscale>  0 0.43392222E+03</rscale>
<asrwt>0</asrwt>
<pdfrwt beam="1">  1        2 0.56856009E+00 0.43392222E+03</pdfrwt>
<pdfrwt beam="2">  1       -2 0.15945393E-01 0.43392222E+03</pdfrwt>
<totfact> 0.21722674E+01</totfact>
</mgrwt>
</event>
<event>
 4    1  0.5410820E-008  0.2915610E+03  0.7818608E-02  0.1089537E+00
          2   -1    0    0  501    0  0.00000000000E+00  0.00000000000E+00  0.33639488238E+04  0.33639488238E+04  0.25500000000E-02 0. -1.
         -2   -1    0    0    0  501 -0.00000000000E+00 -0.00000000000E+00 -0.78867183599E+02  0.78867183641E+02  0.25500000000E-02 0.  1.
    8880022    1    1    2    0    0  0.11977690009E+03  0.21741583006E+03  0.22346482178E+03  0.36734769435E+03  0.15294330000E+03 0.  0.
    8880022    1    1    2    0    0 -0.11977690009E+03 -0.21741583006E+03  0.30616168184E+04  0.30754683131E+04  0.15294330000E+03 0. -1.
<mgrwt>
<rscale>  0 0.29156097E+03</rscale>
<asrwt>0</asrwt>
<pdfrwt beam="1">  1        2 0.51753051E+00 0.29156097E+03</pdfrwt>
<pdfrwt beam="2">  1       -2 0.12133415E-01 0.29156097E+03</pdfrwt>
<totfact> 0.60097901E+01</totfact>
</mgrwt>
</event>
<event>
 4    1  0.5410820E-008  0.2797080E+03  0.7818608E-02  0.1095849E+00
         -2   -1    0    0    0  501 -0.00000000000E+00  0.00000000000E+00  0.18317823686E+03  0.18317823688E+03  0.25500000000E-02 0.  1.
          2   -1    0    0  501    0  0.00000000000E+00 -0.00000000000E+00 -0.16294856564E+04  0.16294856564E+04  0.25500000000E-02 0. -1.
    8880022    1    1    2    0    0 -0.14011042126E+02 -0.23377044972E+03 -0.15016970009E+04  0.15275242938E+04  0.15294330000E+03 0.  0.
    8880022    1    1    2    0    0  0.14011042126E+02  0.23377044972E+03  0.55389581389E+02  0.28513959950E+03  0.15294330000E+03 0.  1.
<mgrwt>
<rscale>  0 0.27970804E+03</rscale>
<asrwt>0</asrwt>
<pdfrwt beam="1">  1        2 0.25069009E+00 0.27970804E+03</pdfrwt>
<pdfrwt beam="2">  1       -2 0.28181268E-01 0.27970804E+03</pdfrwt>
<totfact> 0.13449507E+02</totfact>
</mgrwt>
</event>
<event>
 4    1  0.5410820E-008  0.6700217E+03  0.7818608E-02  0.9769919E-01
          2   -1    0    0  501    0  0.00000000000E+00  0.00000000000E+00  0.20566307282E+04  0.20566307282E+04  0.25500000000E-02 0. -1.
         -2   -1    0    0    0  501 -0.00000000000E+00 -0.00000000000E+00 -0.28293485610E+03  0.28293485611E+03  0.25500000000E-02 0.  1.
    8880022    1    1    2    0    0 -0.53219193185E+03 -0.37723891065E+03  0.32767012839E+03  0.74585307808E+03  0.15294330000E+03 0.  0.
    8880022    1    1    2    0    0  0.53219193185E+03  0.37723891065E+03  0.14460257437E+04  0.15937125063E+04  0.15294330000E+03 0.  0.
<mgrwt>
<rscale>  0 0.67002172E+03</rscale>
<asrwt>0</asrwt>
<pdfrwt beam="1">  1        2 0.31640472E+00 0.67002172E+03</pdfrwt>
<pdfrwt beam="2">  1       -2 0.43528441E-01 0.67002172E+03</pdfrwt>
<totfact> 0.32488894E+01</totfact>
</mgrwt>
</event>
<event>
 4    1  0.5410820E-008  0.9353708E+03  0.7818608E-02  0.9382415E-01
          2   -1    0    0  501    0  0.00000000000E+00  0.00000000000E+00  0.29114794515E+04  0.29114794515E+04  0.25500000000E-02 0. -1.
         -2   -1    0    0    0  501 -0.00000000000E+00 -0.00000000000E+00 -0.10125187000E+04  0.10125187000E+04  0.25500000000E-02 0.  1.
    8880022    1    1    2    0    0  0.61101837494E+03  0.69150807348E+03  0.25947648032E+04  0.27582100912E+04  0.15294330000E+03 0.  0.
    8880022    1    1    2    0    0 -0.61101837494E+03 -0.69150807348E+03 -0.69580405170E+03  0.11657880603E+04  0.15294330000E+03 0.  0.
<mgrwt>
<rscale>  0 0.93537079E+03</rscale>
<asrwt>0</asrwt>
<pdfrwt beam="1">  1        2 0.44791991E+00 0.93537079E+03</pdfrwt>
<pdfrwt beam="2">  1       -2 0.15577211E+00 0.93537079E+03</pdfrwt>
<totfact> 0.54952296E-01</totfact>
</mgrwt>
</event>
<event>
 4    1  0.5410820E-008  0.1105574E+04  0.7818608E-02  0.9199776E-01
         -2   -1    0    0    0  501 -0.00000000000E+00  0.00000000000E+00  0.80604879459E+03  0.80604879460E+03  0.25500000000E-02 0.  1.
          2   -1    0    0  501    0  0.00000000000E+00 -0.00000000000E+00 -0.20678023335E+04  0.20678023335E+04  0.25500000000E-02 0. -1.
    8880022    1    1    2    0    0 -0.78309827482E+03  0.76528417313E+03 -0.13728924219E+04  0.17627047481E+04  0.15294330000E+03 0. -1.
    8880022    1    1    2    0    0  0.78309827482E+03 -0.76528417313E+03  0.11113888296E+03  0.11111463801E+04  0.15294330000E+03 0.  0.
<mgrwt>
<rscale>  0 0.11055743E+04</rscale>
<asrwt>0</asrwt>
<pdfrwt beam="1">  1        2 0.31812343E+00 0.11055743E+04</pdfrwt>
<pdfrwt beam="2">  1       -2 0.12400751E+00 0.11055743E+04</pdfrwt>
<totfact> 0.29560890E+00</totfact>
</mgrwt>
</event>
<event>
 4    1  0.5410820E-008  0.9709880E+03  0.7818608E-02  0.9340950E-01
         -2   -1    0    0    0  501 -0.00000000000E+00  0.00000000000E+00  0.11801434941E+04  0.11801434941E+04  0.25500000000E-02 0.  1.
          2   -1    0    0  501    0  0.00000000000E+00 -0.00000000000E+00 -0.89010529281E+03  0.89010529281E+03  0.25500000000E-02 0. -1.
    8880022    1    1    2    0    0 -0.73516009081E+03 -0.61560182950E+03 -0.18632548691E+03  0.98870360153E+03  0.15294330000E+03 0.  0.
    8880022    1    1    2    0    0  0.73516009081E+03  0.61560182950E+03  0.47636368822E+03  0.10815451854E+04  0.15294330000E+03 0.  0.
<mgrwt>
<rscale>  0 0.97098796E+03</rscale>
<asrwt>0</asrwt>
<pdfrwt beam="1">  1        2 0.13693928E+00 0.97098796E+03</pdfrwt>
<pdfrwt beam="2">  1       -2 0.18156054E+00 0.97098796E+03</pdfrwt>
<totfact> 0.52388739E+00</totfact>
</mgrwt>
</event>
<event>
 4    1  0.5410820E-008  0.6393370E+03  0.7818608E-02  0.9826996E-01
          2   -1    0    0  501    0  0.00000000000E+00  0.00000000000E+00  0.99307884010E+03  0.99307884010E+03  0.25500000000E-02 0. -1.
         -2   -1    0    0    0  501 -0.00000000000E+00 -0.00000000000E+00 -0.67614930296E+03  0.67614930296E+03  0.25500000000E-02 0.  1.
    8880022    1    1    2    0    0 -0.54381182518E+03 -0.29938080598E+03 -0.36359140928E+03  0.73549339501E+03  0.15294330000E+03 0.  0.
    8880022    1    1    2    0    0  0.54381182518E+03  0.29938080598E+03  0.68052094642E+03  0.93373474805E+03  0.15294330000E+03 0.  0.
<mgrwt>
<rscale>  0 0.63933702E+03</rscale>
<asrwt>0</asrwt>
<pdfrwt beam="1">  1        2 0.15278136E+00 0.63933702E+03</pdfrwt>
<pdfrwt beam="2">  1       -2 0.10402297E+00 0.63933702E+03</pdfrwt>
<totfact> 0.19692999E+01</totfact>
</mgrwt>
</event>
<event>
 4    1  0.5410820E-008  0.2757003E+03  0.7818608E-02  0.1098061E+00
         -2   -1    0    0    0  501 -0.00000000000E+00  0.00000000000E+00  0.17970630116E+03  0.17970630118E+03  0.25500000000E-02 0.  1.
          2   -1    0    0  501    0  0.00000000000E+00 -0.00000000000E+00 -0.79147432200E+03  0.79147432200E+03  0.25500000000E-02 0. -1.
    8880022    1    1    2    0    0  0.22729983604E+03 -0.30883300902E+02 -0.63722258354E+03  0.69430776153E+03  0.15294330000E+03 0. -1.
    8880022    1    1    2    0    0 -0.22729983604E+03  0.30883300902E+02  0.25454562698E+02  0.27687286164E+03  0.15294330000E+03 0.  0.
<mgrwt>
<rscale>  0 0.27570028E+03</rscale>
<asrwt>0</asrwt>
<pdfrwt beam="1">  1        2 0.12176528E+00 0.27570028E+03</pdfrwt>
<pdfrwt beam="2">  1       -2 0.27647124E-01 0.27570028E+03</pdfrwt>
<totfact> 0.42932575E+02</totfact>
</mgrwt>
</event>
<event>
 4    1  0.5410820E-008  0.7652180E+03  0.7818608E-02  0.9611774E-01
         -2   -1    0    0    0  501 -0.00000000000E+00  0.00000000000E+00  0.85552178972E+03  0.85552178972E+03  0.25500000000E-02 0.  1.
          2   -1    0    0  501    0  0.00000000000E+00 -0.00000000000E+00 -0.13360283521E+04  0.13360283521E+04  0.25500000000E-02 0. -1.
    8880022    1    1    2    0    0  0.61667198089E+03 -0.42647696735E+03 -0.10054942058E+04  0.12635573539E+04  0.15294330000E+03 0.  0.
    8880022    1    1    2    0    0 -0.61667198089E+03  0.42647696735E+03  0.52498764341E+03  0.92799278793E+03  0.15294330000E+03 0.  0.
<mgrwt>
<rscale>  0 0.76521800E+03</rscale>
<asrwt>0</asrwt>
<pdfrwt beam="1">  1        2 0.20554282E+00 0.76521800E+03</pdfrwt>
<pdfrwt beam="2">  1       -2 0.13161874E+00 0.76521800E+03</pdfrwt>
<totfact> 0.67648232E+00</totfact>
</mgrwt>
</event>
<event>
 4    1  0.5410820E-008  0.1162964E+04  0.7818608E-02  0.9145906E-01
          2   -1    0    0  501    0  0.00000000000E+00  0.00000000000E+00  0.22732817718E+04  0.22732817718E+04  0.25500000000E-02 0. -1.
         -2   -1    0    0    0  501 -0.00000000000E+00 -0.00000000000E+00 -0.10086577791E+04  0.10086577791E+04  0.25500000000E-02 0.  1.
    8880022    1    1    2    0    0 -0.11266900628E+04 -0.24426241683E+03  0.16832476607E+04  0.20459249659E+04  0.15294330000E+03 0.  0.
    8880022    1    1    2    0    0  0.11266900628E+04  0.24426241683E+03 -0.41862366795E+03  0.12360145850E+04  0.15294330000E+03 0.  0.
<mgrwt>
<rscale>  0 0.11629644E+04</rscale>
<asrwt>0</asrwt>
<pdfrwt beam="1">  1        2 0.34973566E+00 0.11629644E+04</pdfrwt>
<pdfrwt beam="2">  1       -2 0.15517812E+00 0.11629644E+04</pdfrwt>
<totfact> 0.12585151E+00</totfact>
</mgrwt>
</event>
<event>
 4    1  0.5410820E-008  0.1090849E+04  0.7818608E-02  0.9214157E-01
          2   -1    0    0  501    0  0.00000000000E+00  0.00000000000E+00  0.15755629342E+04  0.15755629342E+04  0.25500000000E-02 0. -1.
         -2   -1    0    0    0  501 -0.00000000000E+00 -0.00000000000E+00 -0.13394259827E+04  0.13394259827E+04  0.25500000000E-02 0.  1.
    8880022    1    1    2    0    0 -0.10648836263E+04  0.18050869000E+03  0.10806055137E+04  0.15354675034E+04  0.15294330000E+03 0.  0.
    8880022    1    1    2    0    0  0.10648836263E+04 -0.18050869000E+03 -0.84446856228E+03  0.13795214135E+04  0.15294330000E+03 0.  0.
<mgrwt>
<rscale>  0 0.10908493E+04</rscale>
<asrwt>0</asrwt>
<pdfrwt beam="1">  1        2 0.24239430E+00 0.10908493E+04</pdfrwt>
<pdfrwt beam="2">  1       -2 0.20606553E+00 0.10908493E+04</pdfrwt>
<totfact> 0.13732438E+00</totfact>
</mgrwt>
</event>
<event>
 4    1  0.5410820E-008  0.5607661E+03  0.7818608E-02  0.9990323E-01
         -2   -1    0    0    0  501 -0.00000000000E+00  0.00000000000E+00  0.14939978595E+04  0.14939978596E+04  0.25500000000E-02 0.  1.
          2   -1    0    0  501    0  0.00000000000E+00 -0.00000000000E+00 -0.39262570508E+03  0.39262570509E+03  0.25500000000E-02 0. -1.
    8880022    1    1    2    0    0 -0.44064465648E+03  0.31128651200E+03  0.11931870277E+04  0.13183906636E+04  0.15294330000E+03 0.  0.
    8880022    1    1    2    0    0  0.44064465648E+03 -0.31128651200E+03 -0.91814873242E+02  0.56823290101E+03  0.15294330000E+03 0.  0.
<mgrwt>
<rscale>  0 0.56076614E+03</rscale>
<asrwt>0</asrwt>
<pdfrwt beam="1">  1        2 0.60403955E-01 0.56076614E+03</pdfrwt>
<pdfrwt beam="2">  1       -2 0.22984582E+00 0.56076614E+03</pdfrwt>
<totfact> 0.73053590E+00</totfact>
</mgrwt>
</event>
<event>
 4    1  0.5410820E-008  0.7286008E+03  0.7818608E-02  0.9669534E-01
         -2   -1    0    0    0  501 -0.00000000000E+00  0.00000000000E+00  0.15665591828E+04  0.15665591828E+04  0.25500000000E-02 0.  1.
          2   -1    0    0  501    0  0.00000000000E+00 -0.00000000000E+00 -0.48941575722E+03  0.48941575722E+03  0.25500000000E-02 0. -1.
    8880022    1    1    2    0    0 -0.70652570294E+03  0.91043354877E+02  0.11087147701E+04  0.13266904522E+04  0.15294330000E+03 0.  0.
    8880022    1    1    2    0    0  0.70652570294E+03 -0.91043354877E+02 -0.31571344568E+02  0.72928448783E+03  0.15294330000E+03 0.  0.
<mgrwt>
<rscale>  0 0.72860079E+03</rscale>
<asrwt>0</asrwt>
<pdfrwt beam="1">  1        2 0.75294730E-01 0.72860079E+03</pdfrwt>
<pdfrwt beam="2">  1       -2 0.24100911E+00 0.72860079E+03</pdfrwt>
<totfact> 0.47476896E+00</totfact>
</mgrwt>
</event>
<event>
 4    1  0.5410820E-008  0.1869216E+03  0.7818608E-02  0.1161267E+00
          2   -1    0    0  501    0  0.00000000000E+00  0.00000000000E+00  0.39598409214E+03  0.39598409215E+03  0.25500000000E-02 0. -1.
         -2   -1    0    0    0  501 -0.00000000000E+00 -0.00000000000E+00 -0.39672201121E+03  0.39672201122E+03  0.25500000000E-02 0.  1.
    8880022    1    1    2    0    0  0.65108567956E+01  0.10726441796E+03  0.34913928310E+03  0.39602769933E+03  0.15294330000E+03 0.  0.
    8880022    1    1    2    0    0 -0.65108567956E+01 -0.10726441796E+03 -0.34987720217E+03  0.39667840404E+03  0.15294330000E+03 0.  0.
<mgrwt>
<rscale>  0 0.18692164E+03</rscale>
<asrwt>0</asrwt>
<pdfrwt beam="1">  1        2 0.60920629E-01 0.18692164E+03</pdfrwt>
<pdfrwt beam="2">  1       -2 0.61034156E-01 0.18692164E+03</pdfrwt>
<totfact> 0.20914451E+02</totfact>
</mgrwt>
</event>
<event>
 4    1  0.5410820E-008  0.2997871E+03  0.7818608E-02  0.1085347E+00
         -2   -1    0    0    0  501 -0.00000000000E+00  0.00000000000E+00  0.83186188485E+02  0.83186188524E+02  0.25500000000E-02 0.  1.
          2   -1    0    0  501    0  0.00000000000E+00 -0.00000000000E+00 -0.22217947472E+04  0.22217947472E+04  0.25500000000E-02 0. -1.
    8880022    1    1    2    0    0 -0.16251726466E+03  0.20017191959E+03 -0.24325113446E+03  0.38606142793E+03  0.15294330000E+03 0.  1.
    8880022    1    1    2    0    0  0.16251726466E+03 -0.20017191959E+03 -0.18953574242E+04  0.19189195078E+04  0.15294330000E+03 0.  0.
<mgrwt>
<rscale>  0 0.29978711E+03</rscale>
<asrwt>0</asrwt>
<pdfrwt beam="1">  1        2 0.34181453E+00 0.29978711E+03</pdfrwt>
<pdfrwt beam="2">  1       -2 0.12797877E-01 0.29978711E+03</pdfrwt>
<totfact> 0.25147653E+02</totfact>
</mgrwt>
</event>
<event>
 4    1  0.5410820E-008  0.4603328E+03  0.7818608E-02  0.1024685E+00
          2   -1    0    0  501    0  0.00000000000E+00  0.00000000000E+00  0.15660031204E+04  0.15660031204E+04  0.25500000000E-02 0. -1.
         -2   -1    0    0    0  501 -0.00000000000E+00 -0.00000000000E+00 -0.59097961319E+03  0.59097961319E+03  0.25500000000E-02 0.  1.
    8880022    1    1    2    0    0 -0.18112060281E+03 -0.39460097065E+03  0.14345168185E+04  0.15065672087E+04  0.15294330000E+03 0.  0.
    8880022    1    1    2    0    0  0.18112060281E+03  0.39460097065E+03 -0.45949331132E+03  0.65041552485E+03  0.15294330000E+03 0.  0.
<mgrwt>
<rscale>  0 0.46033276E+03</rscale>
<asrwt>0</asrwt>
<pdfrwt beam="1">  1        2 0.24092356E+00 0.46033276E+03</pdfrwt>
<pdfrwt beam="2">  1       -2 0.90919941E-01 0.46033276E+03</pdfrwt>
<totfact> 0.12962912E+01</totfact>
</mgrwt>
</event>
<event>
 4    1  0.8318092E-008  0.9376156E+03  0.7818608E-02  0.9379744E-01
          2   -1    0    0  501    0  0.00000000000E+00  0.00000000000E+00  0.15392335654E+04  0.15392335654E+04  0.25500000000E-02 0. -1.
         -2   -1    0    0    0  501 -0.00000000000E+00 -0.00000000000E+00 -0.15946915401E+04  0.15946915401E+04  0.25500000000E-02 0.  1.
    8880022    1    1    2    0    0 -0.15842426987E+03  0.91139080306E+03  0.12276487092E+04  0.15447473746E+04  0.15294330000E+03 0.  0.
    8880022    1    1    2    0    0  0.15842426987E+03 -0.91139080306E+03 -0.12831066839E+04  0.15891777309E+04  0.15294330000E+03 0.  0.
<mgrwt>
<rscale>  0 0.93761565E+03</rscale>
<asrwt>0</asrwt>
<pdfrwt beam="1">  1        2 0.23680516E+00 0.93761565E+03</pdfrwt>
<pdfrwt beam="2">  1       -2 0.24533716E+00 0.93761565E+03</pdfrwt>
<totfact> 0.83454247E-01</totfact>
</mgrwt>
</event>
<event>
 4    1  0.5410820E-008  0.4367682E+03  0.7818608E-02  0.1031743E+00
         -2   -1    0    0    0  501 -0.00000000000E+00  0.00000000000E+00  0.21361000845E+03  0.21361000847E+03  0.25500000000E-02 0.  1.
          2   -1    0    0  501    0  0.00000000000E+00 -0.00000000000E+00 -0.15517615170E+04  0.15517615170E+04  0.25500000000E-02 0. -1.
    8880022    1    1    2    0    0  0.40479016778E+03 -0.59327277028E+02 -0.93982713663E+02  0.44676527306E+03  0.15294330000E+03 0.  0.
    8880022    1    1    2    0    0 -0.40479016778E+03  0.59327277028E+02 -0.12441687949E+04  0.13186062524E+04  0.15294330000E+03 0.  0.
<mgrwt>
<rscale>  0 0.43676820E+03</rscale>
<asrwt>0</asrwt>
<pdfrwt beam="1">  1        2 0.23873253E+00 0.43676820E+03</pdfrwt>
<pdfrwt beam="2">  1       -2 0.32863079E-01 0.43676820E+03</pdfrwt>
<totfact> 0.10835142E+02</totfact>
</mgrwt>
</event>
<event>
 4    1  0.5410820E-008  0.6453226E+03  0.7818608E-02  0.9815596E-01
          2   -1    0    0  501    0  0.00000000000E+00  0.00000000000E+00  0.29660069732E+04  0.29660069732E+04  0.25500000000E-02 0. -1.
         -2   -1    0    0    0  501 -0.00000000000E+00 -0.00000000000E+00 -0.23123843060E+03  0.23123843061E+03  0.25500000000E-02 0.  1.
    8880022    1    1    2    0    0 -0.44733348314E+03  0.43925204355E+03  0.23693193829E+04  0.24556293682E+04  0.15294330000E+03 0.  0.
    8880022    1    1    2    0    0  0.44733348314E+03 -0.43925204355E+03  0.36544915972E+03  0.74161603560E+03  0.15294330000E+03 0.  0.
<mgrwt>
<rscale>  0 0.64532260E+03</rscale>
<asrwt>0</asrwt>
<pdfrwt beam="1">  1        2 0.45630874E+00 0.64532260E+03</pdfrwt>
<pdfrwt beam="2">  1       -2 0.35575145E-01 0.64532260E+03</pdfrwt>
<totfact> 0.14674810E+01</totfact>
</mgrwt>
</event>
<event>
 4    1  0.5410820E-008  0.7880841E+03  0.7818608E-02  0.9577427E-01
         -2   -1    0    0    0  501 -0.00000000000E+00  0.00000000000E+00  0.18158008963E+04  0.18158008963E+04  0.25500000000E-02 0.  1.
          2   -1    0    0  501    0  0.00000000000E+00 -0.00000000000E+00 -0.74531710949E+03  0.74531710950E+03  0.25500000000E-02 0. -1.
    8880022    1    1    2    0    0  0.40680930395E+03  0.65741240535E+03  0.14771983679E+04  0.16742734399E+04  0.15294330000E+03 0.  0.
    8880022    1    1    2    0    0 -0.40680930395E+03 -0.65741240535E+03 -0.40671458111E+03  0.88684456586E+03  0.15294330000E+03 0.  0.
<mgrwt>
<rscale>  0 0.78808409E+03</rscale>
<asrwt>0</asrwt>
<pdfrwt beam="1">  1        2 0.11466417E+00 0.78808409E+03</pdfrwt>
<pdfrwt beam="2">  1       -2 0.27935398E+00 0.78808409E+03</pdfrwt>
<totfact> 0.16578532E+00</totfact>
</mgrwt>
</event>
<event>
 4    1  0.5410820E-008  0.3197247E+03  0.7818608E-02  0.1075776E+00
         -2   -1    0    0    0  501 -0.00000000000E+00  0.00000000000E+00  0.45347467992E+03  0.45347467993E+03  0.25500000000E-02 0.  1.
          2   -1    0    0  501    0  0.00000000000E+00 -0.00000000000E+00 -0.49927015645E+03  0.49927015646E+03  0.25500000000E-02 0. -1.
    8880022    1    1    2    0    0  0.28047453641E+03 -0.12894524358E+02 -0.37570089281E+03  0.49333056687E+03  0.15294330000E+03 0. -1.
    8880022    1    1    2    0    0 -0.28047453641E+03  0.12894524358E+02  0.32990541628E+03  0.45941426952E+03  0.15294330000E+03 0.  0.
<mgrwt>
<rscale>  0 0.31972471E+03</rscale>
<asrwt>0</asrwt>
<pdfrwt beam="1">  1        2 0.76810793E-01 0.31972471E+03</pdfrwt>
<pdfrwt beam="2">  1       -2 0.69765335E-01 0.31972471E+03</pdfrwt>
<totfact> 0.12040485E+02</totfact>
</mgrwt>
</event>
<event>
 4    1  0.5410820E-008  0.1388509E+04  0.7818608E-02  0.8962178E-01
         -2   -1    0    0    0  501 -0.00000000000E+00  0.00000000000E+00  0.19993686982E+04  0.19993686982E+04  0.25500000000E-02 0.  1.
          2   -1    0    0  501    0  0.00000000000E+00 -0.00000000000E+00 -0.12005138009E+04  0.12005138009E+04  0.25500000000E-02 0. -1.
    8880022    1    1    2    0    0  0.13522373826E+04 -0.27571733106E+03  0.11091498900E+04  0.17771243955E+04  0.15294330000E+03 0.  0.
    8880022    1    1    2    0    0 -0.13522373826E+04  0.27571733106E+03 -0.31029499280E+03  0.14227581035E+04  0.15294330000E+03 0.  0.
<mgrwt>
<rscale>  0 0.13885091E+04</rscale>
<asrwt>0</asrwt>
<pdfrwt beam="1">  1        2 0.18469443E+00 0.13885091E+04</pdfrwt>
<pdfrwt beam="2">  1       -2 0.30759518E+00 0.13885091E+04</pdfrwt>
<totfact> 0.51654451E-01</totfact>
</mgrwt>
</event>
<event>
 4    1  0.5410820E-008  0.4753444E+03  0.7818608E-02  0.1020423E+00
         -2   -1    0    0    0  501 -0.00000000000E+00  0.00000000000E+00  0.14636997586E+03  0.14636997589E+03  0.25500000000E-02 0.  1.
          2   -1    0    0  501    0  0.00000000000E+00 -0.00000000000E+00 -0.29492933843E+04  0.29492933843E+04  0.25500000000E-02 0. -1.
    8880022    1    1    2    0    0  0.79000968397E+02  0.44307955536E+03 -0.24700085703E+04  0.25153319137E+04  0.15294330000E+03 0.  0.
    8880022    1    1    2    0    0 -0.79000968397E+02 -0.44307955536E+03 -0.33291483813E+03  0.58033144655E+03  0.15294330000E+03 0.  0.
<mgrwt>
<rscale>  0 0.47534440E+03</rscale>
<asrwt>0</asrwt>
<pdfrwt beam="1">  1        2 0.45373740E+00 0.47534440E+03</pdfrwt>
<pdfrwt beam="2">  1       -2 0.22518460E-01 0.47534440E+03</pdfrwt>
<totfact> 0.36028764E+01</totfact>
</mgrwt>
</event>
<event>
 4    1  0.5410820E-008  0.4924401E+03  0.7818608E-02  0.1015771E+00
         -2   -1    0    0    0  501 -0.00000000000E+00  0.00000000000E+00  0.31375798867E+03  0.31375798868E+03  0.25500000000E-02 0.  1.
          2   -1    0    0  501    0  0.00000000000E+00 -0.00000000000E+00 -0.18571422800E+04  0.18571422800E+04  0.25500000000E-02 0. -1.
    8880022    1    1    2    0    0 -0.19879126765E+03 -0.42377778284E+03 -0.16010739264E+04  0.16750925193E+04  0.15294330000E+03 0.  0.
    8880022    1    1    2    0    0  0.19879126765E+03  0.42377778284E+03  0.57689635105E+02  0.49580774937E+03  0.15294330000E+03 0.  1.
<mgrwt>
<rscale>  0 0.49244008E+03</rscale>
<asrwt>0</asrwt>
<pdfrwt beam="1">  1        2 0.28571419E+00 0.49244008E+03</pdfrwt>
<pdfrwt beam="2">  1       -2 0.48270461E-01 0.49244008E+03</pdfrwt>
<totfact> 0.34909197E+01</totfact>
</mgrwt>
</event>
<event>
 4    1  0.5410820E-008  0.5370174E+03  0.7818608E-02  0.1004544E+00
         -2   -1    0    0    0  501 -0.00000000000E+00  0.00000000000E+00  0.27720741876E+03  0.27720741877E+03  0.25500000000E-02 0.  1.
          2   -1    0    0  501    0  0.00000000000E+00 -0.00000000000E+00 -0.14223645806E+04  0.14223645806E+04  0.25500000000E-02 0. -1.
    8880022    1    1    2    0    0 -0.14548229069E+03 -0.49379235082E+03 -0.13217125009E+03  0.55304328493E+03  0.15294330000E+03 0.  0.
    8880022    1    1    2    0    0  0.14548229069E+03  0.49379235082E+03 -0.10129859118E+04  0.11465287145E+04  0.15294330000E+03 0.  0.
<mgrwt>
<rscale>  0 0.53701735E+03</rscale>
<asrwt>0</asrwt>
<pdfrwt beam="1">  1        2 0.21882532E+00 0.53701735E+03</pdfrwt>
<pdfrwt beam="2">  1       -2 0.42647296E-01 0.53701735E+03</pdfrwt>
<totfact> 0.76397006E+01</totfact>
</mgrwt>
</event>
<event>
 4    1  0.5410820E-008  0.4073963E+03  0.7818608E-02  0.1041248E+00
          2   -1    0    0  501    0  0.00000000000E+00  0.00000000000E+00  0.13529538169E+04  0.13529538169E+04  0.25500000000E-02 0. -1.
         -2   -1    0    0    0  501 -0.00000000000E+00 -0.00000000000E+00 -0.20470025316E+03  0.20470025317E+03  0.25500000000E-02 0.  1.
    8880022    1    1    2    0    0  0.36801095774E+03  0.84546180436E+02  0.10671407325E+04  0.11422614051E+04  0.15294330000E+03 0.  0.
    8880022    1    1    2    0    0 -0.36801095774E+03 -0.84546180436E+02  0.81112831171E+02  0.41539266489E+03  0.15294330000E+03 0.  0.
<mgrwt>
<rscale>  0 0.40739634E+03</rscale>
<asrwt>0</asrwt>
<pdfrwt beam="1">  1        2 0.20814674E+00 0.40739634E+03</pdfrwt>
<pdfrwt beam="2">  1       -2 0.31492347E-01 0.40739634E+03</pdfrwt>
<totfact> 0.15149678E+02</totfact>
</mgrwt>
</event>
<event>
 4    1  0.5410820E-008  0.8102191E+03  0.7818608E-02  0.9545342E-01
          2   -1    0    0  501    0  0.00000000000E+00  0.00000000000E+00  0.11204169266E+04  0.11204169266E+04  0.25500000000E-02 0. -1.
         -2   -1    0    0    0  501 -0.00000000000E+00 -0.00000000000E+00 -0.66350306346E+03  0.66350306346E+03  0.25500000000E-02 0.  1.
    8880022    1    1    2    0    0 -0.79561973575E+03  0.72513176264E+01  0.53349675929E+03  0.97008957870E+03  0.15294330000E+03 0.  0.
    8880022    1    1    2    0    0  0.79561973575E+03 -0.72513176264E+01 -0.76582896114E+02  0.81383041140E+03  0.15294330000E+03 0.  0.
<mgrwt>
<rscale>  0 0.81021911E+03</rscale>
<asrwt>0</asrwt>
<pdfrwt beam="1">  1        2 0.17237183E+00 0.81021911E+03</pdfrwt>
<pdfrwt beam="2">  1       -2 0.10207740E+00 0.81021911E+03</pdfrwt>
<totfact> 0.16838916E+01</totfact>
</mgrwt>
</event>
<event>
 4    1  0.5410820E-008  0.2496395E+03  0.7818608E-02  0.1113533E+00
         -2   -1    0    0    0  501 -0.00000000000E+00  0.00000000000E+00  0.82145103154E+02  0.82145103193E+02  0.25500000000E-02 0.  1.
          2   -1    0    0  501    0  0.00000000000E+00 -0.00000000000E+00 -0.13453892149E+04  0.13453892149E+04  0.25500000000E-02 0. -1.
    8880022    1    1    2    0    0 -0.52664222431E+02 -0.19014390933E+03 -0.11029822555E+04  0.11308800712E+04  0.15294330000E+03 0.  0.
    8880022    1    1    2    0    0  0.52664222431E+02  0.19014390933E+03 -0.16026185621E+03  0.29665424681E+03  0.15294330000E+03 0.  1.
<mgrwt>
<rscale>  0 0.24963950E+03</rscale>
<asrwt>0</asrwt>
<pdfrwt beam="1">  1        2 0.20698294E+00 0.24963950E+03</pdfrwt>
<pdfrwt beam="2">  1       -2 0.12637709E-01 0.24963950E+03</pdfrwt>
<totfact> 0.75596799E+02</totfact>
</mgrwt>
</event>
<event>
 4    1  0.5410820E-008  0.3938058E+03  0.7818608E-02  0.1045946E+00
         -2   -1    0    0    0  501 -0.00000000000E+00  0.00000000000E+00  0.12175326145E+03  0.12175326147E+03  0.25500000000E-02 0.  1.
          2   -1    0    0  501    0  0.00000000000E+00 -0.00000000000E+00 -0.23290942706E+04  0.23290942706E+04  0.25500000000E-02 0. -1.
    8880022    1    1    2    0    0 -0.24382362083E+03 -0.26877766154E+03 -0.27879171165E+03  0.48250166934E+03  0.15294330000E+03 0.  0.
    8880022    1    1    2    0    0  0.24382362083E+03  0.26877766154E+03 -0.19285492975E+04  0.19683458628E+04  0.15294330000E+03 0.  0.
<mgrwt>
<rscale>  0 0.39380584E+03</rscale>
<asrwt>0</asrwt>
<pdfrwt beam="1">  1        2 0.35832216E+00 0.39380584E+03</pdfrwt>
<pdfrwt beam="2">  1       -2 0.18731273E-01 0.39380584E+03</pdfrwt>
<totfact> 0.11394115E+02</totfact>
</mgrwt>
</event>
<event>
 4    1  0.5410820E-008  0.4967241E+03  0.7818608E-02  0.1014638E+00
          2   -1    0    0  501    0  0.00000000000E+00  0.00000000000E+00  0.21651392436E+04  0.21651392436E+04  0.25500000000E-02 0. -1.
         -2   -1    0    0    0  501 -0.00000000000E+00 -0.00000000000E+00 -0.17441082809E+03  0.17441082811E+03  0.25500000000E-02 0.  1.
    8880022    1    1    2    0    0  0.21841732808E+03 -0.41909070864E+03  0.16840548151E+04  0.17557834219E+04  0.15294330000E+03 0.  0.
    8880022    1    1    2    0    0 -0.21841732808E+03  0.41909070864E+03  0.30667360045E+03  0.58376664988E+03  0.15294330000E+03 0.  0.
<mgrwt>
<rscale>  0 0.49672407E+03</rscale>
<asrwt>0</asrwt>
<pdfrwt beam="1">  1        2 0.33309832E+00 0.49672407E+03</pdfrwt>
<pdfrwt beam="2">  1       -2 0.26832437E-01 0.49672407E+03</pdfrwt>
<totfact> 0.72800571E+01</totfact>
</mgrwt>
</event>
<event>
 4    1  0.5410820E-008  0.5546438E+03  0.7818608E-02  0.1000425E+00
          2   -1    0    0  501    0  0.00000000000E+00  0.00000000000E+00  0.21017107894E+04  0.21017107894E+04  0.25500000000E-02 0. -1.
         -2   -1    0    0    0  501 -0.00000000000E+00 -0.00000000000E+00 -0.17814023208E+03  0.17814023210E+03  0.25500000000E-02 0.  1.
    8880022    1    1    2    0    0  0.22463285597E+03 -0.48350608040E+03  0.48039402247E+03  0.73376298599E+03  0.15294330000E+03 0.  0.
    8880022    1    1    2    0    0 -0.22463285597E+03  0.48350608040E+03  0.14431765348E+04  0.15460880355E+04  0.15294330000E+03 0.  1.
<mgrwt>
<rscale>  0 0.55464376E+03</rscale>
<asrwt>0</asrwt>
<pdfrwt beam="1">  1        2 0.32334014E+00 0.55464376E+03</pdfrwt>
<pdfrwt beam="2">  1       -2 0.27406188E-01 0.55464376E+03</pdfrwt>
<totfact> 0.75108523E+01</totfact>
</mgrwt>
</event>
<event>
 4    1  0.5410820E-008  0.2939025E+03  0.7818608E-02  0.1088329E+00
          2   -1    0    0  501    0  0.00000000000E+00  0.00000000000E+00  0.10933797328E+04  0.10933797328E+04  0.25500000000E-02 0. -1.
         -2   -1    0    0    0  501 -0.00000000000E+00 -0.00000000000E+00 -0.20677863060E+03  0.20677863062E+03  0.25500000000E-02 0.  1.
    8880022    1    1    2    0    0 -0.18460925194E+03 -0.17001905449E+03 -0.67721792698E+02  0.30160396054E+03  0.15294330000E+03 0.  0.
    8880022    1    1    2    0    0  0.18460925194E+03  0.17001905449E+03  0.95432289490E+03  0.99855440290E+03  0.15294330000E+03 0.  0.
<mgrwt>
<rscale>  0 0.29390255E+03</rscale>
<asrwt>0</asrwt>
<pdfrwt beam="1">  1        2 0.16821226E+00 0.29390255E+03</pdfrwt>
<pdfrwt beam="2">  1       -2 0.31812098E-01 0.29390255E+03</pdfrwt>
<totfact> 0.21289575E+02</totfact>
</mgrwt>
</event>
<event>
 4    1  0.5410820E-008  0.2349590E+03  0.7818608E-02  0.1123197E+00
         -2   -1    0    0    0  501 -0.00000000000E+00  0.00000000000E+00  0.11542543501E+03  0.11542543504E+03  0.25500000000E-02 0.  1.
          2   -1    0    0  501    0  0.00000000000E+00 -0.00000000000E+00 -0.12080522899E+04  0.12080522899E+04  0.25500000000E-02 0. -1.
    8880022    1    1    2    0    0  0.12284060170E+03 -0.12932237441E+03 -0.31988837370E+02  0.23712660897E+03  0.15294330000E+03 0.  1.
    8880022    1    1    2    0    0 -0.12284060170E+03  0.12932237441E+03 -0.10606380175E+04  0.10863511159E+04  0.15294330000E+03 0.  0.
<mgrwt>
<rscale>  0 0.23495902E+03</rscale>
<asrwt>0</asrwt>
<pdfrwt beam="1">  1        2 0.18585419E+00 0.23495902E+03</pdfrwt>
<pdfrwt beam="2">  1       -2 0.17757760E-01 0.23495902E+03</pdfrwt>
<totfact> 0.51403867E+02</totfact>
</mgrwt>
</event>
<event>
 4    1  0.5410820E-008  0.1265908E+04  0.7818608E-02  0.9057046E-01
         -2   -1    0    0    0  501 -0.00000000000E+00  0.00000000000E+00  0.52007219834E+03  0.52007219835E+03  0.25500000000E-02 0.  1.
          2   -1    0    0  501    0  0.00000000000E+00 -0.00000000000E+00 -0.34928472546E+04  0.34928472546E+04  0.25500000000E-02 0. -1.
    8880022    1    1    2    0    0 -0.94219168662E+03 -0.83150768811E+03 -0.21750822664E+04  0.25166455310E+04  0.15294330000E+03 0.  0.
    8880022    1    1    2    0    0  0.94219168662E+03  0.83150768811E+03 -0.79769278985E+03  0.14962739220E+04  0.15294330000E+03 0.  0.
<mgrwt>
<rscale>  0 0.12659075E+04</rscale>
<asrwt>0</asrwt>
<pdfrwt beam="1">  1        2 0.53736110E+00 0.12659075E+04</pdfrwt>
<pdfrwt beam="2">  1       -2 0.80011110E-01 0.12659075E+04</pdfrwt>
<totfact> 0.11298119E+00</totfact>
</mgrwt>
</event>
<event>
 4    1  0.5410820E-008  0.9113803E+03  0.7818608E-02  0.9411466E-01
          2   -1    0    0  501    0  0.00000000000E+00  0.00000000000E+00  0.85851187763E+03  0.85851187764E+03  0.25500000000E-02 0. -1.
         -2   -1    0    0    0  501 -0.00000000000E+00 -0.00000000000E+00 -0.15626388139E+04  0.15626388139E+04  0.25500000000E-02 0.  1.
    8880022    1    1    2    0    0 -0.56025816794E+03 -0.70237684819E+03 -0.10991484687E+04  0.14278450409E+04  0.15294330000E+03 0.  0.
    8880022    1    1    2    0    0  0.56025816794E+03  0.70237684819E+03  0.39502153236E+03  0.99330565068E+03  0.15294330000E+03 0.  0.
<mgrwt>
<rscale>  0 0.91138033E+03</rscale>
<asrwt>0</asrwt>
<pdfrwt beam="1">  1        2 0.13207875E+00 0.91138033E+03</pdfrwt>
<pdfrwt beam="2">  1       -2 0.24040597E+00 0.91138033E+03</pdfrwt>
<totfact> 0.23217394E+00</totfact>
</mgrwt>
</event>
<event>
 4    1  0.5410820E-008  0.3022980E+03  0.7818608E-02  0.1084097E+00
          2   -1    0    0  501    0  0.00000000000E+00  0.00000000000E+00  0.64758406710E+03  0.64758406711E+03  0.25500000000E-02 0. -1.
         -2   -1    0    0    0  501 -0.00000000000E+00 -0.00000000000E+00 -0.54261083983E+03  0.54261083984E+03  0.25500000000E-02 0.  1.
    8880022    1    1    2    0    0  0.25586526051E+03 -0.50253616022E+02  0.56438545435E+03  0.64024608672E+03  0.15294330000E+03 0.  0.
    8880022    1    1    2    0    0 -0.25586526051E+03  0.50253616022E+02 -0.45941222708E+03  0.54994882023E+03  0.15294330000E+03 0.  0.
<mgrwt>
<rscale>  0 0.30229805E+03</rscale>
<asrwt>0</asrwt>
<pdfrwt beam="1">  1        2 0.99628318E-01 0.30229805E+03</pdfrwt>
<pdfrwt beam="2">  1       -2 0.83478591E-01 0.30229805E+03</pdfrwt>
<totfact> 0.60178529E+01</totfact>
</mgrwt>
</event>
<event>
 4    1  0.5410820E-008  0.4469130E+03  0.7818608E-02  0.1028647E+00
         -2   -1    0    0    0  501 -0.00000000000E+00  0.00000000000E+00  0.67555402330E+03  0.67555402330E+03  0.25500000000E-02 0.  1.
          2   -1    0    0  501    0  0.00000000000E+00 -0.00000000000E+00 -0.83452269430E+03  0.83452269431E+03  0.25500000000E-02 0. -1.
    8880022    1    1    2    0    0 -0.16423056606E+02  0.41960683376E+03 -0.68620782819E+03  0.81890930402E+03  0.15294330000E+03 0.  0.
    8880022    1    1    2    0    0  0.16423056606E+02 -0.41960683376E+03  0.52723915718E+03  0.69116741359E+03  0.15294330000E+03 0.  0.
<mgrwt>
<rscale>  0 0.44691304E+03</rscale>
<asrwt>0</asrwt>
<pdfrwt beam="1">  1        2 0.12838811E+00 0.44691304E+03</pdfrwt>
<pdfrwt beam="2">  1       -2 0.10393139E+00 0.44691304E+03</pdfrwt>
<totfact> 0.25802715E+01</totfact>
</mgrwt>
</event>
<event>
 4    1  0.5410820E-008  0.2246644E+03  0.7818608E-02  0.1130453E+00
          2   -1    0    0  501    0  0.00000000000E+00  0.00000000000E+00  0.18860943735E+04  0.18860943735E+04  0.25500000000E-02 0. -1.
         -2   -1    0    0    0  501 -0.00000000000E+00 -0.00000000000E+00 -0.39281037841E+02  0.39281037924E+02  0.25500000000E-02 0.  1.
    8880022    1    1    2    0    0  0.14399681580E+03  0.79670305186E+02  0.14668994855E+04  0.14840041085E+04  0.15294330000E+03 0.  0.
    8880022    1    1    2    0    0 -0.14399681580E+03 -0.79670305186E+02  0.37991385021E+03  0.44137130297E+03  0.15294330000E+03 0.  0.
<mgrwt>
<rscale>  0 0.22466440E+03</rscale>
<asrwt>0</asrwt>
<pdfrwt beam="1">  1        2 0.29016845E+00 0.22466440E+03</pdfrwt>
<pdfrwt beam="2">  1       -2 0.60432349E-02 0.22466440E+03</pdfrwt>
<totfact> 0.12542327E+03</totfact>
</mgrwt>
</event>
<event>
 4    1  0.5410820E-008  0.2834112E+03  0.7818608E-02  0.1093840E+00
          2   -1    0    0  501    0  0.00000000000E+00  0.00000000000E+00  0.20377181837E+04  0.20377181837E+04  0.25500000000E-02 0. -1.
         -2   -1    0    0    0  501 -0.00000000000E+00 -0.00000000000E+00 -0.41537208206E+03  0.41537208206E+03  0.25500000000E-02 0.  1.
    8880022    1    1    2    0    0 -0.20186197726E+03  0.12720840478E+03  0.19780700831E+04  0.19982700375E+04  0.15294330000E+03 0.  0.
    8880022    1    1    2    0    0  0.20186197726E+03 -0.12720840478E+03 -0.35572398141E+03  0.45482022831E+03  0.15294330000E+03 0.  1.
<mgrwt>
<rscale>  0 0.28341117E+03</rscale>
<asrwt>0</asrwt>
<pdfrwt beam="1">  1        2 0.31349510E+00 0.28341117E+03</pdfrwt>
<pdfrwt beam="2">  1       -2 0.63903398E-01 0.28341117E+03</pdfrwt>
<totfact> 0.16634480E+01</totfact>
</mgrwt>
</event>
<event>
 4    1  0.5410820E-008  0.2542724E+03  0.7818608E-02  0.1110634E+00
         -2   -1    0    0    0  501 -0.00000000000E+00  0.00000000000E+00  0.59421875124E+02  0.59421875178E+02  0.25500000000E-02 0.  1.
          2   -1    0    0  501    0  0.00000000000E+00 -0.00000000000E+00 -0.20886583838E+04  0.20886583838E+04  0.25500000000E-02 0. -1.
    8880022    1    1    2    0    0 -0.94691401991E+02 -0.17971184098E+03 -0.27122762272E+03  0.37177800330E+03  0.15294330000E+03 0.  0.
    8880022    1    1    2    0    0  0.94691401991E+02  0.17971184098E+03 -0.17580088859E+04  0.17763022556E+04  0.15294330000E+03 0.  0.
<mgrwt>
<rscale>  0 0.25427241E+03</rscale>
<asrwt>0</asrwt>
<pdfrwt beam="1">  1        2 0.32133200E+00 0.25427241E+03</pdfrwt>
<pdfrwt beam="2">  1       -2 0.91418286E-02 0.25427241E+03</pdfrwt>
<totfact> 0.51317581E+02</totfact>
</mgrwt>
</event>
<event>
 4    1  0.5410820E-008  0.1988761E+03  0.7818608E-02  0.1150691E+00
         -2   -1    0    0    0  501 -0.00000000000E+00  0.00000000000E+00  0.13293351585E+03  0.13293351588E+03  0.25500000000E-02 0.  1.
          2   -1    0    0  501    0  0.00000000000E+00 -0.00000000000E+00 -0.88503525420E+03  0.88503525420E+03  0.25500000000E-02 0. -1.
    8880022    1    1    2    0    0 -0.12575407892E+03  0.18600349157E+02 -0.79074705043E+03  0.81537268296E+03  0.15294330000E+03 0. -1.
    8880022    1    1    2    0    0  0.12575407892E+03 -0.18600349157E+02  0.38645312078E+02  0.20259608711E+03  0.15294330000E+03 0.  1.
<mgrwt>
<rscale>  0 0.19887613E+03</rscale>
<asrwt>0</asrwt>
<pdfrwt beam="1">  1        2 0.13615927E+00 0.19887613E+03</pdfrwt>
<pdfrwt beam="2">  1       -2 0.20451311E-01 0.19887613E+03</pdfrwt>
<totfact> 0.63391955E+02</totfact>
</mgrwt>
</event>
<event>
 4    1  0.5410820E-008  0.5998037E+03  0.7818608E-02  0.9905813E-01
         -2   -1    0    0    0  501 -0.00000000000E+00  0.00000000000E+00  0.43596075706E+03  0.43596075707E+03  0.25500000000E-02 0.  1.
          2   -1    0    0  501    0  0.00000000000E+00 -0.00000000000E+00 -0.11252946747E+04  0.11252946747E+04  0.25500000000E-02 0. -1.
    8880022    1    1    2    0    0  0.26431796733E+02  0.57937394067E+03  0.58443419652E+02  0.60264424773E+03  0.15294330000E+03 0.  0.
    8880022    1    1    2    0    0 -0.26431796733E+02 -0.57937394067E+03 -0.74777733733E+03  0.95861118409E+03  0.15294330000E+03 0.  0.
<mgrwt>
<rscale>  0 0.59980368E+03</rscale>
<asrwt>0</asrwt>
<pdfrwt beam="1">  1        2 0.17312226E+00 0.59980368E+03</pdfrwt>
<pdfrwt beam="2">  1       -2 0.67070886E-01 0.59980368E+03</pdfrwt>
<totfact> 0.44310965E+01</totfact>
</mgrwt>
</event>
<event>
 4    1  0.5410820E-008  0.5646629E+03  0.7818608E-02  0.9981559E-01
          2   -1    0    0  501    0  0.00000000000E+00  0.00000000000E+00  0.30415707319E+04  0.30415707319E+04  0.25500000000E-02 0. -1.
         -2   -1    0    0    0  501 -0.00000000000E+00 -0.00000000000E+00 -0.15645628716E+03  0.15645628718E+03  0.25500000000E-02 0.  1.
    8880022    1    1    2    0    0 -0.51720761200E+03  0.16717891168E+03  0.52402120135E+03  0.77035211098E+03  0.15294330000E+03 0.  0.
    8880022    1    1    2    0    0  0.51720761200E+03 -0.16717891168E+03  0.23610932434E+04  0.24276749081E+04  0.15294330000E+03 0. -1.
<mgrwt>
<rscale>  0 0.56466287E+03</rscale>
<asrwt>0</asrwt>
<pdfrwt beam="1">  1        2 0.46793395E+00 0.56466287E+03</pdfrwt>
<pdfrwt beam="2">  1       -2 0.24070198E-01 0.56466287E+03</pdfrwt>
<totfact> 0.27580427E+01</totfact>
</mgrwt>
</event>
<event>
 4    1  0.5410820E-008  0.1089353E+04  0.7818608E-02  0.9215632E-01
         -2   -1    0    0    0  501 -0.00000000000E+00  0.00000000000E+00  0.14474277622E+04  0.14474277623E+04  0.25500000000E-02 0.  1.
          2   -1    0    0  501    0  0.00000000000E+00 -0.00000000000E+00 -0.89286867468E+03  0.89286867468E+03  0.25500000000E-02 0. -1.
    8880022    1    1    2    0    0  0.58902306757E+03 -0.90352071308E+03  0.61188381255E+03  0.12494363954E+04  0.15294330000E+03 0.  0.
    8880022    1    1    2    0    0 -0.58902306757E+03  0.90352071308E+03 -0.57324724982E+02  0.10908600415E+04  0.15294330000E+03 0.  0.
<mgrwt>
<rscale>  0 0.10893528E+04</rscale>
<asrwt>0</asrwt>
<pdfrwt beam="1">  1        2 0.13736441E+00 0.10893528E+04</pdfrwt>
<pdfrwt beam="2">  1       -2 0.22268119E+00 0.10893528E+04</pdfrwt>
<totfact> 0.27750782E+00</totfact>
</mgrwt>
</event>
<event>
 4    1  0.5410820E-008  0.5851512E+03  0.7818608E-02  0.9936701E-01
          2   -1    0    0  501    0  0.00000000000E+00  0.00000000000E+00  0.13839164426E+04  0.13839164426E+04  0.25500000000E-02 0. -1.
         -2   -1    0    0    0  501 -0.00000000000E+00 -0.00000000000E+00 -0.27393999080E+03  0.27393999081E+03  0.25500000000E-02 0.  1.
    8880022    1    1    2    0    0  0.16104033986E+03  0.54136523825E+03  0.81292613660E+03  0.10016241155E+04  0.15294330000E+03 0.  0.
    8880022    1    1    2    0    0 -0.16104033986E+03 -0.54136523825E+03  0.29705031521E+03  0.65623231789E+03  0.15294330000E+03 0.  0.
<mgrwt>
<rscale>  0 0.58515123E+03</rscale>
<asrwt>0</asrwt>
<pdfrwt beam="1">  1        2 0.21291022E+00 0.58515123E+03</pdfrwt>
<pdfrwt beam="2">  1       -2 0.42144614E-01 0.58515123E+03</pdfrwt>
<totfact> 0.81675420E+01</totfact>
</mgrwt>
</event>
<event>
 4    1  0.5410820E-008  0.3349278E+03  0.7818608E-02  0.1068977E+00
          2   -1    0    0  501    0  0.00000000000E+00  0.00000000000E+00  0.15215963311E+04  0.15215963311E+04  0.25500000000E-02 0. -1.
         -2   -1    0    0    0  501 -0.00000000000E+00 -0.00000000000E+00 -0.14544482360E+03  0.14544482362E+03  0.25500000000E-02 0.  1.
    8880022    1    1    2    0    0 -0.17557864193E+03 -0.24074286550E+03  0.10275642498E+03  0.35033629941E+03  0.15294330000E+03 0.  0.
    8880022    1    1    2    0    0  0.17557864193E+03  0.24074286550E+03  0.12733950825E+04  0.13167048553E+04  0.15294330000E+03 0.  0.
<mgrwt>
<rscale>  0 0.33492781E+03</rscale>
<asrwt>0</asrwt>
<pdfrwt beam="1">  1        2 0.23409174E+00 0.33492781E+03</pdfrwt>
<pdfrwt beam="2">  1       -2 0.22376127E-01 0.33492781E+03</pdfrwt>
<totfact> 0.22896407E+02</totfact>
</mgrwt>
</event>
<event>
 4    1  0.5410820E-008  0.8085179E+03  0.7818608E-02  0.9547769E-01
          2   -1    0    0  501    0  0.00000000000E+00  0.00000000000E+00  0.18732017590E+04  0.18732017590E+04  0.25500000000E-02 0. -1.
         -2   -1    0    0    0  501 -0.00000000000E+00 -0.00000000000E+00 -0.52242637410E+03  0.52242637410E+03  0.25500000000E-02 0.  1.
    8880022    1    1    2    0    0 -0.61764589478E+03 -0.49882169774E+03 -0.14797009728E+02  0.80865328911E+03  0.15294330000E+03 0.  0.
    8880022    1    1    2    0    0  0.61764589478E+03  0.49882169774E+03  0.13655723947E+04  0.15869748440E+04  0.15294330000E+03 0. -1.
<mgrwt>
<rscale>  0 0.80851790E+03</rscale>
<asrwt>0</asrwt>
<pdfrwt beam="1">  1        2 0.28818488E+00 0.80851790E+03</pdfrwt>
<pdfrwt beam="2">  1       -2 0.80373289E-01 0.80851790E+03</pdfrwt>
<totfact> 0.11005594E+01</totfact>
</mgrwt>
</event>
<event>
 4    1  0.5410820E-008  0.3188243E+03  0.7818608E-02  0.1076192E+00
          2   -1    0    0  501    0  0.00000000000E+00  0.00000000000E+00  0.29891693867E+04  0.29891693868E+04  0.25500000000E-02 0. -1.
         -2   -1    0    0    0  501 -0.00000000000E+00 -0.00000000000E+00 -0.89778362445E+02  0.89778362481E+02  0.25500000000E-02 0.  1.
    8880022    1    1    2    0    0  0.55506113863E+02  0.27418301562E+03  0.23631496455E+03  0.39685472180E+03  0.15294330000E+03 0.  0.
    8880022    1    1    2    0    0 -0.55506113863E+02 -0.27418301562E+03  0.26630760598E+04  0.26820930274E+04  0.15294330000E+03 0. -1.
<mgrwt>
<rscale>  0 0.31882426E+03</rscale>
<asrwt>0</asrwt>
<pdfrwt beam="1">  1        2 0.45987225E+00 0.31882426E+03</pdfrwt>
<pdfrwt beam="2">  1       -2 0.13812055E-01 0.31882426E+03</pdfrwt>
<totfact> 0.81980519E+01</totfact>
</mgrwt>
</event>
<event>
 4    1  0.5410820E-008  0.2393393E+03  0.7818608E-02  0.1120234E+00
         -2   -1    0    0    0  501 -0.00000000000E+00  0.00000000000E+00  0.43602503602E+02  0.43602503677E+02  0.25500000000E-02 0.  1.
          2   -1    0    0  501    0  0.00000000000E+00 -0.00000000000E+00 -0.35816188019E+04  0.35816188019E+04  0.25500000000E-02 0. -1.
    8880022    1    1    2    0    0  0.15744370576E+03 -0.95410211550E+02 -0.32113650228E+04  0.32202715090E+04  0.15294330000E+03 0. -1.
    8880022    1    1    2    0    0 -0.15744370576E+03  0.95410211550E+02 -0.32665127547E+03  0.40494979656E+03  0.15294330000E+03 0.  0.
<mgrwt>
<rscale>  0 0.23933926E+03</rscale>
<asrwt>0</asrwt>
<pdfrwt beam="1">  1        2 0.55101804E+00 0.23933926E+03</pdfrwt>
<pdfrwt beam="2">  1       -2 0.67080803E-02 0.23933926E+03</pdfrwt>
<totfact> 0.11297486E+02</totfact>
</mgrwt>
</event>
<event>
 4    1  0.5410820E-008  0.5060900E+03  0.7818608E-02  0.1012201E+00
          2   -1    0    0  501    0  0.00000000000E+00  0.00000000000E+00  0.76224914997E+03  0.76224914998E+03  0.25500000000E-02 0. -1.
         -2   -1    0    0    0  501 -0.00000000000E+00 -0.00000000000E+00 -0.44960939861E+03  0.44960939862E+03  0.25500000000E-02 0.  1.
    8880022    1    1    2    0    0 -0.47083597846E+03 -0.10511375824E+03 -0.14824715501E+03  0.52735594504E+03  0.15294330000E+03 0.  0.
    8880022    1    1    2    0    0  0.47083597846E+03  0.10511375824E+03  0.46088690637E+03  0.68450260355E+03  0.15294330000E+03 0.  0.
<mgrwt>
<rscale>  0 0.50608999E+03</rscale>
<asrwt>0</asrwt>
<pdfrwt beam="1">  1        2 0.11726910E+00 0.50608999E+03</pdfrwt>
<pdfrwt beam="2">  1       -2 0.69170677E-01 0.50608999E+03</pdfrwt>
<totfact> 0.72446114E+01</totfact>
</mgrwt>
</event>
<event>
 4    1  0.5410820E-008  0.5293713E+03  0.7818608E-02  0.1006385E+00
         -2   -1    0    0    0  501 -0.00000000000E+00  0.00000000000E+00  0.57107830877E+03  0.57107830877E+03  0.25500000000E-02 0.  1.
          2   -1    0    0  501    0  0.00000000000E+00 -0.00000000000E+00 -0.61000151524E+03  0.61000151525E+03  0.25500000000E-02 0. -1.
    8880022    1    1    2    0    0 -0.41175114945E+03  0.29547141024E+03  0.24168717815E+03  0.58193359453E+03  0.15294330000E+03 0.  0.
    8880022    1    1    2    0    0  0.41175114945E+03 -0.29547141024E+03 -0.28061038462E+03  0.59914622949E+03  0.15294330000E+03 0.  0.
<mgrwt>
<rscale>  0 0.52937134E+03</rscale>
<asrwt>0</asrwt>
<pdfrwt beam="1">  1        2 0.93846387E-01 0.52937134E+03</pdfrwt>
<pdfrwt beam="2">  1       -2 0.87858202E-01 0.52937134E+03</pdfrwt>
<totfact> 0.55969391E+01</totfact>
</mgrwt>
</event>
<event>
 4    1  0.5410820E-008  0.3183905E+03  0.7818608E-02  0.1076392E+00
         -2   -1    0    0    0  501 -0.00000000000E+00  0.00000000000E+00  0.89620711416E+03  0.89620711417E+03  0.25500000000E-02 0.  1.
          2   -1    0    0  501    0  0.00000000000E+00 -0.00000000000E+00 -0.76328352345E+03  0.76328352345E+03  0.25500000000E-02 0. -1.
    8880022    1    1    2    0    0 -0.27548793042E+03 -0.45686471936E+02  0.83226215871E+03  0.89108518525E+03  0.15294330000E+03 0.  0.
    8880022    1    1    2    0    0  0.27548793042E+03  0.45686471936E+02 -0.69933856800E+03  0.76840545237E+03  0.15294330000E+03 0.  0.
<mgrwt>
<rscale>  0 0.31839049E+03</rscale>
<asrwt>0</asrwt>
<pdfrwt beam="1">  1        2 0.11742823E+00 0.31839049E+03</pdfrwt>
<pdfrwt beam="2">  1       -2 0.13787802E+00 0.31839049E+03</pdfrwt>
<totfact> 0.14867477E+01</totfact>
</mgrwt>
</event>
<event>
 4    1  0.5410820E-008  0.2382868E+03  0.7818608E-02  0.1120939E+00
         -2   -1    0    0    0  501 -0.00000000000E+00  0.00000000000E+00  0.86999647782E+02  0.86999647820E+02  0.25500000000E-02 0.  1.
          2   -1    0    0  501    0  0.00000000000E+00 -0.00000000000E+00 -0.29996554289E+04  0.29996554289E+04  0.25500000000E-02 0. -1.
    8880022    1    1    2    0    0 -0.14329013976E+03 -0.11338824237E+03 -0.28214740721E+04  0.28315184178E+04  0.15294330000E+03 0.  0.
    8880022    1    1    2    0    0  0.14329013976E+03  0.11338824237E+03 -0.91181709001E+02  0.25513665893E+03  0.15294330000E+03 0.  0.
<mgrwt>
<rscale>  0 0.23828682E+03</rscale>
<asrwt>0</asrwt>
<pdfrwt beam="1">  1        2 0.46148537E+00 0.23828682E+03</pdfrwt>
<pdfrwt beam="2">  1       -2 0.13384564E-01 0.23828682E+03</pdfrwt>
<totfact> 0.87704923E+01</totfact>
</mgrwt>
</event>
<event>
 4    1  0.5410820E-008  0.2176813E+03  0.7818608E-02  0.1135624E+00
         -2   -1    0    0    0  501 -0.00000000000E+00  0.00000000000E+00  0.42190969441E+02  0.42190969518E+02  0.25500000000E-02 0.  1.
          2   -1    0    0  501    0  0.00000000000E+00 -0.00000000000E+00 -0.14372723736E+04  0.14372723736E+04  0.25500000000E-02 0. -1.
    8880022    1    1    2    0    0  0.82611802924E+02  0.13102963610E+03 -0.10433855318E+04  0.10658510667E+04  0.15294330000E+03 0. -1.
    8880022    1    1    2    0    0 -0.82611802924E+02 -0.13102963610E+03 -0.35169587245E+03  0.41361227645E+03  0.15294330000E+03 0. -1.
<mgrwt>
<rscale>  0 0.21768125E+03</rscale>
<asrwt>0</asrwt>
<pdfrwt beam="1">  1        2 0.22111879E+00 0.21768125E+03</pdfrwt>
<pdfrwt beam="2">  1       -2 0.64909195E-02 0.21768125E+03</pdfrwt>
<totfact> 0.19355161E+03</totfact>
</mgrwt>
</event>
<event>
 4    1  0.5410820E-008  0.7136518E+03  0.7818608E-02  0.9694167E-01
          2   -1    0    0  501    0  0.00000000000E+00  0.00000000000E+00  0.13662833374E+04  0.13662833374E+04  0.25500000000E-02 0. -1.
         -2   -1    0    0    0  501 -0.00000000000E+00 -0.00000000000E+00 -0.59254875627E+03  0.59254875628E+03  0.25500000000E-02 0.  1.
    8880022    1    1    2    0    0 -0.59691609180E+02  0.69450999031E+03 -0.20962614744E+03  0.74380238609E+03  0.15294330000E+03 0.  0.
    8880022    1    1    2    0    0  0.59691609180E+02 -0.69450999031E+03  0.98336072862E+03  0.12150297076E+04  0.15294330000E+03 0.  0.
<mgrwt>
<rscale>  0 0.71365178E+03</rscale>
<asrwt>0</asrwt>
<pdfrwt beam="1">  1        2 0.21019743E+00 0.71365178E+03</pdfrwt>
<pdfrwt beam="2">  1       -2 0.91161349E-01 0.71365178E+03</pdfrwt>
<totfact> 0.15935370E+01</totfact>
</mgrwt>
</event>
<event>
 4    1  0.5410820E-008  0.5597888E+03  0.7818608E-02  0.9992533E-01
         -2   -1    0    0    0  501 -0.00000000000E+00  0.00000000000E+00  0.47525438701E+03  0.47525438701E+03  0.25500000000E-02 0.  1.
          2   -1    0    0  501    0  0.00000000000E+00 -0.00000000000E+00 -0.97929714716E+03  0.97929714717E+03  0.25500000000E-02 0. -1.
    8880022    1    1    2    0    0 -0.45969735208E+03  0.28044645043E+03 -0.66771610162E+03  0.87132560644E+03  0.15294330000E+03 0. -1.
    8880022    1    1    2    0    0  0.45969735208E+03 -0.28044645043E+03  0.16367334146E+03  0.58322592774E+03  0.15294330000E+03 0.  0.
<mgrwt>
<rscale>  0 0.55978882E+03</rscale>
<asrwt>0</asrwt>
<pdfrwt beam="1">  1        2 0.15066110E+00 0.55978882E+03</pdfrwt>
<pdfrwt beam="2">  1       -2 0.73116060E-01 0.55978882E+03</pdfrwt>
<totfact> 0.45432534E+01</totfact>
</mgrwt>
</event>
<event>
 4    1  0.5410820E-008  0.5880603E+03  0.7818608E-02  0.9930491E-01
         -2   -1    0    0    0  501 -0.00000000000E+00  0.00000000000E+00  0.23802087410E+03  0.23802087411E+03  0.25500000000E-02 0.  1.
          2   -1    0    0  501    0  0.00000000000E+00 -0.00000000000E+00 -0.16773298643E+04  0.16773298643E+04  0.25500000000E-02 0. -1.
    8880022    1    1    2    0    0  0.20886842397E+03  0.52801258465E+03 -0.10699802202E+04  0.12209310516E+04  0.15294330000E+03 0.  0.
    8880022    1    1    2    0    0 -0.20886842397E+03 -0.52801258465E+03 -0.36932876998E+03  0.69441968681E+03  0.15294330000E+03 0.  0.
<mgrwt>
<rscale>  0 0.58806034E+03</rscale>
<asrwt>0</asrwt>
<pdfrwt beam="1">  1        2 0.25805074E+00 0.58806034E+03</pdfrwt>
<pdfrwt beam="2">  1       -2 0.36618597E-01 0.58806034E+03</pdfrwt>
<totfact> 0.73866236E+01</totfact>
</mgrwt>
</event>
<event>
 4    1  0.5410820E-008  0.7766170E+03  0.7818608E-02  0.9594494E-01
          2   -1    0    0  501    0  0.00000000000E+00  0.00000000000E+00  0.10521413868E+04  0.10521413868E+04  0.25500000000E-02 0. -1.
         -2   -1    0    0    0  501 -0.00000000000E+00 -0.00000000000E+00 -0.69950581158E+03  0.69950581158E+03  0.25500000000E-02 0.  1.
    8880022    1    1    2    0    0  0.19167702873E+03  0.73688683847E+03  0.54841519261E+03  0.95073296595E+03  0.15294330000E+03 0.  0.
    8880022    1    1    2    0    0 -0.19167702873E+03 -0.73688683847E+03 -0.19577961742E+03  0.80091423240E+03  0.15294330000E+03 0.  0.
<mgrwt>
<rscale>  0 0.77661699E+03</rscale>
<asrwt>0</asrwt>
<pdfrwt beam="1">  1        2 0.16186791E+00 0.77661699E+03</pdfrwt>
<pdfrwt beam="2">  1       -2 0.10761628E+00 0.77661699E+03</pdfrwt>
<totfact> 0.16399498E+01</totfact>
</mgrwt>
</event>
<event>
 4    1  0.5410820E-008  0.3525233E+03  0.7818608E-02  0.1061584E+00
         -2   -1    0    0    0  501 -0.00000000000E+00  0.00000000000E+00  0.89711795971E+02  0.89711796007E+02  0.25500000000E-02 0.  1.
          2   -1    0    0  501    0  0.00000000000E+00 -0.00000000000E+00 -0.23499565658E+04  0.23499565658E+04  0.25500000000E-02 0. -1.
    8880022    1    1    2    0    0  0.22702810844E+03 -0.22212435454E+03 -0.19116963017E+04  0.19439278263E+04  0.15294330000E+03 0.  0.
    8880022    1    1    2    0    0 -0.22702810844E+03  0.22212435454E+03 -0.34854846813E+03  0.49574053551E+03  0.15294330000E+03 0.  0.
<mgrwt>
<rscale>  0 0.35252325E+03</rscale>
<asrwt>0</asrwt>
<pdfrwt beam="1">  1        2 0.36153173E+00 0.35252325E+03</pdfrwt>
<pdfrwt beam="2">  1       -2 0.13801817E-01 0.35252325E+03</pdfrwt>
<totfact> 0.18724061E+02</totfact>
</mgrwt>
</event>
<event>
 4    1  0.5410820E-008  0.2831530E+03  0.7818608E-02  0.1093979E+00
         -2   -1    0    0    0  501 -0.00000000000E+00  0.00000000000E+00  0.14874958820E+04  0.14874958820E+04  0.25500000000E-02 0.  1.
          2   -1    0    0  501    0  0.00000000000E+00 -0.00000000000E+00 -0.12320530573E+03  0.12320530576E+03  0.25500000000E-02 0. -1.
    8880022    1    1    2    0    0  0.23827455598E+03  0.30349075204E+01  0.12861695218E+04  0.13169691213E+04  0.15294330000E+03 0.  0.
    8880022    1    1    2    0    0 -0.23827455598E+03 -0.30349075204E+01  0.78121054476E+02  0.29373206645E+03  0.15294330000E+03 0.  0.
<mgrwt>
<rscale>  0 0.28315301E+03</rscale>
<asrwt>0</asrwt>
<pdfrwt beam="1">  1        2 0.18954661E-01 0.28315301E+03</pdfrwt>
<pdfrwt beam="2">  1       -2 0.22884553E+00 0.28315301E+03</pdfrwt>
<totfact> 0.28335336E+01</totfact>
</mgrwt>
</event>
<event>
 4    1  0.5410820E-008  0.2001369E+03  0.7818608E-02  0.1149624E+00
          2   -1    0    0  501    0  0.00000000000E+00  0.00000000000E+00  0.12905394769E+04  0.12905394769E+04  0.25500000000E-02 0. -1.
         -2   -1    0    0    0  501 -0.00000000000E+00 -0.00000000000E+00 -0.21583819417E+03  0.21583819418E+03  0.25500000000E-02 0.  1.
    8880022    1    1    2    0    0 -0.11275939683E+03 -0.62836624976E+02  0.12342849363E+04  0.12504055662E+04  0.15294330000E+03 0. -1.
    8880022    1    1    2    0    0  0.11275939683E+03  0.62836624976E+02 -0.15958365352E+03  0.25597210492E+03  0.15294330000E+03 0.  0.
<mgrwt>
<rscale>  0 0.20013689E+03</rscale>
<asrwt>0</asrwt>
<pdfrwt beam="1">  1        2 0.19854453E+00 0.20013689E+03</pdfrwt>
<pdfrwt beam="2">  1       -2 0.33205876E-01 0.20013689E+03</pdfrwt>
<totfact> 0.15474991E+02</totfact>
</mgrwt>
</event>
<event>
 4    1  0.5410820E-008  0.6647745E+03  0.7818608E-02  0.9779444E-01
          2   -1    0    0  501    0  0.00000000000E+00  0.00000000000E+00  0.13395822039E+04  0.13395822039E+04  0.25500000000E-02 0. -1.
         -2   -1    0    0    0  501 -0.00000000000E+00 -0.00000000000E+00 -0.49017930941E+03  0.49017930942E+03  0.25500000000E-02 0.  1.
    8880022    1    1    2    0    0  0.62890025176E+03 -0.15171665615E+03 -0.98451668941E+02  0.67202518892E+03  0.15294330000E+03 0.  0.
    8880022    1    1    2    0    0 -0.62890025176E+03  0.15171665615E+03  0.94785456341E+03  0.11577363244E+04  0.15294330000E+03 0.  0.
<mgrwt>
<rscale>  0 0.66477449E+03</rscale>
<asrwt>0</asrwt>
<pdfrwt beam="1">  1        2 0.20608957E+00 0.66477449E+03</pdfrwt>
<pdfrwt beam="2">  1       -2 0.75412203E-01 0.66477449E+03</pdfrwt>
<totfact> 0.25508828E+01</totfact>
</mgrwt>
</event>
<event>
 4    1  0.5410820E-008  0.5099650E+03  0.7818608E-02  0.1011210E+00
          2   -1    0    0  501    0  0.00000000000E+00  0.00000000000E+00  0.52060096923E+04  0.52060096923E+04  0.25500000000E-02 0. -1.
         -2   -1    0    0    0  501 -0.00000000000E+00 -0.00000000000E+00 -0.89477574904E+02  0.89477574940E+02  0.25500000000E-02 0.  1.
    8880022    1    1    2    0    0 -0.42382240146E+03  0.23884566556E+03  0.79854662185E+03  0.94749197370E+03  0.15294330000E+03 0.  0.
    8880022    1    1    2    0    0  0.42382240146E+03 -0.23884566556E+03  0.43179854955E+04  0.43479952935E+04  0.15294330000E+03 0.  0.
<mgrwt>
<rscale>  0 0.50996503E+03</rscale>
<asrwt>0</asrwt>
<pdfrwt beam="1">  1        2 0.80092485E+00 0.50996503E+03</pdfrwt>
<pdfrwt beam="2">  1       -2 0.13765776E-01 0.50996503E+03</pdfrwt>
<totfact> 0.94877677E-01</totfact>
</mgrwt>
</event>
<event>
 4    1  0.5410820E-008  0.6215097E+03  0.7818608E-02  0.9861758E-01
         -2   -1    0    0    0  501 -0.00000000000E+00  0.00000000000E+00  0.85980536198E+03  0.85980536198E+03  0.25500000000E-02 0.  1.
          2   -1    0    0  501    0  0.00000000000E+00 -0.00000000000E+00 -0.12298295257E+04  0.12298295257E+04  0.25500000000E-02 0. -1.
    8880022    1    1    2    0    0  0.59274226785E+03  0.10742092430E+03 -0.10173972873E+04  0.11922128771E+04  0.15294330000E+03 0.  0.
    8880022    1    1    2    0    0 -0.59274226785E+03 -0.10742092430E+03  0.64737312354E+03  0.89742201063E+03  0.15294330000E+03 0.  0.
<mgrwt>
<rscale>  0 0.62150970E+03</rscale>
<asrwt>0</asrwt>
<pdfrwt beam="1">  1        2 0.18920454E+00 0.62150970E+03</pdfrwt>
<pdfrwt beam="2">  1       -2 0.13227775E+00 0.62150970E+03</pdfrwt>
<totfact> 0.78580569E+00</totfact>
</mgrwt>
</event>
<event>
 4    1  0.7016127E-008  0.4647201E+03  0.7818608E-02  0.1023421E+00
          2   -1    0    0  501    0  0.00000000000E+00  0.00000000000E+00  0.93680108042E+03  0.93680108043E+03  0.25500000000E-02 0. -1.
         -2   -1    0    0    0  501 -0.00000000000E+00 -0.00000000000E+00 -0.15602535367E+04  0.15602535367E+04  0.25500000000E-02 0.  1.
    8880022    1    1    2    0    0  0.21743377836E+03 -0.38117674884E+03  0.84087858304E+03  0.96075054320E+03  0.15294330000E+03 0.  0.
    8880022    1    1    2    0    0 -0.21743377836E+03  0.38117674884E+03 -0.14643310393E+04  0.15363040739E+04  0.15294330000E+03 0.  0.
<mgrwt>
<rscale>  0 0.46472015E+03</rscale>
<asrwt>0</asrwt>
<pdfrwt beam="1">  1        2 0.14412324E+00 0.46472015E+03</pdfrwt>
<pdfrwt beam="2">  1       -2 0.24003901E+00 0.46472015E+03</pdfrwt>
<totfact> 0.22427485E+00</totfact>
</mgrwt>
</event>
<event>
 4    1  0.5410820E-008  0.4550359E+03  0.7818608E-02  0.1026231E+00
          2   -1    0    0  501    0  0.00000000000E+00  0.00000000000E+00  0.12546697893E+04  0.12546697893E+04  0.25500000000E-02 0. -1.
         -2   -1    0    0    0  501 -0.00000000000E+00 -0.00000000000E+00 -0.22024687115E+03  0.22024687117E+03  0.25500000000E-02 0.  1.
    8880022    1    1    2    0    0  0.41755977498E+03 -0.96487563119E+02  0.88646106007E+03  0.99642906398E+03  0.15294330000E+03 0.  0.
    8880022    1    1    2    0    0 -0.41755977498E+03  0.96487563119E+02  0.14796185807E+03  0.47848759647E+03  0.15294330000E+03 0.  0.
<mgrwt>
<rscale>  0 0.45503590E+03</rscale>
<asrwt>0</asrwt>
<pdfrwt beam="1">  1        2 0.19302612E+00 0.45503590E+03</pdfrwt>
<pdfrwt beam="2">  1       -2 0.33884134E-01 0.45503590E+03</pdfrwt>
<totfact> 0.14926298E+02</totfact>
</mgrwt>
</event>
<event>
 4    1  0.5410820E-008  0.1486144E+04  0.7818608E-02  0.8893720E-01
         -2   -1    0    0    0  501 -0.00000000000E+00  0.00000000000E+00  0.11486627012E+04  0.11486627012E+04  0.25500000000E-02 0.  1.
          2   -1    0    0  501    0  0.00000000000E+00 -0.00000000000E+00 -0.36123014554E+04  0.36123014554E+04  0.25500000000E-02 0. -1.
    8880022    1    1    2    0    0 -0.10358249573E+03 -0.14746197016E+04  0.39618263551E+03  0.15380458158E+04  0.15294330000E+03 0.  0.
    8880022    1    1    2    0    0  0.10358249573E+03  0.14746197016E+04 -0.28598213897E+04  0.32229183409E+04  0.15294330000E+03 0.  0.
<mgrwt>
<rscale>  0 0.14861441E+04</rscale>
<asrwt>0</asrwt>
<pdfrwt beam="1">  1        2 0.55573868E+00 0.14861441E+04</pdfrwt>
<pdfrwt beam="2">  1       -2 0.17671734E+00 0.14861441E+04</pdfrwt>
<totfact> 0.12322823E-01</totfact>
</mgrwt>
</event>
<event>
 4    1  0.5410820E-008  0.4400807E+03  0.7818608E-02  0.1030722E+00
          2   -1    0    0  501    0  0.00000000000E+00  0.00000000000E+00  0.73605245168E+03  0.73605245168E+03  0.25500000000E-02 0. -1.
         -2   -1    0    0    0  501 -0.00000000000E+00 -0.00000000000E+00 -0.77809964990E+03  0.77809964990E+03  0.25500000000E-02 0.  1.
    8880022    1    1    2    0    0 -0.34851132196E+02 -0.41117484625E+03  0.59488522100E+03  0.73997259056E+03  0.15294330000E+03 0.  0.
    8880022    1    1    2    0    0  0.34851132196E+02  0.41117484625E+03 -0.63693241922E+03  0.77417951102E+03  0.15294330000E+03 0.  0.
<mgrwt>
<rscale>  0 0.44008068E+03</rscale>
<asrwt>0</asrwt>
<pdfrwt beam="1">  1        2 0.11323884E+00 0.44008068E+03</pdfrwt>
<pdfrwt beam="2">  1       -2 0.11970764E+00 0.44008068E+03</pdfrwt>
<totfact> 0.21614025E+01</totfact>
</mgrwt>
</event>
<event>
 4    1  0.5410820E-008  0.1850842E+03  0.7818608E-02  0.1162971E+00
          2   -1    0    0  501    0  0.00000000000E+00  0.00000000000E+00  0.93668404149E+02  0.93668404183E+02  0.25500000000E-02 0. -1.
         -2   -1    0    0    0  501 -0.00000000000E+00 -0.00000000000E+00 -0.40589337277E+03  0.40589337278E+03  0.25500000000E-02 0.  1.
    8880022    1    1    2    0    0 -0.58367705504E+02  0.86358162687E+02 -0.23469680478E+03  0.29889590913E+03  0.15294330000E+03 0.  1.
    8880022    1    1    2    0    0  0.58367705504E+02 -0.86358162687E+02 -0.77528163846E+02  0.20066586783E+03  0.15294330000E+03 0.  0.
<mgrwt>
<rscale>  0 0.18508424E+03</rscale>
<asrwt>0</asrwt>
<pdfrwt beam="1">  1        2 0.14410524E-01 0.18508424E+03</pdfrwt>
<pdfrwt beam="2">  1       -2 0.62445134E-01 0.18508424E+03</pdfrwt>
<totfact> 0.98444459E+02</totfact>
</mgrwt>
</event>
<event>
 4    1  0.5410820E-008  0.3412168E+03  0.7818608E-02  0.1066279E+00
          2   -1    0    0  501    0  0.00000000000E+00  0.00000000000E+00  0.25749072423E+04  0.25749072423E+04  0.25500000000E-02 0. -1.
         -2   -1    0    0    0  501 -0.00000000000E+00 -0.00000000000E+00 -0.31044881877E+03  0.31044881878E+03  0.25500000000E-02 0.  1.
    8880022    1    1    2    0    0  0.18147645295E+03 -0.24516030340E+03  0.24657120505E+04  0.24892096831E+04  0.15294330000E+03 0. -1.
    8880022    1    1    2    0    0 -0.18147645295E+03  0.24516030340E+03 -0.20125362704E+03  0.39614637793E+03  0.15294330000E+03 0.  0.
<mgrwt>
<rscale>  0 0.34121684E+03</rscale>
<asrwt>0</asrwt>
<pdfrwt beam="1">  1        2 0.39613958E+00 0.34121684E+03</pdfrwt>
<pdfrwt beam="2">  1       -2 0.47761356E-01 0.34121684E+03</pdfrwt>
<totfact> 0.15133143E+01</totfact>
</mgrwt>
</event>
<event>
 4    1  0.5410820E-008  0.6134928E+03  0.7818608E-02  0.9877802E-01
         -2   -1    0    0    0  501 -0.00000000000E+00  0.00000000000E+00  0.39623263539E+03  0.39623263539E+03  0.25500000000E-02 0.  1.
          2   -1    0    0  501    0  0.00000000000E+00 -0.00000000000E+00 -0.22898315793E+04  0.22898315793E+04  0.25500000000E-02 0. -1.
    8880022    1    1    2    0    0  0.58614392252E+03 -0.97041430630E+02 -0.19741749708E+04  0.20673026400E+04  0.15294330000E+03 0.  0.
    8880022    1    1    2    0    0 -0.58614392252E+03  0.97041430630E+02  0.80576026875E+02  0.61876157467E+03  0.15294330000E+03 0.  0.
<mgrwt>
<rscale>  0 0.61349278E+03</rscale>
<asrwt>0</asrwt>
<pdfrwt beam="1">  1        2 0.35228177E+00 0.61349278E+03</pdfrwt>
<pdfrwt beam="2">  1       -2 0.60958869E-01 0.61349278E+03</pdfrwt>
<totfact> 0.12281110E+01</totfact>
</mgrwt>
</event>
<event>
 4    1  0.5410820E-008  0.4544523E+03  0.7818608E-02  0.1026403E+00
         -2   -1    0    0    0  501 -0.00000000000E+00  0.00000000000E+00  0.10310516578E+03  0.10310516582E+03  0.25500000000E-02 0.  1.
          2   -1    0    0  501    0  0.00000000000E+00 -0.00000000000E+00 -0.27501728402E+04  0.27501728402E+04  0.25500000000E-02 0. -1.
    8880022    1    1    2    0    0  0.34217876862E+03  0.25699982187E+03 -0.20671079704E+04  0.21164740094E+04  0.15294330000E+03 0.  0.
    8880022    1    1    2    0    0 -0.34217876862E+03 -0.25699982187E+03 -0.57995970400E+03  0.73680399661E+03  0.15294330000E+03 0.  0.
<mgrwt>
<rscale>  0 0.45445228E+03</rscale>
<asrwt>0</asrwt>
<pdfrwt beam="1">  1        2 0.42310346E+00 0.45445228E+03</pdfrwt>
<pdfrwt beam="2">  1       -2 0.15862335E-01 0.45445228E+03</pdfrwt>
<totfact> 0.86694114E+01</totfact>
</mgrwt>
</event>
<event>
 4    1  0.5410820E-008  0.3811734E+03  0.7818608E-02  0.1050501E+00
         -2   -1    0    0    0  501 -0.00000000000E+00  0.00000000000E+00  0.25529900954E+03  0.25529900956E+03  0.25500000000E-02 0.  1.
          2   -1    0    0  501    0  0.00000000000E+00 -0.00000000000E+00 -0.19651374858E+04  0.19651374858E+04  0.25500000000E-02 0. -1.
    8880022    1    1    2    0    0 -0.29747785007E+03  0.18277973536E+03  0.80828776290E+02  0.38964913324E+03  0.15294330000E+03 0.  0.
    8880022    1    1    2    0    0  0.29747785007E+03 -0.18277973536E+03 -0.17906672525E+04  0.18307873621E+04  0.15294330000E+03 0.  0.
<mgrwt>
<rscale>  0 0.38117339E+03</rscale>
<asrwt>0</asrwt>
<pdfrwt beam="1">  1        2 0.30232884E+00 0.38117339E+03</pdfrwt>
<pdfrwt beam="2">  1       -2 0.39276772E-01 0.38117339E+03</pdfrwt>
<totfact> 0.46937703E+01</totfact>
</mgrwt>
</event>
<event>
 4    1  0.5410820E-008  0.6299527E+03  0.7818608E-02  0.9845141E-01
         -2   -1    0    0    0  501 -0.00000000000E+00  0.00000000000E+00  0.47116877844E+03  0.47116877845E+03  0.25500000000E-02 0.  1.
          2   -1    0    0  501    0  0.00000000000E+00 -0.00000000000E+00 -0.12489680013E+04  0.12489680013E+04  0.25500000000E-02 0. -1.
    8880022    1    1    2    0    0  0.60982581880E+03  0.39511890463E+02  0.10190175544E+03  0.63814131628E+03  0.15294330000E+03 0.  0.
    8880022    1    1    2    0    0 -0.60982581880E+03 -0.39511890463E+02 -0.87970097833E+03  0.10819954635E+04  0.15294330000E+03 0. -1.
<mgrwt>
<rscale>  0 0.62995267E+03</rscale>
<asrwt>0</asrwt>
<pdfrwt beam="1">  1        2 0.19214892E+00 0.62995267E+03</pdfrwt>
<pdfrwt beam="2">  1       -2 0.72487505E-01 0.62995267E+03</pdfrwt>
<totfact> 0.31517108E+01</totfact>
</mgrwt>
</event>
<event>
 4    1  0.5410820E-008  0.4403679E+03  0.7818608E-02  0.1030634E+00
         -2   -1    0    0    0  501 -0.00000000000E+00  0.00000000000E+00  0.16555566689E+03  0.16555566691E+03  0.25500000000E-02 0.  1.
          2   -1    0    0  501    0  0.00000000000E+00 -0.00000000000E+00 -0.25240247228E+04  0.25240247228E+04  0.25500000000E-02 0. -1.
    8880022    1    1    2    0    0  0.36443421218E+03 -0.19421628624E+03 -0.19476077009E+03  0.48151393690E+03  0.15294330000E+03 0.  0.
    8880022    1    1    2    0    0 -0.36443421218E+03  0.19421628624E+03 -0.21637082858E+04  0.22080664528E+04  0.15294330000E+03 0. -1.
<mgrwt>
<rscale>  0 0.44036793E+03</rscale>
<asrwt>0</asrwt>
<pdfrwt beam="1">  1        2 0.38831147E+00 0.44036793E+03</pdfrwt>
<pdfrwt beam="2">  1       -2 0.25470104E-01 0.44036793E+03</pdfrwt>
<totfact> 0.51359457E+01</totfact>
</mgrwt>
</event>
<event>
 4    1  0.5410820E-008  0.8018462E+03  0.7818608E-02  0.9557349E-01
         -2   -1    0    0    0  501 -0.00000000000E+00  0.00000000000E+00  0.76617391815E+03  0.76617391816E+03  0.25500000000E-02 0.  1.
          2   -1    0    0  501    0  0.00000000000E+00 -0.00000000000E+00 -0.37230700697E+04  0.37230700697E+04  0.25500000000E-02 0. -1.
    8880022    1    1    2    0    0  0.50199015453E+03  0.60627682246E+03  0.49707454326E+03  0.94341955421E+03  0.15294330000E+03 0.  0.
    8880022    1    1    2    0    0 -0.50199015453E+03 -0.60627682246E+03 -0.34539706948E+04  0.35458244337E+04  0.15294330000E+03 0.  0.
<mgrwt>
<rscale>  0 0.80184622E+03</rscale>
<asrwt>0</asrwt>
<pdfrwt beam="1">  1        2 0.57278000E+00 0.80184622E+03</pdfrwt>
<pdfrwt beam="2">  1       -2 0.11787291E+00 0.80184622E+03</pdfrwt>
<totfact> 0.33811800E-01</totfact>
</mgrwt>
</event>
<event>
 4    1  0.5410820E-008  0.4797460E+03  0.7818608E-02  0.1019205E+00
         -2   -1    0    0    0  501 -0.00000000000E+00  0.00000000000E+00  0.20370355232E+03  0.20370355233E+03  0.25500000000E-02 0.  1.
          2   -1    0    0  501    0  0.00000000000E+00 -0.00000000000E+00 -0.23164621551E+04  0.23164621551E+04  0.25500000000E-02 0. -1.
    8880022    1    1    2    0    0 -0.20729448060E+03  0.40471418935E+03 -0.19582396698E+04  0.20161495069E+04  0.15294330000E+03 0.  0.
    8880022    1    1    2    0    0  0.20729448060E+03 -0.40471418935E+03 -0.15451893300E+03  0.50401620056E+03  0.15294330000E+03 0.  0.
<mgrwt>
<rscale>  0 0.47974601E+03</rscale>
<asrwt>0</asrwt>
<pdfrwt beam="1">  1        2 0.35637878E+00 0.47974601E+03</pdfrwt>
<pdfrwt beam="2">  1       -2 0.31339010E-01 0.47974601E+03</pdfrwt>
<totfact> 0.45443381E+01</totfact>
</mgrwt>
</event>
<event>
 4    1  0.5410820E-008  0.4155184E+03  0.7818608E-02  0.1038535E+00
         -2   -1    0    0    0  501 -0.00000000000E+00  0.00000000000E+00  0.59437846830E+03  0.59437846831E+03  0.25500000000E-02 0.  1.
          2   -1    0    0  501    0  0.00000000000E+00 -0.00000000000E+00 -0.13555436282E+04  0.13555436282E+04  0.25500000000E-02 0. -1.
    8880022    1    1    2    0    0  0.36456184968E+03  0.12790047734E+03 -0.12447902786E+04  0.13123103159E+04  0.15294330000E+03 0.  0.
    8880022    1    1    2    0    0 -0.36456184968E+03 -0.12790047734E+03  0.48362511873E+03  0.63761178065E+03  0.15294330000E+03 0.  1.
<mgrwt>
<rscale>  0 0.41551838E+03</rscale>
<asrwt>0</asrwt>
<pdfrwt beam="1">  1        2 0.20854517E+00 0.41551838E+03</pdfrwt>
<pdfrwt beam="2">  1       -2 0.91442842E-01 0.41551838E+03</pdfrwt>
<totfact> 0.16865963E+01</totfact>
</mgrwt>
</event>
<event>
 4    1  0.5410820E-008  0.4480315E+03  0.7818608E-02  0.1028311E+00
          2   -1    0    0  501    0  0.00000000000E+00  0.00000000000E+00  0.86215944225E+03  0.86215944226E+03  0.25500000000E-02 0. -1.
         -2   -1    0    0    0  501 -0.00000000000E+00 -0.00000000000E+00 -0.42806143555E+03  0.42806143555E+03  0.25500000000E-02 0.  1.
    8880022    1    1    2    0    0  0.46046801309E+02 -0.41859318961E+03  0.65272288085E+03  0.79169399297E+03  0.15294330000E+03 0.  0.
    8880022    1    1    2    0    0 -0.46046801309E+02  0.41859318961E+03 -0.21862487415E+03  0.49852688484E+03  0.15294330000E+03 0.  0.
<mgrwt>
<rscale>  0 0.44803149E+03</rscale>
<asrwt>0</asrwt>
<pdfrwt beam="1">  1        2 0.13263991E+00 0.44803149E+03</pdfrwt>
<pdfrwt beam="2">  1       -2 0.65855606E-01 0.44803149E+03</pdfrwt>
<totfact> 0.68952963E+01</totfact>
</mgrwt>
</event>
<event>
 4    1  0.5410820E-008  0.6554349E+03  0.7818608E-02  0.9796634E-01
          2   -1    0    0  501    0  0.00000000000E+00  0.00000000000E+00  0.14005077430E+04  0.14005077430E+04  0.25500000000E-02 0. -1.
         -2   -1    0    0    0  501 -0.00000000000E+00 -0.00000000000E+00 -0.59814410435E+03  0.59814410436E+03  0.25500000000E-02 0.  1.
    8880022    1    1    2    0    0  0.56225928750E+03 -0.30011293537E+03  0.10986917195E+04  0.12793429673E+04  0.15294330000E+03 0.  0.
    8880022    1    1    2    0    0 -0.56225928750E+03  0.30011293537E+03 -0.29632808091E+03  0.71930888004E+03  0.15294330000E+03 0.  0.
<mgrwt>
<rscale>  0 0.65543492E+03</rscale>
<asrwt>0</asrwt>
<pdfrwt beam="1">  1        2 0.21546273E+00 0.65543492E+03</pdfrwt>
<pdfrwt beam="2">  1       -2 0.92022170E-01 0.65543492E+03</pdfrwt>
<totfact> 0.15032073E+01</totfact>
</mgrwt>
</event>
<event>
 4    1  0.5410820E-008  0.4863634E+03  0.7818608E-02  0.1017401E+00
         -2   -1    0    0    0  501 -0.00000000000E+00  0.00000000000E+00  0.10057475697E+04  0.10057475697E+04  0.25500000000E-02 0.  1.
          2   -1    0    0  501    0  0.00000000000E+00 -0.00000000000E+00 -0.37459613126E+03  0.37459613127E+03  0.25500000000E-02 0. -1.
    8880022    1    1    2    0    0 -0.37365146105E+03 -0.27118687271E+03 -0.10544623183E+03  0.49766283275E+03  0.15294330000E+03 0.  0.
    8880022    1    1    2    0    0  0.37365146105E+03  0.27118687271E+03  0.73659767024E+03  0.88268086821E+03  0.15294330000E+03 0.  0.
<mgrwt>
<rscale>  0 0.48636343E+03</rscale>
<asrwt>0</asrwt>
<pdfrwt beam="1">  1        2 0.57630175E-01 0.48636343E+03</pdfrwt>
<pdfrwt beam="2">  1       -2 0.15473039E+00 0.48636343E+03</pdfrwt>
<totfact> 0.24536192E+01</totfact>
</mgrwt>
</event>
<event>
 4    1  0.5410820E-008  0.4711308E+03  0.7818608E-02  0.1021602E+00
          2   -1    0    0  501    0  0.00000000000E+00  0.00000000000E+00  0.19511444818E+04  0.19511444818E+04  0.25500000000E-02 0. -1.
         -2   -1    0    0    0  501 -0.00000000000E+00 -0.00000000000E+00 -0.62414411568E+03  0.62414411569E+03  0.25500000000E-02 0.  1.
    8880022    1    1    2    0    0 -0.34043296677E+03  0.28753770039E+03  0.18278986093E+04  0.18876380779E+04  0.15294330000E+03 0.  0.
    8880022    1    1    2    0    0  0.34043296677E+03 -0.28753770039E+03 -0.50089824323E+03  0.68765051960E+03  0.15294330000E+03 0.  0.
<mgrwt>
<rscale>  0 0.47113075E+03</rscale>
<asrwt>0</asrwt>
<pdfrwt beam="1">  1        2 0.30017607E+00 0.47113075E+03</pdfrwt>
<pdfrwt beam="2">  1       -2 0.96022172E-01 0.47113075E+03</pdfrwt>
<totfact> 0.70721535E+00</totfact>
</mgrwt>
</event>
<event>
 4    1  0.5410820E-008  0.3167633E+03  0.7818608E-02  0.1077149E+00
          2   -1    0    0  501    0  0.00000000000E+00  0.00000000000E+00  0.77246627027E+03  0.77246627027E+03  0.25500000000E-02 0. -1.
         -2   -1    0    0    0  501 -0.00000000000E+00 -0.00000000000E+00 -0.52996579893E+03  0.52996579894E+03  0.25500000000E-02 0.  1.
    8880022    1    1    2    0    0 -0.12853490141E+03  0.24581727965E+03  0.68705935111E+03  0.75656431374E+03  0.15294330000E+03 0.  0.
    8880022    1    1    2    0    0  0.12853490141E+03 -0.24581727965E+03 -0.44455887978E+03  0.54586775547E+03  0.15294330000E+03 0.  0.
<mgrwt>
<rscale>  0 0.31676333E+03</rscale>
<asrwt>0</asrwt>
<pdfrwt beam="1">  1        2 0.11884096E+00 0.31676333E+03</pdfrwt>
<pdfrwt beam="2">  1       -2 0.81533200E-01 0.31676333E+03</pdfrwt>
<totfact> 0.50928804E+01</totfact>
</mgrwt>
</event>
<event>
 4    1  0.5410820E-008  0.9538694E+03  0.7818608E-02  0.9360639E-01
         -2   -1    0    0    0  501 -0.00000000000E+00  0.00000000000E+00  0.79451735466E+03  0.79451735466E+03  0.25500000000E-02 0.  1.
          2   -1    0    0  501    0  0.00000000000E+00 -0.00000000000E+00 -0.15577193616E+04  0.15577193616E+04  0.25500000000E-02 0. -1.
    8880022    1    1    2    0    0 -0.93239526719E+03 -0.13082160642E+03  0.22365363317E+03  0.97973865272E+03  0.15294330000E+03 0.  0.
    8880022    1    1    2    0    0  0.93239526719E+03  0.13082160642E+03 -0.98685564008E+03  0.13724980635E+04  0.15294330000E+03 0.  0.
<mgrwt>
<rscale>  0 0.95386943E+03</rscale>
<asrwt>0</asrwt>
<pdfrwt beam="1">  1        2 0.23964913E+00 0.95386943E+03</pdfrwt>
<pdfrwt beam="2">  1       -2 0.12223344E+00 0.95386943E+03</pdfrwt>
<totfact> 0.59697916E+00</totfact>
</mgrwt>
</event>
<event>
 4    1  0.5410820E-008  0.8360807E+03  0.7818608E-02  0.9509212E-01
          2   -1    0    0  501    0  0.00000000000E+00  0.00000000000E+00  0.20206402827E+04  0.20206402827E+04  0.25500000000E-02 0. -1.
         -2   -1    0    0    0  501 -0.00000000000E+00 -0.00000000000E+00 -0.44879478636E+03  0.44879478637E+03  0.25500000000E-02 0.  1.
    8880022    1    1    2    0    0  0.81057083917E+03 -0.13643376565E+03  0.13770008640E+04  0.16109507411E+04  0.15294330000E+03 0.  0.
    8880022    1    1    2    0    0 -0.81057083917E+03  0.13643376565E+03  0.19484463241E+03  0.85848432805E+03  0.15294330000E+03 0.  0.
<mgrwt>
<rscale>  0 0.83608068E+03</rscale>
<asrwt>0</asrwt>
<pdfrwt beam="1">  1        2 0.31086773E+00 0.83608068E+03</pdfrwt>
<pdfrwt beam="2">  1       -2 0.69045354E-01 0.83608068E+03</pdfrwt>
<totfact> 0.12752512E+01</totfact>
</mgrwt>
</event>
<event>
 4    1  0.5410820E-008  0.7513371E+03  0.7818608E-02  0.9633255E-01
          2   -1    0    0  501    0  0.00000000000E+00  0.00000000000E+00  0.36179031288E+04  0.36179031288E+04  0.25500000000E-02 0. -1.
         -2   -1    0    0    0  501 -0.00000000000E+00 -0.00000000000E+00 -0.27766111168E+03  0.27766111169E+03  0.25500000000E-02 0.  1.
    8880022    1    1    2    0    0 -0.17482140742E+03 -0.71453008747E+03  0.29592673605E+04  0.30531575024E+04  0.15294330000E+03 0.  0.
    8880022    1    1    2    0    0  0.17482140742E+03  0.71453008747E+03  0.38097465659E+03  0.84240673809E+03  0.15294330000E+03 0.  0.
<mgrwt>
<rscale>  0 0.75133709E+03</rscale>
<asrwt>0</asrwt>
<pdfrwt beam="1">  1        2 0.55660043E+00 0.75133709E+03</pdfrwt>
<pdfrwt beam="2">  1       -2 0.42717098E-01 0.75133709E+03</pdfrwt>
<totfact> 0.37935455E+00</totfact>
</mgrwt>
</event>
<event>
 4    1  0.5410820E-008  0.5670926E+03  0.7818608E-02  0.9976133E-01
         -2   -1    0    0    0  501 -0.00000000000E+00  0.00000000000E+00  0.32207146653E+03  0.32207146654E+03  0.25500000000E-02 0.  1.
          2   -1    0    0  501    0  0.00000000000E+00 -0.00000000000E+00 -0.10278265666E+04  0.10278265666E+04  0.25500000000E-02 0. -1.
    8880022    1    1    2    0    0 -0.42228828405E+03  0.34622956692E+03 -0.46685340058E+03  0.73453798983E+03  0.15294330000E+03 0.  0.
    8880022    1    1    2    0    0  0.42228828405E+03 -0.34622956692E+03 -0.23890169945E+03  0.61536004328E+03  0.15294330000E+03 0.  0.
<mgrwt>
<rscale>  0 0.56709255E+03</rscale>
<asrwt>0</asrwt>
<pdfrwt beam="1">  1        2 0.15812716E+00 0.56709255E+03</pdfrwt>
<pdfrwt beam="2">  1       -2 0.49549457E-01 0.56709255E+03</pdfrwt>
<totfact> 0.96002723E+01</totfact>
</mgrwt>
</event>
<event>
 4    1  0.5410820E-008  0.1863533E+04  0.7818608E-02  0.8673224E-01
         -2   -1    0    0    0  501 -0.00000000000E+00  0.00000000000E+00  0.13105577165E+04  0.13105577165E+04  0.25500000000E-02 0.  1.
          2   -1    0    0  501    0  0.00000000000E+00 -0.00000000000E+00 -0.43522941525E+04  0.43522941525E+04  0.25500000000E-02 0. -1.
    8880022    1    1    2    0    0  0.12938966355E+04 -0.13323648422E+04  0.24999480324E+03  0.18802270158E+04  0.15294330000E+03 0.  0.
    8880022    1    1    2    0    0 -0.12938966355E+04  0.13323648422E+04 -0.32917312392E+04  0.37826248532E+04  0.15294330000E+03 0.  0.
<mgrwt>
<rscale>  0 0.18635333E+04</rscale>
<asrwt>0</asrwt>
<pdfrwt beam="1">  1        2 0.66958371E+00 0.18635333E+04</pdfrwt>
<pdfrwt beam="2">  1       -2 0.20162427E+00 0.18635333E+04</pdfrwt>
<totfact> 0.20153160E-02</totfact>
</mgrwt>
</event>
<event>
 4    1  0.6596240E-008  0.7518400E+03  0.7818608E-02  0.9632468E-01
         -2   -1    0    0    0  501 -0.00000000000E+00  0.00000000000E+00  0.66797405339E+03  0.66797405339E+03  0.25500000000E-02 0.  1.
          2   -1    0    0  501    0  0.00000000000E+00 -0.00000000000E+00 -0.36350354809E+04  0.36350354809E+04  0.25500000000E-02 0. -1.
    8880022    1    1    2    0    0  0.15926843912E+03 -0.71868305256E+03 -0.33680329701E+04  0.34509287889E+04  0.15294330000E+03 0.  0.
    8880022    1    1    2    0    0 -0.15926843912E+03  0.71868305256E+03  0.40097154253E+03  0.85208074540E+03  0.15294330000E+03 0.  0.
<mgrwt>
<rscale>  0 0.75184002E+03</rscale>
<asrwt>0</asrwt>
<pdfrwt beam="1">  1        2 0.55923621E+00 0.75184002E+03</pdfrwt>
<pdfrwt beam="2">  1       -2 0.10276524E+00 0.75184002E+03</pdfrwt>
<totfact> 0.55185868E-01</totfact>
</mgrwt>
</event>
<event>
 4    1  0.5410820E-008  0.5003717E+03  0.7818608E-02  0.1013682E+00
         -2   -1    0    0    0  501 -0.00000000000E+00  0.00000000000E+00  0.29827585721E+03  0.29827585722E+03  0.25500000000E-02 0.  1.
          2   -1    0    0  501    0  0.00000000000E+00 -0.00000000000E+00 -0.99272668770E+03  0.99272668770E+03  0.25500000000E-02 0. -1.
    8880022    1    1    2    0    0 -0.15516309300E+03 -0.45044930378E+03 -0.60091088793E+03  0.78196272862E+03  0.15294330000E+03 0.  0.
    8880022    1    1    2    0    0  0.15516309300E+03  0.45044930378E+03 -0.93539942563E+02  0.50903981630E+03  0.15294330000E+03 0.  0.
<mgrwt>
<rscale>  0 0.50037168E+03</rscale>
<asrwt>0</asrwt>
<pdfrwt beam="1">  1        2 0.15272718E+00 0.50037168E+03</pdfrwt>
<pdfrwt beam="2">  1       -2 0.45888594E-01 0.50037168E+03</pdfrwt>
<totfact> 0.11861010E+02</totfact>
</mgrwt>
</event>
<event>
 4    1  0.5410820E-008  0.3988518E+03  0.7818608E-02  0.1044178E+00
         -2   -1    0    0    0  501 -0.00000000000E+00  0.00000000000E+00  0.63152293459E+03  0.63152293460E+03  0.25500000000E-02 0.  1.
          2   -1    0    0  501    0  0.00000000000E+00 -0.00000000000E+00 -0.14657335879E+04  0.14657335879E+04  0.25500000000E-02 0. -1.
    8880022    1    1    2    0    0 -0.35761584443E+03 -0.88329168100E+02  0.53716847619E+03  0.66905362936E+03  0.15294330000E+03 0.  0.
    8880022    1    1    2    0    0  0.35761584443E+03  0.88329168100E+02 -0.13713791295E+04  0.14282028931E+04  0.15294330000E+03 0.  0.
<mgrwt>
<rscale>  0 0.39885184E+03</rscale>
<asrwt>0</asrwt>
<pdfrwt beam="1">  1        2 0.22549747E+00 0.39885184E+03</pdfrwt>
<pdfrwt beam="2">  1       -2 0.97157375E-01 0.39885184E+03</pdfrwt>
<totfact> 0.12795020E+01</totfact>
</mgrwt>
</event>
<event>
 4    1  0.5410820E-008  0.3068401E+03  0.7818608E-02  0.1081870E+00
          2   -1    0    0  501    0  0.00000000000E+00  0.00000000000E+00  0.13984586932E+04  0.13984586932E+04  0.25500000000E-02 0. -1.
         -2   -1    0    0    0  501 -0.00000000000E+00 -0.00000000000E+00 -0.28817066695E+03  0.28817066696E+03  0.25500000000E-02 0.  1.
    8880022    1    1    2    0    0  0.15971289537E+03  0.21272276975E+03 -0.18311624825E+03  0.35732673998E+03  0.15294330000E+03 0.  0.
    8880022    1    1    2    0    0 -0.15971289537E+03 -0.21272276975E+03  0.12934042745E+04  0.13293026202E+04  0.15294330000E+03 0. -1.
<mgrwt>
<rscale>  0 0.30684009E+03</rscale>
<asrwt>0</asrwt>
<pdfrwt beam="1">  1        2 0.21514749E+00 0.30684009E+03</pdfrwt>
<pdfrwt beam="2">  1       -2 0.44333950E-01 0.30684009E+03</pdfrwt>
<totfact> 0.75923372E+01</totfact>
</mgrwt>
</event>
<event>
 4    1  0.5410820E-008  0.1108839E+04  0.7818608E-02  0.9196620E-01
          2   -1    0    0  501    0  0.00000000000E+00  0.00000000000E+00  0.96753688844E+03  0.96753688844E+03  0.25500000000E-02 0. -1.
         -2   -1    0    0    0  501 -0.00000000000E+00 -0.00000000000E+00 -0.14699972828E+04  0.14699972828E+04  0.25500000000E-02 0.  1.
    8880022    1    1    2    0    0 -0.10137786343E+04 -0.42235625779E+03  0.19744212163E+03  0.11262801482E+04  0.15294330000E+03 0.  0.
    8880022    1    1    2    0    0  0.10137786343E+04  0.42235625779E+03 -0.69990251601E+03  0.13112540230E+04  0.15294330000E+03 0.  0.
<mgrwt>
<rscale>  0 0.11088388E+04</rscale>
<asrwt>0</asrwt>
<pdfrwt beam="1">  1        2 0.14885183E+00 0.11088388E+04</pdfrwt>
<pdfrwt beam="2">  1       -2 0.22615343E+00 0.11088388E+04</pdfrwt>
<totfact> 0.23475483E+00</totfact>
</mgrwt>
</event>
<event>
 4    1  0.5410820E-008  0.5238930E+03  0.7818608E-02  0.1007724E+00
         -2   -1    0    0    0  501 -0.00000000000E+00  0.00000000000E+00  0.26812718288E+03  0.26812718289E+03  0.25500000000E-02 0.  1.
          2   -1    0    0  501    0  0.00000000000E+00 -0.00000000000E+00 -0.33811711628E+04  0.33811711628E+04  0.25500000000E-02 0. -1.
    8880022    1    1    2    0    0  0.96816251097E+02  0.49162875037E+03 -0.30801366761E+04  0.31243728668E+04  0.15294330000E+03 0.  0.
    8880022    1    1    2    0    0 -0.96816251097E+02 -0.49162875037E+03 -0.32907303816E+02  0.52492547883E+03  0.15294330000E+03 0.  0.
<mgrwt>
<rscale>  0 0.52389299E+03</rscale>
<asrwt>0</asrwt>
<pdfrwt beam="1">  1        2 0.52018015E+00 0.52389299E+03</pdfrwt>
<pdfrwt beam="2">  1       -2 0.41250338E-01 0.52389299E+03</pdfrwt>
<totfact> 0.62266053E+00</totfact>
</mgrwt>
</event>
<event>
 4    1  0.5410820E-008  0.3551812E+03  0.7818608E-02  0.1060508E+00
          2   -1    0    0  501    0  0.00000000000E+00  0.00000000000E+00  0.47007624725E+03  0.47007624726E+03  0.25500000000E-02 0. -1.
         -2   -1    0    0    0  501 -0.00000000000E+00 -0.00000000000E+00 -0.62417184534E+03  0.62417184535E+03  0.25500000000E-02 0.  1.
    8880022    1    1    2    0    0 -0.17064541169E+03  0.27137085322E+03 -0.49013214631E+03  0.60529593619E+03  0.15294330000E+03 0.  1.
    8880022    1    1    2    0    0  0.17064541169E+03 -0.27137085322E+03  0.33603654822E+03  0.48895215641E+03  0.15294330000E+03 0. -1.
<mgrwt>
<rscale>  0 0.35518115E+03</rscale>
<asrwt>0</asrwt>
<pdfrwt beam="1">  1        2 0.72319423E-01 0.35518115E+03</pdfrwt>
<pdfrwt beam="2">  1       -2 0.96026438E-01 0.35518115E+03</pdfrwt>
<totfact> 0.62886464E+01</totfact>
</mgrwt>
</event>
<event>
 4    1  0.5410820E-008  0.6264551E+03  0.7818608E-02  0.9851991E-01
         -2   -1    0    0    0  501 -0.00000000000E+00  0.00000000000E+00  0.13624806908E+03  0.13624806910E+03  0.25500000000E-02 0.  1.
          2   -1    0    0  501    0  0.00000000000E+00 -0.00000000000E+00 -0.33149394495E+04  0.33149394495E+04  0.25500000000E-02 0. -1.
    8880022    1    1    2    0    0  0.32095143618E+03 -0.51579498268E+03 -0.96456678618E+03  0.11501456545E+04  0.15294330000E+03 0.  0.
    8880022    1    1    2    0    0 -0.32095143618E+03  0.51579498268E+03 -0.22141245942E+04  0.23010418641E+04  0.15294330000E+03 0.  0.
<mgrwt>
<rscale>  0 0.62645506E+03</rscale>
<asrwt>0</asrwt>
<pdfrwt beam="1">  1        2 0.50999063E+00 0.62645506E+03</pdfrwt>
<pdfrwt beam="2">  1       -2 0.20961244E-01 0.62645506E+03</pdfrwt>
<totfact> 0.23396023E+01</totfact>
</mgrwt>
</event>
<event>
 4    1  0.5410820E-008  0.3947540E+03  0.7818608E-02  0.1045611E+00
          2   -1    0    0  501    0  0.00000000000E+00  0.00000000000E+00  0.14657714479E+04  0.14657714479E+04  0.25500000000E-02 0. -1.
         -2   -1    0    0    0  501 -0.00000000000E+00 -0.00000000000E+00 -0.76040264320E+03  0.76040264320E+03  0.25500000000E-02 0.  1.
    8880022    1    1    2    0    0  0.17606887834E+03  0.31849465425E+03  0.13850319089E+04  0.14401889239E+04  0.15294330000E+03 0.  0.
    8880022    1    1    2    0    0 -0.17606887834E+03 -0.31849465425E+03 -0.67966310427E+03  0.78598516718E+03  0.15294330000E+03 0.  0.
<mgrwt>
<rscale>  0 0.39475403E+03</rscale>
<asrwt>0</asrwt>
<pdfrwt beam="1">  1        2 0.22550330E+00 0.39475403E+03</pdfrwt>
<pdfrwt beam="2">  1       -2 0.11698502E+00 0.39475403E+03</pdfrwt>
<totfact> 0.82315825E+00</totfact>
</mgrwt>
</event>
<event>
 4    1  0.5410820E-008  0.6433504E+03  0.7818608E-02  0.9819337E-01
          2   -1    0    0  501    0  0.00000000000E+00  0.00000000000E+00  0.56877841919E+03  0.56877841920E+03  0.25500000000E-02 0. -1.
         -2   -1    0    0    0  501 -0.00000000000E+00 -0.00000000000E+00 -0.11125249547E+04  0.11125249547E+04  0.25500000000E-02 0.  1.
    8880022    1    1    2    0    0 -0.56917928171E+03  0.25795937636E+03  0.22254342733E+03  0.68075349771E+03  0.15294330000E+03 0.  0.
    8880022    1    1    2    0    0  0.56917928171E+03 -0.25795937636E+03 -0.76628996282E+03  0.10005498762E+04  0.15294330000E+03 0.  0.
<mgrwt>
<rscale>  0 0.64335041E+03</rscale>
<asrwt>0</asrwt>
<pdfrwt beam="1">  1        2 0.87504373E-01 0.64335041E+03</pdfrwt>
<pdfrwt beam="2">  1       -2 0.17115768E+00 0.64335041E+03</pdfrwt>
<totfact> 0.11374412E+01</totfact>
</mgrwt>
</event>
<event>
 4    1  0.5410820E-008  0.2341302E+03  0.7818608E-02  0.1123766E+00
         -2   -1    0    0    0  501 -0.00000000000E+00  0.00000000000E+00  0.57747961877E+02  0.57747961934E+02  0.25500000000E-02 0.  1.
          2   -1    0    0  501    0  0.00000000000E+00 -0.00000000000E+00 -0.31784729145E+04  0.31784729145E+04  0.25500000000E-02 0. -1.
    8880022    1    1    2    0    0  0.77456479522E+02  0.15945467587E+03 -0.20524746175E+03  0.31135746891E+03  0.15294330000E+03 0.  0.
    8880022    1    1    2    0    0 -0.77456479522E+02 -0.15945467587E+03 -0.29154774909E+04  0.29248634075E+04  0.15294330000E+03 0. -1.
<mgrwt>
<rscale>  0 0.23413020E+03</rscale>
<asrwt>0</asrwt>
<pdfrwt beam="1">  1        2 0.48899570E+00 0.23413020E+03</pdfrwt>
<pdfrwt beam="2">  1       -2 0.88843043E-02 0.23413020E+03</pdfrwt>
<totfact> 0.13239714E+02</totfact>
</mgrwt>
</event>
<event>
 4    1  0.5410820E-008  0.8068899E+03  0.7818608E-02  0.9550097E-01
         -2   -1    0    0    0  501 -0.00000000000E+00  0.00000000000E+00  0.32372529137E+03  0.32372529138E+03  0.25500000000E-02 0.  1.
          2   -1    0    0  501    0  0.00000000000E+00 -0.00000000000E+00 -0.33380037295E+04  0.33380037295E+04  0.25500000000E-02 0. -1.
    8880022    1    1    2    0    0  0.41613563765E+03 -0.67417421155E+03 -0.35283940692E+03  0.88066283930E+03  0.15294330000E+03 0.  0.
    8880022    1    1    2    0    0 -0.41613563765E+03  0.67417421155E+03 -0.26614390313E+04  0.27810661816E+04  0.15294330000E+03 0.  0.
<mgrwt>
<rscale>  0 0.80688995E+03</rscale>
<asrwt>0</asrwt>
<pdfrwt beam="1">  1        2 0.51353901E+00 0.80688995E+03</pdfrwt>
<pdfrwt beam="2">  1       -2 0.49803893E-01 0.80688995E+03</pdfrwt>
<totfact> 0.42734835E+00</totfact>
</mgrwt>
</event>
<event>
 4    1  0.5410820E-008  0.5343253E+03  0.7818608E-02  0.1005189E+00
         -2   -1    0    0    0  501 -0.00000000000E+00  0.00000000000E+00  0.37096650360E+03  0.37096650361E+03  0.25500000000E-02 0.  1.
          2   -1    0    0  501    0  0.00000000000E+00 -0.00000000000E+00 -0.19305093256E+04  0.19305093256E+04  0.25500000000E-02 0. -1.
    8880022    1    1    2    0    0 -0.51171979060E+03 -0.15960883335E+02  0.11257961022E+03  0.54605651314E+03  0.15294330000E+03 0.  0.
    8880022    1    1    2    0    0  0.51171979060E+03  0.15960883335E+02 -0.16721224322E+04  0.17554193161E+04  0.15294330000E+03 0.  0.
<mgrwt>
<rscale>  0 0.53432532E+03</rscale>
<asrwt>0</asrwt>
<pdfrwt beam="1">  1        2 0.29700143E+00 0.53432532E+03</pdfrwt>
<pdfrwt beam="2">  1       -2 0.57071771E-01 0.53432532E+03</pdfrwt>
<totfact> 0.22456130E+01</totfact>
</mgrwt>
</event>
<event>
 4    1  0.5410820E-008  0.1249923E+04  0.7818608E-02  0.9070247E-01
         -2   -1    0    0    0  501 -0.00000000000E+00  0.00000000000E+00  0.15338764045E+04  0.15338764045E+04  0.25500000000E-02 0.  1.
          2   -1    0    0  501    0  0.00000000000E+00 -0.00000000000E+00 -0.17069601758E+04  0.17069601758E+04  0.25500000000E-02 0. -1.
    8880022    1    1    2    0    0 -0.10697252344E+04  0.62817578249E+03 -0.11156084231E+04  0.16753777776E+04  0.15294330000E+03 0.  0.
    8880022    1    1    2    0    0  0.10697252344E+04 -0.62817578249E+03  0.94252465185E+03  0.15654588028E+04  0.15294330000E+03 0.  0.
<mgrwt>
<rscale>  0 0.12499234E+04</rscale>
<asrwt>0</asrwt>
<pdfrwt beam="1">  1        2 0.26260926E+00 0.12499234E+04</pdfrwt>
<pdfrwt beam="2">  1       -2 0.23598099E+00 0.12499234E+04</pdfrwt>
<totfact> 0.73593371E-01</totfact>
</mgrwt>
</event>
<event>
 4    1  0.5410820E-008  0.1966583E+03  0.7818608E-02  0.1152589E+00
          2   -1    0    0  501    0  0.00000000000E+00  0.00000000000E+00  0.27130366113E+03  0.27130366114E+03  0.25500000000E-02 0. -1.
         -2   -1    0    0    0  501 -0.00000000000E+00 -0.00000000000E+00 -0.26929313684E+03  0.26929313686E+03  0.25500000000E-02 0.  1.
    8880022    1    1    2    0    0  0.10798926457E+03 -0.60175980192E+02 -0.18442991978E+03  0.26960875019E+03  0.15294330000E+03 0.  0.
    8880022    1    1    2    0    0 -0.10798926457E+03  0.60175980192E+02  0.18644044407E+03  0.27098804781E+03  0.15294330000E+03 0. -1.
<mgrwt>
<rscale>  0 0.19665829E+03</rscale>
<asrwt>0</asrwt>
<pdfrwt beam="1">  1        2 0.41739025E-01 0.19665829E+03</pdfrwt>
<pdfrwt beam="2">  1       -2 0.41429713E-01 0.19665829E+03</pdfrwt>
<totfact> 0.67948059E+02</totfact>
</mgrwt>
</event>
<event>
 4    1  0.5410820E-008  0.1039388E+04  0.7818608E-02  0.9266370E-01
         -2   -1    0    0    0  501 -0.00000000000E+00  0.00000000000E+00  0.10703251699E+04  0.10703251699E+04  0.25500000000E-02 0.  1.
          2   -1    0    0  501    0  0.00000000000E+00 -0.00000000000E+00 -0.19517429468E+04  0.19517429468E+04  0.25500000000E-02 0. -1.
    8880022    1    1    2    0    0  0.97664146223E+03 -0.32110172040E+03  0.60926933424E+03  0.12047969270E+04  0.15294330000E+03 0. -1.
    8880022    1    1    2    0    0 -0.97664146223E+03  0.32110172040E+03 -0.14906871112E+04  0.18172711897E+04  0.15294330000E+03 0.  1.
<mgrwt>
<rscale>  0 0.10393876E+04</rscale>
<asrwt>0</asrwt>
<pdfrwt beam="1">  1        2 0.30026814E+00 0.10393876E+04</pdfrwt>
<pdfrwt beam="2">  1       -2 0.16466541E+00 0.10393876E+04</pdfrwt>
<totfact> 0.16407127E+00</totfact>
</mgrwt>
</event>
<event>
 4    1  0.5410820E-008  0.4120167E+03  0.7818608E-02  0.1039696E+00
         -2   -1    0    0    0  501 -0.00000000000E+00  0.00000000000E+00  0.16612073534E+03  0.16612073536E+03  0.25500000000E-02 0.  1.
          2   -1    0    0  501    0  0.00000000000E+00 -0.00000000000E+00 -0.26146278174E+04  0.26146278174E+04  0.25500000000E-02 0. -1.
    8880022    1    1    2    0    0 -0.22230712163E+03  0.31136095324E+03 -0.13908196211E+03  0.43485807424E+03  0.15294330000E+03 0.  1.
    8880022    1    1    2    0    0  0.22230712163E+03 -0.31136095324E+03 -0.23094251199E+04  0.23458904785E+04  0.15294330000E+03 0. -1.
<mgrwt>
<rscale>  0 0.41201669E+03</rscale>
<asrwt>0</asrwt>
<pdfrwt beam="1">  1        2 0.40225040E+00 0.41201669E+03</pdfrwt>
<pdfrwt beam="2">  1       -2 0.25557038E-01 0.41201669E+03</pdfrwt>
<totfact> 0.45716784E+01</totfact>
</mgrwt>
</event>
<event>
 4    1  0.5410820E-008  0.5675647E+03  0.7818608E-02  0.9975082E-01
         -2   -1    0    0    0  501 -0.00000000000E+00  0.00000000000E+00  0.19447483634E+03  0.19447483636E+03  0.25500000000E-02 0.  1.
          2   -1    0    0  501    0  0.00000000000E+00 -0.00000000000E+00 -0.36088615493E+04  0.36088615493E+04  0.25500000000E-02 0. -1.
    8880022    1    1    2    0    0  0.36557243450E+03  0.40631868896E+03 -0.30844382894E+03  0.64596232900E+03  0.15294330000E+03 0.  1.
    8880022    1    1    2    0    0 -0.36557243450E+03 -0.40631868896E+03 -0.31059428840E+04  0.31573740567E+04  0.15294330000E+03 0.  0.
<mgrwt>
<rscale>  0 0.56756474E+03</rscale>
<asrwt>0</asrwt>
<pdfrwt beam="1">  1        2 0.55520942E+00 0.56756474E+03</pdfrwt>
<pdfrwt beam="2">  1       -2 0.29919208E-01 0.56756474E+03</pdfrwt>
<totfact> 0.79364556E+00</totfact>
</mgrwt>
</event>
<event>
 4    1  0.5410820E-008  0.5261780E+03  0.7818608E-02  0.1007163E+00
         -2   -1    0    0    0  501 -0.00000000000E+00  0.00000000000E+00  0.26800965370E+03  0.26800965371E+03  0.25500000000E-02 0.  1.
          2   -1    0    0  501    0  0.00000000000E+00 -0.00000000000E+00 -0.12317767320E+04  0.12317767320E+04  0.25500000000E-02 0. -1.
    8880022    1    1    2    0    0  0.49254725675E+03  0.10425351373E+03 -0.78309977281E+03  0.94345561764E+03  0.15294330000E+03 0. -1.
    8880022    1    1    2    0    0 -0.49254725675E+03 -0.10425351373E+03 -0.18066730553E+03  0.55633076812E+03  0.15294330000E+03 0.  1.
<mgrwt>
<rscale>  0 0.52617796E+03</rscale>
<asrwt>0</asrwt>
<pdfrwt beam="1">  1        2 0.18950411E+00 0.52617796E+03</pdfrwt>
<pdfrwt beam="2">  1       -2 0.41232255E-01 0.52617796E+03</pdfrwt>
<totfact> 0.10480407E+02</totfact>
</mgrwt>
</event>
<event>
 4    1  0.5410820E-008  0.3917917E+03  0.7818608E-02  0.1046660E+00
         -2   -1    0    0    0  501 -0.00000000000E+00  0.00000000000E+00  0.92247724802E+03  0.92247724803E+03  0.25500000000E-02 0.  1.
          2   -1    0    0  501    0  0.00000000000E+00 -0.00000000000E+00 -0.18128405403E+03  0.18128405405E+03  0.25500000000E-02 0. -1.
    8880022    1    1    2    0    0  0.12487446481E+03 -0.33840126993E+03  0.52872803809E+03  0.65806841797E+03  0.15294330000E+03 0.  0.
    8880022    1    1    2    0    0 -0.12487446481E+03  0.33840126993E+03  0.21246515591E+03  0.44569288410E+03  0.15294330000E+03 0.  0.
<mgrwt>
<rscale>  0 0.39179166E+03</rscale>
<asrwt>0</asrwt>
<pdfrwt beam="1">  1        2 0.27889855E-01 0.39179166E+03</pdfrwt>
<pdfrwt beam="2">  1       -2 0.14191958E+00 0.39179166E+03</pdfrwt>
<totfact> 0.69207660E+01</totfact>
</mgrwt>
</event>
<event>
 4    1  0.5410820E-008  0.2845111E+03  0.7818608E-02  0.1093250E+00
          2   -1    0    0  501    0  0.00000000000E+00  0.00000000000E+00  0.56103262307E+03  0.56103262308E+03  0.25500000000E-02 0. -1.
         -2   -1    0    0    0  501 -0.00000000000E+00 -0.00000000000E+00 -0.15329558861E+03  0.15329558863E+03  0.25500000000E-02 0.  1.
    8880022    1    1    2    0    0 -0.86968193833E+02  0.22358765197E+03  0.11725874053E+03  0.30772742825E+03  0.15294330000E+03 0.  1.
    8880022    1    1    2    0    0  0.86968193833E+02 -0.22358765197E+03  0.29047829393E+03  0.40660078346E+03  0.15294330000E+03 0. -1.
<mgrwt>
<rscale>  0 0.28451109E+03</rscale>
<asrwt>0</asrwt>
<pdfrwt beam="1">  1        2 0.86312711E-01 0.28451109E+03</pdfrwt>
<pdfrwt beam="2">  1       -2 0.23583937E-01 0.28451109E+03</pdfrwt>
<totfact> 0.86238991E+02</totfact>
</mgrwt>
</event>
<event>
 4    1  0.5410820E-008  0.3481253E+03  0.7818608E-02  0.1063387E+00
          2   -1    0    0  501    0  0.00000000000E+00  0.00000000000E+00  0.72808547523E+03  0.72808547523E+03  0.25500000000E-02 0. -1.
         -2   -1    0    0    0  501 -0.00000000000E+00 -0.00000000000E+00 -0.73403852398E+03  0.73403852399E+03  0.25500000000E-02 0.  1.
    8880022    1    1    2    0    0 -0.31126661740E+03  0.30210535793E+02 -0.64582829706E+03  0.73367937539E+03  0.15294330000E+03 0.  0.
    8880022    1    1    2    0    0  0.31126661740E+03 -0.30210535793E+02  0.63987524830E+03  0.72844462383E+03  0.15294330000E+03 0.  0.
<mgrwt>
<rscale>  0 0.34812532E+03</rscale>
<asrwt>0</asrwt>
<pdfrwt beam="1">  1        2 0.11201315E+00 0.34812532E+03</pdfrwt>
<pdfrwt beam="2">  1       -2 0.11292900E+00 0.34812532E+03</pdfrwt>
<totfact> 0.25650050E+01</totfact>
</mgrwt>
</event>
<event>
 4    1  0.5410820E-008  0.1552756E+03  0.7818608E-02  0.1194136E+00
         -2   -1    0    0    0  501 -0.00000000000E+00  0.00000000000E+00  0.47641917411E+03  0.47641917412E+03  0.25500000000E-02 0.  1.
          2   -1    0    0  501    0  0.00000000000E+00 -0.00000000000E+00 -0.11255605405E+04  0.11255605405E+04  0.25500000000E-02 0. -1.
    8880022    1    1    2    0    0 -0.86960207921E+01  0.25362240303E+02  0.45820491122E+03  0.48379981158E+03  0.15294330000E+03 0.  0.
    8880022    1    1    2    0    0  0.86960207921E+01 -0.25362240303E+02 -0.11073462776E+04  0.11181799031E+04  0.15294330000E+03 0. -1.
<mgrwt>
<rscale>  0 0.15527562E+03</rscale>
<asrwt>0</asrwt>
<pdfrwt beam="1">  1        2 0.17316316E+00 0.15527562E+03</pdfrwt>
<pdfrwt beam="2">  1       -2 0.73295258E-01 0.15527562E+03</pdfrwt>
<totfact> 0.40330424E+01</totfact>
</mgrwt>
</event>
<event>
 4    1  0.5410820E-008  0.5788667E+03  0.7818608E-02  0.9950248E-01
          2   -1    0    0  501    0  0.00000000000E+00  0.00000000000E+00  0.24591994719E+04  0.24591994719E+04  0.25500000000E-02 0. -1.
         -2   -1    0    0    0  501 -0.00000000000E+00 -0.00000000000E+00 -0.33656825911E+03  0.33656825912E+03  0.25500000000E-02 0.  1.
    8880022    1    1    2    0    0  0.51968314738E+03 -0.20402055009E+03  0.21397299739E+04  0.22166485903E+04  0.15294330000E+03 0.  0.
    8880022    1    1    2    0    0 -0.51968314738E+03  0.20402055009E+03 -0.17098761119E+02  0.57911914074E+03  0.15294330000E+03 0.  0.
<mgrwt>
<rscale>  0 0.57886666E+03</rscale>
<asrwt>0</asrwt>
<pdfrwt beam="1">  1        2 0.37833838E+00 0.57886666E+03</pdfrwt>
<pdfrwt beam="2">  1       -2 0.51779732E-01 0.57886666E+03</pdfrwt>
<totfact> 0.13976823E+01</totfact>
</mgrwt>
</event>
<event>
 4    1  0.5410820E-008  0.5598341E+03  0.7818608E-02  0.9992430E-01
         -2   -1    0    0    0  501 -0.00000000000E+00  0.00000000000E+00  0.13332175244E+04  0.13332175244E+04  0.25500000000E-02 0.  1.
          2   -1    0    0  501    0  0.00000000000E+00 -0.00000000000E+00 -0.58795832552E+03  0.58795832552E+03  0.25500000000E-02 0. -1.
    8880022    1    1    2    0    0  0.38815781323E+02 -0.53713678955E+03  0.11168056050E+04  0.12492673885E+04  0.15294330000E+03 0.  0.
    8880022    1    1    2    0    0 -0.38815781323E+02  0.53713678955E+03 -0.37154640615E+03  0.67190846141E+03  0.15294330000E+03 0.  0.
<mgrwt>
<rscale>  0 0.55983413E+03</rscale>
<asrwt>0</asrwt>
<pdfrwt beam="1">  1        2 0.90455128E-01 0.55983413E+03</pdfrwt>
<pdfrwt beam="2">  1       -2 0.20511039E+00 0.55983413E+03</pdfrwt>
<totfact> 0.65620520E+00</totfact>
</mgrwt>
</event>
<event>
 4    1  0.5410820E-008  0.8106079E+03  0.7818608E-02  0.9544788E-01
         -2   -1    0    0    0  501 -0.00000000000E+00  0.00000000000E+00  0.29450097999E+03  0.29450098000E+03  0.25500000000E-02 0.  1.
          2   -1    0    0  501    0  0.00000000000E+00 -0.00000000000E+00 -0.25998781732E+04  0.25998781732E+04  0.25500000000E-02 0. -1.
    8880022    1    1    2    0    0 -0.45323212576E+03 -0.65442653074E+03 -0.60770476374E+03  0.10131091633E+04  0.15294330000E+03 0.  0.
    8880022    1    1    2    0    0  0.45323212576E+03  0.65442653074E+03 -0.16976724294E+04  0.18812699898E+04  0.15294330000E+03 0.  0.
<mgrwt>
<rscale>  0 0.81060786E+03</rscale>
<asrwt>0</asrwt>
<pdfrwt beam="1">  1        2 0.39998124E+00 0.81060786E+03</pdfrwt>
<pdfrwt beam="2">  1       -2 0.45307845E-01 0.81060786E+03</pdfrwt>
<totfact> 0.14623877E+01</totfact>
</mgrwt>
</event>
<event>
 4    1  0.5410820E-008  0.1140716E+04  0.7818608E-02  0.9166391E-01
         -2   -1    0    0    0  501 -0.00000000000E+00  0.00000000000E+00  0.11885691411E+04  0.11885691411E+04  0.25500000000E-02 0.  1.
          2   -1    0    0  501    0  0.00000000000E+00 -0.00000000000E+00 -0.17913919534E+04  0.17913919534E+04  0.25500000000E-02 0. -1.
    8880022    1    1    2    0    0  0.74734448364E+03 -0.84812640655E+03 -0.12305437420E+04  0.16779367487E+04  0.15294330000E+03 0.  0.
    8880022    1    1    2    0    0 -0.74734448364E+03  0.84812640655E+03  0.62772092959E+03  0.13020243458E+04  0.15294330000E+03 0.  0.
<mgrwt>
<rscale>  0 0.11407164E+04</rscale>
<asrwt>0</asrwt>
<pdfrwt beam="1">  1        2 0.27559876E+00 0.11407164E+04</pdfrwt>
<pdfrwt beam="2">  1       -2 0.18285679E+00 0.11407164E+04</pdfrwt>
<totfact> 0.14778445E+00</totfact>
</mgrwt>
</event>
<event>
 4    1  0.5410820E-008  0.3123498E+03  0.7818608E-02  0.1079225E+00
         -2   -1    0    0    0  501 -0.00000000000E+00  0.00000000000E+00  0.43117018433E+03  0.43117018434E+03  0.25500000000E-02 0.  1.
          2   -1    0    0  501    0  0.00000000000E+00 -0.00000000000E+00 -0.76504236570E+03  0.76504236570E+03  0.25500000000E-02 0. -1.
    8880022    1    1    2    0    0  0.71159368551E+02  0.26288232955E+03  0.33498659230E+03  0.45801576933E+03  0.15294330000E+03 0.  0.
    8880022    1    1    2    0    0 -0.71159368551E+02 -0.26288232955E+03 -0.66885877367E+03  0.73819678071E+03  0.15294330000E+03 0.  0.
<mgrwt>
<rscale>  0 0.31234985E+03</rscale>
<asrwt>0</asrwt>
<pdfrwt beam="1">  1        2 0.11769883E+00 0.31234985E+03</pdfrwt>
<pdfrwt beam="2">  1       -2 0.66333874E-01 0.31234985E+03</pdfrwt>
<totfact> 0.80869551E+01</totfact>
</mgrwt>
</event>
<event>
 4    1  0.5410820E-008  0.1538654E+04  0.7818608E-02  0.8859148E-01
          2   -1    0    0  501    0  0.00000000000E+00  0.00000000000E+00  0.15987703921E+04  0.15987703921E+04  0.25500000000E-02 0. -1.
         -2   -1    0    0    0  501 -0.00000000000E+00 -0.00000000000E+00 -0.15447515689E+04  0.15447515689E+04  0.25500000000E-02 0.  1.
    8880022    1    1    2    0    0  0.12714247718E+04  0.85296204457E+03  0.34681626039E+03  0.15772565965E+04  0.15294330000E+03 0.  0.
    8880022    1    1    2    0    0 -0.12714247718E+04 -0.85296204457E+03 -0.29279743717E+03  0.15662653645E+04  0.15294330000E+03 0.  0.
<mgrwt>
<rscale>  0 0.15386542E+04</rscale>
<asrwt>0</asrwt>
<pdfrwt beam="1">  1        2 0.24596467E+00 0.15386542E+04</pdfrwt>
<pdfrwt beam="2">  1       -2 0.23765409E+00 0.15386542E+04</pdfrwt>
<totfact> 0.80109903E-01</totfact>
</mgrwt>
</event>
<event>
 4    1  0.5410820E-008  0.3288877E+03  0.7818608E-02  0.1071630E+00
          2   -1    0    0  501    0  0.00000000000E+00  0.00000000000E+00  0.40626772452E+04  0.40626772452E+04  0.25500000000E-02 0. -1.
         -2   -1    0    0    0  501 -0.00000000000E+00 -0.00000000000E+00 -0.57912420140E+02  0.57912420196E+02  0.25500000000E-02 0.  1.
    8880022    1    1    2    0    0 -0.15287378069E+03  0.24780053322E+03  0.35167495634E+04  0.35320949367E+04  0.15294330000E+03 0. -1.
    8880022    1    1    2    0    0  0.15287378069E+03 -0.24780053322E+03  0.48801526163E+03  0.58849472868E+03  0.15294330000E+03 0.  0.
<mgrwt>
<rscale>  0 0.32888775E+03</rscale>
<asrwt>0</asrwt>
<pdfrwt beam="1">  1        2 0.62502755E+00 0.32888775E+03</pdfrwt>
<pdfrwt beam="2">  1       -2 0.89095991E-02 0.32888775E+03</pdfrwt>
<totfact> 0.31119084E+01</totfact>
</mgrwt>
</event>
<event>
 4    1  0.5410820E-008  0.1797683E+03  0.7818608E-02  0.1168027E+00
         -2   -1    0    0    0  501 -0.00000000000E+00  0.00000000000E+00  0.79522168628E+03  0.79522168628E+03  0.25500000000E-02 0.  1.
          2   -1    0    0  501    0  0.00000000000E+00 -0.00000000000E+00 -0.15350736792E+04  0.15350736792E+04  0.25500000000E-02 0. -1.
    8880022    1    1    2    0    0 -0.70800832626E+02 -0.62547923324E+02  0.77969555719E+03  0.80015112043E+03  0.15294330000E+03 0.  0.
    8880022    1    1    2    0    0  0.70800832626E+02  0.62547923324E+02 -0.15195475501E+04  0.15301442450E+04  0.15294330000E+03 0. -1.
<mgrwt>
<rscale>  0 0.17976833E+03</rscale>
<asrwt>0</asrwt>
<pdfrwt beam="1">  1        2 0.23616518E+00 0.17976833E+03</pdfrwt>
<pdfrwt beam="2">  1       -2 0.12234180E+00 0.17976833E+03</pdfrwt>
<totfact> 0.74000731E+00</totfact>
</mgrwt>
</event>
<event>
 4    1  0.5410820E-008  0.3377543E+03  0.7818608E-02  0.1067756E+00
          2   -1    0    0  501    0  0.00000000000E+00  0.00000000000E+00  0.16593113054E+04  0.16593113054E+04  0.25500000000E-02 0. -1.
         -2   -1    0    0    0  501 -0.00000000000E+00 -0.00000000000E+00 -0.79802597426E+03  0.79802597426E+03  0.25500000000E-02 0.  1.
    8880022    1    1    2    0    0 -0.16591088195E+03 -0.25131633571E+03 -0.74390908191E+03  0.81699369429E+03  0.15294330000E+03 0.  1.
    8880022    1    1    2    0    0  0.16591088195E+03  0.25131633571E+03  0.16051944131E+04  0.16403435854E+04  0.15294330000E+03 0.  0.
<mgrwt>
<rscale>  0 0.33775431E+03</rscale>
<asrwt>0</asrwt>
<pdfrwt beam="1">  1        2 0.25527866E+00 0.33775431E+03</pdfrwt>
<pdfrwt beam="2">  1       -2 0.12277323E+00 0.33775431E+03</pdfrwt>
<totfact> 0.58538592E+00</totfact>
</mgrwt>
</event>
<event>
 4    1  0.5410820E-008  0.7989242E+03  0.7818608E-02  0.9561576E-01
          2   -1    0    0  501    0  0.00000000000E+00  0.00000000000E+00  0.98930415288E+03  0.98930415289E+03  0.25500000000E-02 0. -1.
         -2   -1    0    0    0  501 -0.00000000000E+00 -0.00000000000E+00 -0.90111904711E+03  0.90111904711E+03  0.25500000000E-02 0.  1.
    8880022    1    1    2    0    0  0.50286018719E+03  0.60168088122E+03 -0.45964656189E+03  0.92171300607E+03  0.15294330000E+03 0.  0.
    8880022    1    1    2    0    0 -0.50286018719E+03 -0.60168088122E+03  0.54783166767E+03  0.96871019392E+03  0.15294330000E+03 0.  0.
<mgrwt>
<rscale>  0 0.79892422E+03</rscale>
<asrwt>0</asrwt>
<pdfrwt beam="1">  1        2 0.15220064E+00 0.79892422E+03</pdfrwt>
<pdfrwt beam="2">  1       -2 0.13863370E+00 0.79892422E+03</pdfrwt>
<totfact> 0.95402087E+00</totfact>
</mgrwt>
</event>
<event>
 4    1  0.5410820E-008  0.5509057E+03  0.7818608E-02  0.1001285E+00
         -2   -1    0    0    0  501 -0.00000000000E+00  0.00000000000E+00  0.20934986458E+03  0.20934986460E+03  0.25500000000E-02 0.  1.
          2   -1    0    0  501    0  0.00000000000E+00 -0.00000000000E+00 -0.18071082320E+04  0.18071082320E+04  0.25500000000E-02 0. -1.
    8880022    1    1    2    0    0 -0.48998943758E+03  0.20003935187E+03 -0.12472548258E+04  0.13635034451E+04  0.15294330000E+03 0.  0.
    8880022    1    1    2    0    0  0.48998943758E+03 -0.20003935187E+03 -0.35050354159E+03  0.65295465150E+03  0.15294330000E+03 0.  0.
<mgrwt>
<rscale>  0 0.55090566E+03</rscale>
<asrwt>0</asrwt>
<pdfrwt beam="1">  1        2 0.27801664E+00 0.55090566E+03</pdfrwt>
<pdfrwt beam="2">  1       -2 0.32207673E-01 0.55090566E+03</pdfrwt>
<totfact> 0.80494497E+01</totfact>
</mgrwt>
</event>
<event>
 4    1  0.5410820E-008  0.7011377E+03  0.7818608E-02  0.9715289E-01
          2   -1    0    0  501    0  0.00000000000E+00  0.00000000000E+00  0.15618405883E+04  0.15618405883E+04  0.25500000000E-02 0. -1.
         -2   -1    0    0    0  501 -0.00000000000E+00 -0.00000000000E+00 -0.47410746385E+03  0.47410746386E+03  0.25500000000E-02 0.  1.
    8880022    1    1    2    0    0 -0.55892143059E+03 -0.39472684668E+03 -0.46307797813E+02  0.70266529316E+03  0.15294330000E+03 0.  0.
    8880022    1    1    2    0    0  0.55892143059E+03  0.39472684668E+03  0.11340409223E+04  0.13332827590E+04  0.15294330000E+03 0. -1.
<mgrwt>
<rscale>  0 0.70113772E+03</rscale>
<asrwt>0</asrwt>
<pdfrwt beam="1">  1        2 0.24028317E+00 0.70113772E+03</pdfrwt>
<pdfrwt beam="2">  1       -2 0.72939610E-01 0.70113772E+03</pdfrwt>
<totfact> 0.20523237E+01</totfact>
</mgrwt>
</event>
<event>
 4    1  0.5410820E-008  0.1214417E+04  0.7818608E-02  0.9100330E-01
         -2   -1    0    0    0  501 -0.00000000000E+00  0.00000000000E+00  0.72198174274E+03  0.72198174275E+03  0.25500000000E-02 0.  1.
          2   -1    0    0  501    0  0.00000000000E+00 -0.00000000000E+00 -0.26946957830E+04  0.26946957830E+04  0.25500000000E-02 0. -1.
    8880022    1    1    2    0    0 -0.22502927466E+03 -0.11835449183E+04 -0.14605772306E+03  0.12231685328E+04  0.15294330000E+03 0.  0.
    8880022    1    1    2    0    0  0.22502927466E+03  0.11835449183E+04 -0.18266563172E+04  0.21935089929E+04  0.15294330000E+03 0.  0.
<mgrwt>
<rscale>  0 0.12144169E+04</rscale>
<asrwt>0</asrwt>
<pdfrwt beam="1">  1        2 0.41456857E+00 0.12144169E+04</pdfrwt>
<pdfrwt beam="2">  1       -2 0.11107412E+00 0.12144169E+04</pdfrwt>
<totfact> 0.16866470E+00</totfact>
</mgrwt>
</event>
<event>
 4    1  0.5410820E-008  0.4669843E+03  0.7818608E-02  0.1022775E+00
         -2   -1    0    0    0  501 -0.00000000000E+00  0.00000000000E+00  0.10128133957E+03  0.10128133960E+03  0.25500000000E-02 0.  1.
          2   -1    0    0  501    0  0.00000000000E+00 -0.00000000000E+00 -0.29045504331E+04  0.29045504331E+04  0.25500000000E-02 0. -1.
    8880022    1    1    2    0    0  0.43236555553E+03 -0.87992517300E+02 -0.63721847003E+03  0.79001372663E+03  0.15294330000E+03 0.  0.
    8880022    1    1    2    0    0 -0.43236555553E+03  0.87992517300E+02 -0.21660506235E+04  0.22158180461E+04  0.15294330000E+03 0.  0.
<mgrwt>
<rscale>  0 0.46698427E+03</rscale>
<asrwt>0</asrwt>
<pdfrwt beam="1">  1        2 0.44685385E+00 0.46698427E+03</pdfrwt>
<pdfrwt beam="2">  1       -2 0.15581747E-01 0.46698427E+03</pdfrwt>
<totfact> 0.72368922E+01</totfact>
</mgrwt>
</event>
<event>
 4    1  0.5410820E-008  0.1683635E+03  0.7818608E-02  0.1179565E+00
          2   -1    0    0  501    0  0.00000000000E+00  0.00000000000E+00  0.24253827998E+04  0.24253827998E+04  0.25500000000E-02 0. -1.
         -2   -1    0    0    0  501 -0.00000000000E+00 -0.00000000000E+00 -0.20792879432E+03  0.20792879434E+03  0.25500000000E-02 0.  1.
    8880022    1    1    2    0    0  0.38376802376E+02 -0.59007084219E+02  0.23878441393E+04  0.23937723162E+04  0.15294330000E+03 0. -1.
    8880022    1    1    2    0    0 -0.38376802376E+02  0.59007084219E+02 -0.17039013387E+03  0.23953927795E+03  0.15294330000E+03 0.  0.
<mgrwt>
<rscale>  0 0.16836350E+03</rscale>
<asrwt>0</asrwt>
<pdfrwt beam="1">  1        2 0.37313578E+00 0.16836350E+03</pdfrwt>
<pdfrwt beam="2">  1       -2 0.31989049E-01 0.16836350E+03</pdfrwt>
<totfact> 0.42628758E+01</totfact>
</mgrwt>
</event>
<event>
 4    1  0.5410820E-008  0.7236757E+03  0.7818608E-02  0.9677579E-01
         -2   -1    0    0    0  501 -0.00000000000E+00  0.00000000000E+00  0.29802367667E+03  0.29802367669E+03  0.25500000000E-02 0.  1.
          2   -1    0    0  501    0  0.00000000000E+00 -0.00000000000E+00 -0.34921024413E+04  0.34921024413E+04  0.25500000000E-02 0. -1.
    8880022    1    1    2    0    0  0.36635766016E+03  0.60505946693E+03 -0.26133735888E+03  0.76941780707E+03  0.15294330000E+03 0.  0.
    8880022    1    1    2    0    0 -0.36635766016E+03 -0.60505946693E+03 -0.29327414057E+04  0.30207083109E+04  0.15294330000E+03 0.  0.
<mgrwt>
<rscale>  0 0.72367572E+03</rscale>
<asrwt>0</asrwt>
<pdfrwt beam="1">  1        2 0.53724650E+00 0.72367572E+03</pdfrwt>
<pdfrwt beam="2">  1       -2 0.45849799E-01 0.72367572E+03</pdfrwt>
<totfact> 0.40508915E+00</totfact>
</mgrwt>
</event>
<event>
 4    1  0.5410820E-008  0.8253191E+03  0.7818608E-02  0.9524075E-01
          2   -1    0    0  501    0  0.00000000000E+00  0.00000000000E+00  0.11817760963E+04  0.11817760963E+04  0.25500000000E-02 0. -1.
         -2   -1    0    0    0  501 -0.00000000000E+00 -0.00000000000E+00 -0.72453759684E+03  0.72453759685E+03  0.25500000000E-02 0.  1.
    8880022    1    1    2    0    0  0.63177232358E+03  0.50855063137E+03 -0.20239975198E+03  0.84977486790E+03  0.15294330000E+03 0.  0.
    8880022    1    1    2    0    0 -0.63177232358E+03 -0.50855063137E+03  0.65963825147E+03  0.10565388253E+04  0.15294330000E+03 0.  0.
<mgrwt>
<rscale>  0 0.82531913E+03</rscale>
<asrwt>0</asrwt>
<pdfrwt beam="1">  1        2 0.18181171E+00 0.82531913E+03</pdfrwt>
<pdfrwt beam="2">  1       -2 0.11146732E+00 0.82531913E+03</pdfrwt>
<totfact> 0.12488266E+01</totfact>
</mgrwt>
</event>
<event>
 4    1  0.5410820E-008  0.6362399E+03  0.7818608E-02  0.9832947E-01
          2   -1    0    0  501    0  0.00000000000E+00  0.00000000000E+00  0.26571710165E+04  0.26571710165E+04  0.25500000000E-02 0. -1.
         -2   -1    0    0    0  501 -0.00000000000E+00 -0.00000000000E+00 -0.21358802469E+03  0.21358802470E+03  0.25500000000E-02 0.  1.
    8880022    1    1    2    0    0  0.30454579290E+03  0.53727222844E+03  0.19904154612E+04  0.20896303378E+04  0.15294330000E+03 0.  0.
    8880022    1    1    2    0    0 -0.30454579290E+03 -0.53727222844E+03  0.45316753056E+03  0.78112870335E+03  0.15294330000E+03 0.  0.
<mgrwt>
<rscale>  0 0.63623992E+03</rscale>
<asrwt>0</asrwt>
<pdfrwt beam="1">  1        2 0.40879555E+00 0.63623992E+03</pdfrwt>
<pdfrwt beam="2">  1       -2 0.32859696E-01 0.63623992E+03</pdfrwt>
<totfact> 0.25983948E+01</totfact>
</mgrwt>
</event>
<event>
 4    1  0.5410820E-008  0.2767953E+03  0.7818608E-02  0.1097452E+00
         -2   -1    0    0    0  501 -0.00000000000E+00  0.00000000000E+00  0.13352495900E+03  0.13352495902E+03  0.25500000000E-02 0.  1.
          2   -1    0    0  501    0  0.00000000000E+00 -0.00000000000E+00 -0.87214678327E+03  0.87214678328E+03  0.25500000000E-02 0. -1.
    8880022    1    1    2    0    0 -0.87390322528E+02  0.21351094756E+03 -0.66341255868E+03  0.71884064244E+03  0.15294330000E+03 0.  0.
    8880022    1    1    2    0    0  0.87390322528E+02 -0.21351094756E+03 -0.75209265598E+02  0.28683109986E+03  0.15294330000E+03 0.  0.
<mgrwt>
<rscale>  0 0.27679531E+03</rscale>
<asrwt>0</asrwt>
<pdfrwt beam="1">  1        2 0.13417643E+00 0.27679531E+03</pdfrwt>
<pdfrwt beam="2">  1       -2 0.20542302E-01 0.27679531E+03</pdfrwt>
<totfact> 0.63838675E+02</totfact>
</mgrwt>
</event>
<event>
 4    1  0.5410820E-008  0.9821401E+03  0.7818608E-02  0.9328353E-01
         -2   -1    0    0    0  501 -0.00000000000E+00  0.00000000000E+00  0.51417727478E+03  0.51417727479E+03  0.25500000000E-02 0.  1.
          2   -1    0    0  501    0  0.00000000000E+00 -0.00000000000E+00 -0.26154597830E+04  0.26154597830E+04  0.25500000000E-02 0. -1.
    8880022    1    1    2    0    0 -0.91381162643E+03 -0.32581576028E+03 -0.21859838391E+03  0.10061731982E+04  0.15294330000E+03 0.  1.
    8880022    1    1    2    0    0  0.91381162643E+03  0.32581576028E+03 -0.18826841243E+04  0.21234638597E+04  0.15294330000E+03 0. -1.
<mgrwt>
<rscale>  0 0.98214014E+03</rscale>
<asrwt>0</asrwt>
<pdfrwt beam="1">  1        2 0.40237842E+00 0.98214014E+03</pdfrwt>
<pdfrwt beam="2">  1       -2 0.79104198E-01 0.98214014E+03</pdfrwt>
<totfact> 0.42890704E+00</totfact>
</mgrwt>
</event>
<event>
 4    1  0.5410820E-008  0.1186587E+04  0.7818608E-02  0.9124679E-01
         -2   -1    0    0    0  501 -0.00000000000E+00  0.00000000000E+00  0.19165764743E+04  0.19165764743E+04  0.25500000000E-02 0.  1.
          2   -1    0    0  501    0  0.00000000000E+00 -0.00000000000E+00 -0.93627567255E+03  0.93627567255E+03  0.25500000000E-02 0. -1.
    8880022    1    1    2    0    0 -0.74758459682E+03 -0.90868819970E+03 -0.17181296710E+03  0.11989613515E+04  0.15294330000E+03 0. -1.
    8880022    1    1    2    0    0  0.74758459682E+03  0.90868819970E+03  0.11521137689E+04  0.16538907954E+04  0.15294330000E+03 0.  0.
<mgrwt>
<rscale>  0 0.11865870E+04</rscale>
<asrwt>0</asrwt>
<pdfrwt beam="1">  1        2 0.14404241E+00 0.11865870E+04</pdfrwt>
<pdfrwt beam="2">  1       -2 0.29485792E+00 0.11865870E+04</pdfrwt>
<totfact> 0.92832607E-01</totfact>
</mgrwt>
</event>
<event>
 4    1  0.1228248E-007  0.6544237E+03  0.7818608E-02  0.9798514E-01
         -2   -1    0    0    0  501 -0.00000000000E+00  0.00000000000E+00  0.14228749439E+04  0.14228749439E+04  0.25500000000E-02 0.  1.
          2   -1    0    0  501    0  0.00000000000E+00 -0.00000000000E+00 -0.20350220586E+04  0.20350220586E+04  0.25500000000E-02 0. -1.
    8880022    1    1    2    0    0 -0.19391321798E+03  0.60603328595E+03 -0.19020487196E+04  0.20114819573E+04  0.15294330000E+03 0.  0.
    8880022    1    1    2    0    0  0.19391321798E+03 -0.60603328595E+03  0.12899016049E+04  0.14464150452E+04  0.15294330000E+03 0.  0.
<mgrwt>
<rscale>  0 0.65442366E+03</rscale>
<asrwt>0</asrwt>
<pdfrwt beam="1">  1        2 0.31308032E+00 0.65442366E+03</pdfrwt>
<pdfrwt beam="2">  1       -2 0.21890384E+00 0.65442366E+03</pdfrwt>
<totfact> 0.68760558E-01</totfact>
</mgrwt>
</event>
<event>
 4    1  0.5410820E-008  0.6526483E+03  0.7818608E-02  0.9801823E-01
         -2   -1    0    0    0  501 -0.00000000000E+00  0.00000000000E+00  0.19099121126E+03  0.19099121128E+03  0.25500000000E-02 0.  1.
          2   -1    0    0  501    0  0.00000000000E+00 -0.00000000000E+00 -0.36562847790E+04  0.36562847790E+04  0.25500000000E-02 0. -1.
    8880022    1    1    2    0    0 -0.24941694232E+03  0.58339461994E+03 -0.29340121202E+04  0.30057240173E+04  0.15294330000E+03 0.  0.
    8880022    1    1    2    0    0  0.24941694232E+03 -0.58339461994E+03 -0.53128144750E+03  0.84155197295E+03  0.15294330000E+03 0.  0.
<mgrwt>
<rscale>  0 0.65264826E+03</rscale>
<asrwt>0</asrwt>
<pdfrwt beam="1">  1        2 0.56250530E+00 0.65264826E+03</pdfrwt>
<pdfrwt beam="2">  1       -2 0.29383266E-01 0.65264826E+03</pdfrwt>
<totfact> 0.74398455E+00</totfact>
</mgrwt>
</event>
<event>
 4    1  0.5410820E-008  0.1175434E+04  0.7818608E-02  0.9134635E-01
         -2   -1    0    0    0  501 -0.00000000000E+00  0.00000000000E+00  0.13816928719E+04  0.13816928719E+04  0.25500000000E-02 0.  1.
          2   -1    0    0  501    0  0.00000000000E+00 -0.00000000000E+00 -0.12924170050E+04  0.12924170050E+04  0.25500000000E-02 0. -1.
    8880022    1    1    2    0    0  0.12450083263E+03 -0.11587717073E+04  0.68066486930E+03  0.13582888662E+04  0.15294330000E+03 0.  0.
    8880022    1    1    2    0    0 -0.12450083263E+03  0.11587717073E+04 -0.59138900239E+03  0.13158210106E+04  0.15294330000E+03 0.  0.
<mgrwt>
<rscale>  0 0.11754335E+04</rscale>
<asrwt>0</asrwt>
<pdfrwt beam="1">  1        2 0.19883339E+00 0.11754335E+04</pdfrwt>
<pdfrwt beam="2">  1       -2 0.21256813E+00 0.11754335E+04</pdfrwt>
<totfact> 0.17917962E+00</totfact>
</mgrwt>
</event>
<event>
 4    1  0.5410820E-008  0.1670439E+03  0.7818608E-02  0.1180966E+00
         -2   -1    0    0    0  501 -0.00000000000E+00  0.00000000000E+00  0.40175742472E+03  0.40175742473E+03  0.25500000000E-02 0.  1.
          2   -1    0    0  501    0  0.00000000000E+00 -0.00000000000E+00 -0.32265384148E+03  0.32265384149E+03  0.25500000000E-02 0. -1.
    8880022    1    1    2    0    0 -0.64369061117E+02  0.19200183321E+02 -0.28131033750E+03  0.32716843073E+03  0.15294330000E+03 0. -1.
    8880022    1    1    2    0    0  0.64369061117E+02 -0.19200183321E+02  0.36041392074E+03  0.39724283549E+03  0.15294330000E+03 0.  0.
<mgrwt>
<rscale>  0 0.16704393E+03</rscale>
<asrwt>0</asrwt>
<pdfrwt beam="1">  1        2 0.49639053E-01 0.16704393E+03</pdfrwt>
<pdfrwt beam="2">  1       -2 0.61808835E-01 0.16704393E+03</pdfrwt>
<totfact> 0.25418565E+02</totfact>
</mgrwt>
</event>
<event>
 4    1  0.5514911E-008  0.5545141E+03  0.7818608E-02  0.1000454E+00
          2   -1    0    0  501    0  0.00000000000E+00  0.00000000000E+00  0.84383267217E+03  0.84383267217E+03  0.25500000000E-02 0. -1.
         -2   -1    0    0    0  501 -0.00000000000E+00 -0.00000000000E+00 -0.16617558129E+04  0.16617558129E+04  0.25500000000E-02 0.  1.
    8880022    1    1    2    0    0 -0.52506147513E+03 -0.91677104188E+02 -0.15159090892E+04  0.16141456762E+04  0.15294330000E+03 0.  1.
    8880022    1    1    2    0    0  0.52506147513E+03  0.91677104188E+02  0.69798594854E+03  0.89144280886E+03  0.15294330000E+03 0.  0.
<mgrwt>
<rscale>  0 0.55451411E+03</rscale>
<asrwt>0</asrwt>
<pdfrwt beam="1">  1        2 0.12982041E+00 0.55451411E+03</pdfrwt>
<pdfrwt beam="2">  1       -2 0.25565474E+00 0.55451411E+03</pdfrwt>
<totfact> 0.20398065E+00</totfact>
</mgrwt>
</event>
<event>
 4    1  0.5410820E-008  0.7553781E+03  0.7818608E-02  0.9626951E-01
          2   -1    0    0  501    0  0.00000000000E+00  0.00000000000E+00  0.12475449784E+04  0.12475449784E+04  0.25500000000E-02 0. -1.
         -2   -1    0    0    0  501 -0.00000000000E+00 -0.00000000000E+00 -0.70477408932E+03  0.70477408933E+03  0.25500000000E-02 0.  1.
    8880022    1    1    2    0    0  0.25203822289E+03 -0.69547185559E+03  0.84974083563E+03  0.11369500906E+04  0.15294330000E+03 0. -1.
    8880022    1    1    2    0    0 -0.25203822289E+03  0.69547185559E+03 -0.30696994659E+03  0.81536897712E+03  0.15294330000E+03 0.  0.
<mgrwt>
<rscale>  0 0.75537806E+03</rscale>
<asrwt>0</asrwt>
<pdfrwt beam="1">  1        2 0.19193000E+00 0.75537806E+03</pdfrwt>
<pdfrwt beam="2">  1       -2 0.10842678E+00 0.75537806E+03</pdfrwt>
<totfact> 0.12310557E+01</totfact>
</mgrwt>
</event>
<event>
 4    1  0.5410820E-008  0.1179058E+04  0.7818608E-02  0.9131387E-01
          2   -1    0    0  501    0  0.00000000000E+00  0.00000000000E+00  0.27756272630E+04  0.27756272630E+04  0.25500000000E-02 0. -1.
         -2   -1    0    0    0  501 -0.00000000000E+00 -0.00000000000E+00 -0.16623404206E+04  0.16623404206E+04  0.25500000000E-02 0.  1.
    8880022    1    1    2    0    0 -0.11381404574E+04 -0.26725103355E+03 -0.12981758493E+04  0.17536929618E+04  0.15294330000E+03 0.  0.
    8880022    1    1    2    0    0  0.11381404574E+04  0.26725103355E+03  0.24114626917E+04  0.26842747218E+04  0.15294330000E+03 0.  0.
<mgrwt>
<rscale>  0 0.11790583E+04</rscale>
<asrwt>0</asrwt>
<pdfrwt beam="1">  1        2 0.42701957E+00 0.11790583E+04</pdfrwt>
<pdfrwt beam="2">  1       -2 0.25574468E+00 0.11790583E+04</pdfrwt>
<totfact> 0.13957924E-01</totfact>
</mgrwt>
</event>
<event>
 4    1  0.5410820E-008  0.6412705E+03  0.7818608E-02  0.9823299E-01
         -2   -1    0    0    0  501 -0.00000000000E+00  0.00000000000E+00  0.11751753257E+04  0.11751753257E+04  0.25500000000E-02 0.  1.
          2   -1    0    0  501    0  0.00000000000E+00 -0.00000000000E+00 -0.87004042915E+03  0.87004042916E+03  0.25500000000E-02 0. -1.
    8880022    1    1    2    0    0  0.52958785282E+03 -0.32767810340E+03 -0.63808865888E+03  0.90464635239E+03  0.15294330000E+03 0.  0.
    8880022    1    1    2    0    0 -0.52958785282E+03  0.32767810340E+03  0.94322355538E+03  0.11405694024E+04  0.15294330000E+03 0.  0.
<mgrwt>
<rscale>  0 0.64127053E+03</rscale>
<asrwt>0</asrwt>
<pdfrwt beam="1">  1        2 0.13385237E+00 0.64127053E+03</pdfrwt>
<pdfrwt beam="2">  1       -2 0.18079620E+00 0.64127053E+03</pdfrwt>
<totfact> 0.57001604E+00</totfact>
</mgrwt>
</event>
<event>
 4    1  0.5410820E-008  0.8183230E+03  0.7818608E-02  0.9533868E-01
         -2   -1    0    0    0  501 -0.00000000000E+00  0.00000000000E+00  0.46810866269E+03  0.46810866270E+03  0.25500000000E-02 0.  1.
          2   -1    0    0  501    0  0.00000000000E+00 -0.00000000000E+00 -0.17843176315E+04  0.17843176315E+04  0.25500000000E-02 0. -1.
    8880022    1    1    2    0    0  0.78188792221E+03 -0.18684812252E+03 -0.15663572200E+03  0.83317906011E+03  0.15294330000E+03 0.  0.
    8880022    1    1    2    0    0 -0.78188792221E+03  0.18684812252E+03 -0.11595732468E+04  0.14192472341E+04  0.15294330000E+03 0.  0.
<mgrwt>
<rscale>  0 0.81832304E+03</rscale>
<asrwt>0</asrwt>
<pdfrwt beam="1">  1        2 0.27451040E+00 0.81832304E+03</pdfrwt>
<pdfrwt beam="2">  1       -2 0.72016718E-01 0.81832304E+03</pdfrwt>
<totfact> 0.15696050E+01</totfact>
</mgrwt>
</event>
<event>
 4    1  0.5410820E-008  0.4509801E+03  0.7818608E-02  0.1027430E+00
         -2   -1    0    0    0  501 -0.00000000000E+00  0.00000000000E+00  0.64143140143E+03  0.64143140144E+03  0.25500000000E-02 0.  1.
          2   -1    0    0  501    0  0.00000000000E+00 -0.00000000000E+00 -0.13593821900E+04  0.13593821900E+04  0.25500000000E-02 0. -1.
    8880022    1    1    2    0    0 -0.48600893246E+02  0.42146101904E+03  0.51702300597E+03  0.68607279432E+03  0.15294330000E+03 0.  0.
    8880022    1    1    2    0    0  0.48600893246E+02 -0.42146101904E+03 -0.12349737945E+04  0.13147407971E+04  0.15294330000E+03 0.  0.
<mgrwt>
<rscale>  0 0.45098014E+03</rscale>
<asrwt>0</asrwt>
<pdfrwt beam="1">  1        2 0.20913572E+00 0.45098014E+03</pdfrwt>
<pdfrwt beam="2">  1       -2 0.98681755E-01 0.45098014E+03</pdfrwt>
<totfact> 0.13958604E+01</totfact>
</mgrwt>
</event>
<event>
 4    1  0.5410820E-008  0.4099868E+03  0.7818608E-02  0.1040375E+00
          2   -1    0    0  501    0  0.00000000000E+00  0.00000000000E+00  0.48542091919E+03  0.48542091920E+03  0.25500000000E-02 0. -1.
         -2   -1    0    0    0  501 -0.00000000000E+00 -0.00000000000E+00 -0.73409319981E+03  0.73409319982E+03  0.25500000000E-02 0.  1.
    8880022    1    1    2    0    0 -0.36165013779E+02 -0.37866822811E+03  0.31885927698E+03  0.51938466163E+03  0.15294330000E+03 0.  0.
    8880022    1    1    2    0    0  0.36165013779E+02  0.37866822811E+03 -0.56753155761E+03  0.70012945738E+03  0.15294330000E+03 0.  0.
<mgrwt>
<rscale>  0 0.40998681E+03</rscale>
<asrwt>0</asrwt>
<pdfrwt beam="1">  1        2 0.74680141E-01 0.40998681E+03</pdfrwt>
<pdfrwt beam="2">  1       -2 0.11293742E+00 0.40998681E+03</pdfrwt>
<totfact> 0.41025988E+01</totfact>
</mgrwt>
</event>
<event>
 4    1  0.5410820E-008  0.3070941E+03  0.7818608E-02  0.1081747E+00
         -2   -1    0    0    0  501 -0.00000000000E+00  0.00000000000E+00  0.16603904427E+03  0.16603904429E+03  0.25500000000E-02 0.  1.
          2   -1    0    0  501    0  0.00000000000E+00 -0.00000000000E+00 -0.37676299752E+04  0.37676299752E+04  0.25500000000E-02 0. -1.
    8880022    1    1    2    0    0  0.26315413348E+03  0.40804810532E+02 -0.36133244637E+04  0.36263508467E+04  0.15294330000E+03 0.  0.
    8880022    1    1    2    0    0 -0.26315413348E+03 -0.40804810532E+02  0.11733532736E+02  0.30731817280E+03  0.15294330000E+03 0.  1.
<mgrwt>
<rscale>  0 0.30709410E+03</rscale>
<asrwt>0</asrwt>
<pdfrwt beam="1">  1        2 0.57963532E+00 0.30709410E+03</pdfrwt>
<pdfrwt beam="2">  1       -2 0.25544471E-01 0.30709410E+03</pdfrwt>
<totfact> 0.89937964E+00</totfact>
</mgrwt>
</event>
<event>
 4    1  0.5410820E-008  0.3201123E+03  0.7818608E-02  0.1075598E+00
          2   -1    0    0  501    0  0.00000000000E+00  0.00000000000E+00  0.41626567230E+04  0.41626567230E+04  0.25500000000E-02 0. -1.
         -2   -1    0    0    0  501 -0.00000000000E+00 -0.00000000000E+00 -0.38131144854E+02  0.38131144939E+02  0.25500000000E-02 0.  1.
    8880022    1    1    2    0    0 -0.27702578141E+03  0.48342107087E+02  0.81184257607E+03  0.87267420279E+03  0.15294330000E+03 0.  1.
    8880022    1    1    2    0    0  0.27702578141E+03 -0.48342107087E+02  0.33126830021E+04  0.33281136652E+04  0.15294330000E+03 0.  0.
<mgrwt>
<rscale>  0 0.32011232E+03</rscale>
<asrwt>0</asrwt>
<pdfrwt beam="1">  1        2 0.64040854E+00 0.32011232E+03</pdfrwt>
<pdfrwt beam="2">  1       -2 0.58663317E-02 0.32011232E+03</pdfrwt>
<totfact> 0.49962401E+01</totfact>
</mgrwt>
</event>
<event>
 4    1  0.5410820E-008  0.2780713E+03  0.7818608E-02  0.1096747E+00
          2   -1    0    0  501    0  0.00000000000E+00  0.00000000000E+00  0.17344292466E+04  0.17344292466E+04  0.25500000000E-02 0. -1.
         -2   -1    0    0    0  501 -0.00000000000E+00 -0.00000000000E+00 -0.46610872434E+03  0.46610872434E+03  0.25500000000E-02 0.  1.
    8880022    1    1    2    0    0  0.42675575843E+02  0.22827785993E+03  0.16804886668E+04  0.17033396016E+04  0.15294330000E+03 0. -1.
    8880022    1    1    2    0    0 -0.42675575843E+02 -0.22827785993E+03 -0.41216814453E+03  0.49719836936E+03  0.15294330000E+03 0.  0.
<mgrwt>
<rscale>  0 0.27807128E+03</rscale>
<asrwt>0</asrwt>
<pdfrwt beam="1">  1        2 0.26683527E+00 0.27807128E+03</pdfrwt>
<pdfrwt beam="2">  1       -2 0.71709035E-01 0.27807128E+03</pdfrwt>
<totfact> 0.18826896E+01</totfact>
</mgrwt>
</event>
<event>
 4    1  0.5410820E-008  0.1569013E+03  0.7818608E-02  0.1192240E+00
         -2   -1    0    0    0  501 -0.00000000000E+00  0.00000000000E+00  0.11026103953E+04  0.11026103953E+04  0.25500000000E-02 0.  1.
          2   -1    0    0  501    0  0.00000000000E+00 -0.00000000000E+00 -0.60289522952E+03  0.60289522953E+03  0.25500000000E-02 0. -1.
    8880022    1    1    2    0    0  0.35015814526E+02 -0.49743272317E+00  0.10866714360E+04  0.10979402613E+04  0.15294330000E+03 0.  1.
    8880022    1    1    2    0    0 -0.35015814526E+02  0.49743272317E+00 -0.58695627022E+03  0.60756536346E+03  0.15294330000E+03 0.  0.
<mgrwt>
<rscale>  0 0.15690127E+03</rscale>
<asrwt>0</asrwt>
<pdfrwt beam="1">  1        2 0.92753113E-01 0.15690127E+03</pdfrwt>
<pdfrwt beam="2">  1       -2 0.16963237E+00 0.15690127E+03</pdfrwt>
<totfact> 0.12164477E+01</totfact>
</mgrwt>
</event>
<event>
 4    1  0.5410820E-008  0.5351235E+03  0.7818608E-02  0.1004997E+00
          2   -1    0    0  501    0  0.00000000000E+00  0.00000000000E+00  0.18731724594E+04  0.18731724594E+04  0.25500000000E-02 0. -1.
         -2   -1    0    0    0  501 -0.00000000000E+00 -0.00000000000E+00 -0.27196774613E+03  0.27196774615E+03  0.25500000000E-02 0.  1.
    8880022    1    1    2    0    0 -0.49354259421E+03 -0.13921644958E+03  0.15103657673E+04  0.16023613563E+04  0.15294330000E+03 0.  0.
    8880022    1    1    2    0    0  0.49354259421E+03  0.13921644958E+03  0.90838946040E+02  0.54277884932E+03  0.15294330000E+03 0.  0.
<mgrwt>
<rscale>  0 0.53512350E+03</rscale>
<asrwt>0</asrwt>
<pdfrwt beam="1">  1        2 0.28818039E+00 0.53512350E+03</pdfrwt>
<pdfrwt beam="2">  1       -2 0.41841191E-01 0.53512350E+03</pdfrwt>
<totfact> 0.45086106E+01</totfact>
</mgrwt>
</event>
<event>
 4    1  0.5410820E-008  0.2514991E+03  0.7818608E-02  0.1112361E+00
         -2   -1    0    0    0  501 -0.00000000000E+00  0.00000000000E+00  0.54731747537E+02  0.54731747596E+02  0.25500000000E-02 0.  1.
          2   -1    0    0  501    0  0.00000000000E+00 -0.00000000000E+00 -0.12733144548E+04  0.12733144548E+04  0.25500000000E-02 0. -1.
    8880022    1    1    2    0    0  0.25622854923E+02 -0.19799897638E+03 -0.40745326719E+03  0.47882141066E+03  0.15294330000E+03 0. -1.
    8880022    1    1    2    0    0 -0.25622854923E+02  0.19799897638E+03 -0.81112944008E+03  0.84922479175E+03  0.15294330000E+03 0.  0.
<mgrwt>
<rscale>  0 0.25149906E+03</rscale>
<asrwt>0</asrwt>
<pdfrwt beam="1">  1        2 0.19589451E+00 0.25149906E+03</pdfrwt>
<pdfrwt beam="2">  1       -2 0.84202698E-02 0.25149906E+03</pdfrwt>
<totfact> 0.15853901E+03</totfact>
</mgrwt>
</event>
<event>
 4    1  0.5410820E-008  0.1059312E+04  0.7818608E-02  0.9245782E-01
         -2   -1    0    0    0  501 -0.00000000000E+00  0.00000000000E+00  0.47599620517E+03  0.47599620517E+03  0.25500000000E-02 0.  1.
          2   -1    0    0  501    0  0.00000000000E+00 -0.00000000000E+00 -0.27926245139E+04  0.27926245139E+04  0.25500000000E-02 0. -1.
    8880022    1    1    2    0    0  0.75665685649E+03  0.72541135189E+03 -0.51317397871E+03  0.11770685678E+04  0.15294330000E+03 0.  0.
    8880022    1    1    2    0    0 -0.75665685649E+03 -0.72541135189E+03 -0.18034543300E+04  0.20915521512E+04  0.15294330000E+03 0.  0.
<mgrwt>
<rscale>  0 0.10593125E+04</rscale>
<asrwt>0</asrwt>
<pdfrwt beam="1">  1        2 0.42963453E+00 0.10593125E+04</pdfrwt>
<pdfrwt beam="2">  1       -2 0.73230187E-01 0.10593125E+04</pdfrwt>
<totfact> 0.39671104E+00</totfact>
</mgrwt>
</event>
<event>
 4    1  0.5410820E-008  0.6898494E+03  0.7818608E-02  0.9734750E-01
          2   -1    0    0  501    0  0.00000000000E+00  0.00000000000E+00  0.22958671535E+04  0.22958671535E+04  0.25500000000E-02 0. -1.
         -2   -1    0    0    0  501 -0.00000000000E+00 -0.00000000000E+00 -0.49089014487E+03  0.49089014488E+03  0.25500000000E-02 0.  1.
    8880022    1    1    2    0    0 -0.60546859918E+03 -0.29310114342E+03  0.19615868025E+04  0.20793544531E+04  0.15294330000E+03 0.  0.
    8880022    1    1    2    0    0  0.60546859918E+03  0.29310114342E+03 -0.15660979393E+03  0.70740284523E+03  0.15294330000E+03 0.  0.
<mgrwt>
<rscale>  0 0.68984937E+03</rscale>
<asrwt>0</asrwt>
<pdfrwt beam="1">  1        2 0.35321034E+00 0.68984937E+03</pdfrwt>
<pdfrwt beam="2">  1       -2 0.75521559E-01 0.68984937E+03</pdfrwt>
<totfact> 0.75570850E+00</totfact>
</mgrwt>
</event>
<event>
 4    1  0.5410820E-008  0.5895773E+03  0.7818608E-02  0.9927269E-01
         -2   -1    0    0    0  501 -0.00000000000E+00  0.00000000000E+00  0.17913367627E+03  0.17913367629E+03  0.25500000000E-02 0.  1.
          2   -1    0    0  501    0  0.00000000000E+00 -0.00000000000E+00 -0.29426575336E+04  0.29426575336E+04  0.25500000000E-02 0. -1.
    8880022    1    1    2    0    0 -0.27087819153E+03 -0.50083406789E+03 -0.22926836359E+04  0.23672768460E+04  0.15294330000E+03 0.  0.
    8880022    1    1    2    0    0  0.27087819153E+03  0.50083406789E+03 -0.47084022144E+03  0.75451436391E+03  0.15294330000E+03 0.  0.
<mgrwt>
<rscale>  0 0.58957732E+03</rscale>
<asrwt>0</asrwt>
<pdfrwt beam="1">  1        2 0.45271651E+00 0.58957732E+03</pdfrwt>
<pdfrwt beam="2">  1       -2 0.27559029E-01 0.58957732E+03</pdfrwt>
<totfact> 0.24671633E+01</totfact>
</mgrwt>
</event>
<event>
 4    1  0.5410820E-008  0.4451193E+03  0.7818608E-02  0.1029188E+00
         -2   -1    0    0    0  501 -0.00000000000E+00  0.00000000000E+00  0.10531759563E+04  0.10531759563E+04  0.25500000000E-02 0.  1.
          2   -1    0    0  501    0  0.00000000000E+00 -0.00000000000E+00 -0.55069713174E+03  0.55069713174E+03  0.25500000000E-02 0. -1.
    8880022    1    1    2    0    0  0.24828601372E+03  0.33629392807E+03  0.90193730285E+03  0.10057942642E+04  0.15294330000E+03 0.  0.
    8880022    1    1    2    0    0 -0.24828601372E+03 -0.33629392807E+03 -0.39945847826E+03  0.59807882385E+03  0.15294330000E+03 0.  0.
<mgrwt>
<rscale>  0 0.44511931E+03</rscale>
<asrwt>0</asrwt>
<pdfrwt beam="1">  1        2 0.84722636E-01 0.44511931E+03</pdfrwt>
<pdfrwt beam="2">  1       -2 0.16202707E+00 0.44511931E+03</pdfrwt>
<totfact> 0.14110720E+01</totfact>
</mgrwt>
</event>
<event>
 4    1  0.5410820E-008  0.4008438E+03  0.7818608E-02  0.1043488E+00
          2   -1    0    0  501    0  0.00000000000E+00  0.00000000000E+00  0.23375280042E+03  0.23375280043E+03  0.25500000000E-02 0. -1.
         -2   -1    0    0    0  501 -0.00000000000E+00 -0.00000000000E+00 -0.17728597816E+04  0.17728597816E+04  0.25500000000E-02 0.  1.
    8880022    1    1    2    0    0  0.77506046021E+02  0.36232152849E+03 -0.15546233379E+04  0.16054686085E+04  0.15294330000E+03 0.  0.
    8880022    1    1    2    0    0 -0.77506046021E+02 -0.36232152849E+03  0.15516356690E+02  0.40114397355E+03  0.15294330000E+03 0. -1.
<mgrwt>
<rscale>  0 0.40084377E+03</rscale>
<asrwt>0</asrwt>
<pdfrwt beam="1">  1        2 0.35961970E-01 0.40084377E+03</pdfrwt>
<pdfrwt beam="2">  1       -2 0.27274765E+00 0.40084377E+03</pdfrwt>
<totfact> 0.73716149E+00</totfact>
</mgrwt>
</event>
<event>
 4    1  0.5410820E-008  0.4529801E+03  0.7818608E-02  0.1026837E+00
         -2   -1    0    0    0  501 -0.00000000000E+00  0.00000000000E+00  0.12441456025E+04  0.12441456025E+04  0.25500000000E-02 0.  1.
          2   -1    0    0  501    0  0.00000000000E+00 -0.00000000000E+00 -0.10264862367E+04  0.10264862367E+04  0.25500000000E-02 0. -1.
    8880022    1    1    2    0    0  0.22029587529E+03 -0.36506030559E+03 -0.93128969946E+03  0.10356116341E+04  0.15294330000E+03 0.  0.
    8880022    1    1    2    0    0 -0.22029587529E+03  0.36506030559E+03  0.11489490653E+04  0.12350202051E+04  0.15294330000E+03 0.  0.
<mgrwt>
<rscale>  0 0.45298008E+03</rscale>
<asrwt>0</asrwt>
<pdfrwt beam="1">  1        2 0.15792096E+00 0.45298008E+03</pdfrwt>
<pdfrwt beam="2">  1       -2 0.19140701E+00 0.45298008E+03</pdfrwt>
<totfact> 0.39748479E+00</totfact>
</mgrwt>
</event>
<event>
 4    1  0.5410820E-008  0.6015817E+03  0.7818608E-02  0.9902130E-01
          2   -1    0    0  501    0  0.00000000000E+00  0.00000000000E+00  0.29003114996E+04  0.29003114996E+04  0.25500000000E-02 0. -1.
         -2   -1    0    0    0  501 -0.00000000000E+00 -0.00000000000E+00 -0.20107678097E+03  0.20107678099E+03  0.25500000000E-02 0.  1.
    8880022    1    1    2    0    0  0.57963827775E+03 -0.50283060649E+02  0.39440797059E+03  0.71934568846E+03  0.15294330000E+03 0.  0.
    8880022    1    1    2    0    0 -0.57963827775E+03  0.50283060649E+02  0.23048267480E+04  0.23820425921E+04  0.15294330000E+03 0.  0.
<mgrwt>
<rscale>  0 0.60158173E+03</rscale>
<asrwt>0</asrwt>
<pdfrwt beam="1">  1        2 0.44620176E+00 0.60158173E+03</pdfrwt>
<pdfrwt beam="2">  1       -2 0.30934890E-01 0.60158173E+03</pdfrwt>
<totfact> 0.21090734E+01</totfact>
</mgrwt>
</event>
<event>
 4    1  0.5410820E-008  0.2460717E+03  0.7818608E-02  0.1115813E+00
         -2   -1    0    0    0  501 -0.00000000000E+00  0.00000000000E+00  0.49383722988E+02  0.49383723054E+02  0.25500000000E-02 0.  1.
          2   -1    0    0  501    0  0.00000000000E+00 -0.00000000000E+00 -0.19271749906E+04  0.19271749906E+04  0.25500000000E-02 0. -1.
    8880022    1    1    2    0    0 -0.17645725596E+03 -0.77604591892E+02 -0.34283638583E+03  0.42200482974E+03  0.15294330000E+03 0.  0.
    8880022    1    1    2    0    0  0.17645725596E+03  0.77604591892E+02 -0.15349548818E+04  0.15545538840E+04  0.15294330000E+03 0.  0.
<mgrwt>
<rscale>  0 0.24607171E+03</rscale>
<asrwt>0</asrwt>
<pdfrwt beam="1">  1        2 0.29648840E+00 0.24607171E+03</pdfrwt>
<pdfrwt beam="2">  1       -2 0.75974973E-02 0.24607171E+03</pdfrwt>
<totfact> 0.83546412E+02</totfact>
</mgrwt>
</event>
<event>
 4    1  0.5410820E-008  0.6818037E+03  0.7818608E-02  0.9748866E-01
          2   -1    0    0  501    0  0.00000000000E+00  0.00000000000E+00  0.88484073803E+03  0.88484073803E+03  0.25500000000E-02 0. -1.
         -2   -1    0    0    0  501 -0.00000000000E+00 -0.00000000000E+00 -0.86589605803E+03  0.86589605803E+03  0.25500000000E-02 0.  1.
    8880022    1    1    2    0    0  0.15086898444E+03 -0.64707281743E+03  0.55843414168E+03  0.88130870025E+03  0.15294330000E+03 0.  0.
    8880022    1    1    2    0    0 -0.15086898444E+03  0.64707281743E+03 -0.53948946167E+03  0.86942809582E+03  0.15294330000E+03 0.  0.
<mgrwt>
<rscale>  0 0.68180374E+03</rscale>
<asrwt>0</asrwt>
<pdfrwt beam="1">  1        2 0.13612934E+00 0.68180374E+03</pdfrwt>
<pdfrwt beam="2">  1       -2 0.13321478E+00 0.68180374E+03</pdfrwt>
<totfact> 0.12551646E+01</totfact>
</mgrwt>
</event>
<event>
 4    1  0.5410820E-008  0.5963854E+03  0.7818608E-02  0.9912934E-01
          2   -1    0    0  501    0  0.00000000000E+00  0.00000000000E+00  0.22000754197E+04  0.22000754197E+04  0.25500000000E-02 0. -1.
         -2   -1    0    0    0  501 -0.00000000000E+00 -0.00000000000E+00 -0.58217377563E+03  0.58217377564E+03  0.25500000000E-02 0.  1.
    8880022    1    1    2    0    0 -0.36979943401E+03  0.44219031223E+03  0.19912493783E+04  0.20786412950E+04  0.15294330000E+03 0.  0.
    8880022    1    1    2    0    0  0.36979943401E+03 -0.44219031223E+03 -0.37334773430E+03  0.70360790029E+03  0.15294330000E+03 0.  0.
<mgrwt>
<rscale>  0 0.59638540E+03</rscale>
<asrwt>0</asrwt>
<pdfrwt beam="1">  1        2 0.33847314E+00 0.59638540E+03</pdfrwt>
<pdfrwt beam="2">  1       -2 0.89565198E-01 0.59638540E+03</pdfrwt>
<totfact> 0.59142787E+00</totfact>
</mgrwt>
</event>
<event>
 4    1  0.5410820E-008  0.4692425E+03  0.7818608E-02  0.1022134E+00
         -2   -1    0    0    0  501 -0.00000000000E+00  0.00000000000E+00  0.40051990451E+03  0.40051990452E+03  0.25500000000E-02 0.  1.
          2   -1    0    0  501    0  0.00000000000E+00 -0.00000000000E+00 -0.12829248245E+04  0.12829248245E+04  0.25500000000E-02 0. -1.
    8880022    1    1    2    0    0 -0.23906761201E+03 -0.37368912753E+03  0.19510940402E+03  0.50818915740E+03  0.15294330000E+03 0.  0.
    8880022    1    1    2    0    0  0.23906761201E+03  0.37368912753E+03 -0.10775143240E+04  0.11752555716E+04  0.15294330000E+03 0.  0.
<mgrwt>
<rscale>  0 0.46924252E+03</rscale>
<asrwt>0</asrwt>
<pdfrwt beam="1">  1        2 0.19737305E+00 0.46924252E+03</pdfrwt>
<pdfrwt beam="2">  1       -2 0.61618447E-01 0.46924252E+03</pdfrwt>
<totfact> 0.43721781E+01</totfact>
</mgrwt>
</event>
<event>
 4    1  0.5410820E-008  0.8574642E+03  0.7818608E-02  0.9480373E-01
          2   -1    0    0  501    0  0.00000000000E+00  0.00000000000E+00  0.86696867471E+03  0.86696867472E+03  0.25500000000E-02 0. -1.
         -2   -1    0    0    0  501 -0.00000000000E+00 -0.00000000000E+00 -0.10156517172E+04  0.10156517172E+04  0.25500000000E-02 0.  1.
    8880022    1    1    2    0    0  0.83933786756E+03 -0.85820913929E+02  0.30802638057E+03  0.91111206190E+03  0.15294330000E+03 0.  0.
    8880022    1    1    2    0    0 -0.83933786756E+03  0.85820913929E+02 -0.45670942306E+03  0.97150833003E+03  0.15294330000E+03 0.  0.
<mgrwt>
<rscale>  0 0.85746425E+03</rscale>
<asrwt>0</asrwt>
<pdfrwt beam="1">  1        2 0.13337980E+00 0.85746425E+03</pdfrwt>
<pdfrwt beam="2">  1       -2 0.15625411E+00 0.85746425E+03</pdfrwt>
<totfact> 0.83405409E+00</totfact>
</mgrwt>
</event>
<event>
 4    1  0.5410820E-008  0.8435671E+03  0.7818608E-02  0.9499012E-01
          2   -1    0    0  501    0  0.00000000000E+00  0.00000000000E+00  0.15636961047E+04  0.15636961047E+04  0.25500000000E-02 0. -1.
         -2   -1    0    0    0  501 -0.00000000000E+00 -0.00000000000E+00 -0.60649662123E+03  0.60649662123E+03  0.25500000000E-02 0.  1.
    8880022    1    1    2    0    0  0.35669051682E+03 -0.74898980567E+03 -0.63578516201E+02  0.84595965301E+03  0.15294330000E+03 0.  0.
    8880022    1    1    2    0    0 -0.35669051682E+03  0.74898980567E+03  0.10207779997E+04  0.13242330729E+04  0.15294330000E+03 0.  0.
<mgrwt>
<rscale>  0 0.84356713E+03</rscale>
<asrwt>0</asrwt>
<pdfrwt beam="1">  1        2 0.24056863E+00 0.84356713E+03</pdfrwt>
<pdfrwt beam="2">  1       -2 0.93307173E-01 0.84356713E+03</pdfrwt>
<totfact> 0.11514124E+01</totfact>
</mgrwt>
</event>
<event>
 4    1  0.5410820E-008  0.2804827E+03  0.7818608E-02  0.1095426E+00
         -2   -1    0    0    0  501 -0.00000000000E+00  0.00000000000E+00  0.15092922521E+04  0.15092922521E+04  0.25500000000E-02 0.  1.
          2   -1    0    0  501    0  0.00000000000E+00 -0.00000000000E+00 -0.11629196278E+04  0.11629196278E+04  0.25500000000E-02 0. -1.
    8880022    1    1    2    0    0 -0.19894103017E+03  0.12530502955E+03  0.14790056656E+04  0.15053664989E+04  0.15294330000E+03 0.  0.
    8880022    1    1    2    0    0  0.19894103017E+03 -0.12530502955E+03 -0.11326330413E+04  0.11668453810E+04  0.15294330000E+03 0.  0.
<mgrwt>
<rscale>  0 0.28048269E+03</rscale>
<asrwt>0</asrwt>
<pdfrwt beam="1">  1        2 0.17891071E+00 0.28048269E+03</pdfrwt>
<pdfrwt beam="2">  1       -2 0.23219881E+00 0.28048269E+03</pdfrwt>
<totfact> 0.19438443E+00</totfact>
</mgrwt>
</event>
<event>
 4    1  0.5410820E-008  0.2319651E+03  0.7818608E-02  0.1125264E+00
          2   -1    0    0  501    0  0.00000000000E+00  0.00000000000E+00  0.17322233430E+04  0.17322233430E+04  0.25500000000E-02 0. -1.
         -2   -1    0    0    0  501 -0.00000000000E+00 -0.00000000000E+00 -0.17367401900E+03  0.17367401902E+03  0.25500000000E-02 0.  1.
    8880022    1    1    2    0    0 -0.17283117100E+03 -0.23356333729E+02  0.16428075128E+04  0.16591034655E+04  0.15294330000E+03 0. -1.
    8880022    1    1    2    0    0  0.17283117100E+03  0.23356333729E+02 -0.84258188781E+02  0.24679389658E+03  0.15294330000E+03 0.  0.
<mgrwt>
<rscale>  0 0.23196505E+03</rscale>
<asrwt>0</asrwt>
<pdfrwt beam="1">  1        2 0.26649590E+00 0.23196505E+03</pdfrwt>
<pdfrwt beam="2">  1       -2 0.26719080E-01 0.23196505E+03</pdfrwt>
<totfact> 0.13231968E+02</totfact>
</mgrwt>
</event>
<event>
 4    1  0.5410820E-008  0.1150693E+04  0.7818608E-02  0.9157145E-01
          2   -1    0    0  501    0  0.00000000000E+00  0.00000000000E+00  0.12164172029E+04  0.12164172029E+04  0.25500000000E-02 0. -1.
         -2   -1    0    0    0  501 -0.00000000000E+00 -0.00000000000E+00 -0.11264617850E+04  0.11264617850E+04  0.25500000000E-02 0.  1.
    8880022    1    1    2    0    0 -0.50498655952E+02 -0.11393647570E+04  0.25997030603E+03  0.11796941878E+04  0.15294330000E+03 0.  0.
    8880022    1    1    2    0    0  0.50498655952E+02  0.11393647570E+04 -0.17001488810E+03  0.11631848000E+04  0.15294330000E+03 0.  0.
<mgrwt>
<rscale>  0 0.11506928E+04</rscale>
<asrwt>0</asrwt>
<pdfrwt beam="1">  1        2 0.18714111E+00 0.11506928E+04</pdfrwt>
<pdfrwt beam="2">  1       -2 0.17330181E+00 0.11506928E+04</pdfrwt>
<totfact> 0.36504770E+00</totfact>
</mgrwt>
</event>
<event>
 4    1  0.7647206E-008  0.9766072E+03  0.7818608E-02  0.9334580E-01
         -2   -1    0    0    0  501 -0.00000000000E+00  0.00000000000E+00  0.91101477120E+03  0.91101477120E+03  0.25500000000E-02 0.  1.
          2   -1    0    0  501    0  0.00000000000E+00 -0.00000000000E+00 -0.18903295685E+04  0.18903295685E+04  0.25500000000E-02 0. -1.
    8880022    1    1    2    0    0  0.93622262022E+03  0.23207137821E+03 -0.14252492615E+04  0.17277433344E+04  0.15294330000E+03 0.  0.
    8880022    1    1    2    0    0 -0.93622262022E+03 -0.23207137821E+03  0.44593446420E+03  0.10736010053E+04  0.15294330000E+03 0.  0.
<mgrwt>
<rscale>  0 0.97660717E+03</rscale>
<asrwt>0</asrwt>
<pdfrwt beam="1">  1        2 0.29081993E+00 0.97660717E+03</pdfrwt>
<pdfrwt beam="2">  1       -2 0.14015612E+00 0.97660717E+03</pdfrwt>
<totfact> 0.27523747E+00</totfact>
</mgrwt>
</event>
<event>
 4    1  0.5410820E-008  0.5717843E+03  0.7818608E-02  0.9965738E-01
         -2   -1    0    0    0  501 -0.00000000000E+00  0.00000000000E+00  0.40218416377E+03  0.40218416378E+03  0.25500000000E-02 0.  1.
          2   -1    0    0  501    0  0.00000000000E+00 -0.00000000000E+00 -0.15697305496E+04  0.15697305496E+04  0.25500000000E-02 0. -1.
    8880022    1    1    2    0    0 -0.15092201071E+03  0.52987567591E+03 -0.12683837581E+04  0.13913068303E+04  0.15294330000E+03 0.  0.
    8880022    1    1    2    0    0  0.15092201071E+03 -0.52987567591E+03  0.10083737226E+03  0.58060788308E+03  0.15294330000E+03 0.  0.
<mgrwt>
<rscale>  0 0.57178435E+03</rscale>
<asrwt>0</asrwt>
<pdfrwt beam="1">  1        2 0.24149701E+00 0.57178435E+03</pdfrwt>
<pdfrwt beam="2">  1       -2 0.61874487E-01 0.57178435E+03</pdfrwt>
<totfact> 0.29525854E+01</totfact>
</mgrwt>
</event>
<event>
 4    1  0.5410820E-008  0.3077781E+03  0.7818608E-02  0.1081416E+00
         -2   -1    0    0    0  501 -0.00000000000E+00  0.00000000000E+00  0.52100784220E+02  0.52100784283E+02  0.25500000000E-02 0.  1.
          2   -1    0    0  501    0  0.00000000000E+00 -0.00000000000E+00 -0.19597182451E+04  0.19597182451E+04  0.25500000000E-02 0. -1.
    8880022    1    1    2    0    0 -0.26600931007E+03  0.23973690751E+02 -0.12241647858E+04  0.12622625585E+04  0.15294330000E+03 0.  1.
    8880022    1    1    2    0    0  0.26600931007E+03 -0.23973690751E+02 -0.68345267509E+03  0.74955647086E+03  0.15294330000E+03 0.  1.
<mgrwt>
<rscale>  0 0.30777808E+03</rscale>
<asrwt>0</asrwt>
<pdfrwt beam="1">  1        2 0.30149506E+00 0.30777808E+03</pdfrwt>
<pdfrwt beam="2">  1       -2 0.80155068E-02 0.30777808E+03</pdfrwt>
<totfact> 0.73243954E+02</totfact>
</mgrwt>
</event>
<event>
 4    1  0.5410820E-008  0.1121567E+04  0.7818608E-02  0.9184422E-01
         -2   -1    0    0    0  501 -0.00000000000E+00  0.00000000000E+00  0.74351531446E+03  0.74351531447E+03  0.25500000000E-02 0.  1.
          2   -1    0    0  501    0  0.00000000000E+00 -0.00000000000E+00 -0.27509482964E+04  0.27509482964E+04  0.25500000000E-02 0. -1.
    8880022    1    1    2    0    0  0.78588423866E+03  0.78543456652E+03 -0.20878389464E+04  0.23700178510E+04  0.15294330000E+03 0.  0.
    8880022    1    1    2    0    0 -0.78588423866E+03 -0.78543456652E+03  0.80405964430E+02  0.11244457599E+04  0.15294330000E+03 0.  0.
<mgrwt>
<rscale>  0 0.11215673E+04</rscale>
<asrwt>0</asrwt>
<pdfrwt beam="1">  1        2 0.42322281E+00 0.11215673E+04</pdfrwt>
<pdfrwt beam="2">  1       -2 0.11438697E+00 0.11215673E+04</pdfrwt>
<totfact> 0.14713826E+00</totfact>
</mgrwt>
</event>
<event>
 4    1  0.5410820E-008  0.9409917E+03  0.7818608E-02  0.9375742E-01
         -2   -1    0    0    0  501 -0.00000000000E+00  0.00000000000E+00  0.27145012479E+03  0.27145012480E+03  0.25500000000E-02 0.  1.
          2   -1    0    0  501    0  0.00000000000E+00 -0.00000000000E+00 -0.37298205582E+04  0.37298205582E+04  0.25500000000E-02 0. -1.
    8880022    1    1    2    0    0  0.64182396491E+03 -0.67092151112E+03 -0.24377378734E+04  0.26130501848E+04  0.15294330000E+03 0.  0.
    8880022    1    1    2    0    0 -0.64182396491E+03  0.67092151112E+03 -0.10206325601E+04  0.13882204982E+04  0.15294330000E+03 0.  0.
<mgrwt>
<rscale>  0 0.94099167E+03</rscale>
<asrwt>0</asrwt>
<pdfrwt beam="1">  1        2 0.57381851E+00 0.94099167E+03</pdfrwt>
<pdfrwt beam="2">  1       -2 0.41761560E-01 0.94099167E+03</pdfrwt>
<totfact> 0.31800079E+00</totfact>
</mgrwt>
</event>
<event>
 4    1  0.5410820E-008  0.2085172E+03  0.7818608E-02  0.1142746E+00
         -2   -1    0    0    0  501 -0.00000000000E+00  0.00000000000E+00  0.11988594157E+03  0.11988594160E+03  0.25500000000E-02 0.  1.
          2   -1    0    0  501    0  0.00000000000E+00 -0.00000000000E+00 -0.85597765691E+03  0.85597765691E+03  0.25500000000E-02 0. -1.
    8880022    1    1    2    0    0  0.15552448616E+02  0.14087547946E+03  0.23664217335E+01  0.20853065083E+03  0.15294330000E+03 0.  0.
    8880022    1    1    2    0    0 -0.15552448616E+02 -0.14087547946E+03 -0.73845813707E+03  0.76733294768E+03  0.15294330000E+03 0. -1.
<mgrwt>
<rscale>  0 0.20851722E+03</rscale>
<asrwt>0</asrwt>
<pdfrwt beam="1">  1        2 0.13168887E+00 0.20851722E+03</pdfrwt>
<pdfrwt beam="2">  1       -2 0.18443992E-01 0.20851722E+03</pdfrwt>
<totfact> 0.78905873E+02</totfact>
</mgrwt>
</event>
<event>
 4    1  0.5410820E-008  0.9460050E+03  0.7818608E-02  0.9369832E-01
         -2   -1    0    0    0  501 -0.00000000000E+00  0.00000000000E+00  0.21977730511E+04  0.21977730511E+04  0.25500000000E-02 0.  1.
          2   -1    0    0  501    0  0.00000000000E+00 -0.00000000000E+00 -0.11947358248E+04  0.11947358248E+04  0.25500000000E-02 0. -1.
    8880022    1    1    2    0    0 -0.82147385261E+03 -0.44352516203E+03  0.18787000996E+04  0.21034351850E+04  0.15294330000E+03 0.  0.
    8880022    1    1    2    0    0  0.82147385261E+03  0.44352516203E+03 -0.87566287333E+03  0.12890736909E+04  0.15294330000E+03 0.  0.
<mgrwt>
<rscale>  0 0.94600503E+03</rscale>
<asrwt>0</asrwt>
<pdfrwt beam="1">  1        2 0.18380551E+00 0.94600503E+03</pdfrwt>
<pdfrwt beam="2">  1       -2 0.33811893E+00 0.94600503E+03</pdfrwt>
<totfact> 0.35918823E-01</totfact>
</mgrwt>
</event>
<event>
 4    1  0.5410820E-008  0.5663777E+03  0.7818608E-02  0.9977726E-01
          2   -1    0    0  501    0  0.00000000000E+00  0.00000000000E+00  0.11507075231E+04  0.11507075231E+04  0.25500000000E-02 0. -1.
         -2   -1    0    0    0  501 -0.00000000000E+00 -0.00000000000E+00 -0.31600836780E+03  0.31600836781E+03  0.25500000000E-02 0.  1.
    8880022    1    1    2    0    0  0.32137826883E+03  0.44057698966E+03  0.66909234403E+03  0.87662323341E+03  0.15294330000E+03 0.  0.
    8880022    1    1    2    0    0 -0.32137826883E+03 -0.44057698966E+03  0.16560681128E+03  0.59009265752E+03  0.15294330000E+03 0.  0.
<mgrwt>
<rscale>  0 0.56637773E+03</rscale>
<asrwt>0</asrwt>
<pdfrwt beam="1">  1        2 0.17703193E+00 0.56637773E+03</pdfrwt>
<pdfrwt beam="2">  1       -2 0.48616672E-01 0.56637773E+03</pdfrwt>
<totfact> 0.83978780E+01</totfact>
</mgrwt>
</event>
<event>
 4    1  0.5410820E-008  0.6227625E+03  0.7818608E-02  0.9859275E-01
          2   -1    0    0  501    0  0.00000000000E+00  0.00000000000E+00  0.20000288154E+04  0.20000288154E+04  0.25500000000E-02 0. -1.
         -2   -1    0    0    0  501 -0.00000000000E+00 -0.00000000000E+00 -0.53199730653E+03  0.53199730653E+03  0.25500000000E-02 0.  1.
    8880022    1    1    2    0    0 -0.32995920318E+03  0.50553778543E+03 -0.27522658946E+03  0.68086919215E+03  0.15294330000E+03 0.  0.
    8880022    1    1    2    0    0  0.32995920318E+03 -0.50553778543E+03  0.17432580983E+04  0.18511569297E+04  0.15294330000E+03 0.  0.
<mgrwt>
<rscale>  0 0.62276254E+03</rscale>
<asrwt>0</asrwt>
<pdfrwt beam="1">  1        2 0.30769675E+00 0.62276254E+03</pdfrwt>
<pdfrwt beam="2">  1       -2 0.81845738E-01 0.62276254E+03</pdfrwt>
<totfact> 0.92806178E+00</totfact>
</mgrwt>
</event>
<event>
 4    1  0.5410820E-008  0.5335154E+03  0.7818608E-02  0.1005383E+00
         -2   -1    0    0    0  501 -0.00000000000E+00  0.00000000000E+00  0.10065589347E+03  0.10065589351E+03  0.25500000000E-02 0.  1.
          2   -1    0    0  501    0  0.00000000000E+00 -0.00000000000E+00 -0.28512968259E+04  0.28512968259E+04  0.25500000000E-02 0. -1.
    8880022    1    1    2    0    0  0.33191127131E+03 -0.38869264169E+03 -0.12414461885E+04  0.13512317913E+04  0.15294330000E+03 0. -1.
    8880022    1    1    2    0    0 -0.33191127131E+03  0.38869264169E+03 -0.15091947439E+04  0.16007209281E+04  0.15294330000E+03 0.  1.
<mgrwt>
<rscale>  0 0.53351543E+03</rscale>
<asrwt>0</asrwt>
<pdfrwt beam="1">  1        2 0.43866099E+00 0.53351543E+03</pdfrwt>
<pdfrwt beam="2">  1       -2 0.15485524E-01 0.53351543E+03</pdfrwt>
<totfact> 0.77574925E+01</totfact>
</mgrwt>
</event>
<event>
 4    1  0.5410820E-008  0.3013493E+03  0.7818608E-02  0.1084568E+00
         -2   -1    0    0    0  501 -0.00000000000E+00  0.00000000000E+00  0.16162678083E+03  0.16162678085E+03  0.25500000000E-02 0.  1.
          2   -1    0    0  501    0  0.00000000000E+00 -0.00000000000E+00 -0.32586163280E+04  0.32586163280E+04  0.25500000000E-02 0. -1.
    8880022    1    1    2    0    0 -0.22140579312E+03 -0.13564367379E+03 -0.31042144275E+04  0.31188072394E+04  0.15294330000E+03 0.  0.
    8880022    1    1    2    0    0  0.22140579312E+03  0.13564367379E+03  0.72248803805E+01  0.30143586943E+03  0.15294330000E+03 0.  1.
<mgrwt>
<rscale>  0 0.30134927E+03</rscale>
<asrwt>0</asrwt>
<pdfrwt beam="1">  1        2 0.50132554E+00 0.30134927E+03</pdfrwt>
<pdfrwt beam="2">  1       -2 0.24865661E-01 0.30134927E+03</pdfrwt>
<totfact> 0.20709615E+01</totfact>
</mgrwt>
</event>
<event>
 4    1  0.5410820E-008  0.1080657E+04  0.7818608E-02  0.9224253E-01
         -2   -1    0    0    0  501 -0.00000000000E+00  0.00000000000E+00  0.21351672271E+04  0.21351672271E+04  0.25500000000E-02 0.  1.
          2   -1    0    0  501    0  0.00000000000E+00 -0.00000000000E+00 -0.90847706345E+03  0.90847706345E+03  0.25500000000E-02 0. -1.
    8880022    1    1    2    0    0  0.12671881835E+03  0.10622477108E+04  0.15733648884E+04  0.19087421469E+04  0.15294330000E+03 0.  0.
    8880022    1    1    2    0    0 -0.12671881835E+03 -0.10622477108E+04 -0.34667472475E+03  0.11349021437E+04  0.15294330000E+03 0.  0.
<mgrwt>
<rscale>  0 0.10806570E+04</rscale>
<asrwt>0</asrwt>
<pdfrwt beam="1">  1        2 0.13976570E+00 0.10806570E+04</pdfrwt>
<pdfrwt beam="2">  1       -2 0.32848726E+00 0.10806570E+04</pdfrwt>
<totfact> 0.61198816E-01</totfact>
</mgrwt>
</event>
<event>
 4    1  0.5410820E-008  0.3151949E+03  0.7818608E-02  0.1077882E+00
         -2   -1    0    0    0  501 -0.00000000000E+00  0.00000000000E+00  0.37291914973E+03  0.37291914974E+03  0.25500000000E-02 0.  1.
          2   -1    0    0  501    0  0.00000000000E+00 -0.00000000000E+00 -0.19162550086E+04  0.19162550086E+04  0.25500000000E-02 0. -1.
    8880022    1    1    2    0    0 -0.24924272220E+03 -0.11761902911E+03  0.29038048326E+03  0.42856580434E+03  0.15294330000E+03 0.  0.
    8880022    1    1    2    0    0  0.24924272220E+03  0.11761902911E+03 -0.18337163421E+04  0.18606083540E+04  0.15294330000E+03 0. -1.
<mgrwt>
<rscale>  0 0.31519490E+03</rscale>
<asrwt>0</asrwt>
<pdfrwt beam="1">  1        2 0.29480846E+00 0.31519490E+03</pdfrwt>
<pdfrwt beam="2">  1       -2 0.57372178E-01 0.31519490E+03</pdfrwt>
<totfact> 0.23869922E+01</totfact>
</mgrwt>
</event>
<event>
 4    1  0.5410820E-008  0.4640144E+03  0.7818608E-02  0.1023623E+00
         -2   -1    0    0    0  501 -0.00000000000E+00  0.00000000000E+00  0.20402292606E+03  0.20402292608E+03  0.25500000000E-02 0.  1.
          2   -1    0    0  501    0  0.00000000000E+00 -0.00000000000E+00 -0.23580545559E+04  0.23580545559E+04  0.25500000000E-02 0. -1.
    8880022    1    1    2    0    0 -0.25928197987E+03  0.35311546757E+03 -0.12484816367E+03  0.48051680044E+03  0.15294330000E+03 0.  0.
    8880022    1    1    2    0    0  0.25928197987E+03 -0.35311546757E+03 -0.20291834662E+04  0.20815606816E+04  0.15294330000E+03 0.  0.
<mgrwt>
<rscale>  0 0.46401437E+03</rscale>
<asrwt>0</asrwt>
<pdfrwt beam="1">  1        2 0.36277760E+00 0.46401437E+03</pdfrwt>
<pdfrwt beam="2">  1       -2 0.31388144E-01 0.46401437E+03</pdfrwt>
<totfact> 0.43136700E+01</totfact>
</mgrwt>
</event>
<event>
 4    1  0.5410820E-008  0.3291538E+03  0.7818608E-02  0.1071512E+00
          2   -1    0    0  501    0  0.00000000000E+00  0.00000000000E+00  0.99675624035E+03  0.99675624036E+03  0.25500000000E-02 0. -1.
         -2   -1    0    0    0  501 -0.00000000000E+00 -0.00000000000E+00 -0.16442813277E+03  0.16442813279E+03  0.25500000000E-02 0.  1.
    8880022    1    1    2    0    0  0.10864721587E+03  0.27045579961E+03  0.75418271011E+03  0.82288138289E+03  0.15294330000E+03 0. -1.
    8880022    1    1    2    0    0 -0.10864721587E+03 -0.27045579961E+03  0.78145397469E+02  0.33830299026E+03  0.15294330000E+03 0.  0.
<mgrwt>
<rscale>  0 0.32915378E+03</rscale>
<asrwt>0</asrwt>
<pdfrwt beam="1">  1        2 0.15334711E+00 0.32915378E+03</pdfrwt>
<pdfrwt beam="2">  1       -2 0.25296636E-01 0.32915378E+03</pdfrwt>
<totfact> 0.36748697E+02</totfact>
</mgrwt>
</event>
<event>
 4    1  0.5410820E-008  0.4990559E+03  0.7818608E-02  0.1014026E+00
         -2   -1    0    0    0  501 -0.00000000000E+00  0.00000000000E+00  0.69059961473E+03  0.69059961474E+03  0.25500000000E-02 0.  1.
          2   -1    0    0  501    0  0.00000000000E+00 -0.00000000000E+00 -0.74787210010E+03  0.74787210011E+03  0.25500000000E-02 0. -1.
    8880022    1    1    2    0    0  0.47456352422E+03  0.21320744322E+02 -0.54617659516E+03  0.73984163087E+03  0.15294330000E+03 0.  0.
    8880022    1    1    2    0    0 -0.47456352422E+03 -0.21320744322E+02  0.48890410978E+03  0.69863008398E+03  0.15294330000E+03 0.  0.
<mgrwt>
<rscale>  0 0.49905587E+03</rscale>
<asrwt>0</asrwt>
<pdfrwt beam="1">  1        2 0.11505725E+00 0.49905587E+03</pdfrwt>
<pdfrwt beam="2">  1       -2 0.10624609E+00 0.49905587E+03</pdfrwt>
<totfact> 0.28016953E+01</totfact>
</mgrwt>
</event>
<event>
 4    1  0.5410820E-008  0.1281697E+04  0.7818608E-02  0.9044207E-01
         -2   -1    0    0    0  501 -0.00000000000E+00  0.00000000000E+00  0.84369796430E+03  0.84369796430E+03  0.25500000000E-02 0.  1.
          2   -1    0    0  501    0  0.00000000000E+00 -0.00000000000E+00 -0.25613948542E+04  0.25613948542E+04  0.25500000000E-02 0. -1.
    8880022    1    1    2    0    0 -0.22264983483E+03  0.12529094844E+04 -0.16926380477E+04  0.21231510400E+04  0.15294330000E+03 0.  0.
    8880022    1    1    2    0    0  0.22264983483E+03 -0.12529094844E+04 -0.25058842236E+02  0.12819417786E+04  0.15294330000E+03 0.  0.
<mgrwt>
<rscale>  0 0.12816968E+04</rscale>
<asrwt>0</asrwt>
<pdfrwt beam="1">  1        2 0.39406074E+00 0.12816968E+04</pdfrwt>
<pdfrwt beam="2">  1       -2 0.12979969E+00 0.12816968E+04</pdfrwt>
<totfact> 0.13568571E+00</totfact>
</mgrwt>
</event>
<event>
 4    1  0.5410820E-008  0.4161422E+03  0.7818608E-02  0.1038329E+00
          2   -1    0    0  501    0  0.00000000000E+00  0.00000000000E+00  0.21706055040E+04  0.21706055040E+04  0.25500000000E-02 0. -1.
         -2   -1    0    0    0  501 -0.00000000000E+00 -0.00000000000E+00 -0.12773319960E+03  0.12773319962E+03  0.25500000000E-02 0.  1.
    8880022    1    1    2    0    0 -0.16631013266E+03 -0.34946183984E+03  0.31733691240E+03  0.52333259665E+03  0.15294330000E+03 0.  0.
    8880022    1    1    2    0    0  0.16631013266E+03  0.34946183984E+03  0.17255353920E+04  0.17750061070E+04  0.15294330000E+03 0.  0.
<mgrwt>
<rscale>  0 0.41614215E+03</rscale>
<asrwt>0</asrwt>
<pdfrwt beam="1">  1        2 0.33393928E+00 0.41614215E+03</pdfrwt>
<pdfrwt beam="2">  1       -2 0.19651263E-01 0.41614215E+03</pdfrwt>
<totfact> 0.12728540E+02</totfact>
</mgrwt>
</event>
<event>
 4    1  0.5410820E-008  0.5900091E+03  0.7818608E-02  0.9926353E-01
          2   -1    0    0  501    0  0.00000000000E+00  0.00000000000E+00  0.13459233471E+04  0.13459233471E+04  0.25500000000E-02 0. -1.
         -2   -1    0    0    0  501 -0.00000000000E+00 -0.00000000000E+00 -0.66258232370E+03  0.66258232370E+03  0.25500000000E-02 0.  1.
    8880022    1    1    2    0    0 -0.12339749498E+03  0.55632022005E+03  0.11257901974E+04  0.12710288552E+04  0.15294330000E+03 0.  0.
    8880022    1    1    2    0    0  0.12339749498E+03 -0.55632022005E+03 -0.44244917403E+03  0.73747681565E+03  0.15294330000E+03 0.  0.
<mgrwt>
<rscale>  0 0.59000914E+03</rscale>
<asrwt>0</asrwt>
<pdfrwt beam="1">  1        2 0.20706513E+00 0.59000914E+03</pdfrwt>
<pdfrwt beam="2">  1       -2 0.10193574E+00 0.59000914E+03</pdfrwt>
<totfact> 0.12823959E+01</totfact>
</mgrwt>
</event>
<event>
 4    1  0.5410820E-008  0.4637969E+03  0.7818608E-02  0.1023686E+00
         -2   -1    0    0    0  501 -0.00000000000E+00  0.00000000000E+00  0.33029885729E+03  0.33029885730E+03  0.25500000000E-02 0.  1.
          2   -1    0    0  501    0  0.00000000000E+00 -0.00000000000E+00 -0.74902302287E+03  0.74902302288E+03  0.25500000000E-02 0. -1.
    8880022    1    1    2    0    0  0.42177064782E+03 -0.11758175315E+03 -0.40433745653E+03  0.61530186073E+03  0.15294330000E+03 0.  0.
    8880022    1    1    2    0    0 -0.42177064782E+03  0.11758175315E+03 -0.14386709048E+02  0.46402001945E+03  0.15294330000E+03 0.  0.
<mgrwt>
<rscale>  0 0.46379694E+03</rscale>
<asrwt>0</asrwt>
<pdfrwt beam="1">  1        2 0.11523431E+00 0.46379694E+03</pdfrwt>
<pdfrwt beam="2">  1       -2 0.50815209E-01 0.46379694E+03</pdfrwt>
<totfact> 0.14189585E+02</totfact>
</mgrwt>
</event>
<event>
 4    1  0.5410820E-008  0.1124697E+04  0.7818608E-02  0.9181449E-01
          2   -1    0    0  501    0  0.00000000000E+00  0.00000000000E+00  0.18496957839E+04  0.18496957839E+04  0.25500000000E-02 0. -1.
         -2   -1    0    0    0  501 -0.00000000000E+00 -0.00000000000E+00 -0.81523711747E+03  0.81523711747E+03  0.25500000000E-02 0.  1.
    8880022    1    1    2    0    0  0.67734907559E+03 -0.88473161428E+03  0.10521197263E+04  0.15400971953E+04  0.15294330000E+03 0.  0.
    8880022    1    1    2    0    0 -0.67734907559E+03  0.88473161428E+03 -0.17661059903E+02  0.11248357060E+04  0.15294330000E+03 0.  0.
<mgrwt>
<rscale>  0 0.11246970E+04</rscale>
<asrwt>0</asrwt>
<pdfrwt beam="1">  1        2 0.28456858E+00 0.11246970E+04</pdfrwt>
<pdfrwt beam="2">  1       -2 0.12542109E+00 0.11246970E+04</pdfrwt>
<totfact> 0.37833278E+00</totfact>
</mgrwt>
</event>
<event>
 4    1  0.5410820E-008  0.7858819E+03  0.7818608E-02  0.9580680E-01
          2   -1    0    0  501    0  0.00000000000E+00  0.00000000000E+00  0.13872216447E+04  0.13872216447E+04  0.25500000000E-02 0. -1.
         -2   -1    0    0    0  501 -0.00000000000E+00 -0.00000000000E+00 -0.13414720290E+04  0.13414720290E+04  0.25500000000E-02 0.  1.
    8880022    1    1    2    0    0 -0.15488679318E+03  0.75513491164E+03 -0.10923194908E+04  0.13456493513E+04  0.15294330000E+03 0.  0.
    8880022    1    1    2    0    0  0.15488679318E+03 -0.75513491164E+03  0.11380691065E+04  0.13830443224E+04  0.15294330000E+03 0.  0.
<mgrwt>
<rscale>  0 0.78588187E+03</rscale>
<asrwt>0</asrwt>
<pdfrwt beam="1">  1        2 0.21341872E+00 0.78588187E+03</pdfrwt>
<pdfrwt beam="2">  1       -2 0.20638031E+00 0.78588187E+03</pdfrwt>
<totfact> 0.18229038E+00</totfact>
</mgrwt>
</event>
<event>
 4    1  0.5410820E-008  0.6928143E+03  0.7818608E-02  0.9729600E-01
         -2   -1    0    0    0  501 -0.00000000000E+00  0.00000000000E+00  0.13876272693E+04  0.13876272693E+04  0.25500000000E-02 0.  1.
          2   -1    0    0  501    0  0.00000000000E+00 -0.00000000000E+00 -0.39666551484E+03  0.39666551485E+03  0.25500000000E-02 0. -1.
    8880022    1    1    2    0    0 -0.49385825529E+03 -0.46119851908E+03  0.81461486494E+03  0.10693872458E+04  0.15294330000E+03 0.  0.
    8880022    1    1    2    0    0  0.49385825529E+03  0.46119851908E+03  0.17634688956E+03  0.71490553838E+03  0.15294330000E+03 0.  0.
<mgrwt>
<rscale>  0 0.69281434E+03</rscale>
<asrwt>0</asrwt>
<pdfrwt beam="1">  1        2 0.61025464E-01 0.69281434E+03</pdfrwt>
<pdfrwt beam="2">  1       -2 0.21348112E+00 0.69281434E+03</pdfrwt>
<totfact> 0.89692572E+00</totfact>
</mgrwt>
</event>
<event>
 4    1  0.5410820E-008  0.4261516E+03  0.7818608E-02  0.1035083E+00
         -2   -1    0    0    0  501 -0.00000000000E+00  0.00000000000E+00  0.15114436436E+03  0.15114436438E+03  0.25500000000E-02 0.  1.
          2   -1    0    0  501    0  0.00000000000E+00 -0.00000000000E+00 -0.25306140649E+04  0.25306140649E+04  0.25500000000E-02 0. -1.
    8880022    1    1    2    0    0  0.21366182066E+03 -0.33550279239E+03 -0.21799008527E+03  0.47866985240E+03  0.15294330000E+03 0.  0.
    8880022    1    1    2    0    0 -0.21366182066E+03  0.33550279239E+03 -0.21614796153E+04  0.22030885769E+04  0.15294330000E+03 0.  0.
<mgrwt>
<rscale>  0 0.42615156E+03</rscale>
<asrwt>0</asrwt>
<pdfrwt beam="1">  1        2 0.38932521E+00 0.42615156E+03</pdfrwt>
<pdfrwt beam="2">  1       -2 0.23252981E-01 0.42615156E+03</pdfrwt>
<totfact> 0.60087728E+01</totfact>
</mgrwt>
</event>
<event>
 4    1  0.5410820E-008  0.5743649E+03  0.7818608E-02  0.9960066E-01
         -2   -1    0    0    0  501 -0.00000000000E+00  0.00000000000E+00  0.51874087792E+03  0.51874087792E+03  0.25500000000E-02 0.  1.
          2   -1    0    0  501    0  0.00000000000E+00 -0.00000000000E+00 -0.89358546328E+03  0.89358546328E+03  0.25500000000E-02 0. -1.
    8880022    1    1    2    0    0  0.52931705848E+03 -0.16225548653E+03  0.19175030199E+03  0.60552722699E+03  0.15294330000E+03 0.  0.
    8880022    1    1    2    0    0 -0.52931705848E+03  0.16225548653E+03 -0.56659488735E+03  0.80679911421E+03  0.15294330000E+03 0.  0.
<mgrwt>
<rscale>  0 0.57436491E+03</rscale>
<asrwt>0</asrwt>
<pdfrwt beam="1">  1        2 0.13747469E+00 0.57436491E+03</pdfrwt>
<pdfrwt beam="2">  1       -2 0.79806289E-01 0.57436491E+03</pdfrwt>
<totfact> 0.42494474E+01</totfact>
</mgrwt>
</event>
<event>
 4    1  0.5410820E-008  0.2851792E+03  0.7818608E-02  0.1092893E+00
          2   -1    0    0  501    0  0.00000000000E+00  0.00000000000E+00  0.15506049358E+04  0.15506049358E+04  0.25500000000E-02 0. -1.
         -2   -1    0    0    0  501 -0.00000000000E+00 -0.00000000000E+00 -0.97896368870E+02  0.97896368903E+02  0.25500000000E-02 0.  1.
    8880022    1    1    2    0    0  0.17768672631E+03  0.16236664519E+03  0.12879606190E+04  0.13191549224E+04  0.15294330000E+03 0. -1.
    8880022    1    1    2    0    0 -0.17768672631E+03 -0.16236664519E+03  0.16474794792E+03  0.32934638230E+03  0.15294330000E+03 0.  0.
<mgrwt>
<rscale>  0 0.28517916E+03</rscale>
<asrwt>0</asrwt>
<pdfrwt beam="1">  1        2 0.23855461E+00 0.28517916E+03</pdfrwt>
<pdfrwt beam="2">  1       -2 0.15060980E-01 0.28517916E+03</pdfrwt>
<totfact> 0.43700648E+02</totfact>
</mgrwt>
</event>
<event>
 4    1  0.5410820E-008  0.1170561E+04  0.7818608E-02  0.9139022E-01
         -2   -1    0    0    0  501 -0.00000000000E+00  0.00000000000E+00  0.73678386120E+03  0.73678386120E+03  0.25500000000E-02 0.  1.
          2   -1    0    0  501    0  0.00000000000E+00 -0.00000000000E+00 -0.21816601595E+04  0.21816601595E+04  0.25500000000E-02 0. -1.
    8880022    1    1    2    0    0 -0.99504990860E+03 -0.59724057324E+03 -0.12829887925E+04  0.17367419260E+04  0.15294330000E+03 0.  0.
    8880022    1    1    2    0    0  0.99504990860E+03  0.59724057324E+03 -0.16188750575E+03  0.11817020946E+04  0.15294330000E+03 0.  0.
<mgrwt>
<rscale>  0 0.11705607E+04</rscale>
<asrwt>0</asrwt>
<pdfrwt beam="1">  1        2 0.33564002E+00 0.11705607E+04</pdfrwt>
<pdfrwt beam="2">  1       -2 0.11335136E+00 0.11705607E+04</pdfrwt>
<totfact> 0.31704911E+00</totfact>
</mgrwt>
</event>
<event>
 4    1  0.5410820E-008  0.3212904E+03  0.7818608E-02  0.1075057E+00
         -2   -1    0    0    0  501 -0.00000000000E+00  0.00000000000E+00  0.73022353724E+03  0.73022353724E+03  0.25500000000E-02 0.  1.
          2   -1    0    0  501    0  0.00000000000E+00 -0.00000000000E+00 -0.15766249928E+03  0.15766249930E+03  0.25500000000E-02 0. -1.
    8880022    1    1    2    0    0  0.28175482199E+03 -0.21215383623E+02  0.14354465976E+03  0.35189855722E+03  0.15294330000E+03 0.  0.
    8880022    1    1    2    0    0 -0.28175482199E+03  0.21215383623E+02  0.42901637819E+03  0.53598747932E+03  0.15294330000E+03 0.  0.
<mgrwt>
<rscale>  0 0.32129041E+03</rscale>
<asrwt>0</asrwt>
<pdfrwt beam="1">  1        2 0.24255768E-01 0.32129041E+03</pdfrwt>
<pdfrwt beam="2">  1       -2 0.11234209E+00 0.32129041E+03</pdfrwt>
<totfact> 0.14531392E+02</totfact>
</mgrwt>
</event>
<event>
 4    1  0.5410820E-008  0.1740417E+03  0.7818608E-02  0.1173697E+00
          2   -1    0    0  501    0  0.00000000000E+00  0.00000000000E+00  0.30724973927E+03  0.30724973929E+03  0.25500000000E-02 0. -1.
         -2   -1    0    0    0  501 -0.00000000000E+00 -0.00000000000E+00 -0.27494681647E+03  0.27494681648E+03  0.25500000000E-02 0.  1.
    8880022    1    1    2    0    0  0.28546349172E+01  0.83010305661E+02  0.24929123956E+03  0.30403393712E+03  0.15294330000E+03 0.  0.
    8880022    1    1    2    0    0 -0.28546349172E+01 -0.83010305661E+02 -0.21698831675E+03  0.27816261864E+03  0.15294330000E+03 0.  1.
<mgrwt>
<rscale>  0 0.17404170E+03</rscale>
<asrwt>0</asrwt>
<pdfrwt beam="1">  1        2 0.47269191E-01 0.17404170E+03</pdfrwt>
<pdfrwt beam="2">  1       -2 0.42299510E-01 0.17404170E+03</pdfrwt>
<totfact> 0.57095129E+02</totfact>
</mgrwt>
</event>
<event>
 4    1  0.5410820E-008  0.3503659E+03  0.7818608E-02  0.1062465E+00
          2   -1    0    0  501    0  0.00000000000E+00  0.00000000000E+00  0.27261868389E+04  0.27261868389E+04  0.25500000000E-02 0. -1.
         -2   -1    0    0    0  501 -0.00000000000E+00 -0.00000000000E+00 -0.74946828863E+03  0.74946828864E+03  0.25500000000E-02 0.  1.
    8880022    1    1    2    0    0  0.29721933952E+03  0.10500134425E+03 -0.69645475568E+03  0.77961881570E+03  0.15294330000E+03 0.  1.
    8880022    1    1    2    0    0 -0.29721933952E+03 -0.10500134425E+03  0.26731733060E+04  0.26960363119E+04  0.15294330000E+03 0.  0.
<mgrwt>
<rscale>  0 0.35036591E+03</rscale>
<asrwt>0</asrwt>
<pdfrwt beam="1">  1        2 0.41941337E+00 0.35036591E+03</pdfrwt>
<pdfrwt beam="2">  1       -2 0.11530281E+00 0.35036591E+03</pdfrwt>
<totfact> 0.17943062E+00</totfact>
</mgrwt>
</event>
<event>
 4    1  0.5410820E-008  0.5702855E+03  0.7818608E-02  0.9969047E-01
         -2   -1    0    0    0  501 -0.00000000000E+00  0.00000000000E+00  0.52295527266E+03  0.52295527266E+03  0.25500000000E-02 0.  1.
          2   -1    0    0  501    0  0.00000000000E+00 -0.00000000000E+00 -0.90766465179E+03  0.90766465179E+03  0.25500000000E-02 0. -1.
    8880022    1    1    2    0    0  0.69628704955E+02 -0.54496399195E+03 -0.59371671864E+03  0.82324061130E+03  0.15294330000E+03 0.  0.
    8880022    1    1    2    0    0 -0.69628704955E+02  0.54496399195E+03  0.20900733951E+03  0.60737931316E+03  0.15294330000E+03 0.  0.
<mgrwt>
<rscale>  0 0.57028551E+03</rscale>
<asrwt>0</asrwt>
<pdfrwt beam="1">  1        2 0.13964072E+00 0.57028551E+03</pdfrwt>
<pdfrwt beam="2">  1       -2 0.80454658E-01 0.57028551E+03</pdfrwt>
<totfact> 0.40857929E+01</totfact>
</mgrwt>
</event>
<event>
 4    1  0.5410820E-008  0.1772553E+03  0.7818608E-02  0.1170486E+00
         -2   -1    0    0    0  501 -0.00000000000E+00  0.00000000000E+00  0.16751837942E+02  0.16751838136E+02  0.25500000000E-02 0.  1.
          2   -1    0    0  501    0  0.00000000000E+00 -0.00000000000E+00 -0.23227162476E+04  0.23227162476E+04  0.25500000000E-02 0. -1.
    8880022    1    1    2    0    0  0.88640912335E+02 -0.13060502051E+02 -0.16662076239E+04  0.16756095270E+04  0.15294330000E+03 0. -1.
    8880022    1    1    2    0    0 -0.88640912335E+02  0.13060502051E+02 -0.63975678572E+03  0.66385855869E+03  0.15294330000E+03 0. -1.
<mgrwt>
<rscale>  0 0.17725530E+03</rscale>
<asrwt>0</asrwt>
<pdfrwt beam="1">  1        2 0.35734070E+00 0.17725530E+03</pdfrwt>
<pdfrwt beam="2">  1       -2 0.25772077E-02 0.17725530E+03</pdfrwt>
<totfact> 0.26735894E+03</totfact>
</mgrwt>
</event>
<event>
 4    1  0.5410820E-008  0.5102463E+03  0.7818608E-02  0.1011139E+00
         -2   -1    0    0    0  501 -0.00000000000E+00  0.00000000000E+00  0.51674641048E+03  0.51674641049E+03  0.25500000000E-02 0.  1.
          2   -1    0    0  501    0  0.00000000000E+00 -0.00000000000E+00 -0.16358356542E+04  0.16358356542E+04  0.25500000000E-02 0. -1.
    8880022    1    1    2    0    0 -0.34629759384E+03  0.34210753833E+03 -0.14548776244E+04  0.15417587835E+04  0.15294330000E+03 0. -1.
    8880022    1    1    2    0    0  0.34629759384E+03 -0.34210753833E+03  0.33578838070E+03  0.61082328125E+03  0.15294330000E+03 0.  0.
<mgrwt>
<rscale>  0 0.51024626E+03</rscale>
<asrwt>0</asrwt>
<pdfrwt beam="1">  1        2 0.25166702E+00 0.51024626E+03</pdfrwt>
<pdfrwt beam="2">  1       -2 0.79499449E-01 0.51024626E+03</pdfrwt>
<totfact> 0.15930166E+01</totfact>
</mgrwt>
</event>
<event>
 4    1  0.6622728E-008  0.9035997E+03  0.7818608E-02  0.9421093E-01
         -2   -1    0    0    0  501 -0.00000000000E+00  0.00000000000E+00  0.14657898024E+04  0.14657898024E+04  0.25500000000E-02 0.  1.
          2   -1    0    0  501    0  0.00000000000E+00 -0.00000000000E+00 -0.16913953831E+04  0.16913953831E+04  0.25500000000E-02 0. -1.
    8880022    1    1    2    0    0 -0.79201843038E+03  0.40719467886E+03 -0.14055795044E+04  0.16709716026E+04  0.15294330000E+03 0. -1.
    8880022    1    1    2    0    0  0.79201843038E+03 -0.40719467886E+03  0.11799739236E+04  0.14862135829E+04  0.15294330000E+03 0.  0.
<mgrwt>
<rscale>  0 0.90359966E+03</rscale>
<asrwt>0</asrwt>
<pdfrwt beam="1">  1        2 0.26021468E+00 0.90359966E+03</pdfrwt>
<pdfrwt beam="2">  1       -2 0.22550612E+00 0.90359966E+03</pdfrwt>
<totfact> 0.91574359E-01</totfact>
</mgrwt>
</event>
<event>
 4    1  0.5410820E-008  0.2608625E+03  0.7818608E-02  0.1106626E+00
          2   -1    0    0  501    0  0.00000000000E+00  0.00000000000E+00  0.63051772542E+03  0.63051772543E+03  0.25500000000E-02 0. -1.
         -2   -1    0    0    0  501 -0.00000000000E+00 -0.00000000000E+00 -0.28360990564E+03  0.28360990565E+03  0.25500000000E-02 0.  1.
    8880022    1    1    2    0    0  0.95805600840E+01 -0.21110608895E+03  0.53318850127E+03  0.59358166989E+03  0.15294330000E+03 0.  0.
    8880022    1    1    2    0    0 -0.95805600840E+01  0.21110608895E+03 -0.18628068149E+03  0.32054596119E+03  0.15294330000E+03 0.  1.
<mgrwt>
<rscale>  0 0.26086246E+03</rscale>
<asrwt>0</asrwt>
<pdfrwt beam="1">  1        2 0.97002726E-01 0.26086246E+03</pdfrwt>
<pdfrwt beam="2">  1       -2 0.43632293E-01 0.26086246E+03</pdfrwt>
<totfact> 0.24187305E+02</totfact>
</mgrwt>
</event>
<event>
 4    1  0.5410820E-008  0.4186157E+03  0.7818608E-02  0.1037518E+00
         -2   -1    0    0    0  501 -0.00000000000E+00  0.00000000000E+00  0.11054903468E+04  0.11054903468E+04  0.25500000000E-02 0.  1.
          2   -1    0    0  501    0  0.00000000000E+00 -0.00000000000E+00 -0.20800073858E+04  0.20800073858E+04  0.25500000000E-02 0. -1.
    8880022    1    1    2    0    0  0.17270454760E+03 -0.34931451288E+03  0.10435961413E+04  0.11244252082E+04  0.15294330000E+03 0.  1.
    8880022    1    1    2    0    0 -0.17270454760E+03  0.34931451288E+03 -0.20181131803E+04  0.20610725245E+04  0.15294330000E+03 0.  0.
<mgrwt>
<rscale>  0 0.41861575E+03</rscale>
<asrwt>0</asrwt>
<pdfrwt beam="1">  1        2 0.32000114E+00 0.41861575E+03</pdfrwt>
<pdfrwt beam="2">  1       -2 0.17007544E+00 0.41861575E+03</pdfrwt>
<totfact> 0.14603026E+00</totfact>
</mgrwt>
</event>
<event>
 4    1  0.5410820E-008  0.4483499E+03  0.7818608E-02  0.1028215E+00
         -2   -1    0    0    0  501 -0.00000000000E+00  0.00000000000E+00  0.11952214385E+04  0.11952214385E+04  0.25500000000E-02 0.  1.
          2   -1    0    0  501    0  0.00000000000E+00 -0.00000000000E+00 -0.34572837856E+03  0.34572837857E+03  0.25500000000E-02 0. -1.
    8880022    1    1    2    0    0 -0.42093402434E+03  0.20989058409E+02 -0.12738673344E+03  0.46609551199E+03  0.15294330000E+03 0.  0.
    8880022    1    1    2    0    0  0.42093402434E+03 -0.20989058409E+02  0.97687979334E+03  0.10748543050E+04  0.15294330000E+03 0.  0.
<mgrwt>
<rscale>  0 0.44834992E+03</rscale>
<asrwt>0</asrwt>
<pdfrwt beam="1">  1        2 0.53188981E-01 0.44834992E+03</pdfrwt>
<pdfrwt beam="2">  1       -2 0.18388022E+00 0.44834992E+03</pdfrwt>
<totfact> 0.16788334E+01</totfact>
</mgrwt>
</event>
<event>
 4    1  0.5410820E-008  0.5897575E+03  0.7818608E-02  0.9926887E-01
          2   -1    0    0  501    0  0.00000000000E+00  0.00000000000E+00  0.17204726632E+04  0.17204726632E+04  0.25500000000E-02 0. -1.
         -2   -1    0    0    0  501 -0.00000000000E+00 -0.00000000000E+00 -0.38367333724E+03  0.38367333725E+03  0.25500000000E-02 0.  1.
    8880022    1    1    2    0    0  0.56908233044E+03 -0.23824497595E+02 -0.55231244030E+02  0.59233812036E+03  0.15294330000E+03 0.  0.
    8880022    1    1    2    0    0 -0.56908233044E+03  0.23824497595E+02  0.13920305700E+04  0.15118078801E+04  0.15294330000E+03 0.  0.
<mgrwt>
<rscale>  0 0.58975754E+03</rscale>
<asrwt>0</asrwt>
<pdfrwt beam="1">  1        2 0.26468810E+00 0.58975754E+03</pdfrwt>
<pdfrwt beam="2">  1       -2 0.59026668E-01 0.58975754E+03</pdfrwt>
<totfact> 0.26915101E+01</totfact>
</mgrwt>
</event>
<event>
 4    1  0.5410820E-008  0.7827611E+03  0.7818608E-02  0.9585310E-01
         -2   -1    0    0    0  501 -0.00000000000E+00  0.00000000000E+00  0.11770709401E+04  0.11770709401E+04  0.25500000000E-02 0.  1.
          2   -1    0    0  501    0  0.00000000000E+00 -0.00000000000E+00 -0.89667482856E+03  0.89667482857E+03  0.25500000000E-02 0. -1.
    8880022    1    1    2    0    0  0.20991367855E+03  0.73841688937E+03  0.81174847581E+03  0.11276748184E+04  0.15294330000E+03 0.  0.
    8880022    1    1    2    0    0 -0.20991367855E+03 -0.73841688937E+03 -0.53135236430E+03  0.94607095030E+03  0.15294330000E+03 0.  0.
<mgrwt>
<rscale>  0 0.78276108E+03</rscale>
<asrwt>0</asrwt>
<pdfrwt beam="1">  1        2 0.13794997E+00 0.78276108E+03</pdfrwt>
<pdfrwt beam="2">  1       -2 0.18108784E+00 0.78276108E+03</pdfrwt>
<totfact> 0.53366285E+00</totfact>
</mgrwt>
</event>
<event>
 4    1  0.5410820E-008  0.5881985E+03  0.7818608E-02  0.9930197E-01
         -2   -1    0    0    0  501 -0.00000000000E+00  0.00000000000E+00  0.14579125053E+03  0.14579125055E+03  0.25500000000E-02 0.  1.
          2   -1    0    0  501    0  0.00000000000E+00 -0.00000000000E+00 -0.26407081689E+04  0.26407081689E+04  0.25500000000E-02 0. -1.
    8880022    1    1    2    0    0 -0.29539329899E+03 -0.48510685584E+03 -0.80393481637E+03  0.99613689052E+03  0.15294330000E+03 0.  0.
    8880022    1    1    2    0    0  0.29539329899E+03  0.48510685584E+03 -0.16909821020E+04  0.17903625289E+04  0.15294330000E+03 0.  0.
<mgrwt>
<rscale>  0 0.58819853E+03</rscale>
<asrwt>0</asrwt>
<pdfrwt beam="1">  1        2 0.40626276E+00 0.58819853E+03</pdfrwt>
<pdfrwt beam="2">  1       -2 0.22429425E-01 0.58819853E+03</pdfrwt>
<totfact> 0.53703897E+01</totfact>
</mgrwt>
</event>
<event>
 4    1  0.5410820E-008  0.5110231E+03  0.7818608E-02  0.1010941E+00
         -2   -1    0    0    0  501 -0.00000000000E+00  0.00000000000E+00  0.31602984441E+03  0.31602984442E+03  0.25500000000E-02 0.  1.
          2   -1    0    0  501    0  0.00000000000E+00 -0.00000000000E+00 -0.14820669484E+04  0.14820669484E+04  0.25500000000E-02 0. -1.
    8880022    1    1    2    0    0 -0.71067316877E+02  0.48239237443E+03  0.14999542159E+02  0.51124319626E+03  0.15294330000E+03 0.  0.
    8880022    1    1    2    0    0  0.71067316877E+02 -0.48239237443E+03 -0.11810366462E+04  0.12868535966E+04  0.15294330000E+03 0.  0.
<mgrwt>
<rscale>  0 0.51102311E+03</rscale>
<asrwt>0</asrwt>
<pdfrwt beam="1">  1        2 0.22801029E+00 0.51102311E+03</pdfrwt>
<pdfrwt beam="2">  1       -2 0.48619977E-01 0.51102311E+03</pdfrwt>
<totfact> 0.54761493E+01</totfact>
</mgrwt>
</event>
<event>
 4    1  0.5410820E-008  0.4075131E+03  0.7818608E-02  0.1041209E+00
         -2   -1    0    0    0  501 -0.00000000000E+00  0.00000000000E+00  0.32600161513E+03  0.32600161514E+03  0.25500000000E-02 0.  1.
          2   -1    0    0  501    0  0.00000000000E+00 -0.00000000000E+00 -0.11877243928E+04  0.11877243929E+04  0.25500000000E-02 0. -1.
    8880022    1    1    2    0    0 -0.34387391825E+03 -0.15628817886E+03  0.14111287812E+03  0.43125371174E+03  0.15294330000E+03 0.  0.
    8880022    1    1    2    0    0  0.34387391825E+03  0.15628817886E+03 -0.10028356558E+04  0.10824722962E+04  0.15294330000E+03 0. -1.
<mgrwt>
<rscale>  0 0.40751309E+03</rscale>
<asrwt>0</asrwt>
<pdfrwt beam="1">  1        2 0.18272683E+00 0.40751309E+03</pdfrwt>
<pdfrwt beam="2">  1       -2 0.50154095E-01 0.40751309E+03</pdfrwt>
<totfact> 0.76584904E+01</totfact>
</mgrwt>
</event>
<event>
 4    1  0.5410820E-008  0.6121577E+03  0.7818608E-02  0.9880499E-01
         -2   -1    0    0    0  501 -0.00000000000E+00  0.00000000000E+00  0.50372008740E+03  0.50372008741E+03  0.25500000000E-02 0.  1.
          2   -1    0    0  501    0  0.00000000000E+00 -0.00000000000E+00 -0.32830777148E+04  0.32830777148E+04  0.25500000000E-02 0. -1.
    8880022    1    1    2    0    0 -0.54855070131E+03  0.22458301409E+03  0.27543815464E+03  0.67126986538E+03  0.15294330000E+03 0.  0.
    8880022    1    1    2    0    0  0.54855070131E+03 -0.22458301409E+03 -0.30547957820E+04  0.31155279368E+04  0.15294330000E+03 0.  0.
<mgrwt>
<rscale>  0 0.61215770E+03</rscale>
<asrwt>0</asrwt>
<pdfrwt beam="1">  1        2 0.50508887E+00 0.61215770E+03</pdfrwt>
<pdfrwt beam="2">  1       -2 0.77495400E-01 0.61215770E+03</pdfrwt>
<totfact> 0.18932576E+00</totfact>
</mgrwt>
</event>
<event>
 4    1  0.5410820E-008  0.4735954E+03  0.7818608E-02  0.1020910E+00
         -2   -1    0    0    0  501 -0.00000000000E+00  0.00000000000E+00  0.25602630296E+03  0.25602630298E+03  0.25500000000E-02 0.  1.
          2   -1    0    0  501    0  0.00000000000E+00 -0.00000000000E+00 -0.15919538219E+04  0.15919538219E+04  0.25500000000E-02 0. -1.
    8880022    1    1    2    0    0 -0.43562810232E+03  0.10549444381E+03 -0.48339316821E+02  0.47605594605E+03  0.15294330000E+03 0.  0.
    8880022    1    1    2    0    0  0.43562810232E+03 -0.10549444381E+03 -0.12875882021E+04  0.13719241788E+04  0.15294330000E+03 0.  0.
<mgrwt>
<rscale>  0 0.47359537E+03</rscale>
<asrwt>0</asrwt>
<pdfrwt beam="1">  1        2 0.24491597E+00 0.47359537E+03</pdfrwt>
<pdfrwt beam="2">  1       -2 0.39388663E-01 0.47359537E+03</pdfrwt>
<totfact> 0.72637492E+01</totfact>
</mgrwt>
</event>
<event>
 4    1  0.5410820E-008  0.5063461E+03  0.7818608E-02  0.1012136E+00
          2   -1    0    0  501    0  0.00000000000E+00  0.00000000000E+00  0.11196302966E+04  0.11196302966E+04  0.25500000000E-02 0. -1.
         -2   -1    0    0    0  501 -0.00000000000E+00 -0.00000000000E+00 -0.35484594945E+03  0.35484594946E+03  0.25500000000E-02 0.  1.
    8880022    1    1    2    0    0  0.43038310213E+03 -0.21855230931E+03  0.82144955732E+03  0.96496930248E+03  0.15294330000E+03 0.  0.
    8880022    1    1    2    0    0 -0.43038310213E+03  0.21855230931E+03 -0.56665210170E+02  0.50950694358E+03  0.15294330000E+03 0.  0.
<mgrwt>
<rscale>  0 0.50634611E+03</rscale>
<asrwt>0</asrwt>
<pdfrwt beam="1">  1        2 0.17225082E+00 0.50634611E+03</pdfrwt>
<pdfrwt beam="2">  1       -2 0.54591684E-01 0.50634611E+03</pdfrwt>
<totfact> 0.69697268E+01</totfact>
</mgrwt>
</event>
<event>
 4    1  0.5410820E-008  0.3600814E+03  0.7818608E-02  0.1058552E+00
         -2   -1    0    0    0  501 -0.00000000000E+00  0.00000000000E+00  0.18821011165E+03  0.18821011167E+03  0.25500000000E-02 0.  1.
          2   -1    0    0  501    0  0.00000000000E+00 -0.00000000000E+00 -0.34010050764E+04  0.34010050764E+04  0.25500000000E-02 0. -1.
    8880022    1    1    2    0    0 -0.12163812123E+03  0.30244192548E+03 -0.38207351415E+01  0.36010165489E+03  0.15294330000E+03 0.  0.
    8880022    1    1    2    0    0  0.12163812123E+03 -0.30244192548E+03 -0.32089742296E+04  0.32291135332E+04  0.15294330000E+03 0.  0.
<mgrwt>
<rscale>  0 0.36008139E+03</rscale>
<asrwt>0</asrwt>
<pdfrwt beam="1">  1        2 0.52323151E+00 0.36008139E+03</pdfrwt>
<pdfrwt beam="2">  1       -2 0.28955404E-01 0.36008139E+03</pdfrwt>
<totfact> 0.12454107E+01</totfact>
</mgrwt>
</event>
<event>
 4    1  0.5410820E-008  0.6559034E+03  0.7818608E-02  0.9795764E-01
         -2   -1    0    0    0  501 -0.00000000000E+00  0.00000000000E+00  0.60053456885E+03  0.60053456885E+03  0.25500000000E-02 0.  1.
          2   -1    0    0  501    0  0.00000000000E+00 -0.00000000000E+00 -0.78033357072E+03  0.78033357072E+03  0.25500000000E-02 0. -1.
    8880022    1    1    2    0    0  0.22728179574E+03  0.59595357294E+03  0.10776271417E+03  0.66469702223E+03  0.15294330000E+03 0.  0.
    8880022    1    1    2    0    0 -0.22728179574E+03 -0.59595357294E+03 -0.28756171604E+03  0.71617111735E+03  0.15294330000E+03 0.  0.
<mgrwt>
<rscale>  0 0.65590344E+03</rscale>
<asrwt>0</asrwt>
<pdfrwt beam="1">  1        2 0.12005132E+00 0.65590344E+03</pdfrwt>
<pdfrwt beam="2">  1       -2 0.92389933E-01 0.65590344E+03</pdfrwt>
<totfact> 0.36205747E+01</totfact>
</mgrwt>
</event>
<event>
 4    1  0.5410820E-008  0.1225689E+04  0.7818608E-02  0.9090663E-01
         -2   -1    0    0    0  501 -0.00000000000E+00  0.00000000000E+00  0.95605519275E+03  0.95605519276E+03  0.25500000000E-02 0.  1.
          2   -1    0    0  501    0  0.00000000000E+00 -0.00000000000E+00 -0.19485092073E+04  0.19485092073E+04  0.25500000000E-02 0. -1.
    8880022    1    1    2    0    0  0.50470576003E+03  0.11064330191E+04 -0.11351556398E+04  0.16705962736E+04  0.15294330000E+03 0.  0.
    8880022    1    1    2    0    0 -0.50470576003E+03 -0.11064330191E+04  0.14270162525E+03  0.12339681264E+04  0.15294330000E+03 0.  0.
<mgrwt>
<rscale>  0 0.12256890E+04</rscale>
<asrwt>0</asrwt>
<pdfrwt beam="1">  1        2 0.29977065E+00 0.12256890E+04</pdfrwt>
<pdfrwt beam="2">  1       -2 0.14708541E+00 0.12256890E+04</pdfrwt>
<totfact> 0.21859113E+00</totfact>
</mgrwt>
</event>
<event>
 4    1  0.5410820E-008  0.5284603E+03  0.7818608E-02  0.1006606E+00
          2   -1    0    0  501    0  0.00000000000E+00  0.00000000000E+00  0.13666558053E+04  0.13666558053E+04  0.25500000000E-02 0. -1.
         -2   -1    0    0    0  501 -0.00000000000E+00 -0.00000000000E+00 -0.84581522984E+03  0.84581522984E+03  0.25500000000E-02 0.  1.
    8880022    1    1    2    0    0  0.27219958972E+03 -0.42636373008E+03  0.12238007804E+04  0.13330261251E+04  0.15294330000E+03 0.  0.
    8880022    1    1    2    0    0 -0.27219958972E+03  0.42636373008E+03 -0.70296020499E+03  0.87944491003E+03  0.15294330000E+03 0.  0.
<mgrwt>
<rscale>  0 0.52846031E+03</rscale>
<asrwt>0</asrwt>
<pdfrwt beam="1">  1        2 0.21025474E+00 0.52846031E+03</pdfrwt>
<pdfrwt beam="2">  1       -2 0.13012542E+00 0.52846031E+03</pdfrwt>
<totfact> 0.69555072E+00</totfact>
</mgrwt>
</event>
<event>
 4    1  0.5410820E-008  0.4412250E+03  0.7818608E-02  0.1030372E+00
         -2   -1    0    0    0  501 -0.00000000000E+00  0.00000000000E+00  0.24218420762E+03  0.24218420763E+03  0.25500000000E-02 0.  1.
          2   -1    0    0  501    0  0.00000000000E+00 -0.00000000000E+00 -0.12586539835E+04  0.12586539835E+04  0.25500000000E-02 0. -1.
    8880022    1    1    2    0    0  0.22095053726E+03  0.34995526089E+03 -0.95932511322E+03  0.10559280991E+04  0.15294330000E+03 0.  0.
    8880022    1    1    2    0    0 -0.22095053726E+03 -0.34995526089E+03 -0.57144662663E+02  0.44491009207E+03  0.15294330000E+03 0.  0.
<mgrwt>
<rscale>  0 0.44122497E+03</rscale>
<asrwt>0</asrwt>
<pdfrwt beam="1">  1        2 0.19363907E+00 0.44122497E+03</pdfrwt>
<pdfrwt beam="2">  1       -2 0.37259110E-01 0.44122497E+03</pdfrwt>
<totfact> 0.12426686E+02</totfact>
</mgrwt>
</event>
<event>
 4    1  0.5410820E-008  0.5377434E+03  0.7818608E-02  0.1004371E+00
          2   -1    0    0  501    0  0.00000000000E+00  0.00000000000E+00  0.24599847930E+04  0.24599847930E+04  0.25500000000E-02 0. -1.
         -2   -1    0    0    0  501 -0.00000000000E+00 -0.00000000000E+00 -0.18155806374E+03  0.18155806376E+03  0.25500000000E-02 0.  1.
    8880022    1    1    2    0    0 -0.90988599240E+02 -0.50744201102E+03  0.35498651557E+03  0.64434726584E+03  0.15294330000E+03 0.  0.
    8880022    1    1    2    0    0  0.90988599240E+02  0.50744201102E+03  0.19234402137E+04  0.19971955909E+04  0.15294330000E+03 0.  0.
<mgrwt>
<rscale>  0 0.53774341E+03</rscale>
<asrwt>0</asrwt>
<pdfrwt beam="1">  1        2 0.37845918E+00 0.53774341E+03</pdfrwt>
<pdfrwt beam="2">  1       -2 0.27932011E-01 0.53774341E+03</pdfrwt>
<totfact> 0.46243416E+01</totfact>
</mgrwt>
</event>
<event>
 4    1  0.5410820E-008  0.5585184E+03  0.7818608E-02  0.9995413E-01
          2   -1    0    0  501    0  0.00000000000E+00  0.00000000000E+00  0.39044809823E+03  0.39044809823E+03  0.25500000000E-02 0. -1.
         -2   -1    0    0    0  501 -0.00000000000E+00 -0.00000000000E+00 -0.82896722463E+03  0.82896722463E+03  0.25500000000E-02 0.  1.
    8880022    1    1    2    0    0 -0.31919000388E+02 -0.53622045270E+03 -0.33530900481E+03  0.65144069431E+03  0.15294330000E+03 0.  0.
    8880022    1    1    2    0    0  0.31919000388E+02  0.53622045270E+03 -0.10321012160E+03  0.56797462856E+03  0.15294330000E+03 0.  0.
<mgrwt>
<rscale>  0 0.55851844E+03</rscale>
<asrwt>0</asrwt>
<pdfrwt beam="1">  1        2 0.60068938E-01 0.55851844E+03</pdfrwt>
<pdfrwt beam="2">  1       -2 0.12753342E+00 0.55851844E+03</pdfrwt>
<totfact> 0.38252513E+01</totfact>
</mgrwt>
</event>
<event>
 4    1  0.5410820E-008  0.7114152E+03  0.7818608E-02  0.9697907E-01
         -2   -1    0    0    0  501 -0.00000000000E+00  0.00000000000E+00  0.46375625419E+03  0.46375625419E+03  0.25500000000E-02 0.  1.
          2   -1    0    0  501    0  0.00000000000E+00 -0.00000000000E+00 -0.20736897477E+04  0.20736897477E+04  0.25500000000E-02 0. -1.
    8880022    1    1    2    0    0 -0.49518731522E+03 -0.48734944641E+03  0.68265900415E+02  0.71468303901E+03  0.15294330000E+03 0.  0.
    8880022    1    1    2    0    0  0.49518731522E+03  0.48734944641E+03 -0.16781993939E+04  0.18227629629E+04  0.15294330000E+03 0.  0.
<mgrwt>
<rscale>  0 0.71141522E+03</rscale>
<asrwt>0</asrwt>
<pdfrwt beam="1">  1        2 0.31902919E+00 0.71141522E+03</pdfrwt>
<pdfrwt beam="2">  1       -2 0.71347117E-01 0.71141522E+03</pdfrwt>
<totfact> 0.11305498E+01</totfact>
</mgrwt>
</event>
<event>
 4    1  0.5410820E-008  0.7506057E+03  0.7818608E-02  0.9634401E-01
          2   -1    0    0  501    0  0.00000000000E+00  0.00000000000E+00  0.17780902068E+04  0.17780902068E+04  0.25500000000E-02 0. -1.
         -2   -1    0    0    0  501 -0.00000000000E+00 -0.00000000000E+00 -0.61577259318E+03  0.61577259318E+03  0.25500000000E-02 0.  1.
    8880022    1    1    2    0    0 -0.24392619369E+03 -0.69319357414E+03  0.14150892660E+04  0.16018385072E+04  0.15294330000E+03 0.  0.
    8880022    1    1    2    0    0  0.24392619369E+03  0.69319357414E+03 -0.25277165237E+03  0.79202429284E+03  0.15294330000E+03 0.  1.
<mgrwt>
<rscale>  0 0.75060574E+03</rscale>
<asrwt>0</asrwt>
<pdfrwt beam="1">  1        2 0.27355234E+00 0.75060574E+03</pdfrwt>
<pdfrwt beam="2">  1       -2 0.94734245E-01 0.75060574E+03</pdfrwt>
<totfact> 0.85774673E+00</totfact>
</mgrwt>
</event>
<event>
 4    1  0.5410820E-008  0.3981661E+03  0.7818608E-02  0.1044417E+00
          2   -1    0    0  501    0  0.00000000000E+00  0.00000000000E+00  0.23051480751E+03  0.23051480752E+03  0.25500000000E-02 0. -1.
         -2   -1    0    0    0  501 -0.00000000000E+00 -0.00000000000E+00 -0.12195943251E+04  0.12195943251E+04  0.25500000000E-02 0.  1.
    8880022    1    1    2    0    0 -0.68949663038E+01  0.36755553470E+03 -0.97334156550E+03  0.10516320972E+04  0.15294330000E+03 0.  0.
    8880022    1    1    2    0    0  0.68949663038E+01 -0.36755553470E+03 -0.15737952102E+02  0.39847703547E+03  0.15294330000E+03 0. -1.
<mgrwt>
<rscale>  0 0.39816613E+03</rscale>
<asrwt>0</asrwt>
<pdfrwt beam="1">  1        2 0.35463817E-01 0.39816613E+03</pdfrwt>
<pdfrwt beam="2">  1       -2 0.18762989E+00 0.39816613E+03</pdfrwt>
<totfact> 0.24917886E+01</totfact>
</mgrwt>
</event>
<event>
 4    1  0.5410820E-008  0.5853352E+03  0.7818608E-02  0.9936307E-01
          2   -1    0    0  501    0  0.00000000000E+00  0.00000000000E+00  0.29400878331E+04  0.29400878331E+04  0.25500000000E-02 0. -1.
         -2   -1    0    0    0  501 -0.00000000000E+00 -0.00000000000E+00 -0.23532780534E+03  0.23532780535E+03  0.25500000000E-02 0.  1.
    8880022    1    1    2    0    0 -0.43086654408E+03 -0.36548544335E+03  0.24804413010E+04  0.25485694593E+04  0.15294330000E+03 0.  0.
    8880022    1    1    2    0    0  0.43086654408E+03  0.36548544335E+03  0.22431872671E+03  0.62684617912E+03  0.15294330000E+03 0.  0.
<mgrwt>
<rscale>  0 0.58533515E+03</rscale>
<asrwt>0</asrwt>
<pdfrwt beam="1">  1        2 0.45232123E+00 0.58533515E+03</pdfrwt>
<pdfrwt beam="2">  1       -2 0.36204276E-01 0.58533515E+03</pdfrwt>
<totfact> 0.14898790E+01</totfact>
</mgrwt>
</event>
<event>
 4    1  0.5410820E-008  0.7783033E+03  0.7818608E-02  0.9591964E-01
          2   -1    0    0  501    0  0.00000000000E+00  0.00000000000E+00  0.67690223198E+03  0.67690223198E+03  0.25500000000E-02 0. -1.
         -2   -1    0    0    0  501 -0.00000000000E+00 -0.00000000000E+00 -0.20044887805E+04  0.20044887805E+04  0.25500000000E-02 0.  1.
    8880022    1    1    2    0    0 -0.58502033836E+03 -0.49001594355E+03  0.33370108048E+03  0.84682494375E+03  0.15294330000E+03 0.  0.
    8880022    1    1    2    0    0  0.58502033836E+03  0.49001594355E+03 -0.16612876290E+04  0.18345660687E+04  0.15294330000E+03 0.  0.
<mgrwt>
<rscale>  0 0.77830333E+03</rscale>
<asrwt>0</asrwt>
<pdfrwt beam="1">  1        2 0.10413881E+00 0.77830333E+03</pdfrwt>
<pdfrwt beam="2">  1       -2 0.30838289E+00 0.77830333E+03</pdfrwt>
<totfact> 0.12552091E+00</totfact>
</mgrwt>
</event>
<event>
 4    1  0.5410820E-008  0.2551372E+03  0.7818608E-02  0.1110101E+00
          2   -1    0    0  501    0  0.00000000000E+00  0.00000000000E+00  0.12374077315E+04  0.12374077315E+04  0.25500000000E-02 0. -1.
         -2   -1    0    0    0  501 -0.00000000000E+00 -0.00000000000E+00 -0.85478224604E+03  0.85478224605E+03  0.25500000000E-02 0.  1.
    8880022    1    1    2    0    0 -0.18756296959E+03  0.80767885374E+02  0.12047066655E+04  0.12314272702E+04  0.15294330000E+03 0.  0.
    8880022    1    1    2    0    0  0.18756296959E+03 -0.80767885374E+02 -0.82208118001E+03  0.86076270738E+03  0.15294330000E+03 0.  1.
<mgrwt>
<rscale>  0 0.25513716E+03</rscale>
<asrwt>0</asrwt>
<pdfrwt beam="1">  1        2 0.19037042E+00 0.25513716E+03</pdfrwt>
<pdfrwt beam="2">  1       -2 0.13150496E+00 0.25513716E+03</pdfrwt>
<totfact> 0.86425589E+00</totfact>
</mgrwt>
</event>
<event>
 4    1  0.5410820E-008  0.5931939E+03  0.7818608E-02  0.9919628E-01
          2   -1    0    0  501    0  0.00000000000E+00  0.00000000000E+00  0.57496472725E+03  0.57496472725E+03  0.25500000000E-02 0. -1.
         -2   -1    0    0    0  501 -0.00000000000E+00 -0.00000000000E+00 -0.97451760677E+03  0.97451760677E+03  0.25500000000E-02 0.  1.
    8880022    1    1    2    0    0  0.15167488183E+03 -0.55270433354E+03 -0.67230245718E+03  0.89658775201E+03  0.15294330000E+03 0.  0.
    8880022    1    1    2    0    0 -0.15167488183E+03  0.55270433354E+03  0.27274957766E+03  0.65289458202E+03  0.15294330000E+03 0.  0.
<mgrwt>
<rscale>  0 0.59319390E+03</rscale>
<asrwt>0</asrwt>
<pdfrwt beam="1">  1        2 0.88456112E-01 0.59319390E+03</pdfrwt>
<pdfrwt beam="2">  1       -2 0.14992579E+00 0.59319390E+03</pdfrwt>
<totfact> 0.16154160E+01</totfact>
</mgrwt>
</event>
<event>
 4    1  0.6087213E-008  0.1061526E+04  0.7818608E-02  0.9243524E-01
          2   -1    0    0  501    0  0.00000000000E+00  0.00000000000E+00  0.10893930686E+04  0.10893930686E+04  0.25500000000E-02 0. -1.
         -2   -1    0    0    0  501 -0.00000000000E+00 -0.00000000000E+00 -0.16174783391E+04  0.16174783391E+04  0.25500000000E-02 0.  1.
    8880022    1    1    2    0    0  0.23637473937E+03 -0.10235105056E+04 -0.10766710825E+04  0.15119719063E+04  0.15294330000E+03 0.  0.
    8880022    1    1    2    0    0 -0.23637473937E+03  0.10235105056E+04  0.54858581202E+03  0.11948995015E+04  0.15294330000E+03 0.  0.
<mgrwt>
<rscale>  0 0.10615265E+04</rscale>
<asrwt>0</asrwt>
<pdfrwt beam="1">  1        2 0.16759893E+00 0.10615265E+04</pdfrwt>
<pdfrwt beam="2">  1       -2 0.24884282E+00 0.10615265E+04</pdfrwt>
<totfact> 0.14288267E+00</totfact>
</mgrwt>
</event>
<event>
 4    1  0.5410820E-008  0.3755691E+03  0.7818608E-02  0.1052584E+00
         -2   -1    0    0    0  501 -0.00000000000E+00  0.00000000000E+00  0.15248322534E+03  0.15248322536E+03  0.25500000000E-02 0.  1.
          2   -1    0    0  501    0  0.00000000000E+00 -0.00000000000E+00 -0.24908072662E+04  0.24908072662E+04  0.25500000000E-02 0. -1.
    8880022    1    1    2    0    0 -0.30765777312E+03  0.15168125019E+03 -0.12128750086E+03  0.39466798439E+03  0.15294330000E+03 0.  1.
    8880022    1    1    2    0    0  0.30765777312E+03 -0.15168125019E+03 -0.22170365400E+04  0.22486225071E+04  0.15294330000E+03 0.  0.
<mgrwt>
<rscale>  0 0.37556911E+03</rscale>
<asrwt>0</asrwt>
<pdfrwt beam="1">  1        2 0.38320109E+00 0.37556911E+03</pdfrwt>
<pdfrwt beam="2">  1       -2 0.23458960E-01 0.37556911E+03</pdfrwt>
<totfact> 0.63042622E+01</totfact>
</mgrwt>
</event>
<event>
 4    1  0.5410820E-008  0.8050402E+03  0.7818608E-02  0.9552750E-01
         -2   -1    0    0    0  501 -0.00000000000E+00  0.00000000000E+00  0.13510268482E+04  0.13510268482E+04  0.25500000000E-02 0.  1.
          2   -1    0    0  501    0  0.00000000000E+00 -0.00000000000E+00 -0.86075367469E+03  0.86075367469E+03  0.25500000000E-02 0. -1.
    8880022    1    1    2    0    0 -0.60700216979E+03  0.50620794141E+03  0.98094499295E+03  0.12689928472E+04  0.15294330000E+03 0.  0.
    8880022    1    1    2    0    0  0.60700216979E+03 -0.50620794141E+03 -0.49067181941E+03  0.94278767571E+03  0.15294330000E+03 0.  0.
<mgrwt>
<rscale>  0 0.80504023E+03</rscale>
<asrwt>0</asrwt>
<pdfrwt beam="1">  1        2 0.13242364E+00 0.80504023E+03</pdfrwt>
<pdfrwt beam="2">  1       -2 0.20785028E+00 0.80504023E+03</pdfrwt>
<totfact> 0.37476601E+00</totfact>
</mgrwt>
</event>
<event>
 4    1  0.5410820E-008  0.6533383E+03  0.7818608E-02  0.9800535E-01
         -2   -1    0    0    0  501 -0.00000000000E+00  0.00000000000E+00  0.24407912955E+03  0.24407912956E+03  0.25500000000E-02 0.  1.
          2   -1    0    0  501    0  0.00000000000E+00 -0.00000000000E+00 -0.19546633738E+04  0.19546633738E+04  0.25500000000E-02 0. -1.
    8880022    1    1    2    0    0 -0.21802243236E+03  0.59659488788E+03 -0.49853309441E+03  0.82181880028E+03  0.15294330000E+03 0.  0.
    8880022    1    1    2    0    0  0.21802243236E+03 -0.59659488788E+03 -0.12120511498E+04  0.13769237031E+04  0.15294330000E+03 0.  0.
<mgrwt>
<rscale>  0 0.65333827E+03</rscale>
<asrwt>0</asrwt>
<pdfrwt beam="1">  1        2 0.30071743E+00 0.65333827E+03</pdfrwt>
<pdfrwt beam="2">  1       -2 0.37550637E-01 0.65333827E+03</pdfrwt>
<totfact> 0.49356258E+01</totfact>
</mgrwt>
</event>
<event>
 4    1  0.5410820E-008  0.5422059E+03  0.7818608E-02  0.1003314E+00
          2   -1    0    0  501    0  0.00000000000E+00  0.00000000000E+00  0.92095278048E+03  0.92095278048E+03  0.25500000000E-02 0. -1.
         -2   -1    0    0    0  501 -0.00000000000E+00 -0.00000000000E+00 -0.59577162921E+03  0.59577162921E+03  0.25500000000E-02 0.  1.
    8880022    1    1    2    0    0  0.48168185295E+03  0.19641319443E+03  0.67927375359E+03  0.86913752406E+03  0.15294330000E+03 0.  0.
    8880022    1    1    2    0    0 -0.48168185295E+03 -0.19641319443E+03 -0.35409260232E+03  0.64758688563E+03  0.15294330000E+03 0.  0.
<mgrwt>
<rscale>  0 0.54220587E+03</rscale>
<asrwt>0</asrwt>
<pdfrwt beam="1">  1        2 0.14168504E+00 0.54220587E+03</pdfrwt>
<pdfrwt beam="2">  1       -2 0.91657174E-01 0.54220587E+03</pdfrwt>
<totfact> 0.29874135E+01</totfact>
</mgrwt>
</event>
<event>
 4    1  0.5410820E-008  0.1838672E+03  0.7818608E-02  0.1164112E+00
         -2   -1    0    0    0  501 -0.00000000000E+00  0.00000000000E+00  0.10694275228E+03  0.10694275231E+03  0.25500000000E-02 0.  1.
          2   -1    0    0  501    0  0.00000000000E+00 -0.00000000000E+00 -0.20482617942E+04  0.20482617942E+04  0.25500000000E-02 0. -1.
    8880022    1    1    2    0    0 -0.43848372449E+02 -0.92156447399E+02 -0.19616215581E+04  0.19702198560E+04  0.15294330000E+03 0. -1.
    8880022    1    1    2    0    0  0.43848372449E+02  0.92156447399E+02  0.20302516180E+02  0.18498469056E+03  0.15294330000E+03 0.  0.
<mgrwt>
<rscale>  0 0.18386719E+03</rscale>
<asrwt>0</asrwt>
<pdfrwt beam="1">  1        2 0.31511717E+00 0.18386719E+03</pdfrwt>
<pdfrwt beam="2">  1       -2 0.16452733E-01 0.18386719E+03</pdfrwt>
<totfact> 0.21195612E+02</totfact>
</mgrwt>
</event>
<event>
 4    1  0.5410820E-008  0.4298682E+03  0.7818608E-02  0.1033902E+00
          2   -1    0    0  501    0  0.00000000000E+00  0.00000000000E+00  0.28870208259E+04  0.28870208259E+04  0.25500000000E-02 0. -1.
         -2   -1    0    0    0  501 -0.00000000000E+00 -0.00000000000E+00 -0.13817918057E+04  0.13817918057E+04  0.25500000000E-02 0.  1.
    8880022    1    1    2    0    0  0.25077444916E+03  0.31385861851E+03  0.28370007639E+04  0.28693832167E+04  0.15294330000E+03 0.  0.
    8880022    1    1    2    0    0 -0.25077444916E+03 -0.31385861851E+03 -0.13317717437E+04  0.13994294148E+04  0.15294330000E+03 0.  1.
<mgrwt>
<rscale>  0 0.42986825E+03</rscale>
<asrwt>0</asrwt>
<pdfrwt beam="1">  1        2 0.44415704E+00 0.42986825E+03</pdfrwt>
<pdfrwt beam="2">  1       -2 0.21258336E+00 0.42986825E+03</pdfrwt>
<totfact> 0.27060813E-01</totfact>
</mgrwt>
</event>
<event>
 4    1  0.5410820E-008  0.3990831E+03  0.7818608E-02  0.1044098E+00
          2   -1    0    0  501    0  0.00000000000E+00  0.00000000000E+00  0.63297657601E+03  0.63297657602E+03  0.25500000000E-02 0. -1.
         -2   -1    0    0    0  501 -0.00000000000E+00 -0.00000000000E+00 -0.26745249081E+03  0.26745249082E+03  0.25500000000E-02 0.  1.
    8880022    1    1    2    0    0  0.32621785889E+03 -0.17163220205E+03  0.29231362736E+03  0.49468637943E+03  0.15294330000E+03 0.  0.
    8880022    1    1    2    0    0 -0.32621785889E+03  0.17163220205E+03  0.73210457844E+02  0.40574268741E+03  0.15294330000E+03 0.  0.
<mgrwt>
<rscale>  0 0.39908315E+03</rscale>
<asrwt>0</asrwt>
<pdfrwt beam="1">  1        2 0.97381010E-01 0.39908315E+03</pdfrwt>
<pdfrwt beam="2">  1       -2 0.41146538E-01 0.39908315E+03</pdfrwt>
<totfact> 0.26681821E+02</totfact>
</mgrwt>
</event>
<event>
 4    1  0.5410820E-008  0.3642894E+03  0.7818608E-02  0.1056898E+00
          2   -1    0    0  501    0  0.00000000000E+00  0.00000000000E+00  0.38663410676E+03  0.38663410677E+03  0.25500000000E-02 0. -1.
         -2   -1    0    0    0  501 -0.00000000000E+00 -0.00000000000E+00 -0.80917342372E+03  0.80917342372E+03  0.25500000000E-02 0.  1.
    8880022    1    1    2    0    0 -0.27587287274E+03 -0.18223414377E+03  0.24243604564E+03  0.43758657922E+03  0.15294330000E+03 0.  0.
    8880022    1    1    2    0    0  0.27587287274E+03  0.18223414377E+03 -0.66497536260E+03  0.75822095127E+03  0.15294330000E+03 0.  0.
<mgrwt>
<rscale>  0 0.36428942E+03</rscale>
<asrwt>0</asrwt>
<pdfrwt beam="1">  1        2 0.59482171E-01 0.36428942E+03</pdfrwt>
<pdfrwt beam="2">  1       -2 0.12448822E+00 0.36428942E+03</pdfrwt>
<totfact> 0.41942025E+01</totfact>
</mgrwt>
</event>
<event>
 4    1  0.5410820E-008  0.1083964E+04  0.7818608E-02  0.9220964E-01
         -2   -1    0    0    0  501 -0.00000000000E+00  0.00000000000E+00  0.13077102174E+04  0.13077102174E+04  0.25500000000E-02 0.  1.
          2   -1    0    0  501    0  0.00000000000E+00 -0.00000000000E+00 -0.12439313450E+04  0.12439313450E+04  0.25500000000E-02 0. -1.
    8880022    1    1    2    0    0  0.95021480600E+03  0.49867733065E+03 -0.64042389431E+03  0.12590161536E+04  0.15294330000E+03 0.  0.
    8880022    1    1    2    0    0 -0.95021480600E+03 -0.49867733065E+03  0.70420276676E+03  0.12926254088E+04  0.15294330000E+03 0.  0.
<mgrwt>
<rscale>  0 0.10839644E+04</rscale>
<asrwt>0</asrwt>
<pdfrwt beam="1">  1        2 0.19137405E+00 0.10839644E+04</pdfrwt>
<pdfrwt beam="2">  1       -2 0.20118619E+00 0.10839644E+04</pdfrwt>
<totfact> 0.22897672E+00</totfact>
</mgrwt>
</event>
<event>
 4    1  0.5410820E-008  0.9675271E+03  0.7818608E-02  0.9344895E-01
         -2   -1    0    0    0  501 -0.00000000000E+00  0.00000000000E+00  0.13524006024E+04  0.13524006024E+04  0.25500000000E-02 0.  1.
          2   -1    0    0  501    0  0.00000000000E+00 -0.00000000000E+00 -0.17149395125E+04  0.17149395125E+04  0.25500000000E-02 0. -1.
    8880022    1    1    2    0    0 -0.64265138172E+03  0.70690609363E+03 -0.13656565504E+04  0.16736566226E+04  0.15294330000E+03 0.  0.
    8880022    1    1    2    0    0  0.64265138172E+03 -0.70690609363E+03  0.10031176403E+04  0.13936834924E+04  0.15294330000E+03 0.  0.
<mgrwt>
<rscale>  0 0.96752709E+03</rscale>
<asrwt>0</asrwt>
<pdfrwt beam="1">  1        2 0.26383685E+00 0.96752709E+03</pdfrwt>
<pdfrwt beam="2">  1       -2 0.20806163E+00 0.96752709E+03</pdfrwt>
<totfact> 0.11345758E+00</totfact>
</mgrwt>
</event>
<event>
 4    1  0.5410820E-008  0.4909651E+03  0.7818608E-02  0.1016164E+00
          2   -1    0    0  501    0  0.00000000000E+00  0.00000000000E+00  0.74932644834E+03  0.74932644834E+03  0.25500000000E-02 0. -1.
         -2   -1    0    0    0  501 -0.00000000000E+00 -0.00000000000E+00 -0.60984634951E+03  0.60984634952E+03  0.25500000000E-02 0.  1.
    8880022    1    1    2    0    0 -0.43583704784E+03 -0.16643658841E+03  0.53688610497E+03  0.72752554110E+03  0.15294330000E+03 0.  0.
    8880022    1    1    2    0    0  0.43583704784E+03  0.16643658841E+03 -0.39740600615E+03  0.63164725676E+03  0.15294330000E+03 0.  0.
<mgrwt>
<rscale>  0 0.49096509E+03</rscale>
<asrwt>0</asrwt>
<pdfrwt beam="1">  1        2 0.11528099E+00 0.49096509E+03</pdfrwt>
<pdfrwt beam="2">  1       -2 0.93822515E-01 0.49096509E+03</pdfrwt>
<totfact> 0.37490552E+01</totfact>
</mgrwt>
</event>
<event>
 4    1  0.5410820E-008  0.3904381E+03  0.7818608E-02  0.1047142E+00
          2   -1    0    0  501    0  0.00000000000E+00  0.00000000000E+00  0.75056865093E+03  0.75056865094E+03  0.25500000000E-02 0. -1.
         -2   -1    0    0    0  501 -0.00000000000E+00 -0.00000000000E+00 -0.33121620350E+03  0.33121620351E+03  0.25500000000E-02 0.  1.
    8880022    1    1    2    0    0 -0.33738508963E+03 -0.12337578908E+03 -0.12672214651E+03  0.41048805034E+03  0.15294330000E+03 0.  0.
    8880022    1    1    2    0    0  0.33738508963E+03  0.12337578908E+03  0.54607459395E+03  0.67129680411E+03  0.15294330000E+03 0.  0.
<mgrwt>
<rscale>  0 0.39043813E+03</rscale>
<asrwt>0</asrwt>
<pdfrwt beam="1">  1        2 0.11547210E+00 0.39043813E+03</pdfrwt>
<pdfrwt beam="2">  1       -2 0.50956340E-01 0.39043813E+03</pdfrwt>
<totfact> 0.14173710E+02</totfact>
</mgrwt>
</event>
<event>
 4    1  0.5410820E-008  0.6229527E+03  0.7818608E-02  0.9858898E-01
         -2   -1    0    0    0  501 -0.00000000000E+00  0.00000000000E+00  0.38634408690E+03  0.38634408690E+03  0.25500000000E-02 0.  1.
          2   -1    0    0  501    0  0.00000000000E+00 -0.00000000000E+00 -0.49797745075E+04  0.49797745075E+04  0.25500000000E-02 0. -1.
    8880022    1    1    2    0    0 -0.41603377501E+03  0.43771481989E+03  0.10052071696E+03  0.63101064417E+03  0.15294330000E+03 0.  0.
    8880022    1    1    2    0    0  0.41603377501E+03 -0.43771481989E+03 -0.46939511376E+04  0.47351079502E+04  0.15294330000E+03 0.  0.
<mgrwt>
<rscale>  0 0.62295266E+03</rscale>
<asrwt>0</asrwt>
<pdfrwt beam="1">  1        2 0.76611911E+00 0.62295266E+03</pdfrwt>
<pdfrwt beam="2">  1       -2 0.59437555E-01 0.62295266E+03</pdfrwt>
<totfact> 0.11891527E-01</totfact>
</mgrwt>
</event>
<event>
 4    1  0.5410820E-008  0.6033469E+03  0.7818608E-02  0.9898487E-01
          2   -1    0    0  501    0  0.00000000000E+00  0.00000000000E+00  0.16380619557E+04  0.16380619557E+04  0.25500000000E-02 0. -1.
         -2   -1    0    0    0  501 -0.00000000000E+00 -0.00000000000E+00 -0.34346439748E+03  0.34346439749E+03  0.25500000000E-02 0.  1.
    8880022    1    1    2    0    0 -0.51343026582E+03  0.27753412388E+03  0.12359267018E+04  0.13753335207E+04  0.15294330000E+03 0.  0.
    8880022    1    1    2    0    0  0.51343026582E+03 -0.27753412388E+03  0.58670856364E+02  0.60619283250E+03  0.15294330000E+03 0.  0.
<mgrwt>
<rscale>  0 0.60334690E+03</rscale>
<asrwt>0</asrwt>
<pdfrwt beam="1">  1        2 0.25200953E+00 0.60334690E+03</pdfrwt>
<pdfrwt beam="2">  1       -2 0.52840677E-01 0.60334690E+03</pdfrwt>
<totfact> 0.37467416E+01</totfact>
</mgrwt>
</event>
<event>
 4    1  0.5410820E-008  0.3089958E+03  0.7818608E-02  0.1080828E+00
          2   -1    0    0  501    0  0.00000000000E+00  0.00000000000E+00  0.12385686636E+04  0.12385686636E+04  0.25500000000E-02 0. -1.
         -2   -1    0    0    0  501 -0.00000000000E+00 -0.00000000000E+00 -0.10186714160E+03  0.10186714163E+03  0.25500000000E-02 0.  1.
    8880022    1    1    2    0    0 -0.20122910885E+03  0.17774586332E+03  0.89890657154E+03  0.95053217912E+03  0.15294330000E+03 0.  0.
    8880022    1    1    2    0    0  0.20122910885E+03 -0.17774586332E+03  0.23779495047E+03  0.38990362612E+03  0.15294330000E+03 0.  0.
<mgrwt>
<rscale>  0 0.30899579E+03</rscale>
<asrwt>0</asrwt>
<pdfrwt beam="1">  1        2 0.19054905E+00 0.30899579E+03</pdfrwt>
<pdfrwt beam="2">  1       -2 0.15671866E-01 0.30899579E+03</pdfrwt>
<totfact> 0.60471099E+02</totfact>
</mgrwt>
</event>
<event>
 4    1  0.5410820E-008  0.5907693E+03  0.7818608E-02  0.9924744E-01
         -2   -1    0    0    0  501 -0.00000000000E+00  0.00000000000E+00  0.33106474226E+03  0.33106474227E+03  0.25500000000E-02 0.  1.
          2   -1    0    0  501    0  0.00000000000E+00 -0.00000000000E+00 -0.23678720532E+04  0.23678720532E+04  0.25500000000E-02 0. -1.
    8880022    1    1    2    0    0 -0.44913851579E+03  0.35198192303E+03 -0.20235450110E+04  0.21080186775E+04  0.15294330000E+03 0.  0.
    8880022    1    1    2    0    0  0.44913851579E+03 -0.35198192303E+03 -0.13262300019E+02  0.59091811795E+03  0.15294330000E+03 0.  0.
<mgrwt>
<rscale>  0 0.59076927E+03</rscale>
<asrwt>0</asrwt>
<pdfrwt beam="1">  1        2 0.36428800E+00 0.59076927E+03</pdfrwt>
<pdfrwt beam="2">  1       -2 0.50933039E-01 0.59076927E+03</pdfrwt>
<totfact> 0.16211844E+01</totfact>
</mgrwt>
</event>
<event>
 4    1  0.5410820E-008  0.5748814E+03  0.7818608E-02  0.9958935E-01
          2   -1    0    0  501    0  0.00000000000E+00  0.00000000000E+00  0.27478111956E+04  0.27478111956E+04  0.25500000000E-02 0. -1.
         -2   -1    0    0    0  501 -0.00000000000E+00 -0.00000000000E+00 -0.16769767238E+03  0.16769767240E+03  0.25500000000E-02 0.  1.
    8880022    1    1    2    0    0 -0.42506249873E+01 -0.55414696789E+03  0.51484346671E+03  0.77172040149E+03  0.15294330000E+03 0.  0.
    8880022    1    1    2    0    0  0.42506249873E+01  0.55414696789E+03  0.20652700566E+04  0.21437884666E+04  0.15294330000E+03 0.  0.
<mgrwt>
<rscale>  0 0.57488136E+03</rscale>
<asrwt>0</asrwt>
<pdfrwt beam="1">  1        2 0.42274017E+00 0.57488136E+03</pdfrwt>
<pdfrwt beam="2">  1       -2 0.25799643E-01 0.57488136E+03</pdfrwt>
<totfact> 0.36360950E+01</totfact>
</mgrwt>
</event>
<event>
 4    1  0.5410820E-008  0.3185207E+03  0.7818608E-02  0.1076332E+00
         -2   -1    0    0    0  501 -0.00000000000E+00  0.00000000000E+00  0.30643887572E+03  0.30643887573E+03  0.25500000000E-02 0.  1.
          2   -1    0    0  501    0  0.00000000000E+00 -0.00000000000E+00 -0.68427231532E+03  0.68427231532E+03  0.25500000000E-02 0. -1.
    8880022    1    1    2    0    0 -0.34838613463E+02 -0.27721843442E+03 -0.54480107331E+03  0.63108133538E+03  0.15294330000E+03 0. -1.
    8880022    1    1    2    0    0  0.34838613463E+02  0.27721843442E+03  0.16696763371E+03  0.35962985567E+03  0.15294330000E+03 0.  0.
<mgrwt>
<rscale>  0 0.31852071E+03</rscale>
<asrwt>0</asrwt>
<pdfrwt beam="1">  1        2 0.10527266E+00 0.31852071E+03</pdfrwt>
<pdfrwt beam="2">  1       -2 0.47144443E-01 0.31852071E+03</pdfrwt>
<totfact> 0.18718808E+02</totfact>
</mgrwt>
</event>
<event>
 4    1  0.5410820E-008  0.1009940E+04  0.7818608E-02  0.9297710E-01
         -2   -1    0    0    0  501 -0.00000000000E+00  0.00000000000E+00  0.74296295246E+03  0.74296295247E+03  0.25500000000E-02 0.  1.
          2   -1    0    0  501    0  0.00000000000E+00 -0.00000000000E+00 -0.14135497973E+04  0.14135497973E+04  0.25500000000E-02 0. -1.
    8880022    1    1    2    0    0 -0.99779182751E+03  0.31586512446E+02 -0.15233434345E+03  0.10213636199E+04  0.15294330000E+03 0.  0.
    8880022    1    1    2    0    0  0.99779182751E+03 -0.31586512446E+02 -0.51825250135E+03  0.11351491298E+04  0.15294330000E+03 0.  0.
<mgrwt>
<rscale>  0 0.10099395E+04</rscale>
<asrwt>0</asrwt>
<pdfrwt beam="1">  1        2 0.21746920E+00 0.10099395E+04</pdfrwt>
<pdfrwt beam="2">  1       -2 0.11430199E+00 0.10099395E+04</pdfrwt>
<totfact> 0.84466536E+00</totfact>
</mgrwt>
</event>
<event>
 4    1  0.5410820E-008  0.3464547E+03  0.7818608E-02  0.1064080E+00
          2   -1    0    0  501    0  0.00000000000E+00  0.00000000000E+00  0.87592390225E+03  0.87592390225E+03  0.25500000000E-02 0. -1.
         -2   -1    0    0    0  501 -0.00000000000E+00 -0.00000000000E+00 -0.15464864489E+04  0.15464864489E+04  0.25500000000E-02 0.  1.
    8880022    1    1    2    0    0  0.79247757344E+02 -0.30059778280E+03 -0.14915797547E+04  0.15312873838E+04  0.15294330000E+03 0.  0.
    8880022    1    1    2    0    0 -0.79247757344E+02  0.30059778280E+03  0.82101720805E+03  0.89112296738E+03  0.15294330000E+03 0. -1.
<mgrwt>
<rscale>  0 0.34645474E+03</rscale>
<asrwt>0</asrwt>
<pdfrwt beam="1">  1        2 0.13475752E+00 0.34645474E+03</pdfrwt>
<pdfrwt beam="2">  1       -2 0.23792099E+00 0.34645474E+03</pdfrwt>
<totfact> 0.26250920E+00</totfact>
</mgrwt>
</event>
<event>
 4    1  0.5410820E-008  0.3973896E+03  0.7818608E-02  0.1044687E+00
         -2   -1    0    0    0  501 -0.00000000000E+00  0.00000000000E+00  0.18641198824E+03  0.18641198826E+03  0.25500000000E-02 0.  1.
          2   -1    0    0  501    0  0.00000000000E+00 -0.00000000000E+00 -0.23903242722E+04  0.23903242722E+04  0.25500000000E-02 0. -1.
    8880022    1    1    2    0    0  0.81866141269E+02 -0.35752593914E+03 -0.21371444353E+04  0.21737766336E+04  0.15294330000E+03 0.  0.
    8880022    1    1    2    0    0 -0.81866141269E+02  0.35752593914E+03 -0.66767848600E+02  0.40295962684E+03  0.15294330000E+03 0.  1.
<mgrwt>
<rscale>  0 0.39738963E+03</rscale>
<asrwt>0</asrwt>
<pdfrwt beam="1">  1        2 0.36774217E+00 0.39738963E+03</pdfrwt>
<pdfrwt beam="2">  1       -2 0.28678769E-01 0.39738963E+03</pdfrwt>
<totfact> 0.49664075E+01</totfact>
</mgrwt>
</event>
<event>
 4    1  0.5410820E-008  0.2228743E+03  0.7818608E-02  0.1131758E+00
         -2   -1    0    0    0  501 -0.00000000000E+00  0.00000000000E+00  0.57893357208E+02  0.57893357264E+02  0.25500000000E-02 0.  1.
          2   -1    0    0  501    0  0.00000000000E+00 -0.00000000000E+00 -0.99340457656E+03  0.99340457657E+03  0.25500000000E-02 0. -1.
    8880022    1    1    2    0    0 -0.14836987036E+03  0.65327643229E+02 -0.66181574780E+03  0.69833591949E+03  0.15294330000E+03 0. -1.
    8880022    1    1    2    0    0  0.14836987036E+03 -0.65327643229E+02 -0.27369547155E+03  0.35296201434E+03  0.15294330000E+03 0.  1.
<mgrwt>
<rscale>  0 0.22287434E+03</rscale>
<asrwt>0</asrwt>
<pdfrwt beam="1">  1        2 0.15283146E+00 0.22287434E+03</pdfrwt>
<pdfrwt beam="2">  1       -2 0.89066711E-02 0.22287434E+03</pdfrwt>
<totfact> 0.21100795E+03</totfact>
</mgrwt>
</event>
<event>
 4    1  0.5410820E-008  0.1600395E+04  0.7818608E-02  0.8820305E-01
          2   -1    0    0  501    0  0.00000000000E+00  0.00000000000E+00  0.24544427438E+04  0.24544427438E+04  0.25500000000E-02 0. -1.
         -2   -1    0    0    0  501 -0.00000000000E+00 -0.00000000000E+00 -0.23161715957E+04  0.23161715957E+04  0.25500000000E-02 0.  1.
    8880022    1    1    2    0    0  0.12225016643E+04  0.10214508374E+04  0.18372625671E+04  0.24365544373E+04  0.15294330000E+03 0.  0.
    8880022    1    1    2    0    0 -0.12225016643E+04 -0.10214508374E+04 -0.16989914190E+04  0.23340599023E+04  0.15294330000E+03 0.  0.
<mgrwt>
<rscale>  0 0.16003949E+04</rscale>
<asrwt>0</asrwt>
<pdfrwt beam="1">  1        2 0.37760657E+00 0.16003949E+04</pdfrwt>
<pdfrwt beam="2">  1       -2 0.35633409E+00 0.16003949E+04</pdfrwt>
<totfact> 0.48633848E-02</totfact>
</mgrwt>
</event>
<event>
 4    1  0.5410820E-008  0.7823702E+03  0.7818608E-02  0.9585892E-01
          2   -1    0    0  501    0  0.00000000000E+00  0.00000000000E+00  0.10963551250E+04  0.10963551250E+04  0.25500000000E-02 0. -1.
         -2   -1    0    0    0  501 -0.00000000000E+00 -0.00000000000E+00 -0.90458228844E+03  0.90458228844E+03  0.25500000000E-02 0.  1.
    8880022    1    1    2    0    0 -0.50245237914E+03 -0.57987335150E+03  0.71488547149E+03  0.10597945025E+04  0.15294330000E+03 0.  0.
    8880022    1    1    2    0    0  0.50245237914E+03  0.57987335150E+03 -0.52311263492E+03  0.94114291099E+03  0.15294330000E+03 0.  0.
<mgrwt>
<rscale>  0 0.78237021E+03</rscale>
<asrwt>0</asrwt>
<pdfrwt beam="1">  1        2 0.16867002E+00 0.78237021E+03</pdfrwt>
<pdfrwt beam="2">  1       -2 0.13916651E+00 0.78237021E+03</pdfrwt>
<totfact> 0.81080155E+00</totfact>
</mgrwt>
</event>
<event>
 4    1  0.5410820E-008  0.2569397E+03  0.7818608E-02  0.1108996E+00
         -2   -1    0    0    0  501 -0.00000000000E+00  0.00000000000E+00  0.14179935289E+03  0.14179935291E+03  0.25500000000E-02 0.  1.
          2   -1    0    0  501    0  0.00000000000E+00 -0.00000000000E+00 -0.10483538564E+04  0.10483538564E+04  0.25500000000E-02 0. -1.
    8880022    1    1    2    0    0 -0.18106916310E+03  0.99198318068E+02 -0.95956374027E+01  0.25711880018E+03  0.15294330000E+03 0.  0.
    8880022    1    1    2    0    0  0.18106916310E+03 -0.99198318068E+02 -0.89695886610E+03  0.93303440913E+03  0.15294330000E+03 0.  0.
<mgrwt>
<rscale>  0 0.25693968E+03</rscale>
<asrwt>0</asrwt>
<pdfrwt beam="1">  1        2 0.16128520E+00 0.25693968E+03</pdfrwt>
<pdfrwt beam="2">  1       -2 0.21815286E-01 0.25693968E+03</pdfrwt>
<totfact> 0.44660791E+02</totfact>
</mgrwt>
</event>
<event>
 4    1  0.5410820E-008  0.1985348E+03  0.7818608E-02  0.1150981E+00
          2   -1    0    0  501    0  0.00000000000E+00  0.00000000000E+00  0.13183052815E+04  0.13183052815E+04  0.25500000000E-02 0. -1.
         -2   -1    0    0    0  501 -0.00000000000E+00 -0.00000000000E+00 -0.11270267796E+03  0.11270267799E+03  0.25500000000E-02 0.  1.
    8880022    1    1    2    0    0 -0.29672850984E+02  0.12306062556E+03 -0.10494048513E+02  0.19881190537E+03  0.15294330000E+03 0.  1.
    8880022    1    1    2    0    0  0.29672850984E+02 -0.12306062556E+03  0.12160966520E+04  0.12321960541E+04  0.15294330000E+03 0.  0.
<mgrwt>
<rscale>  0 0.19853475E+03</rscale>
<asrwt>0</asrwt>
<pdfrwt beam="1">  1        2 0.20281618E+00 0.19853475E+03</pdfrwt>
<pdfrwt beam="2">  1       -2 0.17338875E-01 0.19853475E+03</pdfrwt>
<totfact> 0.46706728E+02</totfact>
</mgrwt>
</event>
<event>
 4    1  0.5410820E-008  0.2466149E+03  0.7818608E-02  0.1115463E+00
         -2   -1    0    0    0  501 -0.00000000000E+00  0.00000000000E+00  0.23942122214E+03  0.23942122215E+03  0.25500000000E-02 0.  1.
          2   -1    0    0  501    0  0.00000000000E+00 -0.00000000000E+00 -0.22759652352E+04  0.22759652352E+04  0.25500000000E-02 0. -1.
    8880022    1    1    2    0    0  0.15975880112E+03  0.10910713291E+03  0.16715851444E+03  0.29792761361E+03  0.15294330000E+03 0.  1.
    8880022    1    1    2    0    0 -0.15975880112E+03 -0.10910713291E+03 -0.22037025275E+04  0.22174588437E+04  0.15294330000E+03 0.  0.
<mgrwt>
<rscale>  0 0.24661487E+03</rscale>
<asrwt>0</asrwt>
<pdfrwt beam="1">  1        2 0.35014848E+00 0.24661487E+03</pdfrwt>
<pdfrwt beam="2">  1       -2 0.36834036E-01 0.24661487E+03</pdfrwt>
<totfact> 0.37839337E+01</totfact>
</mgrwt>
</event>
<event>
 4    1  0.5410820E-008  0.5602627E+03  0.7818608E-02  0.9991460E-01
          2   -1    0    0  501    0  0.00000000000E+00  0.00000000000E+00  0.11123133167E+04  0.11123133167E+04  0.25500000000E-02 0. -1.
         -2   -1    0    0    0  501 -0.00000000000E+00 -0.00000000000E+00 -0.49583317374E+03  0.49583317374E+03  0.25500000000E-02 0.  1.
    8880022    1    1    2    0    0 -0.52839909633E+03  0.10628754454E+03 -0.21955173161E+03  0.60174518111E+03  0.15294330000E+03 0.  0.
    8880022    1    1    2    0    0  0.52839909633E+03 -0.10628754454E+03  0.83603187460E+03  0.10064013094E+04  0.15294330000E+03 0.  0.
<mgrwt>
<rscale>  0 0.56026271E+03</rscale>
<asrwt>0</asrwt>
<pdfrwt beam="1">  1        2 0.17112513E+00 0.56026271E+03</pdfrwt>
<pdfrwt beam="2">  1       -2 0.76282027E-01 0.56026271E+03</pdfrwt>
<totfact> 0.34225323E+01</totfact>
</mgrwt>
</event>
<event>
 4    1  0.5410820E-008  0.1643609E+03  0.7818608E-02  0.1183859E+00
         -2   -1    0    0    0  501 -0.00000000000E+00  0.00000000000E+00  0.27569134513E+03  0.27569134514E+03  0.25500000000E-02 0.  1.
          2   -1    0    0  501    0  0.00000000000E+00 -0.00000000000E+00 -0.10308644197E+03  0.10308644200E+03  0.25500000000E-02 0. -1.
    8880022    1    1    2    0    0  0.42960020797E+02  0.42158021373E+02  0.44185065946E+02  0.17019646066E+03  0.15294330000E+03 0.  0.
    8880022    1    1    2    0    0 -0.42960020797E+02 -0.42158021373E+02  0.12841983721E+03  0.20858132648E+03  0.15294330000E+03 0.  0.
<mgrwt>
<rscale>  0 0.16436093E+03</rscale>
<asrwt>0</asrwt>
<pdfrwt beam="1">  1        2 0.15859453E-01 0.16436093E+03</pdfrwt>
<pdfrwt beam="2">  1       -2 0.42414052E-01 0.16436093E+03</pdfrwt>
<totfact> 0.18980097E+03</totfact>
</mgrwt>
</event>
<event>
 4    1  0.5410820E-008  0.4264899E+03  0.7818608E-02  0.1034975E+00
         -2   -1    0    0    0  501 -0.00000000000E+00  0.00000000000E+00  0.38997937639E+03  0.38997937640E+03  0.25500000000E-02 0.  1.
          2   -1    0    0  501    0  0.00000000000E+00 -0.00000000000E+00 -0.23128523942E+04  0.23128523942E+04  0.25500000000E-02 0. -1.
    8880022    1    1    2    0    0 -0.22045973376E+03 -0.33151085775E+03 -0.21689220605E+04  0.22104561748E+04  0.15294330000E+03 0.  0.
    8880022    1    1    2    0    0  0.22045973376E+03  0.33151085775E+03  0.24604904265E+03  0.49237559588E+03  0.15294330000E+03 0.  1.
<mgrwt>
<rscale>  0 0.42648985E+03</rscale>
<asrwt>0</asrwt>
<pdfrwt beam="1">  1        2 0.35582344E+00 0.42648985E+03</pdfrwt>
<pdfrwt beam="2">  1       -2 0.59996829E-01 0.42648985E+03</pdfrwt>
<totfact> 0.12885908E+01</totfact>
</mgrwt>
</event>
<event>
 4    1  0.5410820E-008  0.2660263E+03  0.7818608E-02  0.1103576E+00
         -2   -1    0    0    0  501 -0.00000000000E+00  0.00000000000E+00  0.87485209142E+02  0.87485209180E+02  0.25500000000E-02 0.  1.
          2   -1    0    0  501    0  0.00000000000E+00 -0.00000000000E+00 -0.33183368063E+04  0.33183368063E+04  0.25500000000E-02 0. -1.
    8880022    1    1    2    0    0 -0.20704574201E+03 -0.67159552713E+02 -0.13455668440E+03  0.29811994086E+03  0.15294330000E+03 0.  0.
    8880022    1    1    2    0    0  0.20704574201E+03  0.67159552713E+02 -0.30962949128E+04  0.31077020746E+04  0.15294330000E+03 0. -1.
<mgrwt>
<rscale>  0 0.26602631E+03</rscale>
<asrwt>0</asrwt>
<pdfrwt beam="1">  1        2 0.51051326E+00 0.26602631E+03</pdfrwt>
<pdfrwt beam="2">  1       -2 0.13459266E-01 0.26602631E+03</pdfrwt>
<totfact> 0.54840603E+01</totfact>
</mgrwt>
</event>
<event>
 4    1  0.5410820E-008  0.2686143E+03  0.7818608E-02  0.1102075E+00
         -2   -1    0    0    0  501 -0.00000000000E+00  0.00000000000E+00  0.23539403292E+03  0.23539403293E+03  0.25500000000E-02 0.  1.
          2   -1    0    0  501    0  0.00000000000E+00 -0.00000000000E+00 -0.74446411004E+03  0.74446411004E+03  0.25500000000E-02 0. -1.
    8880022    1    1    2    0    0  0.19582668034E+03  0.10204846013E+03  0.12123253576E+03  0.29470486540E+03  0.15294330000E+03 0.  1.
    8880022    1    1    2    0    0 -0.19582668034E+03 -0.10204846013E+03 -0.63030261288E+03  0.68515327757E+03  0.15294330000E+03 0.  0.
<mgrwt>
<rscale>  0 0.26861428E+03</rscale>
<asrwt>0</asrwt>
<pdfrwt beam="1">  1        2 0.11453294E+00 0.26861428E+03</pdfrwt>
<pdfrwt beam="2">  1       -2 0.36214467E-01 0.26861428E+03</pdfrwt>
<totfact> 0.28236069E+02</totfact>
</mgrwt>
</event>
<event>
 4    1  0.5410820E-008  0.3394212E+03  0.7818608E-02  0.1067043E+00
          2   -1    0    0  501    0  0.00000000000E+00  0.00000000000E+00  0.38152950201E+03  0.38152950202E+03  0.25500000000E-02 0. -1.
         -2   -1    0    0    0  501 -0.00000000000E+00 -0.00000000000E+00 -0.15871839311E+04  0.15871839311E+04  0.25500000000E-02 0.  1.
    8880022    1    1    2    0    0 -0.16270541567E+03 -0.25562086963E+03 -0.14886120557E+04  0.15268177975E+04  0.15294330000E+03 0.  0.
    8880022    1    1    2    0    0  0.16270541567E+03  0.25562086963E+03  0.28295762665E+03  0.44189563561E+03  0.15294330000E+03 0.  0.
<mgrwt>
<rscale>  0 0.33942118E+03</rscale>
<asrwt>0</asrwt>
<pdfrwt beam="1">  1        2 0.58696847E-01 0.33942118E+03</pdfrwt>
<pdfrwt beam="2">  1       -2 0.24418214E+00 0.33942118E+03</pdfrwt>
<totfact> 0.64582719E+00</totfact>
</mgrwt>
</event>
<event>
 4    1  0.5410820E-008  0.3223920E+03  0.7818608E-02  0.1074554E+00
          2   -1    0    0  501    0  0.00000000000E+00  0.00000000000E+00  0.29999010351E+04  0.29999010351E+04  0.25500000000E-02 0. -1.
         -2   -1    0    0    0  501 -0.00000000000E+00 -0.00000000000E+00 -0.74800692863E+02  0.74800692906E+02  0.25500000000E-02 0.  1.
    8880022    1    1    2    0    0  0.22469958248E+03  0.17336392449E+03  0.33617083959E+03  0.46577616844E+03  0.15294330000E+03 0.  1.
    8880022    1    1    2    0    0 -0.22469958248E+03 -0.17336392449E+03  0.25889295026E+04  0.26089255596E+04  0.15294330000E+03 0.  0.
<mgrwt>
<rscale>  0 0.32239201E+03</rscale>
<asrwt>0</asrwt>
<pdfrwt beam="1">  1        2 0.46152326E+00 0.32239201E+03</pdfrwt>
<pdfrwt beam="2">  1       -2 0.11507798E-01 0.32239201E+03</pdfrwt>
<totfact> 0.10875977E+02</totfact>
</mgrwt>
</event>
<event>
 4    1  0.5410820E-008  0.2376177E+03  0.7818608E-02  0.1121390E+00
          2   -1    0    0  501    0  0.00000000000E+00  0.00000000000E+00  0.61563206878E+03  0.61563206878E+03  0.25500000000E-02 0. -1.
         -2   -1    0    0    0  501 -0.00000000000E+00 -0.00000000000E+00 -0.27373929966E+03  0.27373929968E+03  0.25500000000E-02 0.  1.
    8880022    1    1    2    0    0 -0.60115603625E+02  0.17162936564E+03 -0.19167236769E+03  0.30528752758E+03  0.15294330000E+03 0.  1.
    8880022    1    1    2    0    0  0.60115603625E+02 -0.17162936564E+03  0.53356513680E+03  0.58408384088E+03  0.15294330000E+03 0.  0.
<mgrwt>
<rscale>  0 0.23761771E+03</rscale>
<asrwt>0</asrwt>
<pdfrwt beam="1">  1        2 0.94712625E-01 0.23761771E+03</pdfrwt>
<pdfrwt beam="2">  1       -2 0.42113739E-01 0.23761771E+03</pdfrwt>
<totfact> 0.26707551E+02</totfact>
</mgrwt>
</event>
<event>
 4    1  0.5410820E-008  0.7341842E+03  0.7818608E-02  0.9660495E-01
         -2   -1    0    0    0  501 -0.00000000000E+00  0.00000000000E+00  0.46679946456E+03  0.46679946457E+03  0.25500000000E-02 0.  1.
          2   -1    0    0  501    0  0.00000000000E+00 -0.00000000000E+00 -0.17984313872E+04  0.17984313872E+04  0.25500000000E-02 0. -1.
    8880022    1    1    2    0    0  0.44977287046E+03  0.55976698572E+03  0.11791946806E+02  0.73427884100E+03  0.15294330000E+03 0.  0.
    8880022    1    1    2    0    0 -0.44977287046E+03 -0.55976698572E+03 -0.13434238695E+04  0.15309520108E+04  0.15294330000E+03 0.  0.
<mgrwt>
<rscale>  0 0.73418415E+03</rscale>
<asrwt>0</asrwt>
<pdfrwt beam="1">  1        2 0.27668175E+00 0.73418415E+03</pdfrwt>
<pdfrwt beam="2">  1       -2 0.71815303E-01 0.73418415E+03</pdfrwt>
<totfact> 0.15687762E+01</totfact>
</mgrwt>
</event>
<event>
 4    1  0.5410820E-008  0.7638444E+03  0.7818608E-02  0.9613878E-01
          2   -1    0    0  501    0  0.00000000000E+00  0.00000000000E+00  0.13379023270E+04  0.13379023270E+04  0.25500000000E-02 0. -1.
         -2   -1    0    0    0  501 -0.00000000000E+00 -0.00000000000E+00 -0.46961500335E+03  0.46961500336E+03  0.25500000000E-02 0.  1.
    8880022    1    1    2    0    0 -0.73466257036E+03  0.14260949652E+03  0.67558182888E+03  0.10197396831E+04  0.15294330000E+03 0.  0.
    8880022    1    1    2    0    0  0.73466257036E+03 -0.14260949652E+03  0.19270549476E+03  0.78777764725E+03  0.15294330000E+03 0.  0.
<mgrwt>
<rscale>  0 0.76384436E+03</rscale>
<asrwt>0</asrwt>
<pdfrwt beam="1">  1        2 0.20583112E+00 0.76384436E+03</pdfrwt>
<pdfrwt beam="2">  1       -2 0.72248464E-01 0.76384436E+03</pdfrwt>
<totfact> 0.27776941E+01</totfact>
</mgrwt>
</event>
<event>
 4    1  0.5410820E-008  0.5103853E+03  0.7818608E-02  0.1011103E+00
          2   -1    0    0  501    0  0.00000000000E+00  0.00000000000E+00  0.68261753958E+03  0.68261753958E+03  0.25500000000E-02 0. -1.
         -2   -1    0    0    0  501 -0.00000000000E+00 -0.00000000000E+00 -0.69347063003E+03  0.69347063003E+03  0.25500000000E-02 0.  1.
    8880022    1    1    2    0    0 -0.25755965564E+03 -0.41323663733E+03 -0.46683234320E+03  0.69168315313E+03  0.15294330000E+03 0.  0.
    8880022    1    1    2    0    0  0.25755965564E+03  0.41323663733E+03  0.45597925275E+03  0.68440501649E+03  0.15294330000E+03 0.  0.
<mgrwt>
<rscale>  0 0.51038529E+03</rscale>
<asrwt>0</asrwt>
<pdfrwt beam="1">  1        2 0.10501808E+00 0.51038529E+03</pdfrwt>
<pdfrwt beam="2">  1       -2 0.10668779E+00 0.51038529E+03</pdfrwt>
<totfact> 0.31063610E+01</totfact>
</mgrwt>
</event>
<event>
 4    1  0.5410820E-008  0.1338137E+04  0.7818608E-02  0.8999857E-01
          2   -1    0    0  501    0  0.00000000000E+00  0.00000000000E+00  0.10893354863E+04  0.10893354863E+04  0.25500000000E-02 0. -1.
         -2   -1    0    0    0  501 -0.00000000000E+00 -0.00000000000E+00 -0.22775853391E+04  0.22775853391E+04  0.25500000000E-02 0.  1.
    8880022    1    1    2    0    0  0.12309565123E+04 -0.50196222744E+03  0.29394799257E+03  0.13700427323E+04  0.15294330000E+03 0.  0.
    8880022    1    1    2    0    0 -0.12309565123E+04  0.50196222744E+03 -0.14821978454E+04  0.19968780931E+04  0.15294330000E+03 0.  0.
<mgrwt>
<rscale>  0 0.13381374E+04</rscale>
<asrwt>0</asrwt>
<pdfrwt beam="1">  1        2 0.16759008E+00 0.13381374E+04</pdfrwt>
<pdfrwt beam="2">  1       -2 0.35039774E+00 0.13381374E+04</pdfrwt>
<totfact> 0.33019910E-01</totfact>
</mgrwt>
</event>
<event>
 4    1  0.5410820E-008  0.7410210E+03  0.7818608E-02  0.9649543E-01
          2   -1    0    0  501    0  0.00000000000E+00  0.00000000000E+00  0.30533052803E+04  0.30533052803E+04  0.25500000000E-02 0. -1.
         -2   -1    0    0    0  501 -0.00000000000E+00 -0.00000000000E+00 -0.22227673706E+03  0.22227673707E+03  0.25500000000E-02 0.  1.
    8880022    1    1    2    0    0  0.47605485105E+02 -0.72350135296E+03  0.21311184695E+04  0.22562752656E+04  0.15294330000E+03 0.  0.
    8880022    1    1    2    0    0 -0.47605485105E+02  0.72350135296E+03  0.69991007374E+03  0.10193067518E+04  0.15294330000E+03 0.  0.
<mgrwt>
<rscale>  0 0.74102101E+03</rscale>
<asrwt>0</asrwt>
<pdfrwt beam="1">  1        2 0.46973927E+00 0.74102101E+03</pdfrwt>
<pdfrwt beam="2">  1       -2 0.34196422E-01 0.74102101E+03</pdfrwt>
<totfact> 0.13739709E+01</totfact>
</mgrwt>
</event>
<event>
 4    1  0.5410820E-008  0.5532858E+03  0.7818608E-02  0.1000736E+00
         -2   -1    0    0    0  501 -0.00000000000E+00  0.00000000000E+00  0.31161137381E+03  0.31161137382E+03  0.25500000000E-02 0.  1.
          2   -1    0    0  501    0  0.00000000000E+00 -0.00000000000E+00 -0.12325081347E+04  0.12325081347E+04  0.25500000000E-02 0. -1.
    8880022    1    1    2    0    0 -0.51806316884E+03  0.11976658715E+03 -0.11265191905E+03  0.56463757419E+03  0.15294330000E+03 0.  0.
    8880022    1    1    2    0    0  0.51806316884E+03 -0.11976658715E+03 -0.80824484180E+03  0.97948193430E+03  0.15294330000E+03 0.  0.
<mgrwt>
<rscale>  0 0.55328576E+03</rscale>
<asrwt>0</asrwt>
<pdfrwt beam="1">  1        2 0.18961663E+00 0.55328576E+03</pdfrwt>
<pdfrwt beam="2">  1       -2 0.47940212E-01 0.55328576E+03</pdfrwt>
<totfact> 0.77447331E+01</totfact>
</mgrwt>
</event>
<event>
 4    1  0.5410820E-008  0.1887246E+03  0.7818608E-02  0.1159617E+00
         -2   -1    0    0    0  501 -0.00000000000E+00  0.00000000000E+00  0.28301605339E+02  0.28301605454E+02  0.25500000000E-02 0.  1.
          2   -1    0    0  501    0  0.00000000000E+00 -0.00000000000E+00 -0.24056133441E+04  0.24056133441E+04  0.25500000000E-02 0. -1.
    8880022    1    1    2    0    0 -0.10951912039E+03  0.15195106127E+02 -0.34828770454E+03  0.39613294123E+03  0.15294330000E+03 0.  0.
    8880022    1    1    2    0    0  0.10951912039E+03 -0.15195106127E+02 -0.20290240342E+04  0.20377820083E+04  0.15294330000E+03 0.  0.
<mgrwt>
<rscale>  0 0.18872462E+03</rscale>
<asrwt>0</asrwt>
<pdfrwt beam="1">  1        2 0.37009420E+00 0.18872462E+03</pdfrwt>
<pdfrwt beam="2">  1       -2 0.43540950E-02 0.18872462E+03</pdfrwt>
<totfact> 0.11058280E+03</totfact>
</mgrwt>
</event>
<event>
 4    1  0.5410820E-008  0.8790339E+03  0.7818608E-02  0.9452176E-01
         -2   -1    0    0    0  501 -0.00000000000E+00  0.00000000000E+00  0.27979894334E+03  0.27979894335E+03  0.25500000000E-02 0.  1.
          2   -1    0    0  501    0  0.00000000000E+00 -0.00000000000E+00 -0.39529192464E+04  0.39529192464E+04  0.25500000000E-02 0. -1.
    8880022    1    1    2    0    0 -0.60105640163E+03 -0.62292864043E+03 -0.29983816232E+04  0.31245788356E+04  0.15294330000E+03 0.  0.
    8880022    1    1    2    0    0  0.60105640163E+03  0.62292864043E+03 -0.67473867993E+03  0.11081393542E+04  0.15294330000E+03 0.  1.
<mgrwt>
<rscale>  0 0.87903387E+03</rscale>
<asrwt>0</asrwt>
<pdfrwt beam="1">  1        2 0.60814138E+00 0.87903387E+03</pdfrwt>
<pdfrwt beam="2">  1       -2 0.43045994E-01 0.87903387E+03</pdfrwt>
<totfact> 0.20565705E+00</totfact>
</mgrwt>
</event>
<event>
 4    1  0.5410820E-008  0.1625349E+03  0.7818608E-02  0.1185864E+00
          2   -1    0    0  501    0  0.00000000000E+00  0.00000000000E+00  0.10193256811E+04  0.10193256811E+04  0.25500000000E-02 0. -1.
         -2   -1    0    0    0  501 -0.00000000000E+00 -0.00000000000E+00 -0.31788833703E+03  0.31788833704E+03  0.25500000000E-02 0.  1.
    8880022    1    1    2    0    0  0.55007512708E+02  0.35520334533E+00 -0.29005391726E+03  0.33248891795E+03  0.15294330000E+03 0.  0.
    8880022    1    1    2    0    0 -0.55007512708E+02 -0.35520334533E+00  0.99149126133E+03  0.10047251002E+04  0.15294330000E+03 0. -1.
<mgrwt>
<rscale>  0 0.16253494E+03</rscale>
<asrwt>0</asrwt>
<pdfrwt beam="1">  1        2 0.15681934E+00 0.16253494E+03</pdfrwt>
<pdfrwt beam="2">  1       -2 0.48905897E-01 0.16253494E+03</pdfrwt>
<totfact> 0.10674643E+02</totfact>
</mgrwt>
</event>
<event>
 4    1  0.5410820E-008  0.4114692E+03  0.7818608E-02  0.1039879E+00
          2   -1    0    0  501    0  0.00000000000E+00  0.00000000000E+00  0.14751841360E+04  0.14751841360E+04  0.25500000000E-02 0. -1.
         -2   -1    0    0    0  501 -0.00000000000E+00 -0.00000000000E+00 -0.12811196445E+03  0.12811196447E+03  0.25500000000E-02 0.  1.
    8880022    1    1    2    0    0  0.80470245624E+02 -0.37341636106E+03  0.41483474039E+03  0.58428995712E+03  0.15294330000E+03 0.  0.
    8880022    1    1    2    0    0 -0.80470245624E+02  0.37341636106E+03  0.93223743120E+03  0.10190061434E+04  0.15294330000E+03 0.  0.
<mgrwt>
<rscale>  0 0.41146919E+03</rscale>
<asrwt>0</asrwt>
<pdfrwt beam="1">  1        2 0.22695140E+00 0.41146919E+03</pdfrwt>
<pdfrwt beam="2">  1       -2 0.19709534E-01 0.41146919E+03</pdfrwt>
<totfact> 0.29943480E+02</totfact>
</mgrwt>
</event>
<event>
 4    1  0.5410820E-008  0.4619679E+03  0.7818608E-02  0.1024212E+00
         -2   -1    0    0    0  501 -0.00000000000E+00  0.00000000000E+00  0.33323454805E+03  0.33323454806E+03  0.25500000000E-02 0.  1.
          2   -1    0    0  501    0  0.00000000000E+00 -0.00000000000E+00 -0.99049050328E+03  0.99049050328E+03  0.25500000000E-02 0. -1.
    8880022    1    1    2    0    0  0.22827091201E+03  0.37136918701E+03 -0.72209872710E+03  0.85722862005E+03  0.15294330000E+03 0.  0.
    8880022    1    1    2    0    0 -0.22827091201E+03 -0.37136918701E+03  0.64842771869E+02  0.46649643129E+03  0.15294330000E+03 0.  0.
<mgrwt>
<rscale>  0 0.46196789E+03</rscale>
<asrwt>0</asrwt>
<pdfrwt beam="1">  1        2 0.15238315E+00 0.46196789E+03</pdfrwt>
<pdfrwt beam="2">  1       -2 0.51266854E-01 0.46196789E+03</pdfrwt>
<totfact> 0.95645345E+01</totfact>
</mgrwt>
</event>
<event>
 4    1  0.5410820E-008  0.4515494E+03  0.7818608E-02  0.1027261E+00
          2   -1    0    0  501    0  0.00000000000E+00  0.00000000000E+00  0.30805999102E+04  0.30805999102E+04  0.25500000000E-02 0. -1.
         -2   -1    0    0    0  501 -0.00000000000E+00 -0.00000000000E+00 -0.12942796887E+03  0.12942796889E+03  0.25500000000E-02 0.  1.
    8880022    1    1    2    0    0  0.24047038838E+03 -0.35025594335E+03  0.25975079027E+04  0.26364643353E+04  0.15294330000E+03 0.  0.
    8880022    1    1    2    0    0 -0.24047038838E+03  0.35025594335E+03  0.35366403857E+03  0.57356354376E+03  0.15294330000E+03 0.  0.
<mgrwt>
<rscale>  0 0.45154943E+03</rscale>
<asrwt>0</asrwt>
<pdfrwt beam="1">  1        2 0.47393844E+00 0.45154943E+03</pdfrwt>
<pdfrwt beam="2">  1       -2 0.19911995E-01 0.45154943E+03</pdfrwt>
<totfact> 0.37434762E+01</totfact>
</mgrwt>
</event>
<event>
 4    1  0.5410820E-008  0.3948925E+03  0.7818608E-02  0.1045563E+00
         -2   -1    0    0    0  501 -0.00000000000E+00  0.00000000000E+00  0.22173985684E+03  0.22173985685E+03  0.25500000000E-02 0.  1.
          2   -1    0    0  501    0  0.00000000000E+00 -0.00000000000E+00 -0.83651146027E+03  0.83651146027E+03  0.25500000000E-02 0. -1.
    8880022    1    1    2    0    0 -0.60994295011E+02 -0.35892639611E+03 -0.51857110432E+03  0.65180986883E+03  0.15294330000E+03 0.  0.
    8880022    1    1    2    0    0  0.60994295011E+02  0.35892639611E+03 -0.96200499109E+02  0.40644144830E+03  0.15294330000E+03 0.  0.
<mgrwt>
<rscale>  0 0.39489254E+03</rscale>
<asrwt>0</asrwt>
<pdfrwt beam="1">  1        2 0.12869407E+00 0.39489254E+03</pdfrwt>
<pdfrwt beam="2">  1       -2 0.34113825E-01 0.39489254E+03</pdfrwt>
<totfact> 0.26894258E+02</totfact>
</mgrwt>
</event>
<event>
 4    1  0.5410820E-008  0.2681129E+03  0.7818608E-02  0.1102365E+00
         -2   -1    0    0    0  501 -0.00000000000E+00  0.00000000000E+00  0.92025734309E+03  0.92025734309E+03  0.25500000000E-02 0.  1.
          2   -1    0    0  501    0  0.00000000000E+00 -0.00000000000E+00 -0.35869522986E+03  0.35869522987E+03  0.25500000000E-02 0. -1.
    8880022    1    1    2    0    0  0.65856770389E+02 -0.21013266383E+03 -0.28479543991E+03  0.39114312754E+03  0.15294330000E+03 0. -1.
    8880022    1    1    2    0    0 -0.65856770389E+02  0.21013266383E+03  0.84635755314E+03  0.88780944542E+03  0.15294330000E+03 0.  0.
<mgrwt>
<rscale>  0 0.26811286E+03</rscale>
<asrwt>0</asrwt>
<pdfrwt beam="1">  1        2 0.55183882E-01 0.26811286E+03</pdfrwt>
<pdfrwt beam="2">  1       -2 0.14157805E+00 0.26811286E+03</pdfrwt>
<totfact> 0.33474344E+01</totfact>
</mgrwt>
</event>
<event>
 4    1  0.5816288E-008  0.1072577E+04  0.7818608E-02  0.9232341E-01
          2   -1    0    0  501    0  0.00000000000E+00  0.00000000000E+00  0.17915880908E+04  0.17915880908E+04  0.25500000000E-02 0. -1.
         -2   -1    0    0    0  501 -0.00000000000E+00 -0.00000000000E+00 -0.16465171032E+04  0.16465171032E+04  0.25500000000E-02 0.  1.
    8880022    1    1    2    0    0 -0.19435626424E+03  0.10436734883E+04 -0.12700998195E+04  0.16624000457E+04  0.15294330000E+03 0.  0.
    8880022    1    1    2    0    0  0.19435626424E+03 -0.10436734883E+04  0.14151708070E+04  0.17757051483E+04  0.15294330000E+03 0.  0.
<mgrwt>
<rscale>  0 0.10725765E+04</rscale>
<asrwt>0</asrwt>
<pdfrwt beam="1">  1        2 0.27562894E+00 0.10725765E+04</pdfrwt>
<pdfrwt beam="2">  1       -2 0.25331033E+00 0.10725765E+04</pdfrwt>
<totfact> 0.52943429E-01</totfact>
</mgrwt>
</event>
<event>
 4    1  0.5410820E-008  0.1083178E+04  0.7818608E-02  0.9221745E-01
         -2   -1    0    0    0  501 -0.00000000000E+00  0.00000000000E+00  0.32770057176E+03  0.32770057177E+03  0.25500000000E-02 0.  1.
          2   -1    0    0  501    0  0.00000000000E+00 -0.00000000000E+00 -0.41556725840E+04  0.41556725840E+04  0.25500000000E-02 0. -1.
    8880022    1    1    2    0    0 -0.51554684766E+03  0.94026292953E+03 -0.27480883464E+04  0.29538558092E+04  0.15294330000E+03 0.  0.
    8880022    1    1    2    0    0  0.51554684766E+03 -0.94026292953E+03 -0.10798836658E+04  0.15295173466E+04  0.15294330000E+03 0.  0.
<mgrwt>
<rscale>  0 0.10831780E+04</rscale>
<asrwt>0</asrwt>
<pdfrwt beam="1">  1        2 0.63933421E+00 0.10831780E+04</pdfrwt>
<pdfrwt beam="2">  1       -2 0.50415476E-01 0.10831780E+04</pdfrwt>
<totfact> 0.98757152E-01</totfact>
</mgrwt>
</event>
<event>
 4    1  0.5410820E-008  0.6600118E+03  0.7818608E-02  0.9788172E-01
         -2   -1    0    0    0  501 -0.00000000000E+00  0.00000000000E+00  0.78871858649E+03  0.78871858649E+03  0.25500000000E-02 0.  1.
          2   -1    0    0  501    0  0.00000000000E+00 -0.00000000000E+00 -0.12420893850E+04  0.12420893850E+04  0.25500000000E-02 0. -1.
    8880022    1    1    2    0    0  0.57128608104E+03 -0.29301213674E+03  0.53000493590E+03  0.84647550689E+03  0.15294330000E+03 0.  0.
    8880022    1    1    2    0    0 -0.57128608104E+03  0.29301213674E+03 -0.98337573439E+03  0.11843324646E+04  0.15294330000E+03 0.  0.
<mgrwt>
<rscale>  0 0.66001178E+03</rscale>
<asrwt>0</asrwt>
<pdfrwt beam="1">  1        2 0.19109067E+00 0.66001178E+03</pdfrwt>
<pdfrwt beam="2">  1       -2 0.12134132E+00 0.66001178E+03</pdfrwt>
<totfact> 0.95412742E+00</totfact>
</mgrwt>
</event>
<event>
 4    1  0.5410820E-008  0.4675426E+03  0.7818608E-02  0.1022616E+00
          2   -1    0    0  501    0  0.00000000000E+00  0.00000000000E+00  0.72966922555E+03  0.72966922556E+03  0.25500000000E-02 0. -1.
         -2   -1    0    0    0  501 -0.00000000000E+00 -0.00000000000E+00 -0.37193254877E+03  0.37193254878E+03  0.25500000000E-02 0.  1.
    8880022    1    1    2    0    0 -0.43504321767E+03  0.77082982575E+02 -0.64062317973E+02  0.47191103085E+03  0.15294330000E+03 0.  0.
    8880022    1    1    2    0    0  0.43504321767E+03 -0.77082982575E+02  0.42179899475E+03  0.62969074348E+03  0.15294330000E+03 0.  0.
<mgrwt>
<rscale>  0 0.46754255E+03</rscale>
<asrwt>0</asrwt>
<pdfrwt beam="1">  1        2 0.11225680E+00 0.46754255E+03</pdfrwt>
<pdfrwt beam="2">  1       -2 0.57220392E-01 0.46754255E+03</pdfrwt>
<totfact> 0.11492670E+02</totfact>
</mgrwt>
</event>
<event>
 4    1  0.5410820E-008  0.5629239E+03  0.7818608E-02  0.9985460E-01
         -2   -1    0    0    0  501 -0.00000000000E+00  0.00000000000E+00  0.69074456788E+03  0.69074456789E+03  0.25500000000E-02 0.  1.
          2   -1    0    0  501    0  0.00000000000E+00 -0.00000000000E+00 -0.17050205911E+04  0.17050205911E+04  0.25500000000E-02 0. -1.
    8880022    1    1    2    0    0 -0.46009997104E+03 -0.28600641057E+03  0.51699069747E+03  0.76430536079E+03  0.15294330000E+03 0.  0.
    8880022    1    1    2    0    0  0.46009997104E+03  0.28600641057E+03 -0.15312667207E+04  0.16314597982E+04  0.15294330000E+03 0.  0.
<mgrwt>
<rscale>  0 0.56292389E+03</rscale>
<asrwt>0</asrwt>
<pdfrwt beam="1">  1        2 0.26231086E+00 0.56292389E+03</pdfrwt>
<pdfrwt beam="2">  1       -2 0.10626840E+00 0.56292389E+03</pdfrwt>
<totfact> 0.73959772E+00</totfact>
</mgrwt>
</event>
<event>
 4    1  0.5410820E-008  0.8179409E+03  0.7818608E-02  0.9534405E-01
         -2   -1    0    0    0  501 -0.00000000000E+00  0.00000000000E+00  0.16151026482E+04  0.16151026482E+04  0.25500000000E-02 0.  1.
          2   -1    0    0  501    0  0.00000000000E+00 -0.00000000000E+00 -0.21237487186E+04  0.21237487186E+04  0.25500000000E-02 0. -1.
    8880022    1    1    2    0    0  0.67926677633E+03  0.42922292111E+03 -0.19315556799E+04  0.20976021232E+04  0.15294330000E+03 0.  0.
    8880022    1    1    2    0    0 -0.67926677633E+03 -0.42922292111E+03  0.14229096096E+04  0.16412492436E+04  0.15294330000E+03 0.  0.
<mgrwt>
<rscale>  0 0.81794090E+03</rscale>
<asrwt>0</asrwt>
<pdfrwt beam="1">  1        2 0.32673057E+00 0.81794090E+03</pdfrwt>
<pdfrwt beam="2">  1       -2 0.24847733E+00 0.81794090E+03</pdfrwt>
<totfact> 0.38947591E-01</totfact>
</mgrwt>
</event>
<event>
 4    1  0.5410820E-008  0.8715038E+03  0.7818608E-02  0.9461921E-01
          2   -1    0    0  501    0  0.00000000000E+00  0.00000000000E+00  0.31277602389E+04  0.31277602389E+04  0.25500000000E-02 0. -1.
         -2   -1    0    0    0  501 -0.00000000000E+00 -0.00000000000E+00 -0.40276032295E+03  0.40276032296E+03  0.25500000000E-02 0.  1.
    8880022    1    1    2    0    0  0.43085458353E+03 -0.74195121133E+03  0.24748684696E+04  0.26238317147E+04  0.15294330000E+03 0.  0.
    8880022    1    1    2    0    0 -0.43085458353E+03  0.74195121133E+03  0.25013144636E+03  0.90668884718E+03  0.15294330000E+03 0.  0.
<mgrwt>
<rscale>  0 0.87150383E+03</rscale>
<asrwt>0</asrwt>
<pdfrwt beam="1">  1        2 0.48119388E+00 0.87150383E+03</pdfrwt>
<pdfrwt beam="2">  1       -2 0.61963127E-01 0.87150383E+03</pdfrwt>
<totfact> 0.36583830E+00</totfact>
</mgrwt>
</event>
<event>
 4    1  0.5410820E-008  0.6652749E+03  0.7818608E-02  0.9778532E-01
         -2   -1    0    0    0  501 -0.00000000000E+00  0.00000000000E+00  0.80847045377E+03  0.80847045377E+03  0.25500000000E-02 0.  1.
          2   -1    0    0  501    0  0.00000000000E+00 -0.00000000000E+00 -0.75773287287E+03  0.75773287287E+03  0.25500000000E-02 0. -1.
    8880022    1    1    2    0    0  0.47288236108E+03 -0.44224569664E+03  0.43791286346E+03  0.79646614029E+03  0.15294330000E+03 0.  0.
    8880022    1    1    2    0    0 -0.47288236108E+03  0.44224569664E+03 -0.38717528256E+03  0.76973718636E+03  0.15294330000E+03 0.  0.
<mgrwt>
<rscale>  0 0.66527486E+03</rscale>
<asrwt>0</asrwt>
<pdfrwt beam="1">  1        2 0.11657429E+00 0.66527486E+03</pdfrwt>
<pdfrwt beam="2">  1       -2 0.12438007E+00 0.66527486E+03</pdfrwt>
<totfact> 0.18385051E+01</totfact>
</mgrwt>
</event>
<event>
 4    1  0.5410820E-008  0.8729770E+03  0.7818608E-02  0.9460006E-01
          2   -1    0    0  501    0  0.00000000000E+00  0.00000000000E+00  0.22072150719E+04  0.22072150719E+04  0.25500000000E-02 0. -1.
         -2   -1    0    0    0  501 -0.00000000000E+00 -0.00000000000E+00 -0.59228031159E+03  0.59228031159E+03  0.25500000000E-02 0.  1.
    8880022    1    1    2    0    0 -0.11566786360E+03  0.85165615236E+03  0.17114126894E+04  0.19212033476E+04  0.15294330000E+03 0.  0.
    8880022    1    1    2    0    0  0.11566786360E+03 -0.85165615236E+03 -0.96477929046E+02  0.87829203590E+03  0.15294330000E+03 0.  0.
<mgrwt>
<rscale>  0 0.87297704E+03</rscale>
<asrwt>0</asrwt>
<pdfrwt beam="1">  1        2 0.33957155E+00 0.87297704E+03</pdfrwt>
<pdfrwt beam="2">  1       -2 0.91120049E-01 0.87297704E+03</pdfrwt>
<totfact> 0.53666909E+00</totfact>
</mgrwt>
</event>
<event>
 4    1  0.5410820E-008  0.5445915E+03  0.7818608E-02  0.1002754E+00
          2   -1    0    0  501    0  0.00000000000E+00  0.00000000000E+00  0.94047142551E+03  0.94047142551E+03  0.25500000000E-02 0. -1.
         -2   -1    0    0    0  501 -0.00000000000E+00 -0.00000000000E+00 -0.44261746553E+03  0.44261746554E+03  0.25500000000E-02 0.  1.
    8880022    1    1    2    0    0  0.52203097935E+03  0.25921050386E+02  0.61974469207E+03  0.82502326065E+03  0.15294330000E+03 0.  0.
    8880022    1    1    2    0    0 -0.52203097935E+03 -0.25921050386E+02 -0.12189073209E+03  0.55806563040E+03  0.15294330000E+03 0.  0.
<mgrwt>
<rscale>  0 0.54459150E+03</rscale>
<asrwt>0</asrwt>
<pdfrwt beam="1">  1        2 0.14468791E+00 0.54459150E+03</pdfrwt>
<pdfrwt beam="2">  1       -2 0.68094995E-01 0.54459150E+03</pdfrwt>
<totfact> 0.56287381E+01</totfact>
</mgrwt>
</event>
<event>
 4    1  0.5410820E-008  0.1251769E+04  0.7818608E-02  0.9068712E-01
         -2   -1    0    0    0  501 -0.00000000000E+00  0.00000000000E+00  0.10525511029E+04  0.10525511029E+04  0.25500000000E-02 0.  1.
          2   -1    0    0  501    0  0.00000000000E+00 -0.00000000000E+00 -0.23537657727E+04  0.23537657727E+04  0.25500000000E-02 0. -1.
    8880022    1    1    2    0    0 -0.33153647993E+02 -0.12419480391E+04 -0.16831302082E+04  0.20975826675E+04  0.15294330000E+03 0.  0.
    8880022    1    1    2    0    0  0.33153647993E+02  0.12419480391E+04  0.38191553836E+03  0.13087342082E+04  0.15294330000E+03 0.  0.
<mgrwt>
<rscale>  0 0.12517690E+04</rscale>
<asrwt>0</asrwt>
<pdfrwt beam="1">  1        2 0.36211781E+00 0.12517690E+04</pdfrwt>
<pdfrwt beam="2">  1       -2 0.16193094E+00 0.12517690E+04</pdfrwt>
<totfact> 0.99809107E-01</totfact>
</mgrwt>
</event>
<event>
 4    1  0.5410820E-008  0.3539773E+03  0.7818608E-02  0.1060994E+00
          2   -1    0    0  501    0  0.00000000000E+00  0.00000000000E+00  0.11315644190E+04  0.11315644190E+04  0.25500000000E-02 0. -1.
         -2   -1    0    0    0  501 -0.00000000000E+00 -0.00000000000E+00 -0.62013281897E+03  0.62013281897E+03  0.25500000000E-02 0.  1.
    8880022    1    1    2    0    0  0.20729920737E+03  0.24276599209E+03 -0.53809440997E+03  0.64408503735E+03  0.15294330000E+03 0.  0.
    8880022    1    1    2    0    0 -0.20729920737E+03 -0.24276599209E+03  0.10495260100E+04  0.11076122006E+04  0.15294330000E+03 0.  0.
<mgrwt>
<rscale>  0 0.35397732E+03</rscale>
<asrwt>0</asrwt>
<pdfrwt beam="1">  1        2 0.17408683E+00 0.35397732E+03</pdfrwt>
<pdfrwt beam="2">  1       -2 0.95405049E-01 0.35397732E+03</pdfrwt>
<totfact> 0.20832991E+01</totfact>
</mgrwt>
</event>
<event>
 4    1  0.5410820E-008  0.2699799E+03  0.7818608E-02  0.1101291E+00
         -2   -1    0    0    0  501 -0.00000000000E+00  0.00000000000E+00  0.10713514178E+03  0.10713514181E+03  0.25500000000E-02 0.  1.
          2   -1    0    0  501    0  0.00000000000E+00 -0.00000000000E+00 -0.12473600052E+04  0.12473600052E+04  0.25500000000E-02 0. -1.
    8880022    1    1    2    0    0 -0.71099723664E+02 -0.21081350516E+03 -0.11349997502E+03  0.29286755028E+03  0.15294330000E+03 0.  0.
    8880022    1    1    2    0    0  0.71099723664E+02  0.21081350516E+03 -0.10267248884E+04  0.10616275967E+04  0.15294330000E+03 0.  0.
<mgrwt>
<rscale>  0 0.26997992E+03</rscale>
<asrwt>0</asrwt>
<pdfrwt beam="1">  1        2 0.19190153E+00 0.26997992E+03</pdfrwt>
<pdfrwt beam="2">  1       -2 0.16482330E-01 0.26997992E+03</pdfrwt>
<totfact> 0.55151171E+02</totfact>
</mgrwt>
</event>
<event>
 4    1  0.5410820E-008  0.4605055E+03  0.7818608E-02  0.1024635E+00
          2   -1    0    0  501    0  0.00000000000E+00  0.00000000000E+00  0.11275356162E+04  0.11275356162E+04  0.25500000000E-02 0. -1.
         -2   -1    0    0    0  501 -0.00000000000E+00 -0.00000000000E+00 -0.33555072442E+03  0.33555072443E+03  0.25500000000E-02 0.  1.
    8880022    1    1    2    0    0 -0.15428744917E+03 -0.40604071551E+03  0.88096350392E+03  0.99406339229E+03  0.15294330000E+03 0.  0.
    8880022    1    1    2    0    0  0.15428744917E+03  0.40604071551E+03 -0.88978612162E+02  0.46902294833E+03  0.15294330000E+03 0.  0.
<mgrwt>
<rscale>  0 0.46050552E+03</rscale>
<asrwt>0</asrwt>
<pdfrwt beam="1">  1        2 0.17346702E+00 0.46050552E+03</pdfrwt>
<pdfrwt beam="2">  1       -2 0.51623188E-01 0.46050552E+03</pdfrwt>
<totfact> 0.77765837E+01</totfact>
</mgrwt>
</event>
<event>
 4    1  0.5410820E-008  0.4439037E+03  0.7818608E-02  0.1029556E+00
          2   -1    0    0  501    0  0.00000000000E+00  0.00000000000E+00  0.14369373203E+04  0.14369373203E+04  0.25500000000E-02 0. -1.
         -2   -1    0    0    0  501 -0.00000000000E+00 -0.00000000000E+00 -0.20518832911E+03  0.20518832913E+03  0.25500000000E-02 0.  1.
    8880022    1    1    2    0    0 -0.90251530863E+02  0.40683348282E+03  0.14301353023E+03  0.46637253822E+03  0.15294330000E+03 0.  0.
    8880022    1    1    2    0    0  0.90251530863E+02 -0.40683348282E+03  0.10887354609E+04  0.11757531112E+04  0.15294330000E+03 0.  0.
<mgrwt>
<rscale>  0 0.44390368E+03</rscale>
<asrwt>0</asrwt>
<pdfrwt beam="1">  1        2 0.22106728E+00 0.44390368E+03</pdfrwt>
<pdfrwt beam="2">  1       -2 0.31567436E-01 0.44390368E+03</pdfrwt>
<totfact> 0.13480520E+02</totfact>
</mgrwt>
</event>
<event>
 4    1  0.5410820E-008  0.4793744E+03  0.7818608E-02  0.1019307E+00
         -2   -1    0    0    0  501 -0.00000000000E+00  0.00000000000E+00  0.21638200351E+03  0.21638200353E+03  0.25500000000E-02 0.  1.
          2   -1    0    0  501    0  0.00000000000E+00 -0.00000000000E+00 -0.12597799322E+04  0.12597799322E+04  0.25500000000E-02 0. -1.
    8880022    1    1    2    0    0  0.43831503779E+03  0.11953286693E+03 -0.81413904643E+03  0.94478686409E+03  0.15294330000E+03 0. -1.
    8880022    1    1    2    0    0 -0.43831503779E+03 -0.11953286693E+03 -0.22925888223E+03  0.53137507161E+03  0.15294330000E+03 0.  0.
<mgrwt>
<rscale>  0 0.47937442E+03</rscale>
<asrwt>0</asrwt>
<pdfrwt beam="1">  1        2 0.19381229E+00 0.47937442E+03</pdfrwt>
<pdfrwt beam="2">  1       -2 0.33289540E-01 0.47937442E+03</pdfrwt>
<totfact> 0.15282879E+02</totfact>
</mgrwt>
</event>
<event>
 4    1  0.5410820E-008  0.5202386E+03  0.7818608E-02  0.1008627E+00
          2   -1    0    0  501    0  0.00000000000E+00  0.00000000000E+00  0.17351890393E+04  0.17351890393E+04  0.25500000000E-02 0. -1.
         -2   -1    0    0    0  501 -0.00000000000E+00 -0.00000000000E+00 -0.36181639847E+03  0.36181639848E+03  0.25500000000E-02 0.  1.
    8880022    1    1    2    0    0 -0.46770862536E+03  0.16883469190E+03  0.14775298231E+04  0.15664426394E+04  0.15294330000E+03 0.  0.
    8880022    1    1    2    0    0  0.46770862536E+03 -0.16883469190E+03 -0.10415718223E+03  0.53056279840E+03  0.15294330000E+03 0.  0.
<mgrwt>
<rscale>  0 0.52023856E+03</rscale>
<asrwt>0</asrwt>
<pdfrwt beam="1">  1        2 0.26695216E+00 0.52023856E+03</pdfrwt>
<pdfrwt beam="2">  1       -2 0.55664062E-01 0.52023856E+03</pdfrwt>
<totfact> 0.30213487E+01</totfact>
</mgrwt>
</event>
<event>
 4    1  0.5410820E-008  0.9375050E+03  0.7818608E-02  0.9379876E-01
          2   -1    0    0  501    0  0.00000000000E+00  0.00000000000E+00  0.24399436088E+04  0.24399436088E+04  0.25500000000E-02 0. -1.
         -2   -1    0    0    0  501 -0.00000000000E+00 -0.00000000000E+00 -0.73403755644E+03  0.73403755644E+03  0.25500000000E-02 0.  1.
    8880022    1    1    2    0    0  0.90503711971E+03  0.19087097497E+03 -0.27956539429E+03  0.97830076144E+03  0.15294330000E+03 0.  0.
    8880022    1    1    2    0    0 -0.90503711971E+03 -0.19087097497E+03  0.19854714466E+04  0.21956804038E+04  0.15294330000E+03 0.  0.
<mgrwt>
<rscale>  0 0.93750497E+03</rscale>
<asrwt>0</asrwt>
<pdfrwt beam="1">  1        2 0.37537594E+00 0.93750497E+03</pdfrwt>
<pdfrwt beam="2">  1       -2 0.11292885E+00 0.93750497E+03</pdfrwt>
<totfact> 0.23609595E+00</totfact>
</mgrwt>
</event>
<event>
 4    1  0.5410820E-008  0.3528989E+03  0.7818608E-02  0.1061431E+00
          2   -1    0    0  501    0  0.00000000000E+00  0.00000000000E+00  0.92769995485E+03  0.92769995486E+03  0.25500000000E-02 0. -1.
         -2   -1    0    0    0  501 -0.00000000000E+00 -0.00000000000E+00 -0.18239978867E+03  0.18239978868E+03  0.25500000000E-02 0.  1.
    8880022    1    1    2    0    0  0.71579295282E+01 -0.31795397959E+03  0.87451955139E+02  0.36357319285E+03  0.15294330000E+03 0.  0.
    8880022    1    1    2    0    0 -0.71579295282E+01  0.31795397959E+03  0.65784821105E+03  0.74652655069E+03  0.15294330000E+03 0.  0.
<mgrwt>
<rscale>  0 0.35289888E+03</rscale>
<asrwt>0</asrwt>
<pdfrwt beam="1">  1        2 0.14272307E+00 0.35289888E+03</pdfrwt>
<pdfrwt beam="2">  1       -2 0.28061506E-01 0.35289888E+03</pdfrwt>
<totfact> 0.33653691E+02</totfact>
</mgrwt>
</event>
<event>
 4    1  0.5410820E-008  0.8415295E+03  0.7818608E-02  0.9501777E-01
         -2   -1    0    0    0  501 -0.00000000000E+00  0.00000000000E+00  0.79382278710E+03  0.79382278710E+03  0.25500000000E-02 0.  1.
          2   -1    0    0  501    0  0.00000000000E+00 -0.00000000000E+00 -0.12483907670E+04  0.12483907670E+04  0.25500000000E-02 0. -1.
    8880022    1    1    2    0    0 -0.64977458811E+03  0.51241892795E+03  0.31821786992E+03  0.89968574448E+03  0.15294330000E+03 0.  0.
    8880022    1    1    2    0    0  0.64977458811E+03 -0.51241892795E+03 -0.77278584982E+03  0.11425278096E+04  0.15294330000E+03 0.  0.
<mgrwt>
<rscale>  0 0.84152946E+03</rscale>
<asrwt>0</asrwt>
<pdfrwt beam="1">  1        2 0.19206012E+00 0.84152946E+03</pdfrwt>
<pdfrwt beam="2">  1       -2 0.12212658E+00 0.84152946E+03</pdfrwt>
<totfact> 0.90933505E+00</totfact>
</mgrwt>
</event>
<event>
 4    1  0.7336645E-008  0.6829806E+03  0.7818608E-02  0.9746789E-01
         -2   -1    0    0    0  501 -0.00000000000E+00  0.00000000000E+00  0.22322594148E+04  0.22322594148E+04  0.25500000000E-02 0.  1.
          2   -1    0    0  501    0  0.00000000000E+00 -0.00000000000E+00 -0.69985424902E+03  0.69985424903E+03  0.25500000000E-02 0. -1.
    8880022    1    1    2    0    0 -0.56740399215E+03  0.34802810949E+03 -0.46162978447E+03  0.82435706234E+03  0.15294330000E+03 0.  0.
    8880022    1    1    2    0    0  0.56740399215E+03 -0.34802810949E+03  0.19940349502E+04  0.21077566015E+04  0.15294330000E+03 0.  0.
<mgrwt>
<rscale>  0 0.68298061E+03</rscale>
<asrwt>0</asrwt>
<pdfrwt beam="1">  1        2 0.10766989E+00 0.68298061E+03</pdfrwt>
<pdfrwt beam="2">  1       -2 0.34342452E+00 0.68298061E+03</pdfrwt>
<totfact> 0.74940964E-01</totfact>
</mgrwt>
</event>
<event>
 4    1  0.5410820E-008  0.3977717E+03  0.7818608E-02  0.1044554E+00
          2   -1    0    0  501    0  0.00000000000E+00  0.00000000000E+00  0.20685510070E+04  0.20685510070E+04  0.25500000000E-02 0. -1.
         -2   -1    0    0    0  501 -0.00000000000E+00 -0.00000000000E+00 -0.15734240803E+03  0.15734240805E+03  0.25500000000E-02 0.  1.
    8880022    1    1    2    0    0  0.20413505733E+03  0.30522043042E+03  0.15779428159E+03  0.42792677071E+03  0.15294330000E+03 0.  0.
    8880022    1    1    2    0    0 -0.20413505733E+03 -0.30522043042E+03  0.17534143174E+04  0.17979666443E+04  0.15294330000E+03 0.  0.
<mgrwt>
<rscale>  0 0.39777165E+03</rscale>
<asrwt>0</asrwt>
<pdfrwt beam="1">  1        2 0.31823864E+00 0.39777165E+03</pdfrwt>
<pdfrwt beam="2">  1       -2 0.24206522E-01 0.39777165E+03</pdfrwt>
<totfact> 0.10060370E+02</totfact>
</mgrwt>
</event>
<event>
 4    1  0.5410820E-008  0.3113264E+03  0.7818608E-02  0.1079712E+00
         -2   -1    0    0    0  501 -0.00000000000E+00  0.00000000000E+00  0.20012814592E+03  0.20012814593E+03  0.25500000000E-02 0.  1.
          2   -1    0    0  501    0  0.00000000000E+00 -0.00000000000E+00 -0.19068459758E+04  0.19068459758E+04  0.25500000000E-02 0. -1.
    8880022    1    1    2    0    0  0.24336474461E+03 -0.11960803516E+03 -0.17632784168E+04  0.17905515656E+04  0.15294330000E+03 0.  0.
    8880022    1    1    2    0    0 -0.24336474461E+03  0.11960803516E+03  0.56560586934E+02  0.31642255609E+03  0.15294330000E+03 0.  1.
<mgrwt>
<rscale>  0 0.31132641E+03</rscale>
<asrwt>0</asrwt>
<pdfrwt beam="1">  1        2 0.29336091E+00 0.31132641E+03</pdfrwt>
<pdfrwt beam="2">  1       -2 0.30788947E-01 0.31132641E+03</pdfrwt>
<totfact> 0.81048204E+01</totfact>
</mgrwt>
</event>
<event>
 4    1  0.5410820E-008  0.2796758E+03  0.7818608E-02  0.1095866E+00
          2   -1    0    0  501    0  0.00000000000E+00  0.00000000000E+00  0.55500493542E+03  0.55500493543E+03  0.25500000000E-02 0. -1.
         -2   -1    0    0    0  501 -0.00000000000E+00 -0.00000000000E+00 -0.29373985335E+03  0.29373985336E+03  0.25500000000E-02 0.  1.
    8880022    1    1    2    0    0  0.19114248496E+03  0.13524590959E+03 -0.17544888885E+03  0.33015279982E+03  0.15294330000E+03 0.  1.
    8880022    1    1    2    0    0 -0.19114248496E+03 -0.13524590959E+03  0.43671397092E+03  0.51859198897E+03  0.15294330000E+03 0.  0.
<mgrwt>
<rscale>  0 0.27967581E+03</rscale>
<asrwt>0</asrwt>
<pdfrwt beam="1">  1        2 0.85385373E-01 0.27967581E+03</pdfrwt>
<pdfrwt beam="2">  1       -2 0.45190747E-01 0.27967581E+03</pdfrwt>
<totfact> 0.26154688E+02</totfact>
</mgrwt>
</event>
<event>
 4    1  0.5410820E-008  0.1473459E+04  0.7818608E-02  0.8902297E-01
          2   -1    0    0  501    0  0.00000000000E+00  0.00000000000E+00  0.38688319742E+04  0.38688319742E+04  0.25500000000E-02 0. -1.
         -2   -1    0    0    0  501 -0.00000000000E+00 -0.00000000000E+00 -0.10075440314E+04  0.10075440314E+04  0.25500000000E-02 0.  1.
    8880022    1    1    2    0    0 -0.45113450638E+03 -0.13943337715E+04  0.30535134744E+04  0.33904314181E+04  0.15294330000E+03 0. -1.
    8880022    1    1    2    0    0  0.45113450638E+03  0.13943337715E+04 -0.19222553169E+03  0.14859445875E+04  0.15294330000E+03 0.  0.
<mgrwt>
<rscale>  0 0.14734587E+04</rscale>
<asrwt>0</asrwt>
<pdfrwt beam="1">  1        2 0.59520493E+00 0.14734587E+04</pdfrwt>
<pdfrwt beam="2">  1       -2 0.15500677E+00 0.14734587E+04</pdfrwt>
<totfact> 0.11476021E-01</totfact>
</mgrwt>
</event>
<event>
 4    1  0.5410820E-008  0.9320012E+03  0.7818608E-02  0.9386439E-01
         -2   -1    0    0    0  501 -0.00000000000E+00  0.00000000000E+00  0.13083014255E+04  0.13083014255E+04  0.25500000000E-02 0.  1.
          2   -1    0    0  501    0  0.00000000000E+00 -0.00000000000E+00 -0.86248364845E+03  0.86248364846E+03  0.25500000000E-02 0. -1.
    8880022    1    1    2    0    0 -0.16327187587E+03  0.90475235183E+03  0.74367850888E+03  0.11923438687E+04  0.15294330000E+03 0.  0.
    8880022    1    1    2    0    0  0.16327187587E+03 -0.90475235183E+03 -0.29786073183E+03  0.97844120528E+03  0.15294330000E+03 0.  0.
<mgrwt>
<rscale>  0 0.93200117E+03</rscale>
<asrwt>0</asrwt>
<pdfrwt beam="1">  1        2 0.13268979E+00 0.93200117E+03</pdfrwt>
<pdfrwt beam="2">  1       -2 0.20127714E+00 0.93200117E+03</pdfrwt>
<totfact> 0.40581783E+00</totfact>
</mgrwt>
</event>
<event>
 4    1  0.5410820E-008  0.5785012E+03  0.7818608E-02  0.9951041E-01
         -2   -1    0    0    0  501 -0.00000000000E+00  0.00000000000E+00  0.61382143247E+03  0.61382143247E+03  0.25500000000E-02 0.  1.
          2   -1    0    0  501    0  0.00000000000E+00 -0.00000000000E+00 -0.17820259750E+04  0.17820259750E+04  0.25500000000E-02 0. -1.
    8880022    1    1    2    0    0 -0.30285601683E+03  0.46856182715E+03 -0.15820874879E+04  0.16845368577E+04  0.15294330000E+03 0.  0.
    8880022    1    1    2    0    0  0.30285601683E+03 -0.46856182715E+03  0.41388294530E+03  0.71131054977E+03  0.15294330000E+03 0.  0.
<mgrwt>
<rscale>  0 0.57850117E+03</rscale>
<asrwt>0</asrwt>
<pdfrwt beam="1">  1        2 0.27415784E+00 0.57850117E+03</pdfrwt>
<pdfrwt beam="2">  1       -2 0.94434067E-01 0.57850117E+03</pdfrwt>
<totfact> 0.88519885E+00</totfact>
</mgrwt>
</event>
<event>
 4    1  0.5410820E-008  0.5707816E+03  0.7818608E-02  0.9967950E-01
          2   -1    0    0  501    0  0.00000000000E+00  0.00000000000E+00  0.33953380382E+04  0.33953380382E+04  0.25500000000E-02 0. -1.
         -2   -1    0    0    0  501 -0.00000000000E+00 -0.00000000000E+00 -0.11119346748E+03  0.11119346751E+03  0.25500000000E-02 0.  1.
    8880022    1    1    2    0    0  0.23560430469E+03 -0.49688090742E+03  0.99297130594E+03  0.11453312586E+04  0.15294330000E+03 0.  0.
    8880022    1    1    2    0    0 -0.23560430469E+03  0.49688090742E+03  0.22911732648E+04  0.23612002471E+04  0.15294330000E+03 0.  0.
<mgrwt>
<rscale>  0 0.57078164E+03</rscale>
<asrwt>0</asrwt>
<pdfrwt beam="1">  1        2 0.52235962E+00 0.57078164E+03</pdfrwt>
<pdfrwt beam="2">  1       -2 0.17106690E-01 0.57078164E+03</pdfrwt>
<totfact> 0.29814546E+01</totfact>
</mgrwt>
</event>
<event>
 4    1  0.5410820E-008  0.7520730E+03  0.7818608E-02  0.9632104E-01
         -2   -1    0    0    0  501 -0.00000000000E+00  0.00000000000E+00  0.33949221253E+03  0.33949221254E+03  0.25500000000E-02 0.  1.
          2   -1    0    0  501    0  0.00000000000E+00 -0.00000000000E+00 -0.17302783849E+04  0.17302783849E+04  0.25500000000E-02 0. -1.
    8880022    1    1    2    0    0  0.11416921459E+02  0.73626886839E+03 -0.49601868630E+03  0.90091530281E+03  0.15294330000E+03 0.  0.
    8880022    1    1    2    0    0 -0.11416921459E+02 -0.73626886839E+03 -0.89476748607E+03  0.11688552946E+04  0.15294330000E+03 0.  0.
<mgrwt>
<rscale>  0 0.75207303E+03</rscale>
<asrwt>0</asrwt>
<pdfrwt beam="1">  1        2 0.26619667E+00 0.75207303E+03</pdfrwt>
<pdfrwt beam="2">  1       -2 0.52229572E-01 0.75207303E+03</pdfrwt>
<totfact> 0.33514454E+01</totfact>
</mgrwt>
</event>
<event>
 4    1  0.5410820E-008  0.8677748E+03  0.7818608E-02  0.9466786E-01
          2   -1    0    0  501    0  0.00000000000E+00  0.00000000000E+00  0.35358355256E+04  0.35358355256E+04  0.25500000000E-02 0. -1.
         -2   -1    0    0    0  501 -0.00000000000E+00 -0.00000000000E+00 -0.27884727714E+03  0.27884727715E+03  0.25500000000E-02 0.  1.
    8880022    1    1    2    0    0  0.39362946302E+03 -0.75808794467E+03  0.70143543656E+03  0.11158157602E+04  0.15294330000E+03 0.  0.
    8880022    1    1    2    0    0 -0.39362946302E+03  0.75808794467E+03  0.25555528119E+04  0.26988670426E+04  0.15294330000E+03 0.  0.
<mgrwt>
<rscale>  0 0.86777482E+03</rscale>
<asrwt>0</asrwt>
<pdfrwt beam="1">  1        2 0.54397473E+00 0.86777482E+03</pdfrwt>
<pdfrwt beam="2">  1       -2 0.42899579E-01 0.86777482E+03</pdfrwt>
<totfact> 0.41941124E+00</totfact>
</mgrwt>
</event>
<event>
 4    1  0.5410820E-008  0.1826326E+03  0.7818608E-02  0.1165279E+00
         -2   -1    0    0    0  501 -0.00000000000E+00  0.00000000000E+00  0.23507870637E+03  0.23507870638E+03  0.25500000000E-02 0.  1.
          2   -1    0    0  501    0  0.00000000000E+00 -0.00000000000E+00 -0.88606223422E+03  0.88606223422E+03  0.25500000000E-02 0. -1.
    8880022    1    1    2    0    0  0.62825455360E+02  0.77562670459E+02  0.18823909286E+03  0.26227583722E+03  0.15294330000E+03 0.  0.
    8880022    1    1    2    0    0 -0.62825455360E+02 -0.77562670459E+02 -0.83922262072E+03  0.85886510339E+03  0.15294330000E+03 0. -1.
<mgrwt>
<rscale>  0 0.18263258E+03</rscale>
<asrwt>0</asrwt>
<pdfrwt beam="1">  1        2 0.13631727E+00 0.18263258E+03</pdfrwt>
<pdfrwt beam="2">  1       -2 0.36165955E-01 0.18263258E+03</pdfrwt>
<totfact> 0.22927088E+02</totfact>
</mgrwt>
</event>
<event>
 4    1  0.5410820E-008  0.7385929E+03  0.7818608E-02  0.9653418E-01
         -2   -1    0    0    0  501 -0.00000000000E+00  0.00000000000E+00  0.40035495250E+03  0.40035495251E+03  0.25500000000E-02 0.  1.
          2   -1    0    0  501    0  0.00000000000E+00 -0.00000000000E+00 -0.16297046004E+04  0.16297046004E+04  0.25500000000E-02 0. -1.
    8880022    1    1    2    0    0 -0.90941050342E+02 -0.71683853139E+03 -0.10256103157E+04  0.12638812948E+04  0.15294330000E+03 0.  0.
    8880022    1    1    2    0    0  0.90941050342E+02  0.71683853139E+03 -0.20373933226E+03  0.76617825814E+03  0.15294330000E+03 0.  0.
<mgrwt>
<rscale>  0 0.73859286E+03</rscale>
<asrwt>0</asrwt>
<pdfrwt beam="1">  1        2 0.25072378E+00 0.73859286E+03</pdfrwt>
<pdfrwt beam="2">  1       -2 0.61593070E-01 0.73859286E+03</pdfrwt>
<totfact> 0.27009551E+01</totfact>
</mgrwt>
</event>
<event>
 4    1  0.5410820E-008  0.4756633E+03  0.7818608E-02  0.1020334E+00
          2   -1    0    0  501    0  0.00000000000E+00  0.00000000000E+00  0.29059428534E+04  0.29059428534E+04  0.25500000000E-02 0. -1.
         -2   -1    0    0    0  501 -0.00000000000E+00 -0.00000000000E+00 -0.20726178570E+03  0.20726178571E+03  0.25500000000E-02 0.  1.
    8880022    1    1    2    0    0 -0.36129353058E+03 -0.26894401867E+03  0.25792945033E+04  0.26227877703E+04  0.15294330000E+03 0.  0.
    8880022    1    1    2    0    0  0.36129353058E+03  0.26894401867E+03  0.11938656441E+03  0.49041686879E+03  0.15294330000E+03 0.  0.
<mgrwt>
<rscale>  0 0.47566328E+03</rscale>
<asrwt>0</asrwt>
<pdfrwt beam="1">  1        2 0.44706809E+00 0.47566328E+03</pdfrwt>
<pdfrwt beam="2">  1       -2 0.31886431E-01 0.47566328E+03</pdfrwt>
<totfact> 0.20369009E+01</totfact>
</mgrwt>
</event>
<event>
 4    1  0.5410820E-008  0.3846464E+03  0.7818608E-02  0.1049230E+00
         -2   -1    0    0    0  501 -0.00000000000E+00  0.00000000000E+00  0.83417391540E+02  0.83417391579E+02  0.25500000000E-02 0.  1.
          2   -1    0    0  501    0  0.00000000000E+00 -0.00000000000E+00 -0.24589912029E+04  0.24589912029E+04  0.25500000000E-02 0. -1.
    8880022    1    1    2    0    0  0.17359468453E+03  0.30728823185E+03 -0.18588941477E+04  0.18982729723E+04  0.15294330000E+03 0.  0.
    8880022    1    1    2    0    0 -0.17359468453E+03 -0.30728823185E+03 -0.51667966367E+03  0.64413562221E+03  0.15294330000E+03 0.  0.
<mgrwt>
<rscale>  0 0.38464636E+03</rscale>
<asrwt>0</asrwt>
<pdfrwt beam="1">  1        2 0.37830628E+00 0.38464636E+03</pdfrwt>
<pdfrwt beam="2">  1       -2 0.12833447E-01 0.38464636E+03</pdfrwt>
<totfact> 0.18274178E+02</totfact>
</mgrwt>
</event>
<event>
 4    1  0.5410820E-008  0.6123190E+03  0.7818608E-02  0.9880173E-01
         -2   -1    0    0    0  501 -0.00000000000E+00  0.00000000000E+00  0.23845880460E+03  0.23845880461E+03  0.25500000000E-02 0.  1.
          2   -1    0    0  501    0  0.00000000000E+00 -0.00000000000E+00 -0.28114314567E+04  0.28114314567E+04  0.25500000000E-02 0. -1.
    8880022    1    1    2    0    0 -0.18675792082E+03 -0.56272944212E+03 -0.22988694131E+04  0.23790197934E+04  0.15294330000E+03 0.  0.
    8880022    1    1    2    0    0  0.18675792082E+03  0.56272944212E+03 -0.27410323898E+03  0.67087046787E+03  0.15294330000E+03 0.  0.
<mgrwt>
<rscale>  0 0.61231903E+03</rscale>
<asrwt>0</asrwt>
<pdfrwt beam="1">  1        2 0.43252789E+00 0.61231903E+03</pdfrwt>
<pdfrwt beam="2">  1       -2 0.36685972E-01 0.61231903E+03</pdfrwt>
<totfact> 0.17226353E+01</totfact>
</mgrwt>
</event>
<event>
 4    1  0.5410820E-008  0.8478633E+03  0.7818608E-02  0.9493209E-01
          2   -1    0    0  501    0  0.00000000000E+00  0.00000000000E+00  0.19425720503E+04  0.19425720503E+04  0.25500000000E-02 0. -1.
         -2   -1    0    0    0  501 -0.00000000000E+00 -0.00000000000E+00 -0.96911366842E+03  0.96911366842E+03  0.25500000000E-02 0.  1.
    8880022    1    1    2    0    0  0.65945835131E+03  0.51048529641E+03 -0.65788535774E+03  0.10731660412E+04  0.15294330000E+03 0.  0.
    8880022    1    1    2    0    0 -0.65945835131E+03 -0.51048529641E+03  0.16313437396E+04  0.18385196775E+04  0.15294330000E+03 0.  0.
<mgrwt>
<rscale>  0 0.84786332E+03</rscale>
<asrwt>0</asrwt>
<pdfrwt beam="1">  1        2 0.29885723E+00 0.84786332E+03</pdfrwt>
<pdfrwt beam="2">  1       -2 0.14909441E+00 0.84786332E+03</pdfrwt>
<totfact> 0.22318226E+00</totfact>
</mgrwt>
</event>
<event>
 4    1  0.5410820E-008  0.7343220E+03  0.7818608E-02  0.9660273E-01
         -2   -1    0    0    0  501 -0.00000000000E+00  0.00000000000E+00  0.26575345923E+03  0.26575345924E+03  0.25500000000E-02 0.  1.
          2   -1    0    0  501    0  0.00000000000E+00 -0.00000000000E+00 -0.28089697067E+04  0.28089697067E+04  0.25500000000E-02 0. -1.
    8880022    1    1    2    0    0 -0.56751686525E+03  0.44018372499E+03 -0.20816839302E+04  0.22074049792E+04  0.15294330000E+03 0.  0.
    8880022    1    1    2    0    0  0.56751686525E+03 -0.44018372499E+03 -0.46153231727E+03  0.86731818671E+03  0.15294330000E+03 0.  0.
<mgrwt>
<rscale>  0 0.73432197E+03</rscale>
<asrwt>0</asrwt>
<pdfrwt beam="1">  1        2 0.43214916E+00 0.73432197E+03</pdfrwt>
<pdfrwt beam="2">  1       -2 0.40885150E-01 0.73432197E+03</pdfrwt>
<totfact> 0.13697614E+01</totfact>
</mgrwt>
</event>
<event>
 4    1  0.5410820E-008  0.1298230E+04  0.7818608E-02  0.9030970E-01
         -2   -1    0    0    0  501 -0.00000000000E+00  0.00000000000E+00  0.12198336706E+04  0.12198336706E+04  0.25500000000E-02 0.  1.
          2   -1    0    0  501    0  0.00000000000E+00 -0.00000000000E+00 -0.18436286448E+04  0.18436286448E+04  0.25500000000E-02 0. -1.
    8880022    1    1    2    0    0  0.39461118694E+03 -0.12273103594E+04 -0.10786410833E+04  0.16878586868E+04  0.15294330000E+03 0.  0.
    8880022    1    1    2    0    0 -0.39461118694E+03  0.12273103594E+04  0.45484610901E+03  0.13756036286E+04  0.15294330000E+03 0.  0.
<mgrwt>
<rscale>  0 0.12982297E+04</rscale>
<asrwt>0</asrwt>
<pdfrwt beam="1">  1        2 0.28363518E+00 0.12982297E+04</pdfrwt>
<pdfrwt beam="2">  1       -2 0.18766672E+00 0.12982297E+04</pdfrwt>
<totfact> 0.12591672E+00</totfact>
</mgrwt>
</event>
<event>
 4    1  0.5410820E-008  0.5877013E+03  0.7818608E-02  0.9931256E-01
         -2   -1    0    0    0  501 -0.00000000000E+00  0.00000000000E+00  0.13065391446E+04  0.13065391446E+04  0.25500000000E-02 0.  1.
          2   -1    0    0  501    0  0.00000000000E+00 -0.00000000000E+00 -0.16450705836E+04  0.16450705836E+04  0.25500000000E-02 0. -1.
    8880022    1    1    2    0    0 -0.52407565729E+03 -0.21759102062E+03  0.11827709299E+04  0.13207345958E+04  0.15294330000E+03 0.  0.
    8880022    1    1    2    0    0  0.52407565729E+03  0.21759102062E+03 -0.15213023689E+04  0.16308751324E+04  0.15294330000E+03 0.  0.
<mgrwt>
<rscale>  0 0.58770128E+03</rscale>
<asrwt>0</asrwt>
<pdfrwt beam="1">  1        2 0.25308778E+00 0.58770128E+03</pdfrwt>
<pdfrwt beam="2">  1       -2 0.20100602E+00 0.58770128E+03</pdfrwt>
<totfact> 0.14776233E+00</totfact>
</mgrwt>
</event>
<event>
 4    1  0.5410820E-008  0.4100964E+03  0.7818608E-02  0.1040339E+00
          2   -1    0    0  501    0  0.00000000000E+00  0.00000000000E+00  0.61612989721E+03  0.61612989721E+03  0.25500000000E-02 0. -1.
         -2   -1    0    0    0  501 -0.00000000000E+00 -0.00000000000E+00 -0.78415200422E+03  0.78415200423E+03  0.25500000000E-02 0.  1.
    8880022    1    1    2    0    0  0.37840294002E+03  0.39982467035E+02 -0.64930876422E+03  0.76797194414E+03  0.15294330000E+03 0.  0.
    8880022    1    1    2    0    0 -0.37840294002E+03 -0.39982467035E+02  0.48128665720E+03  0.63230995730E+03  0.15294330000E+03 0. -1.
<mgrwt>
<rscale>  0 0.41009637E+03</rscale>
<asrwt>0</asrwt>
<pdfrwt beam="1">  1        2 0.94789215E-01 0.41009637E+03</pdfrwt>
<pdfrwt beam="2">  1       -2 0.12063877E+00 0.41009637E+03</pdfrwt>
<totfact> 0.26494272E+01</totfact>
</mgrwt>
</event>
<event>
 4    1  0.5410820E-008  0.4640450E+03  0.7818608E-02  0.1023615E+00
          2   -1    0    0  501    0  0.00000000000E+00  0.00000000000E+00  0.89931028317E+03  0.89931028317E+03  0.25500000000E-02 0. -1.
         -2   -1    0    0    0  501 -0.00000000000E+00 -0.00000000000E+00 -0.31769226672E+03  0.31769226673E+03  0.25500000000E-02 0.  1.
    8880022    1    1    2    0    0  0.25147729998E+03  0.35875516980E+03  0.59279398114E+03  0.75282299471E+03  0.15294330000E+03 0.  0.
    8880022    1    1    2    0    0 -0.25147729998E+03 -0.35875516980E+03 -0.11175964691E+02  0.46417955520E+03  0.15294330000E+03 0.  0.
<mgrwt>
<rscale>  0 0.46404499E+03</rscale>
<asrwt>0</asrwt>
<pdfrwt beam="1">  1        2 0.13835543E+00 0.46404499E+03</pdfrwt>
<pdfrwt beam="2">  1       -2 0.48875734E-01 0.46404499E+03</pdfrwt>
<totfact> 0.12059896E+02</totfact>
</mgrwt>
</event>
<event>
 4    1  0.5410820E-008  0.3266235E+03  0.7818608E-02  0.1072641E+00
          2   -1    0    0  501    0  0.00000000000E+00  0.00000000000E+00  0.22240765881E+04  0.22240765881E+04  0.25500000000E-02 0. -1.
         -2   -1    0    0    0  501 -0.00000000000E+00 -0.00000000000E+00 -0.61568062043E+02  0.61568062095E+02  0.25500000000E-02 0.  1.
    8880022    1    1    2    0    0 -0.12784357890E+02 -0.28831899532E+03  0.54412020687E+03  0.63462566558E+03  0.15294330000E+03 0.  0.
    8880022    1    1    2    0    0  0.12784357890E+02  0.28831899532E+03  0.16183883191E+04  0.16510189846E+04  0.15294330000E+03 0.  0.
<mgrwt>
<rscale>  0 0.32662354E+03</rscale>
<asrwt>0</asrwt>
<pdfrwt beam="1">  1        2 0.34216563E+00 0.32662354E+03</pdfrwt>
<pdfrwt beam="2">  1       -2 0.94720096E-02 0.32662354E+03</pdfrwt>
<totfact> 0.40549753E+02</totfact>
</mgrwt>
</event>
<event>
 4    1  0.5410820E-008  0.6551170E+03  0.7818608E-02  0.9797225E-01
         -2   -1    0    0    0  501 -0.00000000000E+00  0.00000000000E+00  0.26506685798E+03  0.26506685799E+03  0.25500000000E-02 0.  1.
          2   -1    0    0  501    0  0.00000000000E+00 -0.00000000000E+00 -0.25404043091E+04  0.25404043091E+04  0.25500000000E-02 0. -1.
    8880022    1    1    2    0    0 -0.80492811966E+02  0.63190782217E+03 -0.19823996510E+04  0.20878425750E+04  0.15294330000E+03 0.  0.
    8880022    1    1    2    0    0  0.80492811966E+02 -0.63190782217E+03 -0.29293780013E+03  0.71762859215E+03  0.15294330000E+03 0.  0.
<mgrwt>
<rscale>  0 0.65511697E+03</rscale>
<asrwt>0</asrwt>
<pdfrwt beam="1">  1        2 0.39083142E+00 0.65511697E+03</pdfrwt>
<pdfrwt beam="2">  1       -2 0.40779518E-01 0.65511697E+03</pdfrwt>
<totfact> 0.19969177E+01</totfact>
</mgrwt>
</event>
<event>
 4    1  0.5410820E-008  0.3151382E+03  0.7818608E-02  0.1077909E+00
          2   -1    0    0  501    0  0.00000000000E+00  0.00000000000E+00  0.19343512591E+04  0.19343512591E+04  0.25500000000E-02 0. -1.
         -2   -1    0    0    0  501 -0.00000000000E+00 -0.00000000000E+00 -0.55362603298E+03  0.55362603298E+03  0.25500000000E-02 0.  1.
    8880022    1    1    2    0    0 -0.20752654073E+02 -0.27475397879E+03 -0.49454137511E+03  0.58641559173E+03  0.15294330000E+03 0.  0.
    8880022    1    1    2    0    0  0.20752654073E+02  0.27475397879E+03  0.18752666012E+04  0.19015617003E+04  0.15294330000E+03 0.  0.
<mgrwt>
<rscale>  0 0.31513818E+03</rscale>
<asrwt>0</asrwt>
<pdfrwt beam="1">  1        2 0.29759250E+00 0.31513818E+03</pdfrwt>
<pdfrwt beam="2">  1       -2 0.85173235E-01 0.31513818E+03</pdfrwt>
<totfact> 0.99656940E+00</totfact>
</mgrwt>
</event>
<event>
 4    1  0.5410820E-008  0.3631542E+03  0.7818608E-02  0.1057342E+00
         -2   -1    0    0    0  501 -0.00000000000E+00  0.00000000000E+00  0.19997088337E+03  0.19997088339E+03  0.25500000000E-02 0.  1.
          2   -1    0    0  501    0  0.00000000000E+00 -0.00000000000E+00 -0.17505140156E+04  0.17505140156E+04  0.25500000000E-02 0. -1.
    8880022    1    1    2    0    0  0.43653307370E+01  0.32934820866E+03 -0.53529654967E+01  0.36319362042E+03  0.15294330000E+03 0.  0.
    8880022    1    1    2    0    0 -0.43653307370E+01 -0.32934820866E+03 -0.15451901668E+04  0.15872912786E+04  0.15294330000E+03 0.  0.
<mgrwt>
<rscale>  0 0.36315417E+03</rscale>
<asrwt>0</asrwt>
<pdfrwt beam="1">  1        2 0.26930984E+00 0.36315417E+03</pdfrwt>
<pdfrwt beam="2">  1       -2 0.30764752E-01 0.36315417E+03</pdfrwt>
<totfact> 0.97041394E+01</totfact>
</mgrwt>
</event>
<event>
 4    1  0.5410820E-008  0.5530354E+03  0.7818608E-02  0.1000794E+00
          2   -1    0    0  501    0  0.00000000000E+00  0.00000000000E+00  0.23835068591E+04  0.23835068591E+04  0.25500000000E-02 0. -1.
         -2   -1    0    0    0  501 -0.00000000000E+00 -0.00000000000E+00 -0.16614232953E+03  0.16614232955E+03  0.25500000000E-02 0.  1.
    8880022    1    1    2    0    0 -0.52800899651E+02 -0.52883694793E+03  0.17169472826E+04  0.18038170852E+04  0.15294330000E+03 0.  0.
    8880022    1    1    2    0    0  0.52800899651E+02  0.52883694793E+03  0.50041724696E+03  0.74583210347E+03  0.15294330000E+03 0.  0.
<mgrwt>
<rscale>  0 0.55303536E+03</rscale>
<asrwt>0</asrwt>
<pdfrwt beam="1">  1        2 0.36669338E+00 0.55303536E+03</pdfrwt>
<pdfrwt beam="2">  1       -2 0.25560357E-01 0.55303536E+03</pdfrwt>
<totfact> 0.59737584E+01</totfact>
</mgrwt>
</event>
<event>
 4    1  0.5410820E-008  0.1002065E+04  0.7818608E-02  0.9306283E-01
         -2   -1    0    0    0  501 -0.00000000000E+00  0.00000000000E+00  0.63394454479E+03  0.63394454479E+03  0.25500000000E-02 0.  1.
          2   -1    0    0  501    0  0.00000000000E+00 -0.00000000000E+00 -0.16924918772E+04  0.16924918772E+04  0.25500000000E-02 0. -1.
    8880022    1    1    2    0    0  0.15955886213E+03 -0.97738610235E+03 -0.23469353168E+03  0.10291818743E+04  0.15294330000E+03 0.  0.
    8880022    1    1    2    0    0 -0.15955886213E+03  0.97738610235E+03 -0.82385380076E+03  0.12972545477E+04  0.15294330000E+03 0.  0.
<mgrwt>
<rscale>  0 0.10020650E+04</rscale>
<asrwt>0</asrwt>
<pdfrwt beam="1">  1        2 0.26038336E+00 0.10020650E+04</pdfrwt>
<pdfrwt beam="2">  1       -2 0.97529931E-01 0.10020650E+04</pdfrwt>
<totfact> 0.86505675E+00</totfact>
</mgrwt>
</event>
<event>
 4    1  0.5410820E-008  0.4034668E+03  0.7818608E-02  0.1042586E+00
          2   -1    0    0  501    0  0.00000000000E+00  0.00000000000E+00  0.16710398727E+04  0.16710398727E+04  0.25500000000E-02 0. -1.
         -2   -1    0    0    0  501 -0.00000000000E+00 -0.00000000000E+00 -0.13158211786E+03  0.13158211789E+03  0.25500000000E-02 0.  1.
    8880022    1    1    2    0    0  0.27311230060E+03 -0.25456523723E+03  0.31045023445E+03  0.50908230162E+03  0.15294330000E+03 0.  1.
    8880022    1    1    2    0    0 -0.27311230060E+03  0.25456523723E+03  0.12290075204E+04  0.12935396890E+04  0.15294330000E+03 0.  0.
<mgrwt>
<rscale>  0 0.40346678E+03</rscale>
<asrwt>0</asrwt>
<pdfrwt beam="1">  1        2 0.25708308E+00 0.40346678E+03</pdfrwt>
<pdfrwt beam="2">  1       -2 0.20243401E-01 0.40346678E+03</pdfrwt>
<totfact> 0.22424064E+02</totfact>
</mgrwt>
</event>
<event>
 4    1  0.5410820E-008  0.2825338E+03  0.7818608E-02  0.1094313E+00
          2   -1    0    0  501    0  0.00000000000E+00  0.00000000000E+00  0.34322519401E+03  0.34322519402E+03  0.25500000000E-02 0. -1.
         -2   -1    0    0    0  501 -0.00000000000E+00 -0.00000000000E+00 -0.55668584245E+03  0.55668584246E+03  0.25500000000E-02 0.  1.
    8880022    1    1    2    0    0 -0.14273914165E+03 -0.18989267075E+03  0.23659969404E+03  0.36851697003E+03  0.15294330000E+03 0.  0.
    8880022    1    1    2    0    0  0.14273914165E+03  0.18989267075E+03 -0.45006034248E+03  0.53139406645E+03  0.15294330000E+03 0.  0.
<mgrwt>
<rscale>  0 0.28253379E+03</rscale>
<asrwt>0</asrwt>
<pdfrwt beam="1">  1        2 0.52803876E-01 0.28253379E+03</pdfrwt>
<pdfrwt beam="2">  1       -2 0.85643976E-01 0.28253379E+03</pdfrwt>
<totfact> 0.11640715E+02</totfact>
</mgrwt>
</event>
<event>
 4    1  0.5410820E-008  0.5881031E+03  0.7818608E-02  0.9930400E-01
         -2   -1    0    0    0  501 -0.00000000000E+00  0.00000000000E+00  0.10539973202E+04  0.10539973202E+04  0.25500000000E-02 0.  1.
          2   -1    0    0  501    0  0.00000000000E+00 -0.00000000000E+00 -0.40409016429E+03  0.40409016429E+03  0.25500000000E-02 0. -1.
    8880022    1    1    2    0    0 -0.56481758549E+03  0.58776611035E+02  0.88997968014E+01  0.58817042962E+03  0.15294330000E+03 0. -1.
    8880022    1    1    2    0    0  0.56481758549E+03 -0.58776611035E+02  0.64100735907E+03  0.86991705483E+03  0.15294330000E+03 0.  0.
<mgrwt>
<rscale>  0 0.58810309E+03</rscale>
<asrwt>0</asrwt>
<pdfrwt beam="1">  1        2 0.62167718E-01 0.58810309E+03</pdfrwt>
<pdfrwt beam="2">  1       -2 0.16215343E+00 0.58810309E+03</pdfrwt>
<totfact> 0.19657261E+01</totfact>
</mgrwt>
</event>
<event>
 4    1  0.5410820E-008  0.1229191E+04  0.7818608E-02  0.9087682E-01
         -2   -1    0    0    0  501 -0.00000000000E+00  0.00000000000E+00  0.22629849953E+04  0.22629849953E+04  0.25500000000E-02 0.  1.
          2   -1    0    0  501    0  0.00000000000E+00 -0.00000000000E+00 -0.95905754468E+03  0.95905754468E+03  0.25500000000E-02 0. -1.
    8880022    1    1    2    0    0  0.11669506822E+04 -0.35460702002E+03  0.15399771662E+04  0.19703911690E+04  0.15294330000E+03 0.  0.
    8880022    1    1    2    0    0 -0.11669506822E+04  0.35460702002E+03 -0.23604971561E+03  0.12516513710E+04  0.15294330000E+03 0.  0.
<mgrwt>
<rscale>  0 0.12291915E+04</rscale>
<asrwt>0</asrwt>
<pdfrwt beam="1">  1        2 0.14754732E+00 0.12291915E+04</pdfrwt>
<pdfrwt beam="2">  1       -2 0.34815154E+00 0.12291915E+04</pdfrwt>
<totfact> 0.41915034E-01</totfact>
</mgrwt>
</event>
<event>
 4    1  0.5410820E-008  0.4471395E+03  0.7818608E-02  0.1028579E+00
         -2   -1    0    0    0  501 -0.00000000000E+00  0.00000000000E+00  0.17156839707E+03  0.17156839709E+03  0.25500000000E-02 0.  1.
          2   -1    0    0  501    0  0.00000000000E+00 -0.00000000000E+00 -0.17709801845E+04  0.17709801845E+04  0.25500000000E-02 0. -1.
    8880022    1    1    2    0    0 -0.18328889653E+03 -0.37808367654E+03 -0.23170882170E+03  0.50360968728E+03  0.15294330000E+03 0.  1.
    8880022    1    1    2    0    0  0.18328889653E+03  0.37808367654E+03 -0.13677029657E+04  0.14389388943E+04  0.15294330000E+03 0.  0.
<mgrwt>
<rscale>  0 0.44713951E+03</rscale>
<asrwt>0</asrwt>
<pdfrwt beam="1">  1        2 0.27245848E+00 0.44713951E+03</pdfrwt>
<pdfrwt beam="2">  1       -2 0.26395139E-01 0.44713951E+03</pdfrwt>
<totfact> 0.12320338E+02</totfact>
</mgrwt>
</event>
<event>
 4    1  0.5410820E-008  0.4633382E+03  0.7818608E-02  0.1023817E+00
         -2   -1    0    0    0  501 -0.00000000000E+00  0.00000000000E+00  0.60350042737E+03  0.60350042737E+03  0.25500000000E-02 0.  1.
          2   -1    0    0  501    0  0.00000000000E+00 -0.00000000000E+00 -0.41925778460E+03  0.41925778461E+03  0.25500000000E-02 0. -1.
    8880022    1    1    2    0    0  0.36012182370E+03 -0.24819940180E+03 -0.10694109368E+03  0.47551942283E+03  0.15294330000E+03 0. -1.
    8880022    1    1    2    0    0 -0.36012182370E+03  0.24819940180E+03  0.29118373644E+03  0.54723878914E+03  0.15294330000E+03 0.  0.
<mgrwt>
<rscale>  0 0.46333824E+03</rscale>
<asrwt>0</asrwt>
<pdfrwt beam="1">  1        2 0.64501197E-01 0.46333824E+03</pdfrwt>
<pdfrwt beam="2">  1       -2 0.92846220E-01 0.46333824E+03</pdfrwt>
<totfact> 0.76420399E+01</totfact>
</mgrwt>
</event>
<event>
 4    1  0.5410820E-008  0.5351764E+03  0.7818608E-02  0.1004984E+00
         -2   -1    0    0    0  501 -0.00000000000E+00  0.00000000000E+00  0.35370783836E+03  0.35370783837E+03  0.25500000000E-02 0.  1.
          2   -1    0    0  501    0  0.00000000000E+00 -0.00000000000E+00 -0.15206235333E+04  0.15206235333E+04  0.25500000000E-02 0. -1.
    8880022    1    1    2    0    0  0.32117692676E+03 -0.39983437757E+03  0.57312883506E+02  0.53823653481E+03  0.15294330000E+03 0.  1.
    8880022    1    1    2    0    0 -0.32117692676E+03  0.39983437757E+03 -0.12242285784E+04  0.13360948368E+04  0.15294330000E+03 0.  0.
<mgrwt>
<rscale>  0 0.53517642E+03</rscale>
<asrwt>0</asrwt>
<pdfrwt beam="1">  1        2 0.23394208E+00 0.53517642E+03</pdfrwt>
<pdfrwt beam="2">  1       -2 0.54416591E-01 0.53517642E+03</pdfrwt>
<totfact> 0.41312037E+01</totfact>
</mgrwt>
</event>
<event>
 4    1  0.5410820E-008  0.8823677E+03  0.7818608E-02  0.9447895E-01
          2   -1    0    0  501    0  0.00000000000E+00  0.00000000000E+00  0.12498257209E+04  0.12498257209E+04  0.25500000000E-02 0. -1.
         -2   -1    0    0    0  501 -0.00000000000E+00 -0.00000000000E+00 -0.88809022190E+03  0.88809022190E+03  0.25500000000E-02 0.  1.
    8880022    1    1    2    0    0  0.80206902800E+03  0.33446426993E+03 -0.40321443615E+03  0.97013123240E+03  0.15294330000E+03 0.  0.
    8880022    1    1    2    0    0 -0.80206902800E+03 -0.33446426993E+03  0.76494993513E+03  0.11677847104E+04  0.15294330000E+03 0.  0.
<mgrwt>
<rscale>  0 0.88236768E+03</rscale>
<asrwt>0</asrwt>
<pdfrwt beam="1">  1        2 0.19228088E+00 0.88236768E+03</pdfrwt>
<pdfrwt beam="2">  1       -2 0.13662927E+00 0.88236768E+03</pdfrwt>
<totfact> 0.67990914E+00</totfact>
</mgrwt>
</event>
<event>
 4    1  0.5410820E-008  0.7855739E+03  0.7818608E-02  0.9581136E-01
         -2   -1    0    0    0  501 -0.00000000000E+00  0.00000000000E+00  0.11119326469E+04  0.11119326469E+04  0.25500000000E-02 0.  1.
          2   -1    0    0  501    0  0.00000000000E+00 -0.00000000000E+00 -0.36776410449E+04  0.36776410449E+04  0.25500000000E-02 0. -1.
    8880022    1    1    2    0    0  0.51104015342E+03  0.57669107076E+03  0.92384429157E+03  0.12126889781E+04  0.15294330000E+03 0.  0.
    8880022    1    1    2    0    0 -0.51104015342E+03 -0.57669107076E+03 -0.34895526895E+04  0.35768847137E+04  0.15294330000E+03 0.  0.
<mgrwt>
<rscale>  0 0.78557386E+03</rscale>
<asrwt>0</asrwt>
<pdfrwt beam="1">  1        2 0.56579092E+00 0.78557386E+03</pdfrwt>
<pdfrwt beam="2">  1       -2 0.17106656E+00 0.78557386E+03</pdfrwt>
<totfact> 0.13849090E-01</totfact>
</mgrwt>
</event>
<event>
 4    1  0.5410820E-008  0.5439285E+03  0.7818608E-02  0.1002909E+00
          2   -1    0    0  501    0  0.00000000000E+00  0.00000000000E+00  0.16744116180E+04  0.16744116180E+04  0.25500000000E-02 0. -1.
         -2   -1    0    0    0  501 -0.00000000000E+00 -0.00000000000E+00 -0.58713320902E+03  0.58713320902E+03  0.25500000000E-02 0.  1.
    8880022    1    1    2    0    0  0.42151145195E+03 -0.30788740521E+03  0.14890735824E+04  0.15853070192E+04  0.15294330000E+03 0.  0.
    8880022    1    1    2    0    0 -0.42151145195E+03  0.30788740521E+03 -0.40179517336E+03  0.67623780785E+03  0.15294330000E+03 0.  0.
<mgrwt>
<rscale>  0 0.54392850E+03</rscale>
<asrwt>0</asrwt>
<pdfrwt beam="1">  1        2 0.25760179E+00 0.54392850E+03</pdfrwt>
<pdfrwt beam="2">  1       -2 0.90328187E-01 0.54392850E+03</pdfrwt>
<totfact> 0.11294006E+01</totfact>
</mgrwt>
</event>
<event>
 4    1  0.5410820E-008  0.7688384E+03  0.7818608E-02  0.9606251E-01
          2   -1    0    0  501    0  0.00000000000E+00  0.00000000000E+00  0.30577116067E+04  0.30577116067E+04  0.25500000000E-02 0. -1.
         -2   -1    0    0    0  501 -0.00000000000E+00 -0.00000000000E+00 -0.24685111125E+03  0.24685111126E+03  0.25500000000E-02 0.  1.
    8880022    1    1    2    0    0  0.74143984470E+03  0.13411863981E+03  0.63598929693E+03  0.99779501486E+03  0.15294330000E+03 0.  0.
    8880022    1    1    2    0    0 -0.74143984470E+03 -0.13411863981E+03  0.21748711985E+04  0.23067677031E+04  0.15294330000E+03 0.  0.
<mgrwt>
<rscale>  0 0.76883841E+03</rscale>
<asrwt>0</asrwt>
<pdfrwt beam="1">  1        2 0.47041721E+00 0.76883841E+03</pdfrwt>
<pdfrwt beam="2">  1       -2 0.37977091E-01 0.76883841E+03</pdfrwt>
<totfact> 0.11116542E+01</totfact>
</mgrwt>
</event>
<event>
 4    1  0.5410820E-008  0.2597840E+03  0.7818608E-02  0.1107273E+00
         -2   -1    0    0    0  501 -0.00000000000E+00  0.00000000000E+00  0.98008854483E+03  0.98008854483E+03  0.25500000000E-02 0.  1.
          2   -1    0    0  501    0  0.00000000000E+00 -0.00000000000E+00 -0.24176966305E+03  0.24176966307E+03  0.25500000000E-02 0. -1.
    8880022    1    1    2    0    0  0.93293344885E+02 -0.18812870941E+03  0.88581494748E+03  0.92312287032E+03  0.15294330000E+03 0.  0.
    8880022    1    1    2    0    0 -0.93293344885E+02  0.18812870941E+03 -0.14749606571E+03  0.29873533758E+03  0.15294330000E+03 0.  0.
<mgrwt>
<rscale>  0 0.25978397E+03</rscale>
<asrwt>0</asrwt>
<pdfrwt beam="1">  1        2 0.37195333E-01 0.25978397E+03</pdfrwt>
<pdfrwt beam="2">  1       -2 0.15078285E+00 0.25978397E+03</pdfrwt>
<totfact> 0.43715510E+01</totfact>
</mgrwt>
</event>
<event>
 4    1  0.6190908E-008  0.5112545E+03  0.7818608E-02  0.1010882E+00
          2   -1    0    0  501    0  0.00000000000E+00  0.00000000000E+00  0.22739403532E+04  0.22739403532E+04  0.25500000000E-02 0. -1.
         -2   -1    0    0    0  501 -0.00000000000E+00 -0.00000000000E+00 -0.13634205098E+04  0.13634205098E+04  0.25500000000E-02 0.  1.
    8880022    1    1    2    0    0 -0.39904129517E+03  0.28063411833E+03 -0.12850687036E+04  0.13830338715E+04  0.15294330000E+03 0.  0.
    8880022    1    1    2    0    0  0.39904129517E+03 -0.28063411833E+03  0.21955885471E+04  0.22543269915E+04  0.15294330000E+03 0. -1.
<mgrwt>
<rscale>  0 0.51125445E+03</rscale>
<asrwt>0</asrwt>
<pdfrwt beam="1">  1        2 0.34983697E+00 0.51125445E+03</pdfrwt>
<pdfrwt beam="2">  1       -2 0.20975700E+00 0.51125445E+03</pdfrwt>
<totfact> 0.60629355E-01</totfact>
</mgrwt>
</event>
<event>
 4    1  0.5410820E-008  0.8740399E+03  0.7818608E-02  0.9458628E-01
          2   -1    0    0  501    0  0.00000000000E+00  0.00000000000E+00  0.14135873893E+04  0.14135873893E+04  0.25500000000E-02 0. -1.
         -2   -1    0    0    0  501 -0.00000000000E+00 -0.00000000000E+00 -0.12423079421E+04  0.12423079421E+04  0.25500000000E-02 0.  1.
    8880022    1    1    2    0    0 -0.39559484295E+03 -0.76423743466E+03 -0.91251291804E+03  0.12635765172E+04  0.15294330000E+03 0.  0.
    8880022    1    1    2    0    0  0.39559484295E+03  0.76423743466E+03  0.10837923652E+04  0.13923188142E+04  0.15294330000E+03 0.  0.
<mgrwt>
<rscale>  0 0.87403992E+03</rscale>
<asrwt>0</asrwt>
<pdfrwt beam="1">  1        2 0.21747498E+00 0.87403992E+03</pdfrwt>
<pdfrwt beam="2">  1       -2 0.19112430E+00 0.87403992E+03</pdfrwt>
<totfact> 0.21859228E+00</totfact>
</mgrwt>
</event>
<event>
 4    1  0.5410820E-008  0.8055797E+03  0.7818608E-02  0.9551976E-01
          2   -1    0    0  501    0  0.00000000000E+00  0.00000000000E+00  0.24514222947E+04  0.24514222947E+04  0.25500000000E-02 0. -1.
         -2   -1    0    0    0  501 -0.00000000000E+00 -0.00000000000E+00 -0.44728769327E+03  0.44728769328E+03  0.25500000000E-02 0.  1.
    8880022    1    1    2    0    0 -0.56085735807E+03 -0.55767909171E+03  0.19280107943E+04  0.20895416294E+04  0.15294330000E+03 0.  0.
    8880022    1    1    2    0    0  0.56085735807E+03  0.55767909171E+03  0.76123807179E+02  0.80916835854E+03  0.15294330000E+03 0.  0.
<mgrwt>
<rscale>  0 0.80557967E+03</rscale>
<asrwt>0</asrwt>
<pdfrwt beam="1">  1        2 0.37714190E+00 0.80557967E+03</pdfrwt>
<pdfrwt beam="2">  1       -2 0.68813490E-01 0.80557967E+03</pdfrwt>
<totfact> 0.74407072E+00</totfact>
</mgrwt>
</event>
<event>
 4    1  0.5410820E-008  0.9305670E+03  0.7818608E-02  0.9388158E-01
          2   -1    0    0  501    0  0.00000000000E+00  0.00000000000E+00  0.12496080760E+04  0.12496080760E+04  0.25500000000E-02 0. -1.
         -2   -1    0    0    0  501 -0.00000000000E+00 -0.00000000000E+00 -0.14536530071E+04  0.14536530071E+04  0.25500000000E-02 0.  1.
    8880022    1    1    2    0    0 -0.26651636401E+03 -0.87836912535E+03 -0.10797689693E+04  0.14254318548E+04  0.15294330000E+03 0.  0.
    8880022    1    1    2    0    0  0.26651636401E+03  0.87836912535E+03  0.87572403823E+03  0.12778292283E+04  0.15294330000E+03 0.  0.
<mgrwt>
<rscale>  0 0.93056700E+03</rscale>
<asrwt>0</asrwt>
<pdfrwt beam="1">  1        2 0.19224740E+00 0.93056700E+03</pdfrwt>
<pdfrwt beam="2">  1       -2 0.22363892E+00 0.93056700E+03</pdfrwt>
<totfact> 0.16646556E+00</totfact>
</mgrwt>
</event>
<event>
 4    1  0.5410820E-008  0.6474899E+03  0.7818608E-02  0.9811501E-01
          2   -1    0    0  501    0  0.00000000000E+00  0.00000000000E+00  0.84500756812E+03  0.84500756813E+03  0.25500000000E-02 0. -1.
         -2   -1    0    0    0  501 -0.00000000000E+00 -0.00000000000E+00 -0.50674758035E+03  0.50674758036E+03  0.25500000000E-02 0.  1.
    8880022    1    1    2    0    0 -0.62915668980E+03 -0.36550020179E+01  0.26691083532E+03  0.70034601904E+03  0.15294330000E+03 0.  0.
    8880022    1    1    2    0    0  0.62915668980E+03  0.36550020179E+01  0.71349152452E+02  0.65140912945E+03  0.15294330000E+03 0.  0.
<mgrwt>
<rscale>  0 0.64748989E+03</rscale>
<asrwt>0</asrwt>
<pdfrwt beam="1">  1        2 0.13000116E+00 0.64748989E+03</pdfrwt>
<pdfrwt beam="2">  1       -2 0.77961166E-01 0.64748989E+03</pdfrwt>
<totfact> 0.47956511E+01</totfact>
</mgrwt>
</event>
<event>
 4    1  0.5410820E-008  0.2836980E+03  0.7818608E-02  0.1093686E+00
         -2   -1    0    0    0  501 -0.00000000000E+00  0.00000000000E+00  0.21426887731E+03  0.21426887733E+03  0.25500000000E-02 0.  1.
          2   -1    0    0  501    0  0.00000000000E+00 -0.00000000000E+00 -0.26782367175E+04  0.26782367175E+04  0.25500000000E-02 0. -1.
    8880022    1    1    2    0    0 -0.22918650453E+03  0.67575332450E+02  0.10902041486E+03  0.30392430519E+03  0.15294330000E+03 0.  0.
    8880022    1    1    2    0    0  0.22918650453E+03 -0.67575332450E+02 -0.25729882550E+04  0.25885812896E+04  0.15294330000E+03 0. -1.
<mgrwt>
<rscale>  0 0.28369796E+03</rscale>
<asrwt>0</asrwt>
<pdfrwt beam="1">  1        2 0.41203639E+00 0.28369796E+03</pdfrwt>
<pdfrwt beam="2">  1       -2 0.32964445E-01 0.28369796E+03</pdfrwt>
<totfact> 0.27618829E+01</totfact>
</mgrwt>
</event>
<event>
 4    1  0.5410820E-008  0.2487113E+03  0.7818608E-02  0.1114122E+00
         -2   -1    0    0    0  501 -0.00000000000E+00  0.00000000000E+00  0.32703867462E+03  0.32703867463E+03  0.25500000000E-02 0.  1.
          2   -1    0    0  501    0  0.00000000000E+00 -0.00000000000E+00 -0.35489441085E+03  0.35489441086E+03  0.25500000000E-02 0. -1.
    8880022    1    1    2    0    0  0.13546773054E+03 -0.14182440810E+03 -0.24694605498E+03  0.35048491528E+03  0.15294330000E+03 0.  0.
    8880022    1    1    2    0    0 -0.13546773054E+03  0.14182440810E+03  0.21909031875E+03  0.33144817021E+03  0.15294330000E+03 0.  1.
<mgrwt>
<rscale>  0 0.24871132E+03</rscale>
<asrwt>0</asrwt>
<pdfrwt beam="1">  1        2 0.54599140E-01 0.24871132E+03</pdfrwt>
<pdfrwt beam="2">  1       -2 0.50313642E-01 0.24871132E+03</pdfrwt>
<totfact> 0.34768041E+02</totfact>
</mgrwt>
</event>
<event>
 4    1  0.5410820E-008  0.2167941E+03  0.7818608E-02  0.1136296E+00
          2   -1    0    0  501    0  0.00000000000E+00  0.00000000000E+00  0.95087441159E+03  0.95087441159E+03  0.25500000000E-02 0. -1.
         -2   -1    0    0    0  501 -0.00000000000E+00 -0.00000000000E+00 -0.39938515363E+03  0.39938515363E+03  0.25500000000E-02 0.  1.
    8880022    1    1    2    0    0 -0.15364111111E+03  0.15551665752E+01 -0.35622884403E+03  0.41701157286E+03  0.15294330000E+03 0.  0.
    8880022    1    1    2    0    0  0.15364111111E+03 -0.15551665752E+01  0.90771810199E+03  0.93324799237E+03  0.15294330000E+03 0.  0.
<mgrwt>
<rscale>  0 0.21679406E+03</rscale>
<asrwt>0</asrwt>
<pdfrwt beam="1">  1        2 0.14628837E+00 0.21679406E+03</pdfrwt>
<pdfrwt beam="2">  1       -2 0.61443870E-01 0.21679406E+03</pdfrwt>
<totfact> 0.72830713E+01</totfact>
</mgrwt>
</event>
<event>
 4    1  0.5410820E-008  0.5231747E+03  0.7818608E-02  0.1007901E+00
          2   -1    0    0  501    0  0.00000000000E+00  0.00000000000E+00  0.90769910367E+03  0.90769910367E+03  0.25500000000E-02 0. -1.
         -2   -1    0    0    0  501 -0.00000000000E+00 -0.00000000000E+00 -0.71793441716E+03  0.71793441717E+03  0.25500000000E-02 0.  1.
    8880022    1    1    2    0    0 -0.48882229829E+03 -0.10664388673E+03 -0.52413139275E+03  0.74055757897E+03  0.15294330000E+03 0.  0.
    8880022    1    1    2    0    0  0.48882229829E+03  0.10664388673E+03  0.71389607925E+03  0.88507594187E+03  0.15294330000E+03 0.  0.
<mgrwt>
<rscale>  0 0.52317474E+03</rscale>
<asrwt>0</asrwt>
<pdfrwt beam="1">  1        2 0.13964601E+00 0.52317474E+03</pdfrwt>
<pdfrwt beam="2">  1       -2 0.11045145E+00 0.52317474E+03</pdfrwt>
<totfact> 0.19678210E+01</totfact>
</mgrwt>
</event>
<event>
 4    1  0.8720519E-008  0.1017842E+04  0.7818608E-02  0.9289189E-01
          2   -1    0    0  501    0  0.00000000000E+00  0.00000000000E+00  0.26279318760E+04  0.26279318760E+04  0.25500000000E-02 0. -1.
         -2   -1    0    0    0  501 -0.00000000000E+00 -0.00000000000E+00 -0.18276148309E+04  0.18276148309E+04  0.25500000000E-02 0.  1.
    8880022    1    1    2    0    0 -0.90784014342E+03  0.43409410856E+03  0.23730829296E+04  0.25821552364E+04  0.15294330000E+03 0.  0.
    8880022    1    1    2    0    0  0.90784014342E+03 -0.43409410856E+03 -0.15727658845E+04  0.18733914704E+04  0.15294330000E+03 0.  0.
<mgrwt>
<rscale>  0 0.10178424E+04</rscale>
<asrwt>0</asrwt>
<pdfrwt beam="1">  1        2 0.40429721E+00 0.10178424E+04</pdfrwt>
<pdfrwt beam="2">  1       -2 0.28117151E+00 0.10178424E+04</pdfrwt>
<totfact> 0.12314823E-01</totfact>
</mgrwt>
</event>
<event>
 4    1  0.5410820E-008  0.9010307E+03  0.7818608E-02  0.9424294E-01
         -2   -1    0    0    0  501 -0.00000000000E+00  0.00000000000E+00  0.36714396702E+03  0.36714396703E+03  0.25500000000E-02 0.  1.
          2   -1    0    0  501    0  0.00000000000E+00 -0.00000000000E+00 -0.24811145202E+04  0.24811145202E+04  0.25500000000E-02 0. -1.
    8880022    1    1    2    0    0  0.87669017317E+03  0.14099295440E+03 -0.58733058271E+03  0.10755526669E+04  0.15294330000E+03 0.  0.
    8880022    1    1    2    0    0 -0.87669017317E+03 -0.14099295440E+03 -0.15266399704E+04  0.17727058203E+04  0.15294330000E+03 0.  0.
<mgrwt>
<rscale>  0 0.90103070E+03</rscale>
<asrwt>0</asrwt>
<pdfrwt beam="1">  1        2 0.38170992E+00 0.90103070E+03</pdfrwt>
<pdfrwt beam="2">  1       -2 0.56483689E-01 0.90103070E+03</pdfrwt>
<totfact> 0.10755914E+01</totfact>
</mgrwt>
</event>
<event>
 4    1  0.5410820E-008  0.3010184E+03  0.7818608E-02  0.1084733E+00
          2   -1    0    0  501    0  0.00000000000E+00  0.00000000000E+00  0.99575708333E+03  0.99575708333E+03  0.25500000000E-02 0. -1.
         -2   -1    0    0    0  501 -0.00000000000E+00 -0.00000000000E+00 -0.40102405632E+03  0.40102405633E+03  0.25500000000E-02 0.  1.
    8880022    1    1    2    0    0  0.19900963224E+03  0.16617947290E+03 -0.31669532771E+03  0.43693023991E+03  0.15294330000E+03 0.  0.
    8880022    1    1    2    0    0 -0.19900963224E+03 -0.16617947290E+03  0.91142835472E+03  0.95985089975E+03  0.15294330000E+03 0.  0.
<mgrwt>
<rscale>  0 0.30101844E+03</rscale>
<asrwt>0</asrwt>
<pdfrwt beam="1">  1        2 0.15319340E+00 0.30101844E+03</pdfrwt>
<pdfrwt beam="2">  1       -2 0.61696010E-01 0.30101844E+03</pdfrwt>
<totfact> 0.66419229E+01</totfact>
</mgrwt>
</event>
<event>
 4    1  0.5410820E-008  0.7909744E+03  0.7818608E-02  0.9573174E-01
         -2   -1    0    0    0  501 -0.00000000000E+00  0.00000000000E+00  0.73459038256E+03  0.73459038257E+03  0.25500000000E-02 0.  1.
          2   -1    0    0  501    0  0.00000000000E+00 -0.00000000000E+00 -0.11794345324E+04  0.11794345324E+04  0.25500000000E-02 0. -1.
    8880022    1    1    2    0    0  0.74589386460E+03  0.21422232645E+03 -0.72691013859E+03  0.10742620095E+04  0.15294330000E+03 0.  0.
    8880022    1    1    2    0    0 -0.74589386460E+03 -0.21422232645E+03  0.28206598876E+03  0.83976290549E+03  0.15294330000E+03 0.  0.
<mgrwt>
<rscale>  0 0.79097441E+03</rscale>
<asrwt>0</asrwt>
<pdfrwt beam="1">  1        2 0.18145147E+00 0.79097441E+03</pdfrwt>
<pdfrwt beam="2">  1       -2 0.11301390E+00 0.79097441E+03</pdfrwt>
<totfact> 0.12162150E+01</totfact>
</mgrwt>
</event>
<event>
 4    1  0.5410820E-008  0.1269224E+04  0.7818608E-02  0.9054334E-01
         -2   -1    0    0    0  501 -0.00000000000E+00  0.00000000000E+00  0.57302707253E+03  0.57302707254E+03  0.25500000000E-02 0.  1.
          2   -1    0    0  501    0  0.00000000000E+00 -0.00000000000E+00 -0.46882312763E+04  0.46882312763E+04  0.25500000000E-02 0. -1.
    8880022    1    1    2    0    0 -0.12206831579E+04  0.31220077364E+03 -0.37221024072E+04  0.39325532008E+04  0.15294330000E+03 0.  0.
    8880022    1    1    2    0    0  0.12206831579E+04 -0.31220077364E+03 -0.39310179665E+03  0.13287051481E+04  0.15294330000E+03 0.  0.
<mgrwt>
<rscale>  0 0.12692235E+04</rscale>
<asrwt>0</asrwt>
<pdfrwt beam="1">  1        2 0.72126632E+00 0.12692235E+04</pdfrwt>
<pdfrwt beam="2">  1       -2 0.88158014E-01 0.12692235E+04</pdfrwt>
<totfact> 0.89819787E-02</totfact>
</mgrwt>
</event>
<event>
 4    1  0.5410820E-008  0.4261800E+03  0.7818608E-02  0.1035074E+00
         -2   -1    0    0    0  501 -0.00000000000E+00  0.00000000000E+00  0.15998820559E+03  0.15998820561E+03  0.25500000000E-02 0.  1.
          2   -1    0    0  501    0  0.00000000000E+00 -0.00000000000E+00 -0.14820709003E+04  0.14820709003E+04  0.25500000000E-02 0. -1.
    8880022    1    1    2    0    0 -0.28067582583E+02 -0.39679966238E+03 -0.10582017637E+04  0.11407981359E+04  0.15294330000E+03 0.  0.
    8880022    1    1    2    0    0  0.28067582583E+02  0.39679966238E+03 -0.26388093105E+03  0.50126097000E+03  0.15294330000E+03 0.  0.
<mgrwt>
<rscale>  0 0.42618003E+03</rscale>
<asrwt>0</asrwt>
<pdfrwt beam="1">  1        2 0.22801090E+00 0.42618003E+03</pdfrwt>
<pdfrwt beam="2">  1       -2 0.24613571E-01 0.42618003E+03</pdfrwt>
<totfact> 0.20063791E+02</totfact>
</mgrwt>
</event>
<event>
 4    1  0.5410820E-008  0.4026371E+03  0.7818608E-02  0.1042870E+00
         -2   -1    0    0    0  501 -0.00000000000E+00  0.00000000000E+00  0.24333703925E+03  0.24333703926E+03  0.25500000000E-02 0.  1.
          2   -1    0    0  501    0  0.00000000000E+00 -0.00000000000E+00 -0.93898684062E+03  0.93898684062E+03  0.25500000000E-02 0. -1.
    8880022    1    1    2    0    0 -0.14925525538E+03 -0.34124460413E+03 -0.66644292048E+03  0.77862881425E+03  0.15294330000E+03 0.  0.
    8880022    1    1    2    0    0  0.14925525538E+03  0.34124460413E+03 -0.29206880889E+02  0.40369506563E+03  0.15294330000E+03 0.  0.
<mgrwt>
<rscale>  0 0.40263714E+03</rscale>
<asrwt>0</asrwt>
<pdfrwt beam="1">  1        2 0.14445951E+00 0.40263714E+03</pdfrwt>
<pdfrwt beam="2">  1       -2 0.37436468E-01 0.40263714E+03</pdfrwt>
<totfact> 0.19274461E+02</totfact>
</mgrwt>
</event>
<event>
 4    1  0.5410820E-008  0.1304409E+04  0.7818608E-02  0.9026076E-01
          2   -1    0    0  501    0  0.00000000000E+00  0.00000000000E+00  0.24515954185E+04  0.24515954185E+04  0.25500000000E-02 0. -1.
         -2   -1    0    0    0  501 -0.00000000000E+00 -0.00000000000E+00 -0.93543329871E+03  0.93543329872E+03  0.25500000000E-02 0.  1.
    8880022    1    1    2    0    0 -0.12930877437E+04  0.77558060512E+02 -0.10222566621E+03  0.13084085392E+04  0.15294330000E+03 0.  0.
    8880022    1    1    2    0    0  0.12930877437E+04 -0.77558060512E+02  0.16183877860E+04  0.20786201780E+04  0.15294330000E+03 0.  0.
<mgrwt>
<rscale>  0 0.13044090E+04</rscale>
<asrwt>0</asrwt>
<pdfrwt beam="1">  1        2 0.37716853E+00 0.13044090E+04</pdfrwt>
<pdfrwt beam="2">  1       -2 0.14391281E+00 0.13044090E+04</pdfrwt>
<totfact> 0.11981345E+00</totfact>
</mgrwt>
</event>
<event>
 4    1  0.5410820E-008  0.8158909E+03  0.7818608E-02  0.9537296E-01
         -2   -1    0    0    0  501 -0.00000000000E+00  0.00000000000E+00  0.32730705045E+03  0.32730705046E+03  0.25500000000E-02 0.  1.
          2   -1    0    0  501    0  0.00000000000E+00 -0.00000000000E+00 -0.23932776655E+04  0.23932776655E+04  0.25500000000E-02 0. -1.
    8880022    1    1    2    0    0 -0.24022026345E+02  0.80106758008E+03 -0.15601787635E+04  0.17606350425E+04  0.15294330000E+03 0.  0.
    8880022    1    1    2    0    0  0.24022026345E+02 -0.80106758008E+03 -0.50579185157E+03  0.95994967354E+03  0.15294330000E+03 0.  0.
<mgrwt>
<rscale>  0 0.81589091E+03</rscale>
<asrwt>0</asrwt>
<pdfrwt beam="1">  1        2 0.36819655E+00 0.81589091E+03</pdfrwt>
<pdfrwt beam="2">  1       -2 0.50354932E-01 0.81589091E+03</pdfrwt>
<totfact> 0.15470326E+01</totfact>
</mgrwt>
</event>
<event>
 4    1  0.5410820E-008  0.7542681E+03  0.7818608E-02  0.9628678E-01
         -2   -1    0    0    0  501 -0.00000000000E+00  0.00000000000E+00  0.32394775867E+03  0.32394775868E+03  0.25500000000E-02 0.  1.
          2   -1    0    0  501    0  0.00000000000E+00 -0.00000000000E+00 -0.24472320874E+04  0.24472320874E+04  0.25500000000E-02 0. -1.
    8880022    1    1    2    0    0  0.63318072910E+03 -0.38027730171E+03 -0.17979222948E+04  0.19497294410E+04  0.15294330000E+03 0.  0.
    8880022    1    1    2    0    0 -0.63318072910E+03  0.38027730171E+03 -0.32536203394E+03  0.82145040511E+03  0.15294330000E+03 0.  0.
<mgrwt>
<rscale>  0 0.75426807E+03</rscale>
<asrwt>0</asrwt>
<pdfrwt beam="1">  1        2 0.37649723E+00 0.75426807E+03</pdfrwt>
<pdfrwt beam="2">  1       -2 0.49838118E-01 0.75426807E+03</pdfrwt>
<totfact> 0.14867553E+01</totfact>
</mgrwt>
</event>
<event>
 4    1  0.5410820E-008  0.5198243E+03  0.7818608E-02  0.1008730E+00
          2   -1    0    0  501    0  0.00000000000E+00  0.00000000000E+00  0.60170313331E+03  0.60170313332E+03  0.25500000000E-02 0. -1.
         -2   -1    0    0    0  501 -0.00000000000E+00 -0.00000000000E+00 -0.12265915087E+04  0.12265915087E+04  0.25500000000E-02 0.  1.
    8880022    1    1    2    0    0  0.47021132510E+03 -0.16039621282E+03 -0.10402534257E+04  0.11629034689E+04  0.15294330000E+03 0.  0.
    8880022    1    1    2    0    0 -0.47021132510E+03  0.16039621282E+03  0.41536505025E+03  0.66539117316E+03  0.15294330000E+03 0.  0.
<mgrwt>
<rscale>  0 0.51982429E+03</rscale>
<asrwt>0</asrwt>
<pdfrwt beam="1">  1        2 0.92569713E-01 0.51982429E+03</pdfrwt>
<pdfrwt beam="2">  1       -2 0.18870639E+00 0.51982429E+03</pdfrwt>
<totfact> 0.82153119E+00</totfact>
</mgrwt>
</event>
<event>
 4    1  0.5410820E-008  0.3775680E+03  0.7818608E-02  0.1051836E+00
          2   -1    0    0  501    0  0.00000000000E+00  0.00000000000E+00  0.38307060829E+04  0.38307060829E+04  0.25500000000E-02 0. -1.
         -2   -1    0    0    0  501 -0.00000000000E+00 -0.00000000000E+00 -0.13420268050E+03  0.13420268053E+03  0.25500000000E-02 0.  1.
    8880022    1    1    2    0    0 -0.23182355802E+03  0.25578065518E+03  0.35335708729E+04  0.35536855055E+04  0.15294330000E+03 0.  0.
    8880022    1    1    2    0    0  0.23182355802E+03 -0.25578065518E+03  0.16293252949E+03  0.41122325785E+03  0.15294330000E+03 0.  0.
<mgrwt>
<rscale>  0 0.37756795E+03</rscale>
<asrwt>0</asrwt>
<pdfrwt beam="1">  1        2 0.58933937E+00 0.37756795E+03</pdfrwt>
<pdfrwt beam="2">  1       -2 0.20646567E-01 0.37756795E+03</pdfrwt>
<totfact> 0.11392358E+01</totfact>
</mgrwt>
</event>
<event>
 4    1  0.5410820E-008  0.9054622E+03  0.7818608E-02  0.9418779E-01
         -2   -1    0    0    0  501 -0.00000000000E+00  0.00000000000E+00  0.97245024336E+03  0.97245024336E+03  0.25500000000E-02 0.  1.
          2   -1    0    0  501    0  0.00000000000E+00 -0.00000000000E+00 -0.22346617697E+04  0.22346617697E+04  0.25500000000E-02 0. -1.
    8880022    1    1    2    0    0 -0.76802907113E+03 -0.45453441070E+03 -0.18965156894E+04  0.21015788345E+04  0.15294330000E+03 0.  0.
    8880022    1    1    2    0    0  0.76802907113E+03  0.45453441070E+03  0.63430416304E+03  0.11055331785E+04  0.15294330000E+03 0.  0.
<mgrwt>
<rscale>  0 0.90546222E+03</rscale>
<asrwt>0</asrwt>
<pdfrwt beam="1">  1        2 0.34379412E+00 0.90546222E+03</pdfrwt>
<pdfrwt beam="2">  1       -2 0.14960773E+00 0.90546222E+03</pdfrwt>
<totfact> 0.15129086E+00</totfact>
</mgrwt>
</event>
<event>
 4    1  0.5410820E-008  0.2639153E+03  0.7818608E-02  0.1104813E+00
          2   -1    0    0  501    0  0.00000000000E+00  0.00000000000E+00  0.62430399683E+03  0.62430399683E+03  0.25500000000E-02 0. -1.
         -2   -1    0    0    0  501 -0.00000000000E+00 -0.00000000000E+00 -0.13410309467E+03  0.13410309469E+03  0.25500000000E-02 0.  1.
    8880022    1    1    2    0    0  0.72111306330E+02 -0.20263163786E+03  0.40055350614E+03  0.47968154588E+03  0.15294330000E+03 0.  0.
    8880022    1    1    2    0    0 -0.72111306330E+02  0.20263163786E+03  0.89647396018E+02  0.27872554564E+03  0.15294330000E+03 0.  0.
<mgrwt>
<rscale>  0 0.26391528E+03</rscale>
<asrwt>0</asrwt>
<pdfrwt beam="1">  1        2 0.96046768E-01 0.26391528E+03</pdfrwt>
<pdfrwt beam="2">  1       -2 0.20631245E-01 0.26391528E+03</pdfrwt>
<totfact> 0.96108880E+02</totfact>
</mgrwt>
</event>
<event>
 4    1  0.5410820E-008  0.5126012E+03  0.7818608E-02  0.1010541E+00
         -2   -1    0    0    0  501 -0.00000000000E+00  0.00000000000E+00  0.18158437280E+04  0.18158437280E+04  0.25500000000E-02 0.  1.
          2   -1    0    0  501    0  0.00000000000E+00 -0.00000000000E+00 -0.30555228378E+03  0.30555228379E+03  0.25500000000E-02 0. -1.
    8880022    1    1    2    0    0  0.47184402018E+03  0.12935054470E+03  0.15247316063E+04  0.16085914544E+04  0.15294330000E+03 0.  0.
    8880022    1    1    2    0    0 -0.47184402018E+03 -0.12935054470E+03 -0.14440162108E+02  0.51280455740E+03  0.15294330000E+03 0.  0.
<mgrwt>
<rscale>  0 0.51260121E+03</rscale>
<asrwt>0</asrwt>
<pdfrwt beam="1">  1        2 0.47008044E-01 0.51260121E+03</pdfrwt>
<pdfrwt beam="2">  1       -2 0.27936057E+00 0.51260121E+03</pdfrwt>
<totfact> 0.49044392E+00</totfact>
</mgrwt>
</event>
<event>
 4    1  0.5410820E-008  0.3357164E+03  0.7818608E-02  0.1068635E+00
         -2   -1    0    0    0  501 -0.00000000000E+00  0.00000000000E+00  0.11294782558E+03  0.11294782561E+03  0.25500000000E-02 0.  1.
          2   -1    0    0  501    0  0.00000000000E+00 -0.00000000000E+00 -0.18399968669E+04  0.18399968669E+04  0.25500000000E-02 0. -1.
    8880022    1    1    2    0    0  0.25405541129E+03 -0.15738381789E+03 -0.15241331188E+04  0.15606688421E+04  0.15294330000E+03 0.  0.
    8880022    1    1    2    0    0 -0.25405541129E+03  0.15738381789E+03 -0.20291592255E+03  0.39227585036E+03  0.15294330000E+03 0.  0.
<mgrwt>
<rscale>  0 0.33571636E+03</rscale>
<asrwt>0</asrwt>
<pdfrwt beam="1">  1        2 0.28307642E+00 0.33571636E+03</pdfrwt>
<pdfrwt beam="2">  1       -2 0.17376590E-01 0.33571636E+03</pdfrwt>
<totfact> 0.23936834E+02</totfact>
</mgrwt>
</event>
<event>
 4    1  0.5410820E-008  0.1061229E+04  0.7818608E-02  0.9243827E-01
          2   -1    0    0  501    0  0.00000000000E+00  0.00000000000E+00  0.24300550056E+04  0.24300550056E+04  0.25500000000E-02 0. -1.
         -2   -1    0    0    0  501 -0.00000000000E+00 -0.00000000000E+00 -0.90890555429E+03  0.90890555429E+03  0.25500000000E-02 0.  1.
    8880022    1    1    2    0    0  0.22733985369E+03 -0.10252473054E+04  0.19293324221E+04  0.22019379406E+04  0.15294330000E+03 0.  0.
    8880022    1    1    2    0    0 -0.22733985369E+03  0.10252473054E+04 -0.40818297074E+03  0.11370226193E+04  0.15294330000E+03 0.  0.
<mgrwt>
<rscale>  0 0.10612291E+04</rscale>
<asrwt>0</asrwt>
<pdfrwt beam="1">  1        2 0.37385462E+00 0.10612291E+04</pdfrwt>
<pdfrwt beam="2">  1       -2 0.13983162E+00 0.10612291E+04</pdfrwt>
<totfact> 0.13707803E+00</totfact>
</mgrwt>
</event>
<event>
 4    1  0.5410820E-008  0.4909443E+03  0.7818608E-02  0.1016170E+00
          2   -1    0    0  501    0  0.00000000000E+00  0.00000000000E+00  0.12174967509E+04  0.12174967509E+04  0.25500000000E-02 0. -1.
         -2   -1    0    0    0  501 -0.00000000000E+00 -0.00000000000E+00 -0.55926358094E+03  0.55926358095E+03  0.25500000000E-02 0.  1.
    8880022    1    1    2    0    0  0.46539431197E+03 -0.32292421207E+02 -0.38492162707E+03  0.62385172764E+03  0.15294330000E+03 0.  0.
    8880022    1    1    2    0    0 -0.46539431197E+03  0.32292421207E+02  0.10431547970E+04  0.11529086042E+04  0.15294330000E+03 0.  0.
<mgrwt>
<rscale>  0 0.49094431E+03</rscale>
<asrwt>0</asrwt>
<pdfrwt beam="1">  1        2 0.18730719E+00 0.49094431E+03</pdfrwt>
<pdfrwt beam="2">  1       -2 0.86040550E-01 0.49094431E+03</pdfrwt>
<totfact> 0.22879845E+01</totfact>
</mgrwt>
</event>
<event>
 4    1  0.5410820E-008  0.4054433E+03  0.7818608E-02  0.1041911E+00
          2   -1    0    0  501    0  0.00000000000E+00  0.00000000000E+00  0.11262362686E+04  0.11262362686E+04  0.25500000000E-02 0. -1.
         -2   -1    0    0    0  501 -0.00000000000E+00 -0.00000000000E+00 -0.45824584627E+03  0.45824584628E+03  0.25500000000E-02 0.  1.
    8880022    1    1    2    0    0 -0.67709284363E+02 -0.36933467303E+03 -0.32001561071E+03  0.51652133741E+03  0.15294330000E+03 0.  1.
    8880022    1    1    2    0    0  0.67709284363E+02  0.36933467303E+03  0.98800603306E+03  0.10679607775E+04  0.15294330000E+03 0.  0.
<mgrwt>
<rscale>  0 0.40544334E+03</rscale>
<asrwt>0</asrwt>
<pdfrwt beam="1">  1        2 0.17326712E+00 0.40544334E+03</pdfrwt>
<pdfrwt beam="2">  1       -2 0.70499361E-01 0.40544334E+03</pdfrwt>
<totfact> 0.40863488E+01</totfact>
</mgrwt>
</event>
<event>
 4    1  0.5410820E-008  0.5901865E+03  0.7818608E-02  0.9925978E-01
          2   -1    0    0  501    0  0.00000000000E+00  0.00000000000E+00  0.45602251391E+03  0.45602251392E+03  0.25500000000E-02 0. -1.
         -2   -1    0    0    0  501 -0.00000000000E+00 -0.00000000000E+00 -0.87096613367E+03  0.87096613368E+03  0.25500000000E-02 0.  1.
    8880022    1    1    2    0    0  0.29544800906E+03  0.48748220665E+03  0.25241136230E+02  0.59072599048E+03  0.15294330000E+03 0.  0.
    8880022    1    1    2    0    0 -0.29544800906E+03 -0.48748220665E+03 -0.44018475599E+03  0.73626265712E+03  0.15294330000E+03 0.  0.
<mgrwt>
<rscale>  0 0.59018648E+03</rscale>
<asrwt>0</asrwt>
<pdfrwt beam="1">  1        2 0.70157310E-01 0.59018648E+03</pdfrwt>
<pdfrwt beam="2">  1       -2 0.13399479E+00 0.59018648E+03</pdfrwt>
<totfact> 0.28274517E+01</totfact>
</mgrwt>
</event>
<event>
 4    1  0.5410820E-008  0.5724718E+03  0.7818608E-02  0.9964224E-01
          2   -1    0    0  501    0  0.00000000000E+00  0.00000000000E+00  0.14537422016E+04  0.14537422016E+04  0.25500000000E-02 0. -1.
         -2   -1    0    0    0  501 -0.00000000000E+00 -0.00000000000E+00 -0.34738642719E+03  0.34738642720E+03  0.25500000000E-02 0.  1.
    8880022    1    1    2    0    0  0.48076964209E+03 -0.27054169611E+03  0.10867612998E+04  0.12283216329E+04  0.15294330000E+03 0.  0.
    8880022    1    1    2    0    0 -0.48076964209E+03  0.27054169611E+03  0.19594474593E+02  0.57280699589E+03  0.15294330000E+03 0.  1.
<mgrwt>
<rscale>  0 0.57247176E+03</rscale>
<asrwt>0</asrwt>
<pdfrwt beam="1">  1        2 0.22365264E+00 0.57247176E+03</pdfrwt>
<pdfrwt beam="2">  1       -2 0.53444066E-01 0.57247176E+03</pdfrwt>
<totfact> 0.46423886E+01</totfact>
</mgrwt>
</event>
<event>
 4    1  0.5410820E-008  0.4130443E+03  0.7818608E-02  0.1039354E+00
         -2   -1    0    0    0  501 -0.00000000000E+00  0.00000000000E+00  0.23427243380E+03  0.23427243381E+03  0.25500000000E-02 0.  1.
          2   -1    0    0  501    0  0.00000000000E+00 -0.00000000000E+00 -0.18452932463E+04  0.18452932463E+04  0.25500000000E-02 0. -1.
    8880022    1    1    2    0    0  0.18458263369E+02 -0.38324049065E+03  0.34879759145E+01  0.41305907586E+03  0.15294330000E+03 0.  0.
    8880022    1    1    2    0    0 -0.18458263369E+02  0.38324049065E+03 -0.16145087884E+04  0.16665066043E+04  0.15294330000E+03 0.  0.
<mgrwt>
<rscale>  0 0.41304435E+03</rscale>
<asrwt>0</asrwt>
<pdfrwt beam="1">  1        2 0.28389126E+00 0.41304435E+03</pdfrwt>
<pdfrwt beam="2">  1       -2 0.36041914E-01 0.41304435E+03</pdfrwt>
<totfact> 0.63614461E+01</totfact>
</mgrwt>
</event>
<event>
 4    1  0.5410820E-008  0.2964029E+03  0.7818608E-02  0.1087053E+00
          2   -1    0    0  501    0  0.00000000000E+00  0.00000000000E+00  0.27530131941E+04  0.27530131941E+04  0.25500000000E-02 0. -1.
         -2   -1    0    0    0  501 -0.00000000000E+00 -0.00000000000E+00 -0.14188681526E+03  0.14188681528E+03  0.25500000000E-02 0.  1.
    8880022    1    1    2    0    0  0.21101245995E+03 -0.14119761736E+03  0.31242312156E+02  0.29804489676E+03  0.15294330000E+03 0.  1.
    8880022    1    1    2    0    0 -0.21101245995E+03  0.14119761736E+03  0.25798840667E+04  0.25968551126E+04  0.15294330000E+03 0.  0.
<mgrwt>
<rscale>  0 0.29640290E+03</rscale>
<asrwt>0</asrwt>
<pdfrwt beam="1">  1        2 0.42354048E+00 0.29640290E+03</pdfrwt>
<pdfrwt beam="2">  1       -2 0.21828741E-01 0.29640290E+03</pdfrwt>
<totfact> 0.52238549E+01</totfact>
</mgrwt>
</event>
<event>
 4    1  0.5410820E-008  0.1006217E+04  0.7818608E-02  0.9301752E-01
         -2   -1    0    0    0  501 -0.00000000000E+00  0.00000000000E+00  0.59988209092E+03  0.59988209093E+03  0.25500000000E-02 0.  1.
          2   -1    0    0  501    0  0.00000000000E+00 -0.00000000000E+00 -0.20031030380E+04  0.20031030380E+04  0.25500000000E-02 0. -1.
    8880022    1    1    2    0    0 -0.77174740516E+03 -0.62728544937E+03 -0.12179835530E+04  0.15798597029E+04  0.15294330000E+03 0.  0.
    8880022    1    1    2    0    0  0.77174740516E+03  0.62728544937E+03 -0.18523739414E+03  0.10231254261E+04  0.15294330000E+03 0.  0.
<mgrwt>
<rscale>  0 0.10062170E+04</rscale>
<asrwt>0</asrwt>
<pdfrwt beam="1">  1        2 0.30816969E+00 0.10062170E+04</pdfrwt>
<pdfrwt beam="2">  1       -2 0.92289553E-01 0.10062170E+04</pdfrwt>
<totfact> 0.66381194E+00</totfact>
</mgrwt>
</event>
<event>
 4    1  0.5410820E-008  0.7554526E+03  0.7818608E-02  0.9626835E-01
          2   -1    0    0  501    0  0.00000000000E+00  0.00000000000E+00  0.93584475874E+03  0.93584475874E+03  0.25500000000E-02 0. -1.
         -2   -1    0    0    0  501 -0.00000000000E+00 -0.00000000000E+00 -0.71188834073E+03  0.71188834073E+03  0.25500000000E-02 0.  1.
    8880022    1    1    2    0    0 -0.20605462827E+03  0.71053395998E+03 -0.19996072553E+03  0.78146846570E+03  0.15294330000E+03 0.  0.
    8880022    1    1    2    0    0  0.20605462827E+03 -0.71053395998E+03  0.42391714354E+03  0.86626463377E+03  0.15294330000E+03 0.  0.
<mgrwt>
<rscale>  0 0.75545263E+03</rscale>
<asrwt>0</asrwt>
<pdfrwt beam="1">  1        2 0.14397612E+00 0.75545263E+03</pdfrwt>
<pdfrwt beam="2">  1       -2 0.10952128E+00 0.75545263E+03</pdfrwt>
<totfact> 0.18703092E+01</totfact>
</mgrwt>
</event>
<event>
 4    1  0.5410820E-008  0.8988989E+03  0.7818608E-02  0.9426959E-01
         -2   -1    0    0    0  501 -0.00000000000E+00  0.00000000000E+00  0.39497653901E+03  0.39497653901E+03  0.25500000000E-02 0.  1.
          2   -1    0    0  501    0  0.00000000000E+00 -0.00000000000E+00 -0.26881662840E+04  0.26881662840E+04  0.25500000000E-02 0. -1.
    8880022    1    1    2    0    0 -0.86597875865E+03  0.18630178784E+03 -0.39298373798E+03  0.98104813231E+03  0.15294330000E+03 0.  0.
    8880022    1    1    2    0    0  0.86597875865E+03 -0.18630178784E+03 -0.19002060070E+04  0.21020946907E+04  0.15294330000E+03 0.  0.
<mgrwt>
<rscale>  0 0.89889889E+03</rscale>
<asrwt>0</asrwt>
<pdfrwt beam="1">  1        2 0.41356403E+00 0.89889889E+03</pdfrwt>
<pdfrwt beam="2">  1       -2 0.60765623E-01 0.89889889E+03</pdfrwt>
<totfact> 0.70079902E+00</totfact>
</mgrwt>
</event>
<event>
 4    1  0.5410820E-008  0.8419875E+03  0.7818608E-02  0.9501155E-01
          2   -1    0    0  501    0  0.00000000000E+00  0.00000000000E+00  0.28629237121E+04  0.28629237121E+04  0.25500000000E-02 0. -1.
         -2   -1    0    0    0  501 -0.00000000000E+00 -0.00000000000E+00 -0.60200640168E+03  0.60200640168E+03  0.25500000000E-02 0.  1.
    8880022    1    1    2    0    0 -0.65747559054E+03  0.50326640211E+03  0.24596789132E+04  0.25998006140E+04  0.15294330000E+03 0.  0.
    8880022    1    1    2    0    0  0.65747559054E+03 -0.50326640211E+03 -0.19876160275E+03  0.86512949978E+03  0.15294330000E+03 0.  0.
<mgrwt>
<rscale>  0 0.84198746E+03</rscale>
<asrwt>0</asrwt>
<pdfrwt beam="1">  1        2 0.44044980E+00 0.84198746E+03</pdfrwt>
<pdfrwt beam="2">  1       -2 0.92616369E-01 0.84198746E+03</pdfrwt>
<totfact> 0.21854233E+00</totfact>
</mgrwt>
</event>
<event>
 4    1  0.5410820E-008  0.5638618E+03  0.7818608E-02  0.9983354E-01
          2   -1    0    0  501    0  0.00000000000E+00  0.00000000000E+00  0.13764371103E+04  0.13764371103E+04  0.25500000000E-02 0. -1.
         -2   -1    0    0    0  501 -0.00000000000E+00 -0.00000000000E+00 -0.12613364305E+04  0.12613364305E+04  0.25500000000E-02 0.  1.
    8880022    1    1    2    0    0  0.24066134502E+03  0.48644686853E+03 -0.11344713416E+04  0.12668722575E+04  0.15294330000E+03 0.  0.
    8880022    1    1    2    0    0 -0.24066134502E+03 -0.48644686853E+03  0.12495720214E+04  0.13709012833E+04  0.15294330000E+03 0. -1.
<mgrwt>
<rscale>  0 0.56386177E+03</rscale>
<asrwt>0</asrwt>
<pdfrwt beam="1">  1        2 0.21175956E+00 0.56386177E+03</pdfrwt>
<pdfrwt beam="2">  1       -2 0.19405176E+00 0.56386177E+03</pdfrwt>
<totfact> 0.23201136E+00</totfact>
</mgrwt>
</event>
<event>
 4    1  0.5410820E-008  0.1886875E+03  0.7818608E-02  0.1159650E+00
         -2   -1    0    0    0  501 -0.00000000000E+00  0.00000000000E+00  0.67226669689E+02  0.67226669738E+02  0.25500000000E-02 0.  1.
          2   -1    0    0  501    0  0.00000000000E+00 -0.00000000000E+00 -0.10782736674E+04  0.10782736674E+04  0.25500000000E-02 0. -1.
    8880022    1    1    2    0    0 -0.99973321667E+02 -0.47081387913E+02 -0.96960183380E+02  0.21214205691E+03  0.15294330000E+03 0.  0.
    8880022    1    1    2    0    0  0.99973321667E+02  0.47081387913E+02 -0.91408681435E+03  0.93335828025E+03  0.15294330000E+03 0.  0.
<mgrwt>
<rscale>  0 0.18868751E+03</rscale>
<asrwt>0</asrwt>
<pdfrwt beam="1">  1        2 0.16588824E+00 0.18868751E+03</pdfrwt>
<pdfrwt beam="2">  1       -2 0.10342565E-01 0.18868751E+03</pdfrwt>
<totfact> 0.14808428E+03</totfact>
</mgrwt>
</event>
<event>
 4    1  0.5410820E-008  0.6769131E+03  0.7818608E-02  0.9757549E-01
          2   -1    0    0  501    0  0.00000000000E+00  0.00000000000E+00  0.23225633032E+04  0.23225633032E+04  0.25500000000E-02 0. -1.
         -2   -1    0    0    0  501 -0.00000000000E+00 -0.00000000000E+00 -0.47197167077E+03  0.47197167078E+03  0.25500000000E-02 0.  1.
    8880022    1    1    2    0    0  0.50556738190E+03  0.42334534851E+03 -0.14065920175E+03  0.69137278353E+03  0.15294330000E+03 0.  0.
    8880022    1    1    2    0    0 -0.50556738190E+03 -0.42334534851E+03  0.19912508342E+04  0.21031621905E+04  0.15294330000E+03 0.  0.
<mgrwt>
<rscale>  0 0.67691308E+03</rscale>
<asrwt>0</asrwt>
<pdfrwt beam="1">  1        2 0.35731744E+00 0.67691308E+03</pdfrwt>
<pdfrwt beam="2">  1       -2 0.72611025E-01 0.67691308E+03</pdfrwt>
<totfact> 0.79848419E+00</totfact>
</mgrwt>
</event>
<event>
 4    1  0.5410820E-008  0.1576958E+03  0.7818608E-02  0.1191323E+00
         -2   -1    0    0    0  501 -0.00000000000E+00  0.00000000000E+00  0.48019041978E+02  0.48019042045E+02  0.25500000000E-02 0.  1.
          2   -1    0    0  501    0  0.00000000000E+00 -0.00000000000E+00 -0.52911239183E+03  0.52911239184E+03  0.25500000000E-02 0. -1.
    8880022    1    1    2    0    0  0.37985646213E+02 -0.57797253566E+01 -0.19849717850E+03  0.25351350542E+03  0.15294330000E+03 0.  0.
    8880022    1    1    2    0    0 -0.37985646213E+02  0.57797253566E+01 -0.28259617135E+03  0.32361792846E+03  0.15294330000E+03 0.  0.
<mgrwt>
<rscale>  0 0.15769581E+03</rscale>
<asrwt>0</asrwt>
<pdfrwt beam="1">  1        2 0.81401902E-01 0.15769581E+03</pdfrwt>
<pdfrwt beam="2">  1       -2 0.73875453E-02 0.15769581E+03</pdfrwt>
<totfact> 0.60627449E+03</totfact>
</mgrwt>
</event>
<event>
 4    1  0.5410820E-008  0.6605608E+03  0.7818608E-02  0.9787162E-01
          2   -1    0    0  501    0  0.00000000000E+00  0.00000000000E+00  0.63229421173E+03  0.63229421173E+03  0.25500000000E-02 0. -1.
         -2   -1    0    0    0  501 -0.00000000000E+00 -0.00000000000E+00 -0.10458882814E+04  0.10458882814E+04  0.25500000000E-02 0.  1.
    8880022    1    1    2    0    0  0.61629449570E+03 -0.18201653358E+03 -0.69620138324E+03  0.95970669632E+03  0.15294330000E+03 0.  0.
    8880022    1    1    2    0    0 -0.61629449570E+03  0.18201653358E+03  0.28260731356E+03  0.71847579682E+03  0.15294330000E+03 0.  0.
<mgrwt>
<rscale>  0 0.66056080E+03</rscale>
<asrwt>0</asrwt>
<pdfrwt beam="1">  1        2 0.97276033E-01 0.66056080E+03</pdfrwt>
<pdfrwt beam="2">  1       -2 0.16090589E+00 0.66056080E+03</pdfrwt>
<totfact> 0.11836090E+01</totfact>
</mgrwt>
</event>
<event>
 4    1  0.5410820E-008  0.1264560E+04  0.7818608E-02  0.9058152E-01
          2   -1    0    0  501    0  0.00000000000E+00  0.00000000000E+00  0.17484927806E+04  0.17484927806E+04  0.25500000000E-02 0. -1.
         -2   -1    0    0    0  501 -0.00000000000E+00 -0.00000000000E+00 -0.11559371578E+04  0.11559371578E+04  0.25500000000E-02 0.  1.
    8880022    1    1    2    0    0  0.87191273695E+02 -0.12522449382E+04  0.95987851785E+03  0.15876013749E+04  0.15294330000E+03 0.  0.
    8880022    1    1    2    0    0 -0.87191273695E+02  0.12522449382E+04 -0.36732289503E+03  0.13168285635E+04  0.15294330000E+03 0.  0.
<mgrwt>
<rscale>  0 0.12645597E+04</rscale>
<asrwt>0</asrwt>
<pdfrwt beam="1">  1        2 0.26899889E+00 0.12645597E+04</pdfrwt>
<pdfrwt beam="2">  1       -2 0.17783649E+00 0.12645597E+04</pdfrwt>
<totfact> 0.16674708E+00</totfact>
</mgrwt>
</event>
<event>
 4    1  0.5410820E-008  0.4765464E+03  0.7818608E-02  0.1020089E+00
         -2   -1    0    0    0  501 -0.00000000000E+00  0.00000000000E+00  0.34162326487E+03  0.34162326488E+03  0.25500000000E-02 0.  1.
          2   -1    0    0  501    0  0.00000000000E+00 -0.00000000000E+00 -0.10181362444E+04  0.10181362444E+04  0.25500000000E-02 0. -1.
    8880022    1    1    2    0    0 -0.37256634212E+03 -0.25475302533E+03 -0.73880001498E+03  0.87915976838E+03  0.15294330000E+03 0.  0.
    8880022    1    1    2    0    0  0.37256634212E+03  0.25475302533E+03  0.62287035408E+02  0.48059974094E+03  0.15294330000E+03 0.  0.
<mgrwt>
<rscale>  0 0.47654636E+03</rscale>
<asrwt>0</asrwt>
<pdfrwt beam="1">  1        2 0.15663634E+00 0.47654636E+03</pdfrwt>
<pdfrwt beam="2">  1       -2 0.52557426E-01 0.47654636E+03</pdfrwt>
<totfact> 0.87216203E+01</totfact>
</mgrwt>
</event>
<event>
 4    1  0.5410820E-008  0.7812746E+03  0.7818608E-02  0.9587524E-01
          2   -1    0    0  501    0  0.00000000000E+00  0.00000000000E+00  0.63944603847E+03  0.63944603847E+03  0.25500000000E-02 0. -1.
         -2   -1    0    0    0  501 -0.00000000000E+00 -0.00000000000E+00 -0.17132209112E+04  0.17132209112E+04  0.25500000000E-02 0.  1.
    8880022    1    1    2    0    0 -0.75132585066E+03 -0.15002626590E+03 -0.13196813174E+04  0.15336064837E+04  0.15294330000E+03 0.  0.
    8880022    1    1    2    0    0  0.75132585066E+03  0.15002626590E+03  0.24590644470E+03  0.81906046595E+03  0.15294330000E+03 0.  0.
<mgrwt>
<rscale>  0 0.78127464E+03</rscale>
<asrwt>0</asrwt>
<pdfrwt beam="1">  1        2 0.98376314E-01 0.78127464E+03</pdfrwt>
<pdfrwt beam="2">  1       -2 0.26357245E+00 0.78127464E+03</pdfrwt>
<totfact> 0.25041029E+00</totfact>
</mgrwt>
</event>
<event>
 4    1  0.5410820E-008  0.3145981E+03  0.7818608E-02  0.1078163E+00
          2   -1    0    0  501    0  0.00000000000E+00  0.00000000000E+00  0.72662178197E+03  0.72662178197E+03  0.25500000000E-02 0. -1.
         -2   -1    0    0    0  501 -0.00000000000E+00 -0.00000000000E+00 -0.73451242786E+03  0.73451242786E+03  0.25500000000E-02 0.  1.
    8880022    1    1    2    0    0 -0.89104599040E+02 -0.26007819201E+03  0.65541304680E+03  0.72700633454E+03  0.15294330000E+03 0.  0.
    8880022    1    1    2    0    0  0.89104599040E+02  0.26007819201E+03 -0.66330369269E+03  0.73412787529E+03  0.15294330000E+03 0.  0.
<mgrwt>
<rscale>  0 0.31459807E+03</rscale>
<asrwt>0</asrwt>
<pdfrwt beam="1">  1        2 0.11178797E+00 0.31459807E+03</pdfrwt>
<pdfrwt beam="2">  1       -2 0.11300191E+00 0.31459807E+03</pdfrwt>
<totfact> 0.25850349E+01</totfact>
</mgrwt>
</event>
<event>
 4    1  0.5410820E-008  0.3839110E+03  0.7818608E-02  0.1049498E+00
         -2   -1    0    0    0  501 -0.00000000000E+00  0.00000000000E+00  0.23240532612E+03  0.23240532613E+03  0.25500000000E-02 0.  1.
          2   -1    0    0  501    0  0.00000000000E+00 -0.00000000000E+00 -0.24801378127E+04  0.24801378127E+04  0.25500000000E-02 0. -1.
    8880022    1    1    2    0    0 -0.34860398222E+03 -0.49712120011E+02  0.46223558682E+02  0.38668372307E+03  0.15294330000E+03 0.  0.
    8880022    1    1    2    0    0  0.34860398222E+03  0.49712120011E+02 -0.22939560453E+04  0.23258594158E+04  0.15294330000E+03 0.  0.
<mgrwt>
<rscale>  0 0.38391104E+03</rscale>
<asrwt>0</asrwt>
<pdfrwt beam="1">  1        2 0.38155964E+00 0.38391104E+03</pdfrwt>
<pdfrwt beam="2">  1       -2 0.35754667E-01 0.38391104E+03</pdfrwt>
<totfact> 0.29540104E+01</totfact>
</mgrwt>
</event>
<event>
 4    1  0.5410820E-008  0.1155732E+04  0.7818608E-02  0.9152511E-01
          2   -1    0    0  501    0  0.00000000000E+00  0.00000000000E+00  0.11729386366E+04  0.11729386366E+04  0.25500000000E-02 0. -1.
         -2   -1    0    0    0  501 -0.00000000000E+00 -0.00000000000E+00 -0.15290294984E+04  0.15290294984E+04  0.25500000000E-02 0.  1.
    8880022    1    1    2    0    0  0.46408647379E+03 -0.10473534299E+04 -0.86056387938E+03  0.14409327902E+04  0.15294330000E+03 0.  0.
    8880022    1    1    2    0    0 -0.46408647379E+03  0.10473534299E+04  0.50447301763E+03  0.12610353448E+04  0.15294330000E+03 0.  0.
<mgrwt>
<rscale>  0 0.11557323E+04</rscale>
<asrwt>0</asrwt>
<pdfrwt beam="1">  1        2 0.18045210E+00 0.11557323E+04</pdfrwt>
<pdfrwt beam="2">  1       -2 0.23523531E+00 0.11557323E+04</pdfrwt>
<totfact> 0.15230797E+00</totfact>
</mgrwt>
</event>
<event>
 4    1  0.7002164E-008  0.6064268E+03  0.7818608E-02  0.9892161E-01
         -2   -1    0    0    0  501 -0.00000000000E+00  0.00000000000E+00  0.14473799186E+04  0.14473799186E+04  0.25500000000E-02 0.  1.
          2   -1    0    0  501    0  0.00000000000E+00 -0.00000000000E+00 -0.19627724604E+04  0.19627724604E+04  0.25500000000E-02 0. -1.
    8880022    1    1    2    0    0 -0.56063191197E+03  0.17336001651E+03  0.13331949399E+04  0.14646372373E+04  0.15294330000E+03 0.  0.
    8880022    1    1    2    0    0  0.56063191197E+03 -0.17336001651E+03 -0.18485874817E+04  0.19455151417E+04  0.15294330000E+03 0. -1.
<mgrwt>
<rscale>  0 0.60642682E+03</rscale>
<asrwt>0</asrwt>
<pdfrwt beam="1">  1        2 0.30196499E+00 0.60642682E+03</pdfrwt>
<pdfrwt beam="2">  1       -2 0.22267383E+00 0.60642682E+03</pdfrwt>
<totfact> 0.72190979E-01</totfact>
</mgrwt>
</event>
<event>
 4    1  0.5410820E-008  0.5587926E+03  0.7818608E-02  0.9994790E-01
          2   -1    0    0  501    0  0.00000000000E+00  0.00000000000E+00  0.30497412729E+04  0.30497412729E+04  0.25500000000E-02 0. -1.
         -2   -1    0    0    0  501 -0.00000000000E+00 -0.00000000000E+00 -0.11618419294E+03  0.11618419296E+03  0.25500000000E-02 0.  1.
    8880022    1    1    2    0    0  0.51828880220E+03  0.14224712419E+03  0.20123060879E+04  0.20884503755E+04  0.15294330000E+03 0.  0.
    8880022    1    1    2    0    0 -0.51828880220E+03 -0.14224712419E+03  0.92125099215E+03  0.10774750904E+04  0.15294330000E+03 0.  0.
<mgrwt>
<rscale>  0 0.55879261E+03</rscale>
<asrwt>0</asrwt>
<pdfrwt beam="1">  1        2 0.46919097E+00 0.55879261E+03</pdfrwt>
<pdfrwt beam="2">  1       -2 0.17874491E-01 0.55879261E+03</pdfrwt>
<totfact> 0.45956033E+01</totfact>
</mgrwt>
</event>
<event>
 4    1  0.5410820E-008  0.5867383E+03  0.7818608E-02  0.9933308E-01
          2   -1    0    0  501    0  0.00000000000E+00  0.00000000000E+00  0.98841069744E+03  0.98841069744E+03  0.25500000000E-02 0. -1.
         -2   -1    0    0    0  501 -0.00000000000E+00 -0.00000000000E+00 -0.44664588812E+03  0.44664588813E+03  0.25500000000E-02 0.  1.
    8880022    1    1    2    0    0 -0.10034310396E+03 -0.55749566367E+03  0.60757931082E+03  0.84463863603E+03  0.15294330000E+03 0.  0.
    8880022    1    1    2    0    0  0.10034310396E+03  0.55749566367E+03 -0.65814501510E+02  0.59041794954E+03  0.15294330000E+03 0.  0.
<mgrwt>
<rscale>  0 0.58673828E+03</rscale>
<asrwt>0</asrwt>
<pdfrwt beam="1">  1        2 0.15206318E+00 0.58673828E+03</pdfrwt>
<pdfrwt beam="2">  1       -2 0.68714753E-01 0.58673828E+03</pdfrwt>
<totfact> 0.51169802E+01</totfact>
</mgrwt>
</event>
<event>
 4    1  0.5410820E-008  0.7629932E+03  0.7818608E-02  0.9615184E-01
          2   -1    0    0  501    0  0.00000000000E+00  0.00000000000E+00  0.24235436237E+04  0.24235436237E+04  0.25500000000E-02 0. -1.
         -2   -1    0    0    0  501 -0.00000000000E+00 -0.00000000000E+00 -0.27871903662E+03  0.27871903663E+03  0.25500000000E-02 0.  1.
    8880022    1    1    2    0    0 -0.74746579743E+03 -0.78649180659E+01  0.15746362248E+04  0.17497536594E+04  0.15294330000E+03 0.  0.
    8880022    1    1    2    0    0  0.74746579743E+03  0.78649180659E+01  0.57018836226E+03  0.95250900087E+03  0.15294330000E+03 0.  0.
<mgrwt>
<rscale>  0 0.76299320E+03</rscale>
<asrwt>0</asrwt>
<pdfrwt beam="1">  1        2 0.37285286E+00 0.76299320E+03</pdfrwt>
<pdfrwt beam="2">  1       -2 0.42879852E-01 0.76299320E+03</pdfrwt>
<totfact> 0.20698726E+01</totfact>
</mgrwt>
</event>
<event>
 4    1  0.5410820E-008  0.5682840E+03  0.7818608E-02  0.9973483E-01
         -2   -1    0    0    0  501 -0.00000000000E+00  0.00000000000E+00  0.89974511448E+03  0.89974511449E+03  0.25500000000E-02 0.  1.
          2   -1    0    0  501    0  0.00000000000E+00 -0.00000000000E+00 -0.82399013064E+03  0.82399013065E+03  0.25500000000E-02 0. -1.
    8880022    1    1    2    0    0  0.47727854912E+03  0.26788100674E+03 -0.60961315607E+03  0.83341160317E+03  0.15294330000E+03 0.  0.
    8880022    1    1    2    0    0 -0.47727854912E+03 -0.26788100674E+03  0.68536813991E+03  0.89032364197E+03  0.15294330000E+03 0.  0.
<mgrwt>
<rscale>  0 0.56828400E+03</rscale>
<asrwt>0</asrwt>
<pdfrwt beam="1">  1        2 0.12676771E+00 0.56828400E+03</pdfrwt>
<pdfrwt beam="2">  1       -2 0.13842233E+00 0.56828400E+03</pdfrwt>
<totfact> 0.12723408E+01</totfact>
</mgrwt>
</event>
<event>
 4    1  0.5410820E-008  0.4797171E+03  0.7818608E-02  0.1019213E+00
         -2   -1    0    0    0  501 -0.00000000000E+00  0.00000000000E+00  0.50915681489E+03  0.50915681489E+03  0.25500000000E-02 0.  1.
          2   -1    0    0  501    0  0.00000000000E+00 -0.00000000000E+00 -0.11038068455E+04  0.11038068456E+04  0.25500000000E-02 0. -1.
    8880022    1    1    2    0    0 -0.31936712814E+03  0.32363784659E+03 -0.91707184676E+03  0.10349634020E+04  0.15294330000E+03 0.  0.
    8880022    1    1    2    0    0  0.31936712814E+03 -0.32363784659E+03  0.32242181610E+03  0.57800025847E+03  0.15294330000E+03 0.  0.
<mgrwt>
<rscale>  0 0.47971707E+03</rscale>
<asrwt>0</asrwt>
<pdfrwt beam="1">  1        2 0.16981644E+00 0.47971707E+03</pdfrwt>
<pdfrwt beam="2">  1       -2 0.78331818E-01 0.47971707E+03</pdfrwt>
<totfact> 0.33031932E+01</totfact>
</mgrwt>
</event>
<event>
 4    1  0.5410820E-008  0.3284441E+03  0.7818608E-02  0.1071827E+00
          2   -1    0    0  501    0  0.00000000000E+00  0.00000000000E+00  0.13376424238E+04  0.13376424238E+04  0.25500000000E-02 0. -1.
         -2   -1    0    0    0  501 -0.00000000000E+00 -0.00000000000E+00 -0.35638200871E+03  0.35638200871E+03  0.25500000000E-02 0.  1.
    8880022    1    1    2    0    0  0.28645921670E+03  0.49243948694E+02 -0.25440798423E+03  0.41545026751E+03  0.15294330000E+03 0.  0.
    8880022    1    1    2    0    0 -0.28645921670E+03 -0.49243948694E+02  0.12356683993E+04  0.12785741650E+04  0.15294330000E+03 0.  0.
<mgrwt>
<rscale>  0 0.32844406E+03</rscale>
<asrwt>0</asrwt>
<pdfrwt beam="1">  1        2 0.20579114E+00 0.32844406E+03</pdfrwt>
<pdfrwt beam="2">  1       -2 0.54828001E-01 0.32844406E+03</pdfrwt>
<totfact> 0.53327917E+01</totfact>
</mgrwt>
</event>
<event>
 4    1  0.5410820E-008  0.2107532E+03  0.7818608E-02  0.1140971E+00
          2   -1    0    0  501    0  0.00000000000E+00  0.00000000000E+00  0.21636910054E+04  0.21636910054E+04  0.25500000000E-02 0. -1.
         -2   -1    0    0    0  501 -0.00000000000E+00 -0.00000000000E+00 -0.12015655522E+03  0.12015655525E+03  0.25500000000E-02 0.  1.
    8880022    1    1    2    0    0 -0.15132374408E+02  0.14420912528E+03  0.20615787563E+04  0.20723233054E+04  0.15294330000E+03 0.  0.
    8880022    1    1    2    0    0  0.15132374408E+02 -0.14420912528E+03 -0.18044306116E+02  0.21152425527E+03  0.15294330000E+03 0.  0.
<mgrwt>
<rscale>  0 0.21075321E+03</rscale>
<asrwt>0</asrwt>
<pdfrwt beam="1">  1        2 0.33287548E+00 0.21075321E+03</pdfrwt>
<pdfrwt beam="2">  1       -2 0.18485627E-01 0.21075321E+03</pdfrwt>
<totfact> 0.15027480E+02</totfact>
</mgrwt>
</event>
<event>
 4    1  0.5410820E-008  0.2572927E+03  0.7818608E-02  0.1108781E+00
          2   -1    0    0  501    0  0.00000000000E+00  0.00000000000E+00  0.53436869453E+03  0.53436869453E+03  0.25500000000E-02 0. -1.
         -2   -1    0    0    0  501 -0.00000000000E+00 -0.00000000000E+00 -0.12587010331E+03  0.12587010334E+03  0.25500000000E-02 0.  1.
    8880022    1    1    2    0    0  0.18042540737E+03  0.10126474082E+03  0.16277756127E+03  0.30446028119E+03  0.15294330000E+03 0.  1.
    8880022    1    1    2    0    0 -0.18042540737E+03 -0.10126474082E+03  0.24572102995E+03  0.35577851668E+03  0.15294330000E+03 0. -1.
<mgrwt>
<rscale>  0 0.25729269E+03</rscale>
<asrwt>0</asrwt>
<pdfrwt beam="1">  1        2 0.82210569E-01 0.25729269E+03</pdfrwt>
<pdfrwt beam="2">  1       -2 0.19364631E-01 0.25729269E+03</pdfrwt>
<totfact> 0.12824875E+03</totfact>
</mgrwt>
</event>
<event>
 4    1  0.5410820E-008  0.1713177E+03  0.7818608E-02  0.1176481E+00
          2   -1    0    0  501    0  0.00000000000E+00  0.00000000000E+00  0.73625882264E+03  0.73625882265E+03  0.25500000000E-02 0. -1.
         -2   -1    0    0    0  501 -0.00000000000E+00 -0.00000000000E+00 -0.69290044956E+03  0.69290044957E+03  0.25500000000E-02 0.  1.
    8880022    1    1    2    0    0  0.65352444956E+02 -0.41075009279E+02 -0.67204068919E+03  0.69353330085E+03  0.15294330000E+03 0.  1.
    8880022    1    1    2    0    0 -0.65352444956E+02  0.41075009279E+02  0.71539906226E+03  0.73562597137E+03  0.15294330000E+03 0.  0.
<mgrwt>
<rscale>  0 0.17131769E+03</rscale>
<asrwt>0</asrwt>
<pdfrwt beam="1">  1        2 0.11327059E+00 0.17131769E+03</pdfrwt>
<pdfrwt beam="2">  1       -2 0.10660007E+00 0.17131769E+03</pdfrwt>
<totfact> 0.30402712E+01</totfact>
</mgrwt>
</event>
<event>
 4    1  0.5410820E-008  0.3754019E+03  0.7818608E-02  0.1052646E+00
         -2   -1    0    0    0  501 -0.00000000000E+00  0.00000000000E+00  0.13239776146E+03  0.13239776149E+03  0.25500000000E-02 0.  1.
          2   -1    0    0  501    0  0.00000000000E+00 -0.00000000000E+00 -0.22176062631E+04  0.22176062631E+04  0.25500000000E-02 0. -1.
    8880022    1    1    2    0    0  0.32414589354E+03 -0.11164380878E+03 -0.19528610428E+03  0.42315861787E+03  0.15294330000E+03 0.  0.
    8880022    1    1    2    0    0 -0.32414589354E+03  0.11164380878E+03 -0.18899223974E+04  0.19268454067E+04  0.15294330000E+03 0.  0.
<mgrwt>
<rscale>  0 0.37540186E+03</rscale>
<asrwt>0</asrwt>
<pdfrwt beam="1">  1        2 0.34117017E+00 0.37540186E+03</pdfrwt>
<pdfrwt beam="2">  1       -2 0.20368888E-01 0.37540186E+03</pdfrwt>
<totfact> 0.11378990E+02</totfact>
</mgrwt>
</event>
<event>
 4    1  0.5410820E-008  0.3806176E+03  0.7818608E-02  0.1050706E+00
          2   -1    0    0  501    0  0.00000000000E+00  0.00000000000E+00  0.13887927678E+04  0.13887927678E+04  0.25500000000E-02 0. -1.
         -2   -1    0    0    0  501 -0.00000000000E+00 -0.00000000000E+00 -0.12629129945E+03  0.12629129948E+03  0.25500000000E-02 0.  1.
    8880022    1    1    2    0    0 -0.10656257989E+03 -0.33184713806E+03  0.31523212630E+03  0.49420749988E+03  0.15294330000E+03 0.  0.
    8880022    1    1    2    0    0  0.10656257989E+03  0.33184713806E+03  0.94726934204E+03  0.10208765674E+04  0.15294330000E+03 0.  0.
<mgrwt>
<rscale>  0 0.38061760E+03</rscale>
<asrwt>0</asrwt>
<pdfrwt beam="1">  1        2 0.21366041E+00 0.38061760E+03</pdfrwt>
<pdfrwt beam="2">  1       -2 0.19429432E-01 0.38061760E+03</pdfrwt>
<totfact> 0.34359999E+02</totfact>
</mgrwt>
</event>
<event>
 4    1  0.5410820E-008  0.3394550E+03  0.7818608E-02  0.1067028E+00
          2   -1    0    0  501    0  0.00000000000E+00  0.00000000000E+00  0.11991940194E+04  0.11991940194E+04  0.25500000000E-02 0. -1.
         -2   -1    0    0    0  501 -0.00000000000E+00 -0.00000000000E+00 -0.15434014153E+03  0.15434014155E+03  0.25500000000E-02 0.  1.
    8880022    1    1    2    0    0  0.29628943773E+03 -0.63644203917E+02  0.93819490128E+03  0.99771706480E+03  0.15294330000E+03 0.  0.
    8880022    1    1    2    0    0 -0.29628943773E+03  0.63644203917E+02  0.10665897659E+03  0.35581709614E+03  0.15294330000E+03 0.  0.
<mgrwt>
<rscale>  0 0.33945496E+03</rscale>
<asrwt>0</asrwt>
<pdfrwt beam="1">  1        2 0.18449138E+00 0.33945496E+03</pdfrwt>
<pdfrwt beam="2">  1       -2 0.23744638E-01 0.33945496E+03</pdfrwt>
<totfact> 0.31112390E+02</totfact>
</mgrwt>
</event>
<event>
 4    1  0.5410820E-008  0.2979022E+03  0.7818608E-02  0.1086294E+00
          2   -1    0    0  501    0  0.00000000000E+00  0.00000000000E+00  0.12417200083E+03  0.12417200086E+03  0.25500000000E-02 0. -1.
         -2   -1    0    0    0  501 -0.00000000000E+00 -0.00000000000E+00 -0.17000322244E+04  0.17000322244E+04  0.25500000000E-02 0.  1.
    8880022    1    1    2    0    0 -0.13701693205E+03 -0.21582492517E+03 -0.93535574868E+02  0.31224124451E+03  0.15294330000E+03 0.  0.
    8880022    1    1    2    0    0  0.13701693205E+03  0.21582492517E+03 -0.14823246487E+04  0.15119629807E+04  0.15294330000E+03 0.  0.
<mgrwt>
<rscale>  0 0.29790215E+03</rscale>
<asrwt>0</asrwt>
<pdfrwt beam="1">  1        2 0.19103386E-01 0.29790215E+03</pdfrwt>
<pdfrwt beam="2">  1       -2 0.26154340E+00 0.29790215E+03</pdfrwt>
<totfact> 0.17911493E+01</totfact>
</mgrwt>
</event>
<event>
 4    1  0.5410820E-008  0.4754953E+03  0.7818608E-02  0.1020381E+00
         -2   -1    0    0    0  501 -0.00000000000E+00  0.00000000000E+00  0.25508711438E+03  0.25508711439E+03  0.25500000000E-02 0.  1.
          2   -1    0    0  501    0  0.00000000000E+00 -0.00000000000E+00 -0.14943099315E+04  0.14943099315E+04  0.25500000000E-02 0. -1.
    8880022    1    1    2    0    0  0.42038432980E+03 -0.16118667994E+03 -0.11775372576E+04  0.12699172321E+04  0.15294330000E+03 0.  0.
    8880022    1    1    2    0    0 -0.42038432980E+03  0.16118667994E+03 -0.61685559576E+02  0.47947981377E+03  0.15294330000E+03 0.  0.
<mgrwt>
<rscale>  0 0.47549530E+03</rscale>
<asrwt>0</asrwt>
<pdfrwt beam="1">  1        2 0.22989383E+00 0.47549530E+03</pdfrwt>
<pdfrwt beam="2">  1       -2 0.39244172E-01 0.47549530E+03</pdfrwt>
<totfact> 0.82673392E+01</totfact>
</mgrwt>
</event>
<event>
 4    1  0.5410820E-008  0.8437673E+03  0.7818608E-02  0.9498741E-01
         -2   -1    0    0    0  501 -0.00000000000E+00  0.00000000000E+00  0.33414558562E+03  0.33414558563E+03  0.25500000000E-02 0.  1.
          2   -1    0    0  501    0  0.00000000000E+00 -0.00000000000E+00 -0.23339257569E+04  0.23339257569E+04  0.25500000000E-02 0. -1.
    8880022    1    1    2    0    0 -0.47684235647E+03 -0.67909714749E+03 -0.13936030628E+04  0.16291325048E+04  0.15294330000E+03 0.  0.
    8880022    1    1    2    0    0  0.47684235647E+03  0.67909714749E+03 -0.60617710851E+03  0.10389388377E+04  0.15294330000E+03 0.  0.
<mgrwt>
<rscale>  0 0.84376728E+03</rscale>
<asrwt>0</asrwt>
<pdfrwt beam="1">  1        2 0.35906549E+00 0.84376728E+03</pdfrwt>
<pdfrwt beam="2">  1       -2 0.51407015E-01 0.84376728E+03</pdfrwt>
<totfact> 0.15948242E+01</totfact>
</mgrwt>
</event>
<event>
 4    1  0.5410820E-008  0.3916244E+03  0.7818608E-02  0.1046719E+00
          2   -1    0    0  501    0  0.00000000000E+00  0.00000000000E+00  0.64925286356E+03  0.64925286356E+03  0.25500000000E-02 0. -1.
         -2   -1    0    0    0  501 -0.00000000000E+00 -0.00000000000E+00 -0.33527226121E+03  0.33527226122E+03  0.25500000000E-02 0.  1.
    8880022    1    1    2    0    0 -0.34379319205E+03 -0.10855544555E+03  0.42454922345E+03  0.57759132594E+03  0.15294330000E+03 0. -1.
    8880022    1    1    2    0    0  0.34379319205E+03  0.10855544555E+03 -0.11056862110E+03  0.40693379885E+03  0.15294330000E+03 0.  0.
<mgrwt>
<rscale>  0 0.39162443E+03</rscale>
<asrwt>0</asrwt>
<pdfrwt beam="1">  1        2 0.99885054E-01 0.39162443E+03</pdfrwt>
<pdfrwt beam="2">  1       -2 0.51580349E-01 0.39162443E+03</pdfrwt>
<totfact> 0.16539749E+02</totfact>
</mgrwt>
</event>
<event>
 4    1  0.5410820E-008  0.5977671E+03  0.7818608E-02  0.9910050E-01
          2   -1    0    0  501    0  0.00000000000E+00  0.00000000000E+00  0.54337555750E+03  0.54337555751E+03  0.25500000000E-02 0. -1.
         -2   -1    0    0    0  501 -0.00000000000E+00 -0.00000000000E+00 -0.10947492894E+04  0.10947492894E+04  0.25500000000E-02 0.  1.
    8880022    1    1    2    0    0 -0.54776477913E+03  0.18408571626E+03 -0.79326153003E+03  0.99327202327E+03  0.15294330000E+03 0.  0.
    8880022    1    1    2    0    0  0.54776477913E+03 -0.18408571626E+03  0.24188779817E+03  0.64485282360E+03  0.15294330000E+03 0.  0.
<mgrwt>
<rscale>  0 0.59776706E+03</rscale>
<asrwt>0</asrwt>
<pdfrwt beam="1">  1        2 0.83596240E-01 0.59776706E+03</pdfrwt>
<pdfrwt beam="2">  1       -2 0.16842297E+00 0.59776706E+03</pdfrwt>
<totfact> 0.12619868E+01</totfact>
</mgrwt>
</event>
<event>
 4    1  0.5410820E-008  0.9141424E+03  0.7818608E-02  0.9408073E-01
          2   -1    0    0  501    0  0.00000000000E+00  0.00000000000E+00  0.13609878578E+04  0.13609878578E+04  0.25500000000E-02 0. -1.
         -2   -1    0    0    0  501 -0.00000000000E+00 -0.00000000000E+00 -0.77440703209E+03  0.77440703209E+03  0.25500000000E-02 0.  1.
    8880022    1    1    2    0    0  0.66707744898E+03 -0.60602991907E+03 -0.19263053151E+03  0.93421772646E+03  0.15294330000E+03 0.  0.
    8880022    1    1    2    0    0 -0.66707744898E+03  0.60602991907E+03  0.77921135724E+03  0.12011771635E+04  0.15294330000E+03 0.  0.
<mgrwt>
<rscale>  0 0.91414235E+03</rscale>
<asrwt>0</asrwt>
<pdfrwt beam="1">  1        2 0.20938275E+00 0.91414235E+03</pdfrwt>
<pdfrwt beam="2">  1       -2 0.11913954E+00 0.91414235E+03</pdfrwt>
<totfact> 0.82558822E+00</totfact>
</mgrwt>
</event>
<event>
 4    1  0.5410820E-008  0.1016133E+04  0.7818608E-02  0.9291026E-01
          2   -1    0    0  501    0  0.00000000000E+00  0.00000000000E+00  0.94835596663E+03  0.94835596664E+03  0.25500000000E-02 0. -1.
         -2   -1    0    0    0  501 -0.00000000000E+00 -0.00000000000E+00 -0.15895841319E+04  0.15895841319E+04  0.25500000000E-02 0.  1.
    8880022    1    1    2    0    0 -0.40130416778E+03  0.92091753650E+03 -0.10329012024E+04  0.14489343294E+04  0.15294330000E+03 0.  0.
    8880022    1    1    2    0    0  0.40130416778E+03 -0.92091753650E+03  0.39167303711E+03  0.10890057691E+04  0.15294330000E+03 0.  0.
<mgrwt>
<rscale>  0 0.10161328E+04</rscale>
<asrwt>0</asrwt>
<pdfrwt beam="1">  1        2 0.14590092E+00 0.10161328E+04</pdfrwt>
<pdfrwt beam="2">  1       -2 0.24455141E+00 0.10161328E+04</pdfrwt>
<totfact> 0.18789451E+00</totfact>
</mgrwt>
</event>
<event>
 4    1  0.5410820E-008  0.8595347E+03  0.7818608E-02  0.9477628E-01
          2   -1    0    0  501    0  0.00000000000E+00  0.00000000000E+00  0.13713517167E+04  0.13713517167E+04  0.25500000000E-02 0. -1.
         -2   -1    0    0    0  501 -0.00000000000E+00 -0.00000000000E+00 -0.57462989730E+03  0.57462989731E+03  0.25500000000E-02 0.  1.
    8880022    1    1    2    0    0 -0.92257926966E+02 -0.84077151496E+03  0.64153092644E+03  0.10725492287E+04  0.15294330000E+03 0.  0.
    8880022    1    1    2    0    0  0.92257926966E+02  0.84077151496E+03  0.15519089300E+03  0.87343238533E+03  0.15294330000E+03 0.  0.
<mgrwt>
<rscale>  0 0.85953471E+03</rscale>
<asrwt>0</asrwt>
<pdfrwt beam="1">  1        2 0.21097719E+00 0.85953471E+03</pdfrwt>
<pdfrwt beam="2">  1       -2 0.88404600E-01 0.85953471E+03</pdfrwt>
<totfact> 0.16706662E+01</totfact>
</mgrwt>
</event>
<event>
 4    1  0.5410820E-008  0.2225544E+03  0.7818608E-02  0.1131993E+00
          2   -1    0    0  501    0  0.00000000000E+00  0.00000000000E+00  0.18808836414E+04  0.18808836414E+04  0.25500000000E-02 0. -1.
         -2   -1    0    0    0  501 -0.00000000000E+00 -0.00000000000E+00 -0.91410328024E+02  0.91410328059E+02  0.25500000000E-02 0.  1.
    8880022    1    1    2    0    0  0.15277459171E+03  0.52903230734E+02  0.17268007774E+04  0.17410833999E+04  0.15294330000E+03 0. -1.
    8880022    1    1    2    0    0 -0.15277459171E+03 -0.52903230734E+02  0.62672536025E+02  0.23121056957E+03  0.15294330000E+03 0.  0.
<mgrwt>
<rscale>  0 0.22255444E+03</rscale>
<asrwt>0</asrwt>
<pdfrwt beam="1">  1        2 0.28936671E+00 0.22255444E+03</pdfrwt>
<pdfrwt beam="2">  1       -2 0.14063128E-01 0.22255444E+03</pdfrwt>
<totfact> 0.33181868E+02</totfact>
</mgrwt>
</event>
<event>
 4    1  0.5410820E-008  0.3893971E+03  0.7818608E-02  0.1047514E+00
          2   -1    0    0  501    0  0.00000000000E+00  0.00000000000E+00  0.15025328613E+04  0.15025328613E+04  0.25500000000E-02 0. -1.
         -2   -1    0    0    0  501 -0.00000000000E+00 -0.00000000000E+00 -0.86647567624E+03  0.86647567624E+03  0.25500000000E-02 0.  1.
    8880022    1    1    2    0    0 -0.35796237233E+03  0.10067290360E+02  0.14314200404E+04  0.14834397175E+04  0.15294330000E+03 0.  0.
    8880022    1    1    2    0    0  0.35796237233E+03 -0.10067290360E+02 -0.79536285535E+03  0.88556882004E+03  0.15294330000E+03 0.  1.
<mgrwt>
<rscale>  0 0.38939705E+03</rscale>
<asrwt>0</asrwt>
<pdfrwt beam="1">  1        2 0.23115890E+00 0.38939705E+03</pdfrwt>
<pdfrwt beam="2">  1       -2 0.13330395E+00 0.38939705E+03</pdfrwt>
<totfact> 0.56965671E+00</totfact>
</mgrwt>
</event>
<event>
 4    1  0.5410820E-008  0.7357610E+03  0.7818608E-02  0.9657958E-01
         -2   -1    0    0    0  501 -0.00000000000E+00  0.00000000000E+00  0.27939089054E+03  0.27939089055E+03  0.25500000000E-02 0.  1.
          2   -1    0    0  501    0  0.00000000000E+00 -0.00000000000E+00 -0.28330044433E+04  0.28330044433E+04  0.25500000000E-02 0. -1.
    8880022    1    1    2    0    0 -0.29139690874E+03  0.65805807787E+03 -0.21516975387E+04  0.22740155108E+04  0.15294330000E+03 0.  0.
    8880022    1    1    2    0    0  0.29139690874E+03 -0.65805807787E+03 -0.40191601400E+03  0.83837982299E+03  0.15294330000E+03 0.  0.
<mgrwt>
<rscale>  0 0.73576100E+03</rscale>
<asrwt>0</asrwt>
<pdfrwt beam="1">  1        2 0.43584682E+00 0.73576100E+03</pdfrwt>
<pdfrwt beam="2">  1       -2 0.42983216E-01 0.73576100E+03</pdfrwt>
<totfact> 0.12010116E+01</totfact>
</mgrwt>
</event>
<event>
 4    1  0.5410820E-008  0.3088003E+03  0.7818608E-02  0.1080922E+00
         -2   -1    0    0    0  501 -0.00000000000E+00  0.00000000000E+00  0.70417823382E+03  0.70417823382E+03  0.25500000000E-02 0.  1.
          2   -1    0    0  501    0  0.00000000000E+00 -0.00000000000E+00 -0.24802297151E+04  0.24802297151E+04  0.25500000000E-02 0. -1.
    8880022    1    1    2    0    0  0.16631032299E+03 -0.21049195446E+03 -0.24361536468E+04  0.24556470085E+04  0.15294330000E+03 0.  0.
    8880022    1    1    2    0    0 -0.16631032299E+03  0.21049195446E+03  0.66010216550E+03  0.72876094046E+03  0.15294330000E+03 0.  0.
<mgrwt>
<rscale>  0 0.30880032E+03</rscale>
<asrwt>0</asrwt>
<pdfrwt beam="1">  1        2 0.38157380E+00 0.30880032E+03</pdfrwt>
<pdfrwt beam="2">  1       -2 0.10833511E+00 0.30880032E+03</pdfrwt>
<totfact> 0.29180630E+00</totfact>
</mgrwt>
</event>
<event>
 4    1  0.5410820E-008  0.3039922E+03  0.7818608E-02  0.1083262E+00
          2   -1    0    0  501    0  0.00000000000E+00  0.00000000000E+00  0.13522246379E+04  0.13522246379E+04  0.25500000000E-02 0. -1.
         -2   -1    0    0    0  501 -0.00000000000E+00 -0.00000000000E+00 -0.30391410064E+03  0.30391410065E+03  0.25500000000E-02 0.  1.
    8880022    1    1    2    0    0  0.25572786328E+03 -0.60190143625E+02  0.12532012484E+04  0.12895443441E+04  0.15294330000E+03 0.  0.
    8880022    1    1    2    0    0 -0.25572786328E+03  0.60190143625E+02 -0.20489071119E+03  0.36659439438E+03  0.15294330000E+03 0.  0.
<mgrwt>
<rscale>  0 0.30399218E+03</rscale>
<asrwt>0</asrwt>
<pdfrwt beam="1">  1        2 0.20803456E+00 0.30399218E+03</pdfrwt>
<pdfrwt beam="2">  1       -2 0.46756016E-01 0.30399218E+03</pdfrwt>
<totfact> 0.72536772E+01</totfact>
</mgrwt>
</event>
<event>
 4    1  0.5410820E-008  0.5632476E+03  0.7818608E-02  0.9984733E-01
          2   -1    0    0  501    0  0.00000000000E+00  0.00000000000E+00  0.67396428290E+03  0.67396428291E+03  0.25500000000E-02 0. -1.
         -2   -1    0    0    0  501 -0.00000000000E+00 -0.00000000000E+00 -0.51418475487E+03  0.51418475488E+03  0.25500000000E-02 0.  1.
    8880022    1    1    2    0    0  0.10236476732E+03  0.53233226472E+03 -0.92834998351E+02  0.57084689329E+03  0.15294330000E+03 0.  1.
    8880022    1    1    2    0    0 -0.10236476732E+03 -0.53233226472E+03  0.25261452638E+03  0.61730214450E+03  0.15294330000E+03 0.  0.
<mgrwt>
<rscale>  0 0.56324758E+03</rscale>
<asrwt>0</asrwt>
<pdfrwt beam="1">  1        2 0.10368681E+00 0.56324758E+03</pdfrwt>
<pdfrwt beam="2">  1       -2 0.79105347E-01 0.56324758E+03</pdfrwt>
<totfact> 0.62623687E+01</totfact>
</mgrwt>
</event>
<event>
 4    1  0.5410820E-008  0.5997235E+03  0.7818608E-02  0.9905980E-01
          2   -1    0    0  501    0  0.00000000000E+00  0.00000000000E+00  0.15607305636E+04  0.15607305636E+04  0.25500000000E-02 0. -1.
         -2   -1    0    0    0  501 -0.00000000000E+00 -0.00000000000E+00 -0.71803436784E+03  0.71803436784E+03  0.25500000000E-02 0.  1.
    8880022    1    1    2    0    0 -0.32891639178E+02  0.57896009521E+03  0.13602546906E+04  0.14865938007E+04  0.15294330000E+03 0.  0.
    8880022    1    1    2    0    0  0.32891639178E+02 -0.57896009521E+03 -0.51755849489E+03  0.79217113076E+03  0.15294330000E+03 0.  0.
<mgrwt>
<rscale>  0 0.59972352E+03</rscale>
<asrwt>0</asrwt>
<pdfrwt beam="1">  1        2 0.24011239E+00 0.59972352E+03</pdfrwt>
<pdfrwt beam="2">  1       -2 0.11046683E+00 0.59972352E+03</pdfrwt>
<totfact> 0.80187370E+00</totfact>
</mgrwt>
</event>
<event>
 4    1  0.5410820E-008  0.8096567E+03  0.7818608E-02  0.9546144E-01
          2   -1    0    0  501    0  0.00000000000E+00  0.00000000000E+00  0.11929906274E+04  0.11929906274E+04  0.25500000000E-02 0. -1.
         -2   -1    0    0    0  501 -0.00000000000E+00 -0.00000000000E+00 -0.10595627349E+04  0.10595627349E+04  0.25500000000E-02 0.  1.
    8880022    1    1    2    0    0  0.74807097776E+02 -0.79155300793E+03  0.84815303812E+03  0.11725644952E+04  0.15294330000E+03 0.  0.
    8880022    1    1    2    0    0 -0.74807097776E+02  0.79155300793E+03 -0.71472514565E+03  0.10799888671E+04  0.15294330000E+03 0.  0.
<mgrwt>
<rscale>  0 0.80965667E+03</rscale>
<asrwt>0</asrwt>
<pdfrwt beam="1">  1        2 0.18353702E+00 0.80965667E+03</pdfrwt>
<pdfrwt beam="2">  1       -2 0.16300965E+00 0.80965667E+03</pdfrwt>
<totfact> 0.46416574E+00</totfact>
</mgrwt>
</event>
<event>
 4    1  0.5410820E-008  0.7776334E+03  0.7818608E-02  0.9592968E-01
          2   -1    0    0  501    0  0.00000000000E+00  0.00000000000E+00  0.21392013029E+04  0.21392013029E+04  0.25500000000E-02 0. -1.
         -2   -1    0    0    0  501 -0.00000000000E+00 -0.00000000000E+00 -0.52348124154E+03  0.52348124154E+03  0.25500000000E-02 0.  1.
    8880022    1    1    2    0    0  0.84636563775E+02  0.75773263139E+03  0.17108155866E+04  0.18792561595E+04  0.15294330000E+03 0.  0.
    8880022    1    1    2    0    0 -0.84636563775E+02 -0.75773263139E+03 -0.95095525304E+02  0.78342638489E+03  0.15294330000E+03 0.  0.
<mgrwt>
<rscale>  0 0.77763342E+03</rscale>
<asrwt>0</asrwt>
<pdfrwt beam="1">  1        2 0.32910789E+00 0.77763342E+03</pdfrwt>
<pdfrwt beam="2">  1       -2 0.80535577E-01 0.77763342E+03</pdfrwt>
<totfact> 0.78704692E+00</totfact>
</mgrwt>
</event>
<event>
 4    1  0.5410820E-008  0.5430254E+03  0.7818608E-02  0.1003121E+00
          2   -1    0    0  501    0  0.00000000000E+00  0.00000000000E+00  0.41955808311E+03  0.41955808312E+03  0.25500000000E-02 0. -1.
         -2   -1    0    0    0  501 -0.00000000000E+00 -0.00000000000E+00 -0.81900633421E+03  0.81900633421E+03  0.25500000000E-02 0.  1.
    8880022    1    1    2    0    0 -0.24092809838E+01  0.52103658400E+03  0.33519707153E+02  0.54405895847E+03  0.15294330000E+03 0.  0.
    8880022    1    1    2    0    0  0.24092809838E+01 -0.52103658400E+03 -0.43296795825E+03  0.69450545886E+03  0.15294330000E+03 0.  0.
<mgrwt>
<rscale>  0 0.54302539E+03</rscale>
<asrwt>0</asrwt>
<pdfrwt beam="1">  1        2 0.64547397E-01 0.54302539E+03</pdfrwt>
<pdfrwt beam="2">  1       -2 0.12600097E+00 0.54302539E+03</pdfrwt>
<totfact> 0.36432862E+01</totfact>
</mgrwt>
</event>
<event>
 4    1  0.5410820E-008  0.8626964E+03  0.7818608E-02  0.9473453E-01
          2   -1    0    0  501    0  0.00000000000E+00  0.00000000000E+00  0.25262451970E+04  0.25262451970E+04  0.25500000000E-02 0. -1.
         -2   -1    0    0    0  501 -0.00000000000E+00 -0.00000000000E+00 -0.39620453182E+03  0.39620453182E+03  0.25500000000E-02 0.  1.
    8880022    1    1    2    0    0  0.34085699174E+03  0.77760530061E+03  0.18049707390E+04  0.20005410553E+04  0.15294330000E+03 0.  0.
    8880022    1    1    2    0    0 -0.34085699174E+03 -0.77760530061E+03  0.32506992617E+03  0.92190867349E+03  0.15294330000E+03 0.  1.
<mgrwt>
<rscale>  0 0.86269644E+03</rscale>
<asrwt>0</asrwt>
<pdfrwt beam="1">  1        2 0.38865312E+00 0.86269644E+03</pdfrwt>
<pdfrwt beam="2">  1       -2 0.60954542E-01 0.86269644E+03</pdfrwt>
<totfact> 0.86802694E+00</totfact>
</mgrwt>
</event>
<event>
 4    1  0.5410820E-008  0.5608723E+03  0.7818608E-02  0.9990083E-01
          2   -1    0    0  501    0  0.00000000000E+00  0.00000000000E+00  0.31008770870E+03  0.31008770871E+03  0.25500000000E-02 0. -1.
         -2   -1    0    0    0  501 -0.00000000000E+00 -0.00000000000E+00 -0.14874392160E+04  0.14874392160E+04  0.25500000000E-02 0.  1.
    8880022    1    1    2    0    0  0.50918563848E+03 -0.17865081262E+03 -0.81874548618E+02  0.56681674465E+03  0.15294330000E+03 0.  0.
    8880022    1    1    2    0    0 -0.50918563848E+03  0.17865081262E+03 -0.10954769587E+04  0.12307101801E+04  0.15294330000E+03 0.  0.
<mgrwt>
<rscale>  0 0.56087234E+03</rscale>
<asrwt>0</asrwt>
<pdfrwt beam="1">  1        2 0.47705802E-01 0.56087234E+03</pdfrwt>
<pdfrwt beam="2">  1       -2 0.22883680E+00 0.56087234E+03</pdfrwt>
<totfact> 0.96275037E+00</totfact>
</mgrwt>
</event>
<event>
 4    1  0.5410820E-008  0.3761607E+03  0.7818608E-02  0.1052362E+00
         -2   -1    0    0    0  501 -0.00000000000E+00  0.00000000000E+00  0.51122669428E+03  0.51122669428E+03  0.25500000000E-02 0.  1.
          2   -1    0    0  501    0  0.00000000000E+00 -0.00000000000E+00 -0.27551000200E+04  0.27551000200E+04  0.25500000000E-02 0. -1.
    8880022    1    1    2    0    0  0.28873573125E+03 -0.18637839333E+03  0.42702158252E+03  0.56907320527E+03  0.15294330000E+03 0.  1.
    8880022    1    1    2    0    0 -0.28873573125E+03  0.18637839333E+03 -0.26708949083E+04  0.26972535090E+04  0.15294330000E+03 0.  0.
<mgrwt>
<rscale>  0 0.37616071E+03</rscale>
<asrwt>0</asrwt>
<pdfrwt beam="1">  1        2 0.42386153E+00 0.37616071E+03</pdfrwt>
<pdfrwt beam="2">  1       -2 0.78650262E-01 0.37616071E+03</pdfrwt>
<totfact> 0.41415847E+00</totfact>
</mgrwt>
</event>
<event>
 4    1  0.5410820E-008  0.3565148E+03  0.7818608E-02  0.1059972E+00
          2   -1    0    0  501    0  0.00000000000E+00  0.00000000000E+00  0.13669395855E+04  0.13669395855E+04  0.25500000000E-02 0. -1.
         -2   -1    0    0    0  501 -0.00000000000E+00 -0.00000000000E+00 -0.19781064966E+03  0.19781064968E+03  0.25500000000E-02 0.  1.
    8880022    1    1    2    0    0  0.26911377974E+03 -0.17688665312E+03  0.11541083273E+04  0.12079192021E+04  0.15294330000E+03 0.  0.
    8880022    1    1    2    0    0 -0.26911377974E+03  0.17688665312E+03  0.15020608510E+02  0.35683103311E+03  0.15294330000E+03 0.  0.
<mgrwt>
<rscale>  0 0.35651475E+03</rscale>
<asrwt>0</asrwt>
<pdfrwt beam="1">  1        2 0.21029840E+00 0.35651475E+03</pdfrwt>
<pdfrwt beam="2">  1       -2 0.30432408E-01 0.35651475E+03</pdfrwt>
<totfact> 0.15971791E+02</totfact>
</mgrwt>
</event>
<event>
 4    1  0.5410820E-008  0.2053972E+03  0.7818608E-02  0.1145264E+00
          2   -1    0    0  501    0  0.00000000000E+00  0.00000000000E+00  0.76455312626E+03  0.76455312627E+03  0.25500000000E-02 0. -1.
         -2   -1    0    0    0  501 -0.00000000000E+00 -0.00000000000E+00 -0.12891461367E+03  0.12891461370E+03  0.25500000000E-02 0.  1.
    8880022    1    1    2    0    0  0.13675383366E+03  0.97328551550E+01 -0.20038347987E+02  0.20637230409E+03  0.15294330000E+03 0.  0.
    8880022    1    1    2    0    0 -0.13675383366E+03 -0.97328551550E+01  0.65567686058E+03  0.68709543588E+03  0.15294330000E+03 0. -1.
<mgrwt>
<rscale>  0 0.20539716E+03</rscale>
<asrwt>0</asrwt>
<pdfrwt beam="1">  1        2 0.11762356E+00 0.20539716E+03</pdfrwt>
<pdfrwt beam="2">  1       -2 0.19833017E-01 0.20539716E+03</pdfrwt>
<totfact> 0.80534785E+02</totfact>
</mgrwt>
</event>
<event>
 4    1  0.5410820E-008  0.8884649E+03  0.7818608E-02  0.9440117E-01
          2   -1    0    0  501    0  0.00000000000E+00  0.00000000000E+00  0.10581654688E+04  0.10581654688E+04  0.25500000000E-02 0. -1.
         -2   -1    0    0    0  501 -0.00000000000E+00 -0.00000000000E+00 -0.16933362542E+04  0.16933362542E+04  0.25500000000E-02 0.  1.
    8880022    1    1    2    0    0 -0.83027782284E+03 -0.27679769414E+03 -0.13466080549E+04  0.16132957364E+04  0.15294330000E+03 0.  1.
    8880022    1    1    2    0    0  0.83027782284E+03  0.27679769414E+03  0.71143726948E+03  0.11382059866E+04  0.15294330000E+03 0.  0.
<mgrwt>
<rscale>  0 0.88846490E+03</rscale>
<asrwt>0</asrwt>
<pdfrwt beam="1">  1        2 0.16279469E+00 0.88846490E+03</pdfrwt>
<pdfrwt beam="2">  1       -2 0.26051327E+00 0.88846490E+03</pdfrwt>
<totfact> 0.12992328E+00</totfact>
</mgrwt>
</event>
<event>
 4    1  0.5410820E-008  0.3685588E+03  0.7818608E-02  0.1055245E+00
         -2   -1    0    0    0  501 -0.00000000000E+00  0.00000000000E+00  0.10567493778E+04  0.10567493778E+04  0.25500000000E-02 0.  1.
          2   -1    0    0  501    0  0.00000000000E+00 -0.00000000000E+00 -0.31817755872E+03  0.31817755873E+03  0.25500000000E-02 0. -1.
    8880022    1    1    2    0    0 -0.14002987217E+03 -0.30468930081E+03  0.90001870094E+03  0.97255809604E+03  0.15294330000E+03 0.  1.
    8880022    1    1    2    0    0  0.14002987217E+03  0.30468930081E+03 -0.16144688186E+03  0.40236884050E+03  0.15294330000E+03 0.  0.
<mgrwt>
<rscale>  0 0.36855880E+03</rscale>
<asrwt>0</asrwt>
<pdfrwt beam="1">  1        2 0.48950395E-01 0.36855880E+03</pdfrwt>
<pdfrwt beam="2">  1       -2 0.16257682E+00 0.36855880E+03</pdfrwt>
<totfact> 0.26134403E+01</totfact>
</mgrwt>
</event>
<event>
 4    1  0.5410820E-008  0.5044683E+03  0.7818608E-02  0.1012619E+00
         -2   -1    0    0    0  501 -0.00000000000E+00  0.00000000000E+00  0.18063793840E+03  0.18063793842E+03  0.25500000000E-02 0.  1.
          2   -1    0    0  501    0  0.00000000000E+00 -0.00000000000E+00 -0.24138451010E+04  0.24138451010E+04  0.25500000000E-02 0. -1.
    8880022    1    1    2    0    0 -0.12608215787E+03  0.46389643859E+03 -0.27955186983E+03  0.57674735995E+03  0.15294330000E+03 0. -1.
    8880022    1    1    2    0    0  0.12608215787E+03 -0.46389643859E+03 -0.19536552928E+04  0.20177356795E+04  0.15294330000E+03 0.  0.
<mgrwt>
<rscale>  0 0.50446830E+03</rscale>
<asrwt>0</asrwt>
<pdfrwt beam="1">  1        2 0.37136076E+00 0.50446830E+03</pdfrwt>
<pdfrwt beam="2">  1       -2 0.27790454E-01 0.50446830E+03</pdfrwt>
<totfact> 0.49835403E+01</totfact>
</mgrwt>
</event>
<event>
 4    1  0.5410820E-008  0.6706853E+03  0.7818608E-02  0.9768721E-01
          2   -1    0    0  501    0  0.00000000000E+00  0.00000000000E+00  0.75324212755E+03  0.75324212755E+03  0.25500000000E-02 0. -1.
         -2   -1    0    0    0  501 -0.00000000000E+00 -0.00000000000E+00 -0.10438978279E+04  0.10438978279E+04  0.25500000000E-02 0.  1.
    8880022    1    1    2    0    0  0.59604121498E+02 -0.65028803587E+03  0.44248765004E+03  0.80350118503E+03  0.15294330000E+03 0.  0.
    8880022    1    1    2    0    0 -0.59604121498E+02  0.65028803587E+03 -0.73314335042E+03  0.99363877047E+03  0.15294330000E+03 0.  0.
<mgrwt>
<rscale>  0 0.67068535E+03</rscale>
<asrwt>0</asrwt>
<pdfrwt beam="1">  1        2 0.11588340E+00 0.67068535E+03</pdfrwt>
<pdfrwt beam="2">  1       -2 0.16059967E+00 0.67068535E+03</pdfrwt>
<totfact> 0.95423146E+00</totfact>
</mgrwt>
</event>
<event>
 4    1  0.5410820E-008  0.1545997E+03  0.7818608E-02  0.1194932E+00
         -2   -1    0    0    0  501 -0.00000000000E+00  0.00000000000E+00  0.90943958467E+02  0.90943958503E+02  0.25500000000E-02 0.  1.
          2   -1    0    0  501    0  0.00000000000E+00 -0.00000000000E+00 -0.69854168521E+03  0.69854168522E+03  0.25500000000E-02 0. -1.
    8880022    1    1    2    0    0 -0.18932985877E+02  0.12286083490E+02  0.79660419746E+01  0.15480476944E+03  0.15294330000E+03 0.  1.
    8880022    1    1    2    0    0  0.18932985877E+02 -0.12286083490E+02 -0.61556376872E+03  0.63468087428E+03  0.15294330000E+03 0.  0.
<mgrwt>
<rscale>  0 0.15459967E+03</rscale>
<asrwt>0</asrwt>
<pdfrwt beam="1">  1        2 0.10746795E+00 0.15459967E+03</pdfrwt>
<pdfrwt beam="2">  1       -2 0.13991379E-01 0.15459967E+03</pdfrwt>
<totfact> 0.16043299E+03</totfact>
</mgrwt>
</event>
<event>
 4    1  0.5410820E-008  0.2740500E+03  0.7818608E-02  0.1098984E+00
         -2   -1    0    0    0  501 -0.00000000000E+00  0.00000000000E+00  0.26746594782E+03  0.26746594784E+03  0.25500000000E-02 0.  1.
          2   -1    0    0  501    0  0.00000000000E+00 -0.00000000000E+00 -0.43491370005E+03  0.43491370006E+03  0.25500000000E-02 0. -1.
    8880022    1    1    2    0    0 -0.14590331957E+03 -0.17442468282E+03  0.12533396584E+03  0.30135030222E+03  0.15294330000E+03 0.  0.
    8880022    1    1    2    0    0  0.14590331957E+03  0.17442468282E+03 -0.29278171807E+03  0.40102934567E+03  0.15294330000E+03 0.  0.
<mgrwt>
<rscale>  0 0.27405000E+03</rscale>
<asrwt>0</asrwt>
<pdfrwt beam="1">  1        2 0.66909800E-01 0.27405000E+03</pdfrwt>
<pdfrwt beam="2">  1       -2 0.41148607E-01 0.27405000E+03</pdfrwt>
<totfact> 0.41295473E+02</totfact>
</mgrwt>
</event>
<event>
 4    1  0.5410820E-008  0.8228907E+03  0.7818608E-02  0.9527462E-01
         -2   -1    0    0    0  501 -0.00000000000E+00  0.00000000000E+00  0.24330063902E+03  0.24330063904E+03  0.25500000000E-02 0.  1.
          2   -1    0    0  501    0  0.00000000000E+00 -0.00000000000E+00 -0.29849787245E+04  0.29849787245E+04  0.25500000000E-02 0. -1.
    8880022    1    1    2    0    0 -0.78683445564E+03  0.18614233603E+03 -0.17905317533E+04  0.19705717552E+04  0.15294330000E+03 0.  0.
    8880022    1    1    2    0    0  0.78683445564E+03 -0.18614233603E+03 -0.95114633223E+03  0.12577076084E+04  0.15294330000E+03 0.  0.
<mgrwt>
<rscale>  0 0.82289069E+03</rscale>
<asrwt>0</asrwt>
<pdfrwt beam="1">  1        2 0.45922747E+00 0.82289069E+03</pdfrwt>
<pdfrwt beam="2">  1       -2 0.37430870E-01 0.82289069E+03</pdfrwt>
<totfact> 0.12559522E+01</totfact>
</mgrwt>
</event>
<event>
 4    1  0.5410820E-008  0.6964551E+03  0.7818608E-02  0.9723314E-01
         -2   -1    0    0    0  501 -0.00000000000E+00  0.00000000000E+00  0.32837652469E+03  0.32837652470E+03  0.25500000000E-02 0.  1.
          2   -1    0    0  501    0  0.00000000000E+00 -0.00000000000E+00 -0.16053315272E+04  0.16053315272E+04  0.25500000000E-02 0. -1.
    8880022    1    1    2    0    0 -0.47641944142E+03  0.48444047784E+03 -0.36523298311E+03  0.78641264340E+03  0.15294330000E+03 0.  0.
    8880022    1    1    2    0    0  0.47641944142E+03 -0.48444047784E+03 -0.91172201943E+03  0.11472954085E+04  0.15294330000E+03 0.  0.
<mgrwt>
<rscale>  0 0.69645511E+03</rscale>
<asrwt>0</asrwt>
<pdfrwt beam="1">  1        2 0.24697408E+00 0.69645511E+03</pdfrwt>
<pdfrwt beam="2">  1       -2 0.50519466E-01 0.69645511E+03</pdfrwt>
<totfact> 0.42281393E+01</totfact>
</mgrwt>
</event>
<event>
 4    1  0.5410820E-008  0.2900257E+03  0.7818608E-02  0.1090336E+00
         -2   -1    0    0    0  501 -0.00000000000E+00  0.00000000000E+00  0.58167529304E+03  0.58167529304E+03  0.25500000000E-02 0.  1.
          2   -1    0    0  501    0  0.00000000000E+00 -0.00000000000E+00 -0.32234895434E+03  0.32234895435E+03  0.25500000000E-02 0. -1.
    8880022    1    1    2    0    0 -0.24642063546E+03 -0.35403323423E+00  0.46530856146E+03  0.54829459719E+03  0.15294330000E+03 0.  0.
    8880022    1    1    2    0    0  0.24642063546E+03  0.35403323423E+00 -0.20598222277E+03  0.35572965020E+03  0.15294330000E+03 0.  0.
<mgrwt>
<rscale>  0 0.29002570E+03</rscale>
<asrwt>0</asrwt>
<pdfrwt beam="1">  1        2 0.49592147E-01 0.29002570E+03</pdfrwt>
<pdfrwt beam="2">  1       -2 0.89488506E-01 0.29002570E+03</pdfrwt>
<totfact> 0.11276710E+02</totfact>
</mgrwt>
</event>
<event>
 4    1  0.5410820E-008  0.6393201E+03  0.7818608E-02  0.9827028E-01
          2   -1    0    0  501    0  0.00000000000E+00  0.00000000000E+00  0.25304857378E+04  0.25304857378E+04  0.25500000000E-02 0. -1.
         -2   -1    0    0    0  501 -0.00000000000E+00 -0.00000000000E+00 -0.38088951809E+03  0.38088951810E+03  0.25500000000E-02 0.  1.
    8880022    1    1    2    0    0 -0.34918776439E+03  0.51323137205E+03  0.21795237195E+04  0.22713550654E+04  0.15294330000E+03 0.  0.
    8880022    1    1    2    0    0  0.34918776439E+03 -0.51323137205E+03 -0.29927499789E+02  0.64002019055E+03  0.15294330000E+03 0.  0.
<mgrwt>
<rscale>  0 0.63932010E+03</rscale>
<asrwt>0</asrwt>
<pdfrwt beam="1">  1        2 0.38930550E+00 0.63932010E+03</pdfrwt>
<pdfrwt beam="2">  1       -2 0.58598387E-01 0.63932010E+03</pdfrwt>
<totfact> 0.97445176E+00</totfact>
</mgrwt>
</event>
<event>
 4    1  0.5410820E-008  0.7190187E+03  0.7818608E-02  0.9685249E-01
         -2   -1    0    0    0  501 -0.00000000000E+00  0.00000000000E+00  0.22220726301E+04  0.22220726301E+04  0.25500000000E-02 0.  1.
          2   -1    0    0  501    0  0.00000000000E+00 -0.00000000000E+00 -0.78526143017E+03  0.78526143018E+03  0.25500000000E-02 0. -1.
    8880022    1    1    2    0    0  0.62911148485E+02 -0.69974172305E+03  0.19797987063E+04  0.21063216426E+04  0.15294330000E+03 0.  0.
    8880022    1    1    2    0    0 -0.62911148485E+02  0.69974172305E+03 -0.54298750643E+03  0.90101241763E+03  0.15294330000E+03 0.  0.
<mgrwt>
<rscale>  0 0.71901874E+03</rscale>
<asrwt>0</asrwt>
<pdfrwt beam="1">  1        2 0.12080945E+00 0.71901874E+03</pdfrwt>
<pdfrwt beam="2">  1       -2 0.34185732E+00 0.71901874E+03</pdfrwt>
<totfact> 0.65584250E-01</totfact>
</mgrwt>
</event>
<event>
 4    1  0.5410820E-008  0.6379140E+03  0.7818608E-02  0.9829726E-01
         -2   -1    0    0    0  501 -0.00000000000E+00  0.00000000000E+00  0.64845033650E+03  0.64845033651E+03  0.25500000000E-02 0.  1.
          2   -1    0    0  501    0  0.00000000000E+00 -0.00000000000E+00 -0.14838717297E+04  0.14838717297E+04  0.25500000000E-02 0. -1.
    8880022    1    1    2    0    0 -0.44748194059E+03 -0.42813837785E+03  0.39221172032E+03  0.74884193547E+03  0.15294330000E+03 0.  0.
    8880022    1    1    2    0    0  0.44748194059E+03  0.42813837785E+03 -0.12276331135E+04  0.13834801307E+04  0.15294330000E+03 0.  0.
<mgrwt>
<rscale>  0 0.63791395E+03</rscale>
<asrwt>0</asrwt>
<pdfrwt beam="1">  1        2 0.22828796E+00 0.63791395E+03</pdfrwt>
<pdfrwt beam="2">  1       -2 0.99761590E-01 0.63791395E+03</pdfrwt>
<totfact> 0.11210767E+01</totfact>
</mgrwt>
</event>
<event>
 4    1  0.5410820E-008  0.9875743E+03  0.7818608E-02  0.9322279E-01
          2   -1    0    0  501    0  0.00000000000E+00  0.00000000000E+00  0.36407378018E+04  0.36407378018E+04  0.25500000000E-02 0. -1.
         -2   -1    0    0    0  501 -0.00000000000E+00 -0.00000000000E+00 -0.39225562769E+03  0.39225562770E+03  0.25500000000E-02 0.  1.
    8880022    1    1    2    0    0  0.49802161136E+03  0.83897903561E+03  0.48878604314E+03  0.11019141512E+04  0.15294330000E+03 0.  0.
    8880022    1    1    2    0    0 -0.49802161136E+03 -0.83897903561E+03  0.27596961310E+04  0.29310792784E+04  0.15294330000E+03 0.  0.
<mgrwt>
<rscale>  0 0.98757430E+03</rscale>
<asrwt>0</asrwt>
<pdfrwt beam="1">  1        2 0.56011352E+00 0.98757430E+03</pdfrwt>
<pdfrwt beam="2">  1       -2 0.60347019E-01 0.98757430E+03</pdfrwt>
<totfact> 0.17223509E+00</totfact>
</mgrwt>
</event>
<event>
 4    1  0.5410820E-008  0.3316333E+03  0.7818608E-02  0.1070416E+00
         -2   -1    0    0    0  501 -0.00000000000E+00  0.00000000000E+00  0.66021378112E+03  0.66021378113E+03  0.25500000000E-02 0.  1.
          2   -1    0    0  501    0  0.00000000000E+00 -0.00000000000E+00 -0.32258244895E+03  0.32258244896E+03  0.25500000000E-02 0. -1.
    8880022    1    1    2    0    0  0.24028205761E+03  0.16986335095E+03  0.51053853849E+03  0.60879411750E+03  0.15294330000E+03 0.  1.
    8880022    1    1    2    0    0 -0.24028205761E+03 -0.16986335095E+03 -0.17290720632E+03  0.37400211259E+03  0.15294330000E+03 0.  0.
<mgrwt>
<rscale>  0 0.33163335E+03</rscale>
<asrwt>0</asrwt>
<pdfrwt beam="1">  1        2 0.49628070E-01 0.33163335E+03</pdfrwt>
<pdfrwt beam="2">  1       -2 0.10157135E+00 0.33163335E+03</pdfrwt>
<totfact> 0.83772323E+01</totfact>
</mgrwt>
</event>
<event>
 4    1  0.5410820E-008  0.2391173E+03  0.7818608E-02  0.1120382E+00
         -2   -1    0    0    0  501 -0.00000000000E+00  0.00000000000E+00  0.31260534926E+03  0.31260534927E+03  0.25500000000E-02 0.  1.
          2   -1    0    0  501    0  0.00000000000E+00 -0.00000000000E+00 -0.47482611266E+03  0.47482611267E+03  0.25500000000E-02 0. -1.
    8880022    1    1    2    0    0 -0.18159113491E+03  0.28462179304E+02 -0.38981860981E+03  0.45731350024E+03  0.15294330000E+03 0. -1.
    8880022    1    1    2    0    0  0.18159113491E+03 -0.28462179304E+02  0.22759784641E+03  0.33011796170E+03  0.15294330000E+03 0.  0.
<mgrwt>
<rscale>  0 0.23911731E+03</rscale>
<asrwt>0</asrwt>
<pdfrwt beam="1">  1        2 0.73050171E-01 0.23911731E+03</pdfrwt>
<pdfrwt beam="2">  1       -2 0.48093131E-01 0.23911731E+03</pdfrwt>
<totfact> 0.27674674E+02</totfact>
</mgrwt>
</event>
<event>
 4    1  0.5410820E-008  0.1176741E+04  0.7818608E-02  0.9133462E-01
          2   -1    0    0  501    0  0.00000000000E+00  0.00000000000E+00  0.15063098341E+04  0.15063098341E+04  0.25500000000E-02 0. -1.
         -2   -1    0    0    0  501 -0.00000000000E+00 -0.00000000000E+00 -0.10104674823E+04  0.10104674823E+04  0.25500000000E-02 0.  1.
    8880022    1    1    2    0    0 -0.10522842409E+04 -0.50400993095E+03 -0.13010543299E+03  0.11839118256E+04  0.15294330000E+03 0.  0.
    8880022    1    1    2    0    0  0.10522842409E+04  0.50400993095E+03  0.62594778480E+03  0.13328654908E+04  0.15294330000E+03 0.  0.
<mgrwt>
<rscale>  0 0.11767412E+04</rscale>
<asrwt>0</asrwt>
<pdfrwt beam="1">  1        2 0.23173998E+00 0.11767412E+04</pdfrwt>
<pdfrwt beam="2">  1       -2 0.15545653E+00 0.11767412E+04</pdfrwt>
<totfact> 0.33393888E+00</totfact>
</mgrwt>
</event>
<event>
 4    1  0.5410820E-008  0.3775436E+03  0.7818608E-02  0.1051845E+00
         -2   -1    0    0    0  501 -0.00000000000E+00  0.00000000000E+00  0.27881431699E+03  0.27881431701E+03  0.25500000000E-02 0.  1.
          2   -1    0    0  501    0  0.00000000000E+00 -0.00000000000E+00 -0.72843473976E+03  0.72843473977E+03  0.25500000000E-02 0. -1.
    8880022    1    1    2    0    0 -0.91207461499E+02  0.33290944489E+03  0.50196275167E+02  0.38086588005E+03  0.15294330000E+03 0.  0.
    8880022    1    1    2    0    0  0.91207461499E+02 -0.33290944489E+03 -0.49981669793E+03  0.62638317672E+03  0.15294330000E+03 0.  0.
<mgrwt>
<rscale>  0 0.37754358E+03</rscale>
<asrwt>0</asrwt>
<pdfrwt beam="1">  1        2 0.11206688E+00 0.37754358E+03</pdfrwt>
<pdfrwt beam="2">  1       -2 0.42894511E-01 0.37754358E+03</pdfrwt>
<totfact> 0.20752277E+02</totfact>
</mgrwt>
</event>
<event>
 4    1  0.5410820E-008  0.7454478E+03  0.7818608E-02  0.9642519E-01
         -2   -1    0    0    0  501 -0.00000000000E+00  0.00000000000E+00  0.88820700094E+03  0.88820700094E+03  0.25500000000E-02 0.  1.
          2   -1    0    0  501    0  0.00000000000E+00 -0.00000000000E+00 -0.13394671100E+04  0.13394671100E+04  0.25500000000E-02 0. -1.
    8880022    1    1    2    0    0  0.72954029674E+03  0.84654952769E+01  0.58748878923E+03  0.94912351127E+03  0.15294330000E+03 0.  0.
    8880022    1    1    2    0    0 -0.72954029674E+03 -0.84654952769E+01 -0.10387488982E+04  0.12785505996E+04  0.15294330000E+03 0.  0.
<mgrwt>
<rscale>  0 0.74544776E+03</rscale>
<asrwt>0</asrwt>
<pdfrwt beam="1">  1        2 0.20607186E+00 0.74544776E+03</pdfrwt>
<pdfrwt beam="2">  1       -2 0.13664723E+00 0.74544776E+03</pdfrwt>
<totfact> 0.61374374E+00</totfact>
</mgrwt>
</event>
<event>
 4    1  0.5410820E-008  0.6021950E+03  0.7818608E-02  0.9900863E-01
          2   -1    0    0  501    0  0.00000000000E+00  0.00000000000E+00  0.78891264042E+03  0.78891264043E+03  0.25500000000E-02 0. -1.
         -2   -1    0    0    0  501 -0.00000000000E+00 -0.00000000000E+00 -0.11430104138E+04  0.11430104139E+04  0.25500000000E-02 0.  1.
    8880022    1    1    2    0    0  0.36816925188E+03  0.45132973062E+03  0.56983582470E+03  0.82906673067E+03  0.15294330000E+03 0.  0.
    8880022    1    1    2    0    0 -0.36816925188E+03 -0.45132973062E+03 -0.92393359812E+03  0.11028563236E+04  0.15294330000E+03 0.  0.
<mgrwt>
<rscale>  0 0.60219497E+03</rscale>
<asrwt>0</asrwt>
<pdfrwt beam="1">  1        2 0.12137117E+00 0.60219497E+03</pdfrwt>
<pdfrwt beam="2">  1       -2 0.17584776E+00 0.60219497E+03</pdfrwt>
<totfact> 0.70681651E+00</totfact>
</mgrwt>
</event>
<event>
 4    1  0.5410820E-008  0.1912868E+03  0.7818608E-02  0.1157306E+00
          2   -1    0    0  501    0  0.00000000000E+00  0.00000000000E+00  0.14560014912E+04  0.14560014912E+04  0.25500000000E-02 0. -1.
         -2   -1    0    0    0  501 -0.00000000000E+00 -0.00000000000E+00 -0.88465954305E+02  0.88465954342E+02  0.25500000000E-02 0.  1.
    8880022    1    1    2    0    0 -0.10901489119E+03 -0.36259248194E+02  0.13371732028E+04  0.13507859959E+04  0.15294330000E+03 0. -1.
    8880022    1    1    2    0    0  0.10901489119E+03  0.36259248194E+02  0.30362334138E+02  0.19368144963E+03  0.15294330000E+03 0.  0.
<mgrwt>
<rscale>  0 0.19128678E+03</rscale>
<asrwt>0</asrwt>
<pdfrwt beam="1">  1        2 0.22400024E+00 0.19128678E+03</pdfrwt>
<pdfrwt beam="2">  1       -2 0.13610146E-01 0.19128678E+03</pdfrwt>
<totfact> 0.58812292E+02</totfact>
</mgrwt>
</event>
<event>
 4    1  0.5410820E-008  0.4645675E+03  0.7818608E-02  0.1023465E+00
          2   -1    0    0  501    0  0.00000000000E+00  0.00000000000E+00  0.10356388052E+04  0.10356388052E+04  0.25500000000E-02 0. -1.
         -2   -1    0    0    0  501 -0.00000000000E+00 -0.00000000000E+00 -0.11062243255E+04  0.11062243255E+04  0.25500000000E-02 0.  1.
    8880022    1    1    2    0    0 -0.19934028772E+03  0.39076177049E+03 -0.10000916017E+04  0.11027267007E+04  0.15294330000E+03 0.  1.
    8880022    1    1    2    0    0  0.19934028772E+03 -0.39076177049E+03  0.92950608144E+03  0.10391364299E+04  0.15294330000E+03 0.  0.
<mgrwt>
<rscale>  0 0.46456750E+03</rscale>
<asrwt>0</asrwt>
<pdfrwt beam="1">  1        2 0.15932905E+00 0.46456750E+03</pdfrwt>
<pdfrwt beam="2">  1       -2 0.17018836E+00 0.46456750E+03</pdfrwt>
<totfact> 0.54476244E+00</totfact>
</mgrwt>
</event>
<event>
 4    1  0.5410820E-008  0.9114528E+03  0.7818608E-02  0.9411377E-01
          2   -1    0    0  501    0  0.00000000000E+00  0.00000000000E+00  0.18954783677E+04  0.18954783677E+04  0.25500000000E-02 0. -1.
         -2   -1    0    0    0  501 -0.00000000000E+00 -0.00000000000E+00 -0.11231802409E+04  0.11231802409E+04  0.25500000000E-02 0.  1.
    8880022    1    1    2    0    0  0.86278451469E+03 -0.25091334550E+03  0.15647685089E+04  0.18108690635E+04  0.15294330000E+03 0.  0.
    8880022    1    1    2    0    0 -0.86278451469E+03  0.25091334550E+03 -0.79247038203E+03  0.12077895451E+04  0.15294330000E+03 0.  0.
<mgrwt>
<rscale>  0 0.91145284E+03</rscale>
<asrwt>0</asrwt>
<pdfrwt beam="1">  1        2 0.29161206E+00 0.91145284E+03</pdfrwt>
<pdfrwt beam="2">  1       -2 0.17279696E+00 0.91145284E+03</pdfrwt>
<totfact> 0.15696952E+00</totfact>
</mgrwt>
</event>
<event>
 4    1  0.5410820E-008  0.9033033E+03  0.7818608E-02  0.9421462E-01
         -2   -1    0    0    0  501 -0.00000000000E+00  0.00000000000E+00  0.14150494244E+04  0.14150494244E+04  0.25500000000E-02 0.  1.
          2   -1    0    0  501    0  0.00000000000E+00 -0.00000000000E+00 -0.77894592373E+03  0.77894592374E+03  0.25500000000E-02 0. -1.
    8880022    1    1    2    0    0 -0.14553493971E+03 -0.87828512762E+03  0.87712594408E+03  0.12590896548E+04  0.15294330000E+03 0.  0.
    8880022    1    1    2    0    0  0.14553493971E+03  0.87828512762E+03 -0.24102244346E+03  0.93490569328E+03  0.15294330000E+03 0.  0.
<mgrwt>
<rscale>  0 0.90330329E+03</rscale>
<asrwt>0</asrwt>
<pdfrwt beam="1">  1        2 0.11983784E+00 0.90330329E+03</pdfrwt>
<pdfrwt beam="2">  1       -2 0.21769991E+00 0.90330329E+03</pdfrwt>
<totfact> 0.36655336E+00</totfact>
</mgrwt>
</event>
<event>
 4    1  0.5410820E-008  0.6410556E+03  0.7818608E-02  0.9823709E-01
          2   -1    0    0  501    0  0.00000000000E+00  0.00000000000E+00  0.58025132758E+03  0.58025132758E+03  0.25500000000E-02 0. -1.
         -2   -1    0    0    0  501 -0.00000000000E+00 -0.00000000000E+00 -0.13252616342E+04  0.13252616342E+04  0.25500000000E-02 0.  1.
    8880022    1    1    2    0    0  0.28442584950E+03 -0.55377120574E+03  0.27760101672E+03  0.69858041031E+03  0.15294330000E+03 0.  0.
    8880022    1    1    2    0    0 -0.28442584950E+03  0.55377120574E+03 -0.10226113233E+04  0.12069325515E+04  0.15294330000E+03 0.  0.
<mgrwt>
<rscale>  0 0.64105559E+03</rscale>
<asrwt>0</asrwt>
<pdfrwt beam="1">  1        2 0.89269436E-01 0.64105559E+03</pdfrwt>
<pdfrwt beam="2">  1       -2 0.20388640E+00 0.64105559E+03</pdfrwt>
<totfact> 0.67048457E+00</totfact>
</mgrwt>
</event>
<event>
 4    1  0.5410820E-008  0.9099537E+03  0.7818608E-02  0.9413224E-01
         -2   -1    0    0    0  501 -0.00000000000E+00  0.00000000000E+00  0.45126458051E+03  0.45126458051E+03  0.25500000000E-02 0.  1.
          2   -1    0    0  501    0  0.00000000000E+00 -0.00000000000E+00 -0.22014711216E+04  0.22014711216E+04  0.25500000000E-02 0. -1.
    8880022    1    1    2    0    0 -0.73618983083E+03 -0.51249258049E+03 -0.33385161966E+03  0.96926398315E+03  0.15294330000E+03 0.  0.
    8880022    1    1    2    0    0  0.73618983083E+03  0.51249258049E+03 -0.14163549214E+04  0.16834717190E+04  0.15294330000E+03 0.  0.
<mgrwt>
<rscale>  0 0.90995372E+03</rscale>
<asrwt>0</asrwt>
<pdfrwt beam="1">  1        2 0.33868786E+00 0.90995372E+03</pdfrwt>
<pdfrwt beam="2">  1       -2 0.69425321E-01 0.90995372E+03</pdfrwt>
<totfact> 0.99213161E+00</totfact>
</mgrwt>
</event>
<event>
 4    1  0.5410820E-008  0.3405164E+03  0.7818608E-02  0.1066576E+00
         -2   -1    0    0    0  501 -0.00000000000E+00  0.00000000000E+00  0.94340747346E+03  0.94340747346E+03  0.25500000000E-02 0.  1.
          2   -1    0    0  501    0  0.00000000000E+00 -0.00000000000E+00 -0.42622931901E+03  0.42622931902E+03  0.25500000000E-02 0. -1.
    8880022    1    1    2    0    0 -0.28414746502E+03  0.10871964645E+03 -0.31911566333E+03  0.46667569360E+03  0.15294330000E+03 0.  0.
    8880022    1    1    2    0    0  0.28414746502E+03 -0.10871964645E+03  0.83629381778E+03  0.90296109887E+03  0.15294330000E+03 0.  1.
<mgrwt>
<rscale>  0 0.34051637E+03</rscale>
<asrwt>0</asrwt>
<pdfrwt beam="1">  1        2 0.65573742E-01 0.34051637E+03</pdfrwt>
<pdfrwt beam="2">  1       -2 0.14513961E+00 0.34051637E+03</pdfrwt>
<totfact> 0.25661177E+01</totfact>
</mgrwt>
</event>
<event>
 4    1  0.5410820E-008  0.4044639E+03  0.7818608E-02  0.1042245E+00
          2   -1    0    0  501    0  0.00000000000E+00  0.00000000000E+00  0.84932616550E+03  0.84932616551E+03  0.25500000000E-02 0. -1.
         -2   -1    0    0    0  501 -0.00000000000E+00 -0.00000000000E+00 -0.50370505203E+03  0.50370505204E+03  0.25500000000E-02 0.  1.
    8880022    1    1    2    0    0  0.22088679336E+03  0.30233829679E+03 -0.35884980075E+03  0.54070717925E+03  0.15294330000E+03 0.  0.
    8880022    1    1    2    0    0 -0.22088679336E+03 -0.30233829679E+03  0.70447091422E+03  0.81232403829E+03  0.15294330000E+03 0.  0.
<mgrwt>
<rscale>  0 0.40446393E+03</rscale>
<asrwt>0</asrwt>
<pdfrwt beam="1">  1        2 0.13066556E+00 0.40446393E+03</pdfrwt>
<pdfrwt beam="2">  1       -2 0.77493086E-01 0.40446393E+03</pdfrwt>
<totfact> 0.49679581E+01</totfact>
</mgrwt>
</event>
<event>
 4    1  0.5410820E-008  0.5374201E+03  0.7818608E-02  0.1004448E+00
         -2   -1    0    0    0  501 -0.00000000000E+00  0.00000000000E+00  0.83713033453E+03  0.83713033454E+03  0.25500000000E-02 0.  1.
          2   -1    0    0  501    0  0.00000000000E+00 -0.00000000000E+00 -0.15324930040E+04  0.15324930040E+04  0.25500000000E-02 0. -1.
    8880022    1    1    2    0    0  0.49052062258E+03 -0.15753795548E+03 -0.13906309684E+04  0.14908637872E+04  0.15294330000E+03 0.  0.
    8880022    1    1    2    0    0 -0.49052062258E+03  0.15753795548E+03  0.69526829894E+03  0.87875955137E+03  0.15294330000E+03 0.  0.
<mgrwt>
<rscale>  0 0.53742008E+03</rscale>
<asrwt>0</asrwt>
<pdfrwt beam="1">  1        2 0.23576816E+00 0.53742008E+03</pdfrwt>
<pdfrwt beam="2">  1       -2 0.12878928E+00 0.53742008E+03</pdfrwt>
<totfact> 0.57655373E+00</totfact>
</mgrwt>
</event>
<event>
 4    1  0.5410820E-008  0.3284264E+03  0.7818608E-02  0.1071835E+00
          2   -1    0    0  501    0  0.00000000000E+00  0.00000000000E+00  0.10657677268E+04  0.10657677268E+04  0.25500000000E-02 0. -1.
         -2   -1    0    0    0  501 -0.00000000000E+00 -0.00000000000E+00 -0.32010847236E+03  0.32010847237E+03  0.25500000000E-02 0.  1.
    8880022    1    1    2    0    0  0.27801760368E+03 -0.84725807194E+02 -0.20019000344E+03  0.38462961515E+03  0.15294330000E+03 0.  0.
    8880022    1    1    2    0    0 -0.27801760368E+03  0.84725807194E+02  0.94584925792E+03  0.10012465841E+04  0.15294330000E+03 0.  0.
<mgrwt>
<rscale>  0 0.32842640E+03</rscale>
<asrwt>0</asrwt>
<pdfrwt beam="1">  1        2 0.16396427E+00 0.32842640E+03</pdfrwt>
<pdfrwt beam="2">  1       -2 0.49247457E-01 0.32842640E+03</pdfrwt>
<totfact> 0.95022069E+01</totfact>
</mgrwt>
</event>
<event>
 4    1  0.5410820E-008  0.6178481E+03  0.7818608E-02  0.9869053E-01
         -2   -1    0    0    0  501 -0.00000000000E+00  0.00000000000E+00  0.11522741183E+04  0.11522741183E+04  0.25500000000E-02 0.  1.
          2   -1    0    0  501    0  0.00000000000E+00 -0.00000000000E+00 -0.36586375232E+04  0.36586375232E+04  0.25500000000E-02 0. -1.
    8880022    1    1    2    0    0  0.59284885445E+03 -0.82914869768E+02  0.10407834077E+04  0.12103579614E+04  0.15294330000E+03 0.  0.
    8880022    1    1    2    0    0 -0.59284885445E+03  0.82914869768E+02 -0.35471468126E+04  0.36005536801E+04  0.15294330000E+03 0.  0.
<mgrwt>
<rscale>  0 0.61784811E+03</rscale>
<asrwt>0</asrwt>
<pdfrwt beam="1">  1        2 0.56286731E+00 0.61784811E+03</pdfrwt>
<pdfrwt beam="2">  1       -2 0.17727294E+00 0.61784811E+03</pdfrwt>
<totfact> 0.13619075E-01</totfact>
</mgrwt>
</event>
<event>
 4    1  0.5410820E-008  0.2894656E+03  0.7818608E-02  0.1090628E+00
         -2   -1    0    0    0  501 -0.00000000000E+00  0.00000000000E+00  0.41550561233E+03  0.41550561233E+03  0.25500000000E-02 0.  1.
          2   -1    0    0  501    0  0.00000000000E+00 -0.00000000000E+00 -0.13069328470E+04  0.13069328470E+04  0.25500000000E-02 0. -1.
    8880022    1    1    2    0    0  0.23878983994E+03  0.58121357636E+02  0.34628073073E+03  0.45133211426E+03  0.15294330000E+03 0.  1.
    8880022    1    1    2    0    0 -0.23878983994E+03 -0.58121357636E+02 -0.12377079654E+04  0.12711063451E+04  0.15294330000E+03 0.  0.
<mgrwt>
<rscale>  0 0.28946560E+03</rscale>
<asrwt>0</asrwt>
<pdfrwt beam="1">  1        2 0.20106659E+00 0.28946560E+03</pdfrwt>
<pdfrwt beam="2">  1       -2 0.63923941E-01 0.28946560E+03</pdfrwt>
<totfact> 0.40710484E+01</totfact>
</mgrwt>
</event>
<event>
 4    1  0.5410820E-008  0.6705109E+03  0.7818608E-02  0.9769035E-01
         -2   -1    0    0    0  501 -0.00000000000E+00  0.00000000000E+00  0.62880855055E+03  0.62880855055E+03  0.25500000000E-02 0.  1.
          2   -1    0    0  501    0  0.00000000000E+00 -0.00000000000E+00 -0.12148828066E+04  0.12148828066E+04  0.25500000000E-02 0. -1.
    8880022    1    1    2    0    0 -0.22815621424E+02  0.65243592190E+03 -0.88437310461E+03  0.11098200872E+04  0.15294330000E+03 0.  0.
    8880022    1    1    2    0    0  0.22815621424E+02 -0.65243592190E+03  0.29829884858E+03  0.73387126994E+03  0.15294330000E+03 0.  0.
<mgrwt>
<rscale>  0 0.67051088E+03</rscale>
<asrwt>0</asrwt>
<pdfrwt beam="1">  1        2 0.18690505E+00 0.67051088E+03</pdfrwt>
<pdfrwt beam="2">  1       -2 0.96739777E-01 0.67051088E+03</pdfrwt>
<totfact> 0.17063272E+01</totfact>
</mgrwt>
</event>
<event>
 4    1  0.5410820E-008  0.2137936E+03  0.7818608E-02  0.1138597E+00
         -2   -1    0    0    0  501 -0.00000000000E+00  0.00000000000E+00  0.35941697674E+02  0.35941697764E+02  0.25500000000E-02 0.  1.
          2   -1    0    0  501    0  0.00000000000E+00 -0.00000000000E+00 -0.25602021413E+04  0.25602021413E+04  0.25500000000E-02 0. -1.
    8880022    1    1    2    0    0 -0.13294596318E+03  0.68127946705E+02 -0.34125415143E+03  0.40269354990E+03  0.15294330000E+03 0.  0.
    8880022    1    1    2    0    0  0.13294596318E+03 -0.68127946705E+02 -0.21830062922E+04  0.21934502891E+04  0.15294330000E+03 0. -1.
<mgrwt>
<rscale>  0 0.21379359E+03</rscale>
<asrwt>0</asrwt>
<pdfrwt beam="1">  1        2 0.39387711E+00 0.21379359E+03</pdfrwt>
<pdfrwt beam="2">  1       -2 0.55294940E-02 0.21379359E+03</pdfrwt>
<totfact> 0.63166120E+02</totfact>
</mgrwt>
</event>
<event>
 4    1  0.5410820E-008  0.4089985E+03  0.7818608E-02  0.1040708E+00
         -2   -1    0    0    0  501 -0.00000000000E+00  0.00000000000E+00  0.10508448068E+04  0.10508448068E+04  0.25500000000E-02 0.  1.
          2   -1    0    0  501    0  0.00000000000E+00 -0.00000000000E+00 -0.10281900980E+04  0.10281900980E+04  0.25500000000E-02 0. -1.
    8880022    1    1    2    0    0 -0.27633441907E+03  0.25986031691E+03  0.96699304927E+03  0.10499310957E+04  0.15294330000E+03 0.  0.
    8880022    1    1    2    0    0  0.27633441907E+03 -0.25986031691E+03 -0.94433834046E+03  0.10291038090E+04  0.15294330000E+03 0.  0.
<mgrwt>
<rscale>  0 0.40899847E+03</rscale>
<asrwt>0</asrwt>
<pdfrwt beam="1">  1        2 0.15818309E+00 0.40899847E+03</pdfrwt>
<pdfrwt beam="2">  1       -2 0.16166843E+00 0.40899847E+03</pdfrwt>
<totfact> 0.64127602E+00</totfact>
</mgrwt>
</event>
<event>
 4    1  0.5410820E-008  0.7790257E+03  0.7818608E-02  0.9590883E-01
         -2   -1    0    0    0  501 -0.00000000000E+00  0.00000000000E+00  0.55336594047E+03  0.55336594047E+03  0.25500000000E-02 0.  1.
          2   -1    0    0  501    0  0.00000000000E+00 -0.00000000000E+00 -0.18259038068E+04  0.18259038068E+04  0.25500000000E-02 0. -1.
    8880022    1    1    2    0    0  0.72572328462E+03 -0.23835907559E+03 -0.13880592871E+04  0.15917253444E+04  0.15294330000E+03 0.  0.
    8880022    1    1    2    0    0 -0.72572328462E+03  0.23835907559E+03  0.11552142073E+03  0.78754440282E+03  0.15294330000E+03 0.  0.
<mgrwt>
<rscale>  0 0.77902567E+03</rscale>
<asrwt>0</asrwt>
<pdfrwt beam="1">  1        2 0.28090828E+00 0.77902567E+03</pdfrwt>
<pdfrwt beam="2">  1       -2 0.85133222E-01 0.77902567E+03</pdfrwt>
<totfact> 0.10293592E+01</totfact>
</mgrwt>
</event>
<event>
 4    1  0.5410820E-008  0.6123460E+03  0.7818608E-02  0.9880118E-01
          2   -1    0    0  501    0  0.00000000000E+00  0.00000000000E+00  0.89022793242E+03  0.89022793242E+03  0.25500000000E-02 0. -1.
         -2   -1    0    0    0  501 -0.00000000000E+00 -0.00000000000E+00 -0.13873555831E+04  0.13873555831E+04  0.25500000000E-02 0.  1.
    8880022    1    1    2    0    0  0.21700695254E+03  0.55180062724E+03 -0.11988907804E+04  0.13462194123E+04  0.15294330000E+03 0.  0.
    8880022    1    1    2    0    0 -0.21700695254E+03 -0.55180062724E+03  0.70176312968E+03  0.93136410327E+03  0.15294330000E+03 0.  0.
<mgrwt>
<rscale>  0 0.61234598E+03</rscale>
<asrwt>0</asrwt>
<pdfrwt beam="1">  1        2 0.13695814E+00 0.61234598E+03</pdfrwt>
<pdfrwt beam="2">  1       -2 0.21343932E+00 0.61234598E+03</pdfrwt>
<totfact> 0.33967823E+00</totfact>
</mgrwt>
</event>
<event>
 4    1  0.5410820E-008  0.6398121E+03  0.7818608E-02  0.9826086E-01
         -2   -1    0    0    0  501 -0.00000000000E+00  0.00000000000E+00  0.17588899361E+03  0.17588899363E+03  0.25500000000E-02 0.  1.
          2   -1    0    0  501    0  0.00000000000E+00 -0.00000000000E+00 -0.31618109055E+04  0.31618109055E+04  0.25500000000E-02 0. -1.
    8880022    1    1    2    0    0 -0.45543317151E+03  0.42255001412E+03 -0.63563496327E+03  0.90188211408E+03  0.15294330000E+03 0.  1.
    8880022    1    1    2    0    0  0.45543317151E+03 -0.42255001412E+03 -0.23502869486E+04  0.24358177850E+04  0.15294330000E+03 0.  0.
<mgrwt>
<rscale>  0 0.63981211E+03</rscale>
<asrwt>0</asrwt>
<pdfrwt beam="1">  1        2 0.48643241E+00 0.63981211E+03</pdfrwt>
<pdfrwt beam="2">  1       -2 0.27059847E-01 0.63981211E+03</pdfrwt>
<totfact> 0.18517445E+01</totfact>
</mgrwt>
</event>
<event>
 4    1  0.5410820E-008  0.2005606E+03  0.7818608E-02  0.1149267E+00
         -2   -1    0    0    0  501 -0.00000000000E+00  0.00000000000E+00  0.75484917875E+02  0.75484917918E+02  0.25500000000E-02 0.  1.
          2   -1    0    0  501    0  0.00000000000E+00 -0.00000000000E+00 -0.69525878338E+03  0.69525878339E+03  0.25500000000E-02 0. -1.
    8880022    1    1    2    0    0 -0.12609610962E+03  0.30539790521E+02 -0.12364880565E+03  0.23561321656E+03  0.15294330000E+03 0.  0.
    8880022    1    1    2    0    0  0.12609610962E+03 -0.30539790521E+02 -0.49612505986E+03  0.53513048475E+03  0.15294330000E+03 0.  0.
<mgrwt>
<rscale>  0 0.20056062E+03</rscale>
<asrwt>0</asrwt>
<pdfrwt beam="1">  1        2 0.10696289E+00 0.20056062E+03</pdfrwt>
<pdfrwt beam="2">  1       -2 0.11613065E-01 0.20056062E+03</pdfrwt>
<totfact> 0.21903452E+03</totfact>
</mgrwt>
</event>
<event>
 4    1  0.5410820E-008  0.3998802E+03  0.7818608E-02  0.1043821E+00
         -2   -1    0    0    0  501 -0.00000000000E+00  0.00000000000E+00  0.76157448805E+02  0.76157448848E+02  0.25500000000E-02 0.  1.
          2   -1    0    0  501    0  0.00000000000E+00 -0.00000000000E+00 -0.28863180349E+04  0.28863180349E+04  0.25500000000E-02 0. -1.
    8880022    1    1    2    0    0  0.33278454836E+03 -0.16052080938E+03 -0.63178052366E+03  0.74769697669E+03  0.15294330000E+03 0.  0.
    8880022    1    1    2    0    0 -0.33278454836E+03  0.16052080938E+03 -0.21783800624E+04  0.22147785070E+04  0.15294330000E+03 0.  0.
<mgrwt>
<rscale>  0 0.39988016E+03</rscale>
<asrwt>0</asrwt>
<pdfrwt beam="1">  1        2 0.44404884E+00 0.39988016E+03</pdfrwt>
<pdfrwt beam="2">  1       -2 0.11716533E-01 0.39988016E+03</pdfrwt>
<totfact> 0.12079873E+02</totfact>
</mgrwt>
</event>
<event>
 4    1  0.5410820E-008  0.2748242E+03  0.7818608E-02  0.1098550E+00
          2   -1    0    0  501    0  0.00000000000E+00  0.00000000000E+00  0.24692005391E+04  0.24692005391E+04  0.25500000000E-02 0. -1.
         -2   -1    0    0    0  501 -0.00000000000E+00 -0.00000000000E+00 -0.34321683139E+03  0.34321683140E+03  0.25500000000E-02 0.  1.
    8880022    1    1    2    0    0  0.22495102089E+03  0.39162738305E+02  0.24050764143E+04  0.24207273480E+04  0.15294330000E+03 0. -1.
    8880022    1    1    2    0    0 -0.22495102089E+03 -0.39162738305E+02 -0.27909270655E+03  0.39169002251E+03  0.15294330000E+03 0.  0.
<mgrwt>
<rscale>  0 0.27482419E+03</rscale>
<asrwt>0</asrwt>
<pdfrwt beam="1">  1        2 0.37987701E+00 0.27482419E+03</pdfrwt>
<pdfrwt beam="2">  1       -2 0.52802589E-01 0.27482419E+03</pdfrwt>
<totfact> 0.14543859E+01</totfact>
</mgrwt>
</event>
<event>
 4    1  0.5410820E-008  0.1135667E+04  0.7818608E-02  0.9171109E-01
         -2   -1    0    0    0  501 -0.00000000000E+00  0.00000000000E+00  0.12280222635E+04  0.12280222636E+04  0.25500000000E-02 0.  1.
          2   -1    0    0  501    0  0.00000000000E+00 -0.00000000000E+00 -0.18303247878E+04  0.18303247878E+04  0.25500000000E-02 0. -1.
    8880022    1    1    2    0    0  0.89510044742E+03 -0.68201428480E+03 -0.12994456789E+04  0.17257749045E+04  0.15294330000E+03 0.  0.
    8880022    1    1    2    0    0 -0.89510044742E+03  0.68201428480E+03  0.69714315459E+03  0.13325721469E+04  0.15294330000E+03 0.  0.
<mgrwt>
<rscale>  0 0.11356672E+04</rscale>
<asrwt>0</asrwt>
<pdfrwt beam="1">  1        2 0.28158843E+00 0.11356672E+04</pdfrwt>
<pdfrwt beam="2">  1       -2 0.18892650E+00 0.11356672E+04</pdfrwt>
<totfact> 0.12797377E+00</totfact>
</mgrwt>
</event>
<event>
 4    1  0.7762593E-008  0.6597012E+03  0.7818608E-02  0.9788744E-01
         -2   -1    0    0    0  501 -0.00000000000E+00  0.00000000000E+00  0.11468095440E+04  0.11468095440E+04  0.25500000000E-02 0.  1.
          2   -1    0    0  501    0  0.00000000000E+00 -0.00000000000E+00 -0.29419109502E+04  0.29419109502E+04  0.25500000000E-02 0. -1.
    8880022    1    1    2    0    0 -0.62047485304E+03 -0.16378322658E+03 -0.28055037851E+04  0.28820230967E+04  0.15294330000E+03 0.  0.
    8880022    1    1    2    0    0  0.62047485304E+03  0.16378322658E+03  0.10104023790E+04  0.12066973975E+04  0.15294330000E+03 0.  0.
<mgrwt>
<rscale>  0 0.65970118E+03</rscale>
<asrwt>0</asrwt>
<pdfrwt beam="1">  1        2 0.45260168E+00 0.65970118E+03</pdfrwt>
<pdfrwt beam="2">  1       -2 0.17643224E+00 0.65970118E+03</pdfrwt>
<totfact> 0.39833649E-01</totfact>
</mgrwt>
</event>
<event>
 4    1  0.5410820E-008  0.4768002E+03  0.7818608E-02  0.1020018E+00
         -2   -1    0    0    0  501 -0.00000000000E+00  0.00000000000E+00  0.41438059577E+03  0.41438059578E+03  0.25500000000E-02 0.  1.
          2   -1    0    0  501    0  0.00000000000E+00 -0.00000000000E+00 -0.68278169458E+03  0.68278169459E+03  0.25500000000E-02 0. -1.
    8880022    1    1    2    0    0  0.36597965064E+03 -0.26458588303E+03  0.10896970073E+03  0.48909389985E+03  0.15294330000E+03 0.  0.
    8880022    1    1    2    0    0 -0.36597965064E+03  0.26458588303E+03 -0.37737079954E+03  0.60806839051E+03  0.15294330000E+03 0.  0.
<mgrwt>
<rscale>  0 0.47680022E+03</rscale>
<asrwt>0</asrwt>
<pdfrwt beam="1">  1        2 0.10504334E+00 0.47680022E+03</pdfrwt>
<pdfrwt beam="2">  1       -2 0.63750861E-01 0.47680022E+03</pdfrwt>
<totfact> 0.99412683E+01</totfact>
</mgrwt>
</event>
<event>
 4    1  0.5410820E-008  0.5266855E+03  0.7818608E-02  0.1007039E+00
         -2   -1    0    0    0  501 -0.00000000000E+00  0.00000000000E+00  0.31618824627E+03  0.31618824628E+03  0.25500000000E-02 0.  1.
          2   -1    0    0  501    0  0.00000000000E+00 -0.00000000000E+00 -0.16467372759E+04  0.16467372759E+04  0.25500000000E-02 0. -1.
    8880022    1    1    2    0    0  0.37268019952E+03 -0.33928661893E+03 -0.13361520355E+04  0.14362102409E+04  0.15294330000E+03 0. -1.
    8880022    1    1    2    0    0 -0.37268019952E+03  0.33928661893E+03  0.56030058825E+01  0.52671528133E+03  0.15294330000E+03 0.  0.
<mgrwt>
<rscale>  0 0.52668548E+03</rscale>
<asrwt>0</asrwt>
<pdfrwt beam="1">  1        2 0.25334419E+00 0.52668548E+03</pdfrwt>
<pdfrwt beam="2">  1       -2 0.48644346E-01 0.52668548E+03</pdfrwt>
<totfact> 0.44365941E+01</totfact>
</mgrwt>
</event>
<event>
 4    1  0.5410820E-008  0.2661054E+03  0.7818608E-02  0.1103529E+00
          2   -1    0    0  501    0  0.00000000000E+00  0.00000000000E+00  0.29163687224E+04  0.29163687224E+04  0.25500000000E-02 0. -1.
         -2   -1    0    0    0  501 -0.00000000000E+00 -0.00000000000E+00 -0.28954135934E+02  0.28954136047E+02  0.25500000000E-02 0.  1.
    8880022    1    1    2    0    0 -0.20086193147E+03 -0.84112488775E+02  0.85206922075E+03  0.89265560898E+03  0.15294330000E+03 0.  0.
    8880022    1    1    2    0    0  0.20086193147E+03  0.84112488775E+02  0.20353453657E+04  0.20526672495E+04  0.15294330000E+03 0. -1.
<mgrwt>
<rscale>  0 0.26610539E+03</rscale>
<asrwt>0</asrwt>
<pdfrwt beam="1">  1        2 0.44867197E+00 0.26610539E+03</pdfrwt>
<pdfrwt beam="2">  1       -2 0.44544839E-02 0.26610539E+03</pdfrwt>
<totfact> 0.54552524E+02</totfact>
</mgrwt>
</event>
<event>
 4    1  0.5576420E-008  0.1351565E+04  0.7818608E-02  0.8989645E-01
         -2   -1    0    0    0  501 -0.00000000000E+00  0.00000000000E+00  0.15954409353E+04  0.15954409353E+04  0.25500000000E-02 0.  1.
          2   -1    0    0  501    0  0.00000000000E+00 -0.00000000000E+00 -0.26148168886E+04  0.26148168886E+04  0.25500000000E-02 0. -1.
    8880022    1    1    2    0    0 -0.28396004464E+02  0.13425829277E+04  0.10686302671E+04  0.17229908740E+04  0.15294330000E+03 0.  0.
    8880022    1    1    2    0    0  0.28396004464E+02 -0.13425829277E+04 -0.20880062204E+04  0.24872669500E+04  0.15294330000E+03 0.  0.
<mgrwt>
<rscale>  0 0.13515646E+04</rscale>
<asrwt>0</asrwt>
<pdfrwt beam="1">  1        2 0.40227952E+00 0.13515646E+04</pdfrwt>
<pdfrwt beam="2">  1       -2 0.24545245E+00 0.13515646E+04</pdfrwt>
<totfact> 0.19563318E-01</totfact>
</mgrwt>
</event>
<event>
 4    1  0.5410820E-008  0.4248013E+03  0.7818608E-02  0.1035515E+00
          2   -1    0    0  501    0  0.00000000000E+00  0.00000000000E+00  0.29614792977E+04  0.29614792977E+04  0.25500000000E-02 0. -1.
         -2   -1    0    0    0  501 -0.00000000000E+00 -0.00000000000E+00 -0.19826196495E+03  0.19826196497E+03  0.25500000000E-02 0.  1.
    8880022    1    1    2    0    0  0.25388921297E+03  0.30431033529E+03  0.26964718795E+04  0.27297283312E+04  0.15294330000E+03 0.  0.
    8880022    1    1    2    0    0 -0.25388921297E+03 -0.30431033529E+03  0.66745453248E+02  0.43001293140E+03  0.15294330000E+03 0.  0.
<mgrwt>
<rscale>  0 0.42480132E+03</rscale>
<asrwt>0</asrwt>
<pdfrwt beam="1">  1        2 0.45561221E+00 0.42480132E+03</pdfrwt>
<pdfrwt beam="2">  1       -2 0.30501840E-01 0.42480132E+03</pdfrwt>
<totfact> 0.20788668E+01</totfact>
</mgrwt>
</event>
<event>
 4    1  0.5410820E-008  0.1039148E+04  0.7818608E-02  0.9266620E-01
          2   -1    0    0  501    0  0.00000000000E+00  0.00000000000E+00  0.17248237037E+04  0.17248237037E+04  0.25500000000E-02 0. -1.
         -2   -1    0    0    0  501 -0.00000000000E+00 -0.00000000000E+00 -0.24022497103E+04  0.24022497103E+04  0.25500000000E-02 0.  1.
    8880022    1    1    2    0    0 -0.80505356758E+03  0.63900392432E+03 -0.21131018794E+04  0.23547884125E+04  0.15294330000E+03 0.  0.
    8880022    1    1    2    0    0  0.80505356758E+03 -0.63900392432E+03  0.14356758728E+04  0.17722850016E+04  0.15294330000E+03 0.  0.
<mgrwt>
<rscale>  0 0.10391482E+04</rscale>
<asrwt>0</asrwt>
<pdfrwt beam="1">  1        2 0.26535749E+00 0.10391482E+04</pdfrwt>
<pdfrwt beam="2">  1       -2 0.36957688E+00 0.10391482E+04</pdfrwt>
<totfact> 0.11204798E-01</totfact>
</mgrwt>
</event>
<event>
 4    1  0.5410820E-008  0.2297560E+03  0.7818608E-02  0.1126812E+00
         -2   -1    0    0    0  501 -0.00000000000E+00  0.00000000000E+00  0.56758336179E+03  0.56758336179E+03  0.25500000000E-02 0.  1.
          2   -1    0    0  501    0  0.00000000000E+00 -0.00000000000E+00 -0.58036995193E+03  0.58036995193E+03  0.25500000000E-02 0. -1.
    8880022    1    1    2    0    0 -0.95197822015E+02 -0.14259575473E+03  0.51958657613E+03  0.56811797868E+03  0.15294330000E+03 0.  1.
    8880022    1    1    2    0    0  0.95197822015E+02  0.14259575473E+03 -0.53237316628E+03  0.57983533505E+03  0.15294330000E+03 0.  0.
<mgrwt>
<rscale>  0 0.22975602E+03</rscale>
<asrwt>0</asrwt>
<pdfrwt beam="1">  1        2 0.89287685E-01 0.22975602E+03</pdfrwt>
<pdfrwt beam="2">  1       -2 0.87320517E-01 0.22975602E+03</pdfrwt>
<totfact> 0.62696477E+01</totfact>
</mgrwt>
</event>
<event>
 4    1  0.5410820E-008  0.3131576E+03  0.7818608E-02  0.1078842E+00
         -2   -1    0    0    0  501 -0.00000000000E+00  0.00000000000E+00  0.20245132480E+03  0.20245132481E+03  0.25500000000E-02 0.  1.
          2   -1    0    0  501    0  0.00000000000E+00 -0.00000000000E+00 -0.12836682360E+04  0.12836682360E+04  0.25500000000E-02 0. -1.
    8880022    1    1    2    0    0 -0.24282971527E+03 -0.12533853534E+03  0.45723141141E+02  0.31647792610E+03  0.15294330000E+03 0.  0.
    8880022    1    1    2    0    0  0.24282971527E+03  0.12533853534E+03 -0.11269400523E+04  0.11696416347E+04  0.15294330000E+03 0.  0.
<mgrwt>
<rscale>  0 0.31315758E+03</rscale>
<asrwt>0</asrwt>
<pdfrwt beam="1">  1        2 0.19748742E+00 0.31315758E+03</pdfrwt>
<pdfrwt beam="2">  1       -2 0.31146358E-01 0.31315758E+03</pdfrwt>
<totfact> 0.17151204E+02</totfact>
</mgrwt>
</event>
<event>
 4    1  0.5410820E-008  0.6932189E+03  0.7818608E-02  0.9728900E-01
          2   -1    0    0  501    0  0.00000000000E+00  0.00000000000E+00  0.37820414200E+04  0.37820414200E+04  0.25500000000E-02 0. -1.
         -2   -1    0    0    0  501 -0.00000000000E+00 -0.00000000000E+00 -0.27228444282E+03  0.27228444283E+03  0.25500000000E-02 0.  1.
    8880022    1    1    2    0    0 -0.55079804580E+03 -0.39215082126E+03  0.32353315443E+04  0.33087645139E+04  0.15294330000E+03 0.  0.
    8880022    1    1    2    0    0  0.55079804580E+03  0.39215082126E+03  0.27442543297E+03  0.74556134902E+03  0.15294330000E+03 0.  0.
<mgrwt>
<rscale>  0 0.69321887E+03</rscale>
<asrwt>0</asrwt>
<pdfrwt beam="1">  1        2 0.58185248E+00 0.69321887E+03</pdfrwt>
<pdfrwt beam="2">  1       -2 0.41889918E-01 0.69321887E+03</pdfrwt>
<totfact> 0.30445499E+00</totfact>
</mgrwt>
</event>
<event>
 4    1  0.5410820E-008  0.7666498E+03  0.7818608E-02  0.9609585E-01
         -2   -1    0    0    0  501 -0.00000000000E+00  0.00000000000E+00  0.39622588864E+03  0.39622588865E+03  0.25500000000E-02 0.  1.
          2   -1    0    0  501    0  0.00000000000E+00 -0.00000000000E+00 -0.19464752066E+04  0.19464752066E+04  0.25500000000E-02 0. -1.
    8880022    1    1    2    0    0  0.30518938761E+03  0.68645449403E+03 -0.13464709979E+04  0.15494309071E+04  0.15294330000E+03 0.  0.
    8880022    1    1    2    0    0 -0.30518938761E+03 -0.68645449403E+03 -0.20377832007E+03  0.79327018816E+03  0.15294330000E+03 0.  0.
<mgrwt>
<rscale>  0 0.76664985E+03</rscale>
<asrwt>0</asrwt>
<pdfrwt beam="1">  1        2 0.29945772E+00 0.76664985E+03</pdfrwt>
<pdfrwt beam="2">  1       -2 0.60957830E-01 0.76664985E+03</pdfrwt>
<totfact> 0.18470086E+01</totfact>
</mgrwt>
</event>
<event>
 4    1  0.5410820E-008  0.6666542E+03  0.7818608E-02  0.9776021E-01
         -2   -1    0    0    0  501 -0.00000000000E+00  0.00000000000E+00  0.38845660958E+03  0.38845660959E+03  0.25500000000E-02 0.  1.
          2   -1    0    0  501    0  0.00000000000E+00 -0.00000000000E+00 -0.27508494164E+04  0.27508494164E+04  0.25500000000E-02 0. -1.
    8880022    1    1    2    0    0  0.49115590232E+03 -0.42403074289E+03  0.18430482175E+02  0.66690893456E+03  0.15294330000E+03 0.  1.
    8880022    1    1    2    0    0 -0.49115590232E+03  0.42403074289E+03 -0.23808232890E+04  0.24723970914E+04  0.15294330000E+03 0.  0.
<mgrwt>
<rscale>  0 0.66665422E+03</rscale>
<asrwt>0</asrwt>
<pdfrwt beam="1">  1        2 0.42320759E+00 0.66665422E+03</pdfrwt>
<pdfrwt beam="2">  1       -2 0.59762557E-01 0.66665422E+03</pdfrwt>
<totfact> 0.69454779E+00</totfact>
</mgrwt>
</event>
<event>
 4    1  0.5410820E-008  0.1724934E+03  0.7818608E-02  0.1175272E+00
          2   -1    0    0  501    0  0.00000000000E+00  0.00000000000E+00  0.14025960901E+04  0.14025960901E+04  0.25500000000E-02 0. -1.
         -2   -1    0    0    0  501 -0.00000000000E+00 -0.00000000000E+00 -0.57548171094E+03  0.57548171095E+03  0.25500000000E-02 0.  1.
    8880022    1    1    2    0    0 -0.12758866622E+02  0.78737016390E+02 -0.55708150276E+03  0.58317558262E+03  0.15294330000E+03 0.  1.
    8880022    1    1    2    0    0  0.12758866622E+02 -0.78737016390E+02  0.13841958820E+04  0.13949022185E+04  0.15294330000E+03 0.  0.
<mgrwt>
<rscale>  0 0.17249336E+03</rscale>
<asrwt>0</asrwt>
<pdfrwt beam="1">  1        2 0.21578401E+00 0.17249336E+03</pdfrwt>
<pdfrwt beam="2">  1       -2 0.88535648E-01 0.17249336E+03</pdfrwt>
<totfact> 0.18585683E+01</totfact>
</mgrwt>
</event>
<event>
 4    1  0.5410820E-008  0.6699076E+03  0.7818608E-02  0.9770125E-01
         -2   -1    0    0    0  501 -0.00000000000E+00  0.00000000000E+00  0.13223725539E+04  0.13223725539E+04  0.25500000000E-02 0.  1.
          2   -1    0    0  501    0  0.00000000000E+00 -0.00000000000E+00 -0.60436124900E+03  0.60436124901E+03  0.25500000000E-02 0. -1.
    8880022    1    1    2    0    0 -0.35093294365E+03 -0.54975505187E+03  0.99691292589E+03  0.12010876666E+04  0.15294330000E+03 0.  0.
    8880022    1    1    2    0    0  0.35093294365E+03  0.54975505187E+03 -0.27890162098E+03  0.72564613634E+03  0.15294330000E+03 0. -1.
<mgrwt>
<rscale>  0 0.66990761E+03</rscale>
<asrwt>0</asrwt>
<pdfrwt beam="1">  1        2 0.92978655E-01 0.66990761E+03</pdfrwt>
<pdfrwt beam="2">  1       -2 0.20344193E+00 0.66990761E+03</pdfrwt>
<totfact> 0.64021395E+00</totfact>
</mgrwt>
</event>
<event>
 4    1  0.5410820E-008  0.7914311E+03  0.7818608E-02  0.9572504E-01
         -2   -1    0    0    0  501 -0.00000000000E+00  0.00000000000E+00  0.83192679584E+03  0.83192679584E+03  0.25500000000E-02 0.  1.
          2   -1    0    0  501    0  0.00000000000E+00 -0.00000000000E+00 -0.23051708811E+04  0.23051708811E+04  0.25500000000E-02 0. -1.
    8880022    1    1    2    0    0  0.10020847304E+03  0.77001937976E+03  0.55052838351E+03  0.96407714284E+03  0.15294330000E+03 0.  0.
    8880022    1    1    2    0    0 -0.10020847304E+03 -0.77001937976E+03 -0.20237724688E+04  0.21730205341E+04  0.15294330000E+03 0. -1.
<mgrwt>
<rscale>  0 0.79143113E+03</rscale>
<asrwt>0</asrwt>
<pdfrwt beam="1">  1        2 0.35464167E+00 0.79143113E+03</pdfrwt>
<pdfrwt beam="2">  1       -2 0.12798874E+00 0.79143113E+03</pdfrwt>
<totfact> 0.21099777E+00</totfact>
</mgrwt>
</event>
<event>
 4    1  0.5410820E-008  0.8324350E+03  0.7818608E-02  0.9514220E-01
          2   -1    0    0  501    0  0.00000000000E+00  0.00000000000E+00  0.34954196984E+04  0.34954196984E+04  0.25500000000E-02 0. -1.
         -2   -1    0    0    0  501 -0.00000000000E+00 -0.00000000000E+00 -0.24231113849E+03  0.24231113850E+03  0.25500000000E-02 0.  1.
    8880022    1    1    2    0    0  0.79606959050E+03  0.18928719868E+03  0.82957726950E+03  0.11752219091E+04  0.15294330000E+03 0.  0.
    8880022    1    1    2    0    0 -0.79606959050E+03 -0.18928719868E+03  0.24235312904E+04  0.25625089278E+04  0.15294330000E+03 0.  0.
<mgrwt>
<rscale>  0 0.83243504E+03</rscale>
<asrwt>0</asrwt>
<pdfrwt beam="1">  1        2 0.53775685E+00 0.83243504E+03</pdfrwt>
<pdfrwt beam="2">  1       -2 0.37278638E-01 0.83243504E+03</pdfrwt>
<totfact> 0.59213307E+00</totfact>
</mgrwt>
</event>
<event>
 4    1  0.5410820E-008  0.7269940E+03  0.7818608E-02  0.9672151E-01
          2   -1    0    0  501    0  0.00000000000E+00  0.00000000000E+00  0.10576576355E+04  0.10576576355E+04  0.25500000000E-02 0. -1.
         -2   -1    0    0    0  501 -0.00000000000E+00 -0.00000000000E+00 -0.10405942255E+04  0.10405942255E+04  0.25500000000E-02 0.  1.
    8880022    1    1    2    0    0 -0.70723784189E+03 -0.70308557257E+02  0.76491120769E+03  0.10552769622E+04  0.15294330000E+03 0.  0.
    8880022    1    1    2    0    0  0.70723784189E+03  0.70308557257E+02 -0.74784779761E+03  0.10429748989E+04  0.15294330000E+03 0.  0.
<mgrwt>
<rscale>  0 0.72699402E+03</rscale>
<asrwt>0</asrwt>
<pdfrwt beam="1">  1        2 0.16271656E+00 0.72699402E+03</pdfrwt>
<pdfrwt beam="2">  1       -2 0.16009142E+00 0.72699402E+03</pdfrwt>
<totfact> 0.59574032E+00</totfact>
</mgrwt>
</event>
<event>
 4    1  0.5410820E-008  0.9435874E+03  0.7818608E-02  0.9372677E-01
         -2   -1    0    0    0  501 -0.00000000000E+00  0.00000000000E+00  0.62533688559E+03  0.62533688560E+03  0.25500000000E-02 0.  1.
          2   -1    0    0  501    0  0.00000000000E+00 -0.00000000000E+00 -0.22026451517E+04  0.22026451517E+04  0.25500000000E-02 0. -1.
    8880022    1    1    2    0    0 -0.74616660202E+03  0.55695691493E+03  0.52157640039E+02  0.94502787021E+03  0.15294330000E+03 0.  0.
    8880022    1    1    2    0    0  0.74616660202E+03 -0.55695691493E+03 -0.16294659062E+04  0.18829541671E+04  0.15294330000E+03 0. -1.
<mgrwt>
<rscale>  0 0.94358744E+03</rscale>
<asrwt>0</asrwt>
<pdfrwt beam="1">  1        2 0.33886848E+00 0.94358744E+03</pdfrwt>
<pdfrwt beam="2">  1       -2 0.96205676E-01 0.94358744E+03</pdfrwt>
<totfact> 0.47087041E+00</totfact>
</mgrwt>
</event>
<event>
 4    1  0.5410820E-008  0.3283909E+03  0.7818608E-02  0.1071851E+00
          2   -1    0    0  501    0  0.00000000000E+00  0.00000000000E+00  0.10397523930E+04  0.10397523930E+04  0.25500000000E-02 0. -1.
         -2   -1    0    0    0  501 -0.00000000000E+00 -0.00000000000E+00 -0.15214447238E+03  0.15214447240E+03  0.25500000000E-02 0.  1.
    8880022    1    1    2    0    0 -0.55909133309E+02 -0.28517207098E+03  0.10758366410E+03  0.34556452227E+03  0.15294330000E+03 0.  0.
    8880022    1    1    2    0    0  0.55909133309E+02  0.28517207098E+03  0.78002425656E+03  0.84633234317E+03  0.15294330000E+03 0.  0.
<mgrwt>
<rscale>  0 0.32839092E+03</rscale>
<asrwt>0</asrwt>
<pdfrwt beam="1">  1        2 0.15996190E+00 0.32839092E+03</pdfrwt>
<pdfrwt beam="2">  1       -2 0.23406842E-01 0.32839092E+03</pdfrwt>
<totfact> 0.39680757E+02</totfact>
</mgrwt>
</event>
<event>
 4    1  0.5410820E-008  0.9029871E+03  0.7818608E-02  0.9421855E-01
          2   -1    0    0  501    0  0.00000000000E+00  0.00000000000E+00  0.13020879916E+04  0.13020879916E+04  0.25500000000E-02 0. -1.
         -2   -1    0    0    0  501 -0.00000000000E+00 -0.00000000000E+00 -0.10957830100E+04  0.10957830100E+04  0.25500000000E-02 0.  1.
    8880022    1    1    2    0    0 -0.75898825185E+03 -0.46468372635E+03 -0.68169131070E+03  0.11314101060E+04  0.15294330000E+03 0.  0.
    8880022    1    1    2    0    0  0.75898825185E+03  0.46468372635E+03  0.88799629222E+03  0.12664608956E+04  0.15294330000E+03 0. -1.
<mgrwt>
<rscale>  0 0.90298715E+03</rscale>
<asrwt>0</asrwt>
<pdfrwt beam="1">  1        2 0.20032123E+00 0.90298715E+03</pdfrwt>
<pdfrwt beam="2">  1       -2 0.16858200E+00 0.90298715E+03</pdfrwt>
<totfact> 0.36075342E+00</totfact>
</mgrwt>
</event>
<event>
 4    1  0.5410820E-008  0.6467606E+03  0.7818608E-02  0.9812877E-01
          2   -1    0    0  501    0  0.00000000000E+00  0.00000000000E+00  0.13807296480E+04  0.13807296480E+04  0.25500000000E-02 0. -1.
         -2   -1    0    0    0  501 -0.00000000000E+00 -0.00000000000E+00 -0.80457321304E+03  0.80457321305E+03  0.25500000000E-02 0.  1.
    8880022    1    1    2    0    0 -0.26396465428E+03 -0.57028962150E+03 -0.57467266127E+03  0.86518663404E+03  0.15294330000E+03 0.  0.
    8880022    1    1    2    0    0  0.26396465428E+03  0.57028962150E+03  0.11508290963E+04  0.13201162270E+04  0.15294330000E+03 0.  0.
<mgrwt>
<rscale>  0 0.64676058E+03</rscale>
<asrwt>0</asrwt>
<pdfrwt beam="1">  1        2 0.21241994E+00 0.64676058E+03</pdfrwt>
<pdfrwt beam="2">  1       -2 0.12378050E+00 0.64676058E+03</pdfrwt>
<totfact> 0.75780134E+00</totfact>
</mgrwt>
</event>
<event>
 4    1  0.5410820E-008  0.5202910E+03  0.7818608E-02  0.1008614E+00
          2   -1    0    0  501    0  0.00000000000E+00  0.00000000000E+00  0.12302328806E+04  0.12302328806E+04  0.25500000000E-02 0. -1.
         -2   -1    0    0    0  501 -0.00000000000E+00 -0.00000000000E+00 -0.48042366966E+03  0.48042366967E+03  0.25500000000E-02 0.  1.
    8880022    1    1    2    0    0 -0.33273444300E+03 -0.36959288013E+03  0.10045933524E+04  0.11313313234E+04  0.15294330000E+03 0.  0.
    8880022    1    1    2    0    0  0.33273444300E+03  0.36959288013E+03 -0.25478414155E+03  0.57932522680E+03  0.15294330000E+03 0.  0.
<mgrwt>
<rscale>  0 0.52029103E+03</rscale>
<asrwt>0</asrwt>
<pdfrwt beam="1">  1        2 0.18926660E+00 0.52029103E+03</pdfrwt>
<pdfrwt beam="2">  1       -2 0.73911334E-01 0.52029103E+03</pdfrwt>
<totfact> 0.31436021E+01</totfact>
</mgrwt>
</event>
<event>
 4    1  0.5410820E-008  0.8885328E+03  0.7818608E-02  0.9440031E-01
         -2   -1    0    0    0  501 -0.00000000000E+00  0.00000000000E+00  0.74649750070E+03  0.74649750071E+03  0.25500000000E-02 0.  1.
          2   -1    0    0  501    0  0.00000000000E+00 -0.00000000000E+00 -0.14216727776E+04  0.14216727776E+04  0.25500000000E-02 0. -1.
    8880022    1    1    2    0    0 -0.78465259738E+03 -0.38783905784E+03  0.21102003992E+03  0.91324692369E+03  0.15294330000E+03 0.  0.
    8880022    1    1    2    0    0  0.78465259738E+03  0.38783905784E+03 -0.88619531679E+03  0.12549233546E+04  0.15294330000E+03 0.  0.
<mgrwt>
<rscale>  0 0.88853277E+03</rscale>
<asrwt>0</asrwt>
<pdfrwt beam="1">  1        2 0.21871889E+00 0.88853277E+03</pdfrwt>
<pdfrwt beam="2">  1       -2 0.11484577E+00 0.88853277E+03</pdfrwt>
<totfact> 0.83685945E+00</totfact>
</mgrwt>
</event>
<event>
 4    1  0.6552181E-008  0.9716497E+03  0.7818608E-02  0.9340197E-01
          2   -1    0    0  501    0  0.00000000000E+00  0.00000000000E+00  0.25777875669E+04  0.25777875669E+04  0.25500000000E-02 0. -1.
         -2   -1    0    0    0  501 -0.00000000000E+00 -0.00000000000E+00 -0.66913227509E+03  0.66913227509E+03  0.25500000000E-02 0.  1.
    8880022    1    1    2    0    0  0.91909554828E+03 -0.27563530716E+03 -0.13793161659E+03  0.98139096862E+03  0.15294330000E+03 0.  0.
    8880022    1    1    2    0    0 -0.91909554828E+03  0.27563530716E+03  0.20465869084E+04  0.22655288734E+04  0.15294330000E+03 0.  0.
<mgrwt>
<rscale>  0 0.97164968E+03</rscale>
<asrwt>0</asrwt>
<pdfrwt beam="1">  1        2 0.39658270E+00 0.97164968E+03</pdfrwt>
<pdfrwt beam="2">  1       -2 0.10294343E+00 0.97164968E+03</pdfrwt>
<totfact> 0.24512666E+00</totfact>
</mgrwt>
</event>
<event>
 4    1  0.5410820E-008  0.3269370E+03  0.7818608E-02  0.1072500E+00
         -2   -1    0    0    0  501 -0.00000000000E+00  0.00000000000E+00  0.27530098990E+03  0.27530098992E+03  0.25500000000E-02 0.  1.
          2   -1    0    0  501    0  0.00000000000E+00 -0.00000000000E+00 -0.15801507896E+04  0.15801507896E+04  0.25500000000E-02 0. -1.
    8880022    1    1    2    0    0 -0.48962414763E+02  0.28477860413E+03 -0.14581539052E+04  0.14943562613E+04  0.15294330000E+03 0. -1.
    8880022    1    1    2    0    0  0.48962414763E+02 -0.28477860413E+03  0.15330410557E+03  0.36109551815E+03  0.15294330000E+03 0.  0.
<mgrwt>
<rscale>  0 0.32693703E+03</rscale>
<asrwt>0</asrwt>
<pdfrwt beam="1">  1        2 0.24310012E+00 0.32693703E+03</pdfrwt>
<pdfrwt beam="2">  1       -2 0.42354000E-01 0.32693703E+03</pdfrwt>
<totfact> 0.65888097E+01</totfact>
</mgrwt>
</event>
<event>
 4    1  0.5410820E-008  0.9084956E+03  0.7818608E-02  0.9415023E-01
         -2   -1    0    0    0  501 -0.00000000000E+00  0.00000000000E+00  0.12365075826E+04  0.12365075826E+04  0.25500000000E-02 0.  1.
          2   -1    0    0  501    0  0.00000000000E+00 -0.00000000000E+00 -0.15261171723E+04  0.15261171723E+04  0.25500000000E-02 0. -1.
    8880022    1    1    2    0    0 -0.64770717301E+03  0.61842376921E+03  0.89128809504E+03  0.12726973960E+04  0.15294330000E+03 0.  0.
    8880022    1    1    2    0    0  0.64770717301E+03 -0.61842376921E+03 -0.11808976847E+04  0.14899273590E+04  0.15294330000E+03 0. -1.
<mgrwt>
<rscale>  0 0.90849557E+03</rscale>
<asrwt>0</asrwt>
<pdfrwt beam="1">  1        2 0.23478726E+00 0.90849557E+03</pdfrwt>
<pdfrwt beam="2">  1       -2 0.19023194E+00 0.90849557E+03</pdfrwt>
<totfact> 0.19060556E+00</totfact>
</mgrwt>
</event>
<event>
 4    1  0.5410820E-008  0.3964449E+03  0.7818608E-02  0.1045018E+00
         -2   -1    0    0    0  501 -0.00000000000E+00  0.00000000000E+00  0.37856809370E+03  0.37856809371E+03  0.25500000000E-02 0.  1.
          2   -1    0    0  501    0  0.00000000000E+00 -0.00000000000E+00 -0.62203074468E+03  0.62203074469E+03  0.25500000000E-02 0. -1.
    8880022    1    1    2    0    0 -0.34652029789E+03 -0.11704964777E+03  0.16678297574E+03  0.43009900128E+03  0.15294330000E+03 0.  0.
    8880022    1    1    2    0    0  0.34652029789E+03  0.11704964777E+03 -0.41024562672E+03  0.57049983712E+03  0.15294330000E+03 0.  0.
<mgrwt>
<rscale>  0 0.39644494E+03</rscale>
<asrwt>0</asrwt>
<pdfrwt beam="1">  1        2 0.95697038E-01 0.39644494E+03</pdfrwt>
<pdfrwt beam="2">  1       -2 0.58241245E-01 0.39644494E+03</pdfrwt>
<totfact> 0.13563654E+02</totfact>
</mgrwt>
</event>
<event>
 4    1  0.5410820E-008  0.5558863E+03  0.7818608E-02  0.1000141E+00
         -2   -1    0    0    0  501 -0.00000000000E+00  0.00000000000E+00  0.33290036346E+03  0.33290036347E+03  0.25500000000E-02 0.  1.
          2   -1    0    0  501    0  0.00000000000E+00 -0.00000000000E+00 -0.40725996051E+04  0.40725996051E+04  0.25500000000E-02 0. -1.
    8880022    1    1    2    0    0 -0.35221320551E+03  0.40194991756E+03 -0.38053615312E+04  0.38457490707E+04  0.15294330000E+03 0.  0.
    8880022    1    1    2    0    0  0.35221320551E+03 -0.40194991756E+03  0.65662289610E+02  0.55975089786E+03  0.15294330000E+03 0.  0.
<mgrwt>
<rscale>  0 0.55588626E+03</rscale>
<asrwt>0</asrwt>
<pdfrwt beam="1">  1        2 0.62655375E+00 0.55588626E+03</pdfrwt>
<pdfrwt beam="2">  1       -2 0.51215443E-01 0.55588626E+03</pdfrwt>
<totfact> 0.12687857E+00</totfact>
</mgrwt>
</event>
<event>
 4    1  0.5410820E-008  0.2756199E+03  0.7818608E-02  0.1098106E+00
          2   -1    0    0  501    0  0.00000000000E+00  0.00000000000E+00  0.54335814292E+03  0.54335814292E+03  0.25500000000E-02 0. -1.
         -2   -1    0    0    0  501 -0.00000000000E+00 -0.00000000000E+00 -0.43123598529E+03  0.43123598530E+03  0.25500000000E-02 0.  1.
    8880022    1    1    2    0    0 -0.96484386651E+02  0.20800351512E+03 -0.34452992168E+03  0.44121108227E+03  0.15294330000E+03 0.  1.
    8880022    1    1    2    0    0  0.96484386651E+02 -0.20800351512E+03  0.45665207930E+03  0.53338304596E+03  0.15294330000E+03 0.  0.
<mgrwt>
<rscale>  0 0.27561994E+03</rscale>
<asrwt>0</asrwt>
<pdfrwt beam="1">  1        2 0.83593561E-01 0.27561994E+03</pdfrwt>
<pdfrwt beam="2">  1       -2 0.66343997E-01 0.27561994E+03</pdfrwt>
<totfact> 0.12240323E+02</totfact>
</mgrwt>
</event>
<event>
 4    1  0.5410820E-008  0.5079965E+03  0.7818608E-02  0.1011713E+00
         -2   -1    0    0    0  501 -0.00000000000E+00  0.00000000000E+00  0.18755925445E+03  0.18755925447E+03  0.25500000000E-02 0.  1.
          2   -1    0    0  501    0  0.00000000000E+00 -0.00000000000E+00 -0.28691897205E+04  0.28691897205E+04  0.25500000000E-02 0. -1.
    8880022    1    1    2    0    0  0.48028732465E+03  0.63188818544E+02 -0.24434305792E+04  0.24956789435E+04  0.15294330000E+03 0.  0.
    8880022    1    1    2    0    0 -0.48028732465E+03 -0.63188818544E+02 -0.23819988683E+03  0.56107003138E+03  0.15294330000E+03 0.  0.
<mgrwt>
<rscale>  0 0.50799645E+03</rscale>
<asrwt>0</asrwt>
<pdfrwt beam="1">  1        2 0.44141377E+00 0.50799645E+03</pdfrwt>
<pdfrwt beam="2">  1       -2 0.28855272E-01 0.50799645E+03</pdfrwt>
<totfact> 0.25545516E+01</totfact>
</mgrwt>
</event>
<event>
 4    1  0.5410820E-008  0.9301456E+03  0.7818608E-02  0.9388663E-01
          2   -1    0    0  501    0  0.00000000000E+00  0.00000000000E+00  0.19453716773E+04  0.19453716773E+04  0.25500000000E-02 0. -1.
         -2   -1    0    0    0  501 -0.00000000000E+00 -0.00000000000E+00 -0.62864207532E+03  0.62864207532E+03  0.25500000000E-02 0.  1.
    8880022    1    1    2    0    0 -0.28641777614E+03 -0.87163293872E+03  0.13544795742E+04  0.16431024595E+04  0.15294330000E+03 0.  0.
    8880022    1    1    2    0    0  0.28641777614E+03  0.87163293872E+03 -0.37749972215E+02  0.93091129317E+03  0.15294330000E+03 0.  0.
<mgrwt>
<rscale>  0 0.93014557E+03</rscale>
<asrwt>0</asrwt>
<pdfrwt beam="1">  1        2 0.29928795E+00 0.93014557E+03</pdfrwt>
<pdfrwt beam="2">  1       -2 0.96714166E-01 0.93014557E+03</pdfrwt>
<totfact> 0.64589949E+00</totfact>
</mgrwt>
</event>
<event>
 4    1  0.5410820E-008  0.8295785E+03  0.7818608E-02  0.9518163E-01
          2   -1    0    0  501    0  0.00000000000E+00  0.00000000000E+00  0.10840860732E+04  0.10840860732E+04  0.25500000000E-02 0. -1.
         -2   -1    0    0    0  501 -0.00000000000E+00 -0.00000000000E+00 -0.94661391958E+03  0.94661391958E+03  0.25500000000E-02 0.  1.
    8880022    1    1    2    0    0  0.44223970058E+03  0.68500579947E+03 -0.51398736265E+03  0.97590140898E+03  0.15294330000E+03 0.  0.
    8880022    1    1    2    0    0 -0.44223970058E+03 -0.68500579947E+03  0.65145951630E+03  0.10547985838E+04  0.15294330000E+03 0.  0.
<mgrwt>
<rscale>  0 0.82957854E+03</rscale>
<asrwt>0</asrwt>
<pdfrwt beam="1">  1        2 0.16678247E+00 0.82957854E+03</pdfrwt>
<pdfrwt beam="2">  1       -2 0.14563291E+00 0.82957854E+03</pdfrwt>
<totfact> 0.72873669E+00</totfact>
</mgrwt>
</event>
<event>
 4    1  0.5410820E-008  0.5259414E+03  0.7818608E-02  0.1007221E+00
         -2   -1    0    0    0  501 -0.00000000000E+00  0.00000000000E+00  0.18125912757E+03  0.18125912759E+03  0.25500000000E-02 0.  1.
          2   -1    0    0  501    0  0.00000000000E+00 -0.00000000000E+00 -0.17371895651E+04  0.17371895651E+04  0.25500000000E-02 0. -1.
    8880022    1    1    2    0    0  0.48438894853E+03  0.13634550041E+03 -0.11123597841E+04  0.12304302870E+04  0.15294330000E+03 0. -1.
    8880022    1    1    2    0    0 -0.48438894853E+03 -0.13634550041E+03 -0.44357065341E+03  0.68801840566E+03  0.15294330000E+03 0.  0.
<mgrwt>
<rscale>  0 0.52594144E+03</rscale>
<asrwt>0</asrwt>
<pdfrwt beam="1">  1        2 0.26725992E+00 0.52594144E+03</pdfrwt>
<pdfrwt beam="2">  1       -2 0.27886021E-01 0.52594144E+03</pdfrwt>
<totfact> 0.11494982E+02</totfact>
</mgrwt>
</event>
<event>
 4    1  0.5410820E-008  0.6961293E+03  0.7818608E-02  0.9723875E-01
         -2   -1    0    0    0  501 -0.00000000000E+00  0.00000000000E+00  0.40966139178E+03  0.40966139178E+03  0.25500000000E-02 0.  1.
          2   -1    0    0  501    0  0.00000000000E+00 -0.00000000000E+00 -0.30858234454E+04  0.30858234454E+04  0.25500000000E-02 0. -1.
    8880022    1    1    2    0    0 -0.58781859141E+03 -0.34010836777E+03 -0.27105433584E+04  0.27985069857E+04  0.15294330000E+03 0.  0.
    8880022    1    1    2    0    0  0.58781859141E+03  0.34010836777E+03  0.34381304840E+02  0.69697785142E+03  0.15294330000E+03 0.  0.
<mgrwt>
<rscale>  0 0.69612934E+03</rscale>
<asrwt>0</asrwt>
<pdfrwt beam="1">  1        2 0.47474205E+00 0.69612934E+03</pdfrwt>
<pdfrwt beam="2">  1       -2 0.63024832E-01 0.69612934E+03</pdfrwt>
<totfact> 0.38773671E+00</totfact>
</mgrwt>
</event>
<event>
 4    1  0.5410820E-008  0.7638723E+03  0.7818608E-02  0.9613835E-01
          2   -1    0    0  501    0  0.00000000000E+00  0.00000000000E+00  0.24436025549E+04  0.24436025549E+04  0.25500000000E-02 0. -1.
         -2   -1    0    0    0  501 -0.00000000000E+00 -0.00000000000E+00 -0.38674794082E+03  0.38674794083E+03  0.25500000000E-02 0.  1.
    8880022    1    1    2    0    0  0.73051587605E+03  0.16265227796E+03  0.15310185298E+03  0.77906420730E+03  0.15294330000E+03 0.  0.
    8880022    1    1    2    0    0 -0.73051587605E+03 -0.16265227796E+03  0.19037527611E+04  0.20512862884E+04  0.15294330000E+03 0.  0.
<mgrwt>
<rscale>  0 0.76387228E+03</rscale>
<asrwt>0</asrwt>
<pdfrwt beam="1">  1        2 0.37593886E+00 0.76387228E+03</pdfrwt>
<pdfrwt beam="2">  1       -2 0.59499683E-01 0.76387228E+03</pdfrwt>
<totfact> 0.10333101E+01</totfact>
</mgrwt>
</event>
<event>
 4    1  0.5410820E-008  0.4434373E+03  0.7818608E-02  0.1029697E+00
         -2   -1    0    0    0  501 -0.00000000000E+00  0.00000000000E+00  0.17734996173E+04  0.17734996173E+04  0.25500000000E-02 0.  1.
          2   -1    0    0  501    0  0.00000000000E+00 -0.00000000000E+00 -0.55217620578E+03  0.55217620579E+03  0.25500000000E-02 0. -1.
    8880022    1    1    2    0    0 -0.26770601787E+03 -0.31871376652E+03  0.16502178132E+04  0.17087584560E+04  0.15294330000E+03 0.  0.
    8880022    1    1    2    0    0  0.26770601787E+03  0.31871376652E+03 -0.42889440169E+03  0.61691736707E+03  0.15294330000E+03 0.  0.
<mgrwt>
<rscale>  0 0.44343729E+03</rscale>
<asrwt>0</asrwt>
<pdfrwt beam="1">  1        2 0.84950185E-01 0.44343729E+03</pdfrwt>
<pdfrwt beam="2">  1       -2 0.27284610E+00 0.44343729E+03</pdfrwt>
<totfact> 0.28023120E+00</totfact>
</mgrwt>
</event>
<event>
 4    1  0.5410820E-008  0.4843741E+03  0.7818608E-02  0.1017940E+00
         -2   -1    0    0    0  501 -0.00000000000E+00  0.00000000000E+00  0.13888888674E+04  0.13888888674E+04  0.25500000000E-02 0.  1.
          2   -1    0    0  501    0  0.00000000000E+00 -0.00000000000E+00 -0.29936877385E+03  0.29936877386E+03  0.25500000000E-02 0. -1.
    8880022    1    1    2    0    0  0.45890029516E+03  0.25241897835E+02  0.11019674454E+04  0.12037236137E+04  0.15294330000E+03 0. -1.
    8880022    1    1    2    0    0 -0.45890029516E+03 -0.25241897835E+02 -0.12447351885E+02  0.48453402759E+03  0.15294330000E+03 0.  0.
<mgrwt>
<rscale>  0 0.48437412E+03</rscale>
<asrwt>0</asrwt>
<pdfrwt beam="1">  1        2 0.46056734E-01 0.48437412E+03</pdfrwt>
<pdfrwt beam="2">  1       -2 0.21367521E+00 0.48437412E+03</pdfrwt>
<totfact> 0.12561426E+01</totfact>
</mgrwt>
</event>
<event>
 4    1  0.5410820E-008  0.3166219E+03  0.7818608E-02  0.1077215E+00
          2   -1    0    0  501    0  0.00000000000E+00  0.00000000000E+00  0.39910389983E+03  0.39910389983E+03  0.25500000000E-02 0. -1.
         -2   -1    0    0    0  501 -0.00000000000E+00 -0.00000000000E+00 -0.44622853669E+03  0.44622853670E+03  0.25500000000E-02 0.  1.
    8880022    1    1    2    0    0  0.99929114410E+02  0.25859614247E+03  0.25587420115E+03  0.40708850713E+03  0.15294330000E+03 0.  0.
    8880022    1    1    2    0    0 -0.99929114410E+02 -0.25859614247E+03 -0.30299883801E+03  0.43824392940E+03  0.15294330000E+03 0.  0.
<mgrwt>
<rscale>  0 0.31662193E+03</rscale>
<asrwt>0</asrwt>
<pdfrwt beam="1">  1        2 0.61400600E-01 0.31662193E+03</pdfrwt>
<pdfrwt beam="2">  1       -2 0.68650544E-01 0.31662193E+03</pdfrwt>
<totfact> 0.15998642E+02</totfact>
</mgrwt>
</event>
<event>
 4    1  0.5410820E-008  0.6036794E+03  0.7818608E-02  0.9897802E-01
          2   -1    0    0  501    0  0.00000000000E+00  0.00000000000E+00  0.26884730874E+04  0.26884730874E+04  0.25500000000E-02 0. -1.
         -2   -1    0    0    0  501 -0.00000000000E+00 -0.00000000000E+00 -0.15810289361E+03  0.15810289363E+03  0.25500000000E-02 0.  1.
    8880022    1    1    2    0    0 -0.21831369153E+03 -0.54164224188E+03  0.72765671010E+03  0.94546979162E+03  0.15294330000E+03 0.  0.
    8880022    1    1    2    0    0  0.21831369153E+03  0.54164224188E+03  0.18027134837E+04  0.19011061894E+04  0.15294330000E+03 0.  0.
<mgrwt>
<rscale>  0 0.60367942E+03</rscale>
<asrwt>0</asrwt>
<pdfrwt beam="1">  1        2 0.41361124E+00 0.60367942E+03</pdfrwt>
<pdfrwt beam="2">  1       -2 0.24323523E-01 0.60367942E+03</pdfrwt>
<totfact> 0.43519201E+01</totfact>
</mgrwt>
</event>
<event>
 4    1  0.5410820E-008  0.5652088E+03  0.7818608E-02  0.9980337E-01
          2   -1    0    0  501    0  0.00000000000E+00  0.00000000000E+00  0.55495091725E+03  0.55495091725E+03  0.25500000000E-02 0. -1.
         -2   -1    0    0    0  501 -0.00000000000E+00 -0.00000000000E+00 -0.84696269737E+03  0.84696269737E+03  0.25500000000E-02 0.  1.
    8880022    1    1    2    0    0  0.45068599749E+03  0.30487940379E+03 -0.54273051799E+03  0.78359261569E+03  0.15294330000E+03 0.  0.
    8880022    1    1    2    0    0 -0.45068599749E+03 -0.30487940379E+03  0.25071873787E+03  0.61832099893E+03  0.15294330000E+03 0.  0.
<mgrwt>
<rscale>  0 0.56520879E+03</rscale>
<asrwt>0</asrwt>
<pdfrwt beam="1">  1        2 0.85377064E-01 0.56520879E+03</pdfrwt>
<pdfrwt beam="2">  1       -2 0.13030195E+00 0.56520879E+03</pdfrwt>
<totfact> 0.24252642E+01</totfact>
</mgrwt>
</event>
<event>
 4    1  0.5410820E-008  0.4164774E+03  0.7818608E-02  0.1038219E+00
         -2   -1    0    0    0  501 -0.00000000000E+00  0.00000000000E+00  0.42399908339E+03  0.42399908340E+03  0.25500000000E-02 0.  1.
          2   -1    0    0  501    0  0.00000000000E+00 -0.00000000000E+00 -0.16672209863E+04  0.16672209863E+04  0.25500000000E-02 0. -1.
    8880022    1    1    2    0    0  0.51717120964E+02  0.38391031815E+03 -0.15299254066E+04  0.15855993176E+04  0.15294330000E+03 0. -1.
    8880022    1    1    2    0    0 -0.51717120964E+02 -0.38391031815E+03  0.28670350369E+03  0.50562075217E+03  0.15294330000E+03 0.  0.
<mgrwt>
<rscale>  0 0.41647743E+03</rscale>
<asrwt>0</asrwt>
<pdfrwt beam="1">  1        2 0.25649553E+00 0.41647743E+03</pdfrwt>
<pdfrwt beam="2">  1       -2 0.65230629E-01 0.41647743E+03</pdfrwt>
<totfact> 0.24061788E+01</totfact>
</mgrwt>
</event>
<event>
 4    1  0.5410820E-008  0.2491733E+03  0.7818608E-02  0.1113828E+00
          2   -1    0    0  501    0  0.00000000000E+00  0.00000000000E+00  0.14665324972E+04  0.14665324972E+04  0.25500000000E-02 0. -1.
         -2   -1    0    0    0  501 -0.00000000000E+00 -0.00000000000E+00 -0.34929465627E+03  0.34929465628E+03  0.25500000000E-02 0.  1.
    8880022    1    1    2    0    0  0.13292319820E+03  0.14500725653E+03 -0.29249634273E+03  0.38424138844E+03  0.15294330000E+03 0.  0.
    8880022    1    1    2    0    0 -0.13292319820E+03 -0.14500725653E+03  0.14097341837E+04  0.14315857651E+04  0.15294330000E+03 0. -1.
<mgrwt>
<rscale>  0 0.24917330E+03</rscale>
<asrwt>0</asrwt>
<pdfrwt beam="1">  1        2 0.22562038E+00 0.24917330E+03</pdfrwt>
<pdfrwt beam="2">  1       -2 0.53737640E-01 0.24917330E+03</pdfrwt>
<totfact> 0.48275500E+01</totfact>
</mgrwt>
</event>
<event>
 4    1  0.5410820E-008  0.7115562E+03  0.7818608E-02  0.9697671E-01
          2   -1    0    0  501    0  0.00000000000E+00  0.00000000000E+00  0.65758720586E+03  0.65758720586E+03  0.25500000000E-02 0. -1.
         -2   -1    0    0    0  501 -0.00000000000E+00 -0.00000000000E+00 -0.81230232944E+03  0.81230232944E+03  0.25500000000E-02 0.  1.
    8880022    1    1    2    0    0 -0.60622328081E+03  0.33972619900E+03 -0.24516514288E+03  0.75260757157E+03  0.15294330000E+03 0.  0.
    8880022    1    1    2    0    0  0.60622328081E+03 -0.33972619900E+03  0.90450019306E+02  0.71728196373E+03  0.15294330000E+03 0.  0.
<mgrwt>
<rscale>  0 0.71155619E+03</rscale>
<asrwt>0</asrwt>
<pdfrwt beam="1">  1        2 0.10116726E+00 0.71155619E+03</pdfrwt>
<pdfrwt beam="2">  1       -2 0.12496959E+00 0.71155619E+03</pdfrwt>
<totfact> 0.21628797E+01</totfact>
</mgrwt>
</event>
<event>
 4    1  0.5410820E-008  0.3998872E+03  0.7818608E-02  0.1043819E+00
         -2   -1    0    0    0  501 -0.00000000000E+00  0.00000000000E+00  0.32854731833E+04  0.32854731833E+04  0.25500000000E-02 0.  1.
          2   -1    0    0  501    0  0.00000000000E+00 -0.00000000000E+00 -0.10038783095E+04  0.10038783095E+04  0.25500000000E-02 0. -1.
    8880022    1    1    2    0    0  0.56033411065E+02 -0.36521006184E+03  0.32328363064E+04  0.32574745386E+04  0.15294330000E+03 0.  0.
    8880022    1    1    2    0    0 -0.56033411065E+02  0.36521006184E+03 -0.95124143267E+03  0.10318769542E+04  0.15294330000E+03 0. -1.
<mgrwt>
<rscale>  0 0.39988722E+03</rscale>
<asrwt>0</asrwt>
<pdfrwt beam="1">  1        2 0.15444282E+00 0.39988722E+03</pdfrwt>
<pdfrwt beam="2">  1       -2 0.50545740E+00 0.39988722E+03</pdfrwt>
<totfact> 0.45650660E-02</totfact>
</mgrwt>
</event>
<event>
 4    1  0.5410820E-008  0.4316291E+03  0.7818608E-02  0.1033347E+00
          2   -1    0    0  501    0  0.00000000000E+00  0.00000000000E+00  0.55150611655E+03  0.55150611655E+03  0.25500000000E-02 0. -1.
         -2   -1    0    0    0  501 -0.00000000000E+00 -0.00000000000E+00 -0.48801079069E+03  0.48801079070E+03  0.25500000000E-02 0.  1.
    8880022    1    1    2    0    0 -0.34068390493E+03  0.21644060318E+03  0.32010064950E+03  0.53737150707E+03  0.15294330000E+03 0.  0.
    8880022    1    1    2    0    0  0.34068390493E+03 -0.21644060318E+03 -0.25660532364E+03  0.50214540018E+03  0.15294330000E+03 0.  0.
<mgrwt>
<rscale>  0 0.43162914E+03</rscale>
<asrwt>0</asrwt>
<pdfrwt beam="1">  1        2 0.84847095E-01 0.43162914E+03</pdfrwt>
<pdfrwt beam="2">  1       -2 0.75078583E-01 0.43162914E+03</pdfrwt>
<totfact> 0.90521778E+01</totfact>
</mgrwt>
</event>
<event>
 4    1  0.5410820E-008  0.8472905E+03  0.7818608E-02  0.9493981E-01
          2   -1    0    0  501    0  0.00000000000E+00  0.00000000000E+00  0.13950659414E+04  0.13950659414E+04  0.25500000000E-02 0. -1.
         -2   -1    0    0    0  501 -0.00000000000E+00 -0.00000000000E+00 -0.76644143502E+03  0.76644143503E+03  0.25500000000E-02 0.  1.
    8880022    1    1    2    0    0 -0.77184299594E+03  0.31427375615E+03  0.93382554856E+03  0.12609248242E+04  0.15294330000E+03 0.  0.
    8880022    1    1    2    0    0  0.77184299594E+03 -0.31427375615E+03 -0.30520104218E+03  0.90058255221E+03  0.15294330000E+03 0.  0.
<mgrwt>
<rscale>  0 0.84729054E+03</rscale>
<asrwt>0</asrwt>
<pdfrwt beam="1">  1        2 0.21462553E+00 0.84729054E+03</pdfrwt>
<pdfrwt beam="2">  1       -2 0.11791407E+00 0.84729054E+03</pdfrwt>
<totfact> 0.81613514E+00</totfact>
</mgrwt>
</event>
<event>
 4    1  0.5410820E-008  0.7362849E+03  0.7818608E-02  0.9657116E-01
         -2   -1    0    0    0  501 -0.00000000000E+00  0.00000000000E+00  0.29703181381E+03  0.29703181382E+03  0.25500000000E-02 0.  1.
          2   -1    0    0  501    0  0.00000000000E+00 -0.00000000000E+00 -0.28147708626E+04  0.28147708626E+04  0.25500000000E-02 0. -1.
    8880022    1    1    2    0    0 -0.59868061297E+03 -0.40038153918E+03 -0.33628981900E+03  0.80944817539E+03  0.15294330000E+03 0.  0.
    8880022    1    1    2    0    0  0.59868061297E+03  0.40038153918E+03 -0.21814492298E+04  0.23023545011E+04  0.15294330000E+03 0.  0.
<mgrwt>
<rscale>  0 0.73628494E+03</rscale>
<asrwt>0</asrwt>
<pdfrwt beam="1">  1        2 0.43304165E+00 0.73628494E+03</pdfrwt>
<pdfrwt beam="2">  1       -2 0.45697204E-01 0.73628494E+03</pdfrwt>
<totfact> 0.10901050E+01</totfact>
</mgrwt>
</event>
<event>
 4    1  0.5410820E-008  0.2294553E+03  0.7818608E-02  0.1127024E+00
         -2   -1    0    0    0  501 -0.00000000000E+00  0.00000000000E+00  0.23411105270E+03  0.23411105271E+03  0.25500000000E-02 0.  1.
          2   -1    0    0  501    0  0.00000000000E+00 -0.00000000000E+00 -0.77073774300E+03  0.77073774301E+03  0.25500000000E-02 0. -1.
    8880022    1    1    2    0    0 -0.41174789161E+02  0.16602021507E+03 -0.69113023587E+03  0.72822436860E+03  0.15294330000E+03 0.  0.
    8880022    1    1    2    0    0  0.41174789161E+02 -0.16602021507E+03  0.15450354556E+03  0.27662442712E+03  0.15294330000E+03 0.  1.
<mgrwt>
<rscale>  0 0.22945529E+03</rscale>
<asrwt>0</asrwt>
<pdfrwt beam="1">  1        2 0.11857504E+00 0.22945529E+03</pdfrwt>
<pdfrwt beam="2">  1       -2 0.36017085E-01 0.22945529E+03</pdfrwt>
<totfact> 0.27436989E+02</totfact>
</mgrwt>
</event>
<event>
 4    1  0.5410820E-008  0.6713029E+03  0.7818608E-02  0.9767607E-01
          2   -1    0    0  501    0  0.00000000000E+00  0.00000000000E+00  0.42219201238E+04  0.42219201238E+04  0.25500000000E-02 0. -1.
         -2   -1    0    0    0  501 -0.00000000000E+00 -0.00000000000E+00 -0.28696849600E+03  0.28696849601E+03  0.25500000000E-02 0.  1.
    8880022    1    1    2    0    0  0.62036818450E+03  0.20591068244E+03  0.18084759417E+03  0.69523621800E+03  0.15294330000E+03 0.  0.
    8880022    1    1    2    0    0 -0.62036818450E+03 -0.20591068244E+03  0.37541040336E+04  0.38136524018E+04  0.15294330000E+03 0.  0.
<mgrwt>
<rscale>  0 0.67130287E+03</rscale>
<asrwt>0</asrwt>
<pdfrwt beam="1">  1        2 0.64952614E+00 0.67130287E+03</pdfrwt>
<pdfrwt beam="2">  1       -2 0.44149002E-01 0.67130287E+03</pdfrwt>
<totfact> 0.12418136E+00</totfact>
</mgrwt>
</event>
<event>
 4    1  0.5410820E-008  0.2906043E+03  0.7818608E-02  0.1090034E+00
          2   -1    0    0  501    0  0.00000000000E+00  0.00000000000E+00  0.17549295140E+04  0.17549295140E+04  0.25500000000E-02 0. -1.
         -2   -1    0    0    0  501 -0.00000000000E+00 -0.00000000000E+00 -0.96220720095E+02  0.96220720129E+02  0.25500000000E-02 0.  1.
    8880022    1    1    2    0    0  0.21885022981E+03  0.11473342114E+03  0.17495358279E+03  0.33920434867E+03  0.15294330000E+03 0.  1.
    8880022    1    1    2    0    0 -0.21885022981E+03 -0.11473342114E+03  0.14837552111E+04  0.15119458854E+04  0.15294330000E+03 0.  0.
<mgrwt>
<rscale>  0 0.29060426E+03</rscale>
<asrwt>0</asrwt>
<pdfrwt beam="1">  1        2 0.26998915E+00 0.29060426E+03</pdfrwt>
<pdfrwt beam="2">  1       -2 0.14803188E-01 0.29060426E+03</pdfrwt>
<totfact> 0.35009938E+02</totfact>
</mgrwt>
</event>
<event>
 4    1  0.5410820E-008  0.3380413E+03  0.7818608E-02  0.1067633E+00
          2   -1    0    0  501    0  0.00000000000E+00  0.00000000000E+00  0.15306652216E+04  0.15306652216E+04  0.25500000000E-02 0. -1.
         -2   -1    0    0    0  501 -0.00000000000E+00 -0.00000000000E+00 -0.62841631608E+03  0.62841631609E+03  0.25500000000E-02 0.  1.
    8880022    1    1    2    0    0 -0.16903976586E+03  0.24961128585E+03  0.14645144404E+04  0.15030217682E+04  0.15294330000E+03 0.  0.
    8880022    1    1    2    0    0  0.16903976586E+03 -0.24961128585E+03 -0.56226553487E+03  0.65605976952E+03  0.15294330000E+03 0.  1.
<mgrwt>
<rscale>  0 0.33804125E+03</rscale>
<asrwt>0</asrwt>
<pdfrwt beam="1">  1        2 0.23548696E+00 0.33804125E+03</pdfrwt>
<pdfrwt beam="2">  1       -2 0.96679434E-01 0.33804125E+03</pdfrwt>
<totfact> 0.12136350E+01</totfact>
</mgrwt>
</event>
<event>
 4    1  0.5410820E-008  0.9969644E+03  0.7818608E-02  0.9311880E-01
          2   -1    0    0  501    0  0.00000000000E+00  0.00000000000E+00  0.18190096321E+04  0.18190096321E+04  0.25500000000E-02 0. -1.
         -2   -1    0    0    0  501 -0.00000000000E+00 -0.00000000000E+00 -0.82055847069E+03  0.82055847070E+03  0.25500000000E-02 0.  1.
    8880022    1    1    2    0    0 -0.11224296694E+03 -0.97874813083E+03 -0.26361777496E+03  0.10312285738E+04  0.15294330000E+03 0.  0.
    8880022    1    1    2    0    0  0.11224296694E+03  0.97874813083E+03  0.12620689364E+04  0.16083395289E+04  0.15294330000E+03 0.  0.
<mgrwt>
<rscale>  0 0.99696441E+03</rscale>
<asrwt>0</asrwt>
<pdfrwt beam="1">  1        2 0.27984763E+00 0.99696441E+03</pdfrwt>
<pdfrwt beam="2">  1       -2 0.12623977E+00 0.99696441E+03</pdfrwt>
<totfact> 0.39266412E+00</totfact>
</mgrwt>
</event>
<event>
 4    1  0.5410820E-008  0.8822374E+03  0.7818608E-02  0.9448062E-01
         -2   -1    0    0    0  501 -0.00000000000E+00  0.00000000000E+00  0.46554120564E+03  0.46554120564E+03  0.25500000000E-02 0.  1.
          2   -1    0    0  501    0  0.00000000000E+00 -0.00000000000E+00 -0.18922285351E+04  0.18922285351E+04  0.25500000000E-02 0. -1.
    8880022    1    1    2    0    0 -0.62202182817E+03  0.60666307604E+03 -0.31108043796E+03  0.93547524523E+03  0.15294330000E+03 0.  0.
    8880022    1    1    2    0    0  0.62202182817E+03 -0.60666307604E+03 -0.11156068915E+04  0.14222944955E+04  0.15294330000E+03 0.  0.
<mgrwt>
<rscale>  0 0.88223744E+03</rscale>
<asrwt>0</asrwt>
<pdfrwt beam="1">  1        2 0.29111208E+00 0.88223744E+03</pdfrwt>
<pdfrwt beam="2">  1       -2 0.71621725E-01 0.88223744E+03</pdfrwt>
<totfact> 0.13758714E+01</totfact>
</mgrwt>
</event>
<event>
 4    1  0.6217541E-008  0.4591603E+03  0.7818608E-02  0.1025025E+00
         -2   -1    0    0    0  501 -0.00000000000E+00  0.00000000000E+00  0.15265614746E+04  0.15265614746E+04  0.25500000000E-02 0.  1.
          2   -1    0    0  501    0  0.00000000000E+00 -0.00000000000E+00 -0.16204404329E+04  0.16204404329E+04  0.25500000000E-02 0. -1.
    8880022    1    1    2    0    0 -0.12862363382E+03 -0.41339141667E+03  0.14580154411E+04  0.15286062875E+04  0.15294330000E+03 0.  0.
    8880022    1    1    2    0    0  0.12862363382E+03  0.41339141667E+03 -0.15518943995E+04  0.16183956200E+04  0.15294330000E+03 0.  0.
<mgrwt>
<rscale>  0 0.45916027E+03</rscale>
<asrwt>0</asrwt>
<pdfrwt beam="1">  1        2 0.24929853E+00 0.45916027E+03</pdfrwt>
<pdfrwt beam="2">  1       -2 0.23485561E+00 0.45916027E+03</pdfrwt>
<totfact> 0.97257397E-01</totfact>
</mgrwt>
</event>
<event>
 4    1  0.5410820E-008  0.8085317E+03  0.7818608E-02  0.9547749E-01
          2   -1    0    0  501    0  0.00000000000E+00  0.00000000000E+00  0.88410642187E+03  0.88410642187E+03  0.25500000000E-02 0. -1.
         -2   -1    0    0    0  501 -0.00000000000E+00 -0.00000000000E+00 -0.11116531610E+04  0.11116531610E+04  0.25500000000E-02 0.  1.
    8880022    1    1    2    0    0  0.29003731309E+03  0.73906038251E+03 -0.69120783817E+03  0.10637160432E+04  0.15294330000E+03 0.  0.
    8880022    1    1    2    0    0 -0.29003731309E+03 -0.73906038251E+03  0.46366109907E+03  0.93204353964E+03  0.15294330000E+03 0.  0.
<mgrwt>
<rscale>  0 0.80853172E+03</rscale>
<asrwt>0</asrwt>
<pdfrwt beam="1">  1        2 0.13601637E+00 0.80853172E+03</pdfrwt>
<pdfrwt beam="2">  1       -2 0.17102356E+00 0.80853172E+03</pdfrwt>
<totfact> 0.63742426E+00</totfact>
</mgrwt>
</event>
<event>
 4    1  0.5410820E-008  0.5054472E+03  0.7818608E-02  0.1012367E+00
         -2   -1    0    0    0  501 -0.00000000000E+00  0.00000000000E+00  0.15587143458E+03  0.15587143460E+03  0.25500000000E-02 0.  1.
          2   -1    0    0  501    0  0.00000000000E+00 -0.00000000000E+00 -0.29176281325E+04  0.29176281325E+04  0.25500000000E-02 0. -1.
    8880022    1    1    2    0    0  0.43653912129E+03  0.20376157507E+03 -0.23981956852E+04  0.24508813479E+04  0.15294330000E+03 0.  0.
    8880022    1    1    2    0    0 -0.43653912129E+03 -0.20376157507E+03 -0.36356101268E+03  0.62261821917E+03  0.15294330000E+03 0.  0.
<mgrwt>
<rscale>  0 0.50544717E+03</rscale>
<asrwt>0</asrwt>
<pdfrwt beam="1">  1        2 0.44886583E+00 0.50544717E+03</pdfrwt>
<pdfrwt beam="2">  1       -2 0.23980223E-01 0.50544717E+03</pdfrwt>
<totfact> 0.33420432E+01</totfact>
</mgrwt>
</event>
<event>
 4    1  0.5410820E-008  0.6921462E+03  0.7818608E-02  0.9730758E-01
         -2   -1    0    0    0  501 -0.00000000000E+00  0.00000000000E+00  0.65352447916E+03  0.65352447917E+03  0.25500000000E-02 0.  1.
          2   -1    0    0  501    0  0.00000000000E+00 -0.00000000000E+00 -0.19137241201E+04  0.19137241201E+04  0.25500000000E-02 0. -1.
    8880022    1    1    2    0    0 -0.26591098463E+03 -0.62045635903E+03 -0.16383381600E+04  0.17785438776E+04  0.15294330000E+03 0.  0.
    8880022    1    1    2    0    0  0.26591098463E+03  0.62045635903E+03  0.37813851910E+03  0.78870472159E+03  0.15294330000E+03 0.  0.
<mgrwt>
<rscale>  0 0.69214623E+03</rscale>
<asrwt>0</asrwt>
<pdfrwt beam="1">  1        2 0.29441909E+00 0.69214623E+03</pdfrwt>
<pdfrwt beam="2">  1       -2 0.10054223E+00 0.69214623E+03</pdfrwt>
<totfact> 0.63503215E+00</totfact>
</mgrwt>
</event>
<event>
 4    1  0.5410820E-008  0.4968335E+03  0.7818608E-02  0.1014609E+00
         -2   -1    0    0    0  501 -0.00000000000E+00  0.00000000000E+00  0.16285884193E+03  0.16285884195E+03  0.25500000000E-02 0.  1.
          2   -1    0    0  501    0  0.00000000000E+00 -0.00000000000E+00 -0.24170939533E+04  0.24170939533E+04  0.25500000000E-02 0. -1.
    8880022    1    1    2    0    0 -0.35798447384E+03  0.30870536280E+03 -0.33935615204E+03  0.60166945699E+03  0.15294330000E+03 0.  0.
    8880022    1    1    2    0    0  0.35798447384E+03 -0.30870536280E+03 -0.19148789593E+04  0.19782833382E+04  0.15294330000E+03 0.  0.
<mgrwt>
<rscale>  0 0.49683351E+03</rscale>
<asrwt>0</asrwt>
<pdfrwt beam="1">  1        2 0.37186058E+00 0.49683351E+03</pdfrwt>
<pdfrwt beam="2">  1       -2 0.25055208E-01 0.49683351E+03</pdfrwt>
<totfact> 0.59933664E+01</totfact>
</mgrwt>
</event>
<event>
 4    1  0.5410820E-008  0.3322190E+03  0.7818608E-02  0.1070159E+00
         -2   -1    0    0    0  501 -0.00000000000E+00  0.00000000000E+00  0.56246127955E+03  0.56246127956E+03  0.25500000000E-02 0.  1.
          2   -1    0    0  501    0  0.00000000000E+00 -0.00000000000E+00 -0.73037114166E+03  0.73037114167E+03  0.25500000000E-02 0. -1.
    8880022    1    1    2    0    0 -0.23208808082E+03  0.18196955488E+03 -0.63675760367E+03  0.71821284799E+03  0.15294330000E+03 0.  0.
    8880022    1    1    2    0    0  0.23208808082E+03 -0.18196955488E+03  0.46884774156E+03  0.57461957324E+03  0.15294330000E+03 0.  0.
<mgrwt>
<rscale>  0 0.33221898E+03</rscale>
<asrwt>0</asrwt>
<pdfrwt beam="1">  1        2 0.11236479E+00 0.33221898E+03</pdfrwt>
<pdfrwt beam="2">  1       -2 0.86532504E-01 0.33221898E+03</pdfrwt>
<totfact> 0.47687560E+01</totfact>
</mgrwt>
</event>
<event>
 4    1  0.5410820E-008  0.2864544E+03  0.7818608E-02  0.1092215E+00
         -2   -1    0    0    0  501 -0.00000000000E+00  0.00000000000E+00  0.30724977765E+03  0.30724977766E+03  0.25500000000E-02 0.  1.
          2   -1    0    0  501    0  0.00000000000E+00 -0.00000000000E+00 -0.93296950448E+03  0.93296950448E+03  0.25500000000E-02 0. -1.
    8880022    1    1    2    0    0  0.20624449015E+03  0.12699485914E+03 -0.83675001142E+03  0.88442451266E+03  0.15294330000E+03 0.  0.
    8880022    1    1    2    0    0 -0.20624449015E+03 -0.12699485914E+03  0.21103028459E+03  0.35579476949E+03  0.15294330000E+03 0.  0.
<mgrwt>
<rscale>  0 0.28645442E+03</rscale>
<asrwt>0</asrwt>
<pdfrwt beam="1">  1        2 0.14353377E+00 0.28645442E+03</pdfrwt>
<pdfrwt beam="2">  1       -2 0.47269197E-01 0.28645442E+03</pdfrwt>
<totfact> 0.12548266E+02</totfact>
</mgrwt>
</event>
<event>
 4    1  0.5410820E-008  0.2440449E+03  0.7818608E-02  0.1117127E+00
          2   -1    0    0  501    0  0.00000000000E+00  0.00000000000E+00  0.12248110509E+04  0.12248110509E+04  0.25500000000E-02 0. -1.
         -2   -1    0    0    0  501 -0.00000000000E+00 -0.00000000000E+00 -0.95592950245E+03  0.95592950246E+03  0.25500000000E-02 0.  1.
    8880022    1    1    2    0    0  0.37272387752E+01  0.19013781649E+03  0.11967166335E+04  0.12213470577E+04  0.15294330000E+03 0. -1.
    8880022    1    1    2    0    0 -0.37272387752E+01 -0.19013781649E+03 -0.92783508499E+03  0.95939349567E+03  0.15294330000E+03 0.  0.
<mgrwt>
<rscale>  0 0.24404494E+03</rscale>
<asrwt>0</asrwt>
<pdfrwt beam="1">  1        2 0.18843247E+00 0.24404494E+03</pdfrwt>
<pdfrwt beam="2">  1       -2 0.14706608E+00 0.24404494E+03</pdfrwt>
<totfact> 0.66506710E+00</totfact>
</mgrwt>
</event>
<event>
 4    1  0.5410820E-008  0.4836783E+03  0.7818608E-02  0.1018129E+00
          2   -1    0    0  501    0  0.00000000000E+00  0.00000000000E+00  0.12031145164E+04  0.12031145164E+04  0.25500000000E-02 0. -1.
         -2   -1    0    0    0  501 -0.00000000000E+00 -0.00000000000E+00 -0.61449641720E+03  0.61449641720E+03  0.25500000000E-02 0.  1.
    8880022    1    1    2    0    0  0.27887275320E+03  0.36439411506E+03  0.10456901625E+04  0.11521339560E+04  0.15294330000E+03 0. -1.
    8880022    1    1    2    0    0 -0.27887275320E+03 -0.36439411506E+03 -0.45707206335E+03  0.66547697757E+03  0.15294330000E+03 0.  0.
<mgrwt>
<rscale>  0 0.48367834E+03</rscale>
<asrwt>0</asrwt>
<pdfrwt beam="1">  1        2 0.18509454E+00 0.48367834E+03</pdfrwt>
<pdfrwt beam="2">  1       -2 0.94537911E-01 0.48367834E+03</pdfrwt>
<totfact> 0.18816607E+01</totfact>
</mgrwt>
</event>
<event>
 4    1  0.5410820E-008  0.1103530E+04  0.7818608E-02  0.9201758E-01
         -2   -1    0    0    0  501 -0.00000000000E+00  0.00000000000E+00  0.16919956663E+04  0.16919956663E+04  0.25500000000E-02 0.  1.
          2   -1    0    0  501    0  0.00000000000E+00 -0.00000000000E+00 -0.10739063280E+04  0.10739063280E+04  0.25500000000E-02 0. -1.
    8880022    1    1    2    0    0  0.95624484141E+03 -0.52913313073E+03 -0.48516322157E+03  0.12054713067E+04  0.15294330000E+03 0.  0.
    8880022    1    1    2    0    0 -0.95624484141E+03  0.52913313073E+03  0.11032525599E+04  0.15604306876E+04  0.15294330000E+03 0.  0.
<mgrwt>
<rscale>  0 0.11035297E+04</rscale>
<asrwt>0</asrwt>
<pdfrwt beam="1">  1        2 0.16521636E+00 0.11035297E+04</pdfrwt>
<pdfrwt beam="2">  1       -2 0.26030702E+00 0.11035297E+04</pdfrwt>
<totfact> 0.12375616E+00</totfact>
</mgrwt>
</event>
<event>
 4    1  0.5410820E-008  0.2697343E+03  0.7818608E-02  0.1101432E+00
         -2   -1    0    0    0  501 -0.00000000000E+00  0.00000000000E+00  0.81580850148E+02  0.81580850188E+02  0.25500000000E-02 0.  1.
          2   -1    0    0  501    0  0.00000000000E+00 -0.00000000000E+00 -0.32112640219E+04  0.32112640219E+04  0.25500000000E-02 0. -1.
    8880022    1    1    2    0    0  0.14302911856E+03 -0.17002238774E+03 -0.29640869771E+04  0.29763346925E+04  0.15294330000E+03 0.  0.
    8880022    1    1    2    0    0 -0.14302911856E+03  0.17002238774E+03 -0.16559619471E+03  0.31651017962E+03  0.15294330000E+03 0.  0.
<mgrwt>
<rscale>  0 0.26973430E+03</rscale>
<asrwt>0</asrwt>
<pdfrwt beam="1">  1        2 0.49404052E+00 0.26973430E+03</pdfrwt>
<pdfrwt beam="2">  1       -2 0.12550903E-01 0.26973430E+03</pdfrwt>
<totfact> 0.71616528E+01</totfact>
</mgrwt>
</event>
<event>
 4    1  0.5410820E-008  0.3923836E+03  0.7818608E-02  0.1046449E+00
          2   -1    0    0  501    0  0.00000000000E+00  0.00000000000E+00  0.12135710359E+04  0.12135710359E+04  0.25500000000E-02 0. -1.
         -2   -1    0    0    0  501 -0.00000000000E+00 -0.00000000000E+00 -0.21405795398E+03  0.21405795399E+03  0.25500000000E-02 0.  1.
    8880022    1    1    2    0    0 -0.33068443172E+03 -0.14567437317E+03  0.95532090333E+03  0.10327646865E+04  0.15294330000E+03 0.  0.
    8880022    1    1    2    0    0  0.33068443172E+03  0.14567437317E+03  0.44192178544E+02  0.39486430332E+03  0.15294330000E+03 0.  0.
<mgrwt>
<rscale>  0 0.39238357E+03</rscale>
<asrwt>0</asrwt>
<pdfrwt beam="1">  1        2 0.18670324E+00 0.39238357E+03</pdfrwt>
<pdfrwt beam="2">  1       -2 0.32931993E-01 0.39238357E+03</pdfrwt>
<totfact> 0.16755590E+02</totfact>
</mgrwt>
</event>
<event>
 4    1  0.5410820E-008  0.8080255E+03  0.7818608E-02  0.9548473E-01
          2   -1    0    0  501    0  0.00000000000E+00  0.00000000000E+00  0.29162053248E+04  0.29162053248E+04  0.25500000000E-02 0. -1.
         -2   -1    0    0    0  501 -0.00000000000E+00 -0.00000000000E+00 -0.35746721024E+03  0.35746721024E+03  0.25500000000E-02 0.  1.
    8880022    1    1    2    0    0 -0.12297665359E+03 -0.78383049995E+03  0.22799577119E+04  0.24189072597E+04  0.15294330000E+03 0. -1.
    8880022    1    1    2    0    0  0.12297665359E+03  0.78383049995E+03  0.27878040265E+03  0.85476527533E+03  0.15294330000E+03 0.  0.
<mgrwt>
<rscale>  0 0.80802547E+03</rscale>
<asrwt>0</asrwt>
<pdfrwt beam="1">  1        2 0.44864697E+00 0.80802547E+03</pdfrwt>
<pdfrwt beam="2">  1       -2 0.54994956E-01 0.80802547E+03</pdfrwt>
<totfact> 0.64194797E+00</totfact>
</mgrwt>
</event>
<event>
 4    1  0.5410820E-008  0.2699641E+03  0.7818608E-02  0.1101300E+00
         -2   -1    0    0    0  501 -0.00000000000E+00  0.00000000000E+00  0.11930989262E+03  0.11930989264E+03  0.25500000000E-02 0.  1.
          2   -1    0    0  501    0  0.00000000000E+00 -0.00000000000E+00 -0.20349697107E+04  0.20349697107E+04  0.25500000000E-02 0. -1.
    8880022    1    1    2    0    0  0.14213134409E+03  0.17113630921E+03 -0.18589157031E+04  0.18784164074E+04  0.15294330000E+03 0.  0.
    8880022    1    1    2    0    0 -0.14213134409E+03 -0.17113630921E+03 -0.56744115031E+02  0.27586319600E+03  0.15294330000E+03 0.  0.
<mgrwt>
<rscale>  0 0.26996409E+03</rscale>
<asrwt>0</asrwt>
<pdfrwt beam="1">  1        2 0.31307224E+00 0.26996409E+03</pdfrwt>
<pdfrwt beam="2">  1       -2 0.18355370E-01 0.26996409E+03</pdfrwt>
<totfact> 0.17455561E+02</totfact>
</mgrwt>
</event>
<event>
 4    1  0.5410820E-008  0.8146139E+03  0.7818608E-02  0.9539102E-01
          2   -1    0    0  501    0  0.00000000000E+00  0.00000000000E+00  0.95475784628E+03  0.95475784628E+03  0.25500000000E-02 0. -1.
         -2   -1    0    0    0  501 -0.00000000000E+00 -0.00000000000E+00 -0.76384453066E+03  0.76384453067E+03  0.25500000000E-02 0.  1.
    8880022    1    1    2    0    0  0.73608336221E+03 -0.31366462865E+03 -0.16244148905E+03  0.83065221710E+03  0.15294330000E+03 0.  0.
    8880022    1    1    2    0    0 -0.73608336221E+03  0.31366462865E+03  0.35335480466E+03  0.88795015985E+03  0.15294330000E+03 0.  0.
<mgrwt>
<rscale>  0 0.81461394E+03</rscale>
<asrwt>0</asrwt>
<pdfrwt beam="1">  1        2 0.14688582E+00 0.81461394E+03</pdfrwt>
<pdfrwt beam="2">  1       -2 0.11751454E+00 0.81461394E+03</pdfrwt>
<totfact> 0.15216895E+01</totfact>
</mgrwt>
</event>
<event>
 4    1  0.5410820E-008  0.6646480E+03  0.7818608E-02  0.9779675E-01
          2   -1    0    0  501    0  0.00000000000E+00  0.00000000000E+00  0.92095717086E+03  0.92095717087E+03  0.25500000000E-02 0. -1.
         -2   -1    0    0    0  501 -0.00000000000E+00 -0.00000000000E+00 -0.57123346378E+03  0.57123346379E+03  0.25500000000E-02 0.  1.
    8880022    1    1    2    0    0  0.25756896274E+03  0.59331573463E+03 -0.12384476452E+03  0.67608764982E+03  0.15294330000E+03 0.  0.
    8880022    1    1    2    0    0 -0.25756896274E+03 -0.59331573463E+03  0.47356847161E+03  0.81610298483E+03  0.15294330000E+03 0.  0.
<mgrwt>
<rscale>  0 0.66464802E+03</rscale>
<asrwt>0</asrwt>
<pdfrwt beam="1">  1        2 0.14168572E+00 0.66464802E+03</pdfrwt>
<pdfrwt beam="2">  1       -2 0.87882073E-01 0.66464802E+03</pdfrwt>
<totfact> 0.32440182E+01</totfact>
</mgrwt>
</event>
<event>
 4    1  0.5410820E-008  0.4085692E+03  0.7818608E-02  0.1040852E+00
         -2   -1    0    0    0  501 -0.00000000000E+00  0.00000000000E+00  0.82024846937E+03  0.82024846938E+03  0.25500000000E-02 0.  1.
          2   -1    0    0  501    0  0.00000000000E+00 -0.00000000000E+00 -0.11913467939E+04  0.11913467939E+04  0.25500000000E-02 0. -1.
    8880022    1    1    2    0    0 -0.35059358504E+03 -0.14360117283E+03  0.73032138965E+03  0.83683818263E+03  0.15294330000E+03 0.  0.
    8880022    1    1    2    0    0  0.35059358504E+03  0.14360117283E+03 -0.11014197141E+04  0.11747570806E+04  0.15294330000E+03 0.  0.
<mgrwt>
<rscale>  0 0.40856923E+03</rscale>
<asrwt>0</asrwt>
<pdfrwt beam="1">  1        2 0.18328412E+00 0.40856923E+03</pdfrwt>
<pdfrwt beam="2">  1       -2 0.12619207E+00 0.40856923E+03</pdfrwt>
<totfact> 0.97056000E+00</totfact>
</mgrwt>
</event>
<event>
 4    1  0.5410820E-008  0.2218967E+03  0.7818608E-02  0.1132477E+00
          2   -1    0    0  501    0  0.00000000000E+00  0.00000000000E+00  0.69755000592E+03  0.69755000592E+03  0.25500000000E-02 0. -1.
         -2   -1    0    0    0  501 -0.00000000000E+00 -0.00000000000E+00 -0.31857772714E+03  0.31857772715E+03  0.25500000000E-02 0.  1.
    8880022    1    1    2    0    0  0.10163432641E+03  0.12456703049E+03 -0.25877192263E+03  0.34088273988E+03  0.15294330000E+03 0.  0.
    8880022    1    1    2    0    0 -0.10163432641E+03 -0.12456703049E+03  0.63774420141E+03  0.67524499320E+03  0.15294330000E+03 0.  0.
<mgrwt>
<rscale>  0 0.22189668E+03</rscale>
<asrwt>0</asrwt>
<pdfrwt beam="1">  1        2 0.10731539E+00 0.22189668E+03</pdfrwt>
<pdfrwt beam="2">  1       -2 0.49011958E-01 0.22189668E+03</pdfrwt>
<totfact> 0.17135746E+02</totfact>
</mgrwt>
</event>
<event>
 4    1  0.5410820E-008  0.7664954E+03  0.7818608E-02  0.9609821E-01
         -2   -1    0    0    0  501 -0.00000000000E+00  0.00000000000E+00  0.70216328483E+03  0.70216328484E+03  0.25500000000E-02 0.  1.
          2   -1    0    0  501    0  0.00000000000E+00 -0.00000000000E+00 -0.12356282805E+04  0.12356282805E+04  0.25500000000E-02 0. -1.
    8880022    1    1    2    0    0 -0.36164333608E+03 -0.65828384501E+03  0.28378206130E+03  0.81734168771E+03  0.15294330000E+03 0.  0.
    8880022    1    1    2    0    0  0.36164333608E+03  0.65828384501E+03 -0.81724705694E+03  0.11204498776E+04  0.15294330000E+03 0.  0.
<mgrwt>
<rscale>  0 0.76649539E+03</rscale>
<asrwt>0</asrwt>
<pdfrwt beam="1">  1        2 0.19009666E+00 0.76649539E+03</pdfrwt>
<pdfrwt beam="2">  1       -2 0.10802512E+00 0.76649539E+03</pdfrwt>
<totfact> 0.12605591E+01</totfact>
</mgrwt>
</event>
<event>
 4    1  0.5410820E-008  0.8061054E+03  0.7818608E-02  0.9551222E-01
         -2   -1    0    0    0  501 -0.00000000000E+00  0.00000000000E+00  0.12177274665E+04  0.12177274665E+04  0.25500000000E-02 0.  1.
          2   -1    0    0  501    0  0.00000000000E+00 -0.00000000000E+00 -0.10577893165E+04  0.10577893165E+04  0.25500000000E-02 0. -1.
    8880022    1    1    2    0    0 -0.67986082309E+03 -0.40522025282E+03 -0.72094428325E+03  0.10814649808E+04  0.15294330000E+03 0.  0.
    8880022    1    1    2    0    0  0.67986082309E+03  0.40522025282E+03  0.88088243328E+03  0.11940518022E+04  0.15294330000E+03 0.  0.
<mgrwt>
<rscale>  0 0.80610536E+03</rscale>
<asrwt>0</asrwt>
<pdfrwt beam="1">  1        2 0.16273682E+00 0.80610536E+03</pdfrwt>
<pdfrwt beam="2">  1       -2 0.18734269E+00 0.80610536E+03</pdfrwt>
<totfact> 0.37950062E+00</totfact>
</mgrwt>
</event>
<event>
 4    1  0.8062271E-008  0.8470684E+03  0.7818608E-02  0.9494280E-01
         -2   -1    0    0    0  501 -0.00000000000E+00  0.00000000000E+00  0.12062711139E+04  0.12062711139E+04  0.25500000000E-02 0.  1.
          2   -1    0    0  501    0  0.00000000000E+00 -0.00000000000E+00 -0.13509391879E+04  0.13509391879E+04  0.25500000000E-02 0. -1.
    8880022    1    1    2    0    0  0.55389553414E+03 -0.62236079614E+03  0.88422357872E+03  0.12244901851E+04  0.15294330000E+03 0.  0.
    8880022    1    1    2    0    0 -0.55389553414E+03  0.62236079614E+03 -0.10288916527E+04  0.13327201167E+04  0.15294330000E+03 0.  0.
<mgrwt>
<rscale>  0 0.84706840E+03</rscale>
<asrwt>0</asrwt>
<pdfrwt beam="1">  1        2 0.20783680E+00 0.84706840E+03</pdfrwt>
<pdfrwt beam="2">  1       -2 0.18558017E+00 0.84706840E+03</pdfrwt>
<totfact> 0.25955310E+00</totfact>
</mgrwt>
</event>
<event>
 4    1  0.5410820E-008  0.9957479E+03  0.7818608E-02  0.9313221E-01
          2   -1    0    0  501    0  0.00000000000E+00  0.00000000000E+00  0.24543410795E+04  0.24543410795E+04  0.25500000000E-02 0. -1.
         -2   -1    0    0    0  501 -0.00000000000E+00 -0.00000000000E+00 -0.65658069288E+03  0.65658069288E+03  0.25500000000E-02 0.  1.
    8880022    1    1    2    0    0  0.87229602681E+03 -0.45521629359E+03  0.18636619786E+04  0.21129954699E+04  0.15294330000E+03 0.  0.
    8880022    1    1    2    0    0 -0.87229602681E+03  0.45521629359E+03 -0.65901591993E+02  0.99792630248E+03  0.15294330000E+03 0.  1.
<mgrwt>
<rscale>  0 0.99574790E+03</rscale>
<asrwt>0</asrwt>
<pdfrwt beam="1">  1        2 0.37759094E+00 0.99574790E+03</pdfrwt>
<pdfrwt beam="2">  1       -2 0.10101241E+00 0.99574790E+03</pdfrwt>
<totfact> 0.30080499E+00</totfact>
</mgrwt>
</event>
<event>
 4    1  0.5410820E-008  0.3030419E+03  0.7818608E-02  0.1083730E+00
         -2   -1    0    0    0  501 -0.00000000000E+00  0.00000000000E+00  0.15243998620E+03  0.15243998622E+03  0.25500000000E-02 0.  1.
          2   -1    0    0  501    0  0.00000000000E+00 -0.00000000000E+00 -0.15893751770E+04  0.15893751770E+04  0.25500000000E-02 0. -1.
    8880022    1    1    2    0    0  0.24266311417E+03  0.97761858006E+02 -0.32181226588E+02  0.30474588138E+03  0.15294330000E+03 0.  0.
    8880022    1    1    2    0    0 -0.24266311417E+03 -0.97761858006E+02 -0.14047539642E+04  0.14370692819E+04  0.15294330000E+03 0. -1.
<mgrwt>
<rscale>  0 0.30304195E+03</rscale>
<asrwt>0</asrwt>
<pdfrwt beam="1">  1        2 0.24451925E+00 0.30304195E+03</pdfrwt>
<pdfrwt beam="2">  1       -2 0.23452307E-01 0.30304195E+03</pdfrwt>
<totfact> 0.19499881E+02</totfact>
</mgrwt>
</event>
<event>
 4    1  0.5410820E-008  0.6144287E+03  0.7818608E-02  0.9875915E-01
          2   -1    0    0  501    0  0.00000000000E+00  0.00000000000E+00  0.38924869638E+03  0.38924869639E+03  0.25500000000E-02 0. -1.
         -2   -1    0    0    0  501 -0.00000000000E+00 -0.00000000000E+00 -0.16118970952E+04  0.16118970952E+04  0.25500000000E-02 0.  1.
    8880022    1    1    2    0    0 -0.18501746658E+03  0.56559660833E+03  0.20149130749E+02  0.61475899894E+03  0.15294330000E+03 0.  0.
    8880022    1    1    2    0    0  0.18501746658E+03 -0.56559660833E+03 -0.12427975295E+04  0.13863867926E+04  0.15294330000E+03 0.  0.
<mgrwt>
<rscale>  0 0.61442871E+03</rscale>
<asrwt>0</asrwt>
<pdfrwt beam="1">  1        2 0.59884416E-01 0.61442871E+03</pdfrwt>
<pdfrwt beam="2">  1       -2 0.24798417E+00 0.61442871E+03</pdfrwt>
<totfact> 0.56763731E+00</totfact>
</mgrwt>
</event>
<event>
 4    1  0.5410820E-008  0.6939345E+03  0.7818608E-02  0.9727662E-01
         -2   -1    0    0    0  501 -0.00000000000E+00  0.00000000000E+00  0.24073297090E+03  0.24073297091E+03  0.25500000000E-02 0.  1.
          2   -1    0    0  501    0  0.00000000000E+00 -0.00000000000E+00 -0.24695312787E+04  0.24695312787E+04  0.25500000000E-02 0. -1.
    8880022    1    1    2    0    0 -0.23138260736E+03  0.63609396784E+03 -0.17050822114E+04  0.18408830619E+04  0.15294330000E+03 0.  0.
    8880022    1    1    2    0    0  0.23138260736E+03 -0.63609396784E+03 -0.52371609638E+03  0.86938118770E+03  0.15294330000E+03 0.  0.
<mgrwt>
<rscale>  0 0.69393451E+03</rscale>
<asrwt>0</asrwt>
<pdfrwt beam="1">  1        2 0.37992787E+00 0.69393451E+03</pdfrwt>
<pdfrwt beam="2">  1       -2 0.37035843E-01 0.69393451E+03</pdfrwt>
<totfact> 0.26217579E+01</totfact>
</mgrwt>
</event>
<event>
 4    1  0.5410820E-008  0.3553145E+03  0.7818608E-02  0.1060455E+00
         -2   -1    0    0    0  501 -0.00000000000E+00  0.00000000000E+00  0.15417755166E+03  0.15417755168E+03  0.25500000000E-02 0.  1.
          2   -1    0    0  501    0  0.00000000000E+00 -0.00000000000E+00 -0.21332212594E+04  0.21332212594E+04  0.25500000000E-02 0. -1.
    8880022    1    1    2    0    0 -0.29550431884E+03  0.12463514836E+03 -0.91777097613E+02  0.36697603644E+03  0.15294330000E+03 0.  1.
    8880022    1    1    2    0    0  0.29550431884E+03 -0.12463514836E+03 -0.18872666101E+04  0.19204227746E+04  0.15294330000E+03 0.  0.
<mgrwt>
<rscale>  0 0.35531447E+03</rscale>
<asrwt>0</asrwt>
<pdfrwt beam="1">  1        2 0.32818786E+00 0.35531447E+03</pdfrwt>
<pdfrwt beam="2">  1       -2 0.23719625E-01 0.35531447E+03</pdfrwt>
<totfact> 0.97204087E+01</totfact>
</mgrwt>
</event>
<event>
 4    1  0.5410820E-008  0.3905195E+03  0.7818608E-02  0.1047113E+00
          2   -1    0    0  501    0  0.00000000000E+00  0.00000000000E+00  0.60270225091E+03  0.60270225092E+03  0.25500000000E-02 0. -1.
         -2   -1    0    0    0  501 -0.00000000000E+00 -0.00000000000E+00 -0.33632215193E+03  0.33632215194E+03  0.25500000000E-02 0.  1.
    8880022    1    1    2    0    0  0.35674172944E+03 -0.43001681048E+02 -0.10045422625E+03  0.40323257642E+03  0.15294330000E+03 0.  0.
    8880022    1    1    2    0    0 -0.35674172944E+03  0.43001681048E+02  0.36683432523E+03  0.53579182644E+03  0.15294330000E+03 0.  0.
<mgrwt>
<rscale>  0 0.39051947E+03</rscale>
<asrwt>0</asrwt>
<pdfrwt beam="1">  1        2 0.92723423E-01 0.39051947E+03</pdfrwt>
<pdfrwt beam="2">  1       -2 0.51741870E-01 0.39051947E+03</pdfrwt>
<totfact> 0.17966063E+02</totfact>
</mgrwt>
</event>
<event>
 4    1  0.9408402E-008  0.5738063E+03  0.7818608E-02  0.9961291E-01
          2   -1    0    0  501    0  0.00000000000E+00  0.00000000000E+00  0.21814684272E+04  0.21814684272E+04  0.25500000000E-02 0. -1.
         -2   -1    0    0    0  501 -0.00000000000E+00 -0.00000000000E+00 -0.13119752546E+04  0.13119752546E+04  0.25500000000E-02 0.  1.
    8880022    1    1    2    0    0  0.28172186136E+03  0.47591466627E+03  0.20779264653E+04  0.21556975727E+04  0.15294330000E+03 0.  0.
    8880022    1    1    2    0    0 -0.28172186136E+03 -0.47591466627E+03 -0.12084332926E+04  0.13377461091E+04  0.15294330000E+03 0.  0.
<mgrwt>
<rscale>  0 0.57380627E+03</rscale>
<asrwt>0</asrwt>
<pdfrwt beam="1">  1        2 0.33561052E+00 0.57380627E+03</pdfrwt>
<pdfrwt beam="2">  1       -2 0.20184235E+00 0.57380627E+03</pdfrwt>
<totfact> 0.75008347E-01</totfact>
</mgrwt>
</event>
<event>
 4    1  0.5410820E-008  0.1924114E+03  0.7818608E-02  0.1156304E+00
         -2   -1    0    0    0  501 -0.00000000000E+00  0.00000000000E+00  0.81257975388E+03  0.81257975388E+03  0.25500000000E-02 0.  1.
          2   -1    0    0  501    0  0.00000000000E+00 -0.00000000000E+00 -0.30102944258E+03  0.30102944260E+03  0.25500000000E-02 0. -1.
    8880022    1    1    2    0    0 -0.96663269786E+02 -0.65473076670E+02  0.76871534494E+03  0.79243008906E+03  0.15294330000E+03 0.  0.
    8880022    1    1    2    0    0  0.96663269786E+02  0.65473076670E+02 -0.25716503365E+03  0.32117910741E+03  0.15294330000E+03 0. -1.
<mgrwt>
<rscale>  0 0.19241145E+03</rscale>
<asrwt>0</asrwt>
<pdfrwt beam="1">  1        2 0.46312222E-01 0.19241145E+03</pdfrwt>
<pdfrwt beam="2">  1       -2 0.12501227E+00 0.19241145E+03</pdfrwt>
<totfact> 0.55948129E+01</totfact>
</mgrwt>
</event>
<event>
 4    1  0.5410820E-008  0.1214908E+04  0.7818608E-02  0.9099907E-01
          2   -1    0    0  501    0  0.00000000000E+00  0.00000000000E+00  0.33382680878E+04  0.33382680878E+04  0.25500000000E-02 0. -1.
         -2   -1    0    0    0  501 -0.00000000000E+00 -0.00000000000E+00 -0.79076326678E+03  0.79076326678E+03  0.25500000000E-02 0.  1.
    8880022    1    1    2    0    0 -0.19012242682E+03  0.11901526321E+04  0.26445377907E+04  0.29102545600E+04  0.15294330000E+03 0.  0.
    8880022    1    1    2    0    0  0.19012242682E+03 -0.11901526321E+04 -0.97032969623E+02  0.12187767946E+04  0.15294330000E+03 0.  0.
<mgrwt>
<rscale>  0 0.12149080E+04</rscale>
<asrwt>0</asrwt>
<pdfrwt beam="1">  1        2 0.51357969E+00 0.12149080E+04</pdfrwt>
<pdfrwt beam="2">  1       -2 0.12165589E+00 0.12149080E+04</pdfrwt>
<totfact> 0.53443955E-01</totfact>
</mgrwt>
</event>
<event>
 4    1  0.5410820E-008  0.7174812E+03  0.7818608E-02  0.9687795E-01
          2   -1    0    0  501    0  0.00000000000E+00  0.00000000000E+00  0.15480035690E+04  0.15480035690E+04  0.25500000000E-02 0. -1.
         -2   -1    0    0    0  501 -0.00000000000E+00 -0.00000000000E+00 -0.47641029918E+03  0.47641029919E+03  0.25500000000E-02 0.  1.
    8880022    1    1    2    0    0  0.53177842043E+03 -0.45672680265E+03 -0.20438296282E+02  0.71777227424E+03  0.15294330000E+03 0.  0.
    8880022    1    1    2    0    0 -0.53177842043E+03  0.45672680265E+03  0.10920315661E+04  0.13066415940E+04  0.15294330000E+03 0.  0.
<mgrwt>
<rscale>  0 0.71748123E+03</rscale>
<asrwt>0</asrwt>
<pdfrwt beam="1">  1        2 0.23815440E+00 0.71748123E+03</pdfrwt>
<pdfrwt beam="2">  1       -2 0.73293892E-01 0.71748123E+03</pdfrwt>
<totfact> 0.20621419E+01</totfact>
</mgrwt>
</event>
<event>
 4    1  0.5410820E-008  0.2791024E+03  0.7818608E-02  0.1096180E+00
         -2   -1    0    0    0  501 -0.00000000000E+00  0.00000000000E+00  0.77029659194E+02  0.77029659237E+02  0.25500000000E-02 0.  1.
          2   -1    0    0  501    0  0.00000000000E+00 -0.00000000000E+00 -0.10718309289E+04  0.10718309289E+04  0.25500000000E-02 0. -1.
    8880022    1    1    2    0    0 -0.22619199852E+03 -0.57824542151E+02 -0.36086269237E+03  0.45620174663E+03  0.15294330000E+03 0.  1.
    8880022    1    1    2    0    0  0.22619199852E+03  0.57824542151E+02 -0.63393857733E+03  0.69265884151E+03  0.15294330000E+03 0. -1.
<mgrwt>
<rscale>  0 0.27910240E+03</rscale>
<asrwt>0</asrwt>
<pdfrwt beam="1">  1        2 0.16489706E+00 0.27910240E+03</pdfrwt>
<pdfrwt beam="2">  1       -2 0.11850718E-01 0.27910240E+03</pdfrwt>
<totfact> 0.11990961E+03</totfact>
</mgrwt>
</event>
<event>
 4    1  0.5410820E-008  0.5845513E+03  0.7818608E-02  0.9937986E-01
          2   -1    0    0  501    0  0.00000000000E+00  0.00000000000E+00  0.12100619864E+04  0.12100619864E+04  0.25500000000E-02 0. -1.
         -2   -1    0    0    0  501 -0.00000000000E+00 -0.00000000000E+00 -0.33062799894E+03  0.33062799895E+03  0.25500000000E-02 0.  1.
    8880022    1    1    2    0    0  0.55558070283E+03  0.98176575834E+02  0.73398584325E+03  0.93831520743E+03  0.15294330000E+03 0.  0.
    8880022    1    1    2    0    0 -0.55558070283E+03 -0.98176575834E+02  0.14544814419E+03  0.60237477791E+03  0.15294330000E+03 0.  1.
<mgrwt>
<rscale>  0 0.58455129E+03</rscale>
<asrwt>0</asrwt>
<pdfrwt beam="1">  1        2 0.18616338E+00 0.58455129E+03</pdfrwt>
<pdfrwt beam="2">  1       -2 0.50865846E-01 0.58455129E+03</pdfrwt>
<totfact> 0.70549703E+01</totfact>
</mgrwt>
</event>
<event>
 4    1  0.5664142E-008  0.5057257E+03  0.7818608E-02  0.1012295E+00
          2   -1    0    0  501    0  0.00000000000E+00  0.00000000000E+00  0.14604065662E+04  0.14604065662E+04  0.25500000000E-02 0. -1.
         -2   -1    0    0    0  501 -0.00000000000E+00 -0.00000000000E+00 -0.10612697763E+04  0.10612697763E+04  0.25500000000E-02 0.  1.
    8880022    1    1    2    0    0  0.39814925589E+03  0.27174261428E+03  0.13516890972E+04  0.14431985126E+04  0.15294330000E+03 0.  0.
    8880022    1    1    2    0    0 -0.39814925589E+03 -0.27174261428E+03 -0.95255230731E+03  0.10784778299E+04  0.15294330000E+03 0.  0.
<mgrwt>
<rscale>  0 0.50572575E+03</rscale>
<asrwt>0</asrwt>
<pdfrwt beam="1">  1        2 0.22467793E+00 0.50572575E+03</pdfrwt>
<pdfrwt beam="2">  1       -2 0.16327227E+00 0.50572575E+03</pdfrwt>
<totfact> 0.34314125E+00</totfact>
</mgrwt>
</event>
<event>
 4    1  0.5410820E-008  0.5011722E+03  0.7818608E-02  0.1013473E+00
          2   -1    0    0  501    0  0.00000000000E+00  0.00000000000E+00  0.10001002075E+04  0.10001002075E+04  0.25500000000E-02 0. -1.
         -2   -1    0    0    0  501 -0.00000000000E+00 -0.00000000000E+00 -0.52119345417E+03  0.52119345417E+03  0.25500000000E-02 0.  1.
    8880022    1    1    2    0    0  0.35614320347E+03 -0.31771671748E+03  0.78697555248E+03  0.93300807454E+03  0.15294330000E+03 0.  0.
    8880022    1    1    2    0    0 -0.35614320347E+03  0.31771671748E+03 -0.30806879919E+03  0.58828558710E+03  0.15294330000E+03 0.  0.
<mgrwt>
<rscale>  0 0.50117217E+03</rscale>
<asrwt>0</asrwt>
<pdfrwt beam="1">  1        2 0.15386157E+00 0.50117217E+03</pdfrwt>
<pdfrwt beam="2">  1       -2 0.80183609E-01 0.50117217E+03</pdfrwt>
<totfact> 0.36197415E+01</totfact>
</mgrwt>
</event>
<event>
 4    1  0.5410820E-008  0.2908320E+03  0.7818608E-02  0.1089916E+00
          2   -1    0    0  501    0  0.00000000000E+00  0.00000000000E+00  0.13610573419E+04  0.13610573419E+04  0.25500000000E-02 0. -1.
         -2   -1    0    0    0  501 -0.00000000000E+00 -0.00000000000E+00 -0.25154178659E+03  0.25154178660E+03  0.25500000000E-02 0.  1.
    8880022    1    1    2    0    0  0.54696300440E+02  0.24124662748E+03  0.12544021579E+04  0.12876754433E+04  0.15294330000E+03 0.  0.
    8880022    1    1    2    0    0 -0.54696300440E+02 -0.24124662748E+03 -0.14488660261E+03  0.32492368517E+03  0.15294330000E+03 0.  0.
<mgrwt>
<rscale>  0 0.29083204E+03</rscale>
<asrwt>0</asrwt>
<pdfrwt beam="1">  1        2 0.20939344E+00 0.29083204E+03</pdfrwt>
<pdfrwt beam="2">  1       -2 0.38698736E-01 0.29083204E+03</pdfrwt>
<totfact> 0.10389807E+02</totfact>
</mgrwt>
</event>
<event>
 4    1  0.5410820E-008  0.3084638E+03  0.7818608E-02  0.1081085E+00
          2   -1    0    0  501    0  0.00000000000E+00  0.00000000000E+00  0.74358535561E+03  0.74358535561E+03  0.25500000000E-02 0. -1.
         -2   -1    0    0    0  501 -0.00000000000E+00 -0.00000000000E+00 -0.16131989861E+03  0.16131989863E+03  0.25500000000E-02 0.  1.
    8880022    1    1    2    0    0  0.26763534120E+03  0.11383810918E+02  0.49688045519E+03  0.58484195026E+03  0.15294330000E+03 0.  0.
    8880022    1    1    2    0    0 -0.26763534120E+03 -0.11383810918E+02  0.85385001809E+02  0.32006330399E+03  0.15294330000E+03 0.  1.
<mgrwt>
<rscale>  0 0.30846381E+03</rscale>
<asrwt>0</asrwt>
<pdfrwt beam="1">  1        2 0.11439775E+00 0.30846381E+03</pdfrwt>
<pdfrwt beam="2">  1       -2 0.24818446E-01 0.30846381E+03</pdfrwt>
<totfact> 0.56216273E+02</totfact>
</mgrwt>
</event>
<event>
 4    1  0.5410820E-008  0.2109130E+04  0.7818608E-02  0.8557232E-01
          2   -1    0    0  501    0  0.00000000000E+00  0.00000000000E+00  0.26680980166E+04  0.26680980166E+04  0.25500000000E-02 0. -1.
         -2   -1    0    0    0  501 -0.00000000000E+00 -0.00000000000E+00 -0.20588026627E+04  0.20588026627E+04  0.25500000000E-02 0.  1.
    8880022    1    1    2    0    0  0.20637616492E+04  0.40733964233E+03 -0.72603572245E+03  0.22305957169E+04  0.15294330000E+03 0.  0.
    8880022    1    1    2    0    0 -0.20637616492E+04 -0.40733964233E+03  0.13353310763E+04  0.24963049624E+04  0.15294330000E+03 0.  0.
<mgrwt>
<rscale>  0 0.21091300E+04</rscale>
<asrwt>0</asrwt>
<pdfrwt beam="1">  1        2 0.41047662E+00 0.21091300E+04</pdfrwt>
<pdfrwt beam="2">  1       -2 0.31673887E+00 0.21091300E+04</pdfrwt>
<totfact> 0.60889574E-02</totfact>
</mgrwt>
</event>
<event>
 4    1  0.5410820E-008  0.5073192E+03  0.7818608E-02  0.1011886E+00
          2   -1    0    0  501    0  0.00000000000E+00  0.00000000000E+00  0.15703063047E+04  0.15703063047E+04  0.25500000000E-02 0. -1.
         -2   -1    0    0    0  501 -0.00000000000E+00 -0.00000000000E+00 -0.22380112222E+03  0.22380112223E+03  0.25500000000E-02 0.  1.
    8880022    1    1    2    0    0 -0.13665901501E+03  0.46401013357E+03  0.11373464905E+04  0.12453633137E+04  0.15294330000E+03 0.  0.
    8880022    1    1    2    0    0  0.13665901501E+03 -0.46401013357E+03  0.20915869195E+03  0.54874411329E+03  0.15294330000E+03 0.  0.
<mgrwt>
<rscale>  0 0.50731917E+03</rscale>
<asrwt>0</asrwt>
<pdfrwt beam="1">  1        2 0.24158558E+00 0.50731917E+03</pdfrwt>
<pdfrwt beam="2">  1       -2 0.34430942E-01 0.50731917E+03</pdfrwt>
<totfact> 0.95992303E+01</totfact>
</mgrwt>
</event>
<event>
 4    1  0.5410820E-008  0.5971941E+03  0.7818608E-02  0.9911245E-01
          2   -1    0    0  501    0  0.00000000000E+00  0.00000000000E+00  0.11642779330E+04  0.11642779330E+04  0.25500000000E-02 0. -1.
         -2   -1    0    0    0  501 -0.00000000000E+00 -0.00000000000E+00 -0.45873509679E+03  0.45873509680E+03  0.25500000000E-02 0.  1.
    8880022    1    1    2    0    0 -0.43828132807E+03 -0.37571078606E+03  0.82053462159E+03  0.10148486762E+04  0.15294330000E+03 0.  0.
    8880022    1    1    2    0    0  0.43828132807E+03  0.37571078606E+03 -0.11499178539E+03  0.60816435362E+03  0.15294330000E+03 0.  0.
<mgrwt>
<rscale>  0 0.59719408E+03</rscale>
<asrwt>0</asrwt>
<pdfrwt beam="1">  1        2 0.17911968E+00 0.59719408E+03</pdfrwt>
<pdfrwt beam="2">  1       -2 0.70574631E-01 0.59719408E+03</pdfrwt>
<totfact> 0.37619623E+01</totfact>
</mgrwt>
</event>
<event>
 4    1  0.5410820E-008  0.3066920E+03  0.7818608E-02  0.1081942E+00
         -2   -1    0    0    0  501 -0.00000000000E+00  0.00000000000E+00  0.31376837265E+03  0.31376837266E+03  0.25500000000E-02 0.  1.
          2   -1    0    0  501    0  0.00000000000E+00 -0.00000000000E+00 -0.13010338688E+04  0.13010338688E+04  0.25500000000E-02 0. -1.
    8880022    1    1    2    0    0 -0.16562802789E+03  0.20793187421E+03  0.21466881825E+03  0.37435633089E+03  0.15294330000E+03 0.  1.
    8880022    1    1    2    0    0  0.16562802789E+03 -0.20793187421E+03 -0.12019343144E+04  0.12404459106E+04  0.15294330000E+03 0.  0.
<mgrwt>
<rscale>  0 0.30669196E+03</rscale>
<asrwt>0</asrwt>
<pdfrwt beam="1">  1        2 0.20015905E+00 0.30669196E+03</pdfrwt>
<pdfrwt beam="2">  1       -2 0.48272058E-01 0.30669196E+03</pdfrwt>
<totfact> 0.72638080E+01</totfact>
</mgrwt>
</event>
<event>
 4    1  0.5410820E-008  0.6266032E+03  0.7818608E-02  0.9851700E-01
         -2   -1    0    0    0  501 -0.00000000000E+00  0.00000000000E+00  0.22373020853E+03  0.22373020855E+03  0.25500000000E-02 0.  1.
          2   -1    0    0  501    0  0.00000000000E+00 -0.00000000000E+00 -0.26233234139E+04  0.26233234139E+04  0.25500000000E-02 0. -1.
    8880022    1    1    2    0    0 -0.47587672050E+03 -0.37786411559E+03 -0.38077158898E+03  0.73322479428E+03  0.15294330000E+03 0.  0.
    8880022    1    1    2    0    0  0.47587672050E+03  0.37786411559E+03 -0.20188216164E+04  0.21138288281E+04  0.15294330000E+03 0.  0.
<mgrwt>
<rscale>  0 0.62660322E+03</rscale>
<asrwt>0</asrwt>
<pdfrwt beam="1">  1        2 0.40358820E+00 0.62660322E+03</pdfrwt>
<pdfrwt beam="2">  1       -2 0.34420034E-01 0.62660322E+03</pdfrwt>
<totfact> 0.24939742E+01</totfact>
</mgrwt>
</event>
<event>
 4    1  0.5410820E-008  0.6315135E+03  0.7818608E-02  0.9842100E-01
         -2   -1    0    0    0  501 -0.00000000000E+00  0.00000000000E+00  0.11990988402E+04  0.11990988402E+04  0.25500000000E-02 0.  1.
          2   -1    0    0  501    0  0.00000000000E+00 -0.00000000000E+00 -0.82222323138E+03  0.82222323138E+03  0.25500000000E-02 0. -1.
    8880022    1    1    2    0    0 -0.12196394349E+03  0.60045186661E+03 -0.59147440189E+03  0.86524636303E+03  0.15294330000E+03 0.  0.
    8880022    1    1    2    0    0  0.12196394349E+03 -0.60045186661E+03  0.96835001069E+03  0.11560757085E+04  0.15294330000E+03 0.  0.
<mgrwt>
<rscale>  0 0.63151350E+03</rscale>
<asrwt>0</asrwt>
<pdfrwt beam="1">  1        2 0.12649588E+00 0.63151350E+03</pdfrwt>
<pdfrwt beam="2">  1       -2 0.18447674E+00 0.63151350E+03</pdfrwt>
<totfact> 0.58169301E+00</totfact>
</mgrwt>
</event>
<event>
 4    1  0.5410820E-008  0.2662886E+03  0.7818608E-02  0.1103423E+00
          2   -1    0    0  501    0  0.00000000000E+00  0.00000000000E+00  0.48307069663E+02  0.48307069730E+02  0.25500000000E-02 0. -1.
         -2   -1    0    0    0  501 -0.00000000000E+00 -0.00000000000E+00 -0.14697758521E+04  0.14697758521E+04  0.25500000000E-02 0.  1.
    8880022    1    1    2    0    0 -0.21735568620E+03  0.16567041898E+02 -0.73790107917E+03  0.78447920103E+03  0.15294330000E+03 0.  1.
    8880022    1    1    2    0    0  0.21735568620E+03 -0.16567041898E+02 -0.68356770329E+03  0.73360372082E+03  0.15294330000E+03 0. -1.
<mgrwt>
<rscale>  0 0.26628859E+03</rscale>
<asrwt>0</asrwt>
<pdfrwt beam="1">  1        2 0.74318580E-02 0.26628859E+03</pdfrwt>
<pdfrwt beam="2">  1       -2 0.22611933E+00 0.26628859E+03</pdfrwt>
<totfact> 0.92926859E+01</totfact>
</mgrwt>
</event>
<event>
 4    1  0.5410820E-008  0.3903142E+03  0.7818608E-02  0.1047186E+00
          2   -1    0    0  501    0  0.00000000000E+00  0.00000000000E+00  0.46106880391E+04  0.46106880391E+04  0.25500000000E-02 0. -1.
         -2   -1    0    0    0  501 -0.00000000000E+00 -0.00000000000E+00 -0.17658111690E+03  0.17658111691E+03  0.25500000000E-02 0.  1.
    8880022    1    1    2    0    0  0.35873267730E+03  0.16259318456E+02  0.58955027065E+02  0.39474149443E+03  0.15294330000E+03 0.  0.
    8880022    1    1    2    0    0 -0.35873267730E+03 -0.16259318456E+02  0.43751518951E+04  0.43925276616E+04  0.15294330000E+03 0.  0.
<mgrwt>
<rscale>  0 0.39031417E+03</rscale>
<asrwt>0</asrwt>
<pdfrwt beam="1">  1        2 0.70933652E+00 0.39031417E+03</pdfrwt>
<pdfrwt beam="2">  1       -2 0.27166330E-01 0.39031417E+03</pdfrwt>
<totfact> 0.15296512E+00</totfact>
</mgrwt>
</event>
<event>
 4    1  0.5410820E-008  0.4295472E+03  0.7818608E-02  0.1034003E+00
          2   -1    0    0  501    0  0.00000000000E+00  0.00000000000E+00  0.59405633858E+03  0.59405633859E+03  0.25500000000E-02 0. -1.
         -2   -1    0    0    0  501 -0.00000000000E+00 -0.00000000000E+00 -0.18545589812E+04  0.18545589812E+04  0.25500000000E-02 0.  1.
    8880022    1    1    2    0    0 -0.38841770301E+03  0.10124624617E+03 -0.17473431168E+04  0.17993662038E+04  0.15294330000E+03 0.  0.
    8880022    1    1    2    0    0  0.38841770301E+03 -0.10124624617E+03  0.48684047418E+03  0.64924911604E+03  0.15294330000E+03 0.  0.
<mgrwt>
<rscale>  0 0.42954717E+03</rscale>
<asrwt>0</asrwt>
<pdfrwt beam="1">  1        2 0.91393283E-01 0.42954717E+03</pdfrwt>
<pdfrwt beam="2">  1       -2 0.28531677E+00 0.42954717E+03</pdfrwt>
<totfact> 0.21783451E+00</totfact>
</mgrwt>
</event>
<event>
 4    1  0.5410820E-008  0.8841790E+03  0.7818608E-02  0.9445577E-01
          2   -1    0    0  501    0  0.00000000000E+00  0.00000000000E+00  0.30176305481E+04  0.30176305481E+04  0.25500000000E-02 0. -1.
         -2   -1    0    0    0  501 -0.00000000000E+00 -0.00000000000E+00 -0.27292259857E+03  0.27292259858E+03  0.25500000000E-02 0.  1.
    8880022    1    1    2    0    0  0.61519083676E+03 -0.61637734837E+03  0.17430442893E+04  0.19544758501E+04  0.15294330000E+03 0.  0.
    8880022    1    1    2    0    0 -0.61519083676E+03  0.61637734837E+03  0.10016636603E+04  0.13360772966E+04  0.15294330000E+03 0.  0.
<mgrwt>
<rscale>  0 0.88417897E+03</rscale>
<asrwt>0</asrwt>
<pdfrwt beam="1">  1        2 0.46425086E+00 0.88417897E+03</pdfrwt>
<pdfrwt beam="2">  1       -2 0.41988092E-01 0.88417897E+03</pdfrwt>
<totfact> 0.94933911E+00</totfact>
</mgrwt>
</event>
<event>
 4    1  0.5410820E-008  0.1853605E+03  0.7818608E-02  0.1162714E+00
          2   -1    0    0  501    0  0.00000000000E+00  0.00000000000E+00  0.26078915005E+03  0.26078915006E+03  0.25500000000E-02 0. -1.
         -2   -1    0    0    0  501 -0.00000000000E+00 -0.00000000000E+00 -0.10586361535E+04  0.10586361535E+04  0.25500000000E-02 0.  1.
    8880022    1    1    2    0    0 -0.10077925633E+03  0.28467561002E+02 -0.10162217718E+04  0.10329884816E+04  0.15294330000E+03 0.  1.
    8880022    1    1    2    0    0  0.10077925633E+03 -0.28467561002E+02  0.21837476835E+03  0.28643682201E+03  0.15294330000E+03 0.  0.
<mgrwt>
<rscale>  0 0.18536050E+03</rscale>
<asrwt>0</asrwt>
<pdfrwt beam="1">  1        2 0.40121408E-01 0.18536050E+03</pdfrwt>
<pdfrwt beam="2">  1       -2 0.16286710E+00 0.18536050E+03</pdfrwt>
<totfact> 0.33392276E+01</totfact>
</mgrwt>
</event>
<event>
 4    1  0.5410820E-008  0.3837318E+03  0.7818608E-02  0.1049563E+00
         -2   -1    0    0    0  501 -0.00000000000E+00  0.00000000000E+00  0.10447115832E+03  0.10447115836E+03  0.25500000000E-02 0.  1.
          2   -1    0    0  501    0  0.00000000000E+00 -0.00000000000E+00 -0.27161833179E+04  0.27161833179E+04  0.25500000000E-02 0. -1.
    8880022    1    1    2    0    0 -0.11178350072E+03 -0.33371078144E+03 -0.22840584758E+04  0.23160684814E+04  0.15294330000E+03 0.  0.
    8880022    1    1    2    0    0  0.11178350072E+03  0.33371078144E+03 -0.32765368375E+03  0.50458599482E+03  0.15294330000E+03 0.  0.
<mgrwt>
<rscale>  0 0.38373179E+03</rscale>
<asrwt>0</asrwt>
<pdfrwt beam="1">  1        2 0.41787430E+00 0.38373179E+03</pdfrwt>
<pdfrwt beam="2">  1       -2 0.16072488E-01 0.38373179E+03</pdfrwt>
<totfact> 0.90151892E+01</totfact>
</mgrwt>
</event>
<event>
 4    1  0.5410820E-008  0.5845823E+03  0.7818608E-02  0.9937919E-01
         -2   -1    0    0    0  501 -0.00000000000E+00  0.00000000000E+00  0.32626296372E+03  0.32626296373E+03  0.25500000000E-02 0.  1.
          2   -1    0    0  501    0  0.00000000000E+00 -0.00000000000E+00 -0.15038158639E+04  0.15038158639E+04  0.25500000000E-02 0. -1.
    8880022    1    1    2    0    0  0.51078224082E+03 -0.23967969624E+03 -0.10928688840E+04  0.12393945719E+04  0.15294330000E+03 0.  0.
    8880022    1    1    2    0    0 -0.51078224082E+03  0.23967969624E+03 -0.84684016198E+02  0.59068425571E+03  0.15294330000E+03 0.  0.
<mgrwt>
<rscale>  0 0.58458234E+03</rscale>
<asrwt>0</asrwt>
<pdfrwt beam="1">  1        2 0.23135628E+00 0.58458234E+03</pdfrwt>
<pdfrwt beam="2">  1       -2 0.50194303E-01 0.58458234E+03</pdfrwt>
<totfact> 0.49423781E+01</totfact>
</mgrwt>
</event>
<event>
 4    1  0.5410820E-008  0.9988198E+03  0.7818608E-02  0.9309840E-01
         -2   -1    0    0    0  501 -0.00000000000E+00  0.00000000000E+00  0.90572887677E+03  0.90572887677E+03  0.25500000000E-02 0.  1.
          2   -1    0    0  501    0  0.00000000000E+00 -0.00000000000E+00 -0.14948318876E+04  0.14948318876E+04  0.25500000000E-02 0. -1.
    8880022    1    1    2    0    0 -0.98516825387E+03 -0.60769568757E+02 -0.91026384605E+03  0.13513775754E+04  0.15294330000E+03 0.  0.
    8880022    1    1    2    0    0  0.98516825387E+03  0.60769568757E+02  0.32116083520E+03  0.10491831890E+04  0.15294330000E+03 0.  0.
<mgrwt>
<rscale>  0 0.99881984E+03</rscale>
<asrwt>0</asrwt>
<pdfrwt beam="1">  1        2 0.22997414E+00 0.99881984E+03</pdfrwt>
<pdfrwt beam="2">  1       -2 0.13934290E+00 0.99881984E+03</pdfrwt>
<totfact> 0.46144281E+00</totfact>
</mgrwt>
</event>
<event>
 4    1  0.5410820E-008  0.2104434E+03  0.7818608E-02  0.1141215E+00
          2   -1    0    0  501    0  0.00000000000E+00  0.00000000000E+00  0.13032217795E+04  0.13032217795E+04  0.25500000000E-02 0. -1.
         -2   -1    0    0    0  501 -0.00000000000E+00 -0.00000000000E+00 -0.23573379006E+03  0.23573379007E+03  0.25500000000E-02 0.  1.
    8880022    1    1    2    0    0 -0.95048344597E+01 -0.14423733707E+03  0.12456023705E+04  0.12632543962E+04  0.15294330000E+03 0. -1.
    8880022    1    1    2    0    0  0.95048344597E+01  0.14423733707E+03 -0.17811438098E+03  0.27570117339E+03  0.15294330000E+03 0.  0.
<mgrwt>
<rscale>  0 0.21044335E+03</rscale>
<asrwt>0</asrwt>
<pdfrwt beam="1">  1        2 0.20049566E+00 0.21044335E+03</pdfrwt>
<pdfrwt beam="2">  1       -2 0.36266737E-01 0.21044335E+03</pdfrwt>
<totfact> 0.12890133E+02</totfact>
</mgrwt>
</event>
<event>
 4    1  0.5410820E-008  0.8321753E+03  0.7818608E-02  0.9514578E-01
         -2   -1    0    0    0  501 -0.00000000000E+00  0.00000000000E+00  0.81629814290E+03  0.81629814290E+03  0.25500000000E-02 0.  1.
          2   -1    0    0  501    0  0.00000000000E+00 -0.00000000000E+00 -0.16130031573E+04  0.16130031573E+04  0.25500000000E-02 0. -1.
    8880022    1    1    2    0    0 -0.77804949511E+03 -0.25251347480E+03  0.43794888988E+03  0.94038021829E+03  0.15294330000E+03 0.  0.
    8880022    1    1    2    0    0  0.77804949511E+03  0.25251347480E+03 -0.12346539043E+04  0.14889210819E+04  0.15294330000E+03 0.  0.
<mgrwt>
<rscale>  0 0.83217530E+03</rscale>
<asrwt>0</asrwt>
<pdfrwt beam="1">  1        2 0.24815433E+00 0.83217530E+03</pdfrwt>
<pdfrwt beam="2">  1       -2 0.12558433E+00 0.83217530E+03</pdfrwt>
<totfact> 0.52773696E+00</totfact>
</mgrwt>
</event>
<event>
 4    1  0.5410820E-008  0.4264783E+03  0.7818608E-02  0.1034978E+00
          2   -1    0    0  501    0  0.00000000000E+00  0.00000000000E+00  0.13355204254E+04  0.13355204254E+04  0.25500000000E-02 0. -1.
         -2   -1    0    0    0  501 -0.00000000000E+00 -0.00000000000E+00 -0.26692847599E+03  0.26692847600E+03  0.25500000000E-02 0.  1.
    8880022    1    1    2    0    0 -0.23877146891E+03  0.31855968995E+03  0.10950332458E+04  0.11751517149E+04  0.15294330000E+03 0.  0.
    8880022    1    1    2    0    0  0.23877146891E+03 -0.31855968995E+03 -0.26441296468E+02  0.42729718651E+03  0.15294330000E+03 0.  0.
<mgrwt>
<rscale>  0 0.42647830E+03</rscale>
<asrwt>0</asrwt>
<pdfrwt beam="1">  1        2 0.20546468E+00 0.42647830E+03</pdfrwt>
<pdfrwt beam="2">  1       -2 0.41065920E-01 0.42647830E+03</pdfrwt>
<totfact> 0.93415373E+01</totfact>
</mgrwt>
</event>
<event>
 4    1  0.5410820E-008  0.2916585E+03  0.7818608E-02  0.1089486E+00
          2   -1    0    0  501    0  0.00000000000E+00  0.00000000000E+00  0.20263510239E+03  0.20263510240E+03  0.25500000000E-02 0. -1.
         -2   -1    0    0    0  501 -0.00000000000E+00 -0.00000000000E+00 -0.49484089374E+03  0.49484089374E+03  0.25500000000E-02 0.  1.
    8880022    1    1    2    0    0 -0.19075237884E+03 -0.15901748753E+03 -0.28191464669E+03  0.40563598510E+03  0.15294330000E+03 0.  0.
    8880022    1    1    2    0    0  0.19075237884E+03  0.15901748753E+03 -0.10291144662E+02  0.29184001105E+03  0.15294330000E+03 0.  0.
<mgrwt>
<rscale>  0 0.29165851E+03</rscale>
<asrwt>0</asrwt>
<pdfrwt beam="1">  1        2 0.31174631E-01 0.29165851E+03</pdfrwt>
<pdfrwt beam="2">  1       -2 0.76129368E-01 0.29165851E+03</pdfrwt>
<totfact> 0.26830743E+02</totfact>
</mgrwt>
</event>
<event>
 4    1  0.5410820E-008  0.1772095E+03  0.7818608E-02  0.1170531E+00
         -2   -1    0    0    0  501 -0.00000000000E+00  0.00000000000E+00  0.24648882373E+02  0.24648882505E+02  0.25500000000E-02 0.  1.
          2   -1    0    0  501    0  0.00000000000E+00 -0.00000000000E+00 -0.21509162650E+04  0.21509162650E+04  0.25500000000E-02 0. -1.
    8880022    1    1    2    0    0 -0.74290685579E+02 -0.49924550240E+02 -0.36858299951E+03  0.40897022780E+03  0.15294330000E+03 0.  0.
    8880022    1    1    2    0    0  0.74290685579E+02  0.49924550240E+02 -0.17576843832E+04  0.17665949198E+04  0.15294330000E+03 0.  0.
<mgrwt>
<rscale>  0 0.17720954E+03</rscale>
<asrwt>0</asrwt>
<pdfrwt beam="1">  1        2 0.33091004E+00 0.17720954E+03</pdfrwt>
<pdfrwt beam="2">  1       -2 0.37921375E-02 0.17720954E+03</pdfrwt>
<totfact> 0.18567590E+03</totfact>
</mgrwt>
</event>
<event>
 4    1  0.5410820E-008  0.1790867E+03  0.7818608E-02  0.1168690E+00
         -2   -1    0    0    0  501 -0.00000000000E+00  0.00000000000E+00  0.67192008430E+03  0.67192008431E+03  0.25500000000E-02 0.  1.
          2   -1    0    0  501    0  0.00000000000E+00 -0.00000000000E+00 -0.47170301527E+03  0.47170301528E+03  0.25500000000E-02 0. -1.
    8880022    1    1    2    0    0 -0.51981230471E+02 -0.77319781249E+02  0.64221765102E+03  0.66672000210E+03  0.15294330000E+03 0.  0.
    8880022    1    1    2    0    0  0.51981230471E+02  0.77319781249E+02 -0.44200058200E+03  0.47690309749E+03  0.15294330000E+03 0. -1.
<mgrwt>
<rscale>  0 0.17908671E+03</rscale>
<asrwt>0</asrwt>
<pdfrwt beam="1">  1        2 0.72569695E-01 0.17908671E+03</pdfrwt>
<pdfrwt beam="2">  1       -2 0.10337232E+00 0.17908671E+03</pdfrwt>
<totfact> 0.54375788E+01</totfact>
</mgrwt>
</event>
<event>
 4    1  0.5410820E-008  0.8384131E+03  0.7818608E-02  0.9506022E-01
         -2   -1    0    0    0  501 -0.00000000000E+00  0.00000000000E+00  0.26585521707E+04  0.26585521707E+04  0.25500000000E-02 0.  1.
          2   -1    0    0  501    0  0.00000000000E+00 -0.00000000000E+00 -0.84788447966E+03  0.84788447966E+03  0.25500000000E-02 0. -1.
    8880022    1    1    2    0    0  0.75571982005E+03  0.32929068442E+03 -0.54905379961E+03  0.10021958537E+04  0.15294330000E+03 0. -1.
    8880022    1    1    2    0    0 -0.75571982005E+03 -0.32929068442E+03  0.23597214906E+04  0.25042407967E+04  0.15294330000E+03 0.  0.
<mgrwt>
<rscale>  0 0.83841306E+03</rscale>
<asrwt>0</asrwt>
<pdfrwt beam="1">  1        2 0.13044377E+00 0.83841306E+03</pdfrwt>
<pdfrwt beam="2">  1       -2 0.40900802E+00 0.83841306E+03</pdfrwt>
<totfact> 0.21627229E-01</totfact>
</mgrwt>
</event>
<event>
 4    1  0.5410820E-008  0.6848086E+03  0.7818608E-02  0.9743570E-01
         -2   -1    0    0    0  501 -0.00000000000E+00  0.00000000000E+00  0.52449639511E+03  0.52449639512E+03  0.25500000000E-02 0.  1.
          2   -1    0    0  501    0  0.00000000000E+00 -0.00000000000E+00 -0.10135532899E+04  0.10135532899E+04  0.25500000000E-02 0. -1.
    8880022    1    1    2    0    0  0.49808927203E+03 -0.44438526606E+03 -0.50851350442E+03  0.85296472658E+03  0.15294330000E+03 0.  0.
    8880022    1    1    2    0    0 -0.49808927203E+03  0.44438526606E+03  0.19456609633E+02  0.68508495844E+03  0.15294330000E+03 0.  1.
<mgrwt>
<rscale>  0 0.68480862E+03</rscale>
<asrwt>0</asrwt>
<pdfrwt beam="1">  1        2 0.15593128E+00 0.68480862E+03</pdfrwt>
<pdfrwt beam="2">  1       -2 0.80691753E-01 0.68480862E+03</pdfrwt>
<totfact> 0.34233492E+01</totfact>
</mgrwt>
</event>
<event>
 4    1  0.5410820E-008  0.4803650E+03  0.7818608E-02  0.1019035E+00
         -2   -1    0    0    0  501 -0.00000000000E+00  0.00000000000E+00  0.26851125411E+03  0.26851125412E+03  0.25500000000E-02 0.  1.
          2   -1    0    0  501    0  0.00000000000E+00 -0.00000000000E+00 -0.10758010178E+04  0.10758010178E+04  0.25500000000E-02 0. -1.
    8880022    1    1    2    0    0 -0.42139501132E+03 -0.17258355938E+03 -0.10216104853E+03  0.49110831126E+03  0.15294330000E+03 0.  1.
    8880022    1    1    2    0    0  0.42139501132E+03  0.17258355938E+03 -0.70512871517E+03  0.85320396067E+03  0.15294330000E+03 0.  0.
<mgrwt>
<rscale>  0 0.48036496E+03</rscale>
<asrwt>0</asrwt>
<pdfrwt beam="1">  1        2 0.16550785E+00 0.48036496E+03</pdfrwt>
<pdfrwt beam="2">  1       -2 0.41309425E-01 0.48036496E+03</pdfrwt>
<totfact> 0.12985715E+02</totfact>
</mgrwt>
</event>
<event>
 4    1  0.5410820E-008  0.4150277E+03  0.7818608E-02  0.1038697E+00
         -2   -1    0    0    0  501 -0.00000000000E+00  0.00000000000E+00  0.12288503002E+03  0.12288503005E+03  0.25500000000E-02 0.  1.
          2   -1    0    0  501    0  0.00000000000E+00 -0.00000000000E+00 -0.15329637710E+04  0.15329637710E+04  0.25500000000E-02 0. -1.
    8880022    1    1    2    0    0  0.18396996967E+03 -0.33913334925E+03 -0.94730735954E+03  0.10342336606E+04  0.15294330000E+03 0. -1.
    8880022    1    1    2    0    0 -0.18396996967E+03  0.33913334925E+03 -0.46277138145E+03  0.62161514043E+03  0.15294330000E+03 0.  1.
<mgrwt>
<rscale>  0 0.41502775E+03</rscale>
<asrwt>0</asrwt>
<pdfrwt beam="1">  1        2 0.23584057E+00 0.41502775E+03</pdfrwt>
<pdfrwt beam="2">  1       -2 0.18905390E-01 0.41502775E+03</pdfrwt>
<totfact> 0.29910214E+02</totfact>
</mgrwt>
</event>
<event>
 4    1  0.5410820E-008  0.7498664E+03  0.7818608E-02  0.9635560E-01
         -2   -1    0    0    0  501 -0.00000000000E+00  0.00000000000E+00  0.85297902704E+03  0.85297902705E+03  0.25500000000E-02 0.  1.
          2   -1    0    0  501    0  0.00000000000E+00 -0.00000000000E+00 -0.99603291219E+03  0.99603291220E+03  0.25500000000E-02 0. -1.
    8880022    1    1    2    0    0 -0.41893622751E+03 -0.60282705966E+03 -0.60913790288E+03  0.96609971758E+03  0.15294330000E+03 0.  0.
    8880022    1    1    2    0    0  0.41893622751E+03  0.60282705966E+03  0.46608401773E+03  0.88291222167E+03  0.15294330000E+03 0.  0.
<mgrwt>
<rscale>  0 0.74986644E+03</rscale>
<asrwt>0</asrwt>
<pdfrwt beam="1">  1        2 0.15323583E+00 0.74986644E+03</pdfrwt>
<pdfrwt beam="2">  1       -2 0.13122754E+00 0.74986644E+03</pdfrwt>
<totfact> 0.10930908E+01</totfact>
</mgrwt>
</event>
<event>
 4    1  0.5410820E-008  0.5514548E+03  0.7818608E-02  0.1001158E+00
         -2   -1    0    0    0  501 -0.00000000000E+00  0.00000000000E+00  0.23917864372E+03  0.23917864373E+03  0.25500000000E-02 0.  1.
          2   -1    0    0  501    0  0.00000000000E+00 -0.00000000000E+00 -0.22703663332E+04  0.22703663332E+04  0.25500000000E-02 0. -1.
    8880022    1    1    2    0    0  0.38831606689E+03 -0.36044609164E+03 -0.18478992980E+04  0.19284279145E+04  0.15294330000E+03 0.  0.
    8880022    1    1    2    0    0 -0.38831606689E+03  0.36044609164E+03 -0.18328839146E+03  0.58111706243E+03  0.15294330000E+03 0.  1.
<mgrwt>
<rscale>  0 0.55145481E+03</rscale>
<asrwt>0</asrwt>
<pdfrwt beam="1">  1        2 0.34928711E+00 0.55145481E+03</pdfrwt>
<pdfrwt beam="2">  1       -2 0.36796716E-01 0.55145481E+03</pdfrwt>
<totfact> 0.35101560E+01</totfact>
</mgrwt>
</event>
<event>
 4    1  0.5410820E-008  0.2572634E+03  0.7818608E-02  0.1108799E+00
          2   -1    0    0  501    0  0.00000000000E+00  0.00000000000E+00  0.17708280199E+04  0.17708280199E+04  0.25500000000E-02 0. -1.
         -2   -1    0    0    0  501 -0.00000000000E+00 -0.00000000000E+00 -0.80903265818E+02  0.80903265859E+02  0.25500000000E-02 0.  1.
    8880022    1    1    2    0    0 -0.20474072008E+03 -0.29563777192E+02  0.15240899614E+04  0.15456502330E+04  0.15294330000E+03 0.  0.
    8880022    1    1    2    0    0  0.20474072008E+03  0.29563777192E+02  0.16583479273E+03  0.30608105279E+03  0.15294330000E+03 0.  1.
<mgrwt>
<rscale>  0 0.25726335E+03</rscale>
<asrwt>0</asrwt>
<pdfrwt beam="1">  1        2 0.27243509E+00 0.25726335E+03</pdfrwt>
<pdfrwt beam="2">  1       -2 0.12446656E-01 0.25726335E+03</pdfrwt>
<totfact> 0.45919638E+02</totfact>
</mgrwt>
</event>
<event>
 4    1  0.5410820E-008  0.4675839E+03  0.7818608E-02  0.1022604E+00
          2   -1    0    0  501    0  0.00000000000E+00  0.00000000000E+00  0.71195157510E+03  0.71195157510E+03  0.25500000000E-02 0. -1.
         -2   -1    0    0    0  501 -0.00000000000E+00 -0.00000000000E+00 -0.58587786473E+03  0.58587786474E+03  0.25500000000E-02 0.  1.
    8880022    1    1    2    0    0  0.40154209924E+03 -0.18440987138E+03  0.51066704611E+03  0.69239839914E+03  0.15294330000E+03 0.  0.
    8880022    1    1    2    0    0 -0.40154209924E+03  0.18440987138E+03 -0.38459333575E+03  0.60543104070E+03  0.15294330000E+03 0.  1.
<mgrwt>
<rscale>  0 0.46758391E+03</rscale>
<asrwt>0</asrwt>
<pdfrwt beam="1">  1        2 0.10953101E+00 0.46758391E+03</pdfrwt>
<pdfrwt beam="2">  1       -2 0.90135056E-01 0.46758391E+03</pdfrwt>
<totfact> 0.43990542E+01</totfact>
</mgrwt>
</event>
<event>
 4    1  0.5410820E-008  0.6154911E+03  0.7818608E-02  0.9873778E-01
         -2   -1    0    0    0  501 -0.00000000000E+00  0.00000000000E+00  0.88918411639E+02  0.88918411675E+02  0.25500000000E-02 0.  1.
          2   -1    0    0  501    0  0.00000000000E+00 -0.00000000000E+00 -0.45482725547E+04  0.45482725547E+04  0.25500000000E-02 0. -1.
    8880022    1    1    2    0    0 -0.54079600213E+03  0.25095290533E+03 -0.28129752287E+04  0.28795240869E+04  0.15294330000E+03 0.  0.
    8880022    1    1    2    0    0  0.54079600213E+03 -0.25095290533E+03 -0.16463789144E+04  0.17576668795E+04  0.15294330000E+03 0.  0.
<mgrwt>
<rscale>  0 0.61549113E+03</rscale>
<asrwt>0</asrwt>
<pdfrwt beam="1">  1        2 0.69973406E+00 0.61549113E+03</pdfrwt>
<pdfrwt beam="2">  1       -2 0.13679759E-01 0.61549113E+03</pdfrwt>
<totfact> 0.52978492E+00</totfact>
</mgrwt>
</event>
<event>
 4    1  0.5410820E-008  0.5418234E+03  0.7818608E-02  0.1003404E+00
          2   -1    0    0  501    0  0.00000000000E+00  0.00000000000E+00  0.10372299696E+04  0.10372299696E+04  0.25500000000E-02 0. -1.
         -2   -1    0    0    0  501 -0.00000000000E+00 -0.00000000000E+00 -0.86330123490E+03  0.86330123490E+03  0.25500000000E-02 0.  1.
    8880022    1    1    2    0    0  0.46090310484E+03  0.24031068775E+03 -0.69210731261E+03  0.87896819276E+03  0.15294330000E+03 0.  0.
    8880022    1    1    2    0    0 -0.46090310484E+03 -0.24031068775E+03  0.86603604727E+03  0.10215630117E+04  0.15294330000E+03 0.  0.
<mgrwt>
<rscale>  0 0.54182336E+03</rscale>
<asrwt>0</asrwt>
<pdfrwt beam="1">  1        2 0.15957384E+00 0.54182336E+03</pdfrwt>
<pdfrwt beam="2">  1       -2 0.13281557E+00 0.54182336E+03</pdfrwt>
<totfact> 0.10283547E+01</totfact>
</mgrwt>
</event>
<event>
 4    1  0.5410820E-008  0.7479466E+03  0.7818608E-02  0.9638577E-01
          2   -1    0    0  501    0  0.00000000000E+00  0.00000000000E+00  0.27413841780E+04  0.27413841780E+04  0.25500000000E-02 0. -1.
         -2   -1    0    0    0  501 -0.00000000000E+00 -0.00000000000E+00 -0.31782048909E+03  0.31782048910E+03  0.25500000000E-02 0.  1.
    8880022    1    1    2    0    0 -0.69798456948E+03 -0.22102037598E+03  0.29667606932E+03  0.80463706661E+03  0.15294330000E+03 0.  0.
    8880022    1    1    2    0    0  0.69798456948E+03  0.22102037598E+03  0.21268876196E+04  0.22545676005E+04  0.15294330000E+03 0.  0.
<mgrwt>
<rscale>  0 0.74794660E+03</rscale>
<asrwt>0</asrwt>
<pdfrwt beam="1">  1        2 0.42175142E+00 0.74794660E+03</pdfrwt>
<pdfrwt beam="2">  1       -2 0.48895459E-01 0.74794660E+03</pdfrwt>
<totfact> 0.10487599E+01</totfact>
</mgrwt>
</event>
<event>
 4    1  0.5410820E-008  0.3744262E+03  0.7818608E-02  0.1053013E+00
          2   -1    0    0  501    0  0.00000000000E+00  0.00000000000E+00  0.37003793028E+04  0.37003793028E+04  0.25500000000E-02 0. -1.
         -2   -1    0    0    0  501 -0.00000000000E+00 -0.00000000000E+00 -0.58778220567E+02  0.58778220622E+02  0.25500000000E-02 0.  1.
    8880022    1    1    2    0    0  0.26318931414E+03 -0.21802449493E+03  0.70023327134E+03  0.79405389160E+03  0.15294330000E+03 0.  0.
    8880022    1    1    2    0    0 -0.26318931414E+03  0.21802449493E+03  0.29413678109E+04  0.29651036318E+04  0.15294330000E+03 0.  0.
<mgrwt>
<rscale>  0 0.37442616E+03</rscale>
<asrwt>0</asrwt>
<pdfrwt beam="1">  1        2 0.56928925E+00 0.37442616E+03</pdfrwt>
<pdfrwt beam="2">  1       -2 0.90428012E-02 0.37442616E+03</pdfrwt>
<totfact> 0.55612474E+01</totfact>
</mgrwt>
</event>
<event>
 4    1  0.5410820E-008  0.6476814E+03  0.7818608E-02  0.9811140E-01
          2   -1    0    0  501    0  0.00000000000E+00  0.00000000000E+00  0.17880873062E+04  0.17880873062E+04  0.25500000000E-02 0. -1.
         -2   -1    0    0    0  501 -0.00000000000E+00 -0.00000000000E+00 -0.44626840816E+03  0.44626840817E+03  0.25500000000E-02 0.  1.
    8880022    1    1    2    0    0 -0.59803661285E+03 -0.19609102178E+03 -0.98484759377E+02  0.65512623209E+03  0.15294330000E+03 0.  0.
    8880022    1    1    2    0    0  0.59803661285E+03  0.19609102178E+03  0.14403036574E+04  0.15792294823E+04  0.15294330000E+03 0.  0.
<mgrwt>
<rscale>  0 0.64768135E+03</rscale>
<asrwt>0</asrwt>
<pdfrwt beam="1">  1        2 0.27509035E+00 0.64768135E+03</pdfrwt>
<pdfrwt beam="2">  1       -2 0.68656679E-01 0.64768135E+03</pdfrwt>
<totfact> 0.17757260E+01</totfact>
</mgrwt>
</event>
<event>
 4    1  0.5410820E-008  0.2079528E+03  0.7818608E-02  0.1143197E+00
         -2   -1    0    0    0  501 -0.00000000000E+00  0.00000000000E+00  0.99276911006E+02  0.99276911039E+02  0.25500000000E-02 0.  1.
          2   -1    0    0  501    0  0.00000000000E+00 -0.00000000000E+00 -0.19790697905E+04  0.19790697905E+04  0.25500000000E-02 0. -1.
    8880022    1    1    2    0    0  0.10148575805E+03 -0.97741300839E+02 -0.22182281625E+02  0.20913255990E+03  0.15294330000E+03 0.  0.
    8880022    1    1    2    0    0 -0.10148575805E+03  0.97741300839E+02 -0.18576105979E+04  0.18692141417E+04  0.15294330000E+03 0. -1.
<mgrwt>
<rscale>  0 0.20795282E+03</rscale>
<asrwt>0</asrwt>
<pdfrwt beam="1">  1        2 0.30447225E+00 0.20795282E+03</pdfrwt>
<pdfrwt beam="2">  1       -2 0.15273372E-01 0.20795282E+03</pdfrwt>
<totfact> 0.25845580E+02</totfact>
</mgrwt>
</event>
<event>
 4    1  0.5410820E-008  0.4675846E+03  0.7818608E-02  0.1022604E+00
         -2   -1    0    0    0  501 -0.00000000000E+00  0.00000000000E+00  0.64443409912E+03  0.64443409913E+03  0.25500000000E-02 0.  1.
          2   -1    0    0  501    0  0.00000000000E+00 -0.00000000000E+00 -0.29494229389E+04  0.29494229389E+04  0.25500000000E-02 0. -1.
    8880022    1    1    2    0    0  0.39184759394E+03  0.20420371793E+03 -0.28429177799E+04  0.28811138214E+04  0.15294330000E+03 0.  0.
    8880022    1    1    2    0    0 -0.39184759394E+03 -0.20420371793E+03  0.53792894012E+03  0.71274321668E+03  0.15294330000E+03 0.  0.
<mgrwt>
<rscale>  0 0.46758459E+03</rscale>
<asrwt>0</asrwt>
<pdfrwt beam="1">  1        2 0.45375737E+00 0.46758459E+03</pdfrwt>
<pdfrwt beam="2">  1       -2 0.99143709E-01 0.46758459E+03</pdfrwt>
<totfact> 0.18166930E+00</totfact>
</mgrwt>
</event>
<event>
 4    1  0.5410820E-008  0.6711098E+03  0.7818608E-02  0.9767955E-01
          2   -1    0    0  501    0  0.00000000000E+00  0.00000000000E+00  0.14341925413E+04  0.14341925413E+04  0.25500000000E-02 0. -1.
         -2   -1    0    0    0  501 -0.00000000000E+00 -0.00000000000E+00 -0.65246358863E+03  0.65246358863E+03  0.25500000000E-02 0.  1.
    8880022    1    1    2    0    0 -0.35145595711E+03 -0.55088601941E+03 -0.36054300177E+03  0.76182649292E+03  0.15294330000E+03 0.  0.
    8880022    1    1    2    0    0  0.35145595711E+03  0.55088601941E+03  0.11422719544E+04  0.13248296370E+04  0.15294330000E+03 0.  0.
<mgrwt>
<rscale>  0 0.67110979E+03</rscale>
<asrwt>0</asrwt>
<pdfrwt beam="1">  1        2 0.22064501E+00 0.67110979E+03</pdfrwt>
<pdfrwt beam="2">  1       -2 0.10037901E+00 0.67110979E+03</pdfrwt>
<totfact> 0.11716414E+01</totfact>
</mgrwt>
</event>
<event>
 4    1  0.5410820E-008  0.5526291E+03  0.7818608E-02  0.1000887E+00
         -2   -1    0    0    0  501 -0.00000000000E+00  0.00000000000E+00  0.69089579060E+03  0.69089579061E+03  0.25500000000E-02 0.  1.
          2   -1    0    0  501    0  0.00000000000E+00 -0.00000000000E+00 -0.15154552895E+04  0.15154552895E+04  0.25500000000E-02 0. -1.
    8880022    1    1    2    0    0  0.38865749337E+03 -0.36187377614E+03  0.51616979752E+03  0.75619454501E+03  0.15294330000E+03 0.  0.
    8880022    1    1    2    0    0 -0.38865749337E+03  0.36187377614E+03 -0.13407292965E+04  0.14501565351E+04  0.15294330000E+03 0. -1.
<mgrwt>
<rscale>  0 0.55262911E+03</rscale>
<asrwt>0</asrwt>
<pdfrwt beam="1">  1        2 0.23314697E+00 0.55262911E+03</pdfrwt>
<pdfrwt beam="2">  1       -2 0.10629166E+00 0.55262911E+03</pdfrwt>
<totfact> 0.93976443E+00</totfact>
</mgrwt>
</event>
<event>
 4    1  0.5410820E-008  0.3140475E+03  0.7818608E-02  0.1078422E+00
          2   -1    0    0  501    0  0.00000000000E+00  0.00000000000E+00  0.49703596072E+03  0.49703596073E+03  0.25500000000E-02 0. -1.
         -2   -1    0    0    0  501 -0.00000000000E+00 -0.00000000000E+00 -0.62090689861E+03  0.62090689862E+03  0.25500000000E-02 0.  1.
    8880022    1    1    2    0    0 -0.23618954286E+03 -0.13945849202E+03 -0.52301825388E+03  0.61006058556E+03  0.15294330000E+03 0.  0.
    8880022    1    1    2    0    0  0.23618954286E+03  0.13945849202E+03  0.39914731599E+03  0.50788227379E+03  0.15294330000E+03 0. -1.
<mgrwt>
<rscale>  0 0.31404749E+03</rscale>
<asrwt>0</asrwt>
<pdfrwt beam="1">  1        2 0.76467071E-01 0.31404749E+03</pdfrwt>
<pdfrwt beam="2">  1       -2 0.95524138E-01 0.31404749E+03</pdfrwt>
<totfact> 0.60104294E+01</totfact>
</mgrwt>
</event>
<event>
 4    1  0.5410820E-008  0.6713329E+03  0.7818608E-02  0.9767553E-01
          2   -1    0    0  501    0  0.00000000000E+00  0.00000000000E+00  0.99341081712E+03  0.99341081712E+03  0.25500000000E-02 0. -1.
         -2   -1    0    0    0  501 -0.00000000000E+00 -0.00000000000E+00 -0.20085517909E+04  0.20085517909E+04  0.25500000000E-02 0.  1.
    8880022    1    1    2    0    0 -0.24501602053E+03  0.60602251916E+03  0.81306041273E+03  0.10543979476E+04  0.15294330000E+03 0.  0.
    8880022    1    1    2    0    0  0.24501602053E+03 -0.60602251916E+03 -0.18282013865E+04  0.19475646604E+04  0.15294330000E+03 0.  0.
<mgrwt>
<rscale>  0 0.67133285E+03</rscale>
<asrwt>0</asrwt>
<pdfrwt beam="1">  1        2 0.15283243E+00 0.67133285E+03</pdfrwt>
<pdfrwt beam="2">  1       -2 0.30900797E+00 0.67133285E+03</pdfrwt>
<totfact> 0.75890942E-01</totfact>
</mgrwt>
</event>
<event>
 4    1  0.5410820E-008  0.4135020E+03  0.7818608E-02  0.1039202E+00
         -2   -1    0    0    0  501 -0.00000000000E+00  0.00000000000E+00  0.14937248584E+04  0.14937248584E+04  0.25500000000E-02 0.  1.
          2   -1    0    0  501    0  0.00000000000E+00 -0.00000000000E+00 -0.18538217004E+04  0.18538217004E+04  0.25500000000E-02 0. -1.
    8880022    1    1    2    0    0 -0.13204754643E+02  0.38395038987E+03  0.14412261971E+04  0.14993721591E+04  0.15294330000E+03 0.  0.
    8880022    1    1    2    0    0  0.13204754643E+02 -0.38395038987E+03 -0.18013230391E+04  0.18481743997E+04  0.15294330000E+03 0. -1.
<mgrwt>
<rscale>  0 0.41350202E+03</rscale>
<asrwt>0</asrwt>
<pdfrwt beam="1">  1        2 0.28520334E+00 0.41350202E+03</pdfrwt>
<pdfrwt beam="2">  1       -2 0.22980382E+00 0.41350202E+03</pdfrwt>
<totfact> 0.79555048E-01</totfact>
</mgrwt>
</event>
<event>
 4    1  0.5410820E-008  0.4338420E+03  0.7818608E-02  0.1032653E+00
          2   -1    0    0  501    0  0.00000000000E+00  0.00000000000E+00  0.40246488557E+03  0.40246488558E+03  0.25500000000E-02 0. -1.
         -2   -1    0    0    0  501 -0.00000000000E+00 -0.00000000000E+00 -0.22811086460E+04  0.22811086460E+04  0.25500000000E-02 0.  1.
    8880022    1    1    2    0    0  0.38751359487E+03  0.12108039513E+03 -0.21356835853E+04  0.21793033928E+04  0.15294330000E+03 0.  0.
    8880022    1    1    2    0    0 -0.38751359487E+03 -0.12108039513E+03  0.25703982487E+03  0.50427013879E+03  0.15294330000E+03 0.  0.
<mgrwt>
<rscale>  0 0.43384202E+03</rscale>
<asrwt>0</asrwt>
<pdfrwt beam="1">  1        2 0.61917676E-01 0.43384202E+03</pdfrwt>
<pdfrwt beam="2">  1       -2 0.35093978E+00 0.43384202E+03</pdfrwt>
<totfact> 0.13702641E+00</totfact>
</mgrwt>
</event>
<event>
 4    1  0.5410820E-008  0.3341063E+03  0.7818608E-02  0.1069334E+00
          2   -1    0    0  501    0  0.00000000000E+00  0.00000000000E+00  0.23938832712E+04  0.23938832712E+04  0.25500000000E-02 0. -1.
         -2   -1    0    0    0  501 -0.00000000000E+00 -0.00000000000E+00 -0.79343548026E+03  0.79343548027E+03  0.25500000000E-02 0.  1.
    8880022    1    1    2    0    0  0.25213325037E+03  0.15704843195E+03  0.23463446495E+04  0.23700127117E+04  0.15294330000E+03 0.  0.
    8880022    1    1    2    0    0 -0.25213325037E+03 -0.15704843195E+03 -0.74589685864E+03  0.81730603978E+03  0.15294330000E+03 0.  0.
<mgrwt>
<rscale>  0 0.33410633E+03</rscale>
<asrwt>0</asrwt>
<pdfrwt beam="1">  1        2 0.36828974E+00 0.33410633E+03</pdfrwt>
<pdfrwt beam="2">  1       -2 0.12206700E+00 0.33410633E+03</pdfrwt>
<totfact> 0.24100004E+00</totfact>
</mgrwt>
</event>
<event>
 4    1  0.5410820E-008  0.7401918E+03  0.7818608E-02  0.9650865E-01
          2   -1    0    0  501    0  0.00000000000E+00  0.00000000000E+00  0.21418940102E+04  0.21418940102E+04  0.25500000000E-02 0. -1.
         -2   -1    0    0    0  501 -0.00000000000E+00 -0.00000000000E+00 -0.39923992761E+03  0.39923992761E+03  0.25500000000E-02 0.  1.
    8880022    1    1    2    0    0 -0.72046933502E+03 -0.73594915596E+02  0.16329227401E+04  0.17928526438E+04  0.15294330000E+03 0.  0.
    8880022    1    1    2    0    0  0.72046933502E+03  0.73594915596E+02  0.10973134242E+03  0.74828129392E+03  0.15294330000E+03 0.  0.
<mgrwt>
<rscale>  0 0.74019182E+03</rscale>
<asrwt>0</asrwt>
<pdfrwt beam="1">  1        2 0.32952216E+00 0.74019182E+03</pdfrwt>
<pdfrwt beam="2">  1       -2 0.61421527E-01 0.74019182E+03</pdfrwt>
<totfact> 0.14264228E+01</totfact>
</mgrwt>
</event>
<event>
 4    1  0.5410820E-008  0.4058998E+03  0.7818608E-02  0.1041756E+00
         -2   -1    0    0    0  501 -0.00000000000E+00  0.00000000000E+00  0.10057473724E+03  0.10057473727E+03  0.25500000000E-02 0.  1.
          2   -1    0    0  501    0  0.00000000000E+00 -0.00000000000E+00 -0.18160948591E+04  0.18160948591E+04  0.25500000000E-02 0. -1.
    8880022    1    1    2    0    0  0.21571345996E+03 -0.30794597896E+03 -0.55776581835E+03  0.68982416882E+03  0.15294330000E+03 0.  1.
    8880022    1    1    2    0    0 -0.21571345996E+03  0.30794597896E+03 -0.11577543036E+04  0.12268454276E+04  0.15294330000E+03 0. -1.
<mgrwt>
<rscale>  0 0.40589983E+03</rscale>
<asrwt>0</asrwt>
<pdfrwt beam="1">  1        2 0.27939919E+00 0.40589983E+03</pdfrwt>
<pdfrwt beam="2">  1       -2 0.15473038E-01 0.40589983E+03</pdfrwt>
<totfact> 0.29646172E+02</totfact>
</mgrwt>
</event>
<event>
 4    1  0.5410820E-008  0.6799657E+03  0.7818608E-02  0.9752121E-01
         -2   -1    0    0    0  501 -0.00000000000E+00  0.00000000000E+00  0.13722373616E+04  0.13722373616E+04  0.25500000000E-02 0.  1.
          2   -1    0    0  501    0  0.00000000000E+00 -0.00000000000E+00 -0.96428840557E+03  0.96428840557E+03  0.25500000000E-02 0. -1.
    8880022    1    1    2    0    0 -0.54154323590E+03 -0.38169697937E+03 -0.73833511071E+03  0.10037390344E+04  0.15294330000E+03 0. -1.
    8880022    1    1    2    0    0  0.54154323590E+03  0.38169697937E+03  0.11462840667E+04  0.13327867328E+04  0.15294330000E+03 0.  0.
<mgrwt>
<rscale>  0 0.67996567E+03</rscale>
<asrwt>0</asrwt>
<pdfrwt beam="1">  1        2 0.14835206E+00 0.67996567E+03</pdfrwt>
<pdfrwt beam="2">  1       -2 0.21111344E+00 0.67996567E+03</pdfrwt>
<totfact> 0.31034994E+00</totfact>
</mgrwt>
</event>
<event>
 4    1  0.5410820E-008  0.2919489E+03  0.7818608E-02  0.1089336E+00
          2   -1    0    0  501    0  0.00000000000E+00  0.00000000000E+00  0.12210479897E+04  0.12210479897E+04  0.25500000000E-02 0. -1.
         -2   -1    0    0    0  501 -0.00000000000E+00 -0.00000000000E+00 -0.18839536779E+03  0.18839536781E+03  0.25500000000E-02 0.  1.
    8880022    1    1    2    0    0  0.20989631374E+02 -0.24779410506E+03  0.10754513057E+04  0.11143741055E+04  0.15294330000E+03 0.  0.
    8880022    1    1    2    0    0 -0.20989631374E+02  0.24779410506E+03 -0.42798683776E+02  0.29506925200E+03  0.15294330000E+03 0.  1.
<mgrwt>
<rscale>  0 0.29194886E+03</rscale>
<asrwt>0</asrwt>
<pdfrwt beam="1">  1        2 0.18785353E+00 0.29194886E+03</pdfrwt>
<pdfrwt beam="2">  1       -2 0.28983903E-01 0.29194886E+03</pdfrwt>
<totfact> 0.21294365E+02</totfact>
</mgrwt>
</event>
<event>
 4    1  0.5410820E-008  0.1037513E+04  0.7818608E-02  0.9268332E-01
          2   -1    0    0  501    0  0.00000000000E+00  0.00000000000E+00  0.22230841106E+04  0.22230841106E+04  0.25500000000E-02 0. -1.
         -2   -1    0    0    0  501 -0.00000000000E+00 -0.00000000000E+00 -0.58236857222E+03  0.58236857222E+03  0.25500000000E-02 0.  1.
    8880022    1    1    2    0    0  0.85969808119E+03  0.56032210766E+03  0.13962541143E+04  0.17395283441E+04  0.15294330000E+03 0.  0.
    8880022    1    1    2    0    0 -0.85969808119E+03 -0.56032210766E+03  0.24446142414E+03  0.10659243388E+04  0.15294330000E+03 0.  0.
<mgrwt>
<rscale>  0 0.10375130E+04</rscale>
<asrwt>0</asrwt>
<pdfrwt beam="1">  1        2 0.34201295E+00 0.10375130E+04</pdfrwt>
<pdfrwt beam="2">  1       -2 0.89595163E-01 0.10375130E+04</pdfrwt>
<totfact> 0.53512756E+00</totfact>
</mgrwt>
</event>
<event>
 4    1  0.5410820E-008  0.6406088E+03  0.7818608E-02  0.9824562E-01
          2   -1    0    0  501    0  0.00000000000E+00  0.00000000000E+00  0.13207412214E+04  0.13207412214E+04  0.25500000000E-02 0. -1.
         -2   -1    0    0    0  501 -0.00000000000E+00 -0.00000000000E+00 -0.13733821298E+04  0.13733821298E+04  0.25500000000E-02 0.  1.
    8880022    1    1    2    0    0  0.54453978628E+03  0.30077309640E+03 -0.12112418594E+04  0.13702140450E+04  0.15294330000E+03 0.  0.
    8880022    1    1    2    0    0 -0.54453978628E+03 -0.30077309640E+03  0.11586009509E+04  0.13239093061E+04  0.15294330000E+03 0.  0.
<mgrwt>
<rscale>  0 0.64060884E+03</rscale>
<asrwt>0</asrwt>
<pdfrwt beam="1">  1        2 0.20319096E+00 0.64060884E+03</pdfrwt>
<pdfrwt beam="2">  1       -2 0.21128956E+00 0.64060884E+03</pdfrwt>
<totfact> 0.19008526E+00</totfact>
</mgrwt>
</event>
<event>
 4    1  0.5410820E-008  0.6425274E+03  0.7818608E-02  0.9820903E-01
         -2   -1    0    0    0  501 -0.00000000000E+00  0.00000000000E+00  0.14246628197E+04  0.14246628197E+04  0.25500000000E-02 0.  1.
          2   -1    0    0  501    0  0.00000000000E+00 -0.00000000000E+00 -0.84956249091E+03  0.84956249092E+03  0.25500000000E-02 0. -1.
    8880022    1    1    2    0    0 -0.56520837371E+01 -0.62403358469E+03 -0.63547755219E+03  0.90369974727E+03  0.15294330000E+03 0.  0.
    8880022    1    1    2    0    0  0.56520837371E+01  0.62403358469E+03  0.12105778810E+04  0.13705255634E+04  0.15294330000E+03 0.  0.
<mgrwt>
<rscale>  0 0.64252744E+03</rscale>
<asrwt>0</asrwt>
<pdfrwt beam="1">  1        2 0.13070192E+00 0.64252744E+03</pdfrwt>
<pdfrwt beam="2">  1       -2 0.21917889E+00 0.64252744E+03</pdfrwt>
<totfact> 0.33149111E+00</totfact>
</mgrwt>
</event>
<event>
 4    1  0.5410820E-008  0.5946457E+03  0.7818608E-02  0.9916577E-01
          2   -1    0    0  501    0  0.00000000000E+00  0.00000000000E+00  0.29767135517E+03  0.29767135518E+03  0.25500000000E-02 0. -1.
         -2   -1    0    0    0  501 -0.00000000000E+00 -0.00000000000E+00 -0.21676787546E+04  0.21676787546E+04  0.25500000000E-02 0.  1.
    8880022    1    1    2    0    0 -0.11788547041E+03  0.56241874910E+03 -0.10626925195E+03  0.60406675161E+03  0.15294330000E+03 0.  0.
    8880022    1    1    2    0    0  0.11788547041E+03 -0.56241874910E+03 -0.17637381474E+04  0.18612833581E+04  0.15294330000E+03 0.  0.
<mgrwt>
<rscale>  0 0.59464568E+03</rscale>
<asrwt>0</asrwt>
<pdfrwt beam="1">  1        2 0.45795594E-01 0.59464568E+03</pdfrwt>
<pdfrwt beam="2">  1       -2 0.33348903E+00 0.59464568E+03</pdfrwt>
<totfact> 0.23531849E+00</totfact>
</mgrwt>
</event>
<event>
 4    1  0.5410820E-008  0.8261338E+03  0.7818608E-02  0.9522941E-01
         -2   -1    0    0    0  501 -0.00000000000E+00  0.00000000000E+00  0.11612826088E+04  0.11612826088E+04  0.25500000000E-02 0.  1.
          2   -1    0    0  501    0  0.00000000000E+00 -0.00000000000E+00 -0.11379878224E+04  0.11379878224E+04  0.25500000000E-02 0. -1.
    8880022    1    1    2    0    0  0.71054971497E+03  0.39271420581E+03  0.81108098586E+03  0.11577345825E+04  0.15294330000E+03 0.  0.
    8880022    1    1    2    0    0 -0.71054971497E+03 -0.39271420581E+03 -0.78778619946E+03  0.11415358487E+04  0.15294330000E+03 0.  0.
<mgrwt>
<rscale>  0 0.82613377E+03</rscale>
<asrwt>0</asrwt>
<pdfrwt beam="1">  1        2 0.17507505E+00 0.82613377E+03</pdfrwt>
<pdfrwt beam="2">  1       -2 0.17865886E+00 0.82613377E+03</pdfrwt>
<totfact> 0.38718494E+00</totfact>
</mgrwt>
</event>
<event>
 4    1  0.5410820E-008  0.5260178E+03  0.7818608E-02  0.1007202E+00
          2   -1    0    0  501    0  0.00000000000E+00  0.00000000000E+00  0.19436717290E+04  0.19436717290E+04  0.25500000000E-02 0. -1.
         -2   -1    0    0    0  501 -0.00000000000E+00 -0.00000000000E+00 -0.39992253572E+03  0.39992253573E+03  0.25500000000E-02 0.  1.
    8880022    1    1    2    0    0  0.19033166904E+03  0.46591510861E+03  0.17122659422E+04  0.17912424019E+04  0.15294330000E+03 0.  0.
    8880022    1    1    2    0    0 -0.19033166904E+03 -0.46591510861E+03 -0.16851674891E+03  0.55235186280E+03  0.15294330000E+03 0.  0.
<mgrwt>
<rscale>  0 0.52601776E+03</rscale>
<asrwt>0</asrwt>
<pdfrwt beam="1">  1        2 0.29902642E+00 0.52601776E+03</pdfrwt>
<pdfrwt beam="2">  1       -2 0.61526545E-01 0.52601776E+03</pdfrwt>
<totfact> 0.18903680E+01</totfact>
</mgrwt>
</event>
<event>
 4    1  0.5410820E-008  0.2898091E+03  0.7818608E-02  0.1090449E+00
          2   -1    0    0  501    0  0.00000000000E+00  0.00000000000E+00  0.75177581776E+03  0.75177581776E+03  0.25500000000E-02 0. -1.
         -2   -1    0    0    0  501 -0.00000000000E+00 -0.00000000000E+00 -0.23071970088E+03  0.23071970090E+03  0.25500000000E-02 0.  1.
    8880022    1    1    2    0    0  0.14635825982E+03 -0.19793166051E+03  0.61332831562E+03  0.67835164790E+03  0.15294330000E+03 0.  0.
    8880022    1    1    2    0    0 -0.14635825982E+03  0.19793166051E+03 -0.92272198746E+02  0.30414387077E+03  0.15294330000E+03 0.  0.
<mgrwt>
<rscale>  0 0.28980914E+03</rscale>
<asrwt>0</asrwt>
<pdfrwt beam="1">  1        2 0.11565782E+00 0.28980914E+03</pdfrwt>
<pdfrwt beam="2">  1       -2 0.35495339E-01 0.28980914E+03</pdfrwt>
<totfact> 0.28905861E+02</totfact>
</mgrwt>
</event>
<event>
 4    1  0.5410820E-008  0.2795499E+03  0.7818608E-02  0.1095935E+00
         -2   -1    0    0    0  501 -0.00000000000E+00  0.00000000000E+00  0.11759967813E+03  0.11759967816E+03  0.25500000000E-02 0.  1.
          2   -1    0    0  501    0  0.00000000000E+00 -0.00000000000E+00 -0.10853666368E+04  0.10853666368E+04  0.25500000000E-02 0. -1.
    8880022    1    1    2    0    0  0.23075428287E+03  0.38845191565E+02 -0.85841954565E+03  0.90279136977E+03  0.15294330000E+03 0.  0.
    8880022    1    1    2    0    0 -0.23075428287E+03 -0.38845191565E+02 -0.10934741301E+03  0.30017494518E+03  0.15294330000E+03 0.  0.
<mgrwt>
<rscale>  0 0.27954989E+03</rscale>
<asrwt>0</asrwt>
<pdfrwt beam="1">  1        2 0.16697948E+00 0.27954989E+03</pdfrwt>
<pdfrwt beam="2">  1       -2 0.18092259E-01 0.27954989E+03</pdfrwt>
<totfact> 0.58392808E+02</totfact>
</mgrwt>
</event>
<event>
 4    1  0.5410820E-008  0.4419822E+03  0.7818608E-02  0.1030140E+00
         -2   -1    0    0    0  501 -0.00000000000E+00  0.00000000000E+00  0.65262937809E+03  0.65262937809E+03  0.25500000000E-02 0.  1.
          2   -1    0    0  501    0  0.00000000000E+00 -0.00000000000E+00 -0.94265472220E+03  0.94265472221E+03  0.25500000000E-02 0. -1.
    8880022    1    1    2    0    0 -0.84768427369E+02  0.40591985392E+03 -0.80395671582E+03  0.91743919036E+03  0.15294330000E+03 0.  0.
    8880022    1    1    2    0    0  0.84768427369E+02 -0.40591985392E+03  0.51393137171E+03  0.67784490993E+03  0.15294330000E+03 0.  0.
<mgrwt>
<rscale>  0 0.44198220E+03</rscale>
<asrwt>0</asrwt>
<pdfrwt beam="1">  1        2 0.14502380E+00 0.44198220E+03</pdfrwt>
<pdfrwt beam="2">  1       -2 0.10040452E+00 0.44198220E+03</pdfrwt>
<totfact> 0.23740310E+01</totfact>
</mgrwt>
</event>
<event>
 4    1  0.5410820E-008  0.3074254E+03  0.7818608E-02  0.1081587E+00
          2   -1    0    0  501    0  0.00000000000E+00  0.00000000000E+00  0.58349985692E+03  0.58349985692E+03  0.25500000000E-02 0. -1.
         -2   -1    0    0    0  501 -0.00000000000E+00 -0.00000000000E+00 -0.64194662291E+03  0.64194662292E+03  0.25500000000E-02 0.  1.
    8880022    1    1    2    0    0  0.14310218559E+03 -0.22503439473E+03  0.50059160780E+03  0.58745410472E+03  0.15294330000E+03 0. -1.
    8880022    1    1    2    0    0 -0.14310218559E+03  0.22503439473E+03 -0.55903837379E+03  0.63799237513E+03  0.15294330000E+03 0.  0.
<mgrwt>
<rscale>  0 0.30742539E+03</rscale>
<asrwt>0</asrwt>
<pdfrwt beam="1">  1        2 0.89769208E-01 0.30742539E+03</pdfrwt>
<pdfrwt beam="2">  1       -2 0.98761019E-01 0.30742539E+03</pdfrwt>
<totfact> 0.46341093E+01</totfact>
</mgrwt>
</event>
<event>
 4    1  0.5410820E-008  0.7033474E+03  0.7818608E-02  0.9711525E-01
          2   -1    0    0  501    0  0.00000000000E+00  0.00000000000E+00  0.92235841639E+03  0.92235841639E+03  0.25500000000E-02 0. -1.
         -2   -1    0    0    0  501 -0.00000000000E+00 -0.00000000000E+00 -0.76548253836E+03  0.76548253836E+03  0.25500000000E-02 0.  1.
    8880022    1    1    2    0    0 -0.32124123946E+03 -0.60672064653E+03 -0.38329082346E+03  0.80100523420E+03  0.15294330000E+03 0.  0.
    8880022    1    1    2    0    0  0.32124123946E+03  0.60672064653E+03  0.54016670149E+03  0.88683572056E+03  0.15294330000E+03 0.  0.
<mgrwt>
<rscale>  0 0.70334737E+03</rscale>
<asrwt>0</asrwt>
<pdfrwt beam="1">  1        2 0.14190129E+00 0.70334737E+03</pdfrwt>
<pdfrwt beam="2">  1       -2 0.11776654E+00 0.70334737E+03</pdfrwt>
<totfact> 0.16088588E+01</totfact>
</mgrwt>
</event>
<event>
 4    1  0.5410820E-008  0.6734423E+03  0.7818608E-02  0.9763759E-01
          2   -1    0    0  501    0  0.00000000000E+00  0.00000000000E+00  0.16934562679E+04  0.16934562679E+04  0.25500000000E-02 0. -1.
         -2   -1    0    0    0  501 -0.00000000000E+00 -0.00000000000E+00 -0.31397079616E+03  0.31397079617E+03  0.25500000000E-02 0.  1.
    8880022    1    1    2    0    0 -0.29873178857E+03 -0.58385970762E+03  0.30488352764E+03  0.73924181302E+03  0.15294330000E+03 0.  0.
    8880022    1    1    2    0    0  0.29873178857E+03  0.58385970762E+03  0.10746019441E+04  0.12681852510E+04  0.15294330000E+03 0.  0.
<mgrwt>
<rscale>  0 0.67344227E+03</rscale>
<asrwt>0</asrwt>
<pdfrwt beam="1">  1        2 0.26053173E+00 0.67344227E+03</pdfrwt>
<pdfrwt beam="2">  1       -2 0.48303200E-01 0.67344227E+03</pdfrwt>
<totfact> 0.41558964E+01</totfact>
</mgrwt>
</event>
<event>
 4    1  0.5410820E-008  0.5058088E+03  0.7818608E-02  0.1012274E+00
          2   -1    0    0  501    0  0.00000000000E+00  0.00000000000E+00  0.20192196482E+04  0.20192196482E+04  0.25500000000E-02 0. -1.
         -2   -1    0    0    0  501 -0.00000000000E+00 -0.00000000000E+00 -0.21118160332E+03  0.21118160333E+03  0.25500000000E-02 0.  1.
    8880022    1    1    2    0    0 -0.13573723750E+03 -0.46262972441E+03  0.19868206795E+03  0.54343083892E+03  0.15294330000E+03 0.  0.
    8880022    1    1    2    0    0  0.13573723750E+03  0.46262972441E+03  0.16093559769E+04  0.16869704126E+04  0.15294330000E+03 0.  0.
<mgrwt>
<rscale>  0 0.50580877E+03</rscale>
<asrwt>0</asrwt>
<pdfrwt beam="1">  1        2 0.31064917E+00 0.50580877E+03</pdfrwt>
<pdfrwt beam="2">  1       -2 0.32489478E-01 0.50580877E+03</pdfrwt>
<totfact> 0.61307078E+01</totfact>
</mgrwt>
</event>
<event>
 4    1  0.5410820E-008  0.5284415E+03  0.7818608E-02  0.1006611E+00
         -2   -1    0    0    0  501 -0.00000000000E+00  0.00000000000E+00  0.27860568650E+04  0.27860568650E+04  0.25500000000E-02 0.  1.
          2   -1    0    0  501    0  0.00000000000E+00 -0.00000000000E+00 -0.27667620246E+03  0.27667620247E+03  0.25500000000E-02 0. -1.
    8880022    1    1    2    0    0  0.19590926842E+03 -0.46634575452E+03  0.31771451977E+02  0.52939577104E+03  0.15294330000E+03 0.  0.
    8880022    1    1    2    0    0 -0.19590926842E+03  0.46634575452E+03  0.24776092105E+04  0.25333372964E+04  0.15294330000E+03 0.  0.
<mgrwt>
<rscale>  0 0.52844154E+03</rscale>
<asrwt>0</asrwt>
<pdfrwt beam="1">  1        2 0.42565570E-01 0.52844154E+03</pdfrwt>
<pdfrwt beam="2">  1       -2 0.42862413E+00 0.52844154E+03</pdfrwt>
<totfact> 0.64508117E-01</totfact>
</mgrwt>
</event>
<event>
 4    1  0.5410820E-008  0.6370999E+03  0.7818608E-02  0.9831291E-01
         -2   -1    0    0    0  501 -0.00000000000E+00  0.00000000000E+00  0.59426668533E+03  0.59426668534E+03  0.25500000000E-02 0.  1.
          2   -1    0    0  501    0  0.00000000000E+00 -0.00000000000E+00 -0.12626017029E+04  0.12626017029E+04  0.25500000000E-02 0. -1.
    8880022    1    1    2    0    0 -0.85143371761E+02  0.61258082178E+03 -0.96320292702E+03  0.11548403304E+04  0.15294330000E+03 0.  0.
    8880022    1    1    2    0    0  0.85143371761E+02 -0.61258082178E+03  0.29486790948E+03  0.70202805786E+03  0.15294330000E+03 0.  0.
<mgrwt>
<rscale>  0 0.63709992E+03</rscale>
<asrwt>0</asrwt>
<pdfrwt beam="1">  1        2 0.19424642E+00 0.63709992E+03</pdfrwt>
<pdfrwt beam="2">  1       -2 0.91425644E-01 0.63709992E+03</pdfrwt>
<totfact> 0.18335045E+01</totfact>
</mgrwt>
</event>
<event>
 4    1  0.5410820E-008  0.1787359E+03  0.7818608E-02  0.1169032E+00
         -2   -1    0    0    0  501 -0.00000000000E+00  0.00000000000E+00  0.29868490817E+03  0.29868490818E+03  0.25500000000E-02 0.  1.
          2   -1    0    0  501    0  0.00000000000E+00 -0.00000000000E+00 -0.13150075158E+04  0.13150075158E+04  0.25500000000E-02 0. -1.
    8880022    1    1    2    0    0 -0.67160686722E+02 -0.63594992484E+02  0.26517631879E+03  0.31978901478E+03  0.15294330000E+03 0.  0.
    8880022    1    1    2    0    0  0.67160686722E+02  0.63594992484E+02 -0.12814989264E+04  0.12939034092E+04  0.15294330000E+03 0. -1.
<mgrwt>
<rscale>  0 0.17873593E+03</rscale>
<asrwt>0</asrwt>
<pdfrwt beam="1">  1        2 0.20230885E+00 0.17873593E+03</pdfrwt>
<pdfrwt beam="2">  1       -2 0.45951525E-01 0.17873593E+03</pdfrwt>
<totfact> 0.81572723E+01</totfact>
</mgrwt>
</event>
<event>
 4    1  0.5410820E-008  0.2544490E+03  0.7818608E-02  0.1110525E+00
         -2   -1    0    0    0  501 -0.00000000000E+00  0.00000000000E+00  0.14291821037E+03  0.14291821039E+03  0.25500000000E-02 0.  1.
          2   -1    0    0  501    0  0.00000000000E+00 -0.00000000000E+00 -0.11623422639E+04  0.11623422639E+04  0.25500000000E-02 0. -1.
    8880022    1    1    2    0    0 -0.19678965935E+03 -0.51249305212E+02  0.11520505495E+00  0.25444906680E+03  0.15294330000E+03 0.  0.
    8880022    1    1    2    0    0  0.19678965935E+03  0.51249305212E+02 -0.10195392586E+04  0.10508114075E+04  0.15294330000E+03 0. -1.
<mgrwt>
<rscale>  0 0.25444904E+03</rscale>
<asrwt>0</asrwt>
<pdfrwt beam="1">  1        2 0.17882188E+00 0.25444904E+03</pdfrwt>
<pdfrwt beam="2">  1       -2 0.21987418E-01 0.25444904E+03</pdfrwt>
<totfact> 0.37774530E+02</totfact>
</mgrwt>
</event>
<event>
 4    1  0.5410820E-008  0.8322270E+03  0.7818608E-02  0.9514507E-01
          2   -1    0    0  501    0  0.00000000000E+00  0.00000000000E+00  0.18922375037E+04  0.18922375037E+04  0.25500000000E-02 0. -1.
         -2   -1    0    0    0  501 -0.00000000000E+00 -0.00000000000E+00 -0.94877906539E+03  0.94877906539E+03  0.25500000000E-02 0.  1.
    8880022    1    1    2    0    0  0.51358098686E+03 -0.63674543325E+03 -0.64155165237E+03  0.10508046215E+04  0.15294330000E+03 0.  0.
    8880022    1    1    2    0    0 -0.51358098686E+03  0.63674543325E+03  0.15850100906E+04  0.17902119476E+04  0.15294330000E+03 0.  0.
<mgrwt>
<rscale>  0 0.83222703E+03</rscale>
<asrwt>0</asrwt>
<pdfrwt beam="1">  1        2 0.29111346E+00 0.83222703E+03</pdfrwt>
<pdfrwt beam="2">  1       -2 0.14596601E+00 0.83222703E+03</pdfrwt>
<totfact> 0.25209434E+00</totfact>
</mgrwt>
</event>
<event>
 4    1  0.5410820E-008  0.6062648E+03  0.7818608E-02  0.9892493E-01
         -2   -1    0    0    0  501 -0.00000000000E+00  0.00000000000E+00  0.28407978118E+03  0.28407978120E+03  0.25500000000E-02 0.  1.
          2   -1    0    0  501    0  0.00000000000E+00 -0.00000000000E+00 -0.16217355456E+04  0.16217355456E+04  0.25500000000E-02 0. -1.
    8880022    1    1    2    0    0  0.17410182346E+03 -0.56022664996E+03 -0.10972985234E+04  0.12536431098E+04  0.15294330000E+03 0.  0.
    8880022    1    1    2    0    0 -0.17410182346E+03  0.56022664996E+03 -0.24035724095E+03  0.65217221694E+03  0.15294330000E+03 0.  0.
<mgrwt>
<rscale>  0 0.60626479E+03</rscale>
<asrwt>0</asrwt>
<pdfrwt beam="1">  1        2 0.24949777E+00 0.60626479E+03</pdfrwt>
<pdfrwt beam="2">  1       -2 0.43704582E-01 0.60626479E+03</pdfrwt>
<totfact> 0.56023596E+01</totfact>
</mgrwt>
</event>
<event>
 4    1  0.5410820E-008  0.4943549E+03  0.7818608E-02  0.1015263E+00
          2   -1    0    0  501    0  0.00000000000E+00  0.00000000000E+00  0.18220080351E+04  0.18220080351E+04  0.25500000000E-02 0. -1.
         -2   -1    0    0    0  501 -0.00000000000E+00 -0.00000000000E+00 -0.25139976978E+03  0.25139976979E+03  0.25500000000E-02 0.  1.
    8880022    1    1    2    0    0  0.55824985641E+02 -0.46677475947E+03  0.77253201795E+02  0.50035468950E+03  0.15294330000E+03 0.  0.
    8880022    1    1    2    0    0 -0.55824985641E+02  0.46677475947E+03  0.14933550635E+04  0.15730531154E+04  0.15294330000E+03 0.  0.
<mgrwt>
<rscale>  0 0.49435489E+03</rscale>
<asrwt>0</asrwt>
<pdfrwt beam="1">  1        2 0.28030895E+00 0.49435489E+03</pdfrwt>
<pdfrwt beam="2">  1       -2 0.38676885E-01 0.49435489E+03</pdfrwt>
<totfact> 0.56344760E+01</totfact>
</mgrwt>
</event>
<event>
 4    1  0.5410820E-008  0.1536473E+04  0.7818608E-02  0.8860555E-01
          2   -1    0    0  501    0  0.00000000000E+00  0.00000000000E+00  0.14553434351E+04  0.14553434351E+04  0.25500000000E-02 0. -1.
         -2   -1    0    0    0  501 -0.00000000000E+00 -0.00000000000E+00 -0.25377493751E+04  0.25377493751E+04  0.25500000000E-02 0.  1.
    8880022    1    1    2    0    0  0.10738246391E+04 -0.10882362018E+04  0.65805801581E+03  0.16714632487E+04  0.15294330000E+03 0.  0.
    8880022    1    1    2    0    0 -0.10738246391E+04  0.10882362018E+04 -0.17404639558E+04  0.23216295615E+04  0.15294330000E+03 0.  0.
<mgrwt>
<rscale>  0 0.15364729E+04</rscale>
<asrwt>0</asrwt>
<pdfrwt beam="1">  1        2 0.22389899E+00 0.15364729E+04</pdfrwt>
<pdfrwt beam="2">  1       -2 0.39042298E+00 0.15364729E+04</pdfrwt>
<totfact> 0.10829056E-01</totfact>
</mgrwt>
</event>
<event>
 4    1  0.5410820E-008  0.2506867E+03  0.7818608E-02  0.1112872E+00
         -2   -1    0    0    0  501 -0.00000000000E+00  0.00000000000E+00  0.86999309031E+02  0.86999309069E+02  0.25500000000E-02 0.  1.
          2   -1    0    0  501    0  0.00000000000E+00 -0.00000000000E+00 -0.11266681407E+04  0.11266681407E+04  0.25500000000E-02 0. -1.
    8880022    1    1    2    0    0 -0.73027058049E+02 -0.18471383072E+03 -0.88335936776E+03  0.91824156739E+03  0.15294330000E+03 0.  0.
    8880022    1    1    2    0    0  0.73027058049E+02  0.18471383072E+03 -0.15630946394E+03  0.29542588241E+03  0.15294330000E+03 0.  0.
<mgrwt>
<rscale>  0 0.25068666E+03</rscale>
<asrwt>0</asrwt>
<pdfrwt beam="1">  1        2 0.17333355E+00 0.25068666E+03</pdfrwt>
<pdfrwt beam="2">  1       -2 0.13384510E-01 0.25068666E+03</pdfrwt>
<totfact> 0.91405197E+02</totfact>
</mgrwt>
</event>
<event>
 4    1  0.5410820E-008  0.6243592E+03  0.7818608E-02  0.9856119E-01
          2   -1    0    0  501    0  0.00000000000E+00  0.00000000000E+00  0.82757022479E+03  0.82757022479E+03  0.25500000000E-02 0. -1.
         -2   -1    0    0    0  501 -0.00000000000E+00 -0.00000000000E+00 -0.84847831057E+03  0.84847831057E+03  0.25500000000E-02 0.  1.
    8880022    1    1    2    0    0 -0.62968707225E+02  0.60205292000E+03  0.54847311794E+03  0.83105185801E+03  0.15294330000E+03 0. -1.
    8880022    1    1    2    0    0  0.62968707225E+02 -0.60205292000E+03 -0.56938120372E+03  0.84499667736E+03  0.15294330000E+03 0.  0.
<mgrwt>
<rscale>  0 0.62435922E+03</rscale>
<asrwt>0</asrwt>
<pdfrwt beam="1">  1        2 0.12731850E+00 0.62435922E+03</pdfrwt>
<pdfrwt beam="2">  1       -2 0.13053512E+00 0.62435922E+03</pdfrwt>
<totfact> 0.14574078E+01</totfact>
</mgrwt>
</event>
<event>
 4    1  0.5410820E-008  0.7100631E+03  0.7818608E-02  0.9700176E-01
         -2   -1    0    0    0  501 -0.00000000000E+00  0.00000000000E+00  0.38908837709E+03  0.38908837710E+03  0.25500000000E-02 0.  1.
          2   -1    0    0  501    0  0.00000000000E+00 -0.00000000000E+00 -0.19936111719E+04  0.19936111719E+04  0.25500000000E-02 0. -1.
    8880022    1    1    2    0    0  0.14437205619E+03 -0.67819962378E+03 -0.97437119365E+02  0.71671728426E+03  0.15294330000E+03 0.  0.
    8880022    1    1    2    0    0 -0.14437205619E+03  0.67819962378E+03 -0.15070856755E+04  0.16659822648E+04  0.15294330000E+03 0.  0.
<mgrwt>
<rscale>  0 0.71006315E+03</rscale>
<asrwt>0</asrwt>
<pdfrwt beam="1">  1        2 0.30670941E+00 0.71006315E+03</pdfrwt>
<pdfrwt beam="2">  1       -2 0.59859751E-01 0.71006315E+03</pdfrwt>
<totfact> 0.18235905E+01</totfact>
</mgrwt>
</event>
<event>
 4    1  0.5410820E-008  0.5604883E+03  0.7818608E-02  0.9990950E-01
          2   -1    0    0  501    0  0.00000000000E+00  0.00000000000E+00  0.18916629105E+04  0.18916629105E+04  0.25500000000E-02 0. -1.
         -2   -1    0    0    0  501 -0.00000000000E+00 -0.00000000000E+00 -0.27395753051E+03  0.27395753053E+03  0.25500000000E-02 0.  1.
    8880022    1    1    2    0    0  0.51281166432E+03 -0.16667244011E+03  0.12933974340E+03  0.57521815652E+03  0.15294330000E+03 0.  0.
    8880022    1    1    2    0    0 -0.51281166432E+03  0.16667244011E+03  0.14883656366E+04  0.15904022845E+04  0.15294330000E+03 0.  0.
<mgrwt>
<rscale>  0 0.56048832E+03</rscale>
<asrwt>0</asrwt>
<pdfrwt beam="1">  1        2 0.29102506E+00 0.56048832E+03</pdfrwt>
<pdfrwt beam="2">  1       -2 0.42147312E-01 0.56048832E+03</pdfrwt>
<totfact> 0.43256677E+01</totfact>
</mgrwt>
</event>
<event>
 4    1  0.5410820E-008  0.3554686E+03  0.7818608E-02  0.1060393E+00
          2   -1    0    0  501    0  0.00000000000E+00  0.00000000000E+00  0.13467020610E+04  0.13467020610E+04  0.25500000000E-02 0. -1.
         -2   -1    0    0    0  501 -0.00000000000E+00 -0.00000000000E+00 -0.16875441393E+03  0.16875441395E+03  0.25500000000E-02 0.  1.
    8880022    1    1    2    0    0 -0.14581584782E+03  0.28583915230E+03  0.84075079026E+02  0.36527599756E+03  0.15294330000E+03 0.  0.
    8880022    1    1    2    0    0  0.14581584782E+03 -0.28583915230E+03  0.10938725681E+04  0.11501804774E+04  0.15294330000E+03 0.  0.
<mgrwt>
<rscale>  0 0.35546861E+03</rscale>
<asrwt>0</asrwt>
<pdfrwt beam="1">  1        2 0.20718493E+00 0.35546861E+03</pdfrwt>
<pdfrwt beam="2">  1       -2 0.25962218E-01 0.35546861E+03</pdfrwt>
<totfact> 0.21866342E+02</totfact>
</mgrwt>
</event>
<event>
 4    1  0.5410820E-008  0.4786288E+03  0.7818608E-02  0.1019513E+00
          2   -1    0    0  501    0  0.00000000000E+00  0.00000000000E+00  0.42064585676E+03  0.42064585677E+03  0.25500000000E-02 0. -1.
         -2   -1    0    0    0  501 -0.00000000000E+00 -0.00000000000E+00 -0.10784788782E+04  0.10784788782E+04  0.25500000000E-02 0.  1.
    8880022    1    1    2    0    0  0.43565256933E+03 -0.12609784690E+03  0.19846103174E+03  0.51814309056E+03  0.15294330000E+03 0.  0.
    8880022    1    1    2    0    0 -0.43565256933E+03  0.12609784690E+03 -0.85629405321E+03  0.98098164444E+03  0.15294330000E+03 0.  0.
<mgrwt>
<rscale>  0 0.47862875E+03</rscale>
<asrwt>0</asrwt>
<pdfrwt beam="1">  1        2 0.64714747E-01 0.47862875E+03</pdfrwt>
<pdfrwt beam="2">  1       -2 0.16591983E+00 0.47862875E+03</pdfrwt>
<totfact> 0.17893303E+01</totfact>
</mgrwt>
</event>
<event>
 4    1  0.5410820E-008  0.2720649E+03  0.7818608E-02  0.1100104E+00
          2   -1    0    0  501    0  0.00000000000E+00  0.00000000000E+00  0.54941272650E+03  0.54941272651E+03  0.25500000000E-02 0. -1.
         -2   -1    0    0    0  501 -0.00000000000E+00 -0.00000000000E+00 -0.28627772570E+03  0.28627772571E+03  0.25500000000E-02 0.  1.
    8880022    1    1    2    0    0  0.28010659875E+01  0.22498844870E+03 -0.17245407012E+03  0.32211753652E+03  0.15294330000E+03 0.  0.
    8880022    1    1    2    0    0 -0.28010659875E+01 -0.22498844870E+03  0.43558907092E+03  0.51357291570E+03  0.15294330000E+03 0.  0.
<mgrwt>
<rscale>  0 0.27206488E+03</rscale>
<asrwt>0</asrwt>
<pdfrwt beam="1">  1        2 0.84525033E-01 0.27206488E+03</pdfrwt>
<pdfrwt beam="2">  1       -2 0.44042728E-01 0.27206488E+03</pdfrwt>
<totfact> 0.27844124E+02</totfact>
</mgrwt>
</event>
<event>
 4    1  0.5410820E-008  0.4223705E+03  0.7818608E-02  0.1036298E+00
         -2   -1    0    0    0  501 -0.00000000000E+00  0.00000000000E+00  0.59760465071E+03  0.59760465071E+03  0.25500000000E-02 0.  1.
          2   -1    0    0  501    0  0.00000000000E+00 -0.00000000000E+00 -0.19047814268E+04  0.19047814268E+04  0.25500000000E-02 0. -1.
    8880022    1    1    2    0    0  0.39156351508E+03 -0.41026656715E+02 -0.18025615557E+04  0.18513846137E+04  0.15294330000E+03 0. -1.
    8880022    1    1    2    0    0 -0.39156351508E+03  0.41026656715E+02  0.49538477963E+03  0.65100146375E+03  0.15294330000E+03 0.  0.
<mgrwt>
<rscale>  0 0.42237048E+03</rscale>
<asrwt>0</asrwt>
<pdfrwt beam="1">  1        2 0.29304329E+00 0.42237048E+03</pdfrwt>
<pdfrwt beam="2">  1       -2 0.91939178E-01 0.42237048E+03</pdfrwt>
<totfact> 0.83887070E+00</totfact>
</mgrwt>
</event>
<event>
 4    1  0.5410820E-008  0.6067924E+03  0.7818608E-02  0.9891413E-01
          2   -1    0    0  501    0  0.00000000000E+00  0.00000000000E+00  0.76632024832E+03  0.76632024833E+03  0.25500000000E-02 0. -1.
         -2   -1    0    0    0  501 -0.00000000000E+00 -0.00000000000E+00 -0.62861001759E+03  0.62861001760E+03  0.25500000000E-02 0.  1.
    8880022    1    1    2    0    0  0.24530775096E+03  0.53350674393E+03  0.40743575064E+03  0.73089047224E+03  0.15294330000E+03 0.  0.
    8880022    1    1    2    0    0 -0.24530775096E+03 -0.53350674393E+03 -0.26972551991E+03  0.66403979369E+03  0.15294330000E+03 0.  0.
<mgrwt>
<rscale>  0 0.60679238E+03</rscale>
<asrwt>0</asrwt>
<pdfrwt beam="1">  1        2 0.11789542E+00 0.60679238E+03</pdfrwt>
<pdfrwt beam="2">  1       -2 0.96709233E-01 0.60679238E+03</pdfrwt>
<totfact> 0.33494131E+01</totfact>
</mgrwt>
</event>
<event>
 4    1  0.5410820E-008  0.3004787E+03  0.7818608E-02  0.1085002E+00
         -2   -1    0    0    0  501 -0.00000000000E+00  0.00000000000E+00  0.11896032203E+04  0.11896032203E+04  0.25500000000E-02 0.  1.
          2   -1    0    0  501    0  0.00000000000E+00 -0.00000000000E+00 -0.72445322835E+03  0.72445322835E+03  0.25500000000E-02 0. -1.
    8880022    1    1    2    0    0  0.93045189035E+02  0.24132625746E+03  0.11380852174E+04  0.11770834231E+04  0.15294330000E+03 0.  1.
    8880022    1    1    2    0    0 -0.93045189035E+02 -0.24132625746E+03 -0.67293522547E+03  0.73697302559E+03  0.15294330000E+03 0.  0.
<mgrwt>
<rscale>  0 0.30047866E+03</rscale>
<asrwt>0</asrwt>
<pdfrwt beam="1">  1        2 0.11145434E+00 0.30047866E+03</pdfrwt>
<pdfrwt beam="2">  1       -2 0.18301588E+00 0.30047866E+03</pdfrwt>
<totfact> 0.75106170E+00</totfact>
</mgrwt>
</event>
<event>
 4    1  0.5410820E-008  0.4611160E+03  0.7818608E-02  0.1024458E+00
         -2   -1    0    0    0  501 -0.00000000000E+00  0.00000000000E+00  0.15302115746E+04  0.15302115746E+04  0.25500000000E-02 0.  1.
          2   -1    0    0  501    0  0.00000000000E+00 -0.00000000000E+00 -0.13065278101E+04  0.13065278101E+04  0.25500000000E-02 0. -1.
    8880022    1    1    2    0    0 -0.42270503595E+03 -0.10274624190E+03  0.14526678456E+04  0.15240970639E+04  0.15294330000E+03 0.  0.
    8880022    1    1    2    0    0  0.42270503595E+03  0.10274624190E+03 -0.12289840811E+04  0.13126423207E+04  0.15294330000E+03 0. -1.
<mgrwt>
<rscale>  0 0.46111603E+03</rscale>
<asrwt>0</asrwt>
<pdfrwt beam="1">  1        2 0.20100428E+00 0.46111603E+03</pdfrwt>
<pdfrwt beam="2">  1       -2 0.23541716E+00 0.46111603E+03</pdfrwt>
<totfact> 0.14363571E+00</totfact>
</mgrwt>
</event>
<event>
 4    1  0.5410820E-008  0.3631091E+03  0.7818608E-02  0.1057360E+00
          2   -1    0    0  501    0  0.00000000000E+00  0.00000000000E+00  0.31459198859E+04  0.31459198859E+04  0.25500000000E-02 0. -1.
         -2   -1    0    0    0  501 -0.00000000000E+00 -0.00000000000E+00 -0.16436822935E+03  0.16436822937E+03  0.25500000000E-02 0.  1.
    8880022    1    1    2    0    0  0.32702132348E+03 -0.38905433617E+02  0.29194043297E+04  0.29418990248E+04  0.15294330000E+03 0.  0.
    8880022    1    1    2    0    0 -0.32702132348E+03  0.38905433617E+02  0.62147326919E+02  0.36838909055E+03  0.15294330000E+03 0.  0.
<mgrwt>
<rscale>  0 0.36310912E+03</rscale>
<asrwt>0</asrwt>
<pdfrwt beam="1">  1        2 0.48398763E+00 0.36310912E+03</pdfrwt>
<pdfrwt beam="2">  1       -2 0.25287422E-01 0.36310912E+03</pdfrwt>
<totfact> 0.23037838E+01</totfact>
</mgrwt>
</event>
<event>
 4    1  0.5410820E-008  0.2462822E+03  0.7818608E-02  0.1115677E+00
         -2   -1    0    0    0  501 -0.00000000000E+00  0.00000000000E+00  0.73973761733E+02  0.73973761777E+02  0.25500000000E-02 0.  1.
          2   -1    0    0  501    0  0.00000000000E+00 -0.00000000000E+00 -0.85024159190E+03  0.85024159191E+03  0.25500000000E-02 0. -1.
    8880022    1    1    2    0    0  0.20533386346E+01  0.19302608490E+03 -0.30091347779E+03  0.38884940502E+03  0.15294330000E+03 0. -1.
    8880022    1    1    2    0    0 -0.20533386346E+01 -0.19302608490E+03 -0.47535435238E+03  0.53536594867E+03  0.15294330000E+03 0.  1.
<mgrwt>
<rscale>  0 0.24628223E+03</rscale>
<asrwt>0</asrwt>
<pdfrwt beam="1">  1        2 0.13080639E+00 0.24628223E+03</pdfrwt>
<pdfrwt beam="2">  1       -2 0.11380579E-01 0.24628223E+03</pdfrwt>
<totfact> 0.17637713E+03</totfact>
</mgrwt>
</event>
<event>
 4    1  0.6906639E-008  0.7114326E+03  0.7818608E-02  0.9697878E-01
          2   -1    0    0  501    0  0.00000000000E+00  0.00000000000E+00  0.18718618684E+04  0.18718618684E+04  0.25500000000E-02 0. -1.
         -2   -1    0    0    0  501 -0.00000000000E+00 -0.00000000000E+00 -0.78411169704E+03  0.78411169704E+03  0.25500000000E-02 0.  1.
    8880022    1    1    2    0    0  0.43038163984E+02  0.69346405738E+03  0.16187747483E+04  0.17682104007E+04  0.15294330000E+03 0.  0.
    8880022    1    1    2    0    0 -0.43038163984E+02 -0.69346405738E+03 -0.53102457690E+03  0.88776316477E+03  0.15294330000E+03 0.  0.
<mgrwt>
<rscale>  0 0.71143259E+03</rscale>
<asrwt>0</asrwt>
<pdfrwt beam="1">  1        2 0.28797874E+00 0.71143259E+03</pdfrwt>
<pdfrwt beam="2">  1       -2 0.12063257E+00 0.71143259E+03</pdfrwt>
<totfact> 0.42905101E+00</totfact>
</mgrwt>
</event>
<event>
 4    1  0.5410820E-008  0.1561322E+03  0.7818608E-02  0.1193134E+00
          2   -1    0    0  501    0  0.00000000000E+00  0.00000000000E+00  0.35544230686E+03  0.35544230687E+03  0.25500000000E-02 0. -1.
         -2   -1    0    0    0  501 -0.00000000000E+00 -0.00000000000E+00 -0.32253771935E+03  0.32253771936E+03  0.25500000000E-02 0.  1.
    8880022    1    1    2    0    0  0.22287238231E+02  0.22110731619E+02  0.31725025729E+03  0.35358872183E+03  0.15294330000E+03 0.  0.
    8880022    1    1    2    0    0 -0.22287238231E+02 -0.22110731619E+02 -0.28434566977E+03  0.32439130440E+03  0.15294330000E+03 0.  1.
<mgrwt>
<rscale>  0 0.15613218E+03</rscale>
<asrwt>0</asrwt>
<pdfrwt beam="1">  1        2 0.54683432E-01 0.15613218E+03</pdfrwt>
<pdfrwt beam="2">  1       -2 0.49621188E-01 0.15613218E+03</pdfrwt>
<totfact> 0.35791381E+02</totfact>
</mgrwt>
</event>
<event>
 4    1  0.5410820E-008  0.4552371E+03  0.7818608E-02  0.1026172E+00
         -2   -1    0    0    0  501 -0.00000000000E+00  0.00000000000E+00  0.89978539316E+03  0.89978539317E+03  0.25500000000E-02 0.  1.
          2   -1    0    0  501    0  0.00000000000E+00 -0.00000000000E+00 -0.44459096329E+03  0.44459096329E+03  0.25500000000E-02 0. -1.
    8880022    1    1    2    0    0 -0.42539291264E+03 -0.53758668097E+02  0.69424556155E+03  0.83019134979E+03  0.15294330000E+03 0.  0.
    8880022    1    1    2    0    0  0.42539291264E+03  0.53758668097E+02 -0.23905113167E+03  0.51418500667E+03  0.15294330000E+03 0.  0.
<mgrwt>
<rscale>  0 0.45523706E+03</rscale>
<asrwt>0</asrwt>
<pdfrwt beam="1">  1        2 0.68398611E-01 0.45523706E+03</pdfrwt>
<pdfrwt beam="2">  1       -2 0.13842852E+00 0.45523706E+03</pdfrwt>
<totfact> 0.27187715E+01</totfact>
</mgrwt>
</event>
<event>
 4    1  0.5410820E-008  0.4434040E+03  0.7818608E-02  0.1029707E+00
         -2   -1    0    0    0  501 -0.00000000000E+00  0.00000000000E+00  0.53191543252E+03  0.53191543252E+03  0.25500000000E-02 0.  1.
          2   -1    0    0  501    0  0.00000000000E+00 -0.00000000000E+00 -0.90694257669E+03  0.90694257669E+03  0.25500000000E-02 0. -1.
    8880022    1    1    2    0    0  0.21994001332E+03  0.35332962053E+03  0.36623830497E+03  0.57509788666E+03  0.15294330000E+03 0.  1.
    8880022    1    1    2    0    0 -0.21994001332E+03 -0.35332962053E+03 -0.74126544914E+03  0.86376012255E+03  0.15294330000E+03 0.  0.
<mgrwt>
<rscale>  0 0.44340397E+03</rscale>
<asrwt>0</asrwt>
<pdfrwt beam="1">  1        2 0.13952963E+00 0.44340397E+03</pdfrwt>
<pdfrwt beam="2">  1       -2 0.81833144E-01 0.44340397E+03</pdfrwt>
<totfact> 0.40031415E+01</totfact>
</mgrwt>
</event>
<event>
 4    1  0.5410820E-008  0.8202631E+03  0.7818608E-02  0.9531141E-01
         -2   -1    0    0    0  501 -0.00000000000E+00  0.00000000000E+00  0.66455163706E+03  0.66455163707E+03  0.25500000000E-02 0.  1.
          2   -1    0    0  501    0  0.00000000000E+00 -0.00000000000E+00 -0.17674287463E+04  0.17674287463E+04  0.25500000000E-02 0. -1.
    8880022    1    1    2    0    0 -0.78144238142E+03  0.19694612409E+03 -0.13461761218E+04  0.15763951837E+04  0.15294330000E+03 0.  0.
    8880022    1    1    2    0    0  0.78144238142E+03 -0.19694612409E+03  0.24329901261E+03  0.85558519963E+03  0.15294330000E+03 0.  0.
<mgrwt>
<rscale>  0 0.82026314E+03</rscale>
<asrwt>0</asrwt>
<pdfrwt beam="1">  1        2 0.27191211E+00 0.82026314E+03</pdfrwt>
<pdfrwt beam="2">  1       -2 0.10223871E+00 0.82026314E+03</pdfrwt>
<totfact> 0.71896722E+00</totfact>
</mgrwt>
</event>
<event>
 4    1  0.5410820E-008  0.5798820E+03  0.7818608E-02  0.9948047E-01
         -2   -1    0    0    0  501 -0.00000000000E+00  0.00000000000E+00  0.45083624604E+03  0.45083624604E+03  0.25500000000E-02 0.  1.
          2   -1    0    0  501    0  0.00000000000E+00 -0.00000000000E+00 -0.95789180888E+03  0.95789180889E+03  0.25500000000E-02 0. -1.
    8880022    1    1    2    0    0 -0.49671811014E+03  0.25718198416E+03  0.77858122361E+02  0.58508545885E+03  0.15294330000E+03 0.  0.
    8880022    1    1    2    0    0  0.49671811014E+03 -0.25718198416E+03 -0.58491368521E+03  0.82364259608E+03  0.15294330000E+03 0.  0.
<mgrwt>
<rscale>  0 0.57988198E+03</rscale>
<asrwt>0</asrwt>
<pdfrwt beam="1">  1        2 0.14736797E+00 0.57988198E+03</pdfrwt>
<pdfrwt beam="2">  1       -2 0.69359423E-01 0.57988198E+03</pdfrwt>
<totfact> 0.52494171E+01</totfact>
</mgrwt>
</event>
<event>
 4    1  0.5410820E-008  0.5049425E+03  0.7818608E-02  0.1012497E+00
         -2   -1    0    0    0  501 -0.00000000000E+00  0.00000000000E+00  0.11182612050E+04  0.11182612050E+04  0.25500000000E-02 0.  1.
          2   -1    0    0  501    0  0.00000000000E+00 -0.00000000000E+00 -0.70937699923E+03  0.70937699923E+03  0.25500000000E-02 0. -1.
    8880022    1    1    2    0    0  0.42170323597E+03 -0.23182249072E+03 -0.54832907595E+03  0.74540708005E+03  0.15294330000E+03 0.  0.
    8880022    1    1    2    0    0 -0.42170323597E+03  0.23182249072E+03  0.95721328175E+03  0.10822311242E+04  0.15294330000E+03 0.  0.
<mgrwt>
<rscale>  0 0.50494251E+03</rscale>
<asrwt>0</asrwt>
<pdfrwt beam="1">  1        2 0.10913492E+00 0.50494251E+03</pdfrwt>
<pdfrwt beam="2">  1       -2 0.17204018E+00 0.50494251E+03</pdfrwt>
<totfact> 0.87432028E+00</totfact>
</mgrwt>
</event>
<event>
 4    1  0.5410820E-008  0.4067200E+03  0.7818608E-02  0.1041477E+00
         -2   -1    0    0    0  501 -0.00000000000E+00  0.00000000000E+00  0.11996728290E+04  0.11996728290E+04  0.25500000000E-02 0.  1.
          2   -1    0    0  501    0  0.00000000000E+00 -0.00000000000E+00 -0.26160599013E+03  0.26160599014E+03  0.25500000000E-02 0. -1.
    8880022    1    1    2    0    0 -0.35420626289E+03 -0.12871459642E+03  0.97148552472E+03  0.10531881607E+04  0.15294330000E+03 0.  0.
    8880022    1    1    2    0    0  0.35420626289E+03  0.12871459642E+03 -0.33418685814E+02  0.40809065852E+03  0.15294330000E+03 0.  0.
<mgrwt>
<rscale>  0 0.40672002E+03</rscale>
<asrwt>0</asrwt>
<pdfrwt beam="1">  1        2 0.40247075E-01 0.40672002E+03</pdfrwt>
<pdfrwt beam="2">  1       -2 0.18456505E+00 0.40672002E+03</pdfrwt>
<totfact> 0.22692660E+01</totfact>
</mgrwt>
</event>
<event>
 4    1  0.5410820E-008  0.2068829E+03  0.7818608E-02  0.1144058E+00
         -2   -1    0    0    0  501 -0.00000000000E+00  0.00000000000E+00  0.67415226780E+03  0.67415226780E+03  0.25500000000E-02 0.  1.
          2   -1    0    0  501    0  0.00000000000E+00 -0.00000000000E+00 -0.67859316222E+03  0.67859316222E+03  0.25500000000E-02 0. -1.
    8880022    1    1    2    0    0  0.34533569997E+02 -0.13496777657E+03  0.64173534875E+03  0.67425868850E+03  0.15294330000E+03 0.  1.
    8880022    1    1    2    0    0 -0.34533569997E+02  0.13496777657E+03 -0.64617624317E+03  0.67848674152E+03  0.15294330000E+03 0.  0.
<mgrwt>
<rscale>  0 0.20688287E+03</rscale>
<asrwt>0</asrwt>
<pdfrwt beam="1">  1        2 0.10439895E+00 0.20688287E+03</pdfrwt>
<pdfrwt beam="2">  1       -2 0.10371573E+00 0.20688287E+03</pdfrwt>
<totfact> 0.35362836E+01</totfact>
</mgrwt>
</event>
<event>
 4    1  0.5410820E-008  0.2285383E+03  0.7818608E-02  0.1127673E+00
          2   -1    0    0  501    0  0.00000000000E+00  0.00000000000E+00  0.67459207014E+03  0.67459207014E+03  0.25500000000E-02 0. -1.
         -2   -1    0    0    0  501 -0.00000000000E+00 -0.00000000000E+00 -0.19397596591E+03  0.19397596592E+03  0.25500000000E-02 0.  1.
    8880022    1    1    2    0    0 -0.12839622783E+03  0.11114194915E+03  0.57694303331E+03  0.62055865225E+03  0.15294330000E+03 0.  0.
    8880022    1    1    2    0    0  0.12839622783E+03 -0.11114194915E+03 -0.96326929079E+02  0.24800938382E+03  0.15294330000E+03 0.  1.
<mgrwt>
<rscale>  0 0.22853835E+03</rscale>
<asrwt>0</asrwt>
<pdfrwt beam="1">  1        2 0.10378340E+00 0.22853835E+03</pdfrwt>
<pdfrwt beam="2">  1       -2 0.29842456E-01 0.22853835E+03</pdfrwt>
<totfact> 0.45698908E+02</totfact>
</mgrwt>
</event>
<event>
 4    1  0.5410820E-008  0.4401181E+03  0.7818608E-02  0.1030711E+00
         -2   -1    0    0    0  501 -0.00000000000E+00  0.00000000000E+00  0.79531253539E+02  0.79531253580E+02  0.25500000000E-02 0.  1.
          2   -1    0    0  501    0  0.00000000000E+00 -0.00000000000E+00 -0.34672343405E+04  0.34672343405E+04  0.25500000000E-02 0. -1.
    8880022    1    1    2    0    0  0.27476717804E+03  0.30792093816E+03 -0.72650955420E+03  0.84942338774E+03  0.15294330000E+03 0.  0.
    8880022    1    1    2    0    0 -0.27476717804E+03 -0.30792093816E+03 -0.26611935328E+04  0.26973422064E+04  0.15294330000E+03 0.  0.
<mgrwt>
<rscale>  0 0.44011812E+03</rscale>
<asrwt>0</asrwt>
<pdfrwt beam="1">  1        2 0.53342055E+00 0.44011812E+03</pdfrwt>
<pdfrwt beam="2">  1       -2 0.12235580E-01 0.44011812E+03</pdfrwt>
<totfact> 0.48327754E+01</totfact>
</mgrwt>
</event>
<event>
 4    1  0.5410820E-008  0.6595311E+03  0.7818608E-02  0.9789057E-01
          2   -1    0    0  501    0  0.00000000000E+00  0.00000000000E+00  0.18731483333E+04  0.18731483333E+04  0.25500000000E-02 0. -1.
         -2   -1    0    0    0  501 -0.00000000000E+00 -0.00000000000E+00 -0.54982917297E+03  0.54982917298E+03  0.25500000000E-02 0.  1.
    8880022    1    1    2    0    0 -0.62613987137E+03 -0.13978011268E+03  0.15824323477E+04  0.17143725985E+04  0.15294330000E+03 0.  0.
    8880022    1    1    2    0    0  0.62613987137E+03  0.13978011268E+03 -0.25911318739E+03  0.70860490777E+03  0.15294330000E+03 0.  0.
<mgrwt>
<rscale>  0 0.65953110E+03</rscale>
<asrwt>0</asrwt>
<pdfrwt beam="1">  1        2 0.28817667E+00 0.65953110E+03</pdfrwt>
<pdfrwt beam="2">  1       -2 0.84589103E-01 0.65953110E+03</pdfrwt>
<totfact> 0.10027031E+01</totfact>
</mgrwt>
</event>
<event>
 4    1  0.5410820E-008  0.4984023E+03  0.7818608E-02  0.1014197E+00
          2   -1    0    0  501    0  0.00000000000E+00  0.00000000000E+00  0.35436657623E+03  0.35436657624E+03  0.25500000000E-02 0. -1.
         -2   -1    0    0    0  501 -0.00000000000E+00 -0.00000000000E+00 -0.16072261935E+04  0.16072261935E+04  0.25500000000E-02 0.  1.
    8880022    1    1    2    0    0 -0.17849923934E+03  0.43948977077E+03  0.11005326847E+03  0.51040827968E+03  0.15294330000E+03 0.  0.
    8880022    1    1    2    0    0  0.17849923934E+03 -0.43948977077E+03 -0.13629128858E+04  0.14511844901E+04  0.15294330000E+03 0.  0.
<mgrwt>
<rscale>  0 0.49840234E+03</rscale>
<asrwt>0</asrwt>
<pdfrwt beam="1">  1        2 0.54517936E-01 0.49840234E+03</pdfrwt>
<pdfrwt beam="2">  1       -2 0.24726556E+00 0.49840234E+03</pdfrwt>
<totfact> 0.64860807E+00</totfact>
</mgrwt>
</event>
<event>
 4    1  0.5410820E-008  0.5865819E+03  0.7818608E-02  0.9933642E-01
          2   -1    0    0  501    0  0.00000000000E+00  0.00000000000E+00  0.26110831246E+04  0.26110831246E+04  0.25500000000E-02 0. -1.
         -2   -1    0    0    0  501 -0.00000000000E+00 -0.00000000000E+00 -0.19019432255E+03  0.19019432256E+03  0.25500000000E-02 0.  1.
    8880022    1    1    2    0    0 -0.11053359902E+03 -0.55539981175E+03  0.19866944215E+04  0.20714808724E+04  0.15294330000E+03 0.  0.
    8880022    1    1    2    0    0  0.11053359902E+03  0.55539981175E+03  0.43419438059E+03  0.72979657478E+03  0.15294330000E+03 0.  0.
<mgrwt>
<rscale>  0 0.58658186E+03</rscale>
<asrwt>0</asrwt>
<pdfrwt beam="1">  1        2 0.40170508E+00 0.58658186E+03</pdfrwt>
<pdfrwt beam="2">  1       -2 0.29260666E-01 0.58658186E+03</pdfrwt>
<totfact> 0.34574758E+01</totfact>
</mgrwt>
</event>
<event>
 4    1  0.5410820E-008  0.8534148E+03  0.7818608E-02  0.9485765E-01
          2   -1    0    0  501    0  0.00000000000E+00  0.00000000000E+00  0.38543900556E+03  0.38543900557E+03  0.25500000000E-02 0. -1.
         -2   -1    0    0    0  501 -0.00000000000E+00 -0.00000000000E+00 -0.20566193194E+04  0.20566193194E+04  0.25500000000E-02 0.  1.
    8880022    1    1    2    0    0 -0.11760669614E+03 -0.83132054429E+03 -0.11835761891E+04  0.14591673758E+04  0.15294330000E+03 0.  0.
    8880022    1    1    2    0    0  0.11760669614E+03  0.83132054429E+03 -0.48760412471E+03  0.98289094908E+03  0.15294330000E+03 0.  0.
<mgrwt>
<rscale>  0 0.85341481E+03</rscale>
<asrwt>0</asrwt>
<pdfrwt beam="1">  1        2 0.59298310E-01 0.85341481E+03</pdfrwt>
<pdfrwt beam="2">  1       -2 0.31640297E+00 0.85341481E+03</pdfrwt>
<totfact> 0.21509313E+00</totfact>
</mgrwt>
</event>
<event>
 4    1  0.5410820E-008  0.5071527E+03  0.7818608E-02  0.1011929E+00
         -2   -1    0    0    0  501 -0.00000000000E+00  0.00000000000E+00  0.41367489158E+03  0.41367489159E+03  0.25500000000E-02 0.  1.
          2   -1    0    0  501    0  0.00000000000E+00 -0.00000000000E+00 -0.83254400569E+03  0.83254400569E+03  0.25500000000E-02 0. -1.
    8880022    1    1    2    0    0 -0.19608115842E+03 -0.44200042904E+03  0.10410053645E+03  0.51772654429E+03  0.15294330000E+03 0.  0.
    8880022    1    1    2    0    0  0.19608115842E+03  0.44200042904E+03 -0.52296965056E+03  0.72849235300E+03  0.15294330000E+03 0.  0.
<mgrwt>
<rscale>  0 0.50715269E+03</rscale>
<asrwt>0</asrwt>
<pdfrwt beam="1">  1        2 0.12808369E+00 0.50715269E+03</pdfrwt>
<pdfrwt beam="2">  1       -2 0.63642291E-01 0.50715269E+03</pdfrwt>
<totfact> 0.77184970E+01</totfact>
</mgrwt>
</event>
<event>
 4    1  0.5410820E-008  0.8585924E+03  0.7818608E-02  0.9478877E-01
         -2   -1    0    0    0  501 -0.00000000000E+00  0.00000000000E+00  0.82580649093E+03  0.82580649094E+03  0.25500000000E-02 0.  1.
          2   -1    0    0  501    0  0.00000000000E+00 -0.00000000000E+00 -0.24148940154E+04  0.24148940154E+04  0.25500000000E-02 0. -1.
    8880022    1    1    2    0    0  0.29496947902E+03 -0.79169581638E+03  0.49192050078E+03  0.98952851971E+03  0.15294330000E+03 0.  0.
    8880022    1    1    2    0    0 -0.29496947902E+03  0.79169581638E+03 -0.20810080252E+04  0.22511719866E+04  0.15294330000E+03 0.  0.
<mgrwt>
<rscale>  0 0.85859240E+03</rscale>
<asrwt>0</asrwt>
<pdfrwt beam="1">  1        2 0.37152215E+00 0.85859240E+03</pdfrwt>
<pdfrwt beam="2">  1       -2 0.12704715E+00 0.85859240E+03</pdfrwt>
<totfact> 0.18438794E+00</totfact>
</mgrwt>
</event>
<event>
 4    1  0.5410820E-008  0.8965221E+03  0.7818608E-02  0.9429939E-01
         -2   -1    0    0    0  501 -0.00000000000E+00  0.00000000000E+00  0.40080148467E+03  0.40080148468E+03  0.25500000000E-02 0.  1.
          2   -1    0    0  501    0  0.00000000000E+00 -0.00000000000E+00 -0.24670810558E+04  0.24670810558E+04  0.25500000000E-02 0. -1.
    8880022    1    1    2    0    0  0.54910234802E+03  0.69198756496E+03 -0.16534784214E+04  0.18808888116E+04  0.15294330000E+03 0.  0.
    8880022    1    1    2    0    0 -0.54910234802E+03 -0.69198756496E+03 -0.41280114980E+03  0.98699372893E+03  0.15294330000E+03 0.  0.
<mgrwt>
<rscale>  0 0.89652208E+03</rscale>
<asrwt>0</asrwt>
<pdfrwt beam="1">  1        2 0.37955092E+00 0.89652208E+03</pdfrwt>
<pdfrwt beam="2">  1       -2 0.61661768E-01 0.89652208E+03</pdfrwt>
<totfact> 0.91096563E+00</totfact>
</mgrwt>
</event>
<event>
 4    1  0.5410820E-008  0.3284176E+03  0.7818608E-02  0.1071839E+00
          2   -1    0    0  501    0  0.00000000000E+00  0.00000000000E+00  0.97786106826E+03  0.97786106826E+03  0.25500000000E-02 0. -1.
         -2   -1    0    0    0  501 -0.00000000000E+00 -0.00000000000E+00 -0.14115343949E+04  0.14115343949E+04  0.25500000000E-02 0.  1.
    8880022    1    1    2    0    0  0.23008218864E+03 -0.17756312102E+03  0.93023371473E+03  0.98650539406E+03  0.15294330000E+03 0. -1.
    8880022    1    1    2    0    0 -0.23008218864E+03  0.17756312102E+03 -0.13639070414E+04  0.14028900691E+04  0.15294330000E+03 0.  0.
<mgrwt>
<rscale>  0 0.32841761E+03</rscale>
<asrwt>0</asrwt>
<pdfrwt beam="1">  1        2 0.15044016E+00 0.32841761E+03</pdfrwt>
<pdfrwt beam="2">  1       -2 0.21715914E+00 0.32841761E+03</pdfrwt>
<totfact> 0.30356058E+00</totfact>
</mgrwt>
</event>
<event>
 4    1  0.5410820E-008  0.5671349E+03  0.7818608E-02  0.9976039E-01
         -2   -1    0    0    0  501 -0.00000000000E+00  0.00000000000E+00  0.57708449684E+03  0.57708449685E+03  0.25500000000E-02 0.  1.
          2   -1    0    0  501    0  0.00000000000E+00 -0.00000000000E+00 -0.15953804717E+04  0.15953804717E+04  0.25500000000E-02 0. -1.
    8880022    1    1    2    0    0 -0.54589037102E+03  0.15940424134E+02 -0.13853298338E+04  0.14969237775E+04  0.15294330000E+03 0.  0.
    8880022    1    1    2    0    0  0.54589037102E+03 -0.15940424134E+02  0.36703385887E+03  0.67554119110E+03  0.15294330000E+03 0.  1.
<mgrwt>
<rscale>  0 0.56713495E+03</rscale>
<asrwt>0</asrwt>
<pdfrwt beam="1">  1        2 0.24544315E+00 0.56713495E+03</pdfrwt>
<pdfrwt beam="2">  1       -2 0.88782231E-01 0.56713495E+03</pdfrwt>
<totfact> 0.12916553E+01</totfact>
</mgrwt>
</event>
<event>
 4    1  0.5410820E-008  0.6320044E+03  0.7818608E-02  0.9841145E-01
          2   -1    0    0  501    0  0.00000000000E+00  0.00000000000E+00  0.23091792307E+04  0.23091792307E+04  0.25500000000E-02 0. -1.
         -2   -1    0    0    0  501 -0.00000000000E+00 -0.00000000000E+00 -0.20322110348E+03  0.20322110350E+03  0.25500000000E-02 0.  1.
    8880022    1    1    2    0    0  0.59341555093E+03 -0.15458309106E+03  0.15376101450E+04  0.16624303170E+04  0.15294330000E+03 0.  0.
    8880022    1    1    2    0    0 -0.59341555093E+03  0.15458309106E+03  0.56834798227E+03  0.84997001717E+03  0.15294330000E+03 0.  0.
<mgrwt>
<rscale>  0 0.63200443E+03</rscale>
<asrwt>0</asrwt>
<pdfrwt beam="1">  1        2 0.35525833E+00 0.63200443E+03</pdfrwt>
<pdfrwt beam="2">  1       -2 0.31264786E-01 0.63200443E+03</pdfrwt>
<totfact> 0.44822668E+01</totfact>
</mgrwt>
</event>
<event>
 4    1  0.5410820E-008  0.6346205E+03  0.7818608E-02  0.9836074E-01
         -2   -1    0    0    0  501 -0.00000000000E+00  0.00000000000E+00  0.18272439557E+04  0.18272439557E+04  0.25500000000E-02 0.  1.
          2   -1    0    0  501    0  0.00000000000E+00 -0.00000000000E+00 -0.10368569087E+04  0.10368569087E+04  0.25500000000E-02 0. -1.
    8880022    1    1    2    0    0 -0.43274911757E+03  0.43826897685E+03  0.16659514565E+04  0.17827331273E+04  0.15294330000E+03 0.  0.
    8880022    1    1    2    0    0  0.43274911757E+03 -0.43826897685E+03 -0.87556440949E+03  0.10813677372E+04  0.15294330000E+03 0.  0.
<mgrwt>
<rscale>  0 0.63462048E+03</rscale>
<asrwt>0</asrwt>
<pdfrwt beam="1">  1        2 0.15951645E+00 0.63462048E+03</pdfrwt>
<pdfrwt beam="2">  1       -2 0.28111445E+00 0.63462048E+03</pdfrwt>
<totfact> 0.10555150E+00</totfact>
</mgrwt>
</event>
<event>
 4    1  0.5410820E-008  0.3714420E+03  0.7818608E-02  0.1054143E+00
          2   -1    0    0  501    0  0.00000000000E+00  0.00000000000E+00  0.48160385528E+03  0.48160385529E+03  0.25500000000E-02 0. -1.
         -2   -1    0    0    0  501 -0.00000000000E+00 -0.00000000000E+00 -0.37249380776E+03  0.37249380777E+03  0.25500000000E-02 0.  1.
    8880022    1    1    2    0    0  0.29536923587E+03 -0.16533157212E+03  0.25976846010E+03  0.45326462483E+03  0.15294330000E+03 0.  0.
    8880022    1    1    2    0    0 -0.29536923587E+03  0.16533157212E+03 -0.15065841259E+03  0.40083303823E+03  0.15294330000E+03 0.  0.
<mgrwt>
<rscale>  0 0.37144201E+03</rscale>
<asrwt>0</asrwt>
<pdfrwt beam="1">  1        2 0.74092900E-01 0.37144201E+03</pdfrwt>
<pdfrwt beam="2">  1       -2 0.57306740E-01 0.37144201E+03</pdfrwt>
<totfact> 0.18908861E+02</totfact>
</mgrwt>
</event>
<event>
 4    1  0.5410820E-008  0.1844781E+04  0.7818608E-02  0.8682841E-01
         -2   -1    0    0    0  501 -0.00000000000E+00  0.00000000000E+00  0.18290757327E+04  0.18290757327E+04  0.25500000000E-02 0.  1.
          2   -1    0    0  501    0  0.00000000000E+00 -0.00000000000E+00 -0.22951227705E+04  0.22951227705E+04  0.25500000000E-02 0. -1.
    8880022    1    1    2    0    0  0.23115597006E+03  0.18238404193E+04 -0.11302495437E+04  0.21634885351E+04  0.15294330000E+03 0.  0.
    8880022    1    1    2    0    0 -0.23115597006E+03 -0.18238404193E+04  0.66420250584E+03  0.19607099681E+04  0.15294330000E+03 0.  0.
<mgrwt>
<rscale>  0 0.18447815E+04</rscale>
<asrwt>0</asrwt>
<pdfrwt beam="1">  1        2 0.35309581E+00 0.18447815E+04</pdfrwt>
<pdfrwt beam="2">  1       -2 0.28139627E+00 0.18447815E+04</pdfrwt>
<totfact> 0.17000280E-01</totfact>
</mgrwt>
</event>
<event>
 4    1  0.5410820E-008  0.9415493E+03  0.7818608E-02  0.9375083E-01
          2   -1    0    0  501    0  0.00000000000E+00  0.00000000000E+00  0.11057300293E+04  0.11057300293E+04  0.25500000000E-02 0. -1.
         -2   -1    0    0    0  501 -0.00000000000E+00 -0.00000000000E+00 -0.19086659764E+04  0.19086659764E+04  0.25500000000E-02 0.  1.
    8880022    1    1    2    0    0  0.92735571618E+03  0.55988864222E+02  0.74632453340E+03  0.12014638319E+04  0.15294330000E+03 0.  0.
    8880022    1    1    2    0    0 -0.92735571618E+03 -0.55988864222E+02 -0.15492604805E+04  0.18129321738E+04  0.15294330000E+03 0.  0.
<mgrwt>
<rscale>  0 0.94154927E+03</rscale>
<asrwt>0</asrwt>
<pdfrwt beam="1">  1        2 0.17011231E+00 0.94154927E+03</pdfrwt>
<pdfrwt beam="2">  1       -2 0.29364092E+00 0.94154927E+03</pdfrwt>
<totfact> 0.76002645E-01</totfact>
</mgrwt>
</event>
<event>
 4    1  0.8474283E-008  0.7680598E+03  0.7818608E-02  0.9607436E-01
          2   -1    0    0  501    0  0.00000000000E+00  0.00000000000E+00  0.15944499289E+04  0.15944499289E+04  0.25500000000E-02 0. -1.
         -2   -1    0    0    0  501 -0.00000000000E+00 -0.00000000000E+00 -0.18273205688E+04  0.18273205688E+04  0.25500000000E-02 0.  1.
    8880022    1    1    2    0    0 -0.39363577003E+03  0.64154120373E+03 -0.16443317495E+04  0.18148671552E+04  0.15294330000E+03 0.  0.
    8880022    1    1    2    0    0  0.39363577003E+03 -0.64154120373E+03  0.14114611096E+04  0.16069033426E+04  0.15294330000E+03 0.  0.
<mgrwt>
<rscale>  0 0.76805982E+03</rscale>
<asrwt>0</asrwt>
<pdfrwt beam="1">  1        2 0.24529999E+00 0.76805982E+03</pdfrwt>
<pdfrwt beam="2">  1       -2 0.28112624E+00 0.76805982E+03</pdfrwt>
<totfact> 0.48781476E-01</totfact>
</mgrwt>
</event>
<event>
 4    1  0.5410820E-008  0.5819161E+03  0.7818608E-02  0.9943651E-01
         -2   -1    0    0    0  501 -0.00000000000E+00  0.00000000000E+00  0.52528328001E+03  0.52528328001E+03  0.25500000000E-02 0.  1.
          2   -1    0    0  501    0  0.00000000000E+00 -0.00000000000E+00 -0.14857221198E+04  0.14857221198E+04  0.25500000000E-02 0. -1.
    8880022    1    1    2    0    0  0.31473594127E+03  0.46494726213E+03  0.27631703128E+03  0.64418741379E+03  0.15294330000E+03 0.  1.
    8880022    1    1    2    0    0 -0.31473594127E+03 -0.46494726213E+03 -0.12367558711E+04  0.13668179861E+04  0.15294330000E+03 0.  0.
<mgrwt>
<rscale>  0 0.58191608E+03</rscale>
<asrwt>0</asrwt>
<pdfrwt beam="1">  1        2 0.22857263E+00 0.58191608E+03</pdfrwt>
<pdfrwt beam="2">  1       -2 0.80812813E-01 0.58191608E+03</pdfrwt>
<totfact> 0.18318644E+01</totfact>
</mgrwt>
</event>
<event>
 4    1  0.5410820E-008  0.8339226E+03  0.7818608E-02  0.9512173E-01
          2   -1    0    0  501    0  0.00000000000E+00  0.00000000000E+00  0.10908591989E+04  0.10908591989E+04  0.25500000000E-02 0. -1.
         -2   -1    0    0    0  501 -0.00000000000E+00 -0.00000000000E+00 -0.11646775128E+04  0.11646775128E+04  0.25500000000E-02 0.  1.
    8880022    1    1    2    0    0 -0.12932073296E+03 -0.80951310304E+03  0.72183245097E+03  0.11029365604E+04  0.15294330000E+03 0.  0.
    8880022    1    1    2    0    0  0.12932073296E+03  0.80951310304E+03 -0.79565076489E+03  0.11526001512E+04  0.15294330000E+03 0.  0.
<mgrwt>
<rscale>  0 0.83392264E+03</rscale>
<asrwt>0</asrwt>
<pdfrwt beam="1">  1        2 0.16782449E+00 0.83392264E+03</pdfrwt>
<pdfrwt beam="2">  1       -2 0.17918116E+00 0.83392264E+03</pdfrwt>
<totfact> 0.40987763E+00</totfact>
</mgrwt>
</event>
<event>
 4    1  0.5410820E-008  0.5008119E+03  0.7818608E-02  0.1013567E+00
         -2   -1    0    0    0  501 -0.00000000000E+00  0.00000000000E+00  0.14795631321E+03  0.14795631323E+03  0.25500000000E-02 0.  1.
          2   -1    0    0  501    0  0.00000000000E+00 -0.00000000000E+00 -0.18536939974E+04  0.18536939974E+04  0.25500000000E-02 0. -1.
    8880022    1    1    2    0    0 -0.45742539101E+03  0.13484392609E+03 -0.56020199411E+03  0.75142451382E+03  0.15294330000E+03 0.  0.
    8880022    1    1    2    0    0  0.45742539101E+03 -0.13484392609E+03 -0.11455356900E+04  0.12502257968E+04  0.15294330000E+03 0.  0.
<mgrwt>
<rscale>  0 0.50081187E+03</rscale>
<asrwt>0</asrwt>
<pdfrwt beam="1">  1        2 0.28518368E+00 0.50081187E+03</pdfrwt>
<pdfrwt beam="2">  1       -2 0.22762511E-01 0.50081187E+03</pdfrwt>
<totfact> 0.14372647E+02</totfact>
</mgrwt>
</event>
<event>
 4    1  0.5410820E-008  0.7916967E+03  0.7818608E-02  0.9572114E-01
         -2   -1    0    0    0  501 -0.00000000000E+00  0.00000000000E+00  0.54141170448E+03  0.54141170449E+03  0.25500000000E-02 0.  1.
          2   -1    0    0  501    0  0.00000000000E+00 -0.00000000000E+00 -0.13277434611E+04  0.13277434611E+04  0.25500000000E-02 0. -1.
    8880022    1    1    2    0    0  0.73631484904E+03 -0.24745193366E+03 -0.72763703278E+03  0.10752856927E+04  0.15294330000E+03 0.  0.
    8880022    1    1    2    0    0 -0.73631484904E+03  0.24745193366E+03 -0.58694723837E+02  0.79386947291E+03  0.15294330000E+03 0.  0.
<mgrwt>
<rscale>  0 0.79169670E+03</rscale>
<asrwt>0</asrwt>
<pdfrwt beam="1">  1        2 0.20426822E+00 0.79169670E+03</pdfrwt>
<pdfrwt beam="2">  1       -2 0.83294109E-01 0.79169670E+03</pdfrwt>
<totfact> 0.20423594E+01</totfact>
</mgrwt>
</event>
<event>
 4    1  0.5410820E-008  0.4526535E+03  0.7818608E-02  0.1026934E+00
         -2   -1    0    0    0  501 -0.00000000000E+00  0.00000000000E+00  0.98655692860E+03  0.98655692861E+03  0.25500000000E-02 0.  1.
          2   -1    0    0  501    0  0.00000000000E+00 -0.00000000000E+00 -0.13714732823E+04  0.13714732823E+04  0.25500000000E-02 0. -1.
    8880022    1    1    2    0    0  0.13958633847E+03 -0.40251603486E+03  0.89362300757E+03  0.10017271270E+04  0.15294330000E+03 0.  0.
    8880022    1    1    2    0    0 -0.13958633847E+03  0.40251603486E+03 -0.12785393613E+04  0.13563030840E+04  0.15294330000E+03 0. -1.
<mgrwt>
<rscale>  0 0.45265346E+03</rscale>
<asrwt>0</asrwt>
<pdfrwt beam="1">  1        2 0.21099589E+00 0.45265346E+03</pdfrwt>
<pdfrwt beam="2">  1       -2 0.15177799E+00 0.45265346E+03</pdfrwt>
<totfact> 0.47334612E+00</totfact>
</mgrwt>
</event>
<event>
 4    1  0.5410820E-008  0.9172293E+03  0.7818608E-02  0.9404297E-01
         -2   -1    0    0    0  501 -0.00000000000E+00  0.00000000000E+00  0.42312744775E+03  0.42312744775E+03  0.25500000000E-02 0.  1.
          2   -1    0    0  501    0  0.00000000000E+00 -0.00000000000E+00 -0.23245672344E+04  0.23245672344E+04  0.25500000000E-02 0. -1.
    8880022    1    1    2    0    0 -0.57782352214E+03  0.69572831323E+03 -0.14732383966E+04  0.17354368138E+04  0.15294330000E+03 0.  0.
    8880022    1    1    2    0    0  0.57782352214E+03 -0.69572831323E+03 -0.42820139010E+03  0.10122578684E+04  0.15294330000E+03 0.  0.
<mgrwt>
<rscale>  0 0.91722929E+03</rscale>
<asrwt>0</asrwt>
<pdfrwt beam="1">  1        2 0.35762572E+00 0.91722929E+03</pdfrwt>
<pdfrwt beam="2">  1       -2 0.65096531E-01 0.91722929E+03</pdfrwt>
<totfact> 0.97327020E+00</totfact>
</mgrwt>
</event>
<event>
 4    1  0.5410820E-008  0.8313310E+03  0.7818608E-02  0.9515742E-01
          2   -1    0    0  501    0  0.00000000000E+00  0.00000000000E+00  0.15150014341E+04  0.15150014341E+04  0.25500000000E-02 0. -1.
         -2   -1    0    0    0  501 -0.00000000000E+00 -0.00000000000E+00 -0.63421570107E+03  0.63421570107E+03  0.25500000000E-02 0.  1.
    8880022    1    1    2    0    0  0.16113909656E+03 -0.80109533232E+03  0.10097530510E+04  0.13079420541E+04  0.15294330000E+03 0.  0.
    8880022    1    1    2    0    0 -0.16113909656E+03  0.80109533232E+03 -0.12896731797E+03  0.84127508106E+03  0.15294330000E+03 0.  0.
<mgrwt>
<rscale>  0 0.83133098E+03</rscale>
<asrwt>0</asrwt>
<pdfrwt beam="1">  1        2 0.23307714E+00 0.83133098E+03</pdfrwt>
<pdfrwt beam="2">  1       -2 0.97571648E-01 0.83133098E+03</pdfrwt>
<totfact> 0.11053190E+01</totfact>
</mgrwt>
</event>
<event>
 4    1  0.5410820E-008  0.6515385E+03  0.7818608E-02  0.9803897E-01
          2   -1    0    0  501    0  0.00000000000E+00  0.00000000000E+00  0.40150707250E+04  0.40150707250E+04  0.25500000000E-02 0. -1.
         -2   -1    0    0    0  501 -0.00000000000E+00 -0.00000000000E+00 -0.23553498691E+03  0.23553498693E+03  0.25500000000E-02 0.  1.
    8880022    1    1    2    0    0  0.11658932121E+03 -0.62250917697E+03  0.31199895043E+03  0.72238891416E+03  0.15294330000E+03 0.  1.
    8880022    1    1    2    0    0 -0.11658932121E+03  0.62250917697E+03  0.34675367876E+04  0.35282167977E+04  0.15294330000E+03 0.  0.
<mgrwt>
<rscale>  0 0.65153849E+03</rscale>
<asrwt>0</asrwt>
<pdfrwt beam="1">  1        2 0.61770314E+00 0.65153849E+03</pdfrwt>
<pdfrwt beam="2">  1       -2 0.36236155E-01 0.65153849E+03</pdfrwt>
<totfact> 0.27087986E+00</totfact>
</mgrwt>
</event>
<event>
 4    1  0.5410820E-008  0.2842551E+03  0.7818608E-02  0.1093387E+00
          2   -1    0    0  501    0  0.00000000000E+00  0.00000000000E+00  0.13781750672E+03  0.13781750675E+03  0.25500000000E-02 0. -1.
         -2   -1    0    0    0  501 -0.00000000000E+00 -0.00000000000E+00 -0.69738983030E+03  0.69738983030E+03  0.25500000000E-02 0.  1.
    8880022    1    1    2    0    0 -0.18054096005E+03  0.15752543635E+03 -0.44646643906E+03  0.52927614302E+03  0.15294330000E+03 0.  0.
    8880022    1    1    2    0    0  0.18054096005E+03 -0.15752543635E+03 -0.11310588451E+03  0.30593119403E+03  0.15294330000E+03 0.  0.
<mgrwt>
<rscale>  0 0.28425509E+03</rscale>
<asrwt>0</asrwt>
<pdfrwt beam="1">  1        2 0.21202694E-01 0.28425509E+03</pdfrwt>
<pdfrwt beam="2">  1       -2 0.10729074E+00 0.28425509E+03</pdfrwt>
<totfact> 0.18932534E+02</totfact>
</mgrwt>
</event>
<event>
 4    1  0.5410820E-008  0.6061847E+03  0.7818608E-02  0.9892657E-01
          2   -1    0    0  501    0  0.00000000000E+00  0.00000000000E+00  0.23701290833E+04  0.23701290833E+04  0.25500000000E-02 0. -1.
         -2   -1    0    0    0  501 -0.00000000000E+00 -0.00000000000E+00 -0.20365385045E+03  0.20365385047E+03  0.25500000000E-02 0.  1.
    8880022    1    1    2    0    0  0.58656517031E+03  0.30787532904E+01  0.45447746734E+03  0.75763421192E+03  0.15294330000E+03 0.  0.
    8880022    1    1    2    0    0 -0.58656517031E+03 -0.30787532904E+01  0.17119977655E+04  0.18161487219E+04  0.15294330000E+03 0.  0.
<mgrwt>
<rscale>  0 0.60618465E+03</rscale>
<asrwt>0</asrwt>
<pdfrwt beam="1">  1        2 0.36463524E+00 0.60618465E+03</pdfrwt>
<pdfrwt beam="2">  1       -2 0.31331362E-01 0.60618465E+03</pdfrwt>
<totfact> 0.41476639E+01</totfact>
</mgrwt>
</event>
<event>
 4    1  0.5410820E-008  0.5327958E+03  0.7818608E-02  0.1005556E+00
         -2   -1    0    0    0  501 -0.00000000000E+00  0.00000000000E+00  0.31248108862E+03  0.31248108863E+03  0.25500000000E-02 0.  1.
          2   -1    0    0  501    0  0.00000000000E+00 -0.00000000000E+00 -0.29099985955E+04  0.29099985955E+04  0.25500000000E-02 0. -1.
    8880022    1    1    2    0    0  0.14456713063E+03  0.48946916227E+03  0.37521629362E+02  0.53411538244E+03  0.15294330000E+03 0.  0.
    8880022    1    1    2    0    0 -0.14456713063E+03 -0.48946916227E+03 -0.26350391362E+04  0.26883643017E+04  0.15294330000E+03 0.  0.
<mgrwt>
<rscale>  0 0.53279580E+03</rscale>
<asrwt>0</asrwt>
<pdfrwt beam="1">  1        2 0.44769207E+00 0.53279580E+03</pdfrwt>
<pdfrwt beam="2">  1       -2 0.48074016E-01 0.53279580E+03</pdfrwt>
<totfact> 0.90286267E+00</totfact>
</mgrwt>
</event>
<event>
 4    1  0.5410820E-008  0.2388073E+03  0.7818608E-02  0.1120590E+00
          2   -1    0    0  501    0  0.00000000000E+00  0.00000000000E+00  0.11646348317E+03  0.11646348320E+03  0.25500000000E-02 0. -1.
         -2   -1    0    0    0  501 -0.00000000000E+00 -0.00000000000E+00 -0.15833721344E+04  0.15833721344E+04  0.25500000000E-02 0.  1.
    8880022    1    1    2    0    0  0.17214870215E+03  0.63262130808E+02 -0.27080609892E+02  0.24033785656E+03  0.15294330000E+03 0.  0.
    8880022    1    1    2    0    0 -0.17214870215E+03 -0.63262130808E+02 -0.14398280414E+04  0.14594977611E+04  0.15294330000E+03 0.  0.
<mgrwt>
<rscale>  0 0.23880730E+03</rscale>
<asrwt>0</asrwt>
<pdfrwt beam="1">  1        2 0.17917460E-01 0.23880730E+03</pdfrwt>
<pdfrwt beam="2">  1       -2 0.24359570E+00 0.23880730E+03</pdfrwt>
<totfact> 0.24930455E+01</totfact>
</mgrwt>
</event>
<event>
 4    1  0.5410820E-008  0.2467104E+03  0.7818608E-02  0.1115402E+00
         -2   -1    0    0    0  501 -0.00000000000E+00  0.00000000000E+00  0.29166233009E+03  0.29166233010E+03  0.25500000000E-02 0.  1.
          2   -1    0    0  501    0  0.00000000000E+00 -0.00000000000E+00 -0.23548849074E+04  0.23548849074E+04  0.25500000000E-02 0. -1.
    8880022    1    1    2    0    0  0.12529401804E+03  0.14756625196E+03 -0.22948915994E+04  0.23081147059E+04  0.15294330000E+03 0. -1.
    8880022    1    1    2    0    0 -0.12529401804E+03 -0.14756625196E+03  0.23166902205E+03  0.33843253163E+03  0.15294330000E+03 0.  0.
<mgrwt>
<rscale>  0 0.24671044E+03</rscale>
<asrwt>0</asrwt>
<pdfrwt beam="1">  1        2 0.36228997E+00 0.24671044E+03</pdfrwt>
<pdfrwt beam="2">  1       -2 0.44871129E-01 0.24671044E+03</pdfrwt>
<totfact> 0.23499419E+01</totfact>
</mgrwt>
</event>
<event>
 4    1  0.5410820E-008  0.7162574E+03  0.7818608E-02  0.9689827E-01
         -2   -1    0    0    0  501 -0.00000000000E+00  0.00000000000E+00  0.35440566957E+03  0.35440566958E+03  0.25500000000E-02 0.  1.
          2   -1    0    0  501    0  0.00000000000E+00 -0.00000000000E+00 -0.30632785437E+04  0.30632785437E+04  0.25500000000E-02 0. -1.
    8880022    1    1    2    0    0 -0.65089075526E+03  0.25685458775E+03 -0.11338129588E+03  0.72517585854E+03  0.15294330000E+03 0.  0.
    8880022    1    1    2    0    0  0.65089075526E+03 -0.25685458775E+03 -0.25954915783E+04  0.26925083548E+04  0.15294330000E+03 0.  0.
<mgrwt>
<rscale>  0 0.71625743E+03</rscale>
<asrwt>0</asrwt>
<pdfrwt beam="1">  1        2 0.47127360E+00 0.71625743E+03</pdfrwt>
<pdfrwt beam="2">  1       -2 0.54523951E-01 0.71625743E+03</pdfrwt>
<totfact> 0.54050472E+00</totfact>
</mgrwt>
</event>
<event>
 4    1  0.5410820E-008  0.4674808E+03  0.7818608E-02  0.1022634E+00
         -2   -1    0    0    0  501 -0.00000000000E+00  0.00000000000E+00  0.42119729765E+03  0.42119729766E+03  0.25500000000E-02 0.  1.
          2   -1    0    0  501    0  0.00000000000E+00 -0.00000000000E+00 -0.12382364499E+04  0.12382364500E+04  0.25500000000E-02 0. -1.
    8880022    1    1    2    0    0  0.42261760756E+03 -0.12861167956E+03 -0.10409448642E+04  0.11410979229E+04  0.15294330000E+03 0.  0.
    8880022    1    1    2    0    0 -0.42261760756E+03  0.12861167956E+03  0.22390571190E+03  0.51833582471E+03  0.15294330000E+03 0.  0.
<mgrwt>
<rscale>  0 0.46748076E+03</rscale>
<asrwt>0</asrwt>
<pdfrwt beam="1">  1        2 0.19049791E+00 0.46748076E+03</pdfrwt>
<pdfrwt beam="2">  1       -2 0.64799585E-01 0.46748076E+03</pdfrwt>
<totfact> 0.41692396E+01</totfact>
</mgrwt>
</event>
<event>
 4    1  0.5410820E-008  0.2006261E+03  0.7818608E-02  0.1149212E+00
          2   -1    0    0  501    0  0.00000000000E+00  0.00000000000E+00  0.25665391848E+04  0.25665391848E+04  0.25500000000E-02 0. -1.
         -2   -1    0    0    0  501 -0.00000000000E+00 -0.00000000000E+00 -0.12755256451E+03  0.12755256453E+03  0.25500000000E-02 0.  1.
    8880022    1    1    2    0    0 -0.11264070794E+03  0.64585131661E+02  0.24810126806E+04  0.24891112355E+04  0.15294330000E+03 0.  0.
    8880022    1    1    2    0    0  0.11264070794E+03 -0.64585131661E+02 -0.42026060267E+02  0.20498051389E+03  0.15294330000E+03 0.  1.
<mgrwt>
<rscale>  0 0.20062607E+03</rscale>
<asrwt>0</asrwt>
<pdfrwt beam="1">  1        2 0.39485217E+00 0.20062607E+03</pdfrwt>
<pdfrwt beam="2">  1       -2 0.19623472E-01 0.20062607E+03</pdfrwt>
<totfact> 0.83020404E+01</totfact>
</mgrwt>
</event>
<event>
 4    1  0.8317487E-008  0.1016775E+04  0.7818608E-02  0.9290335E-01
         -2   -1    0    0    0  501 -0.00000000000E+00  0.00000000000E+00  0.16466153551E+04  0.16466153551E+04  0.25500000000E-02 0.  1.
          2   -1    0    0  501    0  0.00000000000E+00 -0.00000000000E+00 -0.16288638608E+04  0.16288638608E+04  0.25500000000E-02 0. -1.
    8880022    1    1    2    0    0 -0.47959183253E+03 -0.88342024413E+03 -0.12749970469E+04  0.16307816457E+04  0.15294330000E+03 0.  0.
    8880022    1    1    2    0    0  0.47959183253E+03  0.88342024413E+03  0.12927485411E+04  0.16446975701E+04  0.15294330000E+03 0.  0.
<mgrwt>
<rscale>  0 0.10167750E+04</rscale>
<asrwt>0</asrwt>
<pdfrwt beam="1">  1        2 0.25059444E+00 0.10167750E+04</pdfrwt>
<pdfrwt beam="2">  1       -2 0.25332544E+00 0.10167750E+04</pdfrwt>
<totfact> 0.65679138E-01</totfact>
</mgrwt>
</event>
<event>
 4    1  0.5410820E-008  0.6764626E+03  0.7818608E-02  0.9758353E-01
         -2   -1    0    0    0  501 -0.00000000000E+00  0.00000000000E+00  0.15648173915E+04  0.15648173915E+04  0.25500000000E-02 0.  1.
          2   -1    0    0  501    0  0.00000000000E+00 -0.00000000000E+00 -0.47141705082E+03  0.47141705083E+03  0.25500000000E-02 0. -1.
    8880022    1    1    2    0    0  0.48168884401E+03 -0.44965080715E+03  0.11740421106E+04  0.13549821111E+04  0.15294330000E+03 0.  0.
    8880022    1    1    2    0    0 -0.48168884401E+03  0.44965080715E+03 -0.80641769899E+02  0.68125233129E+03  0.15294330000E+03 0.  0.
<mgrwt>
<rscale>  0 0.67646260E+03</rscale>
<asrwt>0</asrwt>
<pdfrwt beam="1">  1        2 0.72525700E-01 0.67646260E+03</pdfrwt>
<pdfrwt beam="2">  1       -2 0.24074114E+00 0.67646260E+03</pdfrwt>
<totfact> 0.50113707E+00</totfact>
</mgrwt>
</event>
<event>
 4    1  0.5410820E-008  0.3952925E+03  0.7818608E-02  0.1045422E+00
         -2   -1    0    0    0  501 -0.00000000000E+00  0.00000000000E+00  0.78242817986E+02  0.78242818027E+02  0.25500000000E-02 0.  1.
          2   -1    0    0  501    0  0.00000000000E+00 -0.00000000000E+00 -0.32246465191E+04  0.32246465191E+04  0.25500000000E-02 0. -1.
    8880022    1    1    2    0    0  0.36126432283E+03  0.48503631306E+02 -0.25921398290E+04  0.26221069885E+04  0.15294330000E+03 0.  0.
    8880022    1    1    2    0    0 -0.36126432283E+03 -0.48503631306E+02 -0.55426387206E+03  0.68078234854E+03  0.15294330000E+03 0.  0.
<mgrwt>
<rscale>  0 0.39529251E+03</rscale>
<asrwt>0</asrwt>
<pdfrwt beam="1">  1        2 0.49609936E+00 0.39529251E+03</pdfrwt>
<pdfrwt beam="2">  1       -2 0.12037359E-01 0.39529251E+03</pdfrwt>
<totfact> 0.72113254E+01</totfact>
</mgrwt>
</event>
<event>
 4    1  0.5410820E-008  0.2684385E+03  0.7818608E-02  0.1102177E+00
          2   -1    0    0  501    0  0.00000000000E+00  0.00000000000E+00  0.62561699927E+03  0.62561699927E+03  0.25500000000E-02 0. -1.
         -2   -1    0    0    0  501 -0.00000000000E+00 -0.00000000000E+00 -0.17183423280E+03  0.17183423282E+03  0.25500000000E-02 0.  1.
    8880022    1    1    2    0    0 -0.53592563380E+02 -0.21399863006E+03 -0.20537466863E+01  0.26844635853E+03  0.15294330000E+03 0.  0.
    8880022    1    1    2    0    0  0.53592563380E+02  0.21399863006E+03  0.45583651315E+03  0.52900487356E+03  0.15294330000E+03 0.  0.
<mgrwt>
<rscale>  0 0.26843850E+03</rscale>
<asrwt>0</asrwt>
<pdfrwt beam="1">  1        2 0.96248768E-01 0.26843850E+03</pdfrwt>
<pdfrwt beam="2">  1       -2 0.26436036E-01 0.26843850E+03</pdfrwt>
<totfact> 0.62059598E+02</totfact>
</mgrwt>
</event>
<event>
 4    1  0.5410820E-008  0.2389138E+03  0.7818608E-02  0.1120519E+00
          2   -1    0    0  501    0  0.00000000000E+00  0.00000000000E+00  0.68356846006E+03  0.68356846006E+03  0.25500000000E-02 0. -1.
         -2   -1    0    0    0  501 -0.00000000000E+00 -0.00000000000E+00 -0.14284626636E+04  0.14284626637E+04  0.25500000000E-02 0.  1.
    8880022    1    1    2    0    0  0.86934615724E+02 -0.16164941188E+03  0.65223830111E+03  0.69461832270E+03  0.15294330000E+03 0.  0.
    8880022    1    1    2    0    0 -0.86934615724E+02  0.16164941188E+03 -0.13971325047E+04  0.14174128010E+04  0.15294330000E+03 0.  0.
<mgrwt>
<rscale>  0 0.23891382E+03</rscale>
<asrwt>0</asrwt>
<pdfrwt beam="1">  1        2 0.10516438E+00 0.23891382E+03</pdfrwt>
<pdfrwt beam="2">  1       -2 0.21976349E+00 0.23891382E+03</pdfrwt>
<totfact> 0.48239857E+00</totfact>
</mgrwt>
</event>
<event>
 4    1  0.5410820E-008  0.2703417E+03  0.7818608E-02  0.1101084E+00
         -2   -1    0    0    0  501 -0.00000000000E+00  0.00000000000E+00  0.14591871816E+03  0.14591871818E+03  0.25500000000E-02 0.  1.
          2   -1    0    0  501    0  0.00000000000E+00 -0.00000000000E+00 -0.88823275796E+03  0.88823275797E+03  0.25500000000E-02 0. -1.
    8880022    1    1    2    0    0  0.12687390204E+03  0.18329203024E+03 -0.71262991015E+03  0.76218501509E+03  0.15294330000E+03 0.  0.
    8880022    1    1    2    0    0 -0.12687390204E+03 -0.18329203024E+03 -0.29684129654E+02  0.27196646105E+03  0.15294330000E+03 0.  1.
<mgrwt>
<rscale>  0 0.27034165E+03</rscale>
<asrwt>0</asrwt>
<pdfrwt beam="1">  1        2 0.13665119E+00 0.27034165E+03</pdfrwt>
<pdfrwt beam="2">  1       -2 0.22449034E-01 0.27034165E+03</pdfrwt>
<totfact> 0.53436465E+02</totfact>
</mgrwt>
</event>
<event>
 4    1  0.5410820E-008  0.2850359E+03  0.7818608E-02  0.1092970E+00
          2   -1    0    0  501    0  0.00000000000E+00  0.00000000000E+00  0.13779373530E+04  0.13779373530E+04  0.25500000000E-02 0. -1.
         -2   -1    0    0    0  501 -0.00000000000E+00 -0.00000000000E+00 -0.25608632900E+03  0.25608632902E+03  0.25500000000E-02 0.  1.
    8880022    1    1    2    0    0  0.11308076453E+03 -0.21228877390E+03 -0.15588715685E+03  0.32487881050E+03  0.15294330000E+03 0.  0.
    8880022    1    1    2    0    0 -0.11308076453E+03  0.21228877390E+03  0.12777381808E+04  0.13091448715E+04  0.15294330000E+03 0. -1.
<mgrwt>
<rscale>  0 0.28503585E+03</rscale>
<asrwt>0</asrwt>
<pdfrwt beam="1">  1        2 0.21199036E+00 0.28503585E+03</pdfrwt>
<pdfrwt beam="2">  1       -2 0.39397897E-01 0.28503585E+03</pdfrwt>
<totfact> 0.98412463E+01</totfact>
</mgrwt>
</event>
<event>
 4    1  0.5410820E-008  0.5036813E+03  0.7818608E-02  0.1012822E+00
          2   -1    0    0  501    0  0.00000000000E+00  0.00000000000E+00  0.79079405618E+03  0.79079405619E+03  0.25500000000E-02 0. -1.
         -2   -1    0    0    0  501 -0.00000000000E+00 -0.00000000000E+00 -0.75170531618E+03  0.75170531618E+03  0.25500000000E-02 0.  1.
    8880022    1    1    2    0    0  0.12263721456E+03 -0.46396478404E+03  0.60346919139E+03  0.78604702480E+03  0.15294330000E+03 0.  0.
    8880022    1    1    2    0    0 -0.12263721456E+03  0.46396478404E+03 -0.56438045138E+03  0.75645234757E+03  0.15294330000E+03 0.  0.
<mgrwt>
<rscale>  0 0.50368131E+03</rscale>
<asrwt>0</asrwt>
<pdfrwt beam="1">  1        2 0.12166062E+00 0.50368131E+03</pdfrwt>
<pdfrwt beam="2">  1       -2 0.11564697E+00 0.50368131E+03</pdfrwt>
<totfact> 0.21242520E+01</totfact>
</mgrwt>
</event>
<event>
 4    1  0.5410820E-008  0.2293036E+03  0.7818608E-02  0.1127131E+00
          2   -1    0    0  501    0  0.00000000000E+00  0.00000000000E+00  0.14672729019E+03  0.14672729022E+03  0.25500000000E-02 0. -1.
         -2   -1    0    0    0  501 -0.00000000000E+00 -0.00000000000E+00 -0.72324344535E+03  0.72324344536E+03  0.25500000000E-02 0.  1.
    8880022    1    1    2    0    0 -0.21701339113E+01 -0.17083259406E+03  0.20710099168E+02  0.23023693426E+03  0.15294330000E+03 0.  0.
    8880022    1    1    2    0    0  0.21701339113E+01  0.17083259406E+03 -0.59722625433E+03  0.63973380132E+03  0.15294330000E+03 0.  0.
<mgrwt>
<rscale>  0 0.22930359E+03</rscale>
<asrwt>0</asrwt>
<pdfrwt beam="1">  1        2 0.22573430E-01 0.22930359E+03</pdfrwt>
<pdfrwt beam="2">  1       -2 0.11126822E+00 0.22930359E+03</pdfrwt>
<totfact> 0.16201900E+02</totfact>
</mgrwt>
</event>
<event>
 4    1  0.5410820E-008  0.5499284E+03  0.7818608E-02  0.1001511E+00
         -2   -1    0    0    0  501 -0.00000000000E+00  0.00000000000E+00  0.60701241943E+03  0.60701241944E+03  0.25500000000E-02 0.  1.
          2   -1    0    0  501    0  0.00000000000E+00 -0.00000000000E+00 -0.11751051223E+04  0.11751051223E+04  0.25500000000E-02 0. -1.
    8880022    1    1    2    0    0 -0.39645884677E+03  0.34907012661E+03 -0.96032839196E+03  0.11066398890E+04  0.15294330000E+03 0.  0.
    8880022    1    1    2    0    0  0.39645884677E+03 -0.34907012661E+03  0.39223568913E+03  0.67547765271E+03  0.15294330000E+03 0.  0.
<mgrwt>
<rscale>  0 0.54992838E+03</rscale>
<asrwt>0</asrwt>
<pdfrwt beam="1">  1        2 0.18078540E+00 0.54992838E+03</pdfrwt>
<pdfrwt beam="2">  1       -2 0.93386526E-01 0.54992838E+03</pdfrwt>
<totfact> 0.19885864E+01</totfact>
</mgrwt>
</event>
<event>
 4    1  0.5410820E-008  0.5602257E+03  0.7818608E-02  0.9991544E-01
          2   -1    0    0  501    0  0.00000000000E+00  0.00000000000E+00  0.48708548074E+04  0.48708548074E+04  0.25500000000E-02 0. -1.
         -2   -1    0    0    0  501 -0.00000000000E+00 -0.00000000000E+00 -0.18296098945E+03  0.18296098947E+03  0.25500000000E-02 0.  1.
    8880022    1    1    2    0    0 -0.52224807378E+03  0.13310940730E+03  0.43777889729E+04  0.44134894482E+04  0.15294330000E+03 0.  0.
    8880022    1    1    2    0    0  0.52224807378E+03 -0.13310940730E+03  0.31010484503E+03  0.64032634867E+03  0.15294330000E+03 0.  0.
<mgrwt>
<rscale>  0 0.56022568E+03</rscale>
<asrwt>0</asrwt>
<pdfrwt beam="1">  1        2 0.74936225E+00 0.56022568E+03</pdfrwt>
<pdfrwt beam="2">  1       -2 0.28147845E-01 0.56022568E+03</pdfrwt>
<totfact> 0.70541313E-01</totfact>
</mgrwt>
</event>
<event>
 4    1  0.5410820E-008  0.4864327E+03  0.7818608E-02  0.1017382E+00
          2   -1    0    0  501    0  0.00000000000E+00  0.00000000000E+00  0.26895703234E+04  0.26895703234E+04  0.25500000000E-02 0. -1.
         -2   -1    0    0    0  501 -0.00000000000E+00 -0.00000000000E+00 -0.95492227885E+02  0.95492227919E+02  0.25500000000E-02 0.  1.
    8880022    1    1    2    0    0  0.40968631541E+03  0.21303105220E+03  0.90635078652E+03  0.10286342924E+04  0.15294330000E+03 0.  0.
    8880022    1    1    2    0    0 -0.40968631541E+03 -0.21303105220E+03  0.16877273090E+04  0.17564282589E+04  0.15294330000E+03 0.  0.
<mgrwt>
<rscale>  0 0.48643269E+03</rscale>
<asrwt>0</asrwt>
<pdfrwt beam="1">  1        2 0.41378005E+00 0.48643269E+03</pdfrwt>
<pdfrwt beam="2">  1       -2 0.14691112E-01 0.48643269E+03</pdfrwt>
<totfact> 0.10617946E+02</totfact>
</mgrwt>
</event>
<event>
 4    1  0.5410820E-008  0.8687141E+03  0.7818608E-02  0.9465558E-01
          2   -1    0    0  501    0  0.00000000000E+00  0.00000000000E+00  0.26472726699E+04  0.26472726699E+04  0.25500000000E-02 0. -1.
         -2   -1    0    0    0  501 -0.00000000000E+00 -0.00000000000E+00 -0.46419209608E+03  0.46419209609E+03  0.25500000000E-02 0.  1.
    8880022    1    1    2    0    0  0.83490796922E+03  0.18493581074E+03  0.12513841766E+03  0.87768094872E+03  0.15294330000E+03 0.  0.
    8880022    1    1    2    0    0 -0.83490796922E+03 -0.18493581074E+03  0.20579421561E+04  0.22337838172E+04  0.15294330000E+03 0.  0.
<mgrwt>
<rscale>  0 0.86871412E+03</rscale>
<asrwt>0</asrwt>
<pdfrwt beam="1">  1        2 0.40727272E+00 0.86871412E+03</pdfrwt>
<pdfrwt beam="2">  1       -2 0.71414169E-01 0.86871412E+03</pdfrwt>
<totfact> 0.52471199E+00</totfact>
</mgrwt>
</event>
<event>
 4    1  0.5410820E-008  0.1320021E+04  0.7818608E-02  0.9013838E-01
          2   -1    0    0  501    0  0.00000000000E+00  0.00000000000E+00  0.10055323469E+04  0.10055323469E+04  0.25500000000E-02 0. -1.
         -2   -1    0    0    0  501 -0.00000000000E+00 -0.00000000000E+00 -0.27962889927E+04  0.27962889927E+04  0.25500000000E-02 0.  1.
    8880022    1    1    2    0    0 -0.11846155017E+04  0.56191546390E+03  0.27688008699E+03  0.13487464962E+04  0.15294330000E+03 0.  0.
    8880022    1    1    2    0    0  0.11846155017E+04 -0.56191546390E+03 -0.20676367328E+04  0.24530748434E+04  0.15294330000E+03 0.  0.
<mgrwt>
<rscale>  0 0.13200207E+04</rscale>
<asrwt>0</asrwt>
<pdfrwt beam="1">  1        2 0.15469729E+00 0.13200207E+04</pdfrwt>
<pdfrwt beam="2">  1       -2 0.43019830E+00 0.13200207E+04</pdfrwt>
<totfact> 0.11375419E-01</totfact>
</mgrwt>
</event>
<event>
 4    1  0.5410820E-008  0.3265567E+03  0.7818608E-02  0.1072671E+00
         -2   -1    0    0    0  501 -0.00000000000E+00  0.00000000000E+00  0.24906039182E+03  0.24906039183E+03  0.25500000000E-02 0.  1.
          2   -1    0    0  501    0  0.00000000000E+00 -0.00000000000E+00 -0.11675910667E+04  0.11675910667E+04  0.25500000000E-02 0. -1.
    8880022    1    1    2    0    0 -0.98853581283E+02 -0.27106376145E+03  0.10441729740E+03  0.34284430623E+03  0.15294330000E+03 0.  0.
    8880022    1    1    2    0    0  0.98853581283E+02  0.27106376145E+03 -0.10229479723E+04  0.10738071523E+04  0.15294330000E+03 0.  0.
<mgrwt>
<rscale>  0 0.32655665E+03</rscale>
<asrwt>0</asrwt>
<pdfrwt beam="1">  1        2 0.17962939E+00 0.32655665E+03</pdfrwt>
<pdfrwt beam="2">  1       -2 0.38316984E-01 0.32655665E+03</pdfrwt>
<totfact> 0.13517433E+02</totfact>
</mgrwt>
</event>
<event>
 4    1  0.5410820E-008  0.5110494E+03  0.7818608E-02  0.1010934E+00
         -2   -1    0    0    0  501 -0.00000000000E+00  0.00000000000E+00  0.84524397041E+02  0.84524397080E+02  0.25500000000E-02 0.  1.
          2   -1    0    0  501    0  0.00000000000E+00 -0.00000000000E+00 -0.34000343612E+04  0.34000343612E+04  0.25500000000E-02 0. -1.
    8880022    1    1    2    0    0 -0.29136485387E+03 -0.39100680457E+03 -0.11315498483E+04  0.12416023967E+04  0.15294330000E+03 0.  0.
    8880022    1    1    2    0    0  0.29136485387E+03  0.39100680457E+03 -0.21839601159E+04  0.22429563616E+04  0.15294330000E+03 0.  0.
<mgrwt>
<rscale>  0 0.51104936E+03</rscale>
<asrwt>0</asrwt>
<pdfrwt beam="1">  1        2 0.52308211E+00 0.51104936E+03</pdfrwt>
<pdfrwt beam="2">  1       -2 0.13003756E-01 0.51104936E+03</pdfrwt>
<totfact> 0.47577271E+01</totfact>
</mgrwt>
</event>
<event>
 4    1  0.5410820E-008  0.2647059E+03  0.7818608E-02  0.1104348E+00
          2   -1    0    0  501    0  0.00000000000E+00  0.00000000000E+00  0.25361520277E+04  0.25361520277E+04  0.25500000000E-02 0. -1.
         -2   -1    0    0    0  501 -0.00000000000E+00 -0.00000000000E+00 -0.28757617796E+03  0.28757617797E+03  0.25500000000E-02 0.  1.
    8880022    1    1    2    0    0 -0.18820518425E+03  0.10609594671E+03  0.24666191854E+04  0.24807820138E+04  0.15294330000E+03 0.  0.
    8880022    1    1    2    0    0  0.18820518425E+03 -0.10609594671E+03 -0.21804333564E+03  0.34294619187E+03  0.15294330000E+03 0.  1.
<mgrwt>
<rscale>  0 0.26470586E+03</rscale>
<asrwt>0</asrwt>
<pdfrwt beam="1">  1        2 0.39017725E+00 0.26470586E+03</pdfrwt>
<pdfrwt beam="2">  1       -2 0.44242487E-01 0.26470586E+03</pdfrwt>
<totfact> 0.19090863E+01</totfact>
</mgrwt>
</event>
<event>
 4    1  0.5410820E-008  0.7099490E+03  0.7818608E-02  0.9700368E-01
         -2   -1    0    0    0  501 -0.00000000000E+00  0.00000000000E+00  0.45738301916E+03  0.45738301917E+03  0.25500000000E-02 0.  1.
          2   -1    0    0  501    0  0.00000000000E+00 -0.00000000000E+00 -0.12932842692E+04  0.12932842692E+04  0.25500000000E-02 0. -1.
    8880022    1    1    2    0    0 -0.68697085904E+03  0.93311441861E+02 -0.75460729062E+03  0.10360790522E+04  0.15294330000E+03 0.  0.
    8880022    1    1    2    0    0  0.68697085904E+03 -0.93311441861E+02 -0.81293959371E+02  0.71458823611E+03  0.15294330000E+03 0.  0.
<mgrwt>
<rscale>  0 0.70994904E+03</rscale>
<asrwt>0</asrwt>
<pdfrwt beam="1">  1        2 0.19896681E+00 0.70994904E+03</pdfrwt>
<pdfrwt beam="2">  1       -2 0.70366619E-01 0.70994904E+03</pdfrwt>
<totfact> 0.31405740E+01</totfact>
</mgrwt>
</event>
<event>
 4    1  0.5410820E-008  0.2765315E+03  0.7818608E-02  0.1097599E+00
         -2   -1    0    0    0  501 -0.00000000000E+00  0.00000000000E+00  0.62513261355E+02  0.62513261407E+02  0.25500000000E-02 0.  1.
          2   -1    0    0  501    0  0.00000000000E+00 -0.00000000000E+00 -0.14801198155E+04  0.14801198155E+04  0.25500000000E-02 0. -1.
    8880022    1    1    2    0    0  0.11802212631E+03 -0.19786051402E+03 -0.10301223711E+04  0.10665935298E+04  0.15294330000E+03 0.  0.
    8880022    1    1    2    0    0 -0.11802212631E+03  0.19786051402E+03 -0.38748418304E+03  0.47603954713E+03  0.15294330000E+03 0.  0.
<mgrwt>
<rscale>  0 0.27653148E+03</rscale>
<asrwt>0</asrwt>
<pdfrwt beam="1">  1        2 0.22771072E+00 0.27653148E+03</pdfrwt>
<pdfrwt beam="2">  1       -2 0.96174259E-02 0.27653148E+03</pdfrwt>
<totfact> 0.98898899E+02</totfact>
</mgrwt>
</event>
<event>
 4    1  0.5410820E-008  0.5611370E+03  0.7818608E-02  0.9989485E-01
          2   -1    0    0  501    0  0.00000000000E+00  0.00000000000E+00  0.14307180431E+04  0.14307180431E+04  0.25500000000E-02 0. -1.
         -2   -1    0    0    0  501 -0.00000000000E+00 -0.00000000000E+00 -0.25604249032E+03  0.25604249033E+03  0.25500000000E-02 0.  1.
    8880022    1    1    2    0    0  0.49152471416E+03  0.22335283442E+03  0.90340739873E+03  0.10634940594E+04  0.15294330000E+03 0.  0.
    8880022    1    1    2    0    0 -0.49152471416E+03 -0.22335283442E+03  0.27126815409E+03  0.62326647408E+03  0.15294330000E+03 0.  0.
<mgrwt>
<rscale>  0 0.56113696E+03</rscale>
<asrwt>0</asrwt>
<pdfrwt beam="1">  1        2 0.22011047E+00 0.56113696E+03</pdfrwt>
<pdfrwt beam="2">  1       -2 0.39391152E-01 0.56113696E+03</pdfrwt>
<totfact> 0.87972287E+01</totfact>
</mgrwt>
</event>
<event>
 4    1  0.5410820E-008  0.5956799E+03  0.7818608E-02  0.9914410E-01
          2   -1    0    0  501    0  0.00000000000E+00  0.00000000000E+00  0.14248247854E+04  0.14248247854E+04  0.25500000000E-02 0. -1.
         -2   -1    0    0    0  501 -0.00000000000E+00 -0.00000000000E+00 -0.90578648724E+03  0.90578648724E+03  0.25500000000E-02 0.  1.
    8880022    1    1    2    0    0  0.19396209816E+03 -0.54205318386E+03  0.12517818819E+04  0.13862873016E+04  0.15294330000E+03 0. -1.
    8880022    1    1    2    0    0 -0.19396209816E+03  0.54205318386E+03 -0.73274358378E+03  0.94432397102E+03  0.15294330000E+03 0.  0.
<mgrwt>
<rscale>  0 0.59567995E+03</rscale>
<asrwt>0</asrwt>
<pdfrwt beam="1">  1        2 0.21920381E+00 0.59567995E+03</pdfrwt>
<pdfrwt beam="2">  1       -2 0.13935177E+00 0.59567995E+03</pdfrwt>
<totfact> 0.53509266E+00</totfact>
</mgrwt>
</event>
<event>
 4    1  0.5410820E-008  0.4876484E+03  0.7818608E-02  0.1017054E+00
         -2   -1    0    0    0  501 -0.00000000000E+00  0.00000000000E+00  0.34168108937E+03  0.34168108938E+03  0.25500000000E-02 0.  1.
          2   -1    0    0  501    0  0.00000000000E+00 -0.00000000000E+00 -0.14696305959E+04  0.14696305959E+04  0.25500000000E-02 0. -1.
    8880022    1    1    2    0    0 -0.46139086217E+03  0.39087305626E+02  0.93128088618E+02  0.49646131679E+03  0.15294330000E+03 0.  1.
    8880022    1    1    2    0    0  0.46139086217E+03 -0.39087305626E+02 -0.12210775952E+04  0.13148503685E+04  0.15294330000E+03 0.  0.
<mgrwt>
<rscale>  0 0.48764844E+03</rscale>
<asrwt>0</asrwt>
<pdfrwt beam="1">  1        2 0.22609701E+00 0.48764844E+03</pdfrwt>
<pdfrwt beam="2">  1       -2 0.52566322E-01 0.48764844E+03</pdfrwt>
<totfact> 0.47665251E+01</totfact>
</mgrwt>
</event>
<event>
 4    1  0.5410820E-008  0.8314392E+03  0.7818608E-02  0.9515593E-01
          2   -1    0    0  501    0  0.00000000000E+00  0.00000000000E+00  0.30611862993E+04  0.30611862993E+04  0.25500000000E-02 0. -1.
         -2   -1    0    0    0  501 -0.00000000000E+00 -0.00000000000E+00 -0.48877827434E+03  0.48877827434E+03  0.25500000000E-02 0.  1.
    8880022    1    1    2    0    0 -0.29866786655E+03  0.76072141087E+03  0.25881041935E+04  0.27183771867E+04  0.15294330000E+03 0.  0.
    8880022    1    1    2    0    0  0.29866786655E+03 -0.76072141087E+03 -0.15696168557E+02  0.83158738698E+03  0.15294330000E+03 0.  0.
<mgrwt>
<rscale>  0 0.83143924E+03</rscale>
<asrwt>0</asrwt>
<pdfrwt beam="1">  1        2 0.47095172E+00 0.83143924E+03</pdfrwt>
<pdfrwt beam="2">  1       -2 0.75196660E-01 0.83143924E+03</pdfrwt>
<totfact> 0.26619029E+00</totfact>
</mgrwt>
</event>
<event>
 4    1  0.5410820E-008  0.2945270E+03  0.7818608E-02  0.1088009E+00
         -2   -1    0    0    0  501 -0.00000000000E+00  0.00000000000E+00  0.11387773404E+04  0.11387773404E+04  0.25500000000E-02 0.  1.
          2   -1    0    0  501    0  0.00000000000E+00 -0.00000000000E+00 -0.28289198775E+03  0.28289198776E+03  0.25500000000E-02 0. -1.
    8880022    1    1    2    0    0 -0.23317145722E+03 -0.94792166808E+02  0.10355829748E+04  0.10766513986E+04  0.15294330000E+03 0.  0.
    8880022    1    1    2    0    0  0.23317145722E+03  0.94792166808E+02 -0.17969762211E+03  0.34501792962E+03  0.15294330000E+03 0.  0.
<mgrwt>
<rscale>  0 0.29452697E+03</rscale>
<asrwt>0</asrwt>
<pdfrwt beam="1">  1        2 0.43521845E-01 0.29452697E+03</pdfrwt>
<pdfrwt beam="2">  1       -2 0.17519651E+00 0.29452697E+03</pdfrwt>
<totfact> 0.24544279E+01</totfact>
</mgrwt>
</event>
<event>
 4    1  0.5410820E-008  0.6504678E+03  0.7818608E-02  0.9805902E-01
          2   -1    0    0  501    0  0.00000000000E+00  0.00000000000E+00  0.12568396866E+04  0.12568396866E+04  0.25500000000E-02 0. -1.
         -2   -1    0    0    0  501 -0.00000000000E+00 -0.00000000000E+00 -0.34319871050E+03  0.34319871051E+03  0.25500000000E-02 0.  1.
    8880022    1    1    2    0    0 -0.45234713482E+03  0.44169991201E+03  0.34626462641E+03  0.73689048519E+03  0.15294330000E+03 0.  0.
    8880022    1    1    2    0    0  0.45234713482E+03 -0.44169991201E+03  0.56737634969E+03  0.86314791192E+03  0.15294330000E+03 0.  0.
<mgrwt>
<rscale>  0 0.65046783E+03</rscale>
<asrwt>0</asrwt>
<pdfrwt beam="1">  1        2 0.19335995E+00 0.65046783E+03</pdfrwt>
<pdfrwt beam="2">  1       -2 0.52799802E-01 0.65046783E+03</pdfrwt>
<totfact> 0.60951027E+01</totfact>
</mgrwt>
</event>
<event>
 4    1  0.5410820E-008  0.7146894E+03  0.7818608E-02  0.9692436E-01
         -2   -1    0    0    0  501 -0.00000000000E+00  0.00000000000E+00  0.65827172564E+03  0.65827172565E+03  0.25500000000E-02 0.  1.
          2   -1    0    0  501    0  0.00000000000E+00 -0.00000000000E+00 -0.79319014703E+03  0.79319014704E+03  0.25500000000E-02 0. -1.
    8880022    1    1    2    0    0  0.31527599445E+03  0.62288873083E+03  0.39557726459E+02  0.71578334041E+03  0.15294330000E+03 0.  1.
    8880022    1    1    2    0    0 -0.31527599445E+03 -0.62288873083E+03 -0.17447614785E+03  0.73567853228E+03  0.15294330000E+03 0. -1.
<mgrwt>
<rscale>  0 0.71468943E+03</rscale>
<asrwt>0</asrwt>
<pdfrwt beam="1">  1        2 0.12202925E+00 0.71468943E+03</pdfrwt>
<pdfrwt beam="2">  1       -2 0.10127257E+00 0.71468943E+03</pdfrwt>
<totfact> 0.28412660E+01</totfact>
</mgrwt>
</event>
<event>
 4    1  0.5410820E-008  0.8294197E+03  0.7818608E-02  0.9518383E-01
         -2   -1    0    0    0  501 -0.00000000000E+00  0.00000000000E+00  0.99021379302E+03  0.99021379302E+03  0.25500000000E-02 0.  1.
          2   -1    0    0  501    0  0.00000000000E+00 -0.00000000000E+00 -0.10799714416E+04  0.10799714416E+04  0.25500000000E-02 0. -1.
    8880022    1    1    2    0    0  0.27067521432E+03 -0.76894757125E+03  0.57333147673E+03  0.10082886859E+04  0.15294330000E+03 0.  0.
    8880022    1    1    2    0    0 -0.27067521432E+03  0.76894757125E+03 -0.66308912530E+03  0.10618965487E+04  0.15294330000E+03 0.  0.
<mgrwt>
<rscale>  0 0.82941973E+03</rscale>
<asrwt>0</asrwt>
<pdfrwt beam="1">  1        2 0.16614945E+00 0.82941973E+03</pdfrwt>
<pdfrwt beam="2">  1       -2 0.15234058E+00 0.82941973E+03</pdfrwt>
<totfact> 0.65077901E+00</totfact>
</mgrwt>
</event>
<event>
 4    1  0.5410820E-008  0.2879219E+03  0.7818608E-02  0.1091439E+00
         -2   -1    0    0    0  501 -0.00000000000E+00  0.00000000000E+00  0.80517093540E+03  0.80517093541E+03  0.25500000000E-02 0.  1.
          2   -1    0    0  501    0  0.00000000000E+00 -0.00000000000E+00 -0.40698235023E+03  0.40698235024E+03  0.25500000000E-02 0. -1.
    8880022    1    1    2    0    0 -0.30816722705E+02  0.24198695072E+03  0.72292837328E+03  0.77815450948E+03  0.15294330000E+03 0.  0.
    8880022    1    1    2    0    0  0.30816722705E+02 -0.24198695072E+03 -0.32473978811E+03  0.43399877616E+03  0.15294330000E+03 0. -1.
<mgrwt>
<rscale>  0 0.28792188E+03</rscale>
<asrwt>0</asrwt>
<pdfrwt beam="1">  1        2 0.62612669E-01 0.28792188E+03</pdfrwt>
<pdfrwt beam="2">  1       -2 0.12387245E+00 0.28792188E+03</pdfrwt>
<totfact> 0.40586996E+01</totfact>
</mgrwt>
</event>
<event>
 4    1  0.5410820E-008  0.4568572E+03  0.7818608E-02  0.1025697E+00
          2   -1    0    0  501    0  0.00000000000E+00  0.00000000000E+00  0.60250219484E+03  0.60250219484E+03  0.25500000000E-02 0. -1.
         -2   -1    0    0    0  501 -0.00000000000E+00 -0.00000000000E+00 -0.44789490436E+03  0.44789490436E+03  0.25500000000E-02 0.  1.
    8880022    1    1    2    0    0  0.94531691520E+02  0.41998881608E+03  0.32728976017E+03  0.56199384913E+03  0.15294330000E+03 0.  0.
    8880022    1    1    2    0    0 -0.94531691520E+02 -0.41998881608E+03 -0.17268246969E+03  0.48840325008E+03  0.15294330000E+03 0.  0.
<mgrwt>
<rscale>  0 0.45685720E+03</rscale>
<asrwt>0</asrwt>
<pdfrwt beam="1">  1        2 0.92692645E-01 0.45685720E+03</pdfrwt>
<pdfrwt beam="2">  1       -2 0.68906908E-01 0.45685720E+03</pdfrwt>
<totfact> 0.98108864E+01</totfact>
</mgrwt>
</event>
<event>
 4    1  0.5410820E-008  0.3026161E+03  0.7818608E-02  0.1083940E+00
         -2   -1    0    0    0  501 -0.00000000000E+00  0.00000000000E+00  0.17024908313E+03  0.17024908315E+03  0.25500000000E-02 0.  1.
          2   -1    0    0  501    0  0.00000000000E+00 -0.00000000000E+00 -0.72987673302E+03  0.72987673302E+03  0.25500000000E-02 0. -1.
    8880022    1    1    2    0    0 -0.16709007517E+03  0.20066328795E+03 -0.48992487682E+02  0.30655630024E+03  0.15294330000E+03 0.  0.
    8880022    1    1    2    0    0  0.16709007517E+03 -0.20066328795E+03 -0.51063516220E+03  0.59356951593E+03  0.15294330000E+03 0.  0.
<mgrwt>
<rscale>  0 0.30261610E+03</rscale>
<asrwt>0</asrwt>
<pdfrwt beam="1">  1        2 0.11228873E+00 0.30261610E+03</pdfrwt>
<pdfrwt beam="2">  1       -2 0.26192167E-01 0.30261610E+03</pdfrwt>
<totfact> 0.52287388E+02</totfact>
</mgrwt>
</event>
<event>
 4    1  0.5410820E-008  0.2299521E+03  0.7818608E-02  0.1126674E+00
         -2   -1    0    0    0  501 -0.00000000000E+00  0.00000000000E+00  0.80641164726E+02  0.80641164766E+02  0.25500000000E-02 0.  1.
          2   -1    0    0  501    0  0.00000000000E+00 -0.00000000000E+00 -0.19057484280E+04  0.19057484280E+04  0.25500000000E-02 0. -1.
    8880022    1    1    2    0    0 -0.17149565619E+03 -0.86914460093E+01 -0.17169345257E+04  0.17322650258E+04  0.15294330000E+03 0.  0.
    8880022    1    1    2    0    0  0.17149565619E+03  0.86914460093E+01 -0.10817273757E+03  0.25412456688E+03  0.15294330000E+03 0.  1.
<mgrwt>
<rscale>  0 0.22995207E+03</rscale>
<asrwt>0</asrwt>
<pdfrwt beam="1">  1        2 0.29319203E+00 0.22995207E+03</pdfrwt>
<pdfrwt beam="2">  1       -2 0.12406334E-01 0.22995207E+03</pdfrwt>
<totfact> 0.39443988E+02</totfact>
</mgrwt>
</event>
<event>
 4    1  0.5410820E-008  0.1863614E+03  0.7818608E-02  0.1161785E+00
         -2   -1    0    0    0  501 -0.00000000000E+00  0.00000000000E+00  0.20284333008E+04  0.20284333008E+04  0.25500000000E-02 0.  1.
          2   -1    0    0  501    0  0.00000000000E+00 -0.00000000000E+00 -0.97572095125E+02  0.97572095158E+02  0.25500000000E-02 0. -1.
    8880022    1    1    2    0    0  0.27435851369E+02 -0.10288918720E+03  0.19306703414E+04  0.19396439186E+04  0.15294330000E+03 0.  1.
    8880022    1    1    2    0    0 -0.27435851369E+02  0.10288918720E+03  0.19086422862E+00  0.18636147731E+03  0.15294330000E+03 0.  0.
<mgrwt>
<rscale>  0 0.18636138E+03</rscale>
<asrwt>0</asrwt>
<pdfrwt beam="1">  1        2 0.15011091E-01 0.18636138E+03</pdfrwt>
<pdfrwt beam="2">  1       -2 0.31206667E+00 0.18636138E+03</pdfrwt>
<totfact> 0.12468083E+01</totfact>
</mgrwt>
</event>
<event>
 4    1  0.5410820E-008  0.3233616E+03  0.7818608E-02  0.1074113E+00
          2   -1    0    0  501    0  0.00000000000E+00  0.00000000000E+00  0.12554349079E+04  0.12554349079E+04  0.25500000000E-02 0. -1.
         -2   -1    0    0    0  501 -0.00000000000E+00 -0.00000000000E+00 -0.14909288748E+04  0.14909288748E+04  0.25500000000E-02 0.  1.
    8880022    1    1    2    0    0  0.10830867565E+02 -0.28469942458E+03  0.12165285790E+04  0.12587710303E+04  0.15294330000E+03 0.  0.
    8880022    1    1    2    0    0 -0.10830867565E+02  0.28469942458E+03 -0.14520225459E+04  0.14875927524E+04  0.15294330000E+03 0.  0.
<mgrwt>
<rscale>  0 0.32336160E+03</rscale>
<asrwt>0</asrwt>
<pdfrwt beam="1">  1        2 0.19314383E+00 0.32336160E+03</pdfrwt>
<pdfrwt beam="2">  1       -2 0.22937367E+00 0.32336160E+03</pdfrwt>
<totfact> 0.17553409E+00</totfact>
</mgrwt>
</event>
<event>
 4    1  0.5410820E-008  0.3061426E+03  0.7818608E-02  0.1082210E+00
         -2   -1    0    0    0  501 -0.00000000000E+00  0.00000000000E+00  0.11176526396E+03  0.11176526399E+03  0.25500000000E-02 0.  1.
          2   -1    0    0  501    0  0.00000000000E+00 -0.00000000000E+00 -0.26830314307E+04  0.26830314307E+04  0.25500000000E-02 0. -1.
    8880022    1    1    2    0    0 -0.14071080810E+03  0.22479346481E+03 -0.12701092540E+03  0.33144390404E+03  0.15294330000E+03 0.  1.
    8880022    1    1    2    0    0  0.14071080810E+03 -0.22479346481E+03 -0.24442552414E+04  0.24633527907E+04  0.15294330000E+03 0.  0.
<mgrwt>
<rscale>  0 0.30614259E+03</rscale>
<asrwt>0</asrwt>
<pdfrwt beam="1">  1        2 0.41277402E+00 0.30614259E+03</pdfrwt>
<pdfrwt beam="2">  1       -2 0.17194658E-01 0.30614259E+03</pdfrwt>
<totfact> 0.85877953E+01</totfact>
</mgrwt>
</event>
<event>
 4    1  0.5410820E-008  0.6679533E+03  0.7818608E-02  0.9773662E-01
          2   -1    0    0  501    0  0.00000000000E+00  0.00000000000E+00  0.91192601808E+03  0.91192601809E+03  0.25500000000E-02 0. -1.
         -2   -1    0    0    0  501 -0.00000000000E+00 -0.00000000000E+00 -0.13730818572E+04  0.13730818572E+04  0.25500000000E-02 0.  1.
    8880022    1    1    2    0    0 -0.83998937282E+01  0.65015339867E+03 -0.11472073957E+04  0.13274963133E+04  0.15294330000E+03 0.  0.
    8880022    1    1    2    0    0  0.83998937282E+01 -0.65015339867E+03  0.68605155660E+03  0.95751156199E+03  0.15294330000E+03 0.  0.
<mgrwt>
<rscale>  0 0.66795333E+03</rscale>
<asrwt>0</asrwt>
<pdfrwt beam="1">  1        2 0.14029631E+00 0.66795333E+03</pdfrwt>
<pdfrwt beam="2">  1       -2 0.21124336E+00 0.66795333E+03</pdfrwt>
<totfact> 0.33593838E+00</totfact>
</mgrwt>
</event>
<event>
 4    1  0.5410820E-008  0.6921808E+03  0.7818608E-02  0.9730698E-01
         -2   -1    0    0    0  501 -0.00000000000E+00  0.00000000000E+00  0.22947793700E+04  0.22947793700E+04  0.25500000000E-02 0.  1.
          2   -1    0    0  501    0  0.00000000000E+00 -0.00000000000E+00 -0.28628011574E+03  0.28628011575E+03  0.25500000000E-02 0. -1.
    8880022    1    1    2    0    0  0.56749513877E+02 -0.67268273179E+03  0.33280350444E+03  0.76803150362E+03  0.15294330000E+03 0.  0.
    8880022    1    1    2    0    0 -0.56749513877E+02  0.67268273179E+03  0.16756957498E+04  0.18130279821E+04  0.15294330000E+03 0.  0.
<mgrwt>
<rscale>  0 0.69218077E+03</rscale>
<asrwt>0</asrwt>
<pdfrwt beam="1">  1        2 0.44043094E-01 0.69218077E+03</pdfrwt>
<pdfrwt beam="2">  1       -2 0.35304298E+00 0.69218077E+03</pdfrwt>
<totfact> 0.18297224E+00</totfact>
</mgrwt>
</event>
<event>
 4    1  0.5410820E-008  0.2968901E+03  0.7818608E-02  0.1086806E+00
          2   -1    0    0  501    0  0.00000000000E+00  0.00000000000E+00  0.92418623540E+03  0.92418623540E+03  0.25500000000E-02 0. -1.
         -2   -1    0    0    0  501 -0.00000000000E+00 -0.00000000000E+00 -0.31462920423E+03  0.31462920424E+03  0.25500000000E-02 0.  1.
    8880022    1    1    2    0    0  0.18906616412E+03 -0.17031174444E+03  0.82185120905E+03  0.87383245965E+03  0.15294330000E+03 0.  0.
    8880022    1    1    2    0    0 -0.18906616412E+03  0.17031174444E+03 -0.21229417788E+03  0.36498297999E+03  0.15294330000E+03 0.  0.
<mgrwt>
<rscale>  0 0.29689014E+03</rscale>
<asrwt>0</asrwt>
<pdfrwt beam="1">  1        2 0.14218250E+00 0.29689014E+03</pdfrwt>
<pdfrwt beam="2">  1       -2 0.48404493E-01 0.29689014E+03</pdfrwt>
<totfact> 0.12105134E+02</totfact>
</mgrwt>
</event>
<event>
 4    1  0.5410820E-008  0.3588379E+03  0.7818608E-02  0.1059045E+00
         -2   -1    0    0    0  501 -0.00000000000E+00  0.00000000000E+00  0.10041381021E+03  0.10041381024E+03  0.25500000000E-02 0.  1.
          2   -1    0    0  501    0  0.00000000000E+00 -0.00000000000E+00 -0.21803871467E+04  0.21803871467E+04  0.25500000000E-02 0. -1.
    8880022    1    1    2    0    0  0.11979958484E+03  0.30169691489E+03 -0.17718672241E+04  0.18078379579E+04  0.15294330000E+03 0.  0.
    8880022    1    1    2    0    0 -0.11979958484E+03 -0.30169691489E+03 -0.30810611231E+03  0.47296299901E+03  0.15294330000E+03 0.  0.
<mgrwt>
<rscale>  0 0.35883788E+03</rscale>
<asrwt>0</asrwt>
<pdfrwt beam="1">  1        2 0.33544414E+00 0.35883788E+03</pdfrwt>
<pdfrwt beam="2">  1       -2 0.15448280E-01 0.35883788E+03</pdfrwt>
<totfact> 0.19144275E+02</totfact>
</mgrwt>
</event>
<event>
 4    1  0.5410820E-008  0.5603638E+03  0.7818608E-02  0.9991232E-01
         -2   -1    0    0    0  501 -0.00000000000E+00  0.00000000000E+00  0.51501429223E+03  0.51501429224E+03  0.25500000000E-02 0.  1.
          2   -1    0    0  501    0  0.00000000000E+00 -0.00000000000E+00 -0.17564604946E+04  0.17564604946E+04  0.25500000000E-02 0. -1.
    8880022    1    1    2    0    0 -0.38893605560E+03  0.37328902500E+03 -0.15384085528E+04  0.16372869266E+04  0.15294330000E+03 0.  0.
    8880022    1    1    2    0    0  0.38893605560E+03 -0.37328902500E+03  0.29696235044E+03  0.63418786028E+03  0.15294330000E+03 0.  0.
<mgrwt>
<rscale>  0 0.56036381E+03</rscale>
<asrwt>0</asrwt>
<pdfrwt beam="1">  1        2 0.27022469E+00 0.56036381E+03</pdfrwt>
<pdfrwt beam="2">  1       -2 0.79232969E-01 0.56036381E+03</pdfrwt>
<totfact> 0.13677859E+01</totfact>
</mgrwt>
</event>
<event>
 4    1  0.5410820E-008  0.7848142E+03  0.7818608E-02  0.9582262E-01
         -2   -1    0    0    0  501 -0.00000000000E+00  0.00000000000E+00  0.31095550959E+03  0.31095550960E+03  0.25500000000E-02 0.  1.
          2   -1    0    0  501    0  0.00000000000E+00 -0.00000000000E+00 -0.29872490659E+04  0.29872490659E+04  0.25500000000E-02 0. -1.
    8880022    1    1    2    0    0  0.76460594210E+03  0.88991243330E+02 -0.38092435130E+03  0.87237417574E+03  0.15294330000E+03 0.  0.
    8880022    1    1    2    0    0 -0.76460594210E+03 -0.88991243330E+02 -0.22953692050E+04  0.24258303997E+04  0.15294330000E+03 0.  0.
<mgrwt>
<rscale>  0 0.78481421E+03</rscale>
<asrwt>0</asrwt>
<pdfrwt beam="1">  1        2 0.45957676E+00 0.78481421E+03</pdfrwt>
<pdfrwt beam="2">  1       -2 0.47839311E-01 0.78481421E+03</pdfrwt>
<totfact> 0.77638106E+00</totfact>
</mgrwt>
</event>
<event>
 4    1  0.5410820E-008  0.3836079E+03  0.7818608E-02  0.1049608E+00
         -2   -1    0    0    0  501 -0.00000000000E+00  0.00000000000E+00  0.10206976234E+03  0.10206976237E+03  0.25500000000E-02 0.  1.
          2   -1    0    0  501    0  0.00000000000E+00 -0.00000000000E+00 -0.28548083682E+04  0.28548083682E+04  0.25500000000E-02 0. -1.
    8880022    1    1    2    0    0  0.11831349698E+03  0.33130842236E+03 -0.24165316557E+04  0.24467897847E+04  0.15294330000E+03 0.  0.
    8880022    1    1    2    0    0 -0.11831349698E+03 -0.33130842236E+03 -0.33620695018E+03  0.51008834594E+03  0.15294330000E+03 0.  0.
<mgrwt>
<rscale>  0 0.38360788E+03</rscale>
<asrwt>0</asrwt>
<pdfrwt beam="1">  1        2 0.43920123E+00 0.38360788E+03</pdfrwt>
<pdfrwt beam="2">  1       -2 0.15703043E-01 0.38360788E+03</pdfrwt>
<totfact> 0.77963946E+01</totfact>
</mgrwt>
</event>
<event>
 4    1  0.5410820E-008  0.3215264E+03  0.7818608E-02  0.1074949E+00
         -2   -1    0    0    0  501 -0.00000000000E+00  0.00000000000E+00  0.22586875837E+03  0.22586875838E+03  0.25500000000E-02 0.  1.
          2   -1    0    0  501    0  0.00000000000E+00 -0.00000000000E+00 -0.22284053004E+04  0.22284053004E+04  0.25500000000E-02 0. -1.
    8880022    1    1    2    0    0 -0.26836158594E+03 -0.89272738998E+02  0.92611548615E+02  0.33459843797E+03  0.15294330000E+03 0.  1.
    8880022    1    1    2    0    0  0.26836158594E+03  0.89272738998E+02 -0.20951480907E+04  0.21196756209E+04  0.15294330000E+03 0.  0.
<mgrwt>
<rscale>  0 0.32152638E+03</rscale>
<asrwt>0</asrwt>
<pdfrwt beam="1">  1        2 0.34283157E+00 0.32152638E+03</pdfrwt>
<pdfrwt beam="2">  1       -2 0.34749041E-01 0.32152638E+03</pdfrwt>
<totfact> 0.43556703E+01</totfact>
</mgrwt>
</event>
<event>
 4    1  0.5410820E-008  0.6146447E+03  0.7818608E-02  0.9875480E-01
          2   -1    0    0  501    0  0.00000000000E+00  0.00000000000E+00  0.23518914199E+03  0.23518914200E+03  0.25500000000E-02 0. -1.
         -2   -1    0    0    0  501 -0.00000000000E+00 -0.00000000000E+00 -0.18034292211E+04  0.18034292211E+04  0.25500000000E-02 0.  1.
    8880022    1    1    2    0    0  0.99406590307E+02 -0.58695381543E+03 -0.11211078219E+04  0.12785424721E+04  0.15294330000E+03 0.  0.
    8880022    1    1    2    0    0 -0.99406590307E+02  0.58695381543E+03 -0.44713225728E+03  0.76007589106E+03  0.15294330000E+03 0.  0.
<mgrwt>
<rscale>  0 0.61464470E+03</rscale>
<asrwt>0</asrwt>
<pdfrwt beam="1">  1        2 0.36182946E-01 0.61464470E+03</pdfrwt>
<pdfrwt beam="2">  1       -2 0.27745064E+00 0.61464470E+03</pdfrwt>
<totfact> 0.66129316E+00</totfact>
</mgrwt>
</event>
<event>
 4    1  0.5410820E-008  0.3841006E+03  0.7818608E-02  0.1049428E+00
          2   -1    0    0  501    0  0.00000000000E+00  0.00000000000E+00  0.31718206706E+04  0.31718206706E+04  0.25500000000E-02 0. -1.
         -2   -1    0    0    0  501 -0.00000000000E+00 -0.00000000000E+00 -0.55433159197E+02  0.55433159255E+02  0.25500000000E-02 0.  1.
    8880022    1    1    2    0    0 -0.34966853369E+03  0.43284219161E+02  0.22054652237E+04  0.22386625724E+04  0.15294330000E+03 0.  0.
    8880022    1    1    2    0    0  0.34966853369E+03 -0.43284219161E+02  0.91092228775E+03  0.98859125751E+03  0.15294330000E+03 0.  1.
<mgrwt>
<rscale>  0 0.38410059E+03</rscale>
<asrwt>0</asrwt>
<pdfrwt beam="1">  1        2 0.48797243E+00 0.38410059E+03</pdfrwt>
<pdfrwt beam="2">  1       -2 0.85281780E-02 0.38410059E+03</pdfrwt>
<totfact> 0.13593863E+02</totfact>
</mgrwt>
</event>
<event>
 4    1  0.9510050E-008  0.5986820E+03  0.7818608E-02  0.9908144E-01
          2   -1    0    0  501    0  0.00000000000E+00  0.00000000000E+00  0.76884909915E+03  0.76884909916E+03  0.25500000000E-02 0. -1.
         -2   -1    0    0    0  501 -0.00000000000E+00 -0.00000000000E+00 -0.19712726982E+04  0.19712726982E+04  0.25500000000E-02 0.  1.
    8880022    1    1    2    0    0 -0.56889322347E+03  0.10671895386E+03 -0.17983616489E+04  0.18953956600E+04  0.15294330000E+03 0.  0.
    8880022    1    1    2    0    0  0.56889322347E+03 -0.10671895386E+03  0.59593804985E+03  0.84472613733E+03  0.15294330000E+03 0.  0.
<mgrwt>
<rscale>  0 0.59868196E+03</rscale>
<asrwt>0</asrwt>
<pdfrwt beam="1">  1        2 0.11828448E+00 0.59868196E+03</pdfrwt>
<pdfrwt beam="2">  1       -2 0.30327272E+00 0.59868196E+03</pdfrwt>
<totfact> 0.11866128E+00</totfact>
</mgrwt>
</event>
<event>
 4    1  0.5410820E-008  0.2424107E+03  0.7818608E-02  0.1118197E+00
         -2   -1    0    0    0  501 -0.00000000000E+00  0.00000000000E+00  0.18527301875E+03  0.18527301877E+03  0.25500000000E-02 0.  1.
          2   -1    0    0  501    0  0.00000000000E+00 -0.00000000000E+00 -0.24319550917E+04  0.24319550917E+04  0.25500000000E-02 0. -1.
    8880022    1    1    2    0    0  0.18806628891E+03  0.15318485878E+01 -0.23436420971E+04  0.23561454131E+04  0.15294330000E+03 0. -1.
    8880022    1    1    2    0    0 -0.18806628891E+03 -0.15318485878E+01  0.96960024093E+02  0.26108269738E+03  0.15294330000E+03 0.  0.
<mgrwt>
<rscale>  0 0.24241066E+03</rscale>
<asrwt>0</asrwt>
<pdfrwt beam="1">  1        2 0.37414691E+00 0.24241066E+03</pdfrwt>
<pdfrwt beam="2">  1       -2 0.28503543E-01 0.24241066E+03</pdfrwt>
<totfact> 0.50142637E+01</totfact>
</mgrwt>
</event>
<event>
 4    1  0.5410820E-008  0.3943213E+03  0.7818608E-02  0.1045764E+00
          2   -1    0    0  501    0  0.00000000000E+00  0.00000000000E+00  0.61377366569E+03  0.61377366570E+03  0.25500000000E-02 0. -1.
         -2   -1    0    0    0  501 -0.00000000000E+00 -0.00000000000E+00 -0.11599210500E+04  0.11599210500E+04  0.25500000000E-02 0.  1.
    8880022    1    1    2    0    0 -0.31948163675E+03 -0.17328904944E+03  0.51096880284E+03  0.64542883524E+03  0.15294330000E+03 0.  0.
    8880022    1    1    2    0    0  0.31948163675E+03  0.17328904944E+03 -0.10571161871E+04  0.11282658804E+04  0.15294330000E+03 0.  0.
<mgrwt>
<rscale>  0 0.39432127E+03</rscale>
<asrwt>0</asrwt>
<pdfrwt beam="1">  1        2 0.94426718E-01 0.39432127E+03</pdfrwt>
<pdfrwt beam="2">  1       -2 0.17844939E+00 0.39432127E+03</pdfrwt>
<totfact> 0.96239663E+00</totfact>
</mgrwt>
</event>
<event>
 4    1  0.5469003E-008  0.4536284E+03  0.7818608E-02  0.1026646E+00
          2   -1    0    0  501    0  0.00000000000E+00  0.00000000000E+00  0.12377070996E+04  0.12377070996E+04  0.25500000000E-02 0. -1.
         -2   -1    0    0    0  501 -0.00000000000E+00 -0.00000000000E+00 -0.11146930341E+04  0.11146930341E+04  0.25500000000E-02 0.  1.
    8880022    1    1    2    0    0  0.27027905802E+03  0.33066042655E+03  0.11464510868E+04  0.12329350487E+04  0.15294330000E+03 0.  0.
    8880022    1    1    2    0    0 -0.27027905802E+03 -0.33066042655E+03 -0.10234370213E+04  0.11194650850E+04  0.15294330000E+03 0.  0.
<mgrwt>
<rscale>  0 0.45362842E+03</rscale>
<asrwt>0</asrwt>
<pdfrwt beam="1">  1        2 0.19041648E+00 0.45362842E+03</pdfrwt>
<pdfrwt beam="2">  1       -2 0.17149124E+00 0.45362842E+03</pdfrwt>
<totfact> 0.40562524E+00</totfact>
</mgrwt>
</event>
<event>
 4    1  0.5410820E-008  0.5840699E+03  0.7818608E-02  0.9939018E-01
         -2   -1    0    0    0  501 -0.00000000000E+00  0.00000000000E+00  0.24770759029E+04  0.24770759029E+04  0.25500000000E-02 0.  1.
          2   -1    0    0  501    0  0.00000000000E+00 -0.00000000000E+00 -0.64213035466E+03  0.64213035467E+03  0.25500000000E-02 0. -1.
    8880022    1    1    2    0    0  0.51625843906E+03 -0.22632552098E+03 -0.46480524511E+03  0.74644597008E+03  0.15294330000E+03 0.  0.
    8880022    1    1    2    0    0 -0.51625843906E+03  0.22632552098E+03  0.22997507934E+04  0.23727602875E+04  0.15294330000E+03 0.  0.
<mgrwt>
<rscale>  0 0.58406992E+03</rscale>
<asrwt>0</asrwt>
<pdfrwt beam="1">  1        2 0.98789283E-01 0.58406992E+03</pdfrwt>
<pdfrwt beam="2">  1       -2 0.38108861E+00 0.58406992E+03</pdfrwt>
<totfact> 0.49601990E-01</totfact>
</mgrwt>
</event>
<event>
 4    1  0.5410820E-008  0.1074692E+04  0.7818608E-02  0.9230216E-01
         -2   -1    0    0    0  501 -0.00000000000E+00  0.00000000000E+00  0.94486784088E+03  0.94486784088E+03  0.25500000000E-02 0.  1.
          2   -1    0    0  501    0  0.00000000000E+00 -0.00000000000E+00 -0.16227820161E+04  0.16227820161E+04  0.25500000000E-02 0. -1.
    8880022    1    1    2    0    0  0.10619041734E+04  0.62690491269E+02 -0.97668933138E+03  0.14521998052E+04  0.15294330000E+03 0.  0.
    8880022    1    1    2    0    0 -0.10619041734E+04 -0.62690491269E+02  0.29877515618E+03  0.11154500518E+04  0.15294330000E+03 0.  0.
<mgrwt>
<rscale>  0 0.10746917E+04</rscale>
<asrwt>0</asrwt>
<pdfrwt beam="1">  1        2 0.24965877E+00 0.10746917E+04</pdfrwt>
<pdfrwt beam="2">  1       -2 0.14536428E+00 0.10746917E+04</pdfrwt>
<totfact> 0.34731463E+00</totfact>
</mgrwt>
</event>
<event>
 4    1  0.5410820E-008  0.3261599E+03  0.7818608E-02  0.1072849E+00
          2   -1    0    0  501    0  0.00000000000E+00  0.00000000000E+00  0.22679670220E+04  0.22679670220E+04  0.25500000000E-02 0. -1.
         -2   -1    0    0    0  501 -0.00000000000E+00 -0.00000000000E+00 -0.14182323404E+03  0.14182323407E+03  0.25500000000E-02 0.  1.
    8880022    1    1    2    0    0  0.19855120337E+03 -0.20872475865E+03  0.77362025024E+02  0.33520910066E+03  0.15294330000E+03 0.  0.
    8880022    1    1    2    0    0 -0.19855120337E+03  0.20872475865E+03  0.20487817629E+04  0.20745811554E+04  0.15294330000E+03 0. -1.
<mgrwt>
<rscale>  0 0.32615987E+03</rscale>
<asrwt>0</asrwt>
<pdfrwt beam="1">  1        2 0.34891798E+00 0.32615987E+03</pdfrwt>
<pdfrwt beam="2">  1       -2 0.21818961E-01 0.32615987E+03</pdfrwt>
<totfact> 0.95986148E+01</totfact>
</mgrwt>
</event>
<event>
 4    1  0.5410820E-008  0.9530756E+03  0.7818608E-02  0.9361563E-01
          2   -1    0    0  501    0  0.00000000000E+00  0.00000000000E+00  0.16131962173E+04  0.16131962173E+04  0.25500000000E-02 0. -1.
         -2   -1    0    0    0  501 -0.00000000000E+00 -0.00000000000E+00 -0.91006240738E+03  0.91006240739E+03  0.25500000000E-02 0.  1.
    8880022    1    1    2    0    0 -0.59939598907E+03  0.72504202713E+03 -0.42745917720E+03  0.10445451134E+04  0.15294330000E+03 0.  0.
    8880022    1    1    2    0    0  0.59939598907E+03 -0.72504202713E+03  0.11305929871E+04  0.14787135113E+04  0.15294330000E+03 0.  0.
<mgrwt>
<rscale>  0 0.95307562E+03</rscale>
<asrwt>0</asrwt>
<pdfrwt beam="1">  1        2 0.24818403E+00 0.95307562E+03</pdfrwt>
<pdfrwt beam="2">  1       -2 0.14000960E+00 0.95307562E+03</pdfrwt>
<totfact> 0.39351079E+00</totfact>
</mgrwt>
</event>
<event>
 4    1  0.6945921E-008  0.6605839E+03  0.7818608E-02  0.9787119E-01
         -2   -1    0    0    0  501 -0.00000000000E+00  0.00000000000E+00  0.90564390080E+03  0.90564390080E+03  0.25500000000E-02 0.  1.
          2   -1    0    0  501    0  0.00000000000E+00 -0.00000000000E+00 -0.15939117281E+04  0.15939117281E+04  0.25500000000E-02 0. -1.
    8880022    1    1    2    0    0  0.60228289099E+03  0.22413119026E+03  0.69978799474E+03  0.96232757511E+03  0.15294330000E+03 0.  0.
    8880022    1    1    2    0    0 -0.60228289099E+03 -0.22413119026E+03 -0.13880558220E+04  0.15372280538E+04  0.15294330000E+03 0.  0.
<mgrwt>
<rscale>  0 0.66058393E+03</rscale>
<asrwt>0</asrwt>
<pdfrwt beam="1">  1        2 0.24521719E+00 0.66058393E+03</pdfrwt>
<pdfrwt beam="2">  1       -2 0.13932983E+00 0.66058393E+03</pdfrwt>
<totfact> 0.42649404E+00</totfact>
</mgrwt>
</event>
<event>
 4    1  0.5410820E-008  0.2589056E+03  0.7818608E-02  0.1107803E+00
          2   -1    0    0  501    0  0.00000000000E+00  0.00000000000E+00  0.12478686601E+04  0.12478686601E+04  0.25500000000E-02 0. -1.
         -2   -1    0    0    0  501 -0.00000000000E+00 -0.00000000000E+00 -0.16135204811E+03  0.16135204813E+03  0.25500000000E-02 0.  1.
    8880022    1    1    2    0    0 -0.16416725808E+03 -0.12918818371E+03  0.11187486483E+04  0.11483164487E+04  0.15294330000E+03 0.  0.
    8880022    1    1    2    0    0  0.16416725808E+03  0.12918818371E+03 -0.32232036295E+02  0.26090425948E+03  0.15294330000E+03 0.  0.
<mgrwt>
<rscale>  0 0.25890564E+03</rscale>
<asrwt>0</asrwt>
<pdfrwt beam="1">  1        2 0.19197979E+00 0.25890564E+03</pdfrwt>
<pdfrwt beam="2">  1       -2 0.24823392E-01 0.25890564E+03</pdfrwt>
<totfact> 0.27289838E+02</totfact>
</mgrwt>
</event>
<event>
 4    1  0.5410820E-008  0.5372600E+03  0.7818608E-02  0.1004486E+00
          2   -1    0    0  501    0  0.00000000000E+00  0.00000000000E+00  0.16179311732E+04  0.16179311732E+04  0.25500000000E-02 0. -1.
         -2   -1    0    0    0  501 -0.00000000000E+00 -0.00000000000E+00 -0.27691078965E+03  0.27691078966E+03  0.25500000000E-02 0.  1.
    8880022    1    1    2    0    0 -0.51460638216E+03  0.20902876617E+02  0.12355800803E+04  0.13473330868E+04  0.15294330000E+03 0.  0.
    8880022    1    1    2    0    0  0.51460638216E+03 -0.20902876617E+02  0.10544030320E+03  0.54750887606E+03  0.15294330000E+03 0.  0.
<mgrwt>
<rscale>  0 0.53726000E+03</rscale>
<asrwt>0</asrwt>
<pdfrwt beam="1">  1        2 0.24891249E+00 0.53726000E+03</pdfrwt>
<pdfrwt beam="2">  1       -2 0.42601660E-01 0.53726000E+03</pdfrwt>
<totfact> 0.59772920E+01</totfact>
</mgrwt>
</event>
<event>
 4    1  0.5410820E-008  0.4543480E+03  0.7818608E-02  0.1026433E+00
         -2   -1    0    0    0  501 -0.00000000000E+00  0.00000000000E+00  0.42792789224E+03  0.42792789225E+03  0.25500000000E-02 0.  1.
          2   -1    0    0  501    0  0.00000000000E+00 -0.00000000000E+00 -0.15646695106E+04  0.15646695106E+04  0.25500000000E-02 0. -1.
    8880022    1    1    2    0    0  0.37939813037E+03  0.19773095950E+03  0.26023142790E+03  0.52359576274E+03  0.15294330000E+03 0.  0.
    8880022    1    1    2    0    0 -0.37939813037E+03 -0.19773095950E+03 -0.13969730462E+04  0.14690016401E+04  0.15294330000E+03 0.  0.
<mgrwt>
<rscale>  0 0.45434802E+03</rscale>
<asrwt>0</asrwt>
<pdfrwt beam="1">  1        2 0.24071838E+00 0.45434802E+03</pdfrwt>
<pdfrwt beam="2">  1       -2 0.65835061E-01 0.45434802E+03</pdfrwt>
<totfact> 0.26584609E+01</totfact>
</mgrwt>
</event>
<event>
 4    1  0.5410820E-008  0.1239014E+04  0.7818608E-02  0.9079377E-01
          2   -1    0    0  501    0  0.00000000000E+00  0.00000000000E+00  0.11498645224E+04  0.11498645224E+04  0.25500000000E-02 0. -1.
         -2   -1    0    0    0  501 -0.00000000000E+00 -0.00000000000E+00 -0.16403304065E+04  0.16403304066E+04  0.25500000000E-02 0.  1.
    8880022    1    1    2    0    0  0.10722877509E+04 -0.60163350034E+03 -0.84705827092E+03  0.15008874897E+04  0.15294330000E+03 0.  0.
    8880022    1    1    2    0    0 -0.10722877509E+04  0.60163350034E+03  0.35659238675E+03  0.12893074392E+04  0.15294330000E+03 0.  0.
<mgrwt>
<rscale>  0 0.12390139E+04</rscale>
<asrwt>0</asrwt>
<pdfrwt beam="1">  1        2 0.17690223E+00 0.12390139E+04</pdfrwt>
<pdfrwt beam="2">  1       -2 0.25235852E+00 0.12390139E+04</pdfrwt>
<totfact> 0.12229110E+00</totfact>
</mgrwt>
</event>
<event>
 4    1  0.5410820E-008  0.1610326E+04  0.7818608E-02  0.8814229E-01
          2   -1    0    0  501    0  0.00000000000E+00  0.00000000000E+00  0.19851349070E+04  0.19851349070E+04  0.25500000000E-02 0. -1.
         -2   -1    0    0    0  501 -0.00000000000E+00 -0.00000000000E+00 -0.15334938566E+04  0.15334938566E+04  0.25500000000E-02 0.  1.
    8880022    1    1    2    0    0 -0.13916339379E+04 -0.79568450986E+03 -0.45137761278E+03  0.16723911799E+04  0.15294330000E+03 0.  0.
    8880022    1    1    2    0    0  0.13916339379E+04  0.79568450986E+03  0.90301866316E+03  0.18462375837E+04  0.15294330000E+03 0.  0.
<mgrwt>
<rscale>  0 0.16103262E+04</rscale>
<asrwt>0</asrwt>
<pdfrwt beam="1">  1        2 0.30540537E+00 0.16103262E+04</pdfrwt>
<pdfrwt beam="2">  1       -2 0.23592213E+00 0.16103262E+04</pdfrwt>
<totfact> 0.49584960E-01</totfact>
</mgrwt>
</event>
<event>
 4    1  0.5410820E-008  0.9470475E+03  0.7818608E-02  0.9368608E-01
         -2   -1    0    0    0  501 -0.00000000000E+00  0.00000000000E+00  0.10683356935E+04  0.10683356935E+04  0.25500000000E-02 0.  1.
          2   -1    0    0  501    0  0.00000000000E+00 -0.00000000000E+00 -0.13022015745E+04  0.13022015745E+04  0.25500000000E-02 0. -1.
    8880022    1    1    2    0    0  0.67924762752E+03 -0.64197346582E+03  0.58957086647E+03  0.11155683439E+04  0.15294330000E+03 0.  1.
    8880022    1    1    2    0    0 -0.67924762752E+03  0.64197346582E+03 -0.82343674750E+03  0.12549689241E+04  0.15294330000E+03 0.  0.
<mgrwt>
<rscale>  0 0.94704748E+03</rscale>
<asrwt>0</asrwt>
<pdfrwt beam="1">  1        2 0.20033870E+00 0.94704748E+03</pdfrwt>
<pdfrwt beam="2">  1       -2 0.16435934E+00 0.94704748E+03</pdfrwt>
<totfact> 0.38479001E+00</totfact>
</mgrwt>
</event>
<event>
 4    1  0.5410820E-008  0.5964662E+03  0.7818608E-02  0.9912765E-01
         -2   -1    0    0    0  501 -0.00000000000E+00  0.00000000000E+00  0.16407588725E+03  0.16407588727E+03  0.25500000000E-02 0.  1.
          2   -1    0    0  501    0  0.00000000000E+00 -0.00000000000E+00 -0.29353592669E+04  0.29353592669E+04  0.25500000000E-02 0. -1.
    8880022    1    1    2    0    0 -0.51769860614E+03  0.25370940801E+03 -0.59345843037E+03  0.84140648447E+03  0.15294330000E+03 0.  0.
    8880022    1    1    2    0    0  0.51769860614E+03 -0.25370940801E+03 -0.21778249493E+04  0.22580286697E+04  0.15294330000E+03 0.  0.
<mgrwt>
<rscale>  0 0.59646623E+03</rscale>
<asrwt>0</asrwt>
<pdfrwt beam="1">  1        2 0.45159369E+00 0.59646623E+03</pdfrwt>
<pdfrwt beam="2">  1       -2 0.25242446E-01 0.59646623E+03</pdfrwt>
<totfact> 0.29177689E+01</totfact>
</mgrwt>
</event>
<event>
 4    1  0.5410820E-008  0.8272960E+03  0.7818608E-02  0.9521327E-01
         -2   -1    0    0    0  501 -0.00000000000E+00  0.00000000000E+00  0.78636657626E+03  0.78636657626E+03  0.25500000000E-02 0.  1.
          2   -1    0    0  501    0  0.00000000000E+00 -0.00000000000E+00 -0.13352025720E+04  0.13352025720E+04  0.25500000000E-02 0. -1.
    8880022    1    1    2    0    0  0.67812015687E+03 -0.44853096835E+03 -0.90032321740E+03  0.12227021410E+04  0.15294330000E+03 0.  0.
    8880022    1    1    2    0    0 -0.67812015687E+03  0.44853096835E+03  0.35148722170E+03  0.89886700726E+03  0.15294330000E+03 0.  0.
<mgrwt>
<rscale>  0 0.82729597E+03</rscale>
<asrwt>0</asrwt>
<pdfrwt beam="1">  1        2 0.20541578E+00 0.82729597E+03</pdfrwt>
<pdfrwt beam="2">  1       -2 0.12097947E+00 0.82729597E+03</pdfrwt>
<totfact> 0.83048776E+00</totfact>
</mgrwt>
</event>
<event>
 4    1  0.5410820E-008  0.1808833E+03  0.7818608E-02  0.1166951E+00
         -2   -1    0    0    0  501 -0.00000000000E+00  0.00000000000E+00  0.17671570212E+02  0.17671570396E+02  0.25500000000E-02 0.  1.
          2   -1    0    0  501    0  0.00000000000E+00 -0.00000000000E+00 -0.43163969250E+04  0.43163969250E+04  0.25500000000E-02 0. -1.
    8880022    1    1    2    0    0  0.21119780983E+02  0.94239517948E+02 -0.37869524031E+04  0.37912698780E+04  0.15294330000E+03 0.  0.
    8880022    1    1    2    0    0 -0.21119780983E+02 -0.94239517948E+02 -0.51177295168E+03  0.54279861733E+03  0.15294330000E+03 0.  0.
<mgrwt>
<rscale>  0 0.18088335E+03</rscale>
<asrwt>0</asrwt>
<pdfrwt beam="1">  1        2 0.66406023E+00 0.18088335E+03</pdfrwt>
<pdfrwt beam="2">  1       -2 0.27187066E-02 0.18088335E+03</pdfrwt>
<totfact> 0.12737315E+02</totfact>
</mgrwt>
</event>
<event>
 4    1  0.5410820E-008  0.2472433E+03  0.7818608E-02  0.1115059E+00
          2   -1    0    0  501    0  0.00000000000E+00  0.00000000000E+00  0.24994134483E+03  0.24994134484E+03  0.25500000000E-02 0. -1.
         -2   -1    0    0    0  501 -0.00000000000E+00 -0.00000000000E+00 -0.10278690044E+04  0.10278690044E+04  0.25500000000E-02 0.  1.
    8880022    1    1    2    0    0 -0.15019504412E+03 -0.12320321433E+03 -0.94670166693E+03  0.97845453777E+03  0.15294330000E+03 0.  0.
    8880022    1    1    2    0    0  0.15019504412E+03  0.12320321433E+03  0.16877400735E+03  0.29935581149E+03  0.15294330000E+03 0. -1.
<mgrwt>
<rscale>  0 0.24724327E+03</rscale>
<asrwt>0</asrwt>
<pdfrwt beam="1">  1        2 0.38452515E-01 0.24724327E+03</pdfrwt>
<pdfrwt beam="2">  1       -2 0.15813369E+00 0.24724327E+03</pdfrwt>
<totfact> 0.37309217E+01</totfact>
</mgrwt>
</event>
<event>
 4    1  0.5410820E-008  0.3421142E+03  0.7818608E-02  0.1065899E+00
          2   -1    0    0  501    0  0.00000000000E+00  0.00000000000E+00  0.24055699185E+04  0.24055699185E+04  0.25500000000E-02 0. -1.
         -2   -1    0    0    0  501 -0.00000000000E+00 -0.00000000000E+00 -0.80607199281E+02  0.80607199322E+02  0.25500000000E-02 0.  1.
    8880022    1    1    2    0    0 -0.94740055475E+02  0.29098939257E+03  0.37983075773E+03  0.51118838233E+03  0.15294330000E+03 0.  0.
    8880022    1    1    2    0    0  0.94740055475E+02 -0.29098939257E+03  0.19451319615E+04  0.19749887355E+04  0.15294330000E+03 0.  0.
<mgrwt>
<rscale>  0 0.34211425E+03</rscale>
<asrwt>0</asrwt>
<pdfrwt beam="1">  1        2 0.37008769E+00 0.34211425E+03</pdfrwt>
<pdfrwt beam="2">  1       -2 0.12401107E-01 0.34211425E+03</pdfrwt>
<totfact> 0.20865853E+02</totfact>
</mgrwt>
</event>
<event>
 4    1  0.5410820E-008  0.5628006E+03  0.7818608E-02  0.9985738E-01
          2   -1    0    0  501    0  0.00000000000E+00  0.00000000000E+00  0.12084474149E+04  0.12084474149E+04  0.25500000000E-02 0. -1.
         -2   -1    0    0    0  501 -0.00000000000E+00 -0.00000000000E+00 -0.48963854119E+03  0.48963854120E+03  0.25500000000E-02 0.  1.
    8880022    1    1    2    0    0 -0.47502390334E+02 -0.53953346057E+03  0.93818126357E+03  0.10940423065E+04  0.15294330000E+03 0.  0.
    8880022    1    1    2    0    0  0.47502390334E+02  0.53953346057E+03 -0.21937238984E+03  0.60404364959E+03  0.15294330000E+03 0.  0.
<mgrwt>
<rscale>  0 0.56280057E+03</rscale>
<asrwt>0</asrwt>
<pdfrwt beam="1">  1        2 0.18591498E+00 0.56280057E+03</pdfrwt>
<pdfrwt beam="2">  1       -2 0.75329007E-01 0.56280057E+03</pdfrwt>
<totfact> 0.30848677E+01</totfact>
</mgrwt>
</event>
<event>
 4    1  0.5410820E-008  0.6806635E+03  0.7818608E-02  0.9750884E-01
         -2   -1    0    0    0  501 -0.00000000000E+00  0.00000000000E+00  0.12404498205E+04  0.12404498205E+04  0.25500000000E-02 0.  1.
          2   -1    0    0  501    0  0.00000000000E+00 -0.00000000000E+00 -0.64308521117E+03  0.64308521118E+03  0.25500000000E-02 0. -1.
    8880022    1    1    2    0    0 -0.57193170141E+03  0.33586486678E+03 -0.31108046292E+03  0.74838077691E+03  0.15294330000E+03 0.  0.
    8880022    1    1    2    0    0  0.57193170141E+03 -0.33586486678E+03  0.90844507226E+03  0.11351542548E+04  0.15294330000E+03 0.  0.
<mgrwt>
<rscale>  0 0.68066345E+03</rscale>
<asrwt>0</asrwt>
<pdfrwt beam="1">  1        2 0.98936188E-01 0.68066345E+03</pdfrwt>
<pdfrwt beam="2">  1       -2 0.19083843E+00 0.68066345E+03</pdfrwt>
<totfact> 0.71660020E+00</totfact>
</mgrwt>
</event>
<event>
 4    1  0.5410820E-008  0.4162611E+03  0.7818608E-02  0.1038290E+00
         -2   -1    0    0    0  501 -0.00000000000E+00  0.00000000000E+00  0.12198429347E+04  0.12198429347E+04  0.25500000000E-02 0.  1.
          2   -1    0    0  501    0  0.00000000000E+00 -0.00000000000E+00 -0.44363325023E+03  0.44363325024E+03  0.25500000000E-02 0. -1.
    8880022    1    1    2    0    0  0.35836787410E+03 -0.14647213122E+03 -0.29766969211E+03  0.51174262772E+03  0.15294330000E+03 0.  0.
    8880022    1    1    2    0    0 -0.35836787410E+03  0.14647213122E+03  0.10738793766E+04  0.11517335573E+04  0.15294330000E+03 0.  0.
<mgrwt>
<rscale>  0 0.41626106E+03</rscale>
<asrwt>0</asrwt>
<pdfrwt beam="1">  1        2 0.68251269E-01 0.41626106E+03</pdfrwt>
<pdfrwt beam="2">  1       -2 0.18766814E+00 0.41626106E+03</pdfrwt>
<totfact> 0.12077103E+01</totfact>
</mgrwt>
</event>
<event>
 4    1  0.5410820E-008  0.2164290E+03  0.7818608E-02  0.1136574E+00
          2   -1    0    0  501    0  0.00000000000E+00  0.00000000000E+00  0.12149319568E+04  0.12149319568E+04  0.25500000000E-02 0. -1.
         -2   -1    0    0    0  501 -0.00000000000E+00 -0.00000000000E+00 -0.22386999754E+03  0.22386999756E+03  0.25500000000E-02 0.  1.
    8880022    1    1    2    0    0 -0.36251126796E+02 -0.14878075554E+03  0.11500594539E+04  0.11702470927E+04  0.15294330000E+03 0. -1.
    8880022    1    1    2    0    0  0.36251126796E+02  0.14878075554E+03 -0.15899749464E+03  0.26855486168E+03  0.15294330000E+03 0.  0.
<mgrwt>
<rscale>  0 0.21642900E+03</rscale>
<asrwt>0</asrwt>
<pdfrwt beam="1">  1        2 0.18691261E+00 0.21642900E+03</pdfrwt>
<pdfrwt beam="2">  1       -2 0.34441538E-01 0.21642900E+03</pdfrwt>
<totfact> 0.15866822E+02</totfact>
</mgrwt>
</event>
<event>
 4    1  0.5410820E-008  0.6249174E+03  0.7818608E-02  0.9855018E-01
         -2   -1    0    0    0  501 -0.00000000000E+00  0.00000000000E+00  0.58803798749E+03  0.58803798749E+03  0.25500000000E-02 0.  1.
          2   -1    0    0  501    0  0.00000000000E+00 -0.00000000000E+00 -0.96799272957E+03  0.96799272957E+03  0.25500000000E-02 0. -1.
    8880022    1    1    2    0    0  0.22137267722E+03  0.56402503160E+03 -0.62589589264E+03  0.88445882885E+03  0.15294330000E+03 0.  0.
    8880022    1    1    2    0    0 -0.22137267722E+03 -0.56402503160E+03  0.24594115055E+03  0.67157188822E+03  0.15294330000E+03 0.  0.
<mgrwt>
<rscale>  0 0.62491740E+03</rscale>
<asrwt>0</asrwt>
<pdfrwt beam="1">  1        2 0.14892196E+00 0.62491740E+03</pdfrwt>
<pdfrwt beam="2">  1       -2 0.90467383E-01 0.62491740E+03</pdfrwt>
<totfact> 0.28401638E+01</totfact>
</mgrwt>
</event>
<event>
 4    1  0.5410820E-008  0.7984394E+03  0.7818608E-02  0.9562279E-01
          2   -1    0    0  501    0  0.00000000000E+00  0.00000000000E+00  0.10017823265E+04  0.10017823265E+04  0.25500000000E-02 0. -1.
         -2   -1    0    0    0  501 -0.00000000000E+00 -0.00000000000E+00 -0.10604166585E+04  0.10604166585E+04  0.25500000000E-02 0.  1.
    8880022    1    1    2    0    0 -0.33279865602E+02  0.78294715206E+03 -0.68134854726E+03  0.10496386465E+04  0.15294330000E+03 0.  0.
    8880022    1    1    2    0    0  0.33279865602E+02 -0.78294715206E+03  0.62271421525E+03  0.10125603386E+04  0.15294330000E+03 0.  0.
<mgrwt>
<rscale>  0 0.79843938E+03</rscale>
<asrwt>0</asrwt>
<pdfrwt beam="1">  1        2 0.15412036E+00 0.79843938E+03</pdfrwt>
<pdfrwt beam="2">  1       -2 0.16314103E+00 0.79843938E+03</pdfrwt>
<totfact> 0.60801307E+00</totfact>
</mgrwt>
</event>
<event>
 4    1  0.5410820E-008  0.4353907E+03  0.7818608E-02  0.1032170E+00
         -2   -1    0    0    0  501 -0.00000000000E+00  0.00000000000E+00  0.10341383278E+04  0.10341383278E+04  0.25500000000E-02 0.  1.
          2   -1    0    0  501    0  0.00000000000E+00 -0.00000000000E+00 -0.87387675184E+03  0.87387675185E+03  0.25500000000E-02 0. -1.
    8880022    1    1    2    0    0 -0.15814819403E+03  0.37571607502E+03  0.92819825846E+03  0.10252400111E+04  0.15294330000E+03 0.  1.
    8880022    1    1    2    0    0  0.15814819403E+03 -0.37571607502E+03 -0.76793668251E+03  0.88277506856E+03  0.15294330000E+03 0.  0.
<mgrwt>
<rscale>  0 0.43539071E+03</rscale>
<asrwt>0</asrwt>
<pdfrwt beam="1">  1        2 0.13444258E+00 0.43539071E+03</pdfrwt>
<pdfrwt beam="2">  1       -2 0.15909820E+00 0.43539071E+03</pdfrwt>
<totfact> 0.83589781E+00</totfact>
</mgrwt>
</event>
<event>
 4    1  0.5410820E-008  0.1060492E+04  0.7818608E-02  0.9244579E-01
          2   -1    0    0  501    0  0.00000000000E+00  0.00000000000E+00  0.14159624629E+04  0.14159624629E+04  0.25500000000E-02 0. -1.
         -2   -1    0    0    0  501 -0.00000000000E+00 -0.00000000000E+00 -0.83319198845E+03  0.83319198845E+03  0.25500000000E-02 0.  1.
    8880022    1    1    2    0    0 -0.92890748371E+03 -0.48824340055E+03  0.48293676486E+02  0.10615906290E+04  0.15294330000E+03 0.  0.
    8880022    1    1    2    0    0  0.92890748371E+03  0.48824340055E+03  0.53447679798E+03  0.11875638223E+04  0.15294330000E+03 0.  0.
<mgrwt>
<rscale>  0 0.10604916E+04</rscale>
<asrwt>0</asrwt>
<pdfrwt beam="1">  1        2 0.21784038E+00 0.10604916E+04</pdfrwt>
<pdfrwt beam="2">  1       -2 0.12818338E+00 0.10604916E+04</pdfrwt>
<totfact> 0.62933237E+00</totfact>
</mgrwt>
</event>
<event>
 4    1  0.5410820E-008  0.1681534E+03  0.7818608E-02  0.1179787E+00
          2   -1    0    0  501    0  0.00000000000E+00  0.00000000000E+00  0.10957664787E+03  0.10957664790E+03  0.25500000000E-02 0. -1.
         -2   -1    0    0    0  501 -0.00000000000E+00 -0.00000000000E+00 -0.26517973594E+04  0.26517973594E+04  0.25500000000E-02 0.  1.
    8880022    1    1    2    0    0  0.62305387318E+02 -0.31653380973E+02 -0.25829018428E+04  0.25883696568E+04  0.15294330000E+03 0.  1.
    8880022    1    1    2    0    0 -0.62305387318E+02  0.31653380973E+02  0.40681131294E+02  0.17300435045E+03  0.15294330000E+03 0.  0.
<mgrwt>
<rscale>  0 0.16815336E+03</rscale>
<asrwt>0</asrwt>
<pdfrwt beam="1">  1        2 0.16857948E-01 0.16815336E+03</pdfrwt>
<pdfrwt beam="2">  1       -2 0.40796877E+00 0.16815336E+03</pdfrwt>
<totfact> 0.28761177E+00</totfact>
</mgrwt>
</event>
<event>
 4    1  0.5410820E-008  0.5239161E+03  0.7818608E-02  0.1007718E+00
          2   -1    0    0  501    0  0.00000000000E+00  0.00000000000E+00  0.55905814870E+03  0.55905814871E+03  0.25500000000E-02 0. -1.
         -2   -1    0    0    0  501 -0.00000000000E+00 -0.00000000000E+00 -0.97105697619E+03  0.97105697619E+03  0.25500000000E-02 0.  1.
    8880022    1    1    2    0    0 -0.42990361665E+03  0.25744770302E+03  0.33193063125E+03  0.62021450836E+03  0.15294330000E+03 0.  0.
    8880022    1    1    2    0    0  0.42990361665E+03 -0.25744770302E+03 -0.74392945873E+03  0.90990061654E+03  0.15294330000E+03 0.  0.
<mgrwt>
<rscale>  0 0.52391611E+03</rscale>
<asrwt>0</asrwt>
<pdfrwt beam="1">  1        2 0.86008946E-01 0.52391611E+03</pdfrwt>
<pdfrwt beam="2">  1       -2 0.14939338E+00 0.52391611E+03</pdfrwt>
<totfact> 0.17003190E+01</totfact>
</mgrwt>
</event>
<event>
 4    1  0.5410820E-008  0.7522619E+03  0.7818608E-02  0.9631808E-01
          2   -1    0    0  501    0  0.00000000000E+00  0.00000000000E+00  0.95262042871E+03  0.95262042871E+03  0.25500000000E-02 0. -1.
         -2   -1    0    0    0  501 -0.00000000000E+00 -0.00000000000E+00 -0.83795107499E+03  0.83795107499E+03  0.25500000000E-02 0.  1.
    8880022    1    1    2    0    0 -0.71923816070E+03  0.15875400682E+03 -0.42568513340E+03  0.86435285174E+03  0.15294330000E+03 0.  0.
    8880022    1    1    2    0    0  0.71923816070E+03 -0.15875400682E+03  0.54035448712E+03  0.92621865197E+03  0.15294330000E+03 0.  0.
<mgrwt>
<rscale>  0 0.75226194E+03</rscale>
<asrwt>0</asrwt>
<pdfrwt beam="1">  1        2 0.14655699E+00 0.75226194E+03</pdfrwt>
<pdfrwt beam="2">  1       -2 0.12891555E+00 0.75226194E+03</pdfrwt>
<totfact> 0.12193281E+01</totfact>
</mgrwt>
</event>
<event>
 4    1  0.5410820E-008  0.1077734E+04  0.7818608E-02  0.9227169E-01
          2   -1    0    0  501    0  0.00000000000E+00  0.00000000000E+00  0.69794122514E+03  0.69794122515E+03  0.25500000000E-02 0. -1.
         -2   -1    0    0    0  501 -0.00000000000E+00 -0.00000000000E+00 -0.27509711177E+04  0.27509711177E+04  0.25500000000E-02 0.  1.
    8880022    1    1    2    0    0 -0.80798866987E+03  0.69661590840E+03  0.57359476606E+02  0.10792595504E+04  0.15294330000E+03 0.  0.
    8880022    1    1    2    0    0  0.80798866987E+03 -0.69661590840E+03 -0.21103893691E+04  0.23696527925E+04  0.15294330000E+03 0.  0.
<mgrwt>
<rscale>  0 0.10777342E+04</rscale>
<asrwt>0</asrwt>
<pdfrwt beam="1">  1        2 0.10737557E+00 0.10777342E+04</pdfrwt>
<pdfrwt beam="2">  1       -2 0.42322632E+00 0.10777342E+04</pdfrwt>
<totfact> 0.21625955E-01</totfact>
</mgrwt>
</event>
<event>
 4    1  0.5457239E-008  0.5346407E+03  0.7818608E-02  0.1005113E+00
          2   -1    0    0  501    0  0.00000000000E+00  0.00000000000E+00  0.10035459291E+04  0.10035459291E+04  0.25500000000E-02 0. -1.
         -2   -1    0    0    0  501 -0.00000000000E+00 -0.00000000000E+00 -0.16285029272E+04  0.16285029272E+04  0.25500000000E-02 0.  1.
    8880022    1    1    2    0    0  0.43026173046E+03 -0.27807166780E+03 -0.15078870380E+04  0.15998637384E+04  0.15294330000E+03 0.  0.
    8880022    1    1    2    0    0 -0.43026173046E+03  0.27807166780E+03  0.88293003988E+03  0.10321851178E+04  0.15294330000E+03 0.  0.
<mgrwt>
<rscale>  0 0.53464069E+03</rscale>
<asrwt>0</asrwt>
<pdfrwt beam="1">  1        2 0.15439168E+00 0.53464069E+03</pdfrwt>
<pdfrwt beam="2">  1       -2 0.25053891E+00 0.53464069E+03</pdfrwt>
<totfact> 0.17268310E+00</totfact>
</mgrwt>
</event>
<event>
 4    1  0.5410820E-008  0.1627514E+03  0.7818608E-02  0.1185625E+00
          2   -1    0    0  501    0  0.00000000000E+00  0.00000000000E+00  0.78563684194E+03  0.78563684195E+03  0.25500000000E-02 0. -1.
         -2   -1    0    0    0  501 -0.00000000000E+00 -0.00000000000E+00 -0.10026246057E+04  0.10026246057E+04  0.25500000000E-02 0.  1.
    8880022    1    1    2    0    0  0.45687163508E+02 -0.31765605914E+02  0.77047477838E+03  0.78747660775E+03  0.15294330000E+03 0.  0.
    8880022    1    1    2    0    0 -0.45687163508E+02  0.31765605914E+02 -0.98746254211E+03  0.10007848399E+04  0.15294330000E+03 0.  1.
<mgrwt>
<rscale>  0 0.16275142E+03</rscale>
<asrwt>0</asrwt>
<pdfrwt beam="1">  1        2 0.12086721E+00 0.16275142E+03</pdfrwt>
<pdfrwt beam="2">  1       -2 0.15424994E+00 0.16275142E+03</pdfrwt>
<totfact> 0.11363364E+01</totfact>
</mgrwt>
</event>
<event>
 4    1  0.5410820E-008  0.2913634E+03  0.7818608E-02  0.1089639E+00
         -2   -1    0    0    0  501 -0.00000000000E+00  0.00000000000E+00  0.88142671804E+03  0.88142671805E+03  0.25500000000E-02 0.  1.
          2   -1    0    0  501    0  0.00000000000E+00 -0.00000000000E+00 -0.89536338341E+03  0.89536338341E+03  0.25500000000E-02 0. -1.
    8880022    1    1    2    0    0  0.14266767790E+03  0.20284696499E+03 -0.84622272341E+03  0.89497793725E+03  0.15294330000E+03 0.  0.
    8880022    1    1    2    0    0 -0.14266767790E+03 -0.20284696499E+03  0.83228605805E+03  0.88181216422E+03  0.15294330000E+03 0.  0.
<mgrwt>
<rscale>  0 0.29136337E+03</rscale>
<asrwt>0</asrwt>
<pdfrwt beam="1">  1        2 0.13774821E+00 0.29136337E+03</pdfrwt>
<pdfrwt beam="2">  1       -2 0.13560411E+00 0.29136337E+03</pdfrwt>
<totfact> 0.12686762E+01</totfact>
</mgrwt>
</event>
<event>
 4    1  0.5410820E-008  0.8351511E+03  0.7818608E-02  0.9510486E-01
          2   -1    0    0  501    0  0.00000000000E+00  0.00000000000E+00  0.16117378401E+04  0.16117378401E+04  0.25500000000E-02 0. -1.
         -2   -1    0    0    0  501 -0.00000000000E+00 -0.00000000000E+00 -0.46754698192E+03  0.46754698193E+03  0.25500000000E-02 0.  1.
    8880022    1    1    2    0    0  0.28716023471E+03  0.76917144637E+03  0.85572440676E+03  0.11957180385E+04  0.15294330000E+03 0.  0.
    8880022    1    1    2    0    0 -0.28716023471E+03 -0.76917144637E+03  0.28846645143E+03  0.88356678351E+03  0.15294330000E+03 0.  0.
<mgrwt>
<rscale>  0 0.83515110E+03</rscale>
<asrwt>0</asrwt>
<pdfrwt beam="1">  1        2 0.24795967E+00 0.83515110E+03</pdfrwt>
<pdfrwt beam="2">  1       -2 0.71930305E-01 0.83515110E+03</pdfrwt>
<totfact> 0.19538267E+01</totfact>
</mgrwt>
</event>
<event>
 4    1  0.5410820E-008  0.2191651E+03  0.7818608E-02  0.1134507E+00
          2   -1    0    0  501    0  0.00000000000E+00  0.00000000000E+00  0.34657358582E+04  0.34657358582E+04  0.25500000000E-02 0. -1.
         -2   -1    0    0    0  501 -0.00000000000E+00 -0.00000000000E+00 -0.43861839990E+02  0.43861840064E+02  0.25500000000E-02 0.  1.
    8880022    1    1    2    0    0  0.14586619923E+03  0.58006424216E+02  0.25962254584E+03  0.33976052250E+03  0.15294330000E+03 0.  1.
    8880022    1    1    2    0    0 -0.14586619923E+03 -0.58006424216E+02  0.31622514724E+04  0.31698371758E+04  0.15294330000E+03 0.  0.
<mgrwt>
<rscale>  0 0.21916511E+03</rscale>
<asrwt>0</asrwt>
<pdfrwt beam="1">  1        2 0.53319018E+00 0.21916511E+03</pdfrwt>
<pdfrwt beam="2">  1       -2 0.67479747E-02 0.21916511E+03</pdfrwt>
<totfact> 0.13484858E+02</totfact>
</mgrwt>
</event>
<event>
 4    1  0.5410820E-008  0.1636648E+04  0.7818608E-02  0.8798345E-01
         -2   -1    0    0    0  501 -0.00000000000E+00  0.00000000000E+00  0.21907728785E+04  0.21907728785E+04  0.25500000000E-02 0.  1.
          2   -1    0    0  501    0  0.00000000000E+00 -0.00000000000E+00 -0.15724795706E+04  0.15724795706E+04  0.25500000000E-02 0. -1.
    8880022    1    1    2    0    0  0.10869112432E+04 -0.12140212535E+04 -0.57831616866E+03  0.17358182216E+04  0.15294330000E+03 0.  0.
    8880022    1    1    2    0    0 -0.10869112432E+04  0.12140212535E+04  0.11966094765E+04  0.20274342275E+04  0.15294330000E+03 0.  0.
<mgrwt>
<rscale>  0 0.16366476E+04</rscale>
<asrwt>0</asrwt>
<pdfrwt beam="1">  1        2 0.24191994E+00 0.16366476E+04</pdfrwt>
<pdfrwt beam="2">  1       -2 0.33704198E+00 0.16366476E+04</pdfrwt>
<totfact> 0.20100635E-01</totfact>
</mgrwt>
</event>
<event>
 4    1  0.5410820E-008  0.3059997E+03  0.7818608E-02  0.1082279E+00
          2   -1    0    0  501    0  0.00000000000E+00  0.00000000000E+00  0.86832146408E+03  0.86832146408E+03  0.25500000000E-02 0. -1.
         -2   -1    0    0    0  501 -0.00000000000E+00 -0.00000000000E+00 -0.49293034925E+03  0.49293034926E+03  0.25500000000E-02 0.  1.
    8880022    1    1    2    0    0  0.11650133145E+03 -0.23805804699E+03  0.78928412224E+03  0.84652541167E+03  0.15294330000E+03 0.  0.
    8880022    1    1    2    0    0 -0.11650133145E+03  0.23805804699E+03 -0.41389300742E+03  0.51472640167E+03  0.15294330000E+03 0.  1.
<mgrwt>
<rscale>  0 0.30599975E+03</rscale>
<asrwt>0</asrwt>
<pdfrwt beam="1">  1        2 0.13358792E+00 0.30599975E+03</pdfrwt>
<pdfrwt beam="2">  1       -2 0.75835440E-01 0.30599975E+03</pdfrwt>
<totfact> 0.51457457E+01</totfact>
</mgrwt>
</event>
<event>
 4    1  0.5410820E-008  0.5706556E+03  0.7818608E-02  0.9968229E-01
         -2   -1    0    0    0  501 -0.00000000000E+00  0.00000000000E+00  0.63885402798E+03  0.63885402798E+03  0.25500000000E-02 0.  1.
          2   -1    0    0  501    0  0.00000000000E+00 -0.00000000000E+00 -0.92143520942E+03  0.92143520943E+03  0.25500000000E-02 0. -1.
    8880022    1    1    2    0    0 -0.47775776634E+03 -0.27203609654E+03  0.38018262610E+03  0.68570154099E+03  0.15294330000E+03 0.  0.
    8880022    1    1    2    0    0  0.47775776634E+03  0.27203609654E+03 -0.66276380754E+03  0.87458769642E+03  0.15294330000E+03 0.  0.
<mgrwt>
<rscale>  0 0.57065557E+03</rscale>
<asrwt>0</asrwt>
<pdfrwt beam="1">  1        2 0.14175926E+00 0.57065557E+03</pdfrwt>
<pdfrwt beam="2">  1       -2 0.98285235E-01 0.57065557E+03</pdfrwt>
<totfact> 0.25283765E+01</totfact>
</mgrwt>
</event>
<event>
 4    1  0.5410820E-008  0.3751570E+03  0.7818608E-02  0.1052738E+00
          2   -1    0    0  501    0  0.00000000000E+00  0.00000000000E+00  0.21947721861E+04  0.21947721861E+04  0.25500000000E-02 0. -1.
         -2   -1    0    0    0  501 -0.00000000000E+00 -0.00000000000E+00 -0.64893354262E+02  0.64893354312E+02  0.25500000000E-02 0.  1.
    8880022    1    1    2    0    0  0.33047360432E+03  0.90212815215E+02  0.11877689444E+04  0.12456074315E+04  0.15294330000E+03 0. -1.
    8880022    1    1    2    0    0 -0.33047360432E+03 -0.90212815215E+02  0.94210988748E+03  0.10140581089E+04  0.15294330000E+03 0.  1.
<mgrwt>
<rscale>  0 0.37515704E+03</rscale>
<asrwt>0</asrwt>
<pdfrwt beam="1">  1        2 0.33765720E+00 0.37515704E+03</pdfrwt>
<pdfrwt beam="2">  1       -2 0.99835947E-02 0.37515704E+03</pdfrwt>
<totfact> 0.38344360E+02</totfact>
</mgrwt>
</event>
<event>
 4    1  0.5410820E-008  0.6803200E+03  0.7818608E-02  0.9751492E-01
         -2   -1    0    0    0  501 -0.00000000000E+00  0.00000000000E+00  0.61858102749E+03  0.61858102750E+03  0.25500000000E-02 0.  1.
          2   -1    0    0  501    0  0.00000000000E+00 -0.00000000000E+00 -0.79995936956E+03  0.79995936956E+03  0.25500000000E-02 0. -1.
    8880022    1    1    2    0    0 -0.63080327020E+03 -0.20379144007E+03 -0.27106724500E+03  0.73233381806E+03  0.15294330000E+03 0.  0.
    8880022    1    1    2    0    0  0.63080327020E+03  0.20379144007E+03  0.89688902928E+02  0.68620657900E+03  0.15294330000E+03 0.  0.
<mgrwt>
<rscale>  0 0.68032005E+03</rscale>
<asrwt>0</asrwt>
<pdfrwt beam="1">  1        2 0.12307067E+00 0.68032005E+03</pdfrwt>
<pdfrwt beam="2">  1       -2 0.95166311E-01 0.68032005E+03</pdfrwt>
<totfact> 0.32633985E+01</totfact>
</mgrwt>
</event>
<event>
 4    1  0.5410820E-008  0.2584448E+03  0.7818608E-02  0.1108081E+00
          2   -1    0    0  501    0  0.00000000000E+00  0.00000000000E+00  0.24070605116E+04  0.24070605116E+04  0.25500000000E-02 0. -1.
         -2   -1    0    0    0  501 -0.00000000000E+00 -0.00000000000E+00 -0.24601308243E+03  0.24601308245E+03  0.25500000000E-02 0.  1.
    8880022    1    1    2    0    0 -0.20798835283E+03  0.11953720633E+02 -0.16896191012E+03  0.30877471794E+03  0.15294330000E+03 0.  0.
    8880022    1    1    2    0    0  0.20798835283E+03 -0.11953720633E+02  0.23300093393E+04  0.23442988761E+04  0.15294330000E+03 0.  0.
<mgrwt>
<rscale>  0 0.25844477E+03</rscale>
<asrwt>0</asrwt>
<pdfrwt beam="1">  1        2 0.37031699E+00 0.25844477E+03</pdfrwt>
<pdfrwt beam="2">  1       -2 0.37848168E-01 0.25844477E+03</pdfrwt>
<totfact> 0.30407347E+01</totfact>
</mgrwt>
</event>
<event>
 4    1  0.5410820E-008  0.4020830E+03  0.7818608E-02  0.1043061E+00
          2   -1    0    0  501    0  0.00000000000E+00  0.00000000000E+00  0.87739391940E+03  0.87739391940E+03  0.25500000000E-02 0. -1.
         -2   -1    0    0    0  501 -0.00000000000E+00 -0.00000000000E+00 -0.32839922779E+03  0.32839922780E+03  0.25500000000E-02 0.  1.
    8880022    1    1    2    0    0 -0.84719652747E+02  0.36207968130E+03 -0.12492203206E+03  0.42104190086E+03  0.15294330000E+03 0.  1.
    8880022    1    1    2    0    0  0.84719652747E+02 -0.36207968130E+03  0.67391672367E+03  0.78475124634E+03  0.15294330000E+03 0.  0.
<mgrwt>
<rscale>  0 0.40208304E+03</rscale>
<asrwt>0</asrwt>
<pdfrwt beam="1">  1        2 0.13498368E+00 0.40208304E+03</pdfrwt>
<pdfrwt beam="2">  1       -2 0.50522959E-01 0.40208304E+03</pdfrwt>
<totfact> 0.11746668E+02</totfact>
</mgrwt>
</event>
<event>
 4    1  0.5410820E-008  0.3620529E+03  0.7818608E-02  0.1057774E+00
          2   -1    0    0  501    0  0.00000000000E+00  0.00000000000E+00  0.68241104204E+03  0.68241104205E+03  0.25500000000E-02 0. -1.
         -2   -1    0    0    0  501 -0.00000000000E+00 -0.00000000000E+00 -0.28313004969E+03  0.28313004970E+03  0.25500000000E-02 0.  1.
    8880022    1    1    2    0    0 -0.22807590778E+03  0.23594916459E+03  0.47340126537E+03  0.59597905924E+03  0.15294330000E+03 0.  0.
    8880022    1    1    2    0    0  0.22807590778E+03 -0.23594916459E+03 -0.74120273017E+02  0.36956203250E+03  0.15294330000E+03 0.  0.
<mgrwt>
<rscale>  0 0.36205287E+03</rscale>
<asrwt>0</asrwt>
<pdfrwt beam="1">  1        2 0.10498631E+00 0.36205287E+03</pdfrwt>
<pdfrwt beam="2">  1       -2 0.43558469E-01 0.36205287E+03</pdfrwt>
<totfact> 0.21860230E+02</totfact>
</mgrwt>
</event>
<event>
 4    1  0.5410820E-008  0.4566408E+03  0.7818608E-02  0.1025760E+00
          2   -1    0    0  501    0  0.00000000000E+00  0.00000000000E+00  0.20956276368E+04  0.20956276368E+04  0.25500000000E-02 0. -1.
         -2   -1    0    0    0  501 -0.00000000000E+00 -0.00000000000E+00 -0.47246914760E+03  0.47246914761E+03  0.25500000000E-02 0.  1.
    8880022    1    1    2    0    0 -0.38383564744E+03 -0.19442051285E+03 -0.32927324617E+03  0.56297572214E+03  0.15294330000E+03 0.  0.
    8880022    1    1    2    0    0  0.38383564744E+03  0.19442051285E+03  0.19524317354E+04  0.20051210623E+04  0.15294330000E+03 0.  0.
<mgrwt>
<rscale>  0 0.45664077E+03</rscale>
<asrwt>0</asrwt>
<pdfrwt beam="1">  1        2 0.32240425E+00 0.45664077E+03</pdfrwt>
<pdfrwt beam="2">  1       -2 0.72687562E-01 0.45664077E+03</pdfrwt>
<totfact> 0.11118991E+01</totfact>
</mgrwt>
</event>
<event>
 4    1  0.5410820E-008  0.1335376E+04  0.7818608E-02  0.9001973E-01
          2   -1    0    0  501    0  0.00000000000E+00  0.00000000000E+00  0.14085433655E+04  0.14085433655E+04  0.25500000000E-02 0. -1.
         -2   -1    0    0    0  501 -0.00000000000E+00 -0.00000000000E+00 -0.14773873990E+04  0.14773873990E+04  0.25500000000E-02 0.  1.
    8880022    1    1    2    0    0 -0.40733013102E+03 -0.12625050775E+04 -0.58022893033E+03  0.14559856355E+04  0.15294330000E+03 0.  0.
    8880022    1    1    2    0    0  0.40733013102E+03  0.12625050775E+04  0.51138489684E+03  0.14299451290E+04  0.15294330000E+03 0.  0.
<mgrwt>
<rscale>  0 0.13353758E+04</rscale>
<asrwt>0</asrwt>
<pdfrwt beam="1">  1        2 0.21669898E+00 0.13353758E+04</pdfrwt>
<pdfrwt beam="2">  1       -2 0.22729037E+00 0.13353758E+04</pdfrwt>
<totfact> 0.12171595E+00</totfact>
</mgrwt>
</event>
<event>
 4    1  0.5410820E-008  0.9693982E+03  0.7818608E-02  0.9342760E-01
         -2   -1    0    0    0  501 -0.00000000000E+00  0.00000000000E+00  0.20732136339E+04  0.20732136339E+04  0.25500000000E-02 0.  1.
          2   -1    0    0  501    0  0.00000000000E+00 -0.00000000000E+00 -0.53318261478E+03  0.53318261479E+03  0.25500000000E-02 0. -1.
    8880022    1    1    2    0    0  0.25437742358E+02 -0.95691903787E+03  0.26550450165E+03  0.10050997051E+04  0.15294330000E+03 0.  0.
    8880022    1    1    2    0    0 -0.25437742358E+02  0.95691903787E+03  0.12745265175E+04  0.16012965436E+04  0.15294330000E+03 0.  0.
<mgrwt>
<rscale>  0 0.96939815E+03</rscale>
<asrwt>0</asrwt>
<pdfrwt beam="1">  1        2 0.82028094E-01 0.96939815E+03</pdfrwt>
<pdfrwt beam="2">  1       -2 0.31895595E+00 0.96939815E+03</pdfrwt>
<totfact> 0.14068098E+00</totfact>
</mgrwt>
</event>
<event>
 4    1  0.5410820E-008  0.6547225E+03  0.7818608E-02  0.9797958E-01
          2   -1    0    0  501    0  0.00000000000E+00  0.00000000000E+00  0.22915920264E+04  0.22915920264E+04  0.25500000000E-02 0. -1.
         -2   -1    0    0    0  501 -0.00000000000E+00 -0.00000000000E+00 -0.30476618444E+03  0.30476618445E+03  0.25500000000E-02 0.  1.
    8880022    1    1    2    0    0 -0.36195492275E+03  0.52369694844E+03  0.18663530808E+03  0.68080412098E+03  0.15294330000E+03 0.  1.
    8880022    1    1    2    0    0  0.36195492275E+03 -0.52369694844E+03  0.18001905339E+04  0.19155540899E+04  0.15294330000E+03 0.  0.
<mgrwt>
<rscale>  0 0.65472247E+03</rscale>
<asrwt>0</asrwt>
<pdfrwt beam="1">  1        2 0.35255262E+00 0.65472247E+03</pdfrwt>
<pdfrwt beam="2">  1       -2 0.46887105E-01 0.65472247E+03</pdfrwt>
<totfact> 0.20876553E+01</totfact>
</mgrwt>
</event>
<event>
 4    1  0.5410820E-008  0.4936548E+03  0.7818608E-02  0.1015448E+00
          2   -1    0    0  501    0  0.00000000000E+00  0.00000000000E+00  0.10877320089E+04  0.10877320089E+04  0.25500000000E-02 0. -1.
         -2   -1    0    0    0  501 -0.00000000000E+00 -0.00000000000E+00 -0.61502187436E+03  0.61502187436E+03  0.25500000000E-02 0.  1.
    8880022    1    1    2    0    0  0.97580341337E+02 -0.45910947015E+03  0.91517583047E+03  0.10398278138E+04  0.15294330000E+03 0.  0.
    8880022    1    1    2    0    0 -0.97580341337E+02  0.45910947015E+03 -0.44246569590E+03  0.66292606953E+03  0.15294330000E+03 0.  0.
<mgrwt>
<rscale>  0 0.49365482E+03</rscale>
<asrwt>0</asrwt>
<pdfrwt beam="1">  1        2 0.16734338E+00 0.49365482E+03</pdfrwt>
<pdfrwt beam="2">  1       -2 0.94618751E-01 0.49365482E+03</pdfrwt>
<totfact> 0.21948609E+01</totfact>
</mgrwt>
</event>
<event>
 4    1  0.5410820E-008  0.8800930E+03  0.7818608E-02  0.9450814E-01
         -2   -1    0    0    0  501 -0.00000000000E+00  0.00000000000E+00  0.24945316166E+04  0.24945316166E+04  0.25500000000E-02 0.  1.
          2   -1    0    0  501    0  0.00000000000E+00 -0.00000000000E+00 -0.51637261628E+03  0.51637261629E+03  0.25500000000E-02 0. -1.
    8880022    1    1    2    0    0 -0.78291631717E+02  0.86315842462E+03  0.19396399018E+04  0.21299686963E+04  0.15294330000E+03 0.  0.
    8880022    1    1    2    0    0  0.78291631717E+02 -0.86315842462E+03  0.38519098480E+02  0.88093553654E+03  0.15294330000E+03 0.  0.
<mgrwt>
<rscale>  0 0.88009301E+03</rscale>
<asrwt>0</asrwt>
<pdfrwt beam="1">  1        2 0.79441940E-01 0.88009301E+03</pdfrwt>
<pdfrwt beam="2">  1       -2 0.38377410E+00 0.88009301E+03</pdfrwt>
<totfact> 0.58220872E-01</totfact>
</mgrwt>
</event>
<event>
 4    1  0.5410820E-008  0.2739023E+03  0.7818608E-02  0.1099067E+00
          2   -1    0    0  501    0  0.00000000000E+00  0.00000000000E+00  0.17706825799E+04  0.17706825799E+04  0.25500000000E-02 0. -1.
         -2   -1    0    0    0  501 -0.00000000000E+00 -0.00000000000E+00 -0.51876333969E+02  0.51876334032E+02  0.25500000000E-02 0.  1.
    8880022    1    1    2    0    0  0.85394992034E+02 -0.21056707859E+03  0.46928948690E+03  0.54337378919E+03  0.15294330000E+03 0.  1.
    8880022    1    1    2    0    0 -0.85394992034E+02  0.21056707859E+03  0.12495167590E+04  0.12791851247E+04  0.15294330000E+03 0. -1.
<mgrwt>
<rscale>  0 0.27390227E+03</rscale>
<asrwt>0</asrwt>
<pdfrwt beam="1">  1        2 0.27241275E+00 0.27390227E+03</pdfrwt>
<pdfrwt beam="2">  1       -2 0.79809732E-02 0.27390227E+03</pdfrwt>
<totfact> 0.93126477E+02</totfact>
</mgrwt>
</event>
<event>
 4    1  0.5410820E-008  0.4248596E+03  0.7818608E-02  0.1035496E+00
         -2   -1    0    0    0  501 -0.00000000000E+00  0.00000000000E+00  0.16478955087E+04  0.16478955087E+04  0.25500000000E-02 0.  1.
          2   -1    0    0  501    0  0.00000000000E+00 -0.00000000000E+00 -0.27949261945E+04  0.27949261945E+04  0.25500000000E-02 0. -1.
    8880022    1    1    2    0    0  0.34305979272E+03 -0.19855487597E+03 -0.27509610080E+04  0.27835754311E+04  0.15294330000E+03 0.  0.
    8880022    1    1    2    0    0 -0.34305979272E+03  0.19855487597E+03  0.16039303222E+04  0.16592462721E+04  0.15294330000E+03 0.  0.
<mgrwt>
<rscale>  0 0.42485964E+03</rscale>
<asrwt>0</asrwt>
<pdfrwt beam="1">  1        2 0.42998864E+00 0.42485964E+03</pdfrwt>
<pdfrwt beam="2">  1       -2 0.25352239E+00 0.42485964E+03</pdfrwt>
<totfact> 0.17319466E-01</totfact>
</mgrwt>
</event>
<event>
 4    1  0.5410820E-008  0.7301094E+03  0.7818608E-02  0.9667083E-01
         -2   -1    0    0    0  501 -0.00000000000E+00  0.00000000000E+00  0.15401184617E+04  0.15401184617E+04  0.25500000000E-02 0.  1.
          2   -1    0    0  501    0  0.00000000000E+00 -0.00000000000E+00 -0.41375360019E+03  0.41375360019E+03  0.25500000000E-02 0. -1.
    8880022    1    1    2    0    0 -0.28769793376E+03 -0.65337434930E+03  0.16818978399E+03  0.74923133802E+03  0.15294330000E+03 0.  0.
    8880022    1    1    2    0    0  0.28769793376E+03  0.65337434930E+03  0.95817507749E+03  0.12046407238E+04  0.15294330000E+03 0.  0.
<mgrwt>
<rscale>  0 0.73010944E+03</rscale>
<asrwt>0</asrwt>
<pdfrwt beam="1">  1        2 0.63654402E-01 0.73010944E+03</pdfrwt>
<pdfrwt beam="2">  1       -2 0.23694130E+00 0.73010944E+03</pdfrwt>
<totfact> 0.60887043E+00</totfact>
</mgrwt>
</event>
<event>
 4    1  0.5410820E-008  0.6240467E+03  0.7818608E-02  0.9856736E-01
          2   -1    0    0  501    0  0.00000000000E+00  0.00000000000E+00  0.52011087650E+03  0.52011087650E+03  0.25500000000E-02 0. -1.
         -2   -1    0    0    0  501 -0.00000000000E+00 -0.00000000000E+00 -0.95539673858E+03  0.95539673858E+03  0.25500000000E-02 0.  1.
    8880022    1    1    2    0    0  0.45513299433E+03 -0.39861828658E+03  0.12546551191E+03  0.63653423209E+03  0.15294330000E+03 0.  0.
    8880022    1    1    2    0    0 -0.45513299433E+03  0.39861828658E+03 -0.56075137399E+03  0.83897338300E+03  0.15294330000E+03 0.  1.
<mgrwt>
<rscale>  0 0.62404666E+03</rscale>
<asrwt>0</asrwt>
<pdfrwt beam="1">  1        2 0.80017058E-01 0.62404666E+03</pdfrwt>
<pdfrwt beam="2">  1       -2 0.14698411E+00 0.62404666E+03</pdfrwt>
<totfact> 0.19077055E+01</totfact>
</mgrwt>
</event>
<event>
 4    1  0.5410820E-008  0.2587072E+03  0.7818608E-02  0.1107922E+00
         -2   -1    0    0    0  501 -0.00000000000E+00  0.00000000000E+00  0.30697660735E+03  0.30697660736E+03  0.25500000000E-02 0.  1.
          2   -1    0    0  501    0  0.00000000000E+00 -0.00000000000E+00 -0.10182070636E+04  0.10182070636E+04  0.25500000000E-02 0. -1.
    8880022    1    1    2    0    0 -0.11586923392E+03  0.17352831954E+03 -0.94299866381E+03  0.97784246687E+03  0.15294330000E+03 0.  0.
    8880022    1    1    2    0    0  0.11586923392E+03 -0.17352831954E+03  0.23176820752E+03  0.34734120412E+03  0.15294330000E+03 0.  1.
<mgrwt>
<rscale>  0 0.25870719E+03</rscale>
<asrwt>0</asrwt>
<pdfrwt beam="1">  1        2 0.15664724E+00 0.25870719E+03</pdfrwt>
<pdfrwt beam="2">  1       -2 0.47227171E-01 0.25870719E+03</pdfrwt>
<totfact> 0.11181194E+02</totfact>
</mgrwt>
</event>
<event>
 4    1  0.5410820E-008  0.5767301E+03  0.7818608E-02  0.9954895E-01
         -2   -1    0    0    0  501 -0.00000000000E+00  0.00000000000E+00  0.60217997049E+03  0.60217997049E+03  0.25500000000E-02 0.  1.
          2   -1    0    0  501    0  0.00000000000E+00 -0.00000000000E+00 -0.12239010572E+04  0.12239010572E+04  0.25500000000E-02 0. -1.
    8880022    1    1    2    0    0 -0.31510729218E+03 -0.45818484082E+03  0.36546304192E+03  0.68277437120E+03  0.15294330000E+03 0.  0.
    8880022    1    1    2    0    0  0.31510729218E+03  0.45818484082E+03 -0.98718412865E+03  0.11433066565E+04  0.15294330000E+03 0.  0.
<mgrwt>
<rscale>  0 0.57673010E+03</rscale>
<asrwt>0</asrwt>
<pdfrwt beam="1">  1        2 0.18829247E+00 0.57673010E+03</pdfrwt>
<pdfrwt beam="2">  1       -2 0.92643073E-01 0.57673010E+03</pdfrwt>
<totfact> 0.18889254E+01</totfact>
</mgrwt>
</event>
<event>
 4    1  0.5410820E-008  0.6302315E+03  0.7818608E-02  0.9844597E-01
          2   -1    0    0  501    0  0.00000000000E+00  0.00000000000E+00  0.18941871658E+04  0.18941871658E+04  0.25500000000E-02 0. -1.
         -2   -1    0    0    0  501 -0.00000000000E+00 -0.00000000000E+00 -0.53311181810E+03  0.53311181810E+03  0.25500000000E-02 0.  1.
    8880022    1    1    2    0    0  0.59250692134E+03 -0.15078349170E+03  0.16258360267E+04  0.17437128640E+04  0.15294330000E+03 0.  0.
    8880022    1    1    2    0    0 -0.59250692134E+03  0.15078349170E+03 -0.26476067900E+03  0.68358611994E+03  0.15294330000E+03 0.  0.
<mgrwt>
<rscale>  0 0.63023152E+03</rscale>
<asrwt>0</asrwt>
<pdfrwt beam="1">  1        2 0.29141342E+00 0.63023152E+03</pdfrwt>
<pdfrwt beam="2">  1       -2 0.82017201E-01 0.63023152E+03</pdfrwt>
<totfact> 0.10527049E+01</totfact>
</mgrwt>
</event>
<event>
 4    1  0.5410820E-008  0.4882163E+03  0.7818608E-02  0.1016901E+00
         -2   -1    0    0    0  501 -0.00000000000E+00  0.00000000000E+00  0.10438473496E+03  0.10438473499E+03  0.25500000000E-02 0.  1.
          2   -1    0    0  501    0  0.00000000000E+00 -0.00000000000E+00 -0.24640507302E+04  0.24640507302E+04  0.25500000000E-02 0. -1.
    8880022    1    1    2    0    0  0.13276388756E+03 -0.44422654390E+03 -0.15275283666E+04  0.16036514696E+04  0.15294330000E+03 0.  0.
    8880022    1    1    2    0    0 -0.13276388756E+03  0.44422654390E+03 -0.83213762869E+03  0.96478399564E+03  0.15294330000E+03 0.  0.
<mgrwt>
<rscale>  0 0.48821627E+03</rscale>
<asrwt>0</asrwt>
<pdfrwt beam="1">  1        2 0.37908468E+00 0.48821627E+03</pdfrwt>
<pdfrwt beam="2">  1       -2 0.16059192E-01 0.48821627E+03</pdfrwt>
<totfact> 0.12252252E+02</totfact>
</mgrwt>
</event>
<event>
 4    1  0.5410820E-008  0.2045037E+03  0.7818608E-02  0.1145994E+00
         -2   -1    0    0    0  501 -0.00000000000E+00  0.00000000000E+00  0.16656952890E+03  0.16656952892E+03  0.25500000000E-02 0.  1.
          2   -1    0    0  501    0  0.00000000000E+00 -0.00000000000E+00 -0.29996387728E+03  0.29996387729E+03  0.25500000000E-02 0. -1.
    8880022    1    1    2    0    0 -0.11923587651E+03 -0.64906825114E+02  0.27473425906E+02  0.20634081598E+03  0.15294330000E+03 0.  1.
    8880022    1    1    2    0    0  0.11923587651E+03  0.64906825114E+02 -0.16086777428E+03  0.26019259023E+03  0.15294330000E+03 0.  0.
<mgrwt>
<rscale>  0 0.20450365E+03</rscale>
<asrwt>0</asrwt>
<pdfrwt beam="1">  1        2 0.46148289E-01 0.20450365E+03</pdfrwt>
<pdfrwt beam="2">  1       -2 0.25626081E-01 0.20450365E+03</pdfrwt>
<totfact> 0.14773285E+03</totfact>
</mgrwt>
</event>
<event>
 4    1  0.5410820E-008  0.7697356E+03  0.7818608E-02  0.9604887E-01
         -2   -1    0    0    0  501 -0.00000000000E+00  0.00000000000E+00  0.35741516287E+03  0.35741516288E+03  0.25500000000E-02 0.  1.
          2   -1    0    0  501    0  0.00000000000E+00 -0.00000000000E+00 -0.18487616435E+04  0.18487616435E+04  0.25500000000E-02 0. -1.
    8880022    1    1    2    0    0 -0.66863678078E+03 -0.34932242977E+03 -0.11002726715E+04  0.13427929509E+04  0.15294330000E+03 0.  0.
    8880022    1    1    2    0    0  0.66863678078E+03  0.34932242977E+03 -0.39107380915E+03  0.86338385541E+03  0.15294330000E+03 0.  0.
<mgrwt>
<rscale>  0 0.76973564E+03</rscale>
<asrwt>0</asrwt>
<pdfrwt beam="1">  1        2 0.28442486E+00 0.76973564E+03</pdfrwt>
<pdfrwt beam="2">  1       -2 0.54986949E-01 0.76973564E+03</pdfrwt>
<totfact> 0.25911356E+01</totfact>
</mgrwt>
</event>
<event>
 4    1  0.5410820E-008  0.6752941E+03  0.7818608E-02  0.9760441E-01
          2   -1    0    0  501    0  0.00000000000E+00  0.00000000000E+00  0.39309851397E+04  0.39309851397E+04  0.25500000000E-02 0. -1.
         -2   -1    0    0    0  501 -0.00000000000E+00 -0.00000000000E+00 -0.14175816429E+03  0.14175816431E+03  0.25500000000E-02 0.  1.
    8880022    1    1    2    0    0 -0.41230564594E+03  0.51247875698E+03  0.10266912170E+04  0.12288681500E+04  0.15294330000E+03 0.  0.
    8880022    1    1    2    0    0  0.41230564594E+03 -0.51247875698E+03  0.27625357584E+04  0.28438751540E+04  0.15294330000E+03 0.  0.
<mgrwt>
<rscale>  0 0.67529407E+03</rscale>
<asrwt>0</asrwt>
<pdfrwt beam="1">  1        2 0.60476681E+00 0.67529407E+03</pdfrwt>
<pdfrwt beam="2">  1       -2 0.21808953E-01 0.67529407E+03</pdfrwt>
<totfact> 0.79502839E+00</totfact>
</mgrwt>
</event>
<event>
 4    1  0.5410820E-008  0.6039096E+03  0.7818608E-02  0.9897328E-01
          2   -1    0    0  501    0  0.00000000000E+00  0.00000000000E+00  0.21801435271E+04  0.21801435271E+04  0.25500000000E-02 0. -1.
         -2   -1    0    0    0  501 -0.00000000000E+00 -0.00000000000E+00 -0.17005522838E+03  0.17005522839E+03  0.25500000000E-02 0.  1.
    8880022    1    1    2    0    0 -0.51961159724E+03 -0.26705598494E+03  0.85508081119E+03  0.10468380762E+04  0.15294330000E+03 0.  0.
    8880022    1    1    2    0    0  0.51961159724E+03  0.26705598494E+03  0.11550074875E+04  0.13033606793E+04  0.15294330000E+03 0.  0.
<mgrwt>
<rscale>  0 0.60390957E+03</rscale>
<asrwt>0</asrwt>
<pdfrwt beam="1">  1        2 0.33540667E+00 0.60390957E+03</pdfrwt>
<pdfrwt beam="2">  1       -2 0.26162345E-01 0.60390957E+03</pdfrwt>
<totfact> 0.73510385E+01</totfact>
</mgrwt>
</event>
<event>
 4    1  0.5410820E-008  0.3864018E+03  0.7818608E-02  0.1048593E+00
         -2   -1    0    0    0  501 -0.00000000000E+00  0.00000000000E+00  0.21740766355E+03  0.21740766357E+03  0.25500000000E-02 0.  1.
          2   -1    0    0  501    0  0.00000000000E+00 -0.00000000000E+00 -0.46738793937E+04  0.46738793937E+04  0.25500000000E-02 0. -1.
    8880022    1    1    2    0    0  0.33659650191E+03  0.11232775911E+03 -0.44870690077E+04  0.45036756837E+04  0.15294330000E+03 0.  0.
    8880022    1    1    2    0    0 -0.33659650191E+03 -0.11232775911E+03  0.30597277539E+02  0.38761137364E+03  0.15294330000E+03 0.  0.
<mgrwt>
<rscale>  0 0.38640184E+03</rscale>
<asrwt>0</asrwt>
<pdfrwt beam="1">  1        2 0.71905829E+00 0.38640184E+03</pdfrwt>
<pdfrwt beam="2">  1       -2 0.33447336E-01 0.38640184E+03</pdfrwt>
<totfact> 0.90433787E-01</totfact>
</mgrwt>
</event>
<event>
 4    1  0.5410820E-008  0.5087847E+03  0.7818608E-02  0.1011511E+00
         -2   -1    0    0    0  501 -0.00000000000E+00  0.00000000000E+00  0.12806411187E+03  0.12806411189E+03  0.25500000000E-02 0.  1.
          2   -1    0    0  501    0  0.00000000000E+00 -0.00000000000E+00 -0.32869148123E+04  0.32869148123E+04  0.25500000000E-02 0. -1.
    8880022    1    1    2    0    0 -0.47152679127E+03  0.11459803529E+03 -0.26389393348E+04  0.26875384073E+04  0.15294330000E+03 0.  0.
    8880022    1    1    2    0    0  0.47152679127E+03 -0.11459803529E+03 -0.51991136562E+03  0.72744051695E+03  0.15294330000E+03 0.  0.
<mgrwt>
<rscale>  0 0.50878471E+03</rscale>
<asrwt>0</asrwt>
<pdfrwt beam="1">  1        2 0.50567914E+00 0.50878471E+03</pdfrwt>
<pdfrwt beam="2">  1       -2 0.19702174E-01 0.50878471E+03</pdfrwt>
<totfact> 0.27903611E+01</totfact>
</mgrwt>
</event>
<event>
 4    1  0.5410820E-008  0.6423122E+03  0.7818608E-02  0.9821313E-01
          2   -1    0    0  501    0  0.00000000000E+00  0.00000000000E+00  0.10674971599E+04  0.10674971599E+04  0.25500000000E-02 0. -1.
         -2   -1    0    0    0  501 -0.00000000000E+00 -0.00000000000E+00 -0.41172514195E+03  0.41172514196E+03  0.25500000000E-02 0.  1.
    8880022    1    1    2    0    0 -0.57254749449E+03 -0.24771479012E+03  0.14473895619E+03  0.65841800488E+03  0.15294330000E+03 0.  0.
    8880022    1    1    2    0    0  0.57254749449E+03  0.24771479012E+03  0.51103306173E+03  0.82080429695E+03  0.15294330000E+03 0.  0.
<mgrwt>
<rscale>  0 0.64231215E+03</rscale>
<asrwt>0</asrwt>
<pdfrwt beam="1">  1        2 0.16423033E+00 0.64231215E+03</pdfrwt>
<pdfrwt beam="2">  1       -2 0.63342330E-01 0.64231215E+03</pdfrwt>
<totfact> 0.54064955E+01</totfact>
</mgrwt>
</event>
<event>
 4    1  0.5410820E-008  0.7515282E+03  0.7818608E-02  0.9632956E-01
         -2   -1    0    0    0  501 -0.00000000000E+00  0.00000000000E+00  0.35308342141E+03  0.35308342142E+03  0.25500000000E-02 0.  1.
          2   -1    0    0  501    0  0.00000000000E+00 -0.00000000000E+00 -0.31739781543E+04  0.31739781543E+04  0.25500000000E-02 0. -1.
    8880022    1    1    2    0    0 -0.15818662009E+03  0.71859586974E+03 -0.16841002611E+03  0.77016661879E+03  0.15294330000E+03 0.  0.
    8880022    1    1    2    0    0  0.15818662009E+03 -0.71859586974E+03 -0.26524847068E+04  0.27568949570E+04  0.15294330000E+03 0.  0.
<mgrwt>
<rscale>  0 0.75152823E+03</rscale>
<asrwt>0</asrwt>
<pdfrwt beam="1">  1        2 0.48830431E+00 0.75152823E+03</pdfrwt>
<pdfrwt beam="2">  1       -2 0.54320528E-01 0.75152823E+03</pdfrwt>
<totfact> 0.46115748E+00</totfact>
</mgrwt>
</event>
<event>
 4    1  0.5410820E-008  0.5508163E+03  0.7818608E-02  0.1001305E+00
          2   -1    0    0  501    0  0.00000000000E+00  0.00000000000E+00  0.18644274164E+04  0.18644274164E+04  0.25500000000E-02 0. -1.
         -2   -1    0    0    0  501 -0.00000000000E+00 -0.00000000000E+00 -0.47771797275E+03  0.47771797276E+03  0.25500000000E-02 0.  1.
    8880022    1    1    2    0    0  0.52880952885E+03  0.19168073540E+02  0.16442768085E+04  0.17340832762E+04  0.15294330000E+03 0.  0.
    8880022    1    1    2    0    0 -0.52880952885E+03 -0.19168073540E+02 -0.25756736480E+03  0.60806211300E+03  0.15294330000E+03 0.  1.
<mgrwt>
<rscale>  0 0.55081629E+03</rscale>
<asrwt>0</asrwt>
<pdfrwt beam="1">  1        2 0.28683498E+00 0.55081629E+03</pdfrwt>
<pdfrwt beam="2">  1       -2 0.73495073E-01 0.55081629E+03</pdfrwt>
<totfact> 0.14153511E+01</totfact>
</mgrwt>
</event>
<event>
 4    1  0.5410820E-008  0.7519955E+03  0.7818608E-02  0.9632225E-01
         -2   -1    0    0    0  501 -0.00000000000E+00  0.00000000000E+00  0.27095627759E+03  0.27095627760E+03  0.25500000000E-02 0.  1.
          2   -1    0    0  501    0  0.00000000000E+00 -0.00000000000E+00 -0.23288456501E+04  0.23288456501E+04  0.25500000000E-02 0. -1.
    8880022    1    1    2    0    0 -0.79748193139E+02 -0.73194661049E+03 -0.61008275863E+03  0.96834820200E+03  0.15294330000E+03 0.  0.
    8880022    1    1    2    0    0  0.79748193139E+02  0.73194661049E+03 -0.14478066139E+04  0.16314537258E+04  0.15294330000E+03 0.  0.
<mgrwt>
<rscale>  0 0.75199552E+03</rscale>
<asrwt>0</asrwt>
<pdfrwt beam="1">  1        2 0.35828393E+00 0.75199552E+03</pdfrwt>
<pdfrwt beam="2">  1       -2 0.41685583E-01 0.75199552E+03</pdfrwt>
<totfact> 0.24763154E+01</totfact>
</mgrwt>
</event>
<event>
 4    1  0.5410820E-008  0.5241550E+03  0.7818608E-02  0.1007660E+00
          2   -1    0    0  501    0  0.00000000000E+00  0.00000000000E+00  0.31056384144E+04  0.31056384144E+04  0.25500000000E-02 0. -1.
         -2   -1    0    0    0  501 -0.00000000000E+00 -0.00000000000E+00 -0.12781393853E+03  0.12781393856E+03  0.25500000000E-02 0.  1.
    8880022    1    1    2    0    0 -0.40587720403E+03  0.29429655997E+03  0.23859633965E+04  0.24428589301E+04  0.15294330000E+03 0.  0.
    8880022    1    1    2    0    0  0.40587720403E+03 -0.29429655997E+03  0.59186107938E+03  0.79059342286E+03  0.15294330000E+03 0.  0.
<mgrwt>
<rscale>  0 0.52415496E+03</rscale>
<asrwt>0</asrwt>
<pdfrwt beam="1">  1        2 0.47779054E+00 0.52415496E+03</pdfrwt>
<pdfrwt beam="2">  1       -2 0.19663682E-01 0.52415496E+03</pdfrwt>
<totfact> 0.36279810E+01</totfact>
</mgrwt>
</event>
<event>
 4    1  0.5410820E-008  0.5402044E+03  0.7818608E-02  0.1003787E+00
         -2   -1    0    0    0  501 -0.00000000000E+00  0.00000000000E+00  0.48639282465E+03  0.48639282466E+03  0.25500000000E-02 0.  1.
          2   -1    0    0  501    0  0.00000000000E+00 -0.00000000000E+00 -0.92448282453E+03  0.92448282453E+03  0.25500000000E-02 0. -1.
    8880022    1    1    2    0    0  0.51386151357E+03  0.66147156844E+02  0.19890634818E+03  0.57566004712E+03  0.15294330000E+03 0.  1.
    8880022    1    1    2    0    0 -0.51386151357E+03 -0.66147156844E+02 -0.63699634806E+03  0.83521560207E+03  0.15294330000E+03 0.  0.
<mgrwt>
<rscale>  0 0.54020436E+03</rscale>
<asrwt>0</asrwt>
<pdfrwt beam="1">  1        2 0.14222813E+00 0.54020436E+03</pdfrwt>
<pdfrwt beam="2">  1       -2 0.74829665E-01 0.54020436E+03</pdfrwt>
<totfact> 0.46956887E+01</totfact>
</mgrwt>
</event>
<event>
 4    1  0.5410820E-008  0.8121190E+03  0.7818608E-02  0.9542639E-01
         -2   -1    0    0    0  501 -0.00000000000E+00  0.00000000000E+00  0.81783785770E+03  0.81783785770E+03  0.25500000000E-02 0.  1.
          2   -1    0    0  501    0  0.00000000000E+00 -0.00000000000E+00 -0.91823711883E+03  0.91823711883E+03  0.25500000000E-02 0. -1.
    8880022    1    1    2    0    0 -0.25103135498E+02 -0.79719222851E+03 -0.35308347513E+03  0.88555361782E+03  0.15294330000E+03 0.  0.
    8880022    1    1    2    0    0  0.25103135498E+02  0.79719222851E+03  0.25268421400E+03  0.85052135871E+03  0.15294330000E+03 0.  0.
<mgrwt>
<rscale>  0 0.81211900E+03</rscale>
<asrwt>0</asrwt>
<pdfrwt beam="1">  1        2 0.14126725E+00 0.81211900E+03</pdfrwt>
<pdfrwt beam="2">  1       -2 0.12582121E+00 0.81211900E+03</pdfrwt>
<totfact> 0.13571648E+01</totfact>
</mgrwt>
</event>
<event>
 4    1  0.5410820E-008  0.4999521E+03  0.7818608E-02  0.1013791E+00
          2   -1    0    0  501    0  0.00000000000E+00  0.00000000000E+00  0.23361749619E+04  0.23361749619E+04  0.25500000000E-02 0. -1.
         -2   -1    0    0    0  501 -0.00000000000E+00 -0.00000000000E+00 -0.56317773915E+03  0.56317773916E+03  0.25500000000E-02 0.  1.
    8880022    1    1    2    0    0  0.26030895388E+02 -0.47527132097E+03 -0.41822690116E+03  0.65181732864E+03  0.15294330000E+03 0.  0.
    8880022    1    1    2    0    0 -0.26030895388E+02  0.47527132097E+03  0.21912241239E+04  0.22475353724E+04  0.15294330000E+03 0.  0.
<mgrwt>
<rscale>  0 0.49995209E+03</rscale>
<asrwt>0</asrwt>
<pdfrwt beam="1">  1        2 0.35941152E+00 0.49995209E+03</pdfrwt>
<pdfrwt beam="2">  1       -2 0.86642731E-01 0.49995209E+03</pdfrwt>
<totfact> 0.54979768E+00</totfact>
</mgrwt>
</event>
<event>
 4    1  0.5410820E-008  0.5618585E+03  0.7818608E-02  0.9987858E-01
         -2   -1    0    0    0  501 -0.00000000000E+00  0.00000000000E+00  0.91568924487E+03  0.91568924488E+03  0.25500000000E-02 0.  1.
          2   -1    0    0  501    0  0.00000000000E+00 -0.00000000000E+00 -0.13435743071E+04  0.13435743071E+04  0.25500000000E-02 0. -1.
    8880022    1    1    2    0    0 -0.48562616091E+03 -0.23761419446E+03  0.76003817754E+03  0.94516821672E+03  0.15294330000E+03 0.  0.
    8880022    1    1    2    0    0  0.48562616091E+03  0.23761419446E+03 -0.11879232398E+04  0.13140953353E+04  0.15294330000E+03 0.  0.
<mgrwt>
<rscale>  0 0.56185846E+03</rscale>
<asrwt>0</asrwt>
<pdfrwt beam="1">  1        2 0.20670374E+00 0.56185846E+03</pdfrwt>
<pdfrwt beam="2">  1       -2 0.14087527E+00 0.56185846E+03</pdfrwt>
<totfact> 0.58170957E+00</totfact>
</mgrwt>
</event>
<event>
 4    1  0.5410820E-008  0.8220904E+03  0.7818608E-02  0.9528581E-01
         -2   -1    0    0    0  501 -0.00000000000E+00  0.00000000000E+00  0.65472385240E+03  0.65472385241E+03  0.25500000000E-02 0.  1.
          2   -1    0    0  501    0  0.00000000000E+00 -0.00000000000E+00 -0.13453185453E+04  0.13453185453E+04  0.25500000000E-02 0. -1.
    8880022    1    1    2    0    0  0.13174002487E+03 -0.79692252092E+03 -0.82771459479E+03  0.11665950634E+04  0.15294330000E+03 0.  0.
    8880022    1    1    2    0    0 -0.13174002487E+03  0.79692252092E+03  0.13711990192E+03  0.83344733428E+03  0.15294330000E+03 0.  0.
<mgrwt>
<rscale>  0 0.82209038E+03</rscale>
<asrwt>0</asrwt>
<pdfrwt beam="1">  1        2 0.20697208E+00 0.82209038E+03</pdfrwt>
<pdfrwt beam="2">  1       -2 0.10072675E+00 0.82209038E+03</pdfrwt>
<totfact> 0.12795949E+01</totfact>
</mgrwt>
</event>
<event>
 4    1  0.5410820E-008  0.5666850E+03  0.7818608E-02  0.9977041E-01
         -2   -1    0    0    0  501 -0.00000000000E+00  0.00000000000E+00  0.57633028613E+03  0.57633028613E+03  0.25500000000E-02 0.  1.
          2   -1    0    0  501    0  0.00000000000E+00 -0.00000000000E+00 -0.57183100045E+03  0.57183100045E+03  0.25500000000E-02 0. -1.
    8880022    1    1    2    0    0  0.54049841952E+03 -0.74844712808E+02 -0.89574798530E+02  0.57372081197E+03  0.15294330000E+03 0.  0.
    8880022    1    1    2    0    0 -0.54049841952E+03  0.74844712808E+02  0.94074084209E+02  0.57444047461E+03  0.15294330000E+03 0.  0.
<mgrwt>
<rscale>  0 0.56668503E+03</rscale>
<asrwt>0</asrwt>
<pdfrwt beam="1">  1        2 0.87974000E-01 0.56668503E+03</pdfrwt>
<pdfrwt beam="2">  1       -2 0.88666198E-01 0.56668503E+03</pdfrwt>
<totfact> 0.58992558E+01</totfact>
</mgrwt>
</event>
<event>
 4    1  0.5410820E-008  0.2426823E+03  0.7818608E-02  0.1118019E+00
         -2   -1    0    0    0  501 -0.00000000000E+00  0.00000000000E+00  0.83479221277E+03  0.83479221277E+03  0.25500000000E-02 0.  1.
          2   -1    0    0  501    0  0.00000000000E+00 -0.00000000000E+00 -0.11934047274E+03  0.11934047276E+03  0.25500000000E-02 0. -1.
    8880022    1    1    2    0    0  0.95196387140E+02 -0.16260592433E+03  0.52689323916E+02  0.24833617663E+03  0.15294330000E+03 0.  0.
    8880022    1    1    2    0    0 -0.95196387140E+02  0.16260592433E+03  0.66276241611E+03  0.70579650890E+03  0.15294330000E+03 0.  0.
<mgrwt>
<rscale>  0 0.24268229E+03</rscale>
<asrwt>0</asrwt>
<pdfrwt beam="1">  1        2 0.18360072E-01 0.24268229E+03</pdfrwt>
<pdfrwt beam="2">  1       -2 0.12842957E+00 0.24268229E+03</pdfrwt>
<totfact> 0.14487978E+02</totfact>
</mgrwt>
</event>
<event>
 4    1  0.5410820E-008  0.3955614E+03  0.7818608E-02  0.1045328E+00
         -2   -1    0    0    0  501 -0.00000000000E+00  0.00000000000E+00  0.11452660797E+03  0.11452660800E+03  0.25500000000E-02 0.  1.
          2   -1    0    0  501    0  0.00000000000E+00 -0.00000000000E+00 -0.17015522280E+04  0.17015522280E+04  0.25500000000E-02 0. -1.
    8880022    1    1    2    0    0  0.36398520188E+03  0.24329035975E+02 -0.39040765618E+03  0.55577596224E+03  0.15294330000E+03 0.  0.
    8880022    1    1    2    0    0 -0.36398520188E+03 -0.24329035975E+02 -0.11966179638E+04  0.12603028737E+04  0.15294330000E+03 0.  0.
<mgrwt>
<rscale>  0 0.39556135E+03</rscale>
<asrwt>0</asrwt>
<pdfrwt beam="1">  1        2 0.26177725E+00 0.39556135E+03</pdfrwt>
<pdfrwt beam="2">  1       -2 0.17619479E-01 0.39556135E+03</pdfrwt>
<totfact> 0.27442468E+02</totfact>
</mgrwt>
</event>
<event>
 4    1  0.5410820E-008  0.1434800E+04  0.7818608E-02  0.8929007E-01
          2   -1    0    0  501    0  0.00000000000E+00  0.00000000000E+00  0.35897199296E+04  0.35897199296E+04  0.25500000000E-02 0. -1.
         -2   -1    0    0    0  501 -0.00000000000E+00 -0.00000000000E+00 -0.12138618269E+04  0.12138618269E+04  0.25500000000E-02 0.  1.
    8880022    1    1    2    0    0 -0.53348427920E+03  0.13231223263E+04 -0.55656075247E+03  0.15389638367E+04  0.15294330000E+03 0.  0.
    8880022    1    1    2    0    0  0.53348427920E+03 -0.13231223263E+04  0.29324188552E+04  0.32646179197E+04  0.15294330000E+03 0.  0.
<mgrwt>
<rscale>  0 0.14347996E+04</rscale>
<asrwt>0</asrwt>
<pdfrwt beam="1">  1        2 0.55226460E+00 0.14347996E+04</pdfrwt>
<pdfrwt beam="2">  1       -2 0.18674797E+00 0.14347996E+04</pdfrwt>
<totfact> 0.10978352E-01</totfact>
</mgrwt>
</event>
<event>
 4    1  0.5410820E-008  0.6164037E+03  0.7818608E-02  0.9871946E-01
         -2   -1    0    0    0  501 -0.00000000000E+00  0.00000000000E+00  0.13592351081E+04  0.13592351081E+04  0.25500000000E-02 0.  1.
          2   -1    0    0  501    0  0.00000000000E+00 -0.00000000000E+00 -0.42655652034E+03  0.42655652035E+03  0.25500000000E-02 0. -1.
    8880022    1    1    2    0    0 -0.11525221670E+03  0.58589996591E+03 -0.57868246623E+02  0.61911406905E+03  0.15294330000E+03 0.  0.
    8880022    1    1    2    0    0  0.11525221670E+03 -0.58589996591E+03  0.99054683441E+03  0.11666775594E+04  0.15294330000E+03 0.  0.
<mgrwt>
<rscale>  0 0.61640368E+03</rscale>
<asrwt>0</asrwt>
<pdfrwt beam="1">  1        2 0.65624082E-01 0.61640368E+03</pdfrwt>
<pdfrwt beam="2">  1       -2 0.20911309E+00 0.61640368E+03</pdfrwt>
<totfact> 0.88921995E+00</totfact>
</mgrwt>
</event>
<event>
 4    1  0.5410820E-008  0.6882738E+03  0.7818608E-02  0.9737498E-01
         -2   -1    0    0    0  501 -0.00000000000E+00  0.00000000000E+00  0.20546920778E+03  0.20546920780E+03  0.25500000000E-02 0.  1.
          2   -1    0    0  501    0  0.00000000000E+00 -0.00000000000E+00 -0.24257850454E+04  0.24257850454E+04  0.25500000000E-02 0. -1.
    8880022    1    1    2    0    0  0.18564470217E+03 -0.64487611020E+03 -0.14030522729E+04  0.15627784509E+04  0.15294330000E+03 0.  0.
    8880022    1    1    2    0    0 -0.18564470217E+03  0.64487611020E+03 -0.81726356467E+03  0.10684758023E+04  0.15294330000E+03 0.  0.
<mgrwt>
<rscale>  0 0.68827379E+03</rscale>
<asrwt>0</asrwt>
<pdfrwt beam="1">  1        2 0.37319768E+00 0.68827379E+03</pdfrwt>
<pdfrwt beam="2">  1       -2 0.31610649E-01 0.68827379E+03</pdfrwt>
<totfact> 0.37489334E+01</totfact>
</mgrwt>
</event>
<event>
 4    1  0.5410820E-008  0.4481255E+03  0.7818608E-02  0.1028283E+00
         -2   -1    0    0    0  501 -0.00000000000E+00  0.00000000000E+00  0.68646064178E+03  0.68646064178E+03  0.25500000000E-02 0.  1.
          2   -1    0    0  501    0  0.00000000000E+00 -0.00000000000E+00 -0.65353091345E+03  0.65353091346E+03  0.25500000000E-02 0. -1.
    8880022    1    1    2    0    0  0.42106754569E+03 -0.11265961056E+02  0.51441721205E+03  0.68223274693E+03  0.15294330000E+03 0.  0.
    8880022    1    1    2    0    0 -0.42106754569E+03  0.11265961056E+02 -0.48148748372E+03  0.65775880831E+03  0.15294330000E+03 0.  0.
<mgrwt>
<rscale>  0 0.44812549E+03</rscale>
<asrwt>0</asrwt>
<pdfrwt beam="1">  1        2 0.10054322E+00 0.44812549E+03</pdfrwt>
<pdfrwt beam="2">  1       -2 0.10560933E+00 0.44812549E+03</pdfrwt>
<totfact> 0.33843468E+01</totfact>
</mgrwt>
</event>
<event>
 4    1  0.5410820E-008  0.7016206E+03  0.7818608E-02  0.9714465E-01
         -2   -1    0    0    0  501 -0.00000000000E+00  0.00000000000E+00  0.28123688140E+03  0.28123688141E+03  0.25500000000E-02 0.  1.
          2   -1    0    0  501    0  0.00000000000E+00 -0.00000000000E+00 -0.21718149579E+04  0.21718149579E+04  0.25500000000E-02 0. -1.
    8880022    1    1    2    0    0 -0.23726598231E+03  0.64232748743E+03 -0.14855836310E+04  0.16429333903E+04  0.15294330000E+03 0.  0.
    8880022    1    1    2    0    0  0.23726598231E+03 -0.64232748743E+03 -0.40499444555E+03  0.81011844900E+03  0.15294330000E+03 0.  0.
<mgrwt>
<rscale>  0 0.70162055E+03</rscale>
<asrwt>0</asrwt>
<pdfrwt beam="1">  1        2 0.33412537E+00 0.70162055E+03</pdfrwt>
<pdfrwt beam="2">  1       -2 0.43267214E-01 0.70162055E+03</pdfrwt>
<totfact> 0.28307000E+01</totfact>
</mgrwt>
</event>
<event>
 4    1  0.5410820E-008  0.5089825E+03  0.7818608E-02  0.1011461E+00
         -2   -1    0    0    0  501 -0.00000000000E+00  0.00000000000E+00  0.32530627559E+03  0.32530627560E+03  0.25500000000E-02 0.  1.
          2   -1    0    0  501    0  0.00000000000E+00 -0.00000000000E+00 -0.10611628093E+04  0.10611628093E+04  0.25500000000E-02 0. -1.
    8880022    1    1    2    0    0  0.47559993461E+03 -0.97346057123E+02 -0.71422203840E+03  0.87702698122E+03  0.15294330000E+03 0.  0.
    8880022    1    1    2    0    0 -0.47559993461E+03  0.97346057123E+02 -0.21634495347E+02  0.50944210372E+03  0.15294330000E+03 0.  0.
<mgrwt>
<rscale>  0 0.50898252E+03</rscale>
<asrwt>0</asrwt>
<pdfrwt beam="1">  1        2 0.16325581E+00 0.50898252E+03</pdfrwt>
<pdfrwt beam="2">  1       -2 0.50047120E-01 0.50898252E+03</pdfrwt>
<totfact> 0.90275852E+01</totfact>
</mgrwt>
</event>
<event>
 4    1  0.5410820E-008  0.3789316E+03  0.7818608E-02  0.1051329E+00
          2   -1    0    0  501    0  0.00000000000E+00  0.00000000000E+00  0.12256119073E+04  0.12256119073E+04  0.25500000000E-02 0. -1.
         -2   -1    0    0    0  501 -0.00000000000E+00 -0.00000000000E+00 -0.29461944911E+03  0.29461944912E+03  0.25500000000E-02 0.  1.
    8880022    1    1    2    0    0  0.27523631066E+03 -0.21081389376E+03 -0.12443590913E+03  0.39884015972E+03  0.15294330000E+03 0.  0.
    8880022    1    1    2    0    0 -0.27523631066E+03  0.21081389376E+03  0.10554283674E+04  0.11213911967E+04  0.15294330000E+03 0.  0.
<mgrwt>
<rscale>  0 0.37893163E+03</rscale>
<asrwt>0</asrwt>
<pdfrwt beam="1">  1        2 0.18855568E+00 0.37893163E+03</pdfrwt>
<pdfrwt beam="2">  1       -2 0.45326069E-01 0.37893163E+03</pdfrwt>
<totfact> 0.89543388E+01</totfact>
</mgrwt>
</event>
<event>
 4    1  0.5410820E-008  0.5056765E+03  0.7818608E-02  0.1012308E+00
         -2   -1    0    0    0  501 -0.00000000000E+00  0.00000000000E+00  0.77022623737E+03  0.77022623737E+03  0.25500000000E-02 0.  1.
          2   -1    0    0  501    0  0.00000000000E+00 -0.00000000000E+00 -0.81663890998E+03  0.81663890999E+03  0.25500000000E-02 0. -1.
    8880022    1    1    2    0    0 -0.68916629010E+02  0.47704037638E+03 -0.63444085840E+03  0.81130997669E+03  0.15294330000E+03 0.  0.
    8880022    1    1    2    0    0  0.68916629010E+02 -0.47704037638E+03  0.58802818579E+03  0.77555517067E+03  0.15294330000E+03 0.  0.
<mgrwt>
<rscale>  0 0.50567645E+03</rscale>
<asrwt>0</asrwt>
<pdfrwt beam="1">  1        2 0.12563676E+00 0.50567645E+03</pdfrwt>
<pdfrwt beam="2">  1       -2 0.11849634E+00 0.50567645E+03</pdfrwt>
<totfact> 0.19188072E+01</totfact>
</mgrwt>
</event>
<event>
 4    1  0.5410820E-008  0.2868271E+03  0.7818608E-02  0.1092017E+00
          2   -1    0    0  501    0  0.00000000000E+00  0.00000000000E+00  0.39119931621E+04  0.39119931621E+04  0.25500000000E-02 0. -1.
         -2   -1    0    0    0  501 -0.00000000000E+00 -0.00000000000E+00 -0.82526029471E+03  0.82526029472E+03  0.25500000000E-02 0.  1.
    8880022    1    1    2    0    0  0.68831218690E+02 -0.23268093452E+03  0.38816184844E+04  0.38922014163E+04  0.15294330000E+03 0. -1.
    8880022    1    1    2    0    0 -0.68831218690E+02  0.23268093452E+03 -0.79488561701E+03  0.84505204047E+03  0.15294330000E+03 0.  0.
<mgrwt>
<rscale>  0 0.28682714E+03</rscale>
<asrwt>0</asrwt>
<pdfrwt beam="1">  1        2 0.60184510E+00 0.28682714E+03</pdfrwt>
<pdfrwt beam="2">  1       -2 0.12696312E+00 0.28682714E+03</pdfrwt>
<totfact> 0.25392838E-01</totfact>
</mgrwt>
</event>
<event>
 4    1  0.5410820E-008  0.1745712E+03  0.7818608E-02  0.1173163E+00
         -2   -1    0    0    0  501 -0.00000000000E+00  0.00000000000E+00  0.36044497480E+03  0.36044497481E+03  0.25500000000E-02 0.  1.
          2   -1    0    0  501    0  0.00000000000E+00 -0.00000000000E+00 -0.51479769558E+03  0.51479769559E+03  0.25500000000E-02 0. -1.
    8880022    1    1    2    0    0  0.31465723867E+02 -0.78059860297E+02 -0.47725025759E+03  0.50817604721E+03  0.15294330000E+03 0.  0.
    8880022    1    1    2    0    0 -0.31465723867E+02  0.78059860297E+02  0.32289753681E+03  0.36706662320E+03  0.15294330000E+03 0.  1.
<mgrwt>
<rscale>  0 0.17457115E+03</rscale>
<asrwt>0</asrwt>
<pdfrwt beam="1">  1        2 0.79199646E-01 0.17457115E+03</pdfrwt>
<pdfrwt beam="2">  1       -2 0.55453073E-01 0.17457115E+03</pdfrwt>
<totfact> 0.19130755E+02</totfact>
</mgrwt>
</event>
<event>
 4    1  0.5410820E-008  0.7534171E+03  0.7818608E-02  0.9630005E-01
          2   -1    0    0  501    0  0.00000000000E+00  0.00000000000E+00  0.10892264570E+04  0.10892264570E+04  0.25500000000E-02 0. -1.
         -2   -1    0    0    0  501 -0.00000000000E+00 -0.00000000000E+00 -0.10760033096E+04  0.10760033096E+04  0.25500000000E-02 0.  1.
    8880022    1    1    2    0    0  0.13602713479E+03 -0.72508093661E+03  0.78404093713E+03  0.10873626764E+04  0.15294330000E+03 0.  0.
    8880022    1    1    2    0    0 -0.13602713479E+03  0.72508093661E+03 -0.77081778970E+03  0.10778670901E+04  0.15294330000E+03 0.  0.
<mgrwt>
<rscale>  0 0.75341715E+03</rscale>
<asrwt>0</asrwt>
<pdfrwt beam="1">  1        2 0.16757330E+00 0.75341715E+03</pdfrwt>
<pdfrwt beam="2">  1       -2 0.16553897E+00 0.75341715E+03</pdfrwt>
<totfact> 0.51801697E+00</totfact>
</mgrwt>
</event>
<event>
 4    1  0.5410820E-008  0.5167819E+03  0.7818608E-02  0.1009489E+00
          2   -1    0    0  501    0  0.00000000000E+00  0.00000000000E+00  0.16943989837E+04  0.16943989837E+04  0.25500000000E-02 0. -1.
         -2   -1    0    0    0  501 -0.00000000000E+00 -0.00000000000E+00 -0.22514451041E+03  0.22514451042E+03  0.25500000000E-02 0.  1.
    8880022    1    1    2    0    0  0.11880173903E+03  0.47912218306E+03  0.20899448595E+03  0.55744261379E+03  0.15294330000E+03 0.  0.
    8880022    1    1    2    0    0 -0.11880173903E+03 -0.47912218306E+03  0.12602599873E+04  0.13621008803E+04  0.15294330000E+03 0.  0.
<mgrwt>
<rscale>  0 0.51678194E+03</rscale>
<asrwt>0</asrwt>
<pdfrwt beam="1">  1        2 0.26067677E+00 0.51678194E+03</pdfrwt>
<pdfrwt beam="2">  1       -2 0.34637617E-01 0.51678194E+03</pdfrwt>
<totfact> 0.81173627E+01</totfact>
</mgrwt>
</event>
<event>
 4    1  0.5410820E-008  0.5757850E+03  0.7818608E-02  0.9956958E-01
          2   -1    0    0  501    0  0.00000000000E+00  0.00000000000E+00  0.10863355165E+04  0.10863355165E+04  0.25500000000E-02 0. -1.
         -2   -1    0    0    0  501 -0.00000000000E+00 -0.00000000000E+00 -0.56911251438E+03  0.56911251438E+03  0.25500000000E-02 0.  1.
    8880022    1    1    2    0    0 -0.12283190243E+03 -0.54134001099E+03 -0.30506844520E+03  0.65160961704E+03  0.15294330000E+03 0.  0.
    8880022    1    1    2    0    0  0.12283190243E+03  0.54134001099E+03  0.82229144733E+03  0.10038384138E+04  0.15294330000E+03 0.  0.
<mgrwt>
<rscale>  0 0.57578497E+03</rscale>
<asrwt>0</asrwt>
<pdfrwt beam="1">  1        2 0.16712854E+00 0.57578497E+03</pdfrwt>
<pdfrwt beam="2">  1       -2 0.87555772E-01 0.57578497E+03</pdfrwt>
<totfact> 0.25973553E+01</totfact>
</mgrwt>
</event>
<event>
 4    1  0.5410820E-008  0.1261094E+04  0.7818608E-02  0.9061000E-01
         -2   -1    0    0    0  501 -0.00000000000E+00  0.00000000000E+00  0.10567376553E+04  0.10567376553E+04  0.25500000000E-02 0.  1.
          2   -1    0    0  501    0  0.00000000000E+00 -0.00000000000E+00 -0.17740341829E+04  0.17740341829E+04  0.25500000000E-02 0. -1.
    8880022    1    1    2    0    0  0.37542232947E+03 -0.11941628475E+04 -0.90986425912E+03  0.15550599522E+04  0.15294330000E+03 0.  0.
    8880022    1    1    2    0    0 -0.37542232947E+03  0.11941628475E+04  0.19256773150E+03  0.12757118860E+04  0.15294330000E+03 0.  0.
<mgrwt>
<rscale>  0 0.12610942E+04</rscale>
<asrwt>0</asrwt>
<pdfrwt beam="1">  1        2 0.27292834E+00 0.12610942E+04</pdfrwt>
<pdfrwt beam="2">  1       -2 0.16257502E+00 0.12610942E+04</pdfrwt>
<totfact> 0.20760822E+00</totfact>
</mgrwt>
</event>
<event>
 4    1  0.5410820E-008  0.5114456E+03  0.7818608E-02  0.1010834E+00
          2   -1    0    0  501    0  0.00000000000E+00  0.00000000000E+00  0.29008243274E+04  0.29008243274E+04  0.25500000000E-02 0. -1.
         -2   -1    0    0    0  501 -0.00000000000E+00 -0.00000000000E+00 -0.22259846447E+03  0.22259846449E+03  0.25500000000E-02 0.  1.
    8880022    1    1    2    0    0  0.11069457552E+03 -0.47532271153E+03  0.25436637198E+04  0.25945715911E+04  0.15294330000E+03 0.  0.
    8880022    1    1    2    0    0 -0.11069457552E+03  0.47532271153E+03  0.13456214312E+03  0.52885120074E+03  0.15294330000E+03 0.  0.
<mgrwt>
<rscale>  0 0.51144562E+03</rscale>
<asrwt>0</asrwt>
<pdfrwt beam="1">  1        2 0.44628070E+00 0.51144562E+03</pdfrwt>
<pdfrwt beam="2">  1       -2 0.34245915E-01 0.51144562E+03</pdfrwt>
<totfact> 0.17781009E+01</totfact>
</mgrwt>
</event>
<event>
 4    1  0.5410820E-008  0.4467178E+03  0.7818608E-02  0.1028705E+00
          2   -1    0    0  501    0  0.00000000000E+00  0.00000000000E+00  0.20027018851E+04  0.20027018851E+04  0.25500000000E-02 0. -1.
         -2   -1    0    0    0  501 -0.00000000000E+00 -0.00000000000E+00 -0.42192213885E+03  0.42192213886E+03  0.25500000000E-02 0.  1.
    8880022    1    1    2    0    0 -0.41905649101E+03 -0.23596476628E+02 -0.26914150249E+03  0.52153038046E+03  0.15294330000E+03 0.  0.
    8880022    1    1    2    0    0  0.41905649101E+03  0.23596476628E+02  0.18499212487E+04  0.19030936435E+04  0.15294330000E+03 0. -1.
<mgrwt>
<rscale>  0 0.44671780E+03</rscale>
<asrwt>0</asrwt>
<pdfrwt beam="1">  1        2 0.30810799E+00 0.44671780E+03</pdfrwt>
<pdfrwt beam="2">  1       -2 0.64911097E-01 0.44671780E+03</pdfrwt>
<totfact> 0.15963970E+01</totfact>
</mgrwt>
</event>
<event>
 4    1  0.5410820E-008  0.5783152E+03  0.7818608E-02  0.9951445E-01
         -2   -1    0    0    0  501 -0.00000000000E+00  0.00000000000E+00  0.44084258112E+03  0.44084258113E+03  0.25500000000E-02 0.  1.
          2   -1    0    0  501    0  0.00000000000E+00 -0.00000000000E+00 -0.40524337493E+04  0.40524337493E+04  0.25500000000E-02 0. -1.
    8880022    1    1    2    0    0 -0.55172632079E+03  0.81577711446E+02  0.21965765159E+03  0.61862589097E+03  0.15294330000E+03 0.  0.
    8880022    1    1    2    0    0  0.55172632079E+03 -0.81577711446E+02 -0.38312488198E+04  0.38746504395E+04  0.15294330000E+03 0.  0.
<mgrwt>
<rscale>  0 0.57831523E+03</rscale>
<asrwt>0</asrwt>
<pdfrwt beam="1">  1        2 0.62345132E+00 0.57831523E+03</pdfrwt>
<pdfrwt beam="2">  1       -2 0.67821938E-01 0.57831523E+03</pdfrwt>
<totfact> 0.72514601E-01</totfact>
</mgrwt>
</event>
<event>
 4    1  0.5410820E-008  0.5345936E+03  0.7818608E-02  0.1005124E+00
          2   -1    0    0  501    0  0.00000000000E+00  0.00000000000E+00  0.18681172274E+04  0.18681172274E+04  0.25500000000E-02 0. -1.
         -2   -1    0    0    0  501 -0.00000000000E+00 -0.00000000000E+00 -0.26236112651E+03  0.26236112652E+03  0.25500000000E-02 0.  1.
    8880022    1    1    2    0    0 -0.33380948224E+03 -0.38854850256E+03  0.11507763952E+03  0.54683930493E+03  0.15294330000E+03 0.  0.
    8880022    1    1    2    0    0  0.33380948224E+03  0.38854850256E+03  0.14906784614E+04  0.15836390490E+04  0.15294330000E+03 0.  0.
<mgrwt>
<rscale>  0 0.53459364E+03</rscale>
<asrwt>0</asrwt>
<pdfrwt beam="1">  1        2 0.28740264E+00 0.53459364E+03</pdfrwt>
<pdfrwt beam="2">  1       -2 0.40363252E-01 0.53459364E+03</pdfrwt>
<totfact> 0.48669183E+01</totfact>
</mgrwt>
</event>
<event>
 4    1  0.5410820E-008  0.3814478E+03  0.7818608E-02  0.1050400E+00
         -2   -1    0    0    0  501 -0.00000000000E+00  0.00000000000E+00  0.18859591908E+03  0.18859591910E+03  0.25500000000E-02 0.  1.
          2   -1    0    0  501    0  0.00000000000E+00 -0.00000000000E+00 -0.16894834910E+04  0.16894834910E+04  0.25500000000E-02 0. -1.
    8880022    1    1    2    0    0 -0.12935599279E+03  0.32461943470E+03 -0.14426310395E+04  0.14922086716E+04  0.15294330000E+03 0.  0.
    8880022    1    1    2    0    0  0.12935599279E+03 -0.32461943470E+03 -0.58256532346E+02  0.38587073850E+03  0.15294330000E+03 0.  0.
<mgrwt>
<rscale>  0 0.38144777E+03</rscale>
<asrwt>0</asrwt>
<pdfrwt beam="1">  1        2 0.25992053E+00 0.38144777E+03</pdfrwt>
<pdfrwt beam="2">  1       -2 0.29014758E-01 0.38144777E+03</pdfrwt>
<totfact> 0.11603263E+02</totfact>
</mgrwt>
</event>
<event>
 4    1  0.5410820E-008  0.3402703E+03  0.7818608E-02  0.1066681E+00
         -2   -1    0    0    0  501 -0.00000000000E+00  0.00000000000E+00  0.10145439305E+04  0.10145439305E+04  0.25500000000E-02 0.  1.
          2   -1    0    0  501    0  0.00000000000E+00 -0.00000000000E+00 -0.19420404719E+03  0.19420404720E+03  0.25500000000E-02 0. -1.
    8880022    1    1    2    0    0  0.27536203315E+02  0.30271109257E+03  0.22074494865E+02  0.34098560732E+03  0.15294330000E+03 0.  0.
    8880022    1    1    2    0    0 -0.27536203315E+02 -0.30271109257E+03  0.79826538844E+03  0.86776237038E+03  0.15294330000E+03 0.  0.
<mgrwt>
<rscale>  0 0.34027034E+03</rscale>
<asrwt>0</asrwt>
<pdfrwt beam="1">  1        2 0.29877545E-01 0.34027034E+03</pdfrwt>
<pdfrwt beam="2">  1       -2 0.15608368E+00 0.34027034E+03</pdfrwt>
<totfact> 0.50278104E+01</totfact>
</mgrwt>
</event>
<event>
 4    1  0.5410820E-008  0.4274970E+03  0.7818608E-02  0.1034654E+00
         -2   -1    0    0    0  501 -0.00000000000E+00  0.00000000000E+00  0.17380956929E+04  0.17380956929E+04  0.25500000000E-02 0.  1.
          2   -1    0    0  501    0  0.00000000000E+00 -0.00000000000E+00 -0.19120748085E+03  0.19120748086E+03  0.25500000000E-02 0. -1.
    8880022    1    1    2    0    0  0.31140447936E+03 -0.24977848757E+03  0.12626778902E+03  0.44575469731E+03  0.15294330000E+03 0. -1.
    8880022    1    1    2    0    0 -0.31140447936E+03  0.24977848757E+03  0.14206204230E+04  0.14835484765E+04  0.15294330000E+03 0.  0.
<mgrwt>
<rscale>  0 0.42749701E+03</rscale>
<asrwt>0</asrwt>
<pdfrwt beam="1">  1        2 0.29416535E-01 0.42749701E+03</pdfrwt>
<pdfrwt beam="2">  1       -2 0.26739935E+00 0.42749701E+03</pdfrwt>
<totfact> 0.98570381E+00</totfact>
</mgrwt>
</event>
<event>
 4    1  0.5410820E-008  0.5094113E+03  0.7818608E-02  0.1011351E+00
         -2   -1    0    0    0  501 -0.00000000000E+00  0.00000000000E+00  0.12710421896E+03  0.12710421899E+03  0.25500000000E-02 0.  1.
          2   -1    0    0  501    0  0.00000000000E+00 -0.00000000000E+00 -0.22046688357E+04  0.22046688357E+04  0.25500000000E-02 0. -1.
    8880022    1    1    2    0    0  0.45970696420E+03 -0.15740941316E+03 -0.72173120563E+03  0.88340013724E+03  0.15294330000E+03 0.  0.
    8880022    1    1    2    0    0 -0.45970696420E+03  0.15740941316E+03 -0.13558334111E+04  0.14483729174E+04  0.15294330000E+03 0.  0.
<mgrwt>
<rscale>  0 0.50941130E+03</rscale>
<asrwt>0</asrwt>
<pdfrwt beam="1">  1        2 0.33917979E+00 0.50941130E+03</pdfrwt>
<pdfrwt beam="2">  1       -2 0.19554497E-01 0.50941130E+03</pdfrwt>
<totfact> 0.12106915E+02</totfact>
</mgrwt>
</event>
<event>
 4    1  0.5410820E-008  0.4993910E+03  0.7818608E-02  0.1013938E+00
          2   -1    0    0  501    0  0.00000000000E+00  0.00000000000E+00  0.34687191939E+03  0.34687191939E+03  0.25500000000E-02 0. -1.
         -2   -1    0    0    0  501 -0.00000000000E+00 -0.00000000000E+00 -0.14358401279E+04  0.14358401279E+04  0.25500000000E-02 0.  1.
    8880022    1    1    2    0    0  0.44806926813E+03 -0.15885110042E+03 -0.11743058116E+04  0.12760821028E+04  0.15294330000E+03 0.  0.
    8880022    1    1    2    0    0 -0.44806926813E+03  0.15885110042E+03  0.85337603002E+02  0.50662994449E+03  0.15294330000E+03 0. -1.
<mgrwt>
<rscale>  0 0.49939102E+03</rscale>
<asrwt>0</asrwt>
<pdfrwt beam="1">  1        2 0.53364912E-01 0.49939102E+03</pdfrwt>
<pdfrwt beam="2">  1       -2 0.22089848E+00 0.49939102E+03</pdfrwt>
<totfact> 0.96070989E+00</totfact>
</mgrwt>
</event>
<event>
 4    1  0.5410820E-008  0.5847649E+03  0.7818608E-02  0.9937528E-01
         -2   -1    0    0    0  501 -0.00000000000E+00  0.00000000000E+00  0.89662942345E+03  0.89662942346E+03  0.25500000000E-02 0.  1.
          2   -1    0    0  501    0  0.00000000000E+00 -0.00000000000E+00 -0.11575282882E+04  0.11575282882E+04  0.25500000000E-02 0. -1.
    8880022    1    1    2    0    0  0.52241980068E+03  0.21362549048E+03  0.71058230846E+03  0.92025929414E+03  0.15294330000E+03 0.  0.
    8880022    1    1    2    0    0 -0.52241980068E+03 -0.21362549048E+03 -0.97148117317E+03  0.11338984175E+04  0.15294330000E+03 0.  0.
<mgrwt>
<rscale>  0 0.58476487E+03</rscale>
<asrwt>0</asrwt>
<pdfrwt beam="1">  1        2 0.17808128E+00 0.58476487E+03</pdfrwt>
<pdfrwt beam="2">  1       -2 0.13794299E+00 0.58476487E+03</pdfrwt>
<totfact> 0.78366749E+00</totfact>
</mgrwt>
</event>
<event>
 4    1  0.5410820E-008  0.8466778E+03  0.7818608E-02  0.9494807E-01
          2   -1    0    0  501    0  0.00000000000E+00  0.00000000000E+00  0.10266784259E+04  0.10266784259E+04  0.25500000000E-02 0. -1.
         -2   -1    0    0    0  501 -0.00000000000E+00 -0.00000000000E+00 -0.11065930224E+04  0.11065930224E+04  0.25500000000E-02 0.  1.
    8880022    1    1    2    0    0  0.70950221800E+03  0.43597969088E+03 -0.68790869824E+03  0.10909086664E+04  0.15294330000E+03 0.  0.
    8880022    1    1    2    0    0 -0.70950221800E+03 -0.43597969088E+03  0.60799410174E+03  0.10423627818E+04  0.15294330000E+03 0.  0.
<mgrwt>
<rscale>  0 0.84667783E+03</rscale>
<asrwt>0</asrwt>
<pdfrwt beam="1">  1        2 0.15795053E+00 0.84667783E+03</pdfrwt>
<pdfrwt beam="2">  1       -2 0.17024508E+00 0.84667783E+03</pdfrwt>
<totfact> 0.51822116E+00</totfact>
</mgrwt>
</event>
<event>
 4    1  0.5410820E-008  0.1718695E+03  0.7818608E-02  0.1175912E+00
         -2   -1    0    0    0  501 -0.00000000000E+00  0.00000000000E+00  0.68029781476E+02  0.68029781524E+02  0.25500000000E-02 0.  1.
          2   -1    0    0  501    0  0.00000000000E+00 -0.00000000000E+00 -0.81227872841E+03  0.81227872841E+03  0.25500000000E-02 0. -1.
    8880022    1    1    2    0    0 -0.70013031972E+02 -0.35293818711E+02 -0.67241277892E+03  0.69403031386E+03  0.15294330000E+03 0.  0.
    8880022    1    1    2    0    0  0.70013031972E+02  0.35293818711E+02 -0.71836168016E+02  0.18627819608E+03  0.15294330000E+03 0.  1.
<mgrwt>
<rscale>  0 0.17186952E+03</rscale>
<asrwt>0</asrwt>
<pdfrwt beam="1">  1        2 0.12496595E+00 0.17186952E+03</pdfrwt>
<pdfrwt beam="2">  1       -2 0.10466121E-01 0.17186952E+03</pdfrwt>
<totfact> 0.21287258E+03</totfact>
</mgrwt>
</event>
<event>
 4    1  0.5410820E-008  0.2034327E+03  0.7818608E-02  0.1146875E+00
         -2   -1    0    0    0  501 -0.00000000000E+00  0.00000000000E+00  0.24962925473E+03  0.24962925475E+03  0.25500000000E-02 0.  1.
          2   -1    0    0  501    0  0.00000000000E+00 -0.00000000000E+00 -0.12091273845E+04  0.12091273845E+04  0.25500000000E-02 0. -1.
    8880022    1    1    2    0    0  0.46356767465E+02  0.12587405955E+03  0.19778348874E+03  0.28373084110E+03  0.15294330000E+03 0.  0.
    8880022    1    1    2    0    0 -0.46356767465E+02 -0.12587405955E+03 -0.11572816185E+04  0.11750257982E+04  0.15294330000E+03 0. -1.
<mgrwt>
<rscale>  0 0.20343275E+03</rscale>
<asrwt>0</asrwt>
<pdfrwt beam="1">  1        2 0.18601959E+00 0.20343275E+03</pdfrwt>
<pdfrwt beam="2">  1       -2 0.38404501E-01 0.20343275E+03</pdfrwt>
<totfact> 0.13075968E+02</totfact>
</mgrwt>
</event>
<event>
 4    1  0.5410820E-008  0.2754721E+03  0.7818608E-02  0.1098188E+00
         -2   -1    0    0    0  501 -0.00000000000E+00  0.00000000000E+00  0.33586452436E+03  0.33586452437E+03  0.25500000000E-02 0.  1.
          2   -1    0    0  501    0  0.00000000000E+00 -0.00000000000E+00 -0.97737909872E+03  0.97737909873E+03  0.25500000000E-02 0. -1.
    8880022    1    1    2    0    0  0.19214300093E+03 -0.12479690473E+03  0.25498880667E+03  0.37537200851E+03  0.15294330000E+03 0.  0.
    8880022    1    1    2    0    0 -0.19214300093E+03  0.12479690473E+03 -0.89650338103E+03  0.93787161459E+03  0.15294330000E+03 0.  0.
<mgrwt>
<rscale>  0 0.27547206E+03</rscale>
<asrwt>0</asrwt>
<pdfrwt beam="1">  1        2 0.15036601E+00 0.27547206E+03</pdfrwt>
<pdfrwt beam="2">  1       -2 0.51671466E-01 0.27547206E+03</pdfrwt>
<totfact> 0.98663643E+01</totfact>
</mgrwt>
</event>
<event>
 4    1  0.5410820E-008  0.9676102E+03  0.7818608E-02  0.9344800E-01
         -2   -1    0    0    0  501 -0.00000000000E+00  0.00000000000E+00  0.59090580428E+03  0.59090580429E+03  0.25500000000E-02 0.  1.
          2   -1    0    0  501    0  0.00000000000E+00 -0.00000000000E+00 -0.17621996830E+04  0.17621996830E+04  0.25500000000E-02 0. -1.
    8880022    1    1    2    0    0  0.20425160836E+03  0.93335910034E+03 -0.21199271439E+03  0.99056069661E+03  0.15294330000E+03 0.  0.
    8880022    1    1    2    0    0 -0.20425160836E+03 -0.93335910034E+03 -0.95930116433E+03  0.13625447907E+04  0.15294330000E+03 0.  0.
<mgrwt>
<rscale>  0 0.96761024E+03</rscale>
<asrwt>0</asrwt>
<pdfrwt beam="1">  1        2 0.27110764E+00 0.96761024E+03</pdfrwt>
<pdfrwt beam="2">  1       -2 0.90908586E-01 0.96761024E+03</pdfrwt>
<totfact> 0.93696010E+00</totfact>
</mgrwt>
</event>
<event>
 4    1  0.5410820E-008  0.1043197E+04  0.7818608E-02  0.9262396E-01
         -2   -1    0    0    0  501 -0.00000000000E+00  0.00000000000E+00  0.12680632979E+04  0.12680632979E+04  0.25500000000E-02 0.  1.
          2   -1    0    0  501    0  0.00000000000E+00 -0.00000000000E+00 -0.91232336995E+03  0.91232336995E+03  0.25500000000E-02 0. -1.
    8880022    1    1    2    0    0 -0.16485229157E+03  0.10186720090E+04 -0.87648117872E+02  0.10468728602E+04  0.15294330000E+03 0.  0.
    8880022    1    1    2    0    0  0.16485229157E+03 -0.10186720090E+04  0.44338804582E+03  0.11335138076E+04  0.15294330000E+03 0.  0.
<mgrwt>
<rscale>  0 0.10431973E+04</rscale>
<asrwt>0</asrwt>
<pdfrwt beam="1">  1        2 0.14035744E+00 0.10431973E+04</pdfrwt>
<pdfrwt beam="2">  1       -2 0.19508666E+00 0.10431973E+04</pdfrwt>
<totfact> 0.40723315E+00</totfact>
</mgrwt>
</event>
<event>
 4    1  0.5410820E-008  0.1112495E+04  0.7818608E-02  0.9193098E-01
         -2   -1    0    0    0  501 -0.00000000000E+00  0.00000000000E+00  0.21053157780E+04  0.21053157780E+04  0.25500000000E-02 0.  1.
          2   -1    0    0  501    0  0.00000000000E+00 -0.00000000000E+00 -0.70974416298E+03  0.70974416299E+03  0.25500000000E-02 0. -1.
    8880022    1    1    2    0    0  0.67467399427E+03 -0.87124573053E+03  0.11451825593E+03  0.11183739113E+04  0.15294330000E+03 0.  0.
    8880022    1    1    2    0    0 -0.67467399427E+03  0.87124573053E+03  0.12810533591E+04  0.16966860297E+04  0.15294330000E+03 0.  0.
<mgrwt>
<rscale>  0 0.11124953E+04</rscale>
<asrwt>0</asrwt>
<pdfrwt beam="1">  1        2 0.10919141E+00 0.11124953E+04</pdfrwt>
<pdfrwt beam="2">  1       -2 0.32389473E+00 0.11124953E+04</pdfrwt>
<totfact> 0.90677577E-01</totfact>
</mgrwt>
</event>
<event>
 4    1  0.5410820E-008  0.3769754E+03  0.7818608E-02  0.1052057E+00
          2   -1    0    0  501    0  0.00000000000E+00  0.00000000000E+00  0.17944174454E+04  0.17944174454E+04  0.25500000000E-02 0. -1.
         -2   -1    0    0    0  501 -0.00000000000E+00 -0.00000000000E+00 -0.21196842740E+03  0.21196842742E+03  0.25500000000E-02 0.  1.
    8880022    1    1    2    0    0 -0.31137822844E+02 -0.34314604182E+03  0.15851926244E+04  0.16294005277E+04  0.15294330000E+03 0.  0.
    8880022    1    1    2    0    0  0.31137822844E+02  0.34314604182E+03 -0.27436064761E+01  0.37698534510E+03  0.15294330000E+03 0.  0.
<mgrwt>
<rscale>  0 0.37697536E+03</rscale>
<asrwt>0</asrwt>
<pdfrwt beam="1">  1        2 0.27606424E+00 0.37697536E+03</pdfrwt>
<pdfrwt beam="2">  1       -2 0.32610526E-01 0.37697536E+03</pdfrwt>
<totfact> 0.82321867E+01</totfact>
</mgrwt>
</event>
<event>
 4    1  0.5410820E-008  0.5498464E+03  0.7818608E-02  0.1001529E+00
          2   -1    0    0  501    0  0.00000000000E+00  0.00000000000E+00  0.85353264094E+03  0.85353264094E+03  0.25500000000E-02 0. -1.
         -2   -1    0    0    0  501 -0.00000000000E+00 -0.00000000000E+00 -0.73528600659E+03  0.73528600660E+03  0.25500000000E-02 0.  1.
    8880022    1    1    2    0    0 -0.16378272020E+03  0.50211018261E+03 -0.51277805209E+03  0.75184599397E+03  0.15294330000E+03 0.  0.
    8880022    1    1    2    0    0  0.16378272020E+03 -0.50211018261E+03  0.63102468644E+03  0.83697265357E+03  0.15294330000E+03 0. -1.
<mgrwt>
<rscale>  0 0.54984640E+03</rscale>
<asrwt>0</asrwt>
<pdfrwt beam="1">  1        2 0.13131271E+00 0.54984640E+03</pdfrwt>
<pdfrwt beam="2">  1       -2 0.11312092E+00 0.54984640E+03</pdfrwt>
<totfact> 0.20126179E+01</totfact>
</mgrwt>
</event>
<event>
 4    1  0.5410820E-008  0.4640379E+03  0.7818608E-02  0.1023617E+00
         -2   -1    0    0    0  501 -0.00000000000E+00  0.00000000000E+00  0.40853355390E+03  0.40853355391E+03  0.25500000000E-02 0.  1.
          2   -1    0    0  501    0  0.00000000000E+00 -0.00000000000E+00 -0.58072760064E+03  0.58072760064E+03  0.25500000000E-02 0. -1.
    8880022    1    1    2    0    0  0.20970753842E+03  0.38465861457E+03 -0.23643098701E+03  0.52079820090E+03  0.15294330000E+03 0. -1.
    8880022    1    1    2    0    0 -0.20970753842E+03 -0.38465861457E+03  0.64236940274E+02  0.46846295365E+03  0.15294330000E+03 0.  0.
<mgrwt>
<rscale>  0 0.46403788E+03</rscale>
<asrwt>0</asrwt>
<pdfrwt beam="1">  1        2 0.89342707E-01 0.46403788E+03</pdfrwt>
<pdfrwt beam="2">  1       -2 0.62851316E-01 0.46403788E+03</pdfrwt>
<totfact> 0.12468233E+02</totfact>
</mgrwt>
</event>
<event>
 4    1  0.5410820E-008  0.8670289E+03  0.7818608E-02  0.9467762E-01
         -2   -1    0    0    0  501 -0.00000000000E+00  0.00000000000E+00  0.44306855974E+03  0.44306855975E+03  0.25500000000E-02 0.  1.
          2   -1    0    0  501    0  0.00000000000E+00 -0.00000000000E+00 -0.22084894867E+04  0.22084894867E+04  0.25500000000E-02 0. -1.
    8880022    1    1    2    0    0 -0.81332900667E+03  0.25854102886E+03 -0.15209500603E+04  0.17507222155E+04  0.15294330000E+03 0.  0.
    8880022    1    1    2    0    0  0.81332900667E+03 -0.25854102886E+03 -0.24447086659E+03  0.90083583095E+03  0.15294330000E+03 0.  0.
<mgrwt>
<rscale>  0 0.86702894E+03</rscale>
<asrwt>0</asrwt>
<pdfrwt beam="1">  1        2 0.33976761E+00 0.86702894E+03</pdfrwt>
<pdfrwt beam="2">  1       -2 0.68164395E-01 0.86702894E+03</pdfrwt>
<totfact> 0.10291190E+01</totfact>
</mgrwt>
</event>
<event>
 4    1  0.5410820E-008  0.4716046E+03  0.7818608E-02  0.1021468E+00
         -2   -1    0    0    0  501 -0.00000000000E+00  0.00000000000E+00  0.71051347461E+03  0.71051347462E+03  0.25500000000E-02 0.  1.
          2   -1    0    0  501    0  0.00000000000E+00 -0.00000000000E+00 -0.30738298641E+04  0.30738298641E+04  0.25500000000E-02 0. -1.
    8880022    1    1    2    0    0  0.44510249328E+03 -0.30049928811E+02  0.61158095950E+03  0.77229667278E+03  0.15294330000E+03 0.  0.
    8880022    1    1    2    0    0 -0.44510249328E+03  0.30049928811E+02 -0.29748973490E+04  0.30120466659E+04  0.15294330000E+03 0.  0.
<mgrwt>
<rscale>  0 0.47160458E+03</rscale>
<asrwt>0</asrwt>
<pdfrwt beam="1">  1        2 0.47289690E+00 0.47160458E+03</pdfrwt>
<pdfrwt beam="2">  1       -2 0.10930977E+00 0.47160458E+03</pdfrwt>
<totfact> 0.12095897E+00</totfact>
</mgrwt>
</event>
<event>
 4    1  0.5410820E-008  0.6531451E+03  0.7818608E-02  0.9800895E-01
          2   -1    0    0  501    0  0.00000000000E+00  0.00000000000E+00  0.30556182615E+04  0.30556182615E+04  0.25500000000E-02 0. -1.
         -2   -1    0    0    0  501 -0.00000000000E+00 -0.00000000000E+00 -0.33436353737E+03  0.33436353738E+03  0.25500000000E-02 0.  1.
    8880022    1    1    2    0    0 -0.63498487987E+03  0.10289864818E+01  0.67029578343E+02  0.65657556599E+03  0.15294330000E+03 0.  0.
    8880022    1    1    2    0    0  0.63498487987E+03 -0.10289864818E+01  0.26542251458E+04  0.27334062329E+04  0.15294330000E+03 0.  0.
<mgrwt>
<rscale>  0 0.65314509E+03</rscale>
<asrwt>0</asrwt>
<pdfrwt beam="1">  1        2 0.47009511E+00 0.65314509E+03</pdfrwt>
<pdfrwt beam="2">  1       -2 0.51440545E-01 0.65314509E+03</pdfrwt>
<totfact> 0.62427657E+00</totfact>
</mgrwt>
</event>
<event>
 4    1  0.5410820E-008  0.1018332E+04  0.7818608E-02  0.9288664E-01
          2   -1    0    0  501    0  0.00000000000E+00  0.00000000000E+00  0.15203575974E+04  0.15203575974E+04  0.25500000000E-02 0. -1.
         -2   -1    0    0    0  501 -0.00000000000E+00 -0.00000000000E+00 -0.74442191402E+03  0.74442191403E+03  0.25500000000E-02 0.  1.
    8880022    1    1    2    0    0  0.59838867301E+03 -0.80965386348E+03  0.71567729144E+03  0.12446662288E+04  0.15294330000E+03 0.  0.
    8880022    1    1    2    0    0 -0.59838867301E+03  0.80965386348E+03  0.60258391965E+02  0.10201132827E+04  0.15294330000E+03 0.  0.
<mgrwt>
<rscale>  0 0.10183320E+04</rscale>
<asrwt>0</asrwt>
<pdfrwt beam="1">  1        2 0.23390117E+00 0.10183320E+04</pdfrwt>
<pdfrwt beam="2">  1       -2 0.11452645E+00 0.10183320E+04</pdfrwt>
<totfact> 0.73089114E+00</totfact>
</mgrwt>
</event>
<event>
 4    1  0.5410820E-008  0.7978767E+03  0.7818608E-02  0.9563096E-01
         -2   -1    0    0    0  501 -0.00000000000E+00  0.00000000000E+00  0.57016798305E+03  0.57016798305E+03  0.25500000000E-02 0.  1.
          2   -1    0    0  501    0  0.00000000000E+00 -0.00000000000E+00 -0.14264954109E+04  0.14264954109E+04  0.25500000000E-02 0. -1.
    8880022    1    1    2    0    0  0.53012322500E+03  0.57635488715E+03  0.37207220673E+02  0.79874377613E+03  0.15294330000E+03 0.  0.
    8880022    1    1    2    0    0 -0.53012322500E+03 -0.57635488715E+03 -0.89353464853E+03  0.11979196178E+04  0.15294330000E+03 0.  0.
<mgrwt>
<rscale>  0 0.79787671E+03</rscale>
<asrwt>0</asrwt>
<pdfrwt beam="1">  1        2 0.21946083E+00 0.79787671E+03</pdfrwt>
<pdfrwt beam="2">  1       -2 0.87718152E-01 0.79787671E+03</pdfrwt>
<totfact> 0.15935350E+01</totfact>
</mgrwt>
</event>
<event>
 4    1  0.5410820E-008  0.3865538E+03  0.7818608E-02  0.1048538E+00
          2   -1    0    0  501    0  0.00000000000E+00  0.00000000000E+00  0.41066031287E+03  0.41066031288E+03  0.25500000000E-02 0. -1.
         -2   -1    0    0    0  501 -0.00000000000E+00 -0.00000000000E+00 -0.63747397340E+03  0.63747397340E+03  0.25500000000E-02 0.  1.
    8880022    1    1    2    0    0  0.13033676733E+03 -0.33021889731E+03 -0.45674567110E+03  0.59836481693E+03  0.15294330000E+03 0.  0.
    8880022    1    1    2    0    0 -0.13033676733E+03  0.33021889731E+03  0.22993201057E+03  0.44976946935E+03  0.15294330000E+03 0.  0.
<mgrwt>
<rscale>  0 0.38655381E+03</rscale>
<asrwt>0</asrwt>
<pdfrwt beam="1">  1        2 0.63178509E-01 0.38655381E+03</pdfrwt>
<pdfrwt beam="2">  1       -2 0.98072920E-01 0.38655381E+03</pdfrwt>
<totfact> 0.69376736E+01</totfact>
</mgrwt>
</event>
<event>
 4    1  0.5410820E-008  0.2079099E+04  0.7818608E-02  0.8570507E-01
          2   -1    0    0  501    0  0.00000000000E+00  0.00000000000E+00  0.41716466852E+04  0.41716466852E+04  0.25500000000E-02 0. -1.
         -2   -1    0    0    0  501 -0.00000000000E+00 -0.00000000000E+00 -0.11397023425E+04  0.11397023425E+04  0.25500000000E-02 0.  1.
    8880022    1    1    2    0    0 -0.17045192575E+04 -0.11806250329E+04  0.71566285366E+03  0.21988238540E+04  0.15294330000E+03 0.  0.
    8880022    1    1    2    0    0  0.17045192575E+04  0.11806250329E+04  0.23162814890E+04  0.31125251737E+04  0.15294330000E+03 0.  0.
<mgrwt>
<rscale>  0 0.20790991E+04</rscale>
<asrwt>0</asrwt>
<pdfrwt beam="1">  1        2 0.64179180E+00 0.20790991E+04</pdfrwt>
<pdfrwt beam="2">  1       -2 0.17533882E+00 0.20790991E+04</pdfrwt>
<totfact> 0.42965674E-02</totfact>
</mgrwt>
</event>
<event>
 4    1  0.5410820E-008  0.5188907E+03  0.7818608E-02  0.1008962E+00
          2   -1    0    0  501    0  0.00000000000E+00  0.00000000000E+00  0.36026718896E+04  0.36026718896E+04  0.25500000000E-02 0. -1.
         -2   -1    0    0    0  501 -0.00000000000E+00 -0.00000000000E+00 -0.16629784249E+03  0.16629784251E+03  0.25500000000E-02 0.  1.
    8880022    1    1    2    0    0  0.89456596005E+02 -0.48770217078E+03  0.31165108441E+04  0.31594125062E+04  0.15294330000E+03 0. -1.
    8880022    1    1    2    0    0 -0.89456596005E+02  0.48770217078E+03  0.31986320293E+03  0.60955722582E+03  0.15294330000E+03 0.  0.
<mgrwt>
<rscale>  0 0.51889068E+03</rscale>
<asrwt>0</asrwt>
<pdfrwt beam="1">  1        2 0.55425718E+00 0.51889068E+03</pdfrwt>
<pdfrwt beam="2">  1       -2 0.25584285E-01 0.51889068E+03</pdfrwt>
<totfact> 0.10806475E+01</totfact>
</mgrwt>
</event>
<event>
 4    1  0.5410820E-008  0.3647908E+03  0.7818608E-02  0.1056703E+00
         -2   -1    0    0    0  501 -0.00000000000E+00  0.00000000000E+00  0.97432684011E+02  0.97432684045E+02  0.25500000000E-02 0.  1.
          2   -1    0    0  501    0  0.00000000000E+00 -0.00000000000E+00 -0.17281445762E+04  0.17281445762E+04  0.25500000000E-02 0. -1.
    8880022    1    1    2    0    0 -0.23616488610E+03  0.23217845287E+03 -0.39738261902E+03  0.53943052038E+03  0.15294330000E+03 0.  0.
    8880022    1    1    2    0    0  0.23616488610E+03 -0.23217845287E+03 -0.12333292732E+04  0.12861467399E+04  0.15294330000E+03 0.  0.
<mgrwt>
<rscale>  0 0.36479082E+03</rscale>
<asrwt>0</asrwt>
<pdfrwt beam="1">  1        2 0.26586837E+00 0.36479082E+03</pdfrwt>
<pdfrwt beam="2">  1       -2 0.14989645E-01 0.36479082E+03</pdfrwt>
<totfact> 0.35026019E+02</totfact>
</mgrwt>
</event>
<event>
 4    1  0.5410820E-008  0.6950789E+03  0.7818608E-02  0.9725685E-01
          2   -1    0    0  501    0  0.00000000000E+00  0.00000000000E+00  0.10181034016E+04  0.10181034016E+04  0.25500000000E-02 0. -1.
         -2   -1    0    0    0  501 -0.00000000000E+00 -0.00000000000E+00 -0.10462607076E+04  0.10462607076E+04  0.25500000000E-02 0.  1.
    8880022    1    1    2    0    0 -0.25920954047E+03  0.62654083243E+03 -0.77708274246E+03  0.10425892011E+04  0.15294330000E+03 0.  0.
    8880022    1    1    2    0    0  0.25920954047E+03 -0.62654083243E+03  0.74892543640E+03  0.10217749081E+04  0.15294330000E+03 0.  0.
<mgrwt>
<rscale>  0 0.69507888E+03</rscale>
<asrwt>0</asrwt>
<pdfrwt beam="1">  1        2 0.15663129E+00 0.69507888E+03</pdfrwt>
<pdfrwt beam="2">  1       -2 0.16096319E+00 0.69507888E+03</pdfrwt>
<totfact> 0.62428788E+00</totfact>
</mgrwt>
</event>
<event>
 4    1  0.5410820E-008  0.4644439E+03  0.7818608E-02  0.1023500E+00
          2   -1    0    0  501    0  0.00000000000E+00  0.00000000000E+00  0.18545107572E+04  0.18545107572E+04  0.25500000000E-02 0. -1.
         -2   -1    0    0    0  501 -0.00000000000E+00 -0.00000000000E+00 -0.12217916165E+03  0.12217916168E+03  0.25500000000E-02 0.  1.
    8880022    1    1    2    0    0 -0.32191648317E+03  0.29780241505E+03  0.10826859260E+04  0.11780988786E+04  0.15294330000E+03 0.  0.
    8880022    1    1    2    0    0  0.32191648317E+03 -0.29780241505E+03  0.64964566960E+03  0.79859104026E+03  0.15294330000E+03 0.  0.
<mgrwt>
<rscale>  0 0.46444392E+03</rscale>
<asrwt>0</asrwt>
<pdfrwt beam="1">  1        2 0.28530935E+00 0.46444392E+03</pdfrwt>
<pdfrwt beam="2">  1       -2 0.18796794E-01 0.46444392E+03</pdfrwt>
<totfact> 0.20152864E+02</totfact>
</mgrwt>
</event>
<event>
 4    1  0.5410820E-008  0.6118172E+03  0.7818608E-02  0.9881188E-01
         -2   -1    0    0    0  501 -0.00000000000E+00  0.00000000000E+00  0.57700806582E+03  0.57700806583E+03  0.25500000000E-02 0.  1.
          2   -1    0    0  501    0  0.00000000000E+00 -0.00000000000E+00 -0.78369448635E+03  0.78369448636E+03  0.25500000000E-02 0. -1.
    8880022    1    1    2    0    0  0.72791499626E+02  0.58790304726E+03  0.17899891482E+03  0.63746439894E+03  0.15294330000E+03 0.  0.
    8880022    1    1    2    0    0 -0.72791499626E+02 -0.58790304726E+03 -0.38568533535E+03  0.72323815325E+03  0.15294330000E+03 0.  0.
<mgrwt>
<rscale>  0 0.61181717E+03</rscale>
<asrwt>0</asrwt>
<pdfrwt beam="1">  1        2 0.12056838E+00 0.61181717E+03</pdfrwt>
<pdfrwt beam="2">  1       -2 0.88770472E-01 0.61181717E+03</pdfrwt>
<totfact> 0.39650233E+01</totfact>
</mgrwt>
</event>
<event>
 4    1  0.5410820E-008  0.1693874E+04  0.7818608E-02  0.8764866E-01
          2   -1    0    0  501    0  0.00000000000E+00  0.00000000000E+00  0.12051773191E+04  0.12051773191E+04  0.25500000000E-02 0. -1.
         -2   -1    0    0    0  501 -0.00000000000E+00 -0.00000000000E+00 -0.25548359494E+04  0.25548359494E+04  0.25500000000E-02 0.  1.
    8880022    1    1    2    0    0  0.42194951851E+03 -0.16333330392E+04 -0.18406121085E+03  0.17038451794E+04  0.15294330000E+03 0.  0.
    8880022    1    1    2    0    0 -0.42194951851E+03  0.16333330392E+04 -0.11655974195E+04  0.20561680891E+04  0.15294330000E+03 0.  0.
<mgrwt>
<rscale>  0 0.16938742E+04</rscale>
<asrwt>0</asrwt>
<pdfrwt beam="1">  1        2 0.18541190E+00 0.16938742E+04</pdfrwt>
<pdfrwt beam="2">  1       -2 0.39305168E+00 0.16938742E+04</pdfrwt>
<totfact> 0.14360518E-01</totfact>
</mgrwt>
</event>
<event>
 4    1  0.5410820E-008  0.6407176E+03  0.7818608E-02  0.9824354E-01
          2   -1    0    0  501    0  0.00000000000E+00  0.00000000000E+00  0.27408045840E+04  0.27408045840E+04  0.25500000000E-02 0. -1.
         -2   -1    0    0    0  501 -0.00000000000E+00 -0.00000000000E+00 -0.86513016001E+03  0.86513016001E+03  0.25500000000E-02 0.  1.
    8880022    1    1    2    0    0  0.36171997376E+03  0.50624706827E+03 -0.70164356185E+03  0.95016986611E+03  0.15294330000E+03 0.  0.
    8880022    1    1    2    0    0 -0.36171997376E+03 -0.50624706827E+03  0.25773179858E+04  0.26557648779E+04  0.15294330000E+03 0.  0.
<mgrwt>
<rscale>  0 0.64071763E+03</rscale>
<asrwt>0</asrwt>
<pdfrwt beam="1">  1        2 0.42166224E+00 0.64071763E+03</pdfrwt>
<pdfrwt beam="2">  1       -2 0.13309695E+00 0.64071763E+03</pdfrwt>
<totfact> 0.11163995E+00</totfact>
</mgrwt>
</event>
<event>
 4    1  0.5410820E-008  0.6226667E+03  0.7818608E-02  0.9859465E-01
          2   -1    0    0  501    0  0.00000000000E+00  0.00000000000E+00  0.19986956722E+04  0.19986956722E+04  0.25500000000E-02 0. -1.
         -2   -1    0    0    0  501 -0.00000000000E+00 -0.00000000000E+00 -0.28077575436E+03  0.28077575438E+03  0.25500000000E-02 0.  1.
    8880022    1    1    2    0    0  0.54829821501E+03 -0.25237133282E+03  0.14926326246E+04  0.16173020829E+04  0.15294330000E+03 0.  0.
    8880022    1    1    2    0    0 -0.54829821501E+03  0.25237133282E+03  0.22528729320E+03  0.66216934368E+03  0.15294330000E+03 0.  0.
<mgrwt>
<rscale>  0 0.62266674E+03</rscale>
<asrwt>0</asrwt>
<pdfrwt beam="1">  1        2 0.30749164E+00 0.62266674E+03</pdfrwt>
<pdfrwt beam="2">  1       -2 0.43196270E-01 0.62266674E+03</pdfrwt>
<totfact> 0.35718214E+01</totfact>
</mgrwt>
</event>
<event>
 4    1  0.5410820E-008  0.5626419E+03  0.7818608E-02  0.9986095E-01
         -2   -1    0    0    0  501 -0.00000000000E+00  0.00000000000E+00  0.50827065837E+03  0.50827065838E+03  0.25500000000E-02 0.  1.
          2   -1    0    0  501    0  0.00000000000E+00 -0.00000000000E+00 -0.10116176493E+04  0.10116176493E+04  0.25500000000E-02 0. -1.
    8880022    1    1    2    0    0  0.54102288059E+03  0.21644816261E+02  0.21944488196E+03  0.60392215114E+03  0.15294330000E+03 0.  0.
    8880022    1    1    2    0    0 -0.54102288059E+03 -0.21644816261E+02 -0.72279187289E+03  0.91596615654E+03  0.15294330000E+03 0.  0.
<mgrwt>
<rscale>  0 0.56264190E+03</rscale>
<asrwt>0</asrwt>
<pdfrwt beam="1">  1        2 0.15563348E+00 0.56264190E+03</pdfrwt>
<pdfrwt beam="2">  1       -2 0.78195486E-01 0.56264190E+03</pdfrwt>
<totfact> 0.37346641E+01</totfact>
</mgrwt>
</event>
<event>
 4    1  0.5410820E-008  0.7685734E+03  0.7818608E-02  0.9606654E-01
          2   -1    0    0  501    0  0.00000000000E+00  0.00000000000E+00  0.98447133888E+03  0.98447133888E+03  0.25500000000E-02 0. -1.
         -2   -1    0    0    0  501 -0.00000000000E+00 -0.00000000000E+00 -0.13749039892E+04  0.13749039892E+04  0.25500000000E-02 0.  1.
    8880022    1    1    2    0    0 -0.59005046062E+02 -0.75088738420E+03 -0.10808384346E+04  0.13262416198E+04  0.15294330000E+03 0.  0.
    8880022    1    1    2    0    0  0.59005046062E+02  0.75088738420E+03  0.69040578432E+03  0.10331337083E+04  0.15294330000E+03 0.  0.
<mgrwt>
<rscale>  0 0.76857343E+03</rscale>
<asrwt>0</asrwt>
<pdfrwt beam="1">  1        2 0.15145713E+00 0.76857343E+03</pdfrwt>
<pdfrwt beam="2">  1       -2 0.21152369E+00 0.76857343E+03</pdfrwt>
<totfact> 0.29523644E+00</totfact>
</mgrwt>
</event>
<event>
 4    1  0.5410820E-008  0.6476112E+03  0.7818608E-02  0.9811272E-01
         -2   -1    0    0    0  501 -0.00000000000E+00  0.00000000000E+00  0.60526436124E+03  0.60526436124E+03  0.25500000000E-02 0.  1.
          2   -1    0    0  501    0  0.00000000000E+00 -0.00000000000E+00 -0.94562488771E+03  0.94562488771E+03  0.25500000000E-02 0. -1.
    8880022    1    1    2    0    0  0.55425985902E+03 -0.29800100033E+03  0.23068415758E+03  0.68747030561E+03  0.15294330000E+03 0.  0.
    8880022    1    1    2    0    0 -0.55425985902E+03  0.29800100033E+03 -0.57104468405E+03  0.86341894334E+03  0.15294330000E+03 0.  0.
<mgrwt>
<rscale>  0 0.64761118E+03</rscale>
<asrwt>0</asrwt>
<pdfrwt beam="1">  1        2 0.14548075E+00 0.64761118E+03</pdfrwt>
<pdfrwt beam="2">  1       -2 0.93117593E-01 0.64761118E+03</pdfrwt>
<totfact> 0.27398317E+01</totfact>
</mgrwt>
</event>
<event>
 4    1  0.5410820E-008  0.1553146E+03  0.7818608E-02  0.1194090E+00
          2   -1    0    0  501    0  0.00000000000E+00  0.00000000000E+00  0.17351403511E+04  0.17351403511E+04  0.25500000000E-02 0. -1.
         -2   -1    0    0    0  501 -0.00000000000E+00 -0.00000000000E+00 -0.10064088512E+04  0.10064088512E+04  0.25500000000E-02 0.  1.
    8880022    1    1    2    0    0  0.27031214107E+02  0.53191331728E+00 -0.99690807330E+03  0.10089342541E+04  0.15294330000E+03 0.  0.
    8880022    1    1    2    0    0 -0.27031214107E+02 -0.53191331728E+00  0.17256395731E+04  0.17326149482E+04  0.15294330000E+03 0. -1.
<mgrwt>
<rscale>  0 0.15531459E+03</rscale>
<asrwt>0</asrwt>
<pdfrwt beam="1">  1        2 0.26694466E+00 0.15531459E+03</pdfrwt>
<pdfrwt beam="2">  1       -2 0.15483213E+00 0.15531459E+03</pdfrwt>
<totfact> 0.32913246E+00</totfact>
</mgrwt>
</event>
<event>
 4    1  0.5410820E-008  0.5716842E+03  0.7818608E-02  0.9965959E-01
         -2   -1    0    0    0  501 -0.00000000000E+00  0.00000000000E+00  0.30266262947E+03  0.30266262948E+03  0.25500000000E-02 0.  1.
          2   -1    0    0  501    0  0.00000000000E+00 -0.00000000000E+00 -0.26699281841E+04  0.26699281841E+04  0.25500000000E-02 0. -1.
    8880022    1    1    2    0    0 -0.11175595656E+03 -0.53939014129E+03 -0.36620793497E+02  0.57285587531E+03  0.15294330000E+03 0.  0.
    8880022    1    1    2    0    0  0.11175595656E+03  0.53939014129E+03 -0.23306447612E+04  0.23997349383E+04  0.15294330000E+03 0.  0.
<mgrwt>
<rscale>  0 0.57168415E+03</rscale>
<asrwt>0</asrwt>
<pdfrwt beam="1">  1        2 0.41075817E+00 0.57168415E+03</pdfrwt>
<pdfrwt beam="2">  1       -2 0.46563483E-01 0.57168415E+03</pdfrwt>
<totfact> 0.13175555E+01</totfact>
</mgrwt>
</event>
<event>
 4    1  0.5410820E-008  0.3156594E+03  0.7818608E-02  0.1077664E+00
          2   -1    0    0  501    0  0.00000000000E+00  0.00000000000E+00  0.23468448548E+04  0.23468448548E+04  0.25500000000E-02 0. -1.
         -2   -1    0    0    0  501 -0.00000000000E+00 -0.00000000000E+00 -0.50696580719E+02  0.50696580783E+02  0.25500000000E-02 0.  1.
    8880022    1    1    2    0    0  0.27612594280E+03  0.19159780440E+01  0.16313438719E+04  0.16616027469E+04  0.15294330000E+03 0.  0.
    8880022    1    1    2    0    0 -0.27612594280E+03 -0.19159780440E+01  0.66480440217E+03  0.73593868862E+03  0.15294330000E+03 0.  1.
<mgrwt>
<rscale>  0 0.31565941E+03</rscale>
<asrwt>0</asrwt>
<pdfrwt beam="1">  1        2 0.36105301E+00 0.31565941E+03</pdfrwt>
<pdfrwt beam="2">  1       -2 0.77994749E-02 0.31565941E+03</pdfrwt>
<totfact> 0.47448524E+02</totfact>
</mgrwt>
</event>
<event>
 4    1  0.5410820E-008  0.5423459E+03  0.7818608E-02  0.1003281E+00
          2   -1    0    0  501    0  0.00000000000E+00  0.00000000000E+00  0.99111386157E+03  0.99111386158E+03  0.25500000000E-02 0. -1.
         -2   -1    0    0    0  501 -0.00000000000E+00 -0.00000000000E+00 -0.53120944697E+03  0.53120944698E+03  0.25500000000E-02 0.  1.
    8880022    1    1    2    0    0 -0.52029039802E+03  0.67302406672E+01  0.73560634884E+03  0.91392327242E+03  0.15294330000E+03 0.  0.
    8880022    1    1    2    0    0  0.52029039802E+03 -0.67302406672E+01 -0.27570193424E+03  0.60840003613E+03  0.15294330000E+03 0.  0.
<mgrwt>
<rscale>  0 0.54234587E+03</rscale>
<asrwt>0</asrwt>
<pdfrwt beam="1">  1        2 0.15247905E+00 0.54234587E+03</pdfrwt>
<pdfrwt beam="2">  1       -2 0.81724532E-01 0.54234587E+03</pdfrwt>
<totfact> 0.34946486E+01</totfact>
</mgrwt>
</event>
<event>
 4    1  0.5410820E-008  0.7852084E+03  0.7818608E-02  0.9581678E-01
         -2   -1    0    0    0  501 -0.00000000000E+00  0.00000000000E+00  0.50966519857E+03  0.50966519858E+03  0.25500000000E-02 0.  1.
          2   -1    0    0  501    0  0.00000000000E+00 -0.00000000000E+00 -0.17840358249E+04  0.17840358249E+04  0.25500000000E-02 0. -1.
    8880022    1    1    2    0    0  0.54623514454E+03 -0.54294362376E+03 -0.12878846421E+04  0.15083763178E+04  0.15294330000E+03 0. -1.
    8880022    1    1    2    0    0 -0.54623514454E+03  0.54294362376E+03  0.13514015785E+02  0.78532470568E+03  0.15294330000E+03 0.  0.
<mgrwt>
<rscale>  0 0.78520842E+03</rscale>
<asrwt>0</asrwt>
<pdfrwt beam="1">  1        2 0.27446705E+00 0.78520842E+03</pdfrwt>
<pdfrwt beam="2">  1       -2 0.78410032E-01 0.78520842E+03</pdfrwt>
<totfact> 0.13055916E+01</totfact>
</mgrwt>
</event>
<event>
 4    1  0.5410820E-008  0.5298420E+03  0.7818608E-02  0.1006270E+00
         -2   -1    0    0    0  501 -0.00000000000E+00  0.00000000000E+00  0.14262405277E+03  0.14262405279E+03  0.25500000000E-02 0.  1.
          2   -1    0    0  501    0  0.00000000000E+00 -0.00000000000E+00 -0.33993093088E+04  0.33993093088E+04  0.25500000000E-02 0. -1.
    8880022    1    1    2    0    0  0.15209645855E+03 -0.48394996263E+03 -0.27773697739E+04  0.28274574114E+04  0.15294330000E+03 0.  0.
    8880022    1    1    2    0    0 -0.15209645855E+03  0.48394996263E+03 -0.47931548213E+03  0.71447595023E+03  0.15294330000E+03 0.  0.
<mgrwt>
<rscale>  0 0.52984201E+03</rscale>
<asrwt>0</asrwt>
<pdfrwt beam="1">  1        2 0.52297060E+00 0.52984201E+03</pdfrwt>
<pdfrwt beam="2">  1       -2 0.21942165E-01 0.52984201E+03</pdfrwt>
<totfact> 0.19434132E+01</totfact>
</mgrwt>
</event>
<event>
 4    1  0.5410820E-008  0.4483034E+03  0.7818608E-02  0.1028229E+00
         -2   -1    0    0    0  501 -0.00000000000E+00  0.00000000000E+00  0.80609991417E+02  0.80609991458E+02  0.25500000000E-02 0.  1.
          2   -1    0    0  501    0  0.00000000000E+00 -0.00000000000E+00 -0.44790625356E+04  0.44790625356E+04  0.25500000000E-02 0. -1.
    8880022    1    1    2    0    0  0.18658837052E+03 -0.37784797210E+03 -0.68117701859E+03  0.81546188979E+03  0.15294330000E+03 0.  0.
    8880022    1    1    2    0    0 -0.18658837052E+03  0.37784797210E+03 -0.37172755256E+04  0.37442106373E+04  0.15294330000E+03 0.  0.
<mgrwt>
<rscale>  0 0.44830343E+03</rscale>
<asrwt>0</asrwt>
<pdfrwt beam="1">  1        2 0.68908635E+00 0.44830343E+03</pdfrwt>
<pdfrwt beam="2">  1       -2 0.12401541E-01 0.44830343E+03</pdfrwt>
<totfact> 0.76594398E+00</totfact>
</mgrwt>
</event>
<event>
 4    1  0.5410820E-008  0.4391179E+03  0.7818608E-02  0.1031018E+00
          2   -1    0    0  501    0  0.00000000000E+00  0.00000000000E+00  0.17011196201E+04  0.17011196201E+04  0.25500000000E-02 0. -1.
         -2   -1    0    0    0  501 -0.00000000000E+00 -0.00000000000E+00 -0.28088195108E+03  0.28088195109E+03  0.25500000000E-02 0.  1.
    8880022    1    1    2    0    0  0.14993796705E+03 -0.38334251200E+03 -0.55229091014E+02  0.44257742936E+03  0.15294330000E+03 0.  0.
    8880022    1    1    2    0    0 -0.14993796705E+03  0.38334251200E+03  0.14754667601E+04  0.15394241419E+04  0.15294330000E+03 0.  0.
<mgrwt>
<rscale>  0 0.43911790E+03</rscale>
<asrwt>0</asrwt>
<pdfrwt beam="1">  1        2 0.26171072E+00 0.43911790E+03</pdfrwt>
<pdfrwt beam="2">  1       -2 0.43212607E-01 0.43911790E+03</pdfrwt>
<totfact> 0.53279154E+01</totfact>
</mgrwt>
</event>
<event>
 4    1  0.5410820E-008  0.8763390E+03  0.7818608E-02  0.9455652E-01
          2   -1    0    0  501    0  0.00000000000E+00  0.00000000000E+00  0.22939147910E+04  0.22939147910E+04  0.25500000000E-02 0. -1.
         -2   -1    0    0    0  501 -0.00000000000E+00 -0.00000000000E+00 -0.41962413956E+03  0.41962413956E+03  0.25500000000E-02 0.  1.
    8880022    1    1    2    0    0  0.14705812100E+03 -0.85026604027E+03  0.15472044489E+04  0.17781483880E+04  0.15294330000E+03 0.  0.
    8880022    1    1    2    0    0 -0.14705812100E+03  0.85026604027E+03  0.32708620259E+03  0.93539054257E+03  0.15294330000E+03 0.  0.
<mgrwt>
<rscale>  0 0.87633902E+03</rscale>
<asrwt>0</asrwt>
<pdfrwt beam="1">  1        2 0.35290996E+00 0.87633902E+03</pdfrwt>
<pdfrwt beam="2">  1       -2 0.64557561E-01 0.87633902E+03</pdfrwt>
<totfact> 0.10362947E+01</totfact>
</mgrwt>
</event>
<event>
 4    1  0.5410820E-008  0.4047089E+03  0.7818608E-02  0.1042161E+00
         -2   -1    0    0    0  501 -0.00000000000E+00  0.00000000000E+00  0.48202910339E+03  0.48202910340E+03  0.25500000000E-02 0.  1.
          2   -1    0    0  501    0  0.00000000000E+00 -0.00000000000E+00 -0.13332997344E+04  0.13332997344E+04  0.25500000000E-02 0. -1.
    8880022    1    1    2    0    0 -0.26455841002E+03 -0.26534222119E+03 -0.12091500936E+04  0.12750816635E+04  0.15294330000E+03 0.  0.
    8880022    1    1    2    0    0  0.26455841002E+03  0.26534222119E+03  0.35787946257E+03  0.54024717436E+03  0.15294330000E+03 0.  0.
<mgrwt>
<rscale>  0 0.40470891E+03</rscale>
<asrwt>0</asrwt>
<pdfrwt beam="1">  1        2 0.20512303E+00 0.40470891E+03</pdfrwt>
<pdfrwt beam="2">  1       -2 0.74158324E-01 0.40470891E+03</pdfrwt>
<totfact> 0.27828245E+01</totfact>
</mgrwt>
</event>
<event>
 4    1  0.5410820E-008  0.2968053E+03  0.7818608E-02  0.1086849E+00
         -2   -1    0    0    0  501 -0.00000000000E+00  0.00000000000E+00  0.20301401913E+03  0.20301401914E+03  0.25500000000E-02 0.  1.
          2   -1    0    0  501    0  0.00000000000E+00 -0.00000000000E+00 -0.96639928300E+03  0.96639928301E+03  0.25500000000E-02 0. -1.
    8880022    1    1    2    0    0 -0.43045867515E+02 -0.25069662200E+03  0.52325599515E+02  0.30138242213E+03  0.15294330000E+03 0.  0.
    8880022    1    1    2    0    0  0.43045867515E+02  0.25069662200E+03 -0.81571086339E+03  0.86803088002E+03  0.15294330000E+03 0.  0.
<mgrwt>
<rscale>  0 0.29680532E+03</rscale>
<asrwt>0</asrwt>
<pdfrwt beam="1">  1        2 0.14867681E+00 0.29680532E+03</pdfrwt>
<pdfrwt beam="2">  1       -2 0.31232926E-01 0.29680532E+03</pdfrwt>
<totfact> 0.26304682E+02</totfact>
</mgrwt>
</event>
<event>
 4    1  0.5410820E-008  0.1698804E+03  0.7818608E-02  0.1177973E+00
          2   -1    0    0  501    0  0.00000000000E+00  0.00000000000E+00  0.19189588711E+04  0.19189588711E+04  0.25500000000E-02 0. -1.
         -2   -1    0    0    0  501 -0.00000000000E+00 -0.00000000000E+00 -0.33455818800E+02  0.33455818897E+02  0.25500000000E-02 0.  1.
    8880022    1    1    2    0    0  0.74283730661E+01 -0.73569903080E+02  0.21846121582E+03  0.27673934884E+03  0.15294330000E+03 0.  0.
    8880022    1    1    2    0    0 -0.74283730661E+01  0.73569903080E+02  0.16670418365E+04  0.16756753412E+04  0.15294330000E+03 0. -1.
<mgrwt>
<rscale>  0 0.16988044E+03</rscale>
<asrwt>0</asrwt>
<pdfrwt beam="1">  1        2 0.29522458E+00 0.16988044E+03</pdfrwt>
<pdfrwt beam="2">  1       -2 0.51470467E-02 0.16988044E+03</pdfrwt>
<totfact> 0.15488319E+03</totfact>
</mgrwt>
</event>
<event>
 4    1  0.5410820E-008  0.9162294E+03  0.7818608E-02  0.9405518E-01
         -2   -1    0    0    0  501 -0.00000000000E+00  0.00000000000E+00  0.82697518911E+03  0.82697518911E+03  0.25500000000E-02 0.  1.
          2   -1    0    0  501    0  0.00000000000E+00 -0.00000000000E+00 -0.13539520872E+04  0.13539520872E+04  0.25500000000E-02 0. -1.
    8880022    1    1    2    0    0 -0.90647328000E+02  0.89881459121E+03  0.28202312677E+03  0.95865181609E+03  0.15294330000E+03 0.  0.
    8880022    1    1    2    0    0  0.90647328000E+02 -0.89881459121E+03 -0.80900002491E+03  0.12222754603E+04  0.15294330000E+03 0.  0.
<mgrwt>
<rscale>  0 0.91622937E+03</rscale>
<asrwt>0</asrwt>
<pdfrwt beam="1">  1        2 0.20830032E+00 0.91622937E+03</pdfrwt>
<pdfrwt beam="2">  1       -2 0.12722695E+00 0.91622937E+03</pdfrwt>
<totfact> 0.70664106E+00</totfact>
</mgrwt>
</event>
<event>
 4    1  0.5410820E-008  0.6754438E+03  0.7818608E-02  0.9760173E-01
          2   -1    0    0  501    0  0.00000000000E+00  0.00000000000E+00  0.65466142163E+03  0.65466142163E+03  0.25500000000E-02 0. -1.
         -2   -1    0    0    0  501 -0.00000000000E+00 -0.00000000000E+00 -0.72525608960E+03  0.72525608961E+03  0.25500000000E-02 0.  1.
    8880022    1    1    2    0    0  0.65717543061E+03  0.30872740246E+02  0.10116362553E+03  0.68297760200E+03  0.15294330000E+03 0.  0.
    8880022    1    1    2    0    0 -0.65717543061E+03 -0.30872740246E+02 -0.17175829351E+03  0.69693990924E+03  0.15294330000E+03 0.  0.
<mgrwt>
<rscale>  0 0.67544380E+03</rscale>
<asrwt>0</asrwt>
<pdfrwt beam="1">  1        2 0.10071714E+00 0.67544380E+03</pdfrwt>
<pdfrwt beam="2">  1       -2 0.11157786E+00 0.67544380E+03</pdfrwt>
<totfact> 0.28848527E+01</totfact>
</mgrwt>
</event>
<event>
 4    1  0.5410820E-008  0.8755707E+03  0.7818608E-02  0.9456645E-01
         -2   -1    0    0    0  501 -0.00000000000E+00  0.00000000000E+00  0.49780390341E+03  0.49780390341E+03  0.25500000000E-02 0.  1.
          2   -1    0    0  501    0  0.00000000000E+00 -0.00000000000E+00 -0.22236056788E+04  0.22236056788E+04  0.25500000000E-02 0. -1.
    8880022    1    1    2    0    0 -0.86158568946E+03  0.30042505439E+02 -0.10844479711E+03  0.88226094748E+03  0.15294330000E+03 0.  0.
    8880022    1    1    2    0    0  0.86158568946E+03 -0.30042505439E+02 -0.16173569783E+04  0.18391486347E+04  0.15294330000E+03 0.  0.
<mgrwt>
<rscale>  0 0.87557073E+03</rscale>
<asrwt>0</asrwt>
<pdfrwt beam="1">  1        2 0.34209318E+00 0.87557073E+03</pdfrwt>
<pdfrwt beam="2">  1       -2 0.76585217E-01 0.87557073E+03</pdfrwt>
<totfact> 0.78006683E+00</totfact>
</mgrwt>
</event>
<event>
 4    1  0.5410820E-008  0.4573270E+03  0.7818608E-02  0.1025559E+00
         -2   -1    0    0    0  501 -0.00000000000E+00  0.00000000000E+00  0.43892950162E+03  0.43892950163E+03  0.25500000000E-02 0.  1.
          2   -1    0    0  501    0  0.00000000000E+00 -0.00000000000E+00 -0.12751652989E+04  0.12751652989E+04  0.25500000000E-02 0. -1.
    8880022    1    1    2    0    0  0.20731891018E+03  0.37785599953E+03 -0.10963919856E+04  0.11879492102E+04  0.15294330000E+03 0.  0.
    8880022    1    1    2    0    0 -0.20731891018E+03 -0.37785599953E+03  0.26015618831E+03  0.52614559034E+03  0.15294330000E+03 0.  1.
<mgrwt>
<rscale>  0 0.45732695E+03</rscale>
<asrwt>0</asrwt>
<pdfrwt beam="1">  1        2 0.19617927E+00 0.45732695E+03</pdfrwt>
<pdfrwt beam="2">  1       -2 0.67527616E-01 0.45732695E+03</pdfrwt>
<totfact> 0.36416266E+01</totfact>
</mgrwt>
</event>
<event>
 4    1  0.5410820E-008  0.7785326E+03  0.7818608E-02  0.9591621E-01
          2   -1    0    0  501    0  0.00000000000E+00  0.00000000000E+00  0.16116575599E+04  0.16116575599E+04  0.25500000000E-02 0. -1.
         -2   -1    0    0    0  501 -0.00000000000E+00 -0.00000000000E+00 -0.71761713068E+03  0.71761713069E+03  0.25500000000E-02 0.  1.
    8880022    1    1    2    0    0  0.18094368803E+03 -0.74160688396E+03  0.12504777612E+04  0.14730267048E+04  0.15294330000E+03 0.  0.
    8880022    1    1    2    0    0 -0.18094368803E+03  0.74160688396E+03 -0.35643733202E+03  0.85624798583E+03  0.15294330000E+03 0.  0.
<mgrwt>
<rscale>  0 0.77853262E+03</rscale>
<asrwt>0</asrwt>
<pdfrwt beam="1">  1        2 0.24794732E+00 0.77853262E+03</pdfrwt>
<pdfrwt beam="2">  1       -2 0.11040264E+00 0.77853262E+03</pdfrwt>
<totfact> 0.73183459E+00</totfact>
</mgrwt>
</event>
<event>
 4    1  0.5410820E-008  0.5705929E+03  0.7818608E-02  0.9968368E-01
          2   -1    0    0  501    0  0.00000000000E+00  0.00000000000E+00  0.29292670591E+04  0.29292670591E+04  0.25500000000E-02 0. -1.
         -2   -1    0    0    0  501 -0.00000000000E+00 -0.00000000000E+00 -0.16940422838E+03  0.16940422840E+03  0.25500000000E-02 0.  1.
    8880022    1    1    2    0    0  0.49716331261E+03  0.23454890732E+03  0.22885093204E+04  0.23585697174E+04  0.15294330000E+03 0.  0.
    8880022    1    1    2    0    0 -0.49716331261E+03 -0.23454890732E+03  0.47135351033E+03  0.74010157009E+03  0.15294330000E+03 0.  0.
<mgrwt>
<rscale>  0 0.57059285E+03</rscale>
<asrwt>0</asrwt>
<pdfrwt beam="1">  1        2 0.45065642E+00 0.57059285E+03</pdfrwt>
<pdfrwt beam="2">  1       -2 0.26062192E-01 0.57059285E+03</pdfrwt>
<totfact> 0.27924936E+01</totfact>
</mgrwt>
</event>
<event>
 4    1  0.5410820E-008  0.4379165E+03  0.7818608E-02  0.1031388E+00
         -2   -1    0    0    0  501 -0.00000000000E+00  0.00000000000E+00  0.33258552050E+03  0.33258552051E+03  0.25500000000E-02 0.  1.
          2   -1    0    0  501    0  0.00000000000E+00 -0.00000000000E+00 -0.74979157071E+03  0.74979157071E+03  0.25500000000E-02 0. -1.
    8880022    1    1    2    0    0  0.34742496946E+03  0.21834631763E+03  0.51493114942E+02  0.44093357519E+03  0.15294330000E+03 0.  1.
    8880022    1    1    2    0    0 -0.34742496946E+03 -0.21834631763E+03 -0.46869916515E+03  0.64144351603E+03  0.15294330000E+03 0.  0.
<mgrwt>
<rscale>  0 0.43791652E+03</rscale>
<asrwt>0</asrwt>
<pdfrwt beam="1">  1        2 0.11535255E+00 0.43791652E+03</pdfrwt>
<pdfrwt beam="2">  1       -2 0.51167003E-01 0.43791652E+03</pdfrwt>
<totfact> 0.14007632E+02</totfact>
</mgrwt>
</event>
<event>
 4    1  0.5410820E-008  0.1533982E+03  0.7818608E-02  0.1196358E+00
         -2   -1    0    0    0  501 -0.00000000000E+00  0.00000000000E+00  0.59255130411E+02  0.59255130466E+02  0.25500000000E-02 0.  1.
          2   -1    0    0  501    0  0.00000000000E+00 -0.00000000000E+00 -0.19083643644E+04  0.19083643644E+04  0.25500000000E-02 0. -1.
    8880022    1    1    2    0    0  0.82610595936E+00  0.11775919337E+02 -0.18000397270E+04  0.18065641495E+04  0.15294330000E+03 0. -1.
    8880022    1    1    2    0    0 -0.82610595936E+00 -0.11775919337E+02 -0.49069507035E+02  0.16105534534E+03  0.15294330000E+03 0.  0.
<mgrwt>
<rscale>  0 0.15339820E+03</rscale>
<asrwt>0</asrwt>
<pdfrwt beam="1">  1        2 0.29359447E+00 0.15339820E+03</pdfrwt>
<pdfrwt beam="2">  1       -2 0.91161754E-02 0.15339820E+03</pdfrwt>
<totfact> 0.65363335E+02</totfact>
</mgrwt>
</event>
<event>
 4    1  0.5410820E-008  0.3307267E+03  0.7818608E-02  0.1070816E+00
         -2   -1    0    0    0  501 -0.00000000000E+00  0.00000000000E+00  0.25065535448E+03  0.25065535450E+03  0.25500000000E-02 0.  1.
          2   -1    0    0  501    0  0.00000000000E+00 -0.00000000000E+00 -0.10087408108E+04  0.10087408108E+04  0.25500000000E-02 0. -1.
    8880022    1    1    2    0    0 -0.24539017574E+03  0.16053705347E+03  0.95285315126E+02  0.34417935467E+03  0.15294330000E+03 0.  0.
    8880022    1    1    2    0    0  0.24539017574E+03 -0.16053705347E+03 -0.85337077141E+03  0.91521681059E+03  0.15294330000E+03 0.  0.
<mgrwt>
<rscale>  0 0.33072668E+03</rscale>
<asrwt>0</asrwt>
<pdfrwt beam="1">  1        2 0.15519089E+00 0.33072668E+03</pdfrwt>
<pdfrwt beam="2">  1       -2 0.38562363E-01 0.33072668E+03</pdfrwt>
<totfact> 0.16603213E+02</totfact>
</mgrwt>
</event>
<event>
 4    1  0.5410820E-008  0.3481492E+03  0.7818608E-02  0.1063377E+00
          2   -1    0    0  501    0  0.00000000000E+00  0.00000000000E+00  0.81520332105E+03  0.81520332105E+03  0.25500000000E-02 0. -1.
         -2   -1    0    0    0  501 -0.00000000000E+00 -0.00000000000E+00 -0.56799316840E+03  0.56799316841E+03  0.25500000000E-02 0.  1.
    8880022    1    1    2    0    0 -0.13533820196E+03  0.28195704894E+03 -0.47061784257E+03  0.58539645807E+03  0.15294330000E+03 0.  1.
    8880022    1    1    2    0    0  0.13533820196E+03 -0.28195704894E+03  0.71782799521E+03  0.79780003139E+03  0.15294330000E+03 0.  0.
<mgrwt>
<rscale>  0 0.34814919E+03</rscale>
<asrwt>0</asrwt>
<pdfrwt beam="1">  1        2 0.12541590E+00 0.34814919E+03</pdfrwt>
<pdfrwt beam="2">  1       -2 0.87383564E-01 0.34814919E+03</pdfrwt>
<totfact> 0.40443280E+01</totfact>
</mgrwt>
</event>
<event>
 4    1  0.5410820E-008  0.7339448E+03  0.7818608E-02  0.9660881E-01
         -2   -1    0    0    0  501 -0.00000000000E+00  0.00000000000E+00  0.72168159488E+03  0.72168159489E+03  0.25500000000E-02 0.  1.
          2   -1    0    0  501    0  0.00000000000E+00 -0.00000000000E+00 -0.10119222458E+04  0.10119222458E+04  0.25500000000E-02 0. -1.
    8880022    1    1    2    0    0  0.28701951116E+03 -0.65795368120E+03  0.29888014062E+03  0.79246718409E+03  0.15294330000E+03 0.  0.
    8880022    1    1    2    0    0 -0.28701951116E+03  0.65795368120E+03 -0.58912079156E+03  0.94113665663E+03  0.15294330000E+03 0.  0.
<mgrwt>
<rscale>  0 0.73394475E+03</rscale>
<asrwt>0</asrwt>
<pdfrwt beam="1">  1        2 0.15568035E+00 0.73394475E+03</pdfrwt>
<pdfrwt beam="2">  1       -2 0.11102794E+00 0.73394475E+03</pdfrwt>
<totfact> 0.16194449E+01</totfact>
</mgrwt>
</event>
<event>
 4    1  0.5410820E-008  0.8450478E+03  0.7818608E-02  0.9497008E-01
          2   -1    0    0  501    0  0.00000000000E+00  0.00000000000E+00  0.58116257394E+03  0.58116257395E+03  0.25500000000E-02 0. -1.
         -2   -1    0    0    0  501 -0.00000000000E+00 -0.00000000000E+00 -0.20152392516E+04  0.20152392516E+04  0.25500000000E-02 0.  1.
    8880022    1    1    2    0    0 -0.50504253430E+03  0.66003497413E+03  0.93967388921E+02  0.85025622710E+03  0.15294330000E+03 0.  0.
    8880022    1    1    2    0    0  0.50504253430E+03 -0.66003497413E+03 -0.15280440665E+04  0.17461455984E+04  0.15294330000E+03 0.  0.
<mgrwt>
<rscale>  0 0.84504780E+03</rscale>
<asrwt>0</asrwt>
<pdfrwt beam="1">  1        2 0.89409627E-01 0.84504780E+03</pdfrwt>
<pdfrwt beam="2">  1       -2 0.31003681E+00 0.84504780E+03</pdfrwt>
<totfact> 0.14630648E+00</totfact>
</mgrwt>
</event>
<event>
 4    1  0.5410820E-008  0.1099413E+04  0.7818608E-02  0.9205765E-01
          2   -1    0    0  501    0  0.00000000000E+00  0.00000000000E+00  0.26026760361E+04  0.26026760361E+04  0.25500000000E-02 0. -1.
         -2   -1    0    0    0  501 -0.00000000000E+00 -0.00000000000E+00 -0.11214367947E+04  0.11214367947E+04  0.25500000000E-02 0.  1.
    8880022    1    1    2    0    0  0.95573498117E+02  0.10845192914E+04  0.21658893731E+04  0.24289472650E+04  0.15294330000E+03 0.  0.
    8880022    1    1    2    0    0 -0.95573498117E+02 -0.10845192914E+04 -0.68465013160E+03  0.12951655657E+04  0.15294330000E+03 0.  0.
<mgrwt>
<rscale>  0 0.10994126E+04</rscale>
<asrwt>0</asrwt>
<pdfrwt beam="1">  1        2 0.40041169E+00 0.10994126E+04</pdfrwt>
<pdfrwt beam="2">  1       -2 0.17252874E+00 0.10994126E+04</pdfrwt>
<totfact> 0.61513181E-01</totfact>
</mgrwt>
</event>
<event>
 4    1  0.5410820E-008  0.9865501E+03  0.7818608E-02  0.9323421E-01
         -2   -1    0    0    0  501 -0.00000000000E+00  0.00000000000E+00  0.64800158195E+03  0.64800158196E+03  0.25500000000E-02 0.  1.
          2   -1    0    0  501    0  0.00000000000E+00 -0.00000000000E+00 -0.16724524359E+04  0.16724524359E+04  0.25500000000E-02 0. -1.
    8880022    1    1    2    0    0 -0.38277118176E+02 -0.97387074756E+03 -0.88265171597E+03  0.13237654911E+04  0.15294330000E+03 0.  0.
    8880022    1    1    2    0    0  0.38277118176E+02  0.97387074756E+03 -0.14179913794E+03  0.99668852671E+03  0.15294330000E+03 0.  0.
<mgrwt>
<rscale>  0 0.98655006E+03</rscale>
<asrwt>0</asrwt>
<pdfrwt beam="1">  1        2 0.25730037E+00 0.98655006E+03</pdfrwt>
<pdfrwt beam="2">  1       -2 0.99692552E-01 0.98655006E+03</pdfrwt>
<totfact> 0.84391794E+00</totfact>
</mgrwt>
</event>
<event>
 4    1  0.5410820E-008  0.5029735E+03  0.7818608E-02  0.1013006E+00
          2   -1    0    0  501    0  0.00000000000E+00  0.00000000000E+00  0.14394493368E+04  0.14394493368E+04  0.25500000000E-02 0. -1.
         -2   -1    0    0    0  501 -0.00000000000E+00 -0.00000000000E+00 -0.26554001087E+03  0.26554001089E+03  0.25500000000E-02 0.  1.
    8880022    1    1    2    0    0  0.43094992984E+03  0.20945847112E+03  0.91228121666E+02  0.51117992561E+03  0.15294330000E+03 0.  0.
    8880022    1    1    2    0    0 -0.43094992984E+03 -0.20945847112E+03  0.10826812042E+04  0.11938094220E+04  0.15294330000E+03 0.  0.
<mgrwt>
<rscale>  0 0.50297350E+03</rscale>
<asrwt>0</asrwt>
<pdfrwt beam="1">  1        2 0.22145374E+00 0.50297350E+03</pdfrwt>
<pdfrwt beam="2">  1       -2 0.40852309E-01 0.50297350E+03</pdfrwt>
<totfact> 0.81673659E+01</totfact>
</mgrwt>
</event>
<event>
 4    1  0.5410820E-008  0.4631947E+03  0.7818608E-02  0.1023859E+00
         -2   -1    0    0    0  501 -0.00000000000E+00  0.00000000000E+00  0.26712416361E+03  0.26712416362E+03  0.25500000000E-02 0.  1.
          2   -1    0    0  501    0  0.00000000000E+00 -0.00000000000E+00 -0.10325830178E+04  0.10325830178E+04  0.25500000000E-02 0. -1.
    8880022    1    1    2    0    0  0.28943778536E+03  0.32769418063E+03 -0.68903194017E+03  0.83024958609E+03  0.15294330000E+03 0.  0.
    8880022    1    1    2    0    0 -0.28943778536E+03 -0.32769418063E+03 -0.76426914007E+02  0.46945759532E+03  0.15294330000E+03 0.  0.
<mgrwt>
<rscale>  0 0.46319473E+03</rscale>
<asrwt>0</asrwt>
<pdfrwt beam="1">  1        2 0.15885892E+00 0.46319473E+03</pdfrwt>
<pdfrwt beam="2">  1       -2 0.41096026E-01 0.46319473E+03</pdfrwt>
<totfact> 0.13968551E+02</totfact>
</mgrwt>
</event>
<event>
 4    1  0.5410820E-008  0.1243903E+04  0.7818608E-02  0.9075273E-01
          2   -1    0    0  501    0  0.00000000000E+00  0.00000000000E+00  0.24243280835E+04  0.24243280835E+04  0.25500000000E-02 0. -1.
         -2   -1    0    0    0  501 -0.00000000000E+00 -0.00000000000E+00 -0.10561986530E+04  0.10561986530E+04  0.25500000000E-02 0.  1.
    8880022    1    1    2    0    0  0.11413720231E+04 -0.47029030621E+03  0.17788038466E+04  0.21705846781E+04  0.15294330000E+03 0.  0.
    8880022    1    1    2    0    0 -0.11413720231E+04  0.47029030621E+03 -0.41067441607E+03  0.13099420584E+04  0.15294330000E+03 0.  0.
<mgrwt>
<rscale>  0 0.12439030E+04</rscale>
<asrwt>0</asrwt>
<pdfrwt beam="1">  1        2 0.37297354E+00 0.12439030E+04</pdfrwt>
<pdfrwt beam="2">  1       -2 0.16249210E+00 0.12439030E+04</pdfrwt>
<totfact> 0.90224558E-01</totfact>
</mgrwt>
</event>
<event>
 4    1  0.5410820E-008  0.9172748E+03  0.7818608E-02  0.9404241E-01
         -2   -1    0    0    0  501 -0.00000000000E+00  0.00000000000E+00  0.23879185725E+04  0.23879185725E+04  0.25500000000E-02 0.  1.
          2   -1    0    0  501    0  0.00000000000E+00 -0.00000000000E+00 -0.52022155709E+03  0.52022155710E+03  0.25500000000E-02 0. -1.
    8880022    1    1    2    0    0  0.53014091962E+03 -0.73277014567E+03  0.10785945755E+03  0.92359449795E+03  0.15294330000E+03 0.  0.
    8880022    1    1    2    0    0 -0.53014091962E+03  0.73277014567E+03  0.17598375579E+04  0.19845456317E+04  0.15294330000E+03 0.  0.
<mgrwt>
<rscale>  0 0.91727484E+03</rscale>
<asrwt>0</asrwt>
<pdfrwt beam="1">  1        2 0.80034087E-01 0.91727484E+03</pdfrwt>
<pdfrwt beam="2">  1       -2 0.36737208E+00 0.91727484E+03</pdfrwt>
<totfact> 0.72998966E-01</totfact>
</mgrwt>
</event>
<event>
 4    1  0.5410820E-008  0.1780559E+03  0.7818608E-02  0.1169698E+00
         -2   -1    0    0    0  501 -0.00000000000E+00  0.00000000000E+00  0.76292177901E+02  0.76292177944E+02  0.25500000000E-02 0.  1.
          2   -1    0    0  501    0  0.00000000000E+00 -0.00000000000E+00 -0.42423087773E+03  0.42423087773E+03  0.25500000000E-02 0. -1.
    8880022    1    1    2    0    0 -0.73326550420E+02 -0.54179968523E+02 -0.20975000347E+03  0.27513445614E+03  0.15294330000E+03 0.  0.
    8880022    1    1    2    0    0  0.73326550420E+02  0.54179968523E+02 -0.13818869636E+03  0.22538859954E+03  0.15294330000E+03 0. -1.
<mgrwt>
<rscale>  0 0.17805590E+03</rscale>
<asrwt>0</asrwt>
<pdfrwt beam="1">  1        2 0.65266288E-01 0.17805590E+03</pdfrwt>
<pdfrwt beam="2">  1       -2 0.11737258E-01 0.17805590E+03</pdfrwt>
<totfact> 0.37553809E+03</totfact>
</mgrwt>
</event>
<event>
 4    1  0.5410820E-008  0.2281525E+03  0.7818608E-02  0.1127947E+00
          2   -1    0    0  501    0  0.00000000000E+00  0.00000000000E+00  0.10228160802E+04  0.10228160803E+04  0.25500000000E-02 0. -1.
         -2   -1    0    0    0  501 -0.00000000000E+00 -0.00000000000E+00 -0.22561552558E+03  0.22561552559E+03  0.25500000000E-02 0.  1.
    8880022    1    1    2    0    0 -0.18463576069E+02  0.16828849299E+03  0.94792033001E+03  0.97499052589E+03  0.15294330000E+03 0.  0.
    8880022    1    1    2    0    0  0.18463576069E+02 -0.16828849299E+03 -0.15071977534E+03  0.27344107996E+03  0.15294330000E+03 0.  1.
<mgrwt>
<rscale>  0 0.22815252E+03</rscale>
<asrwt>0</asrwt>
<pdfrwt beam="1">  1        2 0.15735632E+00 0.22815252E+03</pdfrwt>
<pdfrwt beam="2">  1       -2 0.34710081E-01 0.22815252E+03</pdfrwt>
<totfact> 0.20177518E+02</totfact>
</mgrwt>
</event>
<event>
 4    1  0.5410820E-008  0.3804467E+03  0.7818608E-02  0.1050769E+00
         -2   -1    0    0    0  501 -0.00000000000E+00  0.00000000000E+00  0.44313873888E+03  0.44313873888E+03  0.25500000000E-02 0.  1.
          2   -1    0    0  501    0  0.00000000000E+00 -0.00000000000E+00 -0.73704682514E+03  0.73704682515E+03  0.25500000000E-02 0. -1.
    8880022    1    1    2    0    0 -0.26177852210E+03  0.22982608094E+03 -0.58729451312E+03  0.69975318525E+03  0.15294330000E+03 0. -1.
    8880022    1    1    2    0    0  0.26177852210E+03 -0.22982608094E+03  0.29338642685E+03  0.48043237879E+03  0.15294330000E+03 0.  0.
<mgrwt>
<rscale>  0 0.38044668E+03</rscale>
<asrwt>0</asrwt>
<pdfrwt beam="1">  1        2 0.11339182E+00 0.38044668E+03</pdfrwt>
<pdfrwt beam="2">  1       -2 0.68175190E-01 0.38044668E+03</pdfrwt>
<totfact> 0.79154866E+01</totfact>
</mgrwt>
</event>
<event>
 4    1  0.5410820E-008  0.6803663E+03  0.7818608E-02  0.9751410E-01
         -2   -1    0    0    0  501 -0.00000000000E+00  0.00000000000E+00  0.68745495723E+03  0.68745495723E+03  0.25500000000E-02 0.  1.
          2   -1    0    0  501    0  0.00000000000E+00 -0.00000000000E+00 -0.12258304571E+04  0.12258304571E+04  0.25500000000E-02 0. -1.
    8880022    1    1    2    0    0 -0.34505382069E+03 -0.56607822047E+03  0.37304538404E+03  0.77592602897E+03  0.15294330000E+03 0.  0.
    8880022    1    1    2    0    0  0.34505382069E+03  0.56607822047E+03 -0.91142088394E+03  0.11373593854E+04  0.15294330000E+03 0. -1.
<mgrwt>
<rscale>  0 0.68036633E+03</rscale>
<asrwt>0</asrwt>
<pdfrwt beam="1">  1        2 0.18858930E+00 0.68036633E+03</pdfrwt>
<pdfrwt beam="2">  1       -2 0.10576230E+00 0.68036633E+03</pdfrwt>
<totfact> 0.13588036E+01</totfact>
</mgrwt>
</event>
<event>
 4    1  0.5410820E-008  0.5607979E+03  0.7818608E-02  0.9990251E-01
          2   -1    0    0  501    0  0.00000000000E+00  0.00000000000E+00  0.37698814461E+03  0.37698814462E+03  0.25500000000E-02 0. -1.
         -2   -1    0    0    0  501 -0.00000000000E+00 -0.00000000000E+00 -0.10838220147E+04  0.10838220147E+04  0.25500000000E-02 0.  1.
    8880022    1    1    2    0    0  0.11337084448E+02 -0.53942019760E+03 -0.70392762674E+03  0.90000468652E+03  0.15294330000E+03 0.  1.
    8880022    1    1    2    0    0 -0.11337084448E+02  0.53942019760E+03 -0.29062433627E+01  0.56080547281E+03  0.15294330000E+03 0.  0.
<mgrwt>
<rscale>  0 0.56079794E+03</rscale>
<asrwt>0</asrwt>
<pdfrwt beam="1">  1        2 0.57998176E-01 0.56079794E+03</pdfrwt>
<pdfrwt beam="2">  1       -2 0.16674185E+00 0.56079794E+03</pdfrwt>
<totfact> 0.19746310E+01</totfact>
</mgrwt>
</event>
<event>
 4    1  0.5410820E-008  0.7772872E+03  0.7818608E-02  0.9593488E-01
          2   -1    0    0  501    0  0.00000000000E+00  0.00000000000E+00  0.38306460978E+04  0.38306460978E+04  0.25500000000E-02 0. -1.
         -2   -1    0    0    0  501 -0.00000000000E+00 -0.00000000000E+00 -0.46938414293E+03  0.46938414294E+03  0.25500000000E-02 0.  1.
    8880022    1    1    2    0    0 -0.36931799381E+03  0.66662432860E+03 -0.71310719023E+02  0.78055150227E+03  0.15294330000E+03 0.  0.
    8880022    1    1    2    0    0  0.36931799381E+03 -0.66662432860E+03  0.34325726739E+04  0.35194787385E+04  0.15294330000E+03 0.  0.
<mgrwt>
<rscale>  0 0.77728722E+03</rscale>
<asrwt>0</asrwt>
<pdfrwt beam="1">  1        2 0.58933016E+00 0.77728722E+03</pdfrwt>
<pdfrwt beam="2">  1       -2 0.72212946E-01 0.77728722E+03</pdfrwt>
<totfact> 0.88622548E-01</totfact>
</mgrwt>
</event>
<event>
 4    1  0.5410820E-008  0.9162701E+03  0.7818608E-02  0.9405468E-01
         -2   -1    0    0    0  501 -0.00000000000E+00  0.00000000000E+00  0.81558317559E+03  0.81558317560E+03  0.25500000000E-02 0.  1.
          2   -1    0    0  501    0  0.00000000000E+00 -0.00000000000E+00 -0.21176804974E+04  0.21176804974E+04  0.25500000000E-02 0. -1.
    8880022    1    1    2    0    0  0.53792746908E+03  0.72580524470E+03 -0.17024387287E+04  0.19333516217E+04  0.15294330000E+03 0.  0.
    8880022    1    1    2    0    0 -0.53792746908E+03 -0.72580524470E+03  0.40034140688E+03  0.99991205129E+03  0.15294330000E+03 0.  1.
<mgrwt>
<rscale>  0 0.91627008E+03</rscale>
<asrwt>0</asrwt>
<pdfrwt beam="1">  1        2 0.32579700E+00 0.91627008E+03</pdfrwt>
<pdfrwt beam="2">  1       -2 0.12547434E+00 0.91627008E+03</pdfrwt>
<totfact> 0.27608632E+00</totfact>
</mgrwt>
</event>
<event>
 4    1  0.5410820E-008  0.5404005E+03  0.7818608E-02  0.1003741E+00
          2   -1    0    0  501    0  0.00000000000E+00  0.00000000000E+00  0.11361808827E+04  0.11361808827E+04  0.25500000000E-02 0. -1.
         -2   -1    0    0    0  501 -0.00000000000E+00 -0.00000000000E+00 -0.40574203046E+03  0.40574203047E+03  0.25500000000E-02 0.  1.
    8880022    1    1    2    0    0 -0.17046750323E+03 -0.48947103067E+03  0.83196535525E+03  0.99206807471E+03  0.15294330000E+03 0.  0.
    8880022    1    1    2    0    0  0.17046750323E+03  0.48947103067E+03 -0.10152650304E+03  0.54985483844E+03  0.15294330000E+03 0.  0.
<mgrwt>
<rscale>  0 0.54040051E+03</rscale>
<asrwt>0</asrwt>
<pdfrwt beam="1">  1        2 0.17479706E+00 0.54040051E+03</pdfrwt>
<pdfrwt beam="2">  1       -2 0.62421851E-01 0.54040051E+03</pdfrwt>
<totfact> 0.51266893E+01</totfact>
</mgrwt>
</event>
<event>
 4    1  0.5410820E-008  0.7177395E+03  0.7818608E-02  0.9687367E-01
         -2   -1    0    0    0  501 -0.00000000000E+00  0.00000000000E+00  0.44087028360E+03  0.44087028361E+03  0.25500000000E-02 0.  1.
          2   -1    0    0  501    0  0.00000000000E+00 -0.00000000000E+00 -0.14970087620E+04  0.14970087620E+04  0.25500000000E-02 0. -1.
    8880022    1    1    2    0    0 -0.69985561937E+03 -0.44277632299E+02 -0.74160767087E+02  0.72156071752E+03  0.15294330000E+03 0.  0.
    8880022    1    1    2    0    0  0.69985561937E+03  0.44277632299E+02 -0.98197771129E+03  0.12163183281E+04  0.15294330000E+03 0.  0.
<mgrwt>
<rscale>  0 0.71773954E+03</rscale>
<asrwt>0</asrwt>
<pdfrwt beam="1">  1        2 0.23030904E+00 0.71773954E+03</pdfrwt>
<pdfrwt beam="2">  1       -2 0.67826198E-01 0.71773954E+03</pdfrwt>
<totfact> 0.26071351E+01</totfact>
</mgrwt>
</event>
<event>
 4    1  0.5410820E-008  0.5506222E+03  0.7818608E-02  0.1001350E+00
          2   -1    0    0  501    0  0.00000000000E+00  0.00000000000E+00  0.26861291104E+04  0.26861291104E+04  0.25500000000E-02 0. -1.
         -2   -1    0    0    0  501 -0.00000000000E+00 -0.00000000000E+00 -0.22560185305E+03  0.22560185307E+03  0.25500000000E-02 0.  1.
    8880022    1    1    2    0    0 -0.38069616033E+03  0.36723772561E+03  0.20112884879E+03  0.58620609041E+03  0.15294330000E+03 0.  0.
    8880022    1    1    2    0    0  0.38069616033E+03 -0.36723772561E+03  0.22593984086E+04  0.23255248731E+04  0.15294330000E+03 0.  0.
<mgrwt>
<rscale>  0 0.55062216E+03</rscale>
<asrwt>0</asrwt>
<pdfrwt beam="1">  1        2 0.41325063E+00 0.55062216E+03</pdfrwt>
<pdfrwt beam="2">  1       -2 0.34707977E-01 0.55062216E+03</pdfrwt>
<totfact> 0.22936757E+01</totfact>
</mgrwt>
</event>
<event>
 4    1  0.5410820E-008  0.4749765E+03  0.7818608E-02  0.1020525E+00
         -2   -1    0    0    0  501 -0.00000000000E+00  0.00000000000E+00  0.47439296004E+03  0.47439296004E+03  0.25500000000E-02 0.  1.
          2   -1    0    0  501    0  0.00000000000E+00 -0.00000000000E+00 -0.60066320390E+03  0.60066320390E+03  0.25500000000E-02 0. -1.
    8880022    1    1    2    0    0 -0.38330386930E+03 -0.23513655205E+03  0.18217667191E+03  0.50871509427E+03  0.15294330000E+03 0.  1.
    8880022    1    1    2    0    0  0.38330386930E+03  0.23513655205E+03 -0.30844691577E+03  0.56634106967E+03  0.15294330000E+03 0.  0.
<mgrwt>
<rscale>  0 0.47497653E+03</rscale>
<asrwt>0</asrwt>
<pdfrwt beam="1">  1        2 0.92409724E-01 0.47497653E+03</pdfrwt>
<pdfrwt beam="2">  1       -2 0.72983532E-01 0.47497653E+03</pdfrwt>
<totfact> 0.86754268E+01</totfact>
</mgrwt>
</event>
<event>
 4    1  0.5410820E-008  0.1034595E+04  0.7818608E-02  0.9271395E-01
          2   -1    0    0  501    0  0.00000000000E+00  0.00000000000E+00  0.42651520326E+04  0.42651520326E+04  0.25500000000E-02 0. -1.
         -2   -1    0    0    0  501 -0.00000000000E+00 -0.00000000000E+00 -0.95558052796E+03  0.95558052797E+03  0.25500000000E-02 0.  1.
    8880022    1    1    2    0    0 -0.72285449025E+02  0.10206715773E+04 -0.58674709452E+03  0.11893945775E+04  0.15294330000E+03 0.  0.
    8880022    1    1    2    0    0  0.72285449025E+02 -0.10206715773E+04  0.38963185991E+04  0.40313379831E+04  0.15294330000E+03 0.  0.
<mgrwt>
<rscale>  0 0.10345952E+04</rscale>
<asrwt>0</asrwt>
<pdfrwt beam="1">  1        2 0.65617723E+00 0.10345952E+04</pdfrwt>
<pdfrwt beam="2">  1       -2 0.14701239E+00 0.10345952E+04</pdfrwt>
<totfact> 0.67674002E-02</totfact>
</mgrwt>
</event>
<event>
 4    1  0.5410820E-008  0.1109817E+04  0.7818608E-02  0.9195676E-01
          2   -1    0    0  501    0  0.00000000000E+00  0.00000000000E+00  0.11676687329E+04  0.11676687329E+04  0.25500000000E-02 0. -1.
         -2   -1    0    0    0  501 -0.00000000000E+00 -0.00000000000E+00 -0.22219831958E+04  0.22219831958E+04  0.25500000000E-02 0.  1.
    8880022    1    1    2    0    0  0.10609305041E+04  0.28762409869E+03  0.70118257983E+03  0.13127641906E+04  0.15294330000E+03 0.  0.
    8880022    1    1    2    0    0 -0.10609305041E+04 -0.28762409869E+03 -0.17554970428E+04  0.20768877382E+04  0.15294330000E+03 0.  0.
<mgrwt>
<rscale>  0 0.11098166E+04</rscale>
<asrwt>0</asrwt>
<pdfrwt beam="1">  1        2 0.17964134E+00 0.11098166E+04</pdfrwt>
<pdfrwt beam="2">  1       -2 0.34184357E+00 0.11098166E+04</pdfrwt>
<totfact> 0.34446197E-01</totfact>
</mgrwt>
</event>
<event>
 4    1  0.5410820E-008  0.3690426E+03  0.7818608E-02  0.1055060E+00
         -2   -1    0    0    0  501 -0.00000000000E+00  0.00000000000E+00  0.39343741078E+03  0.39343741079E+03  0.25500000000E-02 0.  1.
          2   -1    0    0  501    0  0.00000000000E+00 -0.00000000000E+00 -0.44615258777E+03  0.44615258777E+03  0.25500000000E-02 0. -1.
    8880022    1    1    2    0    0 -0.16512765170E+03 -0.29246131633E+03  0.17237943650E+03  0.40731693563E+03  0.15294330000E+03 0.  0.
    8880022    1    1    2    0    0  0.16512765170E+03  0.29246131633E+03 -0.22509461349E+03  0.43227306294E+03  0.15294330000E+03 0.  0.
<mgrwt>
<rscale>  0 0.36904257E+03</rscale>
<asrwt>0</asrwt>
<pdfrwt beam="1">  1        2 0.68638859E-01 0.36904257E+03</pdfrwt>
<pdfrwt beam="2">  1       -2 0.60528833E-01 0.36904257E+03</pdfrwt>
<totfact> 0.18391301E+02</totfact>
</mgrwt>
</event>
<event>
 4    1  0.5410820E-008  0.2361960E+03  0.7818608E-02  0.1122353E+00
          2   -1    0    0  501    0  0.00000000000E+00  0.00000000000E+00  0.17870907206E+03  0.17870907208E+03  0.25500000000E-02 0. -1.
         -2   -1    0    0    0  501 -0.00000000000E+00 -0.00000000000E+00 -0.40234713821E+03  0.40234713822E+03  0.25500000000E-02 0.  1.
    8880022    1    1    2    0    0  0.77031424353E+02  0.16267471614E+03 -0.24935718228E+03  0.34346406068E+03  0.15294330000E+03 0.  0.
    8880022    1    1    2    0    0 -0.77031424353E+02 -0.16267471614E+03  0.25719116131E+02  0.23759214962E+03  0.15294330000E+03 0.  1.
<mgrwt>
<rscale>  0 0.23619601E+03</rscale>
<asrwt>0</asrwt>
<pdfrwt beam="1">  1        2 0.27493703E-01 0.23619601E+03</pdfrwt>
<pdfrwt beam="2">  1       -2 0.61899560E-01 0.23619601E+03</pdfrwt>
<totfact> 0.48011365E+02</totfact>
</mgrwt>
</event>
<event>
 4    1  0.5410820E-008  0.5310350E+03  0.7818608E-02  0.1005981E+00
          2   -1    0    0  501    0  0.00000000000E+00  0.00000000000E+00  0.16409473395E+04  0.16409473395E+04  0.25500000000E-02 0. -1.
         -2   -1    0    0    0  501 -0.00000000000E+00 -0.00000000000E+00 -0.32615447974E+03  0.32615447975E+03  0.25500000000E-02 0.  1.
    8880022    1    1    2    0    0 -0.46745584026E+03 -0.20022886937E+03 -0.19112017413E+02  0.53137885256E+03  0.15294330000E+03 0.  0.
    8880022    1    1    2    0    0  0.46745584026E+03  0.20022886937E+03  0.13339048771E+04  0.14357229667E+04  0.15294330000E+03 0. -1.
<mgrwt>
<rscale>  0 0.53103504E+03</rscale>
<asrwt>0</asrwt>
<pdfrwt beam="1">  1        2 0.25245344E+00 0.53103504E+03</pdfrwt>
<pdfrwt beam="2">  1       -2 0.50177613E-01 0.53103504E+03</pdfrwt>
<totfact> 0.41943507E+01</totfact>
</mgrwt>
</event>
<event>
 4    1  0.5410820E-008  0.7646051E+03  0.7818608E-02  0.9612712E-01
          2   -1    0    0  501    0  0.00000000000E+00  0.00000000000E+00  0.20909505019E+04  0.20909505019E+04  0.25500000000E-02 0. -1.
         -2   -1    0    0    0  501 -0.00000000000E+00 -0.00000000000E+00 -0.37263628471E+03  0.37263628472E+03  0.25500000000E-02 0.  1.
    8880022    1    1    2    0    0  0.55334386234E+03  0.50501479536E+03  0.14746616025E+04  0.16610983922E+04  0.15294330000E+03 0.  0.
    8880022    1    1    2    0    0 -0.55334386234E+03 -0.50501479536E+03  0.24365261462E+03  0.80248839440E+03  0.15294330000E+03 0.  0.
<mgrwt>
<rscale>  0 0.76460514E+03</rscale>
<asrwt>0</asrwt>
<pdfrwt beam="1">  1        2 0.32168470E+00 0.76460514E+03</pdfrwt>
<pdfrwt beam="2">  1       -2 0.57328659E-01 0.76460514E+03</pdfrwt>
<totfact> 0.17529016E+01</totfact>
</mgrwt>
</event>
<event>
 4    1  0.5410820E-008  0.5357585E+03  0.7818608E-02  0.1004845E+00
         -2   -1    0    0    0  501 -0.00000000000E+00  0.00000000000E+00  0.28722443851E+03  0.28722443852E+03  0.25500000000E-02 0.  1.
          2   -1    0    0  501    0  0.00000000000E+00 -0.00000000000E+00 -0.14979155605E+04  0.14979155605E+04  0.25500000000E-02 0. -1.
    8880022    1    1    2    0    0  0.50096200511E+03  0.11261720651E+03 -0.11202902121E+04  0.12418081085E+04  0.15294330000E+03 0.  0.
    8880022    1    1    2    0    0 -0.50096200511E+03 -0.11261720651E+03 -0.90400909805E+02  0.54333189054E+03  0.15294330000E+03 0.  0.
<mgrwt>
<rscale>  0 0.53575855E+03</rscale>
<asrwt>0</asrwt>
<pdfrwt beam="1">  1        2 0.23044854E+00 0.53575855E+03</pdfrwt>
<pdfrwt beam="2">  1       -2 0.44188376E-01 0.53575855E+03</pdfrwt>
<totfact> 0.64708860E+01</totfact>
</mgrwt>
</event>
<event>
 4    1  0.5410820E-008  0.5428953E+03  0.7818608E-02  0.1003152E+00
         -2   -1    0    0    0  501 -0.00000000000E+00  0.00000000000E+00  0.30632301337E+03  0.30632301338E+03  0.25500000000E-02 0.  1.
          2   -1    0    0  501    0  0.00000000000E+00 -0.00000000000E+00 -0.17638428343E+04  0.17638428343E+04  0.25500000000E-02 0. -1.
    8880022    1    1    2    0    0 -0.49806628356E+03 -0.15255689398E+03 -0.14265798442E+04  0.15263896401E+04  0.15294330000E+03 0. -1.
    8880022    1    1    2    0    0  0.49806628356E+03  0.15255689398E+03 -0.30939976762E+02  0.54377620755E+03  0.15294330000E+03 0.  0.
<mgrwt>
<rscale>  0 0.54289528E+03</rscale>
<asrwt>0</asrwt>
<pdfrwt beam="1">  1        2 0.27136043E+00 0.54289528E+03</pdfrwt>
<pdfrwt beam="2">  1       -2 0.47126618E-01 0.54289528E+03</pdfrwt>
<totfact> 0.40756446E+01</totfact>
</mgrwt>
</event>
<event>
 4    1  0.5410820E-008  0.2272845E+03  0.7818608E-02  0.1128566E+00
          2   -1    0    0  501    0  0.00000000000E+00  0.00000000000E+00  0.33510249480E+04  0.33510249480E+04  0.25500000000E-02 0. -1.
         -2   -1    0    0    0  501 -0.00000000000E+00 -0.00000000000E+00 -0.89078904184E+02  0.89078904221E+02  0.25500000000E-02 0.  1.
    8880022    1    1    2    0    0  0.16572669973E+03 -0.28306506658E+02  0.31951271866E+04  0.32032008974E+04  0.15294330000E+03 0. -1.
    8880022    1    1    2    0    0 -0.16572669973E+03  0.28306506658E+02  0.66818857213E+02  0.23690295485E+03  0.15294330000E+03 0.  0.
<mgrwt>
<rscale>  0 0.22728451E+03</rscale>
<asrwt>0</asrwt>
<pdfrwt beam="1">  1        2 0.51554234E+00 0.22728451E+03</pdfrwt>
<pdfrwt beam="2">  1       -2 0.13704446E-01 0.22728451E+03</pdfrwt>
<totfact> 0.51724836E+01</totfact>
</mgrwt>
</event>
<event>
 4    1  0.5410820E-008  0.4321887E+03  0.7818608E-02  0.1033171E+00
         -2   -1    0    0    0  501 -0.00000000000E+00  0.00000000000E+00  0.48316634785E+03  0.48316634785E+03  0.25500000000E-02 0.  1.
          2   -1    0    0  501    0  0.00000000000E+00 -0.00000000000E+00 -0.50169830004E+03  0.50169830005E+03  0.25500000000E-02 0. -1.
    8880022    1    1    2    0    0 -0.37276663505E+03 -0.15633447840E+03 -0.24513956124E+03  0.49687069832E+03  0.15294330000E+03 0.  0.
    8880022    1    1    2    0    0  0.37276663505E+03  0.15633447840E+03  0.22660760904E+03  0.48799394959E+03  0.15294330000E+03 0.  0.
<mgrwt>
<rscale>  0 0.43218872E+03</rscale>
<asrwt>0</asrwt>
<pdfrwt beam="1">  1        2 0.77184354E-01 0.43218872E+03</pdfrwt>
<pdfrwt beam="2">  1       -2 0.74333284E-01 0.43218872E+03</pdfrwt>
<totfact> 0.10319367E+02</totfact>
</mgrwt>
</event>
<event>
 4    1  0.5410820E-008  0.1444689E+04  0.7818608E-02  0.8922091E-01
         -2   -1    0    0    0  501 -0.00000000000E+00  0.00000000000E+00  0.91746023142E+03  0.91746023143E+03  0.25500000000E-02 0.  1.
          2   -1    0    0  501    0  0.00000000000E+00 -0.00000000000E+00 -0.30223560346E+04  0.30223560346E+04  0.25500000000E-02 0. -1.
    8880022    1    1    2    0    0 -0.68798193662E+03  0.12611170583E+04 -0.20320890446E+04  0.24932935884E+04  0.15294330000E+03 0.  0.
    8880022    1    1    2    0    0  0.68798193662E+03 -0.12611170583E+04 -0.72806758636E+02  0.14465226777E+04  0.15294330000E+03 0.  0.
<mgrwt>
<rscale>  0 0.14446893E+04</rscale>
<asrwt>0</asrwt>
<pdfrwt beam="1">  1        2 0.46497785E+00 0.14446893E+04</pdfrwt>
<pdfrwt beam="2">  1       -2 0.14114773E+00 0.14446893E+04</pdfrwt>
<totfact> 0.56624584E-01</totfact>
</mgrwt>
</event>
<event>
 4    1  0.5410820E-008  0.1229251E+04  0.7818608E-02  0.9087631E-01
          2   -1    0    0  501    0  0.00000000000E+00  0.00000000000E+00  0.19113615392E+04  0.19113615392E+04  0.25500000000E-02 0. -1.
         -2   -1    0    0    0  501 -0.00000000000E+00 -0.00000000000E+00 -0.18051812632E+04  0.18051812632E+04  0.25500000000E-02 0.  1.
    8880022    1    1    2    0    0  0.10258240192E+04 -0.65981214724E+03 -0.13400644082E+04  0.18184694826E+04  0.15294330000E+03 0.  0.
    8880022    1    1    2    0    0 -0.10258240192E+04  0.65981214724E+03  0.14462446842E+04  0.18980733198E+04  0.15294330000E+03 0.  0.
<mgrwt>
<rscale>  0 0.12292513E+04</rscale>
<asrwt>0</asrwt>
<pdfrwt beam="1">  1        2 0.29405562E+00 0.12292513E+04</pdfrwt>
<pdfrwt beam="2">  1       -2 0.27772020E+00 0.12292513E+04</pdfrwt>
<totfact> 0.31580465E-01</totfact>
</mgrwt>
</event>
<event>
 4    1  0.5410820E-008  0.5120189E+03  0.7818608E-02  0.1010689E+00
          2   -1    0    0  501    0  0.00000000000E+00  0.00000000000E+00  0.14204942107E+04  0.14204942107E+04  0.25500000000E-02 0. -1.
         -2   -1    0    0    0  501 -0.00000000000E+00 -0.00000000000E+00 -0.41840838371E+03  0.41840838371E+03  0.25500000000E-02 0.  1.
    8880022    1    1    2    0    0 -0.44705307424E+03  0.19726941209E+03 -0.18633843652E+03  0.54487185473E+03  0.15294330000E+03 0.  0.
    8880022    1    1    2    0    0  0.44705307424E+03 -0.19726941209E+03  0.11884242635E+04  0.12940307397E+04  0.15294330000E+03 0.  0.
<mgrwt>
<rscale>  0 0.51201887E+03</rscale>
<asrwt>0</asrwt>
<pdfrwt beam="1">  1        2 0.21853757E+00 0.51201887E+03</pdfrwt>
<pdfrwt beam="2">  1       -2 0.64370520E-01 0.51201887E+03</pdfrwt>
<totfact> 0.33121643E+01</totfact>
</mgrwt>
</event>
<event>
 4    1  0.5410820E-008  0.2987232E+03  0.7818608E-02  0.1085881E+00
         -2   -1    0    0    0  501 -0.00000000000E+00  0.00000000000E+00  0.95639870901E+02  0.95639870935E+02  0.25500000000E-02 0.  1.
          2   -1    0    0  501    0  0.00000000000E+00 -0.00000000000E+00 -0.28803155741E+04  0.28803155741E+04  0.25500000000E-02 0. -1.
    8880022    1    1    2    0    0 -0.25658634354E+03  0.27058188253E+01 -0.26157997519E+04  0.26328015246E+04  0.15294330000E+03 0.  0.
    8880022    1    1    2    0    0  0.25658634354E+03 -0.27058188253E+01 -0.16887595134E+03  0.34315392043E+03  0.15294330000E+03 0.  1.
<mgrwt>
<rscale>  0 0.29872316E+03</rscale>
<asrwt>0</asrwt>
<pdfrwt beam="1">  1        2 0.44312541E+00 0.29872316E+03</pdfrwt>
<pdfrwt beam="2">  1       -2 0.14713829E-01 0.29872316E+03</pdfrwt>
<totfact> 0.86136877E+01</totfact>
</mgrwt>
</event>
<event>
 4    1  0.5410820E-008  0.5442661E+03  0.7818608E-02  0.1002830E+00
          2   -1    0    0  501    0  0.00000000000E+00  0.00000000000E+00  0.12317814953E+04  0.12317814953E+04  0.25500000000E-02 0. -1.
         -2   -1    0    0    0  501 -0.00000000000E+00 -0.00000000000E+00 -0.49305426295E+03  0.49305426296E+03  0.25500000000E-02 0.  1.
    8880022    1    1    2    0    0 -0.44410204616E+03 -0.27496792053E+03 -0.24788507375E+03  0.59805739484E+03  0.15294330000E+03 0.  0.
    8880022    1    1    2    0    0  0.44410204616E+03  0.27496792053E+03  0.98661230608E+03  0.11267783634E+04  0.15294330000E+03 0.  0.
<mgrwt>
<rscale>  0 0.54426615E+03</rscale>
<asrwt>0</asrwt>
<pdfrwt beam="1">  1        2 0.18950484E+00 0.54426615E+03</pdfrwt>
<pdfrwt beam="2">  1       -2 0.75854503E-01 0.54426615E+03</pdfrwt>
<totfact> 0.29520877E+01</totfact>
</mgrwt>
</event>
<event>
 4    1  0.5410820E-008  0.2351892E+03  0.7818608E-02  0.1123040E+00
         -2   -1    0    0    0  501 -0.00000000000E+00  0.00000000000E+00  0.55797456477E+03  0.55797456477E+03  0.25500000000E-02 0.  1.
          2   -1    0    0  501    0  0.00000000000E+00 -0.00000000000E+00 -0.96927943344E+03  0.96927943344E+03  0.25500000000E-02 0. -1.
    8880022    1    1    2    0    0 -0.13498580331E+03  0.11705188223E+03  0.51787137518E+03  0.56877475724E+03  0.15294330000E+03 0.  1.
    8880022    1    1    2    0    0  0.13498580331E+03 -0.11705188223E+03 -0.92917624385E+03  0.95847924097E+03  0.15294330000E+03 0.  0.
<mgrwt>
<rscale>  0 0.23518921E+03</rscale>
<asrwt>0</asrwt>
<pdfrwt beam="1">  1        2 0.14911991E+00 0.23518921E+03</pdfrwt>
<pdfrwt beam="2">  1       -2 0.85842241E-01 0.23518921E+03</pdfrwt>
<totfact> 0.34260506E+01</totfact>
</mgrwt>
</event>
<event>
 4    1  0.5410820E-008  0.2490151E+03  0.7818608E-02  0.1113929E+00
          2   -1    0    0  501    0  0.00000000000E+00  0.00000000000E+00  0.65064987262E+03  0.65064987262E+03  0.25500000000E-02 0. -1.
         -2   -1    0    0    0  501 -0.00000000000E+00 -0.00000000000E+00 -0.20316469645E+03  0.20316469646E+03  0.25500000000E-02 0.  1.
    8880022    1    1    2    0    0 -0.76356220849E+01  0.19636337043E+03 -0.87317412102E+02  0.26388038851E+03  0.15294330000E+03 0.  1.
    8880022    1    1    2    0    0  0.76356220849E+01 -0.19636337043E+03  0.53480258827E+03  0.58993418057E+03  0.15294330000E+03 0.  0.
<mgrwt>
<rscale>  0 0.24901512E+03</rscale>
<asrwt>0</asrwt>
<pdfrwt beam="1">  1        2 0.10009998E+00 0.24901512E+03</pdfrwt>
<pdfrwt beam="2">  1       -2 0.31256107E-01 0.24901512E+03</pdfrwt>
<totfact> 0.43793037E+02</totfact>
</mgrwt>
</event>
<event>
 4    1  0.5410820E-008  0.1658487E+04  0.7818608E-02  0.8785402E-01
         -2   -1    0    0    0  501 -0.00000000000E+00  0.00000000000E+00  0.23353532413E+04  0.23353532414E+04  0.25500000000E-02 0.  1.
          2   -1    0    0  501    0  0.00000000000E+00 -0.00000000000E+00 -0.17009464938E+04  0.17009464938E+04  0.25500000000E-02 0. -1.
    8880022    1    1    2    0    0  0.70788820065E+03 -0.14920057983E+04 -0.80202784642E+03  0.18422343299E+04  0.15294330000E+03 0.  0.
    8880022    1    1    2    0    0 -0.70788820065E+03  0.14920057983E+04  0.14364345940E+04  0.21940654053E+04  0.15294330000E+03 0.  0.
<mgrwt>
<rscale>  0 0.16584869E+04</rscale>
<asrwt>0</asrwt>
<pdfrwt beam="1">  1        2 0.26168408E+00 0.16584869E+04</pdfrwt>
<pdfrwt beam="2">  1       -2 0.35928512E+00 0.16584869E+04</pdfrwt>
<totfact> 0.12292700E-01</totfact>
</mgrwt>
</event>
<event>
 4    1  0.5410820E-008  0.5796168E+03  0.7818608E-02  0.9948621E-01
          2   -1    0    0  501    0  0.00000000000E+00  0.00000000000E+00  0.12107950368E+04  0.12107950368E+04  0.25500000000E-02 0. -1.
         -2   -1    0    0    0  501 -0.00000000000E+00 -0.00000000000E+00 -0.58405158932E+03  0.58405158933E+03  0.25500000000E-02 0.  1.
    8880022    1    1    2    0    0  0.36488266482E+03  0.42358544043E+03 -0.33682820833E+03  0.67037965316E+03  0.15294330000E+03 0.  1.
    8880022    1    1    2    0    0 -0.36488266482E+03 -0.42358544043E+03  0.96357165577E+03  0.11244669729E+04  0.15294330000E+03 0.  0.
<mgrwt>
<rscale>  0 0.57961680E+03</rscale>
<asrwt>0</asrwt>
<pdfrwt beam="1">  1        2 0.18627616E+00 0.57961680E+03</pdfrwt>
<pdfrwt beam="2">  1       -2 0.89854092E-01 0.57961680E+03</pdfrwt>
<totfact> 0.20620046E+01</totfact>
</mgrwt>
</event>
<event>
 4    1  0.5410820E-008  0.5727954E+03  0.7818608E-02  0.9963512E-01
         -2   -1    0    0    0  501 -0.00000000000E+00  0.00000000000E+00  0.18339444003E+03  0.18339444005E+03  0.25500000000E-02 0.  1.
          2   -1    0    0  501    0  0.00000000000E+00 -0.00000000000E+00 -0.19755176738E+04  0.19755176738E+04  0.25500000000E-02 0. -1.
    8880022    1    1    2    0    0 -0.33178440688E+03 -0.44115982989E+03 -0.12277364488E+04  0.13547809155E+04  0.15294330000E+03 0.  0.
    8880022    1    1    2    0    0  0.33178440688E+03  0.44115982989E+03 -0.56438678496E+03  0.80413119838E+03  0.15294330000E+03 0.  0.
<mgrwt>
<rscale>  0 0.57279537E+03</rscale>
<asrwt>0</asrwt>
<pdfrwt beam="1">  1        2 0.30392578E+00 0.57279537E+03</pdfrwt>
<pdfrwt beam="2">  1       -2 0.28214531E-01 0.57279537E+03</pdfrwt>
<totfact> 0.83135590E+01</totfact>
</mgrwt>
</event>
<event>
 4    1  0.5410820E-008  0.5400249E+03  0.7818608E-02  0.1003829E+00
         -2   -1    0    0    0  501 -0.00000000000E+00  0.00000000000E+00  0.46320221433E+03  0.46320221434E+03  0.25500000000E-02 0.  1.
          2   -1    0    0  501    0  0.00000000000E+00 -0.00000000000E+00 -0.10111441844E+04  0.10111441844E+04  0.25500000000E-02 0. -1.
    8880022    1    1    2    0    0  0.45574996438E+03  0.24602276662E+03 -0.72680791535E+03  0.90547039187E+03  0.15294330000E+03 0.  0.
    8880022    1    1    2    0    0 -0.45574996438E+03 -0.24602276662E+03  0.17886594533E+03  0.56887600683E+03  0.15294330000E+03 0.  0.
<mgrwt>
<rscale>  0 0.54002489E+03</rscale>
<asrwt>0</asrwt>
<pdfrwt beam="1">  1        2 0.15556064E+00 0.54002489E+03</pdfrwt>
<pdfrwt beam="2">  1       -2 0.71261879E-01 0.54002489E+03</pdfrwt>
<totfact> 0.45989652E+01</totfact>
</mgrwt>
</event>
<event>
 4    1  0.5410820E-008  0.4696276E+03  0.7818608E-02  0.1022025E+00
          2   -1    0    0  501    0  0.00000000000E+00  0.00000000000E+00  0.57208005759E+03  0.57208005760E+03  0.25500000000E-02 0. -1.
         -2   -1    0    0    0  501 -0.00000000000E+00 -0.00000000000E+00 -0.62334531485E+03  0.62334531486E+03  0.25500000000E-02 0.  1.
    8880022    1    1    2    0    0  0.22726895212E+03 -0.38145414615E+03  0.34356109122E+03  0.58187998645E+03  0.15294330000E+03 0.  0.
    8880022    1    1    2    0    0 -0.22726895212E+03  0.38145414615E+03 -0.39482634848E+03  0.61354538600E+03  0.15294330000E+03 0.  0.
<mgrwt>
<rscale>  0 0.46962761E+03</rscale>
<asrwt>0</asrwt>
<pdfrwt beam="1">  1        2 0.88012316E-01 0.46962761E+03</pdfrwt>
<pdfrwt beam="2">  1       -2 0.95899280E-01 0.46962761E+03</pdfrwt>
<totfact> 0.49672417E+01</totfact>
</mgrwt>
</event>
<event>
 4    1  0.5410820E-008  0.4678011E+03  0.7818608E-02  0.1022543E+00
         -2   -1    0    0    0  501 -0.00000000000E+00  0.00000000000E+00  0.38540645671E+03  0.38540645672E+03  0.25500000000E-02 0.  1.
          2   -1    0    0  501    0  0.00000000000E+00 -0.00000000000E+00 -0.82518344872E+03  0.82518344872E+03  0.25500000000E-02 0. -1.
    8880022    1    1    2    0    0 -0.13184149084E+03 -0.42197632731E+03 -0.55793247459E+03  0.72809786343E+03  0.15294330000E+03 0.  0.
    8880022    1    1    2    0    0  0.13184149084E+03  0.42197632731E+03  0.11815548258E+03  0.48249204200E+03  0.15294330000E+03 0.  0.
<mgrwt>
<rscale>  0 0.46780108E+03</rscale>
<asrwt>0</asrwt>
<pdfrwt beam="1">  1        2 0.12695130E+00 0.46780108E+03</pdfrwt>
<pdfrwt beam="2">  1       -2 0.59293301E-01 0.46780108E+03</pdfrwt>
<totfact> 0.91054793E+01</totfact>
</mgrwt>
</event>
<event>
 4    1  0.5410820E-008  0.4356942E+03  0.7818608E-02  0.1032076E+00
         -2   -1    0    0    0  501 -0.00000000000E+00  0.00000000000E+00  0.28536766832E+03  0.28536766833E+03  0.25500000000E-02 0.  1.
          2   -1    0    0  501    0  0.00000000000E+00 -0.00000000000E+00 -0.10233901989E+04  0.10233901989E+04  0.25500000000E-02 0. -1.
    8880022    1    1    2    0    0  0.34999931482E+03  0.20961446998E+03  0.18121141426E+02  0.43607083734E+03  0.15294330000E+03 0.  0.
    8880022    1    1    2    0    0 -0.34999931482E+03 -0.20961446998E+03 -0.75614367201E+03  0.87268702988E+03  0.15294330000E+03 0.  0.
<mgrwt>
<rscale>  0 0.43569416E+03</rscale>
<asrwt>0</asrwt>
<pdfrwt beam="1">  1        2 0.15744464E+00 0.43569416E+03</pdfrwt>
<pdfrwt beam="2">  1       -2 0.43902719E-01 0.43569416E+03</pdfrwt>
<totfact> 0.12475733E+02</totfact>
</mgrwt>
</event>
<event>
 4    1  0.5410820E-008  0.1566180E+03  0.7818608E-02  0.1192569E+00
         -2   -1    0    0    0  501 -0.00000000000E+00  0.00000000000E+00  0.65914483113E+02  0.65914483163E+02  0.25500000000E-02 0.  1.
          2   -1    0    0  501    0  0.00000000000E+00 -0.00000000000E+00 -0.56241615522E+03  0.56241615523E+03  0.25500000000E-02 0. -1.
    8880022    1    1    2    0    0 -0.23981196379E+02 -0.23716186162E+02 -0.43098726082E+03  0.45856213022E+03  0.15294330000E+03 0. -1.
    8880022    1    1    2    0    0  0.23981196379E+02  0.23716186162E+02 -0.65514411289E+02  0.16976850817E+03  0.15294330000E+03 0.  0.
<mgrwt>
<rscale>  0 0.15661803E+03</rscale>
<asrwt>0</asrwt>
<pdfrwt beam="1">  1        2 0.86525559E-01 0.15661803E+03</pdfrwt>
<pdfrwt beam="2">  1       -2 0.10140690E-01 0.15661803E+03</pdfrwt>
<totfact> 0.34539404E+03</totfact>
</mgrwt>
</event>
<event>
 4    1  0.5410820E-008  0.3838153E+03  0.7818608E-02  0.1049533E+00
          2   -1    0    0  501    0  0.00000000000E+00  0.00000000000E+00  0.24636101638E+03  0.24636101639E+03  0.25500000000E-02 0. -1.
         -2   -1    0    0    0  501 -0.00000000000E+00 -0.00000000000E+00 -0.98479718179E+03  0.98479718180E+03  0.25500000000E-02 0.  1.
    8880022    1    1    2    0    0 -0.18889432384E+03  0.29705470470E+03 -0.75502868305E+03  0.84698437318E+03  0.15294330000E+03 0.  0.
    8880022    1    1    2    0    0  0.18889432384E+03 -0.29705470470E+03  0.16592517636E+02  0.38417382500E+03  0.15294330000E+03 0.  0.
<mgrwt>
<rscale>  0 0.38381534E+03</rscale>
<asrwt>0</asrwt>
<pdfrwt beam="1">  1        2 0.37901695E-01 0.38381534E+03</pdfrwt>
<pdfrwt beam="2">  1       -2 0.15150726E+00 0.38381534E+03</pdfrwt>
<totfact> 0.41601291E+01</totfact>
</mgrwt>
</event>
<event>
 4    1  0.5410820E-008  0.7659801E+03  0.7818608E-02  0.9610608E-01
         -2   -1    0    0    0  501 -0.00000000000E+00  0.00000000000E+00  0.32848113576E+03  0.32848113577E+03  0.25500000000E-02 0.  1.
          2   -1    0    0  501    0  0.00000000000E+00 -0.00000000000E+00 -0.21545891570E+04  0.21545891570E+04  0.25500000000E-02 0. -1.
    8880022    1    1    2    0    0  0.49384657398E+03 -0.56519863232E+03 -0.39966860815E+03  0.86397950321E+03  0.15294330000E+03 0.  0.
    8880022    1    1    2    0    0 -0.49384657398E+03  0.56519863232E+03 -0.14264394131E+04  0.16190907895E+04  0.15294330000E+03 0.  0.
<mgrwt>
<rscale>  0 0.76598015E+03</rscale>
<asrwt>0</asrwt>
<pdfrwt beam="1">  1        2 0.33147525E+00 0.76598015E+03</pdfrwt>
<pdfrwt beam="2">  1       -2 0.50535561E-01 0.76598015E+03</pdfrwt>
<totfact> 0.20986810E+01</totfact>
</mgrwt>
</event>
<event>
 4    1  0.5410820E-008  0.9623021E+03  0.7818608E-02  0.9350886E-01
          2   -1    0    0  501    0  0.00000000000E+00  0.00000000000E+00  0.24113771926E+04  0.24113771926E+04  0.25500000000E-02 0. -1.
         -2   -1    0    0    0  501 -0.00000000000E+00 -0.00000000000E+00 -0.51314328372E+03  0.51314328372E+03  0.25500000000E-02 0.  1.
    8880022    1    1    2    0    0  0.60301700927E+03 -0.73416904925E+03  0.21561403650E+03  0.98616163589E+03  0.15294330000E+03 0.  0.
    8880022    1    1    2    0    0 -0.60301700927E+03  0.73416904925E+03  0.16826198724E+04  0.19383588404E+04  0.15294330000E+03 0.  0.
<mgrwt>
<rscale>  0 0.96230211E+03</rscale>
<asrwt>0</asrwt>
<pdfrwt beam="1">  1        2 0.37098110E+00 0.96230211E+03</pdfrwt>
<pdfrwt beam="2">  1       -2 0.78945121E-01 0.96230211E+03</pdfrwt>
<totfact> 0.56538528E+00</totfact>
</mgrwt>
</event>
<event>
 4    1  0.5410820E-008  0.2440172E+03  0.7818608E-02  0.1117145E+00
          2   -1    0    0  501    0  0.00000000000E+00  0.00000000000E+00  0.40271118015E+04  0.40271118015E+04  0.25500000000E-02 0. -1.
         -2   -1    0    0    0  501 -0.00000000000E+00 -0.00000000000E+00 -0.48593235418E+02  0.48593235485E+02  0.25500000000E-02 0.  1.
    8880022    1    1    2    0    0 -0.16736593919E+03  0.90229506434E+02  0.36890304965E+04  0.36970921517E+04  0.15294330000E+03 0.  0.
    8880022    1    1    2    0    0  0.16736593919E+03 -0.90229506434E+02  0.28948806965E+03  0.37861288530E+03  0.15294330000E+03 0.  0.
<mgrwt>
<rscale>  0 0.24401716E+03</rscale>
<asrwt>0</asrwt>
<pdfrwt beam="1">  1        2 0.61955534E+00 0.24401716E+03</pdfrwt>
<pdfrwt beam="2">  1       -2 0.74758862E-02 0.24401716E+03</pdfrwt>
<totfact> 0.45537655E+01</totfact>
</mgrwt>
</event>
<event>
 4    1  0.5410820E-008  0.5923916E+03  0.7818608E-02  0.9921318E-01
          2   -1    0    0  501    0  0.00000000000E+00  0.00000000000E+00  0.11843822737E+04  0.11843822737E+04  0.25500000000E-02 0. -1.
         -2   -1    0    0    0  501 -0.00000000000E+00 -0.00000000000E+00 -0.46402097803E+03  0.46402097804E+03  0.25500000000E-02 0.  1.
    8880022    1    1    2    0    0 -0.56297676591E+03 -0.10292361136E+03 -0.13534198628E+03  0.60765550684E+03  0.15294330000E+03 0.  0.
    8880022    1    1    2    0    0  0.56297676591E+03  0.10292361136E+03  0.85570328191E+03  0.10407477449E+04  0.15294330000E+03 0.  0.
<mgrwt>
<rscale>  0 0.59239156E+03</rscale>
<asrwt>0</asrwt>
<pdfrwt beam="1">  1        2 0.18221265E+00 0.59239156E+03</pdfrwt>
<pdfrwt beam="2">  1       -2 0.71387845E-01 0.59239156E+03</pdfrwt>
<totfact> 0.35720932E+01</totfact>
</mgrwt>
</event>
<event>
 4    1  0.5410820E-008  0.6038814E+03  0.7818608E-02  0.9897386E-01
          2   -1    0    0  501    0  0.00000000000E+00  0.00000000000E+00  0.10855007488E+04  0.10855007488E+04  0.25500000000E-02 0. -1.
         -2   -1    0    0    0  501 -0.00000000000E+00 -0.00000000000E+00 -0.48286551327E+03  0.48286551328E+03  0.25500000000E-02 0.  1.
    8880022    1    1    2    0    0  0.45054694561E+03 -0.37187168396E+03  0.73387118335E+03  0.95038921832E+03  0.15294330000E+03 0.  0.
    8880022    1    1    2    0    0 -0.45054694561E+03  0.37187168396E+03 -0.13123594786E+03  0.61797704372E+03  0.15294330000E+03 0.  0.
<mgrwt>
<rscale>  0 0.60388141E+03</rscale>
<asrwt>0</asrwt>
<pdfrwt beam="1">  1        2 0.16700012E+00 0.60388141E+03</pdfrwt>
<pdfrwt beam="2">  1       -2 0.74287002E-01 0.60388141E+03</pdfrwt>
<totfact> 0.37468721E+01</totfact>
</mgrwt>
</event>
<event>
 4    1  0.5410820E-008  0.6528513E+03  0.7818608E-02  0.9801444E-01
          2   -1    0    0  501    0  0.00000000000E+00  0.00000000000E+00  0.14069511841E+04  0.14069511841E+04  0.25500000000E-02 0. -1.
         -2   -1    0    0    0  501 -0.00000000000E+00 -0.00000000000E+00 -0.35911904708E+03  0.35911904709E+03  0.25500000000E-02 0.  1.
    8880022    1    1    2    0    0 -0.16750959298E+03 -0.61217951435E+03  0.17464312747E+03  0.67580699650E+03  0.15294330000E+03 0.  0.
    8880022    1    1    2    0    0  0.16750959298E+03  0.61217951435E+03  0.87318900955E+03  0.10902632347E+04  0.15294330000E+03 0.  0.
<mgrwt>
<rscale>  0 0.65285134E+03</rscale>
<asrwt>0</asrwt>
<pdfrwt beam="1">  1        2 0.21645403E+00 0.65285134E+03</pdfrwt>
<pdfrwt beam="2">  1       -2 0.55249084E-01 0.65285134E+03</pdfrwt>
<totfact> 0.45565290E+01</totfact>
</mgrwt>
</event>
<event>
 4    1  0.5410820E-008  0.4783701E+03  0.7818608E-02  0.1019584E+00
          2   -1    0    0  501    0  0.00000000000E+00  0.00000000000E+00  0.16841054425E+04  0.16841054425E+04  0.25500000000E-02 0. -1.
         -2   -1    0    0    0  501 -0.00000000000E+00 -0.00000000000E+00 -0.40034397415E+03  0.40034397416E+03  0.25500000000E-02 0.  1.
    8880022    1    1    2    0    0  0.43484414809E+03 -0.12789411226E+03  0.14889659991E+04  0.15639238270E+04  0.15294330000E+03 0.  0.
    8880022    1    1    2    0    0 -0.43484414809E+03  0.12789411226E+03 -0.20520453074E+03  0.52052558970E+03  0.15294330000E+03 0.  0.
<mgrwt>
<rscale>  0 0.47837014E+03</rscale>
<asrwt>0</asrwt>
<pdfrwt beam="1">  1        2 0.25909314E+00 0.47837014E+03</pdfrwt>
<pdfrwt beam="2">  1       -2 0.61591381E-01 0.47837014E+03</pdfrwt>
<totfact> 0.26265180E+01</totfact>
</mgrwt>
</event>
<event>
 4    1  0.5410820E-008  0.4031637E+03  0.7818608E-02  0.1042690E+00
         -2   -1    0    0    0  501 -0.00000000000E+00  0.00000000000E+00  0.87305026775E+03  0.87305026775E+03  0.25500000000E-02 0.  1.
          2   -1    0    0  501    0  0.00000000000E+00 -0.00000000000E+00 -0.20273321337E+03  0.20273321338E+03  0.25500000000E-02 0. -1.
    8880022    1    1    2    0    0  0.12760461688E+03  0.35052297492E+03  0.48887731085E+03  0.63367339558E+03  0.15294330000E+03 0.  0.
    8880022    1    1    2    0    0 -0.12760461688E+03 -0.35052297492E+03  0.18143974353E+03  0.44211008555E+03  0.15294330000E+03 0.  0.
<mgrwt>
<rscale>  0 0.40316367E+03</rscale>
<asrwt>0</asrwt>
<pdfrwt beam="1">  1        2 0.31189725E-01 0.40316367E+03</pdfrwt>
<pdfrwt beam="2">  1       -2 0.13431543E+00 0.40316367E+03</pdfrwt>
<totfact> 0.70217957E+01</totfact>
</mgrwt>
</event>
<event>
 4    1  0.5410820E-008  0.4814869E+03  0.7818608E-02  0.1018727E+00
          2   -1    0    0  501    0  0.00000000000E+00  0.00000000000E+00  0.21105944387E+04  0.21105944387E+04  0.25500000000E-02 0. -1.
         -2   -1    0    0    0  501 -0.00000000000E+00 -0.00000000000E+00 -0.15427110618E+03  0.15427110621E+03  0.25500000000E-02 0.  1.
    8880022    1    1    2    0    0  0.10393670414E+03 -0.44456171785E+03  0.15858896731E+04  0.16573701059E+04  0.15294330000E+03 0.  0.
    8880022    1    1    2    0    0 -0.10393670414E+03  0.44456171785E+03  0.37043365940E+03  0.60749543906E+03  0.15294330000E+03 0.  0.
<mgrwt>
<rscale>  0 0.48148688E+03</rscale>
<asrwt>0</asrwt>
<pdfrwt beam="1">  1        2 0.32470682E+00 0.48148688E+03</pdfrwt>
<pdfrwt beam="2">  1       -2 0.23734017E-01 0.48148688E+03</pdfrwt>
<totfact> 0.97366905E+01</totfact>
</mgrwt>
</event>
<event>
 4    1  0.5410820E-008  0.4798752E+03  0.7818608E-02  0.1019169E+00
         -2   -1    0    0    0  501 -0.00000000000E+00  0.00000000000E+00  0.24554010031E+03  0.24554010032E+03  0.25500000000E-02 0.  1.
          2   -1    0    0  501    0  0.00000000000E+00 -0.00000000000E+00 -0.10621941601E+04  0.10621941601E+04  0.25500000000E-02 0. -1.
    8880022    1    1    2    0    0 -0.45067252344E+03  0.61504435599E+02 -0.18461080519E+03  0.51416079332E+03  0.15294330000E+03 0.  0.
    8880022    1    1    2    0    0  0.45067252344E+03 -0.61504435599E+02 -0.63204325461E+03  0.79357346711E+03  0.15294330000E+03 0.  0.
<mgrwt>
<rscale>  0 0.47987516E+03</rscale>
<asrwt>0</asrwt>
<pdfrwt beam="1">  1        2 0.16341448E+00 0.47987516E+03</pdfrwt>
<pdfrwt beam="2">  1       -2 0.37775401E-01 0.47987516E+03</pdfrwt>
<totfact> 0.15733455E+02</totfact>
</mgrwt>
</event>
<event>
 4    1  0.5410820E-008  0.5834729E+03  0.7818608E-02  0.9940300E-01
          2   -1    0    0  501    0  0.00000000000E+00  0.00000000000E+00  0.20426698928E+04  0.20426698928E+04  0.25500000000E-02 0. -1.
         -2   -1    0    0    0  501 -0.00000000000E+00 -0.00000000000E+00 -0.48100184033E+03  0.48100184034E+03  0.25500000000E-02 0.  1.
    8880022    1    1    2    0    0 -0.19600242437E+03 -0.52785611073E+03 -0.23923003065E+03  0.63061215067E+03  0.15294330000E+03 0.  0.
    8880022    1    1    2    0    0  0.19600242437E+03  0.52785611073E+03  0.18008980831E+04  0.18930595825E+04  0.15294330000E+03 0.  0.
<mgrwt>
<rscale>  0 0.58347294E+03</rscale>
<asrwt>0</asrwt>
<pdfrwt beam="1">  1        2 0.31425690E+00 0.58347294E+03</pdfrwt>
<pdfrwt beam="2">  1       -2 0.74000284E-01 0.58347294E+03</pdfrwt>
<totfact> 0.11097223E+01</totfact>
</mgrwt>
</event>
<event>
 4    1  0.5410820E-008  0.4544482E+03  0.7818608E-02  0.1026404E+00
         -2   -1    0    0    0  501 -0.00000000000E+00  0.00000000000E+00  0.28294814884E+03  0.28294814885E+03  0.25500000000E-02 0.  1.
          2   -1    0    0  501    0  0.00000000000E+00 -0.00000000000E+00 -0.12124908407E+04  0.12124908407E+04  0.25500000000E-02 0. -1.
    8880022    1    1    2    0    0 -0.16454838700E+03 -0.39503841686E+03 -0.93649764250E+03  0.10409375629E+04  0.15294330000E+03 0.  0.
    8880022    1    1    2    0    0  0.16454838700E+03  0.39503841686E+03  0.69549506562E+01  0.45450142663E+03  0.15294330000E+03 0.  0.
<mgrwt>
<rscale>  0 0.45444821E+03</rscale>
<asrwt>0</asrwt>
<pdfrwt beam="1">  1        2 0.18653705E+00 0.45444821E+03</pdfrwt>
<pdfrwt beam="2">  1       -2 0.43530485E-01 0.45444821E+03</pdfrwt>
<totfact> 0.97565559E+01</totfact>
</mgrwt>
</event>
<event>
 4    1  0.5410820E-008  0.2927456E+03  0.7818608E-02  0.1088924E+00
          2   -1    0    0  501    0  0.00000000000E+00  0.00000000000E+00  0.30344321564E+03  0.30344321565E+03  0.25500000000E-02 0. -1.
         -2   -1    0    0    0  501 -0.00000000000E+00 -0.00000000000E+00 -0.41443336157E+03  0.41443336158E+03  0.25500000000E-02 0.  1.
    8880022    1    1    2    0    0  0.23887832753E+03  0.72425858972E+02  0.14708317517E+03  0.32761787778E+03  0.15294330000E+03 0.  0.
    8880022    1    1    2    0    0 -0.23887832753E+03 -0.72425858972E+02 -0.25807332110E+03  0.39025869944E+03  0.15294330000E+03 0.  1.
<mgrwt>
<rscale>  0 0.29274565E+03</rscale>
<asrwt>0</asrwt>
<pdfrwt beam="1">  1        2 0.46683571E-01 0.29274565E+03</pdfrwt>
<pdfrwt beam="2">  1       -2 0.63758979E-01 0.29274565E+03</pdfrwt>
<totfact> 0.25281351E+02</totfact>
</mgrwt>
</event>
<event>
 4    1  0.5410820E-008  0.3851839E+03  0.7818608E-02  0.1049034E+00
         -2   -1    0    0    0  501 -0.00000000000E+00  0.00000000000E+00  0.14533142482E+03  0.14533142484E+03  0.25500000000E-02 0.  1.
          2   -1    0    0  501    0  0.00000000000E+00 -0.00000000000E+00 -0.30613148121E+04  0.30613148121E+04  0.25500000000E-02 0. -1.
    8880022    1    1    2    0    0 -0.32160927513E+03 -0.14677338389E+03 -0.14902698613E+03  0.41300804796E+03  0.15294330000E+03 0.  0.
    8880022    1    1    2    0    0  0.32160927513E+03  0.14677338389E+03 -0.27669564011E+04  0.27936381889E+04  0.15294330000E+03 0.  0.
<mgrwt>
<rscale>  0 0.38518386E+03</rscale>
<asrwt>0</asrwt>
<pdfrwt beam="1">  1        2 0.47097146E+00 0.38518386E+03</pdfrwt>
<pdfrwt beam="2">  1       -2 0.22358683E-01 0.38518386E+03</pdfrwt>
<totfact> 0.32027722E+01</totfact>
</mgrwt>
</event>
<event>
 4    1  0.5410820E-008  0.3337604E+03  0.7818608E-02  0.1069485E+00
         -2   -1    0    0    0  501 -0.00000000000E+00  0.00000000000E+00  0.18285159470E+03  0.18285159472E+03  0.25500000000E-02 0.  1.
          2   -1    0    0  501    0  0.00000000000E+00 -0.00000000000E+00 -0.38840413944E+04  0.38840413944E+04  0.25500000000E-02 0. -1.
    8880022    1    1    2    0    0  0.26805020325E+03 -0.12709605466E+03 -0.37177695910E+04  0.37327210857E+04  0.15294330000E+03 0.  0.
    8880022    1    1    2    0    0 -0.26805020325E+03  0.12709605466E+03  0.16579791295E+02  0.33417190347E+03  0.15294330000E+03 0.  0.
<mgrwt>
<rscale>  0 0.33376035E+03</rscale>
<asrwt>0</asrwt>
<pdfrwt beam="1">  1        2 0.59754477E+00 0.33376035E+03</pdfrwt>
<pdfrwt beam="2">  1       -2 0.28131018E-01 0.33376035E+03</pdfrwt>
<totfact> 0.61349929E+00</totfact>
</mgrwt>
</event>
<event>
 4    1  0.5410820E-008  0.5516079E+03  0.7818608E-02  0.1001122E+00
          2   -1    0    0  501    0  0.00000000000E+00  0.00000000000E+00  0.94124371125E+03  0.94124371125E+03  0.25500000000E-02 0. -1.
         -2   -1    0    0    0  501 -0.00000000000E+00 -0.00000000000E+00 -0.34949265381E+03  0.34949265382E+03  0.25500000000E-02 0.  1.
    8880022    1    1    2    0    0 -0.37178083504E+03  0.37770177724E+03  0.11908168708E+03  0.56431526919E+03  0.15294330000E+03 0.  0.
    8880022    1    1    2    0    0  0.37178083504E+03 -0.37770177724E+03  0.47266937036E+03  0.72642109587E+03  0.15294330000E+03 0.  0.
<mgrwt>
<rscale>  0 0.55160790E+03</rscale>
<asrwt>0</asrwt>
<pdfrwt beam="1">  1        2 0.14480672E+00 0.55160790E+03</pdfrwt>
<pdfrwt beam="2">  1       -2 0.53768102E-01 0.55160790E+03</pdfrwt>
<totfact> 0.92406821E+01</totfact>
</mgrwt>
</event>
<event>
 4    1  0.6592375E-008  0.7043284E+03  0.7818608E-02  0.9709859E-01
          2   -1    0    0  501    0  0.00000000000E+00  0.00000000000E+00  0.11860674935E+04  0.11860674935E+04  0.25500000000E-02 0. -1.
         -2   -1    0    0    0  501 -0.00000000000E+00 -0.00000000000E+00 -0.17797775779E+04  0.17797775779E+04  0.25500000000E-02 0.  1.
    8880022    1    1    2    0    0  0.18713798928E+03  0.66156344060E+03  0.10001690685E+04  0.12232810927E+04  0.15294330000E+03 0.  0.
    8880022    1    1    2    0    0 -0.18713798928E+03 -0.66156344060E+03 -0.15938791529E+04  0.17425639788E+04  0.15294330000E+03 0.  0.
<mgrwt>
<rscale>  0 0.70432838E+03</rscale>
<asrwt>0</asrwt>
<pdfrwt beam="1">  1        2 0.18247192E+00 0.70432838E+03</pdfrwt>
<pdfrwt beam="2">  1       -2 0.27381194E+00 0.70432838E+03</pdfrwt>
<totfact> 0.93313262E-01</totfact>
</mgrwt>
</event>
<event>
 4    1  0.5410820E-008  0.1979645E+03  0.7818608E-02  0.1151468E+00
         -2   -1    0    0    0  501 -0.00000000000E+00  0.00000000000E+00  0.11459414442E+03  0.11459414445E+03  0.25500000000E-02 0.  1.
          2   -1    0    0  501    0  0.00000000000E+00 -0.00000000000E+00 -0.35711377648E+03  0.35711377649E+03  0.25500000000E-02 0. -1.
    8880022    1    1    2    0    0 -0.85484965854E+02 -0.92144434357E+02 -0.72721431726E+02  0.21089887581E+03  0.15294330000E+03 0.  0.
    8880022    1    1    2    0    0  0.85484965854E+02  0.92144434357E+02 -0.16979820033E+03  0.26080904513E+03  0.15294330000E+03 0.  0.
<mgrwt>
<rscale>  0 0.19796446E+03</rscale>
<asrwt>0</asrwt>
<pdfrwt beam="1">  1        2 0.54940581E-01 0.19796446E+03</pdfrwt>
<pdfrwt beam="2">  1       -2 0.17629869E-01 0.19796446E+03</pdfrwt>
<totfact> 0.23302664E+03</totfact>
</mgrwt>
</event>
<event>
 4    1  0.5410820E-008  0.4222901E+03  0.7818608E-02  0.1036324E+00
         -2   -1    0    0    0  501 -0.00000000000E+00  0.00000000000E+00  0.35666848092E+03  0.35666848093E+03  0.25500000000E-02 0.  1.
          2   -1    0    0  501    0  0.00000000000E+00 -0.00000000000E+00 -0.16344972843E+04  0.16344972843E+04  0.25500000000E-02 0. -1.
    8880022    1    1    2    0    0 -0.21684549994E+03  0.32850471148E+03  0.19053496213E+03  0.46328451422E+03  0.15294330000E+03 0.  0.
    8880022    1    1    2    0    0  0.21684549994E+03 -0.32850471148E+03 -0.14683637655E+04  0.15278812510E+04  0.15294330000E+03 0.  0.
<mgrwt>
<rscale>  0 0.42229015E+03</rscale>
<asrwt>0</asrwt>
<pdfrwt beam="1">  1        2 0.25146112E+00 0.42229015E+03</pdfrwt>
<pdfrwt beam="2">  1       -2 0.54872075E-01 0.42229015E+03</pdfrwt>
<totfact> 0.35936477E+01</totfact>
</mgrwt>
</event>
<event>
 4    1  0.5410820E-008  0.8266090E+03  0.7818608E-02  0.9522281E-01
         -2   -1    0    0    0  501 -0.00000000000E+00  0.00000000000E+00  0.10284775044E+04  0.10284775044E+04  0.25500000000E-02 0.  1.
          2   -1    0    0  501    0  0.00000000000E+00 -0.00000000000E+00 -0.10773166046E+04  0.10773166046E+04  0.25500000000E-02 0. -1.
    8880022    1    1    2    0    0 -0.13334905320E+03  0.80131697445E+03 -0.67629526964E+03  0.10680158277E+04  0.15294330000E+03 0.  0.
    8880022    1    1    2    0    0  0.13334905320E+03 -0.80131697445E+03  0.62745616949E+03  0.10377782813E+04  0.15294330000E+03 0.  0.
<mgrwt>
<rscale>  0 0.82660905E+03</rscale>
<asrwt>0</asrwt>
<pdfrwt beam="1">  1        2 0.16574102E+00 0.82660905E+03</pdfrwt>
<pdfrwt beam="2">  1       -2 0.15822731E+00 0.82660905E+03</pdfrwt>
<totfact> 0.59025670E+00</totfact>
</mgrwt>
</event>
<event>
 4    1  0.5410820E-008  0.7044323E+03  0.7818608E-02  0.9709682E-01
          2   -1    0    0  501    0  0.00000000000E+00  0.00000000000E+00  0.22072963475E+03  0.22072963476E+03  0.25500000000E-02 0. -1.
         -2   -1    0    0    0  501 -0.00000000000E+00 -0.00000000000E+00 -0.28832269686E+04  0.28832269686E+04  0.25500000000E-02 0.  1.
    8880022    1    1    2    0    0 -0.58462562115E+02  0.68513895036E+03 -0.60284443890E+03  0.92717114008E+03  0.15294330000E+03 0.  0.
    8880022    1    1    2    0    0  0.58462562115E+02 -0.68513895036E+03 -0.20596528950E+04  0.21767854633E+04  0.15294330000E+03 0.  0.
<mgrwt>
<rscale>  0 0.70443233E+03</rscale>
<asrwt>0</asrwt>
<pdfrwt beam="1">  1        2 0.33958407E-01 0.70443233E+03</pdfrwt>
<pdfrwt beam="2">  1       -2 0.44357335E+00 0.70443233E+03</pdfrwt>
<totfact> 0.63542872E-01</totfact>
</mgrwt>
</event>
<event>
 4    1  0.5410820E-008  0.1848400E+03  0.7818608E-02  0.1163199E+00
         -2   -1    0    0    0  501 -0.00000000000E+00  0.00000000000E+00  0.51199928974E+02  0.51199929038E+02  0.25500000000E-02 0.  1.
          2   -1    0    0  501    0  0.00000000000E+00 -0.00000000000E+00 -0.91383275322E+03  0.91383275323E+03  0.25500000000E-02 0. -1.
    8880022    1    1    2    0    0 -0.83422944226E+02 -0.61763891549E+02 -0.18069732133E+03  0.25849050442E+03  0.15294330000E+03 0.  1.
    8880022    1    1    2    0    0  0.83422944226E+02  0.61763891549E+02 -0.68193550292E+03  0.70654217785E+03  0.15294330000E+03 0.  0.
<mgrwt>
<rscale>  0 0.18483998E+03</rscale>
<asrwt>0</asrwt>
<pdfrwt beam="1">  1        2 0.14058964E+00 0.18483998E+03</pdfrwt>
<pdfrwt beam="2">  1       -2 0.78769128E-02 0.18483998E+03</pdfrwt>
<totfact> 0.28581916E+03</totfact>
</mgrwt>
</event>
<event>
 4    1  0.5410820E-008  0.3430391E+03  0.7818608E-02  0.1065509E+00
          2   -1    0    0  501    0  0.00000000000E+00  0.00000000000E+00  0.17790268632E+04  0.17790268632E+04  0.25500000000E-02 0. -1.
         -2   -1    0    0    0  501 -0.00000000000E+00 -0.00000000000E+00 -0.30380157104E+03  0.30380157105E+03  0.25500000000E-02 0.  1.
    8880022    1    1    2    0    0  0.30615483598E+03  0.23523505418E+02 -0.18347795323E+03  0.38902435816E+03  0.15294330000E+03 0.  0.
    8880022    1    1    2    0    0 -0.30615483598E+03 -0.23523505418E+02  0.16587032454E+04  0.16938040761E+04  0.15294330000E+03 0.  0.
<mgrwt>
<rscale>  0 0.34303905E+03</rscale>
<asrwt>0</asrwt>
<pdfrwt beam="1">  1        2 0.27369644E+00 0.34303905E+03</pdfrwt>
<pdfrwt beam="2">  1       -2 0.46738703E-01 0.34303905E+03</pdfrwt>
<totfact> 0.42373109E+01</totfact>
</mgrwt>
</event>
<event>
 4    1  0.5410820E-008  0.1061215E+04  0.7818608E-02  0.9243841E-01
         -2   -1    0    0    0  501 -0.00000000000E+00  0.00000000000E+00  0.57571009424E+03  0.57571009425E+03  0.25500000000E-02 0.  1.
          2   -1    0    0  501    0  0.00000000000E+00 -0.00000000000E+00 -0.26697294557E+04  0.26697294557E+04  0.25500000000E-02 0. -1.
    8880022    1    1    2    0    0 -0.62309965886E+03  0.84530060122E+03 -0.20807205276E+03  0.10814212516E+04  0.15294330000E+03 0.  0.
    8880022    1    1    2    0    0  0.62309965886E+03 -0.84530060122E+03 -0.18859473087E+04  0.21640182983E+04  0.15294330000E+03 0.  0.
<mgrwt>
<rscale>  0 0.10612153E+04</rscale>
<asrwt>0</asrwt>
<pdfrwt beam="1">  1        2 0.41072760E+00 0.10612153E+04</pdfrwt>
<pdfrwt beam="2">  1       -2 0.88570785E-01 0.10612153E+04</pdfrwt>
<totfact> 0.30484702E+00</totfact>
</mgrwt>
</event>
<event>
 4    1  0.5410820E-008  0.7824794E+03  0.7818608E-02  0.9585729E-01
          2   -1    0    0  501    0  0.00000000000E+00  0.00000000000E+00  0.19367445314E+04  0.19367445314E+04  0.25500000000E-02 0. -1.
         -2   -1    0    0    0  501 -0.00000000000E+00 -0.00000000000E+00 -0.33241558849E+03  0.33241558849E+03  0.25500000000E-02 0.  1.
    8880022    1    1    2    0    0 -0.47909531158E+03 -0.59945818685E+03  0.55107981902E+03  0.95705958817E+03  0.15294330000E+03 0.  0.
    8880022    1    1    2    0    0  0.47909531158E+03  0.59945818685E+03  0.10532491239E+04  0.13121005317E+04  0.15294330000E+03 0.  0.
<mgrwt>
<rscale>  0 0.78247945E+03</rscale>
<asrwt>0</asrwt>
<pdfrwt beam="1">  1        2 0.29796069E+00 0.78247945E+03</pdfrwt>
<pdfrwt beam="2">  1       -2 0.51140861E-01 0.78247945E+03</pdfrwt>
<totfact> 0.26896747E+01</totfact>
</mgrwt>
</event>
<event>
 4    1  0.5410820E-008  0.1725913E+03  0.7818608E-02  0.1175172E+00
          2   -1    0    0  501    0  0.00000000000E+00  0.00000000000E+00  0.32911988645E+03  0.32911988646E+03  0.25500000000E-02 0. -1.
         -2   -1    0    0    0  501 -0.00000000000E+00 -0.00000000000E+00 -0.19478223303E+03  0.19478223305E+03  0.25500000000E-02 0.  1.
    8880022    1    1    2    0    0  0.72308318170E+02  0.34170563758E+02 -0.12449286467E+03  0.21280565470E+03  0.15294330000E+03 0.  1.
    8880022    1    1    2    0    0 -0.72308318170E+02 -0.34170563758E+02  0.25883051809E+03  0.31109646480E+03  0.15294330000E+03 0.  0.
<mgrwt>
<rscale>  0 0.17259135E+03</rscale>
<asrwt>0</asrwt>
<pdfrwt beam="1">  1        2 0.50633828E-01 0.17259135E+03</pdfrwt>
<pdfrwt beam="2">  1       -2 0.29966498E-01 0.17259135E+03</pdfrwt>
<totfact> 0.10079616E+03</totfact>
</mgrwt>
</event>
<event>
 4    1  0.5410820E-008  0.6534742E+03  0.7818608E-02  0.9800282E-01
         -2   -1    0    0    0  501 -0.00000000000E+00  0.00000000000E+00  0.47109252249E+03  0.47109252250E+03  0.25500000000E-02 0.  1.
          2   -1    0    0  501    0  0.00000000000E+00 -0.00000000000E+00 -0.23708895988E+04  0.23708895988E+04  0.25500000000E-02 0. -1.
    8880022    1    1    2    0    0  0.57315973148E+03 -0.27408894835E+03  0.16688579813E+03  0.67444744200E+03  0.15294330000E+03 0.  1.
    8880022    1    1    2    0    0 -0.57315973148E+03  0.27408894835E+03 -0.20666828744E+04  0.21675346792E+04  0.15294330000E+03 0.  0.
<mgrwt>
<rscale>  0 0.65347416E+03</rscale>
<asrwt>0</asrwt>
<pdfrwt beam="1">  1        2 0.36475224E+00 0.65347416E+03</pdfrwt>
<pdfrwt beam="2">  1       -2 0.72475774E-01 0.65347416E+03</pdfrwt>
<totfact> 0.75704878E+00</totfact>
</mgrwt>
</event>
<event>
 4    1  0.6004939E-008  0.5852661E+03  0.7818608E-02  0.9936455E-01
          2   -1    0    0  501    0  0.00000000000E+00  0.00000000000E+00  0.11265959653E+04  0.11265959653E+04  0.25500000000E-02 0. -1.
         -2   -1    0    0    0  501 -0.00000000000E+00 -0.00000000000E+00 -0.21015410884E+04  0.21015410884E+04  0.25500000000E-02 0.  1.
    8880022    1    1    2    0    0  0.47843975357E+03  0.30039991486E+03 -0.19802221183E+04  0.20649009656E+04  0.15294330000E+03 0.  0.
    8880022    1    1    2    0    0 -0.47843975357E+03 -0.30039991486E+03  0.10052769953E+04  0.11632360882E+04  0.15294330000E+03 0.  0.
<mgrwt>
<rscale>  0 0.58526606E+03</rscale>
<asrwt>0</asrwt>
<pdfrwt beam="1">  1        2 0.17332246E+00 0.58526606E+03</pdfrwt>
<pdfrwt beam="2">  1       -2 0.32331401E+00 0.58526606E+03</pdfrwt>
<totfact> 0.52571975E-01</totfact>
</mgrwt>
</event>
<event>
 4    1  0.5410820E-008  0.5772414E+03  0.7818608E-02  0.9953781E-01
          2   -1    0    0  501    0  0.00000000000E+00  0.00000000000E+00  0.64818062583E+03  0.64818062584E+03  0.25500000000E-02 0. -1.
         -2   -1    0    0    0  501 -0.00000000000E+00 -0.00000000000E+00 -0.18936393399E+04  0.18936393399E+04  0.25500000000E-02 0.  1.
    8880022    1    1    2    0    0 -0.11770367564E+03  0.54402376375E+03  0.46204283516E+03  0.73938572161E+03  0.15294330000E+03 0.  0.
    8880022    1    1    2    0    0  0.11770367564E+03 -0.54402376375E+03 -0.17075015492E+04  0.18024342441E+04  0.15294330000E+03 0.  0.
<mgrwt>
<rscale>  0 0.57724143E+03</rscale>
<asrwt>0</asrwt>
<pdfrwt beam="1">  1        2 0.99720097E-01 0.57724143E+03</pdfrwt>
<pdfrwt beam="2">  1       -2 0.29132913E+00 0.57724143E+03</pdfrwt>
<totfact> 0.17417885E+00</totfact>
</mgrwt>
</event>
<event>
 4    1  0.5410820E-008  0.2208171E+03  0.7818608E-02  0.1133275E+00
         -2   -1    0    0    0  501 -0.00000000000E+00  0.00000000000E+00  0.17690431576E+03  0.17690431578E+03  0.25500000000E-02 0.  1.
          2   -1    0    0  501    0  0.00000000000E+00 -0.00000000000E+00 -0.25259114431E+04  0.25259114431E+04  0.25500000000E-02 0. -1.
    8880022    1    1    2    0    0 -0.57386093799E+02 -0.14857785733E+03  0.10104140281E+03  0.24283649138E+03  0.15294330000E+03 0.  0.
    8880022    1    1    2    0    0  0.57386093799E+02  0.14857785733E+03 -0.24500485301E+04  0.24599792675E+04  0.15294330000E+03 0.  0.
<mgrwt>
<rscale>  0 0.22081711E+03</rscale>
<asrwt>0</asrwt>
<pdfrwt beam="1">  1        2 0.38860173E+00 0.22081711E+03</pdfrwt>
<pdfrwt beam="2">  1       -2 0.27216050E-01 0.22081711E+03</pdfrwt>
<totfact> 0.48918750E+01</totfact>
</mgrwt>
</event>
<event>
 4    1  0.5410820E-008  0.4620489E+03  0.7818608E-02  0.1024189E+00
         -2   -1    0    0    0  501 -0.00000000000E+00  0.00000000000E+00  0.23202773531E+03  0.23202773533E+03  0.25500000000E-02 0.  1.
          2   -1    0    0  501    0  0.00000000000E+00 -0.00000000000E+00 -0.10107489750E+04  0.10107489750E+04  0.25500000000E-02 0. -1.
    8880022    1    1    2    0    0  0.33834618592E+03 -0.27498976420E+03 -0.20327264777E+03  0.50478602822E+03  0.15294330000E+03 0.  0.
    8880022    1    1    2    0    0 -0.33834618592E+03  0.27498976420E+03 -0.57544859194E+03  0.73799068214E+03  0.15294330000E+03 0. -1.
<mgrwt>
<rscale>  0 0.46204888E+03</rscale>
<asrwt>0</asrwt>
<pdfrwt beam="1">  1        2 0.15549984E+00 0.46204888E+03</pdfrwt>
<pdfrwt beam="2">  1       -2 0.35696575E-01 0.46204888E+03</pdfrwt>
<totfact> 0.18889562E+02</totfact>
</mgrwt>
</event>
<event>
 4    1  0.5410820E-008  0.3890138E+03  0.7818608E-02  0.1047652E+00
          2   -1    0    0  501    0  0.00000000000E+00  0.00000000000E+00  0.10420725101E+04  0.10420725101E+04  0.25500000000E-02 0. -1.
         -2   -1    0    0    0  501 -0.00000000000E+00 -0.00000000000E+00 -0.19487407569E+03  0.19487407571E+03  0.25500000000E-02 0.  1.
    8880022    1    1    2    0    0 -0.28826323772E+03  0.21176494008E+03  0.73578499329E+03  0.83229279309E+03  0.15294330000E+03 0.  0.
    8880022    1    1    2    0    0  0.28826323772E+03 -0.21176494008E+03  0.11141344109E+03  0.40465379269E+03  0.15294330000E+03 0.  0.
<mgrwt>
<rscale>  0 0.38901380E+03</rscale>
<asrwt>0</asrwt>
<pdfrwt beam="1">  1        2 0.16031885E+00 0.38901380E+03</pdfrwt>
<pdfrwt beam="2">  1       -2 0.29980627E-01 0.38901380E+03</pdfrwt>
<totfact> 0.25198217E+02</totfact>
</mgrwt>
</event>
<event>
 4    1  0.5410820E-008  0.7807613E+03  0.7818608E-02  0.9588290E-01
          2   -1    0    0  501    0  0.00000000000E+00  0.00000000000E+00  0.83995762387E+03  0.83995762388E+03  0.25500000000E-02 0. -1.
         -2   -1    0    0    0  501 -0.00000000000E+00 -0.00000000000E+00 -0.17778569089E+04  0.17778569089E+04  0.25500000000E-02 0.  1.
    8880022    1    1    2    0    0 -0.63225052300E+03  0.43180524952E+03 -0.14758654047E+04  0.16696606970E+04  0.15294330000E+03 0.  0.
    8880022    1    1    2    0    0  0.63225052300E+03 -0.43180524952E+03  0.53796611967E+03  0.94815383577E+03  0.15294330000E+03 0.  0.
<mgrwt>
<rscale>  0 0.78076126E+03</rscale>
<asrwt>0</asrwt>
<pdfrwt beam="1">  1        2 0.12922425E+00 0.78076126E+03</pdfrwt>
<pdfrwt beam="2">  1       -2 0.27351645E+00 0.78076126E+03</pdfrwt>
<totfact> 0.15363020E+00</totfact>
</mgrwt>
</event>
<event>
 4    1  0.5410820E-008  0.2574875E+03  0.7818608E-02  0.1108662E+00
          2   -1    0    0  501    0  0.00000000000E+00  0.00000000000E+00  0.38471365972E+03  0.38471365973E+03  0.25500000000E-02 0. -1.
         -2   -1    0    0    0  501 -0.00000000000E+00 -0.00000000000E+00 -0.39946951835E+03  0.39946951836E+03  0.25500000000E-02 0.  1.
    8880022    1    1    2    0    0 -0.17141169601E+03  0.11630222203E+03  0.28827812331E+03  0.38652827293E+03  0.15294330000E+03 0.  0.
    8880022    1    1    2    0    0  0.17141169601E+03 -0.11630222203E+03 -0.30303398194E+03  0.39765490517E+03  0.15294330000E+03 0.  0.
<mgrwt>
<rscale>  0 0.25748753E+03</rscale>
<asrwt>0</asrwt>
<pdfrwt beam="1">  1        2 0.59186717E-01 0.25748753E+03</pdfrwt>
<pdfrwt beam="2">  1       -2 0.61456849E-01 0.25748753E+03</pdfrwt>
<totfact> 0.21148350E+02</totfact>
</mgrwt>
</event>
<event>
 4    1  0.5410820E-008  0.6071201E+03  0.7818608E-02  0.9890743E-01
          2   -1    0    0  501    0  0.00000000000E+00  0.00000000000E+00  0.88427686769E+03  0.88427686769E+03  0.25500000000E-02 0. -1.
         -2   -1    0    0    0  501 -0.00000000000E+00 -0.00000000000E+00 -0.71682022494E+03  0.71682022494E+03  0.25500000000E-02 0.  1.
    8880022    1    1    2    0    0  0.10418514894E+03 -0.57822889311E+03  0.60161493845E+03  0.85471362764E+03  0.15294330000E+03 0.  0.
    8880022    1    1    2    0    0 -0.10418514894E+03  0.57822889311E+03 -0.43415829570E+03  0.74638346500E+03  0.15294330000E+03 0.  0.
<mgrwt>
<rscale>  0 0.60712013E+03</rscale>
<asrwt>0</asrwt>
<pdfrwt beam="1">  1        2 0.13604259E+00 0.60712013E+03</pdfrwt>
<pdfrwt beam="2">  1       -2 0.11028003E+00 0.60712013E+03</pdfrwt>
<totfact> 0.20245437E+01</totfact>
</mgrwt>
</event>
<event>
 4    1  0.5410820E-008  0.7615351E+03  0.7818608E-02  0.9617425E-01
          2   -1    0    0  501    0  0.00000000000E+00  0.00000000000E+00  0.16930080994E+04  0.16930080994E+04  0.25500000000E-02 0. -1.
         -2   -1    0    0    0  501 -0.00000000000E+00 -0.00000000000E+00 -0.44736658051E+03  0.44736658051E+03  0.25500000000E-02 0.  1.
    8880022    1    1    2    0    0 -0.26446188929E+03 -0.69757002275E+03  0.11408427863E+04  0.13716624744E+04  0.15294330000E+03 0.  0.
    8880022    1    1    2    0    0  0.26446188929E+03  0.69757002275E+03  0.10479873254E+03  0.76871220550E+03  0.15294330000E+03 0.  0.
<mgrwt>
<rscale>  0 0.76153508E+03</rscale>
<asrwt>0</asrwt>
<pdfrwt beam="1">  1        2 0.26046278E+00 0.76153508E+03</pdfrwt>
<pdfrwt beam="2">  1       -2 0.68825628E-01 0.76153508E+03</pdfrwt>
<totfact> 0.19585145E+01</totfact>
</mgrwt>
</event>
<event>
 4    1  0.5410820E-008  0.2158976E+03  0.7818608E-02  0.1136979E+00
          2   -1    0    0  501    0  0.00000000000E+00  0.00000000000E+00  0.23976100339E+03  0.23976100340E+03  0.25500000000E-02 0. -1.
         -2   -1    0    0    0  501 -0.00000000000E+00 -0.00000000000E+00 -0.19642232858E+03  0.19642232860E+03  0.25500000000E-02 0.  1.
    8880022    1    1    2    0    0  0.14195266714E+03  0.55403640874E+02 -0.40894719863E+00  0.21589799301E+03  0.15294330000E+03 0. -1.
    8880022    1    1    2    0    0 -0.14195266714E+03 -0.55403640874E+02  0.43747622006E+02  0.22028533900E+03  0.15294330000E+03 0.  0.
<mgrwt>
<rscale>  0 0.21589761E+03</rscale>
<asrwt>0</asrwt>
<pdfrwt beam="1">  1        2 0.36886308E-01 0.21589761E+03</pdfrwt>
<pdfrwt beam="2">  1       -2 0.30218820E-01 0.21589761E+03</pdfrwt>
<totfact> 0.14010120E+03</totfact>
</mgrwt>
</event>
<event>
 4    1  0.5410820E-008  0.2748004E+03  0.7818608E-02  0.1098563E+00
          2   -1    0    0  501    0  0.00000000000E+00  0.00000000000E+00  0.14660784219E+04  0.14660784219E+04  0.25500000000E-02 0. -1.
         -2   -1    0    0    0  501 -0.00000000000E+00 -0.00000000000E+00 -0.61646839251E+03  0.61646839251E+03  0.25500000000E-02 0.  1.
    8880022    1    1    2    0    0 -0.21415492905E+03  0.79128295748E+02  0.14216284465E+04  0.14479443062E+04  0.15294330000E+03 0.  0.
    8880022    1    1    2    0    0  0.21415492905E+03 -0.79128295748E+02 -0.57201841716E+03  0.63460250820E+03  0.15294330000E+03 0.  0.
<mgrwt>
<rscale>  0 0.27480043E+03</rscale>
<asrwt>0</asrwt>
<pdfrwt beam="1">  1        2 0.22555052E+00 0.27480043E+03</pdfrwt>
<pdfrwt beam="2">  1       -2 0.94841292E-01 0.27480043E+03</pdfrwt>
<totfact> 0.14039612E+01</totfact>
</mgrwt>
</event>
<event>
 4    1  0.5410820E-008  0.6705263E+03  0.7818608E-02  0.9769008E-01
          2   -1    0    0  501    0  0.00000000000E+00  0.00000000000E+00  0.12624896242E+04  0.12624896242E+04  0.25500000000E-02 0. -1.
         -2   -1    0    0    0  501 -0.00000000000E+00 -0.00000000000E+00 -0.17418986661E+04  0.17418986661E+04  0.25500000000E-02 0.  1.
    8880022    1    1    2    0    0 -0.50252457885E+03  0.41675279326E+03 -0.15795681636E+04  0.17159956526E+04  0.15294330000E+03 0.  0.
    8880022    1    1    2    0    0  0.50252457885E+03 -0.41675279326E+03  0.11001591217E+04  0.12883926378E+04  0.15294330000E+03 0.  0.
<mgrwt>
<rscale>  0 0.67052628E+03</rscale>
<asrwt>0</asrwt>
<pdfrwt beam="1">  1        2 0.19422917E+00 0.67052628E+03</pdfrwt>
<pdfrwt beam="2">  1       -2 0.26798441E+00 0.67052628E+03</pdfrwt>
<totfact> 0.91880176E-01</totfact>
</mgrwt>
</event>
<event>
 4    1  0.5410820E-008  0.5029208E+03  0.7818608E-02  0.1013019E+00
         -2   -1    0    0    0  501 -0.00000000000E+00  0.00000000000E+00  0.22902515768E+03  0.22902515769E+03  0.25500000000E-02 0.  1.
          2   -1    0    0  501    0  0.00000000000E+00 -0.00000000000E+00 -0.15982326462E+04  0.15982326462E+04  0.25500000000E-02 0. -1.
    8880022    1    1    2    0    0 -0.45949885032E+03  0.13564091248E+03 -0.11924723921E+04  0.12941868912E+04  0.15294330000E+03 0.  0.
    8880022    1    1    2    0    0  0.45949885032E+03 -0.13564091248E+03 -0.17673509645E+03  0.53307091265E+03  0.15294330000E+03 0.  0.
<mgrwt>
<rscale>  0 0.50292077E+03</rscale>
<asrwt>0</asrwt>
<pdfrwt beam="1">  1        2 0.24588194E+00 0.50292077E+03</pdfrwt>
<pdfrwt beam="2">  1       -2 0.35234641E-01 0.50292077E+03</pdfrwt>
<totfact> 0.88788827E+01</totfact>
</mgrwt>
</event>
<event>
 4    1  0.5410820E-008  0.5866966E+03  0.7818608E-02  0.9933397E-01
          2   -1    0    0  501    0  0.00000000000E+00  0.00000000000E+00  0.11063057086E+04  0.11063057086E+04  0.25500000000E-02 0. -1.
         -2   -1    0    0    0  501 -0.00000000000E+00 -0.00000000000E+00 -0.48327610275E+03  0.48327610276E+03  0.25500000000E-02 0.  1.
    8880022    1    1    2    0    0 -0.16916913916E+03 -0.54055810535E+03 -0.16283058344E+03  0.60887331591E+03  0.15294330000E+03 0.  0.
    8880022    1    1    2    0    0  0.16916913916E+03  0.54055810535E+03  0.78586018925E+03  0.98070849541E+03  0.15294330000E+03 0.  0.
<mgrwt>
<rscale>  0 0.58669661E+03</rscale>
<asrwt>0</asrwt>
<pdfrwt beam="1">  1        2 0.17020088E+00 0.58669661E+03</pdfrwt>
<pdfrwt beam="2">  1       -2 0.74350169E-01 0.58669661E+03</pdfrwt>
<totfact> 0.36401273E+01</totfact>
</mgrwt>
</event>
<event>
 4    1  0.5410820E-008  0.9825814E+03  0.7818608E-02  0.9327858E-01
         -2   -1    0    0    0  501 -0.00000000000E+00  0.00000000000E+00  0.64145863417E+03  0.64145863418E+03  0.25500000000E-02 0.  1.
          2   -1    0    0  501    0  0.00000000000E+00 -0.00000000000E+00 -0.27043468351E+04  0.27043468351E+04  0.25500000000E-02 0. -1.
    8880022    1    1    2    0    0  0.70716090353E+03 -0.66482926132E+03 -0.21454612604E+04  0.23597606156E+04  0.15294330000E+03 0.  0.
    8880022    1    1    2    0    0 -0.70716090353E+03  0.66482926132E+03  0.82573059506E+02  0.98604485362E+03  0.15294330000E+03 0.  0.
<mgrwt>
<rscale>  0 0.98258137E+03</rscale>
<asrwt>0</asrwt>
<pdfrwt beam="1">  1        2 0.41605336E+00 0.98258137E+03</pdfrwt>
<pdfrwt beam="2">  1       -2 0.98685945E-01 0.98258137E+03</pdfrwt>
<totfact> 0.22845624E+00</totfact>
</mgrwt>
</event>
<event>
 4    1  0.5410820E-008  0.8545238E+03  0.7818608E-02  0.9484285E-01
         -2   -1    0    0    0  501 -0.00000000000E+00  0.00000000000E+00  0.11472926676E+04  0.11472926676E+04  0.25500000000E-02 0.  1.
          2   -1    0    0  501    0  0.00000000000E+00 -0.00000000000E+00 -0.92773356330E+03  0.92773356331E+03  0.25500000000E-02 0. -1.
    8880022    1    1    2    0    0 -0.30173149551E+02 -0.84018380292E+03  0.69111826434E+03  0.10990247267E+04  0.15294330000E+03 0.  0.
    8880022    1    1    2    0    0  0.30173149551E+02  0.84018380292E+03 -0.47155916008E+03  0.97600150415E+03  0.15294330000E+03 0.  0.
<mgrwt>
<rscale>  0 0.85452378E+03</rscale>
<asrwt>0</asrwt>
<pdfrwt beam="1">  1        2 0.14272824E+00 0.85452378E+03</pdfrwt>
<pdfrwt beam="2">  1       -2 0.17650656E+00 0.85452378E+03</pdfrwt>
<totfact> 0.54236229E+00</totfact>
</mgrwt>
</event>
<event>
 4    1  0.5410820E-008  0.2178623E+03  0.7818608E-02  0.1135487E+00
          2   -1    0    0  501    0  0.00000000000E+00  0.00000000000E+00  0.12870030933E+04  0.12870030933E+04  0.25500000000E-02 0. -1.
         -2   -1    0    0    0  501 -0.00000000000E+00 -0.00000000000E+00 -0.18389044023E+03  0.18389044025E+03  0.25500000000E-02 0.  1.
    8880022    1    1    2    0    0  0.14097426565E+03 -0.64796575711E+02 -0.10602055718E+03  0.24228980861E+03  0.15294330000E+03 0.  0.
    8880022    1    1    2    0    0 -0.14097426565E+03  0.64796575711E+02  0.12091332103E+04  0.12286037250E+04  0.15294330000E+03 0.  0.
<mgrwt>
<rscale>  0 0.21786233E+03</rscale>
<asrwt>0</asrwt>
<pdfrwt beam="1">  1        2 0.19800048E+00 0.21786233E+03</pdfrwt>
<pdfrwt beam="2">  1       -2 0.28290837E-01 0.21786233E+03</pdfrwt>
<totfact> 0.20719150E+02</totfact>
</mgrwt>
</event>
<event>
 4    1  0.5410820E-008  0.5045348E+03  0.7818608E-02  0.1012602E+00
          2   -1    0    0  501    0  0.00000000000E+00  0.00000000000E+00  0.26264582897E+04  0.26264582897E+04  0.25500000000E-02 0. -1.
         -2   -1    0    0    0  501 -0.00000000000E+00 -0.00000000000E+00 -0.10902426064E+03  0.10902426067E+03  0.25500000000E-02 0.  1.
    8880022    1    1    2    0    0  0.47939160290E+03  0.36707387472E+02  0.80297616869E+03  0.94832806651E+03  0.15294330000E+03 0.  1.
    8880022    1    1    2    0    0 -0.47939160290E+03 -0.36707387472E+02  0.17144578604E+04  0.17871544839E+04  0.15294330000E+03 0. -1.
<mgrwt>
<rscale>  0 0.50453483E+03</rscale>
<asrwt>0</asrwt>
<pdfrwt beam="1">  1        2 0.40407049E+00 0.50453483E+03</pdfrwt>
<pdfrwt beam="2">  1       -2 0.16772964E-01 0.50453483E+03</pdfrwt>
<totfact> 0.91941479E+01</totfact>
</mgrwt>
</event>
<event>
 4    1  0.5410820E-008  0.2080419E+03  0.7818608E-02  0.1143126E+00
          2   -1    0    0  501    0  0.00000000000E+00  0.00000000000E+00  0.17437987746E+03  0.17437987748E+03  0.25500000000E-02 0. -1.
         -2   -1    0    0    0  501 -0.00000000000E+00 -0.00000000000E+00 -0.46977575827E+03  0.46977575828E+03  0.25500000000E-02 0.  1.
    8880022    1    1    2    0    0 -0.13702232043E+03  0.33386834922E+02  0.73496693947E+02  0.22064272949E+03  0.15294330000E+03 0.  0.
    8880022    1    1    2    0    0  0.13702232043E+03 -0.33386834922E+02 -0.36889257476E+03  0.42351290626E+03  0.15294330000E+03 0.  0.
<mgrwt>
<rscale>  0 0.20804194E+03</rscale>
<asrwt>0</asrwt>
<pdfrwt beam="1">  1        2 0.26827674E-01 0.20804194E+03</pdfrwt>
<pdfrwt beam="2">  1       -2 0.72273193E-01 0.20804194E+03</pdfrwt>
<totfact> 0.35497737E+02</totfact>
</mgrwt>
</event>
<event>
 4    1  0.5410820E-008  0.7352810E+03  0.7818608E-02  0.9658729E-01
          2   -1    0    0  501    0  0.00000000000E+00  0.00000000000E+00  0.28224164159E+04  0.28224164159E+04  0.25500000000E-02 0. -1.
         -2   -1    0    0    0  501 -0.00000000000E+00 -0.00000000000E+00 -0.35626034398E+03  0.35626034398E+03  0.25500000000E-02 0.  1.
    8880022    1    1    2    0    0  0.31658791886E+03 -0.64576980296E+03  0.15241314874E+03  0.75091142600E+03  0.15294330000E+03 0.  0.
    8880022    1    1    2    0    0 -0.31658791886E+03  0.64576980296E+03  0.23137429231E+04  0.24277653338E+04  0.15294330000E+03 0.  0.
<mgrwt>
<rscale>  0 0.73528104E+03</rscale>
<asrwt>0</asrwt>
<pdfrwt beam="1">  1        2 0.43421793E+00 0.73528104E+03</pdfrwt>
<pdfrwt beam="2">  1       -2 0.54809282E-01 0.73528104E+03</pdfrwt>
<totfact> 0.74520097E+00</totfact>
</mgrwt>
</event>
<event>
 4    1  0.5410820E-008  0.4543741E+03  0.7818608E-02  0.1026426E+00
          2   -1    0    0  501    0  0.00000000000E+00  0.00000000000E+00  0.39997330028E+04  0.39997330028E+04  0.25500000000E-02 0. -1.
         -2   -1    0    0    0  501 -0.00000000000E+00 -0.00000000000E+00 -0.15442403240E+03  0.15442403243E+03  0.25500000000E-02 0.  1.
    8880022    1    1    2    0    0 -0.16699507389E+03  0.39392492211E+03  0.36174059523E+04  0.36458307250E+04  0.15294330000E+03 0.  0.
    8880022    1    1    2    0    0  0.16699507389E+03 -0.39392492211E+03  0.22790301813E+03  0.50832631021E+03  0.15294330000E+03 0.  0.
<mgrwt>
<rscale>  0 0.45437413E+03</rscale>
<asrwt>0</asrwt>
<pdfrwt beam="1">  1        2 0.61534358E+00 0.45437413E+03</pdfrwt>
<pdfrwt beam="2">  1       -2 0.23757542E-01 0.45437413E+03</pdfrwt>
<totfact> 0.64426369E+00</totfact>
</mgrwt>
</event>
<event>
 4    1  0.5410820E-008  0.4851414E+03  0.7818608E-02  0.1017732E+00
         -2   -1    0    0    0  501 -0.00000000000E+00  0.00000000000E+00  0.88783126731E+02  0.88783126767E+02  0.25500000000E-02 0.  1.
          2   -1    0    0  501    0  0.00000000000E+00 -0.00000000000E+00 -0.33969812584E+04  0.33969812584E+04  0.25500000000E-02 0. -1.
    8880022    1    1    2    0    0  0.44778951718E+03 -0.10702821955E+03 -0.24708539220E+04  0.25180312247E+04  0.15294330000E+03 0.  0.
    8880022    1    1    2    0    0 -0.44778951718E+03  0.10702821955E+03 -0.83734420969E+03  0.96773316054E+03  0.15294330000E+03 0.  0.
<mgrwt>
<rscale>  0 0.48514137E+03</rscale>
<asrwt>0</asrwt>
<pdfrwt beam="1">  1        2 0.52261240E+00 0.48514137E+03</pdfrwt>
<pdfrwt beam="2">  1       -2 0.13658945E-01 0.48514137E+03</pdfrwt>
<totfact> 0.44326838E+01</totfact>
</mgrwt>
</event>
<event>
 4    1  0.5410820E-008  0.7399547E+03  0.7818608E-02  0.9651243E-01
         -2   -1    0    0    0  501 -0.00000000000E+00  0.00000000000E+00  0.81525511343E+03  0.81525511344E+03  0.25500000000E-02 0.  1.
          2   -1    0    0  501    0  0.00000000000E+00 -0.00000000000E+00 -0.80755703411E+03  0.80755703411E+03  0.25500000000E-02 0. -1.
    8880022    1    1    2    0    0 -0.20586970439E+03  0.69408861651E+03 -0.32906911804E+03  0.80982682112E+03  0.15294330000E+03 0.  0.
    8880022    1    1    2    0    0  0.20586970439E+03 -0.69408861651E+03  0.33676719736E+03  0.81298532643E+03  0.15294330000E+03 0.  0.
<mgrwt>
<rscale>  0 0.73995473E+03</rscale>
<asrwt>0</asrwt>
<pdfrwt beam="1">  1        2 0.12423954E+00 0.73995473E+03</pdfrwt>
<pdfrwt beam="2">  1       -2 0.12542386E+00 0.73995473E+03</pdfrwt>
<totfact> 0.16430551E+01</totfact>
</mgrwt>
</event>
<event>
 4    1  0.5410820E-008  0.1874528E+03  0.7818608E-02  0.1160779E+00
         -2   -1    0    0    0  501 -0.00000000000E+00  0.00000000000E+00  0.19772039274E+03  0.19772039276E+03  0.25500000000E-02 0.  1.
          2   -1    0    0  501    0  0.00000000000E+00 -0.00000000000E+00 -0.18390046920E+03  0.18390046922E+03  0.25500000000E-02 0. -1.
    8880022    1    1    2    0    0 -0.10814250478E+03 -0.72187419962E+01  0.41894436866E+02  0.19207735012E+03  0.15294330000E+03 0.  1.
    8880022    1    1    2    0    0  0.10814250478E+03  0.72187419962E+01 -0.28074513326E+02  0.18954351186E+03  0.15294330000E+03 0. -1.
<mgrwt>
<rscale>  0 0.18745283E+03</rscale>
<asrwt>0</asrwt>
<pdfrwt beam="1">  1        2 0.28292380E-01 0.18745283E+03</pdfrwt>
<pdfrwt beam="2">  1       -2 0.30418522E-01 0.18745283E+03</pdfrwt>
<totfact> 0.18411351E+03</totfact>
</mgrwt>
</event>
<event>
 4    1  0.5410820E-008  0.2553375E+03  0.7818608E-02  0.1109977E+00
          2   -1    0    0  501    0  0.00000000000E+00  0.00000000000E+00  0.49175709361E+03  0.49175709362E+03  0.25500000000E-02 0. -1.
         -2   -1    0    0    0  501 -0.00000000000E+00 -0.00000000000E+00 -0.15737864141E+03  0.15737864143E+03  0.25500000000E-02 0.  1.
    8880022    1    1    2    0    0 -0.63744076730E+02  0.19427378345E+03  0.38351025361E+02  0.25820159646E+03  0.15294330000E+03 0.  1.
    8880022    1    1    2    0    0  0.63744076730E+02 -0.19427378345E+03  0.29602742684E+03  0.39093413859E+03  0.15294330000E+03 0. -1.
<mgrwt>
<rscale>  0 0.25533755E+03</rscale>
<asrwt>0</asrwt>
<pdfrwt beam="1">  1        2 0.75654938E-01 0.25533755E+03</pdfrwt>
<pdfrwt beam="2">  1       -2 0.24212099E-01 0.25533755E+03</pdfrwt>
<totfact> 0.95607717E+02</totfact>
</mgrwt>
</event>
<event>
 4    1  0.5410820E-008  0.7186328E+03  0.7818608E-02  0.9685888E-01
          2   -1    0    0  501    0  0.00000000000E+00  0.00000000000E+00  0.73245458463E+03  0.73245458463E+03  0.25500000000E-02 0. -1.
         -2   -1    0    0    0  501 -0.00000000000E+00 -0.00000000000E+00 -0.79148116789E+03  0.79148116789E+03  0.25500000000E-02 0.  1.
    8880022    1    1    2    0    0 -0.16307407522E+03  0.68297021572E+03  0.22225243666E+03  0.75221623765E+03  0.15294330000E+03 0.  0.
    8880022    1    1    2    0    0  0.16307407522E+03 -0.68297021572E+03 -0.28127901992E+03  0.77171951487E+03  0.15294330000E+03 0.  0.
<mgrwt>
<rscale>  0 0.71863281E+03</rscale>
<asrwt>0</asrwt>
<pdfrwt beam="1">  1        2 0.11268532E+00 0.71863281E+03</pdfrwt>
<pdfrwt beam="2">  1       -2 0.12176633E+00 0.71863281E+03</pdfrwt>
<totfact> 0.20137650E+01</totfact>
</mgrwt>
</event>
<event>
 4    1  0.5410820E-008  0.8956280E+03  0.7818608E-02  0.9431063E-01
         -2   -1    0    0    0  501 -0.00000000000E+00  0.00000000000E+00  0.42398174081E+03  0.42398174081E+03  0.25500000000E-02 0.  1.
          2   -1    0    0  501    0  0.00000000000E+00 -0.00000000000E+00 -0.33140135841E+04  0.33140135841E+04  0.25500000000E-02 0. -1.
    8880022    1    1    2    0    0 -0.77304367129E+03  0.42563049836E+03 -0.22070388651E+03  0.92242056427E+03  0.15294330000E+03 0.  0.
    8880022    1    1    2    0    0  0.77304367129E+03 -0.42563049836E+03 -0.26693279568E+04  0.28155747606E+04  0.15294330000E+03 0.  0.
<mgrwt>
<rscale>  0 0.89562799E+03</rscale>
<asrwt>0</asrwt>
<pdfrwt beam="1">  1        2 0.50984823E+00 0.89562799E+03</pdfrwt>
<pdfrwt beam="2">  1       -2 0.65227962E-01 0.89562799E+03</pdfrwt>
<totfact> 0.24775962E+00</totfact>
</mgrwt>
</event>
<event>
 4    1  0.5410820E-008  0.3862238E+03  0.7818608E-02  0.1048657E+00
         -2   -1    0    0    0  501 -0.00000000000E+00  0.00000000000E+00  0.32991460656E+03  0.32991460657E+03  0.25500000000E-02 0.  1.
          2   -1    0    0  501    0  0.00000000000E+00 -0.00000000000E+00 -0.12467085996E+04  0.12467085996E+04  0.25500000000E-02 0. -1.
    8880022    1    1    2    0    0 -0.29244468062E+03 -0.20063217620E+03  0.17093545460E+03  0.42235973293E+03  0.15294330000E+03 0.  1.
    8880022    1    1    2    0    0  0.29244468062E+03  0.20063217620E+03 -0.10877294476E+04  0.11542634732E+04  0.15294330000E+03 0.  0.
<mgrwt>
<rscale>  0 0.38622379E+03</rscale>
<asrwt>0</asrwt>
<pdfrwt beam="1">  1        2 0.19180132E+00 0.38622379E+03</pdfrwt>
<pdfrwt beam="2">  1       -2 0.50756094E-01 0.38622379E+03</pdfrwt>
<totfact> 0.69384558E+01</totfact>
</mgrwt>
</event>
<event>
 4    1  0.5410820E-008  0.3719691E+03  0.7818608E-02  0.1053943E+00
          2   -1    0    0  501    0  0.00000000000E+00  0.00000000000E+00  0.47706301528E+03  0.47706301528E+03  0.25500000000E-02 0. -1.
         -2   -1    0    0    0  501 -0.00000000000E+00 -0.00000000000E+00 -0.44619163221E+03  0.44619163222E+03  0.25500000000E-02 0.  1.
    8880022    1    1    2    0    0  0.14367306211E+03  0.30712771011E+03 -0.25766480899E+03  0.45249550926E+03  0.15294330000E+03 0.  1.
    8880022    1    1    2    0    0 -0.14367306211E+03 -0.30712771011E+03  0.28853619205E+03  0.47075913824E+03  0.15294330000E+03 0.  0.
<mgrwt>
<rscale>  0 0.37196913E+03</rscale>
<asrwt>0</asrwt>
<pdfrwt beam="1">  1        2 0.73394310E-01 0.37196913E+03</pdfrwt>
<pdfrwt beam="2">  1       -2 0.68644867E-01 0.37196913E+03</pdfrwt>
<totfact> 0.13058805E+02</totfact>
</mgrwt>
</event>
<event>
 4    1  0.1292238E-007  0.8794801E+03  0.7818608E-02  0.9451602E-01
         -2   -1    0    0    0  501 -0.00000000000E+00  0.00000000000E+00  0.19503496323E+04  0.19503496323E+04  0.25500000000E-02 0.  1.
          2   -1    0    0  501    0  0.00000000000E+00 -0.00000000000E+00 -0.15688403895E+04  0.15688403895E+04  0.25500000000E-02 0. -1.
    8880022    1    1    2    0    0 -0.23945708233E+03 -0.83231837019E+03  0.17117710627E+04  0.19244857463E+04  0.15294330000E+03 0.  0.
    8880022    1    1    2    0    0  0.23945708233E+03  0.83231837019E+03 -0.13302618199E+04  0.15947042755E+04  0.15294330000E+03 0. -1.
<mgrwt>
<rscale>  0 0.87948008E+03</rscale>
<asrwt>0</asrwt>
<pdfrwt beam="1">  1        2 0.24136006E+00 0.87948008E+03</pdfrwt>
<pdfrwt beam="2">  1       -2 0.30005379E+00 0.87948008E+03</pdfrwt>
<totfact> 0.37898218E-01</totfact>
</mgrwt>
</event>
<event>
 4    1  0.5410820E-008  0.1161590E+04  0.7818608E-02  0.9147158E-01
          2   -1    0    0  501    0  0.00000000000E+00  0.00000000000E+00  0.28084438354E+04  0.28084438354E+04  0.25500000000E-02 0. -1.
         -2   -1    0    0    0  501 -0.00000000000E+00 -0.00000000000E+00 -0.83373735403E+03  0.83373735404E+03  0.25500000000E-02 0.  1.
    8880022    1    1    2    0    0  0.26360790972E+03 -0.11208970384E+04 -0.19810601833E+03  0.11783619768E+04  0.15294330000E+03 0.  0.
    8880022    1    1    2    0    0 -0.26360790972E+03  0.11208970384E+04  0.21728124997E+04  0.24638192127E+04  0.15294330000E+03 0.  0.
<mgrwt>
<rscale>  0 0.11615898E+04</rscale>
<asrwt>0</asrwt>
<pdfrwt beam="1">  1        2 0.43206828E+00 0.11615898E+04</pdfrwt>
<pdfrwt beam="2">  1       -2 0.12826729E+00 0.11615898E+04</pdfrwt>
<totfact> 0.10155574E+00</totfact>
</mgrwt>
</event>
<event>
 4    1  0.5410820E-008  0.5599930E+03  0.7818608E-02  0.9992070E-01
          2   -1    0    0  501    0  0.00000000000E+00  0.00000000000E+00  0.78395896647E+03  0.78395896648E+03  0.25500000000E-02 0. -1.
         -2   -1    0    0    0  501 -0.00000000000E+00 -0.00000000000E+00 -0.44511005748E+03  0.44511005749E+03  0.25500000000E-02 0.  1.
    8880022    1    1    2    0    0 -0.39728472439E+03 -0.36382049648E+03 -0.26188053602E+02  0.56060500627E+03  0.15294330000E+03 0.  0.
    8880022    1    1    2    0    0  0.39728472439E+03  0.36382049648E+03  0.36503696259E+03  0.66846401770E+03  0.15294330000E+03 0.  0.
<mgrwt>
<rscale>  0 0.55999300E+03</rscale>
<asrwt>0</asrwt>
<pdfrwt beam="1">  1        2 0.12060907E+00 0.55999300E+03</pdfrwt>
<pdfrwt beam="2">  1       -2 0.68478471E-01 0.55999300E+03</pdfrwt>
<totfact> 0.71017371E+01</totfact>
</mgrwt>
</event>
<event>
 4    1  0.5410820E-008  0.7136354E+03  0.7818608E-02  0.9694194E-01
          2   -1    0    0  501    0  0.00000000000E+00  0.00000000000E+00  0.77326712720E+03  0.77326712721E+03  0.25500000000E-02 0. -1.
         -2   -1    0    0    0  501 -0.00000000000E+00 -0.00000000000E+00 -0.84503752749E+03  0.84503752750E+03  0.25500000000E-02 0.  1.
    8880022    1    1    2    0    0  0.50530662964E+03 -0.48015524377E+03  0.34417840994E+03  0.79229683765E+03  0.15294330000E+03 0.  0.
    8880022    1    1    2    0    0 -0.50530662964E+03  0.48015524377E+03 -0.41594881023E+03  0.82600781705E+03  0.15294330000E+03 0.  0.
<mgrwt>
<rscale>  0 0.71363541E+03</rscale>
<asrwt>0</asrwt>
<pdfrwt beam="1">  1        2 0.11896417E+00 0.71363541E+03</pdfrwt>
<pdfrwt beam="2">  1       -2 0.13000577E+00 0.71363541E+03</pdfrwt>
<totfact> 0.15938368E+01</totfact>
</mgrwt>
</event>
<event>
 4    1  0.5410820E-008  0.1531600E+03  0.7818608E-02  0.1196643E+00
         -2   -1    0    0    0  501 -0.00000000000E+00  0.00000000000E+00  0.38757449085E+03  0.38757449086E+03  0.25500000000E-02 0.  1.
          2   -1    0    0  501    0  0.00000000000E+00 -0.00000000000E+00 -0.49944405955E+03  0.49944405956E+03  0.25500000000E-02 0. -1.
    8880022    1    1    2    0    0  0.78843142160E+01  0.20400203836E+01  0.35983359933E+03  0.39107313423E+03  0.15294330000E+03 0.  1.
    8880022    1    1    2    0    0 -0.78843142160E+01 -0.20400203836E+01 -0.47170316803E+03  0.49594541619E+03  0.15294330000E+03 0.  0.
<mgrwt>
<rscale>  0 0.15315997E+03</rscale>
<asrwt>0</asrwt>
<pdfrwt beam="1">  1        2 0.76837548E-01 0.15315997E+03</pdfrwt>
<pdfrwt beam="2">  1       -2 0.59626845E-01 0.15315997E+03</pdfrwt>
<totfact> 0.17110723E+02</totfact>
</mgrwt>
</event>
<event>
 4    1  0.5410820E-008  0.1753222E+03  0.7818608E-02  0.1172409E+00
          2   -1    0    0  501    0  0.00000000000E+00  0.00000000000E+00  0.61153313402E+03  0.61153313402E+03  0.25500000000E-02 0. -1.
         -2   -1    0    0    0  501 -0.00000000000E+00 -0.00000000000E+00 -0.37421135204E+03  0.37421135205E+03  0.25500000000E-02 0.  1.
    8880022    1    1    2    0    0 -0.63941429242E+02 -0.57076448828E+02 -0.33991724137E+03  0.38246779129E+03  0.15294330000E+03 0.  1.
    8880022    1    1    2    0    0  0.63941429242E+02  0.57076448828E+02  0.57723902334E+03  0.60327669478E+03  0.15294330000E+03 0.  0.
<mgrwt>
<rscale>  0 0.17532222E+03</rscale>
<asrwt>0</asrwt>
<pdfrwt beam="1">  1        2 0.94082020E-01 0.17532222E+03</pdfrwt>
<pdfrwt beam="2">  1       -2 0.57570978E-01 0.17532222E+03</pdfrwt>
<totfact> 0.14581344E+02</totfact>
</mgrwt>
</event>
<event>
 4    1  0.5410820E-008  0.2015029E+03  0.7818608E-02  0.1148477E+00
         -2   -1    0    0    0  501 -0.00000000000E+00  0.00000000000E+00  0.65138190514E+02  0.65138190564E+02  0.25500000000E-02 0.  1.
          2   -1    0    0  501    0  0.00000000000E+00 -0.00000000000E+00 -0.32088023867E+04  0.32088023867E+04  0.25500000000E-02 0. -1.
    8880022    1    1    2    0    0  0.30078872903E+02  0.12769904452E+03 -0.10243841729E+03  0.22604660342E+03  0.15294330000E+03 0.  0.
    8880022    1    1    2    0    0 -0.30078872903E+02 -0.12769904452E+03 -0.30412257789E+04  0.30478939738E+04  0.15294330000E+03 0. -1.
<mgrwt>
<rscale>  0 0.20150295E+03</rscale>
<asrwt>0</asrwt>
<pdfrwt beam="1">  1        2 0.49366178E+00 0.20150295E+03</pdfrwt>
<pdfrwt beam="2">  1       -2 0.10021263E-01 0.20150295E+03</pdfrwt>
<totfact> 0.10646701E+02</totfact>
</mgrwt>
</event>
<event>
 4    1  0.5410820E-008  0.8123710E+03  0.7818608E-02  0.9542281E-01
         -2   -1    0    0    0  501 -0.00000000000E+00  0.00000000000E+00  0.26294765528E+03  0.26294765529E+03  0.25500000000E-02 0.  1.
          2   -1    0    0  501    0  0.00000000000E+00 -0.00000000000E+00 -0.39643791609E+04  0.39643791609E+04  0.25500000000E-02 0. -1.
    8880022    1    1    2    0    0  0.36252106280E+03 -0.71072746042E+03 -0.57040163049E+03  0.99262516442E+03  0.15294330000E+03 0.  0.
    8880022    1    1    2    0    0 -0.36252106280E+03  0.71072746042E+03 -0.31310298751E+04  0.32347016518E+04  0.15294330000E+03 0.  0.
<mgrwt>
<rscale>  0 0.81237103E+03</rscale>
<asrwt>0</asrwt>
<pdfrwt beam="1">  1        2 0.60990444E+00 0.81237103E+03</pdfrwt>
<pdfrwt beam="2">  1       -2 0.40453488E-01 0.81237103E+03</pdfrwt>
<totfact> 0.23085933E+00</totfact>
</mgrwt>
</event>
<event>
 4    1  0.5410820E-008  0.6089635E+03  0.7818608E-02  0.9886982E-01
         -2   -1    0    0    0  501 -0.00000000000E+00  0.00000000000E+00  0.24443784250E+03  0.24443784251E+03  0.25500000000E-02 0.  1.
          2   -1    0    0  501    0  0.00000000000E+00 -0.00000000000E+00 -0.15698079824E+04  0.15698079825E+04  0.25500000000E-02 0. -1.
    8880022    1    1    2    0    0  0.44495643136E+03 -0.38659885694E+03 -0.82890484189E+03  0.10285522796E+04  0.15294330000E+03 0.  0.
    8880022    1    1    2    0    0 -0.44495643136E+03  0.38659885694E+03 -0.49646529806E+03  0.78569354534E+03  0.15294330000E+03 0.  0.
<mgrwt>
<rscale>  0 0.60896351E+03</rscale>
<asrwt>0</asrwt>
<pdfrwt beam="1">  1        2 0.24150891E+00 0.60896351E+03</pdfrwt>
<pdfrwt beam="2">  1       -2 0.37605823E-01 0.60896351E+03</pdfrwt>
<totfact> 0.80140965E+01</totfact>
</mgrwt>
</event>
<event>
 4    1  0.5410820E-008  0.4666282E+03  0.7818608E-02  0.1022876E+00
          2   -1    0    0  501    0  0.00000000000E+00  0.00000000000E+00  0.22634710077E+03  0.22634710078E+03  0.25500000000E-02 0. -1.
         -2   -1    0    0    0  501 -0.00000000000E+00 -0.00000000000E+00 -0.16794769911E+04  0.16794769911E+04  0.25500000000E-02 0.  1.
    8880022    1    1    2    0    0  0.25218616909E+03  0.36159695443E+03 -0.10372684080E+03  0.47801792001E+03  0.15294330000E+03 0. -1.
    8880022    1    1    2    0    0 -0.25218616909E+03 -0.36159695443E+03 -0.13494030495E+04  0.14278061719E+04  0.15294330000E+03 0.  0.
<mgrwt>
<rscale>  0 0.46662820E+03</rscale>
<asrwt>0</asrwt>
<pdfrwt beam="1">  1        2 0.34822632E-01 0.46662820E+03</pdfrwt>
<pdfrwt beam="2">  1       -2 0.25838107E+00 0.46662820E+03</pdfrwt>
<totfact> 0.91752497E+00</totfact>
</mgrwt>
</event>
<event>
 4    1  0.5410820E-008  0.4052108E+03  0.7818608E-02  0.1041990E+00
          2   -1    0    0  501    0  0.00000000000E+00  0.00000000000E+00  0.10061550283E+04  0.10061550283E+04  0.25500000000E-02 0. -1.
         -2   -1    0    0    0  501 -0.00000000000E+00 -0.00000000000E+00 -0.40454586648E+03  0.40454586648E+03  0.25500000000E-02 0.  1.
    8880022    1    1    2    0    0 -0.30843004210E+03 -0.21371717760E+03 -0.24401009325E+03  0.47300814104E+03  0.15294330000E+03 0.  0.
    8880022    1    1    2    0    0  0.30843004210E+03  0.21371717760E+03  0.84561925511E+03  0.93769275379E+03  0.15294330000E+03 0. -1.
<mgrwt>
<rscale>  0 0.40521078E+03</rscale>
<asrwt>0</asrwt>
<pdfrwt beam="1">  1        2 0.15479308E+00 0.40521078E+03</pdfrwt>
<pdfrwt beam="2">  1       -2 0.62237826E-01 0.40521078E+03</pdfrwt>
<totfact> 0.63085800E+01</totfact>
</mgrwt>
</event>
<event>
 4    1  0.5410820E-008  0.4922137E+03  0.7818608E-02  0.1015831E+00
          2   -1    0    0  501    0  0.00000000000E+00  0.00000000000E+00  0.47598027785E+03  0.47598027786E+03  0.25500000000E-02 0. -1.
         -2   -1    0    0    0  501 -0.00000000000E+00 -0.00000000000E+00 -0.88068635513E+03  0.88068635513E+03  0.25500000000E-02 0.  1.
    8880022    1    1    2    0    0  0.26183609551E+03 -0.38771703149E+03  0.23832399712E+03  0.54687532221E+03  0.15294330000E+03 0.  0.
    8880022    1    1    2    0    0 -0.26183609551E+03  0.38771703149E+03 -0.64303007440E+03  0.80979131078E+03  0.15294330000E+03 0.  0.
<mgrwt>
<rscale>  0 0.49221366E+03</rscale>
<asrwt>0</asrwt>
<pdfrwt beam="1">  1        2 0.73227735E-01 0.49221366E+03</pdfrwt>
<pdfrwt beam="2">  1       -2 0.13549021E+00 0.49221366E+03</pdfrwt>
<totfact> 0.26462644E+01</totfact>
</mgrwt>
</event>
<event>
 4    1  0.5410820E-008  0.8083293E+03  0.7818608E-02  0.9548038E-01
         -2   -1    0    0    0  501 -0.00000000000E+00  0.00000000000E+00  0.85978287375E+03  0.85978287376E+03  0.25500000000E-02 0.  1.
          2   -1    0    0  501    0  0.00000000000E+00 -0.00000000000E+00 -0.92266929583E+03  0.92266929583E+03  0.25500000000E-02 0. -1.
    8880022    1    1    2    0    0  0.78313790827E+03 -0.12922730267E+03  0.34282044084E+03  0.87802174620E+03  0.15294330000E+03 0.  0.
    8880022    1    1    2    0    0 -0.78313790827E+03  0.12922730267E+03 -0.40570686291E+03  0.90443042339E+03  0.15294330000E+03 0.  0.
<mgrwt>
<rscale>  0 0.80832935E+03</rscale>
<asrwt>0</asrwt>
<pdfrwt beam="1">  1        2 0.14194912E+00 0.80832935E+03</pdfrwt>
<pdfrwt beam="2">  1       -2 0.13227429E+00 0.80832935E+03</pdfrwt>
<totfact> 0.11883074E+01</totfact>
</mgrwt>
</event>
<event>
 4    1  0.5410820E-008  0.2204391E+04  0.7818608E-02  0.8516603E-01
          2   -1    0    0  501    0  0.00000000000E+00  0.00000000000E+00  0.32686866176E+04  0.32686866176E+04  0.25500000000E-02 0. -1.
         -2   -1    0    0    0  501 -0.00000000000E+00 -0.00000000000E+00 -0.21294263828E+04  0.21294263828E+04  0.25500000000E-02 0.  1.
    8880022    1    1    2    0    0  0.21184168187E+04  0.59013328746E+03  0.20525449773E+04  0.30120225184E+04  0.15294330000E+03 0.  0.
    8880022    1    1    2    0    0 -0.21184168187E+04 -0.59013328746E+03 -0.91328474244E+03  0.23860904820E+04  0.15294330000E+03 0.  0.
<mgrwt>
<rscale>  0 0.22043908E+04</rscale>
<asrwt>0</asrwt>
<pdfrwt beam="1">  1        2 0.50287486E+00 0.22043908E+04</pdfrwt>
<pdfrwt beam="2">  1       -2 0.32760406E+00 0.22043908E+04</pdfrwt>
<totfact> 0.21674523E-02</totfact>
</mgrwt>
</event>
<event>
 4    1  0.5410820E-008  0.8326579E+03  0.7818608E-02  0.9513913E-01
         -2   -1    0    0    0  501 -0.00000000000E+00  0.00000000000E+00  0.57905840541E+03  0.57905840542E+03  0.25500000000E-02 0.  1.
          2   -1    0    0  501    0  0.00000000000E+00 -0.00000000000E+00 -0.40345971515E+04  0.40345971515E+04  0.25500000000E-02 0. -1.
    8880022    1    1    2    0    0 -0.80716564554E+03  0.13568772205E+03 -0.36622564573E+04  0.37557211757E+04  0.15294330000E+03 0.  0.
    8880022    1    1    2    0    0  0.80716564554E+03 -0.13568772205E+03  0.20671771128E+03  0.85793438119E+03  0.15294330000E+03 0.  0.
<mgrwt>
<rscale>  0 0.83265791E+03</rscale>
<asrwt>0</asrwt>
<pdfrwt beam="1">  1        2 0.62070724E+00 0.83265791E+03</pdfrwt>
<pdfrwt beam="2">  1       -2 0.89085911E-01 0.83265791E+03</pdfrwt>
<totfact> 0.37905639E-01</totfact>
</mgrwt>
</event>
<event>
 4    1  0.5410820E-008  0.5292241E+03  0.7818608E-02  0.1006420E+00
         -2   -1    0    0    0  501 -0.00000000000E+00  0.00000000000E+00  0.72837986035E+03  0.72837986036E+03  0.25500000000E-02 0.  1.
          2   -1    0    0  501    0  0.00000000000E+00 -0.00000000000E+00 -0.11871006730E+04  0.11871006730E+04  0.25500000000E-02 0. -1.
    8880022    1    1    2    0    0  0.39675526235E+03 -0.31507422681E+03 -0.10168553058E+04  0.11463301761E+04  0.15294330000E+03 0.  0.
    8880022    1    1    2    0    0 -0.39675526235E+03  0.31507422681E+03  0.55813449318E+03  0.76915035727E+03  0.15294330000E+03 0.  0.
<mgrwt>
<rscale>  0 0.52922411E+03</rscale>
<asrwt>0</asrwt>
<pdfrwt beam="1">  1        2 0.18263087E+00 0.52922411E+03</pdfrwt>
<pdfrwt beam="2">  1       -2 0.11205844E+00 0.52922411E+03</pdfrwt>
<totfact> 0.12744842E+01</totfact>
</mgrwt>
</event>
<event>
 4    1  0.5410820E-008  0.1005502E+04  0.7818608E-02  0.9302531E-01
         -2   -1    0    0    0  501 -0.00000000000E+00  0.00000000000E+00  0.36896826145E+03  0.36896826145E+03  0.25500000000E-02 0.  1.
          2   -1    0    0  501    0  0.00000000000E+00 -0.00000000000E+00 -0.32750304309E+04  0.32750304309E+04  0.25500000000E-02 0. -1.
    8880022    1    1    2    0    0 -0.95340275875E+03  0.28047287092E+03 -0.71671673475E+03  0.12347940649E+04  0.15294330000E+03 0.  0.
    8880022    1    1    2    0    0  0.95340275875E+03 -0.28047287092E+03 -0.21893454347E+04  0.24092046275E+04  0.15294330000E+03 0.  0.
<mgrwt>
<rscale>  0 0.10055016E+04</rscale>
<asrwt>0</asrwt>
<pdfrwt beam="1">  1        2 0.50385082E+00 0.10055016E+04</pdfrwt>
<pdfrwt beam="2">  1       -2 0.56764350E-01 0.10055016E+04</pdfrwt>
<totfact> 0.34673287E+00</totfact>
</mgrwt>
</event>
<event>
 4    1  0.5410820E-008  0.9739071E+03  0.7818608E-02  0.9337635E-01
          2   -1    0    0  501    0  0.00000000000E+00  0.00000000000E+00  0.21190687406E+04  0.21190687406E+04  0.25500000000E-02 0. -1.
         -2   -1    0    0    0  501 -0.00000000000E+00 -0.00000000000E+00 -0.48100157152E+03  0.48100157152E+03  0.25500000000E-02 0.  1.
    8880022    1    1    2    0    0  0.94482850493E+03 -0.18000669438E+03  0.11616166709E+04  0.15158655141E+04  0.15294330000E+03 0.  0.
    8880022    1    1    2    0    0 -0.94482850493E+03  0.18000669438E+03  0.47645049815E+03  0.10842047980E+04  0.15294330000E+03 0.  0.
<mgrwt>
<rscale>  0 0.97390706E+03</rscale>
<asrwt>0</asrwt>
<pdfrwt beam="1">  1        2 0.32601057E+00 0.97390706E+03</pdfrwt>
<pdfrwt beam="2">  1       -2 0.74000244E-01 0.97390706E+03</pdfrwt>
<totfact> 0.95009838E+00</totfact>
</mgrwt>
</event>
<event>
 4    1  0.5410820E-008  0.7480808E+03  0.7818608E-02  0.9638366E-01
         -2   -1    0    0    0  501 -0.00000000000E+00  0.00000000000E+00  0.28467344304E+03  0.28467344305E+03  0.25500000000E-02 0.  1.
          2   -1    0    0  501    0  0.00000000000E+00 -0.00000000000E+00 -0.19659724754E+04  0.19659724754E+04  0.25500000000E-02 0. -1.
    8880022    1    1    2    0    0 -0.31402986370E+03 -0.66152733436E+03 -0.83170836572E+03  0.11186436555E+04  0.15294330000E+03 0. -1.
    8880022    1    1    2    0    0  0.31402986370E+03  0.66152733436E+03 -0.84959066659E+03  0.11320022629E+04  0.15294330000E+03 0.  1.
<mgrwt>
<rscale>  0 0.74808076E+03</rscale>
<asrwt>0</asrwt>
<pdfrwt beam="1">  1        2 0.30245730E+00 0.74808076E+03</pdfrwt>
<pdfrwt beam="2">  1       -2 0.43795916E-01 0.74808076E+03</pdfrwt>
<totfact> 0.35584188E+01</totfact>
</mgrwt>
</event>
<event>
 4    1  0.5410820E-008  0.4781330E+03  0.7818608E-02  0.1019650E+00
          2   -1    0    0  501    0  0.00000000000E+00  0.00000000000E+00  0.19819017735E+04  0.19819017735E+04  0.25500000000E-02 0. -1.
         -2   -1    0    0    0  501 -0.00000000000E+00 -0.00000000000E+00 -0.41272122622E+03  0.41272122623E+03  0.25500000000E-02 0.  1.
    8880022    1    1    2    0    0 -0.23213278052E+03  0.38901654368E+03  0.18009060603E+04  0.18632964848E+04  0.15294330000E+03 0.  0.
    8880022    1    1    2    0    0  0.23213278052E+03 -0.38901654368E+03 -0.23172551307E+03  0.53132651493E+03  0.15294330000E+03 0.  1.
<mgrwt>
<rscale>  0 0.47813299E+03</rscale>
<asrwt>0</asrwt>
<pdfrwt beam="1">  1        2 0.30490796E+00 0.47813299E+03</pdfrwt>
<pdfrwt beam="2">  1       -2 0.63495574E-01 0.47813299E+03</pdfrwt>
<totfact> 0.17038598E+01</totfact>
</mgrwt>
</event>
<event>
 4    1  0.5410820E-008  0.7567987E+03  0.7818608E-02  0.9624744E-01
         -2   -1    0    0    0  501 -0.00000000000E+00  0.00000000000E+00  0.11356539598E+04  0.11356539598E+04  0.25500000000E-02 0.  1.
          2   -1    0    0  501    0  0.00000000000E+00 -0.00000000000E+00 -0.60594270118E+03  0.60594270119E+03  0.25500000000E-02 0. -1.
    8880022    1    1    2    0    0  0.44860473988E+03  0.59000536750E+03 -0.91740078856E+02  0.76233879700E+03  0.15294330000E+03 0.  0.
    8880022    1    1    2    0    0 -0.44860473988E+03 -0.59000536750E+03  0.62145133748E+03  0.97925786399E+03  0.15294330000E+03 0.  0.
<mgrwt>
<rscale>  0 0.75679865E+03</rscale>
<asrwt>0</asrwt>
<pdfrwt beam="1">  1        2 0.93221955E-01 0.75679865E+03</pdfrwt>
<pdfrwt beam="2">  1       -2 0.17471599E+00 0.75679865E+03</pdfrwt>
<totfact> 0.98280287E+00</totfact>
</mgrwt>
</event>
<event>
 4    1  0.5410820E-008  0.5905694E+03  0.7818608E-02  0.9925167E-01
          2   -1    0    0  501    0  0.00000000000E+00  0.00000000000E+00  0.10594347055E+04  0.10594347055E+04  0.25500000000E-02 0. -1.
         -2   -1    0    0    0  501 -0.00000000000E+00 -0.00000000000E+00 -0.41384427896E+03  0.41384427897E+03  0.25500000000E-02 0.  1.
    8880022    1    1    2    0    0 -0.50618877509E+03 -0.26297054501E+03 -0.10339579472E+02  0.59065992203E+03  0.15294330000E+03 0.  1.
    8880022    1    1    2    0    0  0.50618877509E+03  0.26297054501E+03  0.65593000596E+03  0.88261906240E+03  0.15294330000E+03 0.  0.
<mgrwt>
<rscale>  0 0.59056942E+03</rscale>
<asrwt>0</asrwt>
<pdfrwt beam="1">  1        2 0.16298995E+00 0.59056942E+03</pdfrwt>
<pdfrwt beam="2">  1       -2 0.63668351E-01 0.59056942E+03</pdfrwt>
<totfact> 0.54392132E+01</totfact>
</mgrwt>
</event>
<event>
 4    1  0.5410820E-008  0.5100984E+03  0.7818608E-02  0.1011176E+00
          2   -1    0    0  501    0  0.00000000000E+00  0.00000000000E+00  0.26356807956E+04  0.26356807956E+04  0.25500000000E-02 0. -1.
         -2   -1    0    0    0  501 -0.00000000000E+00 -0.00000000000E+00 -0.19516845648E+03  0.19516845650E+03  0.25500000000E-02 0.  1.
    8880022    1    1    2    0    0 -0.33958109493E+02  0.48544364120E+03  0.22152594478E+04  0.22732300271E+04  0.15294330000E+03 0.  0.
    8880022    1    1    2    0    0  0.33958109493E+02 -0.48544364120E+03  0.22525289124E+03  0.55761922493E+03  0.15294330000E+03 0.  0.
<mgrwt>
<rscale>  0 0.51009836E+03</rscale>
<asrwt>0</asrwt>
<pdfrwt beam="1">  1        2 0.40548931E+00 0.51009836E+03</pdfrwt>
<pdfrwt beam="2">  1       -2 0.30025919E-01 0.51009836E+03</pdfrwt>
<totfact> 0.32418426E+01</totfact>
</mgrwt>
</event>
<event>
 4    1  0.5410820E-008  0.6017211E+03  0.7818608E-02  0.9901842E-01
         -2   -1    0    0    0  501 -0.00000000000E+00  0.00000000000E+00  0.57068190268E+03  0.57068190268E+03  0.25500000000E-02 0.  1.
          2   -1    0    0  501    0  0.00000000000E+00 -0.00000000000E+00 -0.83942676931E+03  0.83942676931E+03  0.25500000000E-02 0. -1.
    8880022    1    1    2    0    0 -0.51829813503E+03  0.26465765172E+03 -0.48277799698E+03  0.77145503872E+03  0.15294330000E+03 0.  1.
    8880022    1    1    2    0    0  0.51829813503E+03 -0.26465765172E+03  0.21403313035E+03  0.63865363327E+03  0.15294330000E+03 0.  0.
<mgrwt>
<rscale>  0 0.60172110E+03</rscale>
<asrwt>0</asrwt>
<pdfrwt beam="1">  1        2 0.12914258E+00 0.60172110E+03</pdfrwt>
<pdfrwt beam="2">  1       -2 0.87797216E-01 0.60172110E+03</pdfrwt>
<totfact> 0.37168635E+01</totfact>
</mgrwt>
</event>
<event>
 4    1  0.5410820E-008  0.6970010E+03  0.7818608E-02  0.9722375E-01
          2   -1    0    0  501    0  0.00000000000E+00  0.00000000000E+00  0.98278431893E+03  0.98278431893E+03  0.25500000000E-02 0. -1.
         -2   -1    0    0    0  501 -0.00000000000E+00 -0.00000000000E+00 -0.50377081847E+03  0.50377081847E+03  0.25500000000E-02 0.  1.
    8880022    1    1    2    0    0  0.65128204154E+03  0.19557706922E+03  0.13770389168E+03  0.71047357616E+03  0.15294330000E+03 0.  0.
    8880022    1    1    2    0    0 -0.65128204154E+03 -0.19557706922E+03  0.34130960879E+03  0.77608156124E+03  0.15294330000E+03 0.  0.
<mgrwt>
<rscale>  0 0.69700096E+03</rscale>
<asrwt>0</asrwt>
<pdfrwt beam="1">  1        2 0.15119758E+00 0.69700096E+03</pdfrwt>
<pdfrwt beam="2">  1       -2 0.77503204E-01 0.69700096E+03</pdfrwt>
<totfact> 0.39150722E+01</totfact>
</mgrwt>
</event>
<event>
 4    1  0.5410820E-008  0.1689994E+03  0.7818608E-02  0.1178895E+00
         -2   -1    0    0    0  501 -0.00000000000E+00  0.00000000000E+00  0.48852184561E+03  0.48852184562E+03  0.25500000000E-02 0.  1.
          2   -1    0    0  501    0  0.00000000000E+00 -0.00000000000E+00 -0.41246112544E+03  0.41246112545E+03  0.25500000000E-02 0. -1.
    8880022    1    1    2    0    0  0.71773546964E+02 -0.42061382312E+01 -0.37931456570E+03  0.41525934837E+03  0.15294330000E+03 0. -1.
    8880022    1    1    2    0    0 -0.71773546964E+02  0.42061382312E+01  0.45537528587E+03  0.48572362269E+03  0.15294330000E+03 0.  0.
<mgrwt>
<rscale>  0 0.16899937E+03</rscale>
<asrwt>0</asrwt>
<pdfrwt beam="1">  1        2 0.63455558E-01 0.16899937E+03</pdfrwt>
<pdfrwt beam="2">  1       -2 0.75157207E-01 0.16899937E+03</pdfrwt>
<totfact> 0.12903557E+02</totfact>
</mgrwt>
</event>
<event>
 4    1  0.5410820E-008  0.9895251E+03  0.7818608E-02  0.9320109E-01
          2   -1    0    0  501    0  0.00000000000E+00  0.00000000000E+00  0.40039380361E+04  0.40039380361E+04  0.25500000000E-02 0. -1.
         -2   -1    0    0    0  501 -0.00000000000E+00 -0.00000000000E+00 -0.47483686485E+03  0.47483686485E+03  0.25500000000E-02 0.  1.
    8880022    1    1    2    0    0 -0.97369586035E+03 -0.87662390245E+02  0.20502561676E+03  0.10105421711E+04  0.15294330000E+03 0.  0.
    8880022    1    1    2    0    0  0.97369586035E+03  0.87662390245E+02  0.33240755545E+04  0.34682327299E+04  0.15294330000E+03 0.  0.
<mgrwt>
<rscale>  0 0.98952513E+03</rscale>
<asrwt>0</asrwt>
<pdfrwt beam="1">  1        2 0.61599046E+00 0.98952513E+03</pdfrwt>
<pdfrwt beam="2">  1       -2 0.73051826E-01 0.98952513E+03</pdfrwt>
<totfact> 0.60687461E-01</totfact>
</mgrwt>
</event>
<event>
 4    1  0.5410820E-008  0.1669747E+03  0.7818608E-02  0.1181040E+00
          2   -1    0    0  501    0  0.00000000000E+00  0.00000000000E+00  0.22342411934E+04  0.22342411934E+04  0.25500000000E-02 0. -1.
         -2   -1    0    0    0  501 -0.00000000000E+00 -0.00000000000E+00 -0.10306719197E+03  0.10306719200E+03  0.25500000000E-02 0.  1.
    8880022    1    1    2    0    0  0.65339180004E+02 -0.14821922947E+02 -0.30038621533E+02  0.16965514918E+03  0.15294330000E+03 0.  1.
    8880022    1    1    2    0    0 -0.65339180004E+02  0.14821922947E+02  0.21612126230E+04  0.21676532362E+04  0.15294330000E+03 0.  0.
<mgrwt>
<rscale>  0 0.16697470E+03</rscale>
<asrwt>0</asrwt>
<pdfrwt beam="1">  1        2 0.34372942E+00 0.16697470E+03</pdfrwt>
<pdfrwt beam="2">  1       -2 0.15856491E-01 0.16697470E+03</pdfrwt>
<totfact> 0.18146748E+02</totfact>
</mgrwt>
</event>
<event>
 4    1  0.5410820E-008  0.3615629E+03  0.7818608E-02  0.1057967E+00
         -2   -1    0    0    0  501 -0.00000000000E+00  0.00000000000E+00  0.93318485519E+03  0.93318485520E+03  0.25500000000E-02 0.  1.
          2   -1    0    0  501    0  0.00000000000E+00 -0.00000000000E+00 -0.20339824490E+03  0.20339824492E+03  0.25500000000E-02 0. -1.
    8880022    1    1    2    0    0 -0.15917339237E+03 -0.28635631784E+03  0.68194893355E+03  0.77186923153E+03  0.15294330000E+03 0.  0.
    8880022    1    1    2    0    0  0.15917339237E+03  0.28635631784E+03  0.47837676745E+02  0.36471386858E+03  0.15294330000E+03 0.  0.
<mgrwt>
<rscale>  0 0.36156294E+03</rscale>
<asrwt>0</asrwt>
<pdfrwt beam="1">  1        2 0.31292038E-01 0.36156294E+03</pdfrwt>
<pdfrwt beam="2">  1       -2 0.14356690E+00 0.36156294E+03</pdfrwt>
<totfact> 0.59246602E+01</totfact>
</mgrwt>
</event>
<event>
 4    1  0.5410820E-008  0.6617246E+03  0.7818608E-02  0.9785024E-01
          2   -1    0    0  501    0  0.00000000000E+00  0.00000000000E+00  0.21622281625E+04  0.21622281625E+04  0.25500000000E-02 0. -1.
         -2   -1    0    0    0  501 -0.00000000000E+00 -0.00000000000E+00 -0.36223756977E+03  0.36223756978E+03  0.25500000000E-02 0.  1.
    8880022    1    1    2    0    0  0.57036309248E+03  0.29861961040E+03  0.61832156477E+02  0.66460710015E+03  0.15294330000E+03 0.  0.
    8880022    1    1    2    0    0 -0.57036309248E+03 -0.29861961040E+03  0.17381584362E+04  0.18598586321E+04  0.15294330000E+03 0.  0.
<mgrwt>
<rscale>  0 0.66172455E+03</rscale>
<asrwt>0</asrwt>
<pdfrwt beam="1">  1        2 0.33265048E+00 0.66172455E+03</pdfrwt>
<pdfrwt beam="2">  1       -2 0.55728857E-01 0.66172455E+03</pdfrwt>
<totfact> 0.17265793E+01</totfact>
</mgrwt>
</event>
<event>
 4    1  0.5410820E-008  0.8164253E+03  0.7818608E-02  0.9536542E-01
          2   -1    0    0  501    0  0.00000000000E+00  0.00000000000E+00  0.13457245777E+04  0.13457245777E+04  0.25500000000E-02 0. -1.
         -2   -1    0    0    0  501 -0.00000000000E+00 -0.00000000000E+00 -0.11110467028E+04  0.11110467028E+04  0.25500000000E-02 0.  1.
    8880022    1    1    2    0    0  0.64704391696E+03  0.47380662167E+03  0.10318021996E+04  0.13157378072E+04  0.15294330000E+03 0.  0.
    8880022    1    1    2    0    0 -0.64704391696E+03 -0.47380662167E+03 -0.79712432461E+03  0.11410334733E+04  0.15294330000E+03 0.  0.
<mgrwt>
<rscale>  0 0.81642526E+03</rscale>
<asrwt>0</asrwt>
<pdfrwt beam="1">  1        2 0.20703455E+00 0.81642526E+03</pdfrwt>
<pdfrwt beam="2">  1       -2 0.17093026E+00 0.81642526E+03</pdfrwt>
<totfact> 0.33146697E+00</totfact>
</mgrwt>
</event>
<event>
 4    1  0.5410820E-008  0.3691480E+03  0.7818608E-02  0.1055019E+00
         -2   -1    0    0    0  501 -0.00000000000E+00  0.00000000000E+00  0.12508574927E+03  0.12508574929E+03  0.25500000000E-02 0.  1.
          2   -1    0    0  501    0  0.00000000000E+00 -0.00000000000E+00 -0.25916149758E+04  0.25916149758E+04  0.25500000000E-02 0. -1.
    8880022    1    1    2    0    0 -0.30978353572E+03 -0.13004901546E+03 -0.19909803276E+03  0.41941657703E+03  0.15294330000E+03 0.  0.
    8880022    1    1    2    0    0  0.30978353572E+03  0.13004901546E+03 -0.22674311938E+04  0.22972841481E+04  0.15294330000E+03 0. -1.
<mgrwt>
<rscale>  0 0.36914799E+03</rscale>
<asrwt>0</asrwt>
<pdfrwt beam="1">  1        2 0.39870996E+00 0.36914799E+03</pdfrwt>
<pdfrwt beam="2">  1       -2 0.19243963E-01 0.36914799E+03</pdfrwt>
<totfact> 0.78356231E+01</totfact>
</mgrwt>
</event>
<event>
 4    1  0.5410820E-008  0.6215165E+03  0.7818608E-02  0.9861745E-01
          2   -1    0    0  501    0  0.00000000000E+00  0.00000000000E+00  0.55902068230E+03  0.55902068231E+03  0.25500000000E-02 0. -1.
         -2   -1    0    0    0  501 -0.00000000000E+00 -0.00000000000E+00 -0.14669382791E+04  0.14669382791E+04  0.25500000000E-02 0.  1.
    8880022    1    1    2    0    0 -0.53662840249E+03 -0.27371708100E+03 -0.11906892046E+04  0.13431394260E+04  0.15294330000E+03 0.  0.
    8880022    1    1    2    0    0  0.53662840249E+03  0.27371708100E+03  0.28277160775E+03  0.68281953543E+03  0.15294330000E+03 0.  0.
<mgrwt>
<rscale>  0 0.62151648E+03</rscale>
<asrwt>0</asrwt>
<pdfrwt beam="1">  1        2 0.86003183E-01 0.62151648E+03</pdfrwt>
<pdfrwt beam="2">  1       -2 0.22568281E+00 0.62151648E+03</pdfrwt>
<totfact> 0.51251672E+00</totfact>
</mgrwt>
</event>
<event>
 4    1  0.5410820E-008  0.4414538E+03  0.7818608E-02  0.1030302E+00
          2   -1    0    0  501    0  0.00000000000E+00  0.00000000000E+00  0.77062433109E+03  0.77062433109E+03  0.25500000000E-02 0. -1.
         -2   -1    0    0    0  501 -0.00000000000E+00 -0.00000000000E+00 -0.27835520491E+03  0.27835520492E+03  0.25500000000E-02 0.  1.
    8880022    1    1    2    0    0  0.28403898242E+03 -0.30134975375E+03  0.40478085546E+03  0.59893990649E+03  0.15294330000E+03 0.  0.
    8880022    1    1    2    0    0 -0.28403898242E+03  0.30134975375E+03  0.87488270709E+02  0.45003962953E+03  0.15294330000E+03 0.  1.
<mgrwt>
<rscale>  0 0.44145381E+03</rscale>
<asrwt>0</asrwt>
<pdfrwt beam="1">  1        2 0.11855759E+00 0.44145381E+03</pdfrwt>
<pdfrwt beam="2">  1       -2 0.42823878E-01 0.44145381E+03</pdfrwt>
<totfact> 0.19279053E+02</totfact>
</mgrwt>
</event>
<event>
 4    1  0.5410820E-008  0.8814172E+03  0.7818608E-02  0.9449114E-01
         -2   -1    0    0    0  501 -0.00000000000E+00  0.00000000000E+00  0.69032282181E+03  0.69032282181E+03  0.25500000000E-02 0.  1.
          2   -1    0    0  501    0  0.00000000000E+00 -0.00000000000E+00 -0.16486019818E+04  0.16486019818E+04  0.25500000000E-02 0. -1.
    8880022    1    1    2    0    0  0.26454932311E+03  0.82675161202E+03  0.17966844956E+03  0.89954264886E+03  0.15294330000E+03 0.  0.
    8880022    1    1    2    0    0 -0.26454932311E+03 -0.82675161202E+03 -0.11379476096E+04  0.14393821548E+04  0.15294330000E+03 0.  0.
<mgrwt>
<rscale>  0 0.88141717E+03</rscale>
<asrwt>0</asrwt>
<pdfrwt beam="1">  1        2 0.25363107E+00 0.88141717E+03</pdfrwt>
<pdfrwt beam="2">  1       -2 0.10620351E+00 0.88141717E+03</pdfrwt>
<totfact> 0.75660710E+00</totfact>
</mgrwt>
</event>
<event>
 4    1  0.5410820E-008  0.2949233E+03  0.7818608E-02  0.1087806E+00
         -2   -1    0    0    0  501 -0.00000000000E+00  0.00000000000E+00  0.20271081361E+03  0.20271081363E+03  0.25500000000E-02 0.  1.
          2   -1    0    0  501    0  0.00000000000E+00 -0.00000000000E+00 -0.11055198394E+04  0.11055198394E+04  0.25500000000E-02 0. -1.
    8880022    1    1    2    0    0  0.21839957543E+03 -0.12605439512E+03  0.60259322234E+02  0.30101648462E+03  0.15294330000E+03 0.  0.
    8880022    1    1    2    0    0 -0.21839957543E+03  0.12605439512E+03 -0.96306834804E+03  0.10072141684E+04  0.15294330000E+03 0. -1.
<mgrwt>
<rscale>  0 0.29492327E+03</rscale>
<asrwt>0</asrwt>
<pdfrwt beam="1">  1        2 0.17007997E+00 0.29492327E+03</pdfrwt>
<pdfrwt beam="2">  1       -2 0.31186280E-01 0.29492327E+03</pdfrwt>
<totfact> 0.21717336E+02</totfact>
</mgrwt>
</event>
<event>
 4    1  0.5410820E-008  0.3580882E+03  0.7818608E-02  0.1059343E+00
         -2   -1    0    0    0  501 -0.00000000000E+00  0.00000000000E+00  0.73870136577E+02  0.73870136621E+02  0.25500000000E-02 0.  1.
          2   -1    0    0  501    0  0.00000000000E+00 -0.00000000000E+00 -0.24893929206E+04  0.24893929206E+04  0.25500000000E-02 0. -1.
    8880022    1    1    2    0    0  0.22996066137E+03 -0.22793331978E+03 -0.50262731841E+03  0.61713967485E+03  0.15294330000E+03 0.  0.
    8880022    1    1    2    0    0 -0.22996066137E+03  0.22793331978E+03 -0.19128954656E+04  0.19461233824E+04  0.15294330000E+03 0.  0.
<mgrwt>
<rscale>  0 0.35808820E+03</rscale>
<asrwt>0</asrwt>
<pdfrwt beam="1">  1        2 0.38298346E+00 0.35808820E+03</pdfrwt>
<pdfrwt beam="2">  1       -2 0.11364638E-01 0.35808820E+03</pdfrwt>
<totfact> 0.21559266E+02</totfact>
</mgrwt>
</event>
<event>
 4    1  0.5410820E-008  0.7518705E+03  0.7818608E-02  0.9632420E-01
         -2   -1    0    0    0  501 -0.00000000000E+00  0.00000000000E+00  0.41996756582E+03  0.41996756583E+03  0.25500000000E-02 0.  1.
          2   -1    0    0  501    0  0.00000000000E+00 -0.00000000000E+00 -0.17536254870E+04  0.17536254870E+04  0.25500000000E-02 0. -1.
    8880022    1    1    2    0    0  0.67078616771E+03 -0.30325494371E+03 -0.11907534258E+04  0.14082624109E+04  0.15294330000E+03 0.  0.
    8880022    1    1    2    0    0 -0.67078616771E+03  0.30325494371E+03 -0.14290449529E+03  0.76533064192E+03  0.15294330000E+03 0.  0.
<mgrwt>
<rscale>  0 0.75187053E+03</rscale>
<asrwt>0</asrwt>
<pdfrwt beam="1">  1        2 0.26978853E+00 0.75187053E+03</pdfrwt>
<pdfrwt beam="2">  1       -2 0.64610395E-01 0.75187053E+03</pdfrwt>
<totfact> 0.20825980E+01</totfact>
</mgrwt>
</event>
<event>
 4    1  0.5410820E-008  0.2071132E+03  0.7818608E-02  0.1143873E+00
          2   -1    0    0  501    0  0.00000000000E+00  0.00000000000E+00  0.40962956884E+03  0.40962956884E+03  0.25500000000E-02 0. -1.
         -2   -1    0    0    0  501 -0.00000000000E+00 -0.00000000000E+00 -0.25325529793E+03  0.25325529794E+03  0.25500000000E-02 0.  1.
    8880022    1    1    2    0    0  0.94942424333E+02 -0.10242148901E+03 -0.17564439413E+03  0.27156367864E+03  0.15294330000E+03 0.  1.
    8880022    1    1    2    0    0 -0.94942424333E+02  0.10242148901E+03  0.33201866504E+03  0.39132118815E+03  0.15294330000E+03 0.  0.
<mgrwt>
<rscale>  0 0.20711320E+03</rscale>
<asrwt>0</asrwt>
<pdfrwt beam="1">  1        2 0.63019933E-01 0.20711320E+03</pdfrwt>
<pdfrwt beam="2">  1       -2 0.38962354E-01 0.20711320E+03</pdfrwt>
<totfact> 0.49040501E+02</totfact>
</mgrwt>
</event>
<event>
 4    1  0.5410820E-008  0.1494059E+04  0.7818608E-02  0.8888413E-01
         -2   -1    0    0    0  501 -0.00000000000E+00  0.00000000000E+00  0.73498860236E+03  0.73498860237E+03  0.25500000000E-02 0.  1.
          2   -1    0    0  501    0  0.00000000000E+00 -0.00000000000E+00 -0.36809500445E+04  0.36809500445E+04  0.25500000000E-02 0. -1.
    8880022    1    1    2    0    0 -0.11941808355E+04 -0.88473308018E+03 -0.23964350343E+04  0.28240242594E+04  0.15294330000E+03 0.  0.
    8880022    1    1    2    0    0  0.11941808355E+04  0.88473308018E+03 -0.54952640780E+03  0.15919143874E+04  0.15294330000E+03 0.  0.
<mgrwt>
<rscale>  0 0.14940589E+04</rscale>
<asrwt>0</asrwt>
<pdfrwt beam="1">  1        2 0.56630000E+00 0.14940589E+04</pdfrwt>
<pdfrwt beam="2">  1       -2 0.11307517E+00 0.14940589E+04</pdfrwt>
<totfact> 0.35659785E-01</totfact>
</mgrwt>
</event>
<event>
 4    1  0.5410820E-008  0.2421414E+03  0.7818608E-02  0.1118374E+00
          2   -1    0    0  501    0  0.00000000000E+00  0.00000000000E+00  0.25122671733E+04  0.25122671733E+04  0.25500000000E-02 0. -1.
         -2   -1    0    0    0  501 -0.00000000000E+00 -0.00000000000E+00 -0.35291756371E+03  0.35291756372E+03  0.25500000000E-02 0.  1.
    8880022    1    1    2    0    0 -0.70661423201E+02  0.17391880210E+03  0.24640883289E+04  0.24759571346E+04  0.15294330000E+03 0. -1.
    8880022    1    1    2    0    0  0.70661423201E+02 -0.17391880210E+03 -0.30473871932E+03  0.38922760247E+03  0.15294330000E+03 0.  0.
<mgrwt>
<rscale>  0 0.24214136E+03</rscale>
<asrwt>0</asrwt>
<pdfrwt beam="1">  1        2 0.38650265E+00 0.24214136E+03</pdfrwt>
<pdfrwt beam="2">  1       -2 0.54295008E-01 0.24214136E+03</pdfrwt>
<totfact> 0.13233085E+01</totfact>
</mgrwt>
</event>
<event>
 4    1  0.5410820E-008  0.3787819E+03  0.7818608E-02  0.1051385E+00
         -2   -1    0    0    0  501 -0.00000000000E+00  0.00000000000E+00  0.14083848221E+03  0.14083848223E+03  0.25500000000E-02 0.  1.
          2   -1    0    0  501    0  0.00000000000E+00 -0.00000000000E+00 -0.26121993582E+04  0.26121993582E+04  0.25500000000E-02 0. -1.
    8880022    1    1    2    0    0 -0.27930870803E+03 -0.20511154803E+03 -0.23107869593E+04  0.23416259577E+04  0.15294330000E+03 0. -1.
    8880022    1    1    2    0    0  0.27930870803E+03  0.20511154803E+03 -0.16057391670E+03  0.41141188274E+03  0.15294330000E+03 0.  0.
<mgrwt>
<rscale>  0 0.37878194E+03</rscale>
<asrwt>0</asrwt>
<pdfrwt beam="1">  1        2 0.40187679E+00 0.37878194E+03</pdfrwt>
<pdfrwt beam="2">  1       -2 0.21667461E-01 0.37878194E+03</pdfrwt>
<totfact> 0.61960786E+01</totfact>
</mgrwt>
</event>
<event>
 4    1  0.5410820E-008  0.7637129E+03  0.7818608E-02  0.9614079E-01
         -2   -1    0    0    0  501 -0.00000000000E+00  0.00000000000E+00  0.17616418031E+04  0.17616418031E+04  0.25500000000E-02 0.  1.
          2   -1    0    0  501    0  0.00000000000E+00 -0.00000000000E+00 -0.76241836154E+03  0.76241836154E+03  0.25500000000E-02 0. -1.
    8880022    1    1    2    0    0  0.38587810494E+03  0.64106458873E+03  0.14488568112E+04  0.16378166659E+04  0.15294330000E+03 0.  0.
    8880022    1    1    2    0    0 -0.38587810494E+03 -0.64106458873E+03 -0.44963336968E+03  0.88624349867E+03  0.15294330000E+03 0.  0.
<mgrwt>
<rscale>  0 0.76371289E+03</rscale>
<asrwt>0</asrwt>
<pdfrwt beam="1">  1        2 0.11729513E+00 0.76371289E+03</pdfrwt>
<pdfrwt beam="2">  1       -2 0.27102181E+00 0.76371289E+03</pdfrwt>
<totfact> 0.18133642E+00</totfact>
</mgrwt>
</event>
<event>
 4    1  0.5410820E-008  0.7290045E+03  0.7818608E-02  0.9668877E-01
         -2   -1    0    0    0  501 -0.00000000000E+00  0.00000000000E+00  0.29956319218E+03  0.29956319219E+03  0.25500000000E-02 0.  1.
          2   -1    0    0  501    0  0.00000000000E+00 -0.00000000000E+00 -0.22215007490E+04  0.22215007490E+04  0.25500000000E-02 0. -1.
    8880022    1    1    2    0    0  0.40316694715E+03  0.58780299150E+03 -0.15266751579E+04  0.16917992301E+04  0.15294330000E+03 0.  0.
    8880022    1    1    2    0    0 -0.40316694715E+03 -0.58780299150E+03 -0.39526239892E+03  0.82926471112E+03  0.15294330000E+03 0.  0.
<mgrwt>
<rscale>  0 0.72900452E+03</rscale>
<asrwt>0</asrwt>
<pdfrwt beam="1">  1        2 0.34176934E+00 0.72900452E+03</pdfrwt>
<pdfrwt beam="2">  1       -2 0.46086646E-01 0.72900452E+03</pdfrwt>
<totfact> 0.23348531E+01</totfact>
</mgrwt>
</event>
<event>
 4    1  0.5410820E-008  0.4091459E+03  0.7818608E-02  0.1040658E+00
         -2   -1    0    0    0  501 -0.00000000000E+00  0.00000000000E+00  0.84663690739E+03  0.84663690740E+03  0.25500000000E-02 0.  1.
          2   -1    0    0  501    0  0.00000000000E+00 -0.00000000000E+00 -0.12759149187E+04  0.12759149187E+04  0.25500000000E-02 0. -1.
    8880022    1    1    2    0    0 -0.15775573059E+03 -0.34514032218E+03 -0.11902244258E+04  0.12585843434E+04  0.15294330000E+03 0.  0.
    8880022    1    1    2    0    0  0.15775573059E+03  0.34514032218E+03  0.76094641449E+03  0.86396748276E+03  0.15294330000E+03 0.  0.
<mgrwt>
<rscale>  0 0.40914590E+03</rscale>
<asrwt>0</asrwt>
<pdfrwt beam="1">  1        2 0.19629460E+00 0.40914590E+03</pdfrwt>
<pdfrwt beam="2">  1       -2 0.13025183E+00 0.40914590E+03</pdfrwt>
<totfact> 0.80189728E+00</totfact>
</mgrwt>
</event>
<event>
 4    1  0.5410820E-008  0.3817058E+03  0.7818608E-02  0.1050305E+00
          2   -1    0    0  501    0  0.00000000000E+00  0.00000000000E+00  0.12416028530E+04  0.12416028531E+04  0.25500000000E-02 0. -1.
         -2   -1    0    0    0  501 -0.00000000000E+00 -0.00000000000E+00 -0.44208334913E+03  0.44208334914E+03  0.25500000000E-02 0.  1.
    8880022    1    1    2    0    0  0.16690489084E+03  0.30732786315E+03  0.11212725242E+04  0.11844624877E+04  0.15294330000E+03 0. -1.
    8880022    1    1    2    0    0 -0.16690489084E+03 -0.30732786315E+03 -0.32175302031E+03  0.49922371453E+03  0.15294330000E+03 0.  0.
<mgrwt>
<rscale>  0 0.38170579E+03</rscale>
<asrwt>0</asrwt>
<pdfrwt beam="1">  1        2 0.19101582E+00 0.38170579E+03</pdfrwt>
<pdfrwt beam="2">  1       -2 0.68012823E-01 0.38170579E+03</pdfrwt>
<totfact> 0.38006823E+01</totfact>
</mgrwt>
</event>
<event>
 4    1  0.5410820E-008  0.4024977E+03  0.7818608E-02  0.1042918E+00
         -2   -1    0    0    0  501 -0.00000000000E+00  0.00000000000E+00  0.38910910568E+03  0.38910910568E+03  0.25500000000E-02 0.  1.
          2   -1    0    0  501    0  0.00000000000E+00 -0.00000000000E+00 -0.84857650445E+03  0.84857650446E+03  0.25500000000E-02 0. -1.
    8880022    1    1    2    0    0 -0.12309444789E+03 -0.35136942303E+03 -0.67139780211E+03  0.78280225871E+03  0.15294330000E+03 0.  0.
    8880022    1    1    2    0    0  0.12309444789E+03  0.35136942303E+03  0.21193040333E+03  0.45488335144E+03  0.15294330000E+03 0.  1.
<mgrwt>
<rscale>  0 0.40249766E+03</rscale>
<asrwt>0</asrwt>
<pdfrwt beam="1">  1        2 0.13055023E+00 0.40249766E+03</pdfrwt>
<pdfrwt beam="2">  1       -2 0.59862939E-01 0.40249766E+03</pdfrwt>
<totfact> 0.86675274E+01</totfact>
</mgrwt>
</event>
<event>
 4    1  0.5410820E-008  0.3338681E+03  0.7818608E-02  0.1069438E+00
          2   -1    0    0  501    0  0.00000000000E+00  0.00000000000E+00  0.24998644611E+03  0.24998644613E+03  0.25500000000E-02 0. -1.
         -2   -1    0    0    0  501 -0.00000000000E+00 -0.00000000000E+00 -0.14833451787E+04  0.14833451787E+04  0.25500000000E-02 0.  1.
    8880022    1    1    2    0    0  0.14694944074E+02 -0.29641242465E+03 -0.13414723811E+04  0.13823950481E+04  0.15294330000E+03 0.  0.
    8880022    1    1    2    0    0 -0.14694944074E+02  0.29641242465E+03  0.10811364849E+03  0.35093657671E+03  0.15294330000E+03 0.  0.
<mgrwt>
<rscale>  0 0.33386812E+03</rscale>
<asrwt>0</asrwt>
<pdfrwt beam="1">  1        2 0.38459454E-01 0.33386812E+03</pdfrwt>
<pdfrwt beam="2">  1       -2 0.22820695E+00 0.33386812E+03</pdfrwt>
<totfact> 0.12794724E+01</totfact>
</mgrwt>
</event>
<event>
 4    1  0.5410820E-008  0.7149149E+03  0.7818608E-02  0.9692060E-01
         -2   -1    0    0    0  501 -0.00000000000E+00  0.00000000000E+00  0.56334540524E+03  0.56334540524E+03  0.25500000000E-02 0.  1.
          2   -1    0    0  501    0  0.00000000000E+00 -0.00000000000E+00 -0.14406667779E+04  0.14406667779E+04  0.25500000000E-02 0. -1.
    8880022    1    1    2    0    0 -0.68247474480E+03 -0.14812129172E+03  0.17103901291E+03  0.73509026065E+03  0.15294330000E+03 0.  0.
    8880022    1    1    2    0    0  0.68247474480E+03  0.14812129172E+03 -0.10483603856E+04  0.12689219225E+04  0.15294330000E+03 0.  0.
<mgrwt>
<rscale>  0 0.71491492E+03</rscale>
<asrwt>0</asrwt>
<pdfrwt beam="1">  1        2 0.22164104E+00 0.71491492E+03</pdfrwt>
<pdfrwt beam="2">  1       -2 0.86668525E-01 0.71491492E+03</pdfrwt>
<totfact> 0.16247867E+01</totfact>
</mgrwt>
</event>
<event>
 4    1  0.5410820E-008  0.7314759E+03  0.7818608E-02  0.9664868E-01
         -2   -1    0    0    0  501 -0.00000000000E+00  0.00000000000E+00  0.31806283034E+03  0.31806283035E+03  0.25500000000E-02 0.  1.
          2   -1    0    0  501    0  0.00000000000E+00 -0.00000000000E+00 -0.22858962085E+04  0.22858962085E+04  0.25500000000E-02 0. -1.
    8880022    1    1    2    0    0 -0.62562436745E+03 -0.34678459528E+03 -0.31484628683E+03  0.79635748380E+03  0.15294330000E+03 0.  0.
    8880022    1    1    2    0    0  0.62562436745E+03  0.34678459528E+03 -0.16529870914E+04  0.18076015551E+04  0.15294330000E+03 0.  0.
<mgrwt>
<rscale>  0 0.73147594E+03</rscale>
<asrwt>0</asrwt>
<pdfrwt beam="1">  1        2 0.35167633E+00 0.73147594E+03</pdfrwt>
<pdfrwt beam="2">  1       -2 0.48932745E-01 0.73147594E+03</pdfrwt>
<totfact> 0.19057997E+01</totfact>
</mgrwt>
</event>
<event>
 4    1  0.5410820E-008  0.5390277E+03  0.7818608E-02  0.1004066E+00
         -2   -1    0    0    0  501 -0.00000000000E+00  0.00000000000E+00  0.63125643856E+03  0.63125643856E+03  0.25500000000E-02 0.  1.
          2   -1    0    0  501    0  0.00000000000E+00 -0.00000000000E+00 -0.15166913252E+04  0.15166913252E+04  0.25500000000E-02 0. -1.
    8880022    1    1    2    0    0  0.45820733092E+03 -0.23917614339E+03 -0.13390370661E+04  0.14434580365E+04  0.15294330000E+03 0.  0.
    8880022    1    1    2    0    0 -0.45820733092E+03  0.23917614339E+03  0.45360217943E+03  0.70448972731E+03  0.15294330000E+03 0.  0.
<mgrwt>
<rscale>  0 0.53902768E+03</rscale>
<asrwt>0</asrwt>
<pdfrwt beam="1">  1        2 0.23333713E+00 0.53902768E+03</pdfrwt>
<pdfrwt beam="2">  1       -2 0.97116376E-01 0.53902768E+03</pdfrwt>
<totfact> 0.11649894E+01</totfact>
</mgrwt>
</event>
<event>
 4    1  0.5410820E-008  0.1328758E+04  0.7818608E-02  0.9007066E-01
         -2   -1    0    0    0  501 -0.00000000000E+00  0.00000000000E+00  0.10801339733E+04  0.10801339733E+04  0.25500000000E-02 0.  1.
          2   -1    0    0  501    0  0.00000000000E+00 -0.00000000000E+00 -0.22364129061E+04  0.22364129061E+04  0.25500000000E-02 0. -1.
    8880022    1    1    2    0    0 -0.88012259062E+03  0.98366191786E+03  0.28207581984E+03  0.13583684936E+04  0.15294330000E+03 0.  0.
    8880022    1    1    2    0    0  0.88012259062E+03 -0.98366191786E+03 -0.14383547527E+04  0.19581783858E+04  0.15294330000E+03 0.  0.
<mgrwt>
<rscale>  0 0.13287581E+04</rscale>
<asrwt>0</asrwt>
<pdfrwt beam="1">  1        2 0.34406352E+00 0.13287581E+04</pdfrwt>
<pdfrwt beam="2">  1       -2 0.16617446E+00 0.13287581E+04</pdfrwt>
<totfact> 0.10727688E+00</totfact>
</mgrwt>
</event>
<event>
 4    1  0.5410820E-008  0.1036579E+04  0.7818608E-02  0.9269311E-01
          2   -1    0    0  501    0  0.00000000000E+00  0.00000000000E+00  0.73594033816E+03  0.73594033817E+03  0.25500000000E-02 0. -1.
         -2   -1    0    0    0  501 -0.00000000000E+00 -0.00000000000E+00 -0.25985918321E+04  0.25985918321E+04  0.25500000000E-02 0.  1.
    8880022    1    1    2    0    0  0.62382764861E+03 -0.81359905723E+03 -0.20349314139E+04  0.22837341950E+04  0.15294330000E+03 0.  0.
    8880022    1    1    2    0    0 -0.62382764861E+03  0.81359905723E+03  0.17227991992E+03  0.10507979753E+04  0.15294330000E+03 0.  0.
<mgrwt>
<rscale>  0 0.10365790E+04</rscale>
<asrwt>0</asrwt>
<pdfrwt beam="1">  1        2 0.11322159E+00 0.10365790E+04</pdfrwt>
<pdfrwt beam="2">  1       -2 0.39978335E+00 0.10365790E+04</pdfrwt>
<totfact> 0.28967077E-01</totfact>
</mgrwt>
</event>
<event>
 4    1  0.5410820E-008  0.4158086E+03  0.7818608E-02  0.1038439E+00
          2   -1    0    0  501    0  0.00000000000E+00  0.00000000000E+00  0.98149482730E+03  0.98149482730E+03  0.25500000000E-02 0. -1.
         -2   -1    0    0    0  501 -0.00000000000E+00 -0.00000000000E+00 -0.69254989982E+03  0.69254989982E+03  0.25500000000E-02 0.  1.
    8880022    1    1    2    0    0 -0.34332919209E+03 -0.17784875201E+03 -0.57830039656E+03  0.71226969219E+03  0.15294330000E+03 0.  1.
    8880022    1    1    2    0    0  0.34332919209E+03  0.17784875201E+03  0.86724532404E+03  0.96177503493E+03  0.15294330000E+03 0.  0.
<mgrwt>
<rscale>  0 0.41580857E+03</rscale>
<asrwt>0</asrwt>
<pdfrwt beam="1">  1        2 0.15099920E+00 0.41580857E+03</pdfrwt>
<pdfrwt beam="2">  1       -2 0.10654614E+00 0.41580857E+03</pdfrwt>
<totfact> 0.19571250E+01</totfact>
</mgrwt>
</event>
<event>
 4    1  0.5410820E-008  0.6988105E+03  0.7818608E-02  0.9719269E-01
          2   -1    0    0  501    0  0.00000000000E+00  0.00000000000E+00  0.75096178396E+03  0.75096178396E+03  0.25500000000E-02 0. -1.
         -2   -1    0    0    0  501 -0.00000000000E+00 -0.00000000000E+00 -0.83657745248E+03  0.83657745249E+03  0.25500000000E-02 0.  1.
    8880022    1    1    2    0    0 -0.59530865941E+03  0.33249370615E+03 -0.41738714278E+03  0.81397060424E+03  0.15294330000E+03 0.  0.
    8880022    1    1    2    0    0  0.59530865941E+03 -0.33249370615E+03  0.33177147426E+03  0.77356863221E+03  0.15294330000E+03 0.  0.
<mgrwt>
<rscale>  0 0.69881050E+03</rscale>
<asrwt>0</asrwt>
<pdfrwt beam="1">  1        2 0.11553258E+00 0.69881050E+03</pdfrwt>
<pdfrwt beam="2">  1       -2 0.12870422E+00 0.69881050E+03</pdfrwt>
<totfact> 0.17008352E+01</totfact>
</mgrwt>
</event>
<event>
 4    1  0.5410820E-008  0.8369745E+03  0.7818608E-02  0.9507988E-01
          2   -1    0    0  501    0  0.00000000000E+00  0.00000000000E+00  0.86765384720E+03  0.86765384721E+03  0.25500000000E-02 0. -1.
         -2   -1    0    0    0  501 -0.00000000000E+00 -0.00000000000E+00 -0.84132223231E+03  0.84132223231E+03  0.25500000000E-02 0.  1.
    8880022    1    1    2    0    0 -0.65510427563E+03  0.49796892446E+03 -0.15846504666E+03  0.85184358053E+03  0.15294330000E+03 0.  0.
    8880022    1    1    2    0    0  0.65510427563E+03 -0.49796892446E+03  0.18479666156E+03  0.85713249898E+03  0.15294330000E+03 0.  0.
<mgrwt>
<rscale>  0 0.83697450E+03</rscale>
<asrwt>0</asrwt>
<pdfrwt beam="1">  1        2 0.13348521E+00 0.83697450E+03</pdfrwt>
<pdfrwt beam="2">  1       -2 0.12943419E+00 0.83697450E+03</pdfrwt>
<totfact> 0.13640718E+01</totfact>
</mgrwt>
</event>
<event>
 4    1  0.5410820E-008  0.8334379E+03  0.7818608E-02  0.9512840E-01
         -2   -1    0    0    0  501 -0.00000000000E+00  0.00000000000E+00  0.72226714223E+03  0.72226714223E+03  0.25500000000E-02 0.  1.
          2   -1    0    0  501    0  0.00000000000E+00 -0.00000000000E+00 -0.11625346248E+04  0.11625346248E+04  0.25500000000E-02 0. -1.
    8880022    1    1    2    0    0 -0.41655842942E+02  0.81822486527E+03 -0.61181279856E+03  0.10338924958E+04  0.15294330000E+03 0.  0.
    8880022    1    1    2    0    0  0.41655842942E+02 -0.81822486527E+03  0.17154531600E+03  0.85090927122E+03  0.15294330000E+03 0.  0.
<mgrwt>
<rscale>  0 0.83343794E+03</rscale>
<asrwt>0</asrwt>
<pdfrwt beam="1">  1        2 0.17885148E+00 0.83343794E+03</pdfrwt>
<pdfrwt beam="2">  1       -2 0.11111802E+00 0.83343794E+03</pdfrwt>
<totfact> 0.12910929E+01</totfact>
</mgrwt>
</event>
<event>
 4    1  0.5410820E-008  0.1157214E+04  0.7818608E-02  0.9151154E-01
          2   -1    0    0  501    0  0.00000000000E+00  0.00000000000E+00  0.15721726692E+04  0.15721726692E+04  0.25500000000E-02 0. -1.
         -2   -1    0    0    0  501 -0.00000000000E+00 -0.00000000000E+00 -0.16782651714E+04  0.16782651714E+04  0.25500000000E-02 0.  1.
    8880022    1    1    2    0    0  0.18794664614E+03 -0.11315600254E+04  0.10874644664E+04  0.15879932781E+04  0.15294330000E+03 0.  0.
    8880022    1    1    2    0    0 -0.18794664614E+03  0.11315600254E+04 -0.11935569686E+04  0.16624445624E+04  0.15294330000E+03 0.  0.
<mgrwt>
<rscale>  0 0.11572138E+04</rscale>
<asrwt>0</asrwt>
<pdfrwt beam="1">  1        2 0.24187272E+00 0.11572138E+04</pdfrwt>
<pdfrwt beam="2">  1       -2 0.25819464E+00 0.11572138E+04</pdfrwt>
<totfact> 0.64677677E-01</totfact>
</mgrwt>
</event>
<event>
 4    1  0.5410820E-008  0.5171268E+03  0.7818608E-02  0.1009403E+00
          2   -1    0    0  501    0  0.00000000000E+00  0.00000000000E+00  0.76588587055E+03  0.76588587056E+03  0.25500000000E-02 0. -1.
         -2   -1    0    0    0  501 -0.00000000000E+00 -0.00000000000E+00 -0.72066176332E+03  0.72066176332E+03  0.25500000000E-02 0.  1.
    8880022    1    1    2    0    0  0.27616185313E+03  0.40958890805E+03  0.55626750544E+03  0.75950881058E+03  0.15294330000E+03 0.  0.
    8880022    1    1    2    0    0 -0.27616185313E+03 -0.40958890805E+03 -0.51104339821E+03  0.72703882330E+03  0.15294330000E+03 0.  0.
<mgrwt>
<rscale>  0 0.51712677E+03</rscale>
<asrwt>0</asrwt>
<pdfrwt beam="1">  1        2 0.11782860E+00 0.51712677E+03</pdfrwt>
<pdfrwt beam="2">  1       -2 0.11087104E+00 0.51712677E+03</pdfrwt>
<totfact> 0.24474305E+01</totfact>
</mgrwt>
</event>
<event>
 4    1  0.5410820E-008  0.5641335E+03  0.7818608E-02  0.9982745E-01
          2   -1    0    0  501    0  0.00000000000E+00  0.00000000000E+00  0.12918518736E+04  0.12918518736E+04  0.25500000000E-02 0. -1.
         -2   -1    0    0    0  501 -0.00000000000E+00 -0.00000000000E+00 -0.35247074252E+03  0.35247074253E+03  0.25500000000E-02 0.  1.
    8880022    1    1    2    0    0 -0.51619353865E+03  0.16852046722E+03  0.92081613334E+03  0.10798837538E+04  0.15294330000E+03 0.  0.
    8880022    1    1    2    0    0  0.51619353865E+03 -0.16852046722E+03  0.18564997763E+02  0.56443886239E+03  0.15294330000E+03 0.  0.
<mgrwt>
<rscale>  0 0.56413347E+03</rscale>
<asrwt>0</asrwt>
<pdfrwt beam="1">  1        2 0.19874645E+00 0.56413347E+03</pdfrwt>
<pdfrwt beam="2">  1       -2 0.54226266E-01 0.56413347E+03</pdfrwt>
<totfact> 0.55638527E+01</totfact>
</mgrwt>
</event>
<event>
 4    1  0.5410820E-008  0.7468667E+03  0.7818608E-02  0.9640279E-01
          2   -1    0    0  501    0  0.00000000000E+00  0.00000000000E+00  0.36790709112E+04  0.36790709113E+04  0.25500000000E-02 0. -1.
         -2   -1    0    0    0  501 -0.00000000000E+00 -0.00000000000E+00 -0.22305090051E+03  0.22305090053E+03  0.25500000000E-02 0.  1.
    8880022    1    1    2    0    0 -0.55896688498E+03  0.47114142609E+03  0.62387832886E+03  0.97315674180E+03  0.15294330000E+03 0.  0.
    8880022    1    1    2    0    0  0.55896688498E+03 -0.47114142609E+03  0.28321416819E+04  0.29289650700E+04  0.15294330000E+03 0.  0.
<mgrwt>
<rscale>  0 0.74686670E+03</rscale>
<asrwt>0</asrwt>
<pdfrwt beam="1">  1        2 0.56601081E+00 0.74686670E+03</pdfrwt>
<pdfrwt beam="2">  1       -2 0.34315529E-01 0.74686670E+03</pdfrwt>
<totfact> 0.52495585E+00</totfact>
</mgrwt>
</event>
<event>
 4    1  0.5410820E-008  0.2316430E+03  0.7818608E-02  0.1125489E+00
         -2   -1    0    0    0  501 -0.00000000000E+00  0.00000000000E+00  0.10524026831E+03  0.10524026834E+03  0.25500000000E-02 0.  1.
          2   -1    0    0  501    0  0.00000000000E+00 -0.00000000000E+00 -0.18448318841E+04  0.18448318841E+04  0.25500000000E-02 0. -1.
    8880022    1    1    2    0    0  0.16495579731E+03 -0.55284974834E+02 -0.16992211009E+04  0.17149375633E+04  0.15294330000E+03 0.  0.
    8880022    1    1    2    0    0 -0.16495579731E+03  0.55284974834E+02 -0.40370514946E+02  0.23513458912E+03  0.15294330000E+03 0.  1.
<mgrwt>
<rscale>  0 0.23164304E+03</rscale>
<asrwt>0</asrwt>
<pdfrwt beam="1">  1        2 0.28382027E+00 0.23164304E+03</pdfrwt>
<pdfrwt beam="2">  1       -2 0.16190812E-01 0.23164304E+03</pdfrwt>
<totfact> 0.27386381E+02</totfact>
</mgrwt>
</event>
<event>
 4    1  0.5410820E-008  0.1769888E+03  0.7818608E-02  0.1170750E+00
         -2   -1    0    0    0  501 -0.00000000000E+00  0.00000000000E+00  0.24900453804E+02  0.24900453935E+02  0.25500000000E-02 0.  1.
          2   -1    0    0  501    0  0.00000000000E+00 -0.00000000000E+00 -0.12586969305E+04  0.12586969305E+04  0.25500000000E-02 0. -1.
    8880022    1    1    2    0    0 -0.11446257238E+02  0.88331037210E+02 -0.63188181336E+03  0.65620093570E+03  0.15294330000E+03 0.  1.
    8880022    1    1    2    0    0  0.11446257238E+02 -0.88331037210E+02 -0.60191466334E+03  0.62739644874E+03  0.15294330000E+03 0. -1.
<mgrwt>
<rscale>  0 0.17698882E+03</rscale>
<asrwt>0</asrwt>
<pdfrwt beam="1">  1        2 0.19364563E+00 0.17698882E+03</pdfrwt>
<pdfrwt beam="2">  1       -2 0.38308400E-02 0.17698882E+03</pdfrwt>
<totfact> 0.53668948E+03</totfact>
</mgrwt>
</event>
<event>
 4    1  0.5410820E-008  0.4582024E+03  0.7818608E-02  0.1025304E+00
          2   -1    0    0  501    0  0.00000000000E+00  0.00000000000E+00  0.15189532880E+04  0.15189532880E+04  0.25500000000E-02 0. -1.
         -2   -1    0    0    0  501 -0.00000000000E+00 -0.00000000000E+00 -0.38476555712E+03  0.38476555713E+03  0.25500000000E-02 0.  1.
    8880022    1    1    2    0    0  0.41823026977E+03  0.10789451643E+03 -0.19485087379E+03  0.49791194127E+03  0.15294330000E+03 0.  0.
    8880022    1    1    2    0    0 -0.41823026977E+03 -0.10789451643E+03  0.13290386047E+04  0.14058069039E+04  0.15294330000E+03 0.  0.
<mgrwt>
<rscale>  0 0.45820240E+03</rscale>
<asrwt>0</asrwt>
<pdfrwt beam="1">  1        2 0.23368512E+00 0.45820240E+03</pdfrwt>
<pdfrwt beam="2">  1       -2 0.59194701E-01 0.45820240E+03</pdfrwt>
<totfact> 0.35221916E+01</totfact>
</mgrwt>
</event>
<event>
 4    1  0.5410820E-008  0.6728533E+03  0.7818608E-02  0.9764817E-01
          2   -1    0    0  501    0  0.00000000000E+00  0.00000000000E+00  0.69135679712E+03  0.69135679712E+03  0.25500000000E-02 0. -1.
         -2   -1    0    0    0  501 -0.00000000000E+00 -0.00000000000E+00 -0.78343147644E+03  0.78343147644E+03  0.25500000000E-02 0.  1.
    8880022    1    1    2    0    0  0.29701025404E+03  0.58405892433E+03  0.25270497954E+03  0.71874291495E+03  0.15294330000E+03 0.  0.
    8880022    1    1    2    0    0 -0.29701025404E+03 -0.58405892433E+03 -0.34477965886E+03  0.75604535861E+03  0.15294330000E+03 0.  0.
<mgrwt>
<rscale>  0 0.67285331E+03</rscale>
<asrwt>0</asrwt>
<pdfrwt beam="1">  1        2 0.10636258E+00 0.67285331E+03</pdfrwt>
<pdfrwt beam="2">  1       -2 0.12052792E+00 0.67285331E+03</pdfrwt>
<totfact> 0.22325943E+01</totfact>
</mgrwt>
</event>
<event>
 4    1  0.5410820E-008  0.4846254E+03  0.7818608E-02  0.1017872E+00
          2   -1    0    0  501    0  0.00000000000E+00  0.00000000000E+00  0.93682591720E+03  0.93682591720E+03  0.25500000000E-02 0. -1.
         -2   -1    0    0    0  501 -0.00000000000E+00 -0.00000000000E+00 -0.68338726370E+03  0.68338726370E+03  0.25500000000E-02 0.  1.
    8880022    1    1    2    0    0 -0.45203343081E+03 -0.84474455518E+02  0.77132781644E+03  0.91093820297E+03  0.15294330000E+03 0.  0.
    8880022    1    1    2    0    0  0.45203343081E+03  0.84474455518E+02 -0.51788916294E+03  0.70927497793E+03  0.15294330000E+03 0.  0.
<mgrwt>
<rscale>  0 0.48462543E+03</rscale>
<asrwt>0</asrwt>
<pdfrwt beam="1">  1        2 0.14412706E+00 0.48462543E+03</pdfrwt>
<pdfrwt beam="2">  1       -2 0.10513650E+00 0.48462543E+03</pdfrwt>
<totfact> 0.21320106E+01</totfact>
</mgrwt>
</event>
<event>
 4    1  0.5410820E-008  0.3994227E+03  0.7818608E-02  0.1043980E+00
         -2   -1    0    0    0  501 -0.00000000000E+00  0.00000000000E+00  0.15947517305E+04  0.15947517305E+04  0.25500000000E-02 0.  1.
          2   -1    0    0  501    0  0.00000000000E+00 -0.00000000000E+00 -0.63698697088E+03  0.63698697089E+03  0.25500000000E-02 0. -1.
    8880022    1    1    2    0    0 -0.33965961660E+03  0.14414647925E+03 -0.54562215787E+03  0.67619675746E+03  0.15294330000E+03 0. -1.
    8880022    1    1    2    0    0  0.33965961660E+03 -0.14414647925E+03  0.15033869175E+04  0.15555419439E+04  0.15294330000E+03 0.  0.
<mgrwt>
<rscale>  0 0.39942273E+03</rscale>
<asrwt>0</asrwt>
<pdfrwt beam="1">  1        2 0.97997995E-01 0.39942273E+03</pdfrwt>
<pdfrwt beam="2">  1       -2 0.24534642E+00 0.39942273E+03</pdfrwt>
<totfact> 0.34875281E+00</totfact>
</mgrwt>
</event>
<event>
 4    1  0.5410820E-008  0.5427643E+03  0.7818608E-02  0.1003183E+00
         -2   -1    0    0    0  501 -0.00000000000E+00  0.00000000000E+00  0.32004502056E+03  0.32004502057E+03  0.25500000000E-02 0.  1.
          2   -1    0    0  501    0  0.00000000000E+00 -0.00000000000E+00 -0.30081150622E+04  0.30081150622E+04  0.25500000000E-02 0. -1.
    8880022    1    1    2    0    0 -0.95791081841E+02  0.51188423871E+03 -0.27303276850E+04  0.27837532803E+04  0.15294330000E+03 0.  0.
    8880022    1    1    2    0    0  0.95791081841E+02 -0.51188423871E+03  0.42257643282E+02  0.54440680252E+03  0.15294330000E+03 0.  0.
<mgrwt>
<rscale>  0 0.54276428E+03</rscale>
<asrwt>0</asrwt>
<pdfrwt beam="1">  1        2 0.46278691E+00 0.54276428E+03</pdfrwt>
<pdfrwt beam="2">  1       -2 0.49237697E-01 0.54276428E+03</pdfrwt>
<totfact> 0.74915541E+00</totfact>
</mgrwt>
</event>
<event>
 4    1  0.5410820E-008  0.6998062E+03  0.7818608E-02  0.9717564E-01
          2   -1    0    0  501    0  0.00000000000E+00  0.00000000000E+00  0.33771316833E+04  0.33771316833E+04  0.25500000000E-02 0. -1.
         -2   -1    0    0    0  501 -0.00000000000E+00 -0.00000000000E+00 -0.26455107805E+03  0.26455107806E+03  0.25500000000E-02 0.  1.
    8880022    1    1    2    0    0  0.62478820724E+03 -0.27563880714E+03  0.33232220487E+03  0.77470430280E+03  0.15294330000E+03 0.  0.
    8880022    1    1    2    0    0 -0.62478820724E+03  0.27563880714E+03  0.27802584004E+04  0.28669784585E+04  0.15294330000E+03 0.  0.
<mgrwt>
<rscale>  0 0.69980619E+03</rscale>
<asrwt>0</asrwt>
<pdfrwt beam="1">  1        2 0.51955865E+00 0.69980619E+03</pdfrwt>
<pdfrwt beam="2">  1       -2 0.40700172E-01 0.69980619E+03</pdfrwt>
<totfact> 0.61545668E+00</totfact>
</mgrwt>
</event>
<event>
 4    1  0.5410820E-008  0.2106317E+03  0.7818608E-02  0.1141067E+00
          2   -1    0    0  501    0  0.00000000000E+00  0.00000000000E+00  0.27555463267E+04  0.27555463267E+04  0.25500000000E-02 0. -1.
         -2   -1    0    0    0  501 -0.00000000000E+00 -0.00000000000E+00 -0.70424903713E+02  0.70424903759E+02  0.25500000000E-02 0.  1.
    8880022    1    1    2    0    0  0.14307499731E+03  0.22441462078E+02  0.25835613819E+04  0.25921333185E+04  0.15294330000E+03 0. -1.
    8880022    1    1    2    0    0 -0.14307499731E+03 -0.22441462078E+02  0.10156004105E+03  0.23383791187E+03  0.15294330000E+03 0.  0.
<mgrwt>
<rscale>  0 0.21063173E+03</rscale>
<asrwt>0</asrwt>
<pdfrwt beam="1">  1        2 0.42393022E+00 0.21063173E+03</pdfrwt>
<pdfrwt beam="2">  1       -2 0.10834600E-01 0.21063173E+03</pdfrwt>
<totfact> 0.17262272E+02</totfact>
</mgrwt>
</event>
<event>
 4    1  0.5410820E-008  0.5698253E+03  0.7818608E-02  0.9970065E-01
          2   -1    0    0  501    0  0.00000000000E+00  0.00000000000E+00  0.19661584618E+04  0.19661584618E+04  0.25500000000E-02 0. -1.
         -2   -1    0    0    0  501 -0.00000000000E+00 -0.00000000000E+00 -0.18321089478E+03  0.18321089480E+03  0.25500000000E-02 0.  1.
    8880022    1    1    2    0    0 -0.54224199657E+03 -0.85339780252E+02  0.12289453100E+04  0.13546244826E+04  0.15294330000E+03 0.  0.
    8880022    1    1    2    0    0  0.54224199657E+03  0.85339780252E+02  0.55400225705E+03  0.79474487401E+03  0.15294330000E+03 0.  0.
<mgrwt>
<rscale>  0 0.56982534E+03</rscale>
<asrwt>0</asrwt>
<pdfrwt beam="1">  1        2 0.30248591E+00 0.56982534E+03</pdfrwt>
<pdfrwt beam="2">  1       -2 0.28186292E-01 0.56982534E+03</pdfrwt>
<totfact> 0.84299837E+01</totfact>
</mgrwt>
</event>
<event>
 4    1  0.6603289E-008  0.9394476E+03  0.7818608E-02  0.9377570E-01
         -2   -1    0    0    0  501 -0.00000000000E+00  0.00000000000E+00  0.53004591204E+03  0.53004591205E+03  0.25500000000E-02 0.  1.
          2   -1    0    0  501    0  0.00000000000E+00 -0.00000000000E+00 -0.33093654456E+04  0.33093654456E+04  0.25500000000E-02 0. -1.
    8880022    1    1    2    0    0 -0.36812241654E+03  0.85067977674E+03 -0.36488910883E+02  0.94015599224E+03  0.15294330000E+03 0.  0.
    8880022    1    1    2    0    0  0.36812241654E+03 -0.85067977674E+03 -0.27428306227E+04  0.28992553654E+04  0.15294330000E+03 0.  0.
<mgrwt>
<rscale>  0 0.93944763E+03</rscale>
<asrwt>0</asrwt>
<pdfrwt beam="1">  1        2 0.50913313E+00 0.93944763E+03</pdfrwt>
<pdfrwt beam="2">  1       -2 0.81545527E-01 0.93944763E+03</pdfrwt>
<totfact> 0.15117668E+00</totfact>
</mgrwt>
</event>
<event>
 4    1  0.5410820E-008  0.4517737E+03  0.7818608E-02  0.1027194E+00
          2   -1    0    0  501    0  0.00000000000E+00  0.00000000000E+00  0.53761832622E+04  0.53761832622E+04  0.25500000000E-02 0. -1.
         -2   -1    0    0    0  501 -0.00000000000E+00 -0.00000000000E+00 -0.50404212833E+02  0.50404212898E+02  0.25500000000E-02 0.  1.
    8880022    1    1    2    0    0  0.39423633788E+03 -0.15901433433E+03  0.13149092639E+04  0.13903545857E+04  0.15294330000E+03 0.  0.
    8880022    1    1    2    0    0 -0.39423633788E+03  0.15901433433E+03  0.40108697854E+04  0.40362328894E+04  0.15294330000E+03 0.  0.
<mgrwt>
<rscale>  0 0.45177373E+03</rscale>
<asrwt>0</asrwt>
<pdfrwt beam="1">  1        2 0.82710553E+00 0.45177373E+03</pdfrwt>
<pdfrwt beam="2">  1       -2 0.77544904E-02 0.45177373E+03</pdfrwt>
<totfact> 0.13769609E+00</totfact>
</mgrwt>
</event>
<event>
 4    1  0.5410820E-008  0.4422611E+03  0.7818608E-02  0.1030055E+00
          2   -1    0    0  501    0  0.00000000000E+00  0.00000000000E+00  0.13672652074E+04  0.13672652074E+04  0.25500000000E-02 0. -1.
         -2   -1    0    0    0  501 -0.00000000000E+00 -0.00000000000E+00 -0.63132403114E+03  0.63132403114E+03  0.25500000000E-02 0.  1.
    8880022    1    1    2    0    0  0.20945812164E+03 -0.35823248581E+03  0.12467841194E+04  0.13229004165E+04  0.15294330000E+03 0.  0.
    8880022    1    1    2    0    0 -0.20945812164E+03  0.35823248581E+03 -0.51084294315E+03  0.67568882202E+03  0.15294330000E+03 0.  1.
<mgrwt>
<rscale>  0 0.44226109E+03</rscale>
<asrwt>0</asrwt>
<pdfrwt beam="1">  1        2 0.21034849E+00 0.44226109E+03</pdfrwt>
<pdfrwt beam="2">  1       -2 0.97126775E-01 0.44226109E+03</pdfrwt>
<totfact> 0.14366684E+01</totfact>
</mgrwt>
</event>
<event>
 4    1  0.5410820E-008  0.6548042E+03  0.7818608E-02  0.9797806E-01
          2   -1    0    0  501    0  0.00000000000E+00  0.00000000000E+00  0.91517885475E+03  0.91517885475E+03  0.25500000000E-02 0. -1.
         -2   -1    0    0    0  501 -0.00000000000E+00 -0.00000000000E+00 -0.66984907784E+03  0.66984907785E+03  0.25500000000E-02 0.  1.
    8880022    1    1    2    0    0 -0.59893809375E+03 -0.21598633685E+03 -0.31182999380E+03  0.72526308047E+03  0.15294330000E+03 0.  0.
    8880022    1    1    2    0    0  0.59893809375E+03  0.21598633685E+03  0.55715977070E+03  0.85976485213E+03  0.15294330000E+03 0.  0.
<mgrwt>
<rscale>  0 0.65480424E+03</rscale>
<asrwt>0</asrwt>
<pdfrwt beam="1">  1        2 0.14079675E+00 0.65480424E+03</pdfrwt>
<pdfrwt beam="2">  1       -2 0.10305370E+00 0.65480424E+03</pdfrwt>
<totfact> 0.22586397E+01</totfact>
</mgrwt>
</event>
<event>
 4    1  0.5410820E-008  0.3749523E+03  0.7818608E-02  0.1052815E+00
          2   -1    0    0  501    0  0.00000000000E+00  0.00000000000E+00  0.15430734189E+04  0.15430734189E+04  0.25500000000E-02 0. -1.
         -2   -1    0    0    0  501 -0.00000000000E+00 -0.00000000000E+00 -0.93624007714E+02  0.93624007749E+02  0.25500000000E-02 0.  1.
    8880022    1    1    2    0    0 -0.32240768055E+03 -0.11511244606E+03  0.85882757919E+03  0.93710941277E+03  0.15294330000E+03 0.  0.
    8880022    1    1    2    0    0  0.32240768055E+03  0.11511244606E+03  0.59062183198E+03  0.69958801387E+03  0.15294330000E+03 0. -1.
<mgrwt>
<rscale>  0 0.37495232E+03</rscale>
<asrwt>0</asrwt>
<pdfrwt beam="1">  1        2 0.23739588E+00 0.37495232E+03</pdfrwt>
<pdfrwt beam="2">  1       -2 0.14403695E-01 0.37495232E+03</pdfrwt>
<totfact> 0.46980805E+02</totfact>
</mgrwt>
</event>
<event>
 4    1  0.5410820E-008  0.4662925E+03  0.7818608E-02  0.1022972E+00
         -2   -1    0    0    0  501 -0.00000000000E+00  0.00000000000E+00  0.28007034445E+03  0.28007034446E+03  0.25500000000E-02 0.  1.
          2   -1    0    0  501    0  0.00000000000E+00 -0.00000000000E+00 -0.37778738984E+04  0.37778738984E+04  0.25500000000E-02 0. -1.
    8880022    1    1    2    0    0  0.18766184320E+03  0.39852241991E+03  0.59622129898E+02  0.47008886176E+03  0.15294330000E+03 0.  0.
    8880022    1    1    2    0    0 -0.18766184320E+03 -0.39852241991E+03 -0.35574256838E+04  0.35878553811E+04  0.15294330000E+03 0.  0.
<mgrwt>
<rscale>  0 0.46629255E+03</rscale>
<asrwt>0</asrwt>
<pdfrwt beam="1">  1        2 0.58121133E+00 0.46629255E+03</pdfrwt>
<pdfrwt beam="2">  1       -2 0.43087748E-01 0.46629255E+03</pdfrwt>
<totfact> 0.31048598E+00</totfact>
</mgrwt>
</event>
<event>
 4    1  0.5410820E-008  0.4274629E+03  0.7818608E-02  0.1034664E+00
          2   -1    0    0  501    0  0.00000000000E+00  0.00000000000E+00  0.22597169308E+04  0.22597169308E+04  0.25500000000E-02 0. -1.
         -2   -1    0    0    0  501 -0.00000000000E+00 -0.00000000000E+00 -0.12536700690E+03  0.12536700692E+03  0.25500000000E-02 0.  1.
    8880022    1    1    2    0    0  0.15568311548E+03  0.36755354108E+03  0.17777142170E+04  0.18283851696E+04  0.15294330000E+03 0.  0.
    8880022    1    1    2    0    0 -0.15568311548E+03 -0.36755354108E+03  0.35663570692E+03  0.55669876815E+03  0.15294330000E+03 0.  0.
<mgrwt>
<rscale>  0 0.42746285E+03</rscale>
<asrwt>0</asrwt>
<pdfrwt beam="1">  1        2 0.34764877E+00 0.42746285E+03</pdfrwt>
<pdfrwt beam="2">  1       -2 0.19287231E-01 0.42746285E+03</pdfrwt>
<totfact> 0.11738781E+02</totfact>
</mgrwt>
</event>
<event>
 4    1  0.5410820E-008  0.3558466E+03  0.7818608E-02  0.1060241E+00
         -2   -1    0    0    0  501 -0.00000000000E+00  0.00000000000E+00  0.88839833254E+03  0.88839833255E+03  0.25500000000E-02 0.  1.
          2   -1    0    0  501    0  0.00000000000E+00 -0.00000000000E+00 -0.10768068361E+04  0.10768068361E+04  0.25500000000E-02 0. -1.
    8880022    1    1    2    0    0 -0.22843961577E+03 -0.22594355068E+03  0.82105874618E+03  0.89485432549E+03  0.15294330000E+03 0.  0.
    8880022    1    1    2    0    0  0.22843961577E+03  0.22594355068E+03 -0.10094672497E+04  0.10703508431E+04  0.15294330000E+03 0.  0.
<mgrwt>
<rscale>  0 0.35584659E+03</rscale>
<asrwt>0</asrwt>
<pdfrwt beam="1">  1        2 0.16566259E+00 0.35584659E+03</pdfrwt>
<pdfrwt beam="2">  1       -2 0.13667667E+00 0.35584659E+03</pdfrwt>
<totfact> 0.94097998E+00</totfact>
</mgrwt>
</event>
<event>
 4    1  0.5410820E-008  0.4161176E+03  0.7818608E-02  0.1038337E+00
         -2   -1    0    0    0  501 -0.00000000000E+00  0.00000000000E+00  0.56639838531E+03  0.56639838532E+03  0.25500000000E-02 0.  1.
          2   -1    0    0  501    0  0.00000000000E+00 -0.00000000000E+00 -0.16140867339E+04  0.16140867340E+04  0.25500000000E-02 0. -1.
    8880022    1    1    2    0    0 -0.38606158965E+03  0.26807881724E+02 -0.15054249418E+04  0.15618764746E+04  0.15294330000E+03 0.  0.
    8880022    1    1    2    0    0  0.38606158965E+03 -0.26807881724E+02  0.45773659316E+03  0.61860864467E+03  0.15294330000E+03 0.  1.
<mgrwt>
<rscale>  0 0.41611761E+03</rscale>
<asrwt>0</asrwt>
<pdfrwt beam="1">  1        2 0.24832103E+00 0.41611761E+03</pdfrwt>
<pdfrwt beam="2">  1       -2 0.87138214E-01 0.41611761E+03</pdfrwt>
<totfact> 0.13592274E+01</totfact>
</mgrwt>
</event>
<event>
 4    1  0.5410820E-008  0.1440535E+04  0.7818608E-02  0.8924989E-01
          2   -1    0    0  501    0  0.00000000000E+00  0.00000000000E+00  0.23928776752E+04  0.23928776752E+04  0.25500000000E-02 0. -1.
         -2   -1    0    0    0  501 -0.00000000000E+00 -0.00000000000E+00 -0.97033837097E+03  0.97033837097E+03  0.25500000000E-02 0.  1.
    8880022    1    1    2    0    0  0.70364809227E+03 -0.12476491318E+04  0.12594716740E+04  0.19134810018E+04  0.15294330000E+03 0.  0.
    8880022    1    1    2    0    0 -0.70364809227E+03  0.12476491318E+04  0.16306763025E+03  0.14497350443E+04  0.15294330000E+03 0.  0.
<mgrwt>
<rscale>  0 0.14405348E+04</rscale>
<asrwt>0</asrwt>
<pdfrwt beam="1">  1        2 0.36813502E+00 0.14405348E+04</pdfrwt>
<pdfrwt beam="2">  1       -2 0.14928283E+00 0.14405348E+04</pdfrwt>
<totfact> 0.11573548E+00</totfact>
</mgrwt>
</event>
<event>
 4    1  0.5410820E-008  0.5339678E+03  0.7818608E-02  0.1005274E+00
          2   -1    0    0  501    0  0.00000000000E+00  0.00000000000E+00  0.82164725848E+03  0.82164725848E+03  0.25500000000E-02 0. -1.
         -2   -1    0    0    0  501 -0.00000000000E+00 -0.00000000000E+00 -0.63326395606E+03  0.63326395607E+03  0.25500000000E-02 0.  1.
    8880022    1    1    2    0    0 -0.50886277364E+03 -0.52807904623E+02  0.58328095545E+03  0.79078336046E+03  0.15294330000E+03 0.  0.
    8880022    1    1    2    0    0  0.50886277364E+03  0.52807904623E+02 -0.39489765303E+03  0.66412785408E+03  0.15294330000E+03 0.  0.
<mgrwt>
<rscale>  0 0.53396784E+03</rscale>
<asrwt>0</asrwt>
<pdfrwt beam="1">  1        2 0.12640727E+00 0.53396784E+03</pdfrwt>
<pdfrwt beam="2">  1       -2 0.97425224E-01 0.53396784E+03</pdfrwt>
<totfact> 0.30303835E+01</totfact>
</mgrwt>
</event>
<event>
 4    1  0.5410820E-008  0.1056289E+04  0.7818608E-02  0.9248875E-01
         -2   -1    0    0    0  501 -0.00000000000E+00  0.00000000000E+00  0.56848085752E+03  0.56848085752E+03  0.25500000000E-02 0.  1.
          2   -1    0    0  501    0  0.00000000000E+00 -0.00000000000E+00 -0.25777965712E+04  0.25777965712E+04  0.25500000000E-02 0. -1.
    8880022    1    1    2    0    0  0.10320846444E+04  0.16479211099E+03 -0.17731172386E+04  0.20639020199E+04  0.15294330000E+03 0.  0.
    8880022    1    1    2    0    0 -0.10320846444E+04 -0.16479211099E+03 -0.23619847511E+03  0.10823754088E+04  0.15294330000E+03 0.  0.
<mgrwt>
<rscale>  0 0.10562892E+04</rscale>
<asrwt>0</asrwt>
<pdfrwt beam="1">  1        2 0.39658408E+00 0.10562892E+04</pdfrwt>
<pdfrwt beam="2">  1       -2 0.87458595E-01 0.10562892E+04</pdfrwt>
<totfact> 0.35523232E+00</totfact>
</mgrwt>
</event>
<event>
 4    1  0.5410820E-008  0.4627149E+03  0.7818608E-02  0.1023997E+00
          2   -1    0    0  501    0  0.00000000000E+00  0.00000000000E+00  0.20594886236E+04  0.20594886236E+04  0.25500000000E-02 0. -1.
         -2   -1    0    0    0  501 -0.00000000000E+00 -0.00000000000E+00 -0.13340764017E+03  0.13340764020E+03  0.25500000000E-02 0.  1.
    8880022    1    1    2    0    0  0.19556622543E+03  0.39047060919E+03  0.14781749761E+04  0.15489048900E+04  0.15294330000E+03 0.  0.
    8880022    1    1    2    0    0 -0.19556622543E+03 -0.39047060919E+03  0.44790600734E+03  0.64399137385E+03  0.15294330000E+03 0.  0.
<mgrwt>
<rscale>  0 0.46271492E+03</rscale>
<asrwt>0</asrwt>
<pdfrwt beam="1">  1        2 0.31684440E+00 0.46271492E+03</pdfrwt>
<pdfrwt beam="2">  1       -2 0.20524253E-01 0.46271492E+03</pdfrwt>
<totfact> 0.13438056E+02</totfact>
</mgrwt>
</event>
<event>
 4    1  0.5410820E-008  0.1102318E+04  0.7818608E-02  0.9202936E-01
         -2   -1    0    0    0  501 -0.00000000000E+00  0.00000000000E+00  0.79416905818E+03  0.79416905819E+03  0.25500000000E-02 0.  1.
          2   -1    0    0  501    0  0.00000000000E+00 -0.00000000000E+00 -0.16192098078E+04  0.16192098078E+04  0.25500000000E-02 0. -1.
    8880022    1    1    2    0    0  0.10575927036E+04  0.27057477674E+03 -0.12933524073E+03  0.11098794051E+04  0.15294330000E+03 0.  0.
    8880022    1    1    2    0    0 -0.10575927036E+04 -0.27057477674E+03 -0.69570550894E+03  0.13034994609E+04  0.15294330000E+03 0.  0.
<mgrwt>
<rscale>  0 0.11023179E+04</rscale>
<asrwt>0</asrwt>
<pdfrwt beam="1">  1        2 0.24910920E+00 0.11023179E+04</pdfrwt>
<pdfrwt beam="2">  1       -2 0.12217985E+00 0.11023179E+04</pdfrwt>
<totfact> 0.54350183E+00</totfact>
</mgrwt>
</event>
<event>
 4    1  0.5410820E-008  0.3174306E+03  0.7818608E-02  0.1076838E+00
          2   -1    0    0  501    0  0.00000000000E+00  0.00000000000E+00  0.23554266434E+03  0.23554266435E+03  0.25500000000E-02 0. -1.
         -2   -1    0    0    0  501 -0.00000000000E+00 -0.00000000000E+00 -0.72527964434E+03  0.72527964435E+03  0.25500000000E-02 0.  1.
    8880022    1    1    2    0    0  0.22896791326E+03  0.15793734825E+03  0.62810770518E+02  0.32358516218E+03  0.15294330000E+03 0.  0.
    8880022    1    1    2    0    0 -0.22896791326E+03 -0.15793734825E+03 -0.55254775052E+03  0.63723714651E+03  0.15294330000E+03 0.  0.
<mgrwt>
<rscale>  0 0.31743057E+03</rscale>
<asrwt>0</asrwt>
<pdfrwt beam="1">  1        2 0.36237333E-01 0.31743057E+03</pdfrwt>
<pdfrwt beam="2">  1       -2 0.11158148E+00 0.31743057E+03</pdfrwt>
<totfact> 0.94544658E+01</totfact>
</mgrwt>
</event>
<event>
 4    1  0.5410820E-008  0.1998494E+03  0.7818608E-02  0.1149866E+00
          2   -1    0    0  501    0  0.00000000000E+00  0.00000000000E+00  0.36137131837E+03  0.36137131838E+03  0.25500000000E-02 0. -1.
         -2   -1    0    0    0  501 -0.00000000000E+00 -0.00000000000E+00 -0.11480327350E+03  0.11480327353E+03  0.25500000000E-02 0.  1.
    8880022    1    1    2    0    0 -0.39425518919E+02  0.12244901545E+03  0.16925701224E+03  0.26189257747E+03  0.15294330000E+03 0.  0.
    8880022    1    1    2    0    0  0.39425518919E+02 -0.12244901545E+03  0.77311032638E+02  0.21428201443E+03  0.15294330000E+03 0.  0.
<mgrwt>
<rscale>  0 0.19984941E+03</rscale>
<asrwt>0</asrwt>
<pdfrwt beam="1">  1        2 0.55595587E-01 0.19984941E+03</pdfrwt>
<pdfrwt beam="2">  1       -2 0.17662042E-01 0.19984941E+03</pdfrwt>
<totfact> 0.22943160E+03</totfact>
</mgrwt>
</event>
<event>
 4    1  0.5410820E-008  0.4894557E+03  0.7818608E-02  0.1016568E+00
         -2   -1    0    0    0  501 -0.00000000000E+00  0.00000000000E+00  0.35364780226E+03  0.35364780227E+03  0.25500000000E-02 0.  1.
          2   -1    0    0  501    0  0.00000000000E+00 -0.00000000000E+00 -0.19819020301E+04  0.19819020301E+04  0.25500000000E-02 0. -1.
    8880022    1    1    2    0    0 -0.13850315450E+03 -0.44383795321E+03 -0.17615364520E+04  0.18282717461E+04  0.15294330000E+03 0.  0.
    8880022    1    1    2    0    0  0.13850315450E+03  0.44383795321E+03  0.13328222424E+03  0.50727808629E+03  0.15294330000E+03 0.  0.
<mgrwt>
<rscale>  0 0.48945572E+03</rscale>
<asrwt>0</asrwt>
<pdfrwt beam="1">  1        2 0.30490800E+00 0.48945572E+03</pdfrwt>
<pdfrwt beam="2">  1       -2 0.54407355E-01 0.48945572E+03</pdfrwt>
<totfact> 0.23470793E+01</totfact>
</mgrwt>
</event>
<event>
 4    1  0.5410820E-008  0.3326368E+03  0.7818608E-02  0.1069976E+00
          2   -1    0    0  501    0  0.00000000000E+00  0.00000000000E+00  0.47504922246E+03  0.47504922247E+03  0.25500000000E-02 0. -1.
         -2   -1    0    0    0  501 -0.00000000000E+00 -0.00000000000E+00 -0.58720937625E+03  0.58720937626E+03  0.25500000000E-02 0.  1.
    8880022    1    1    2    0    0  0.28196812027E+03 -0.88031480900E+02 -0.46863753796E+03  0.57468979239E+03  0.15294330000E+03 0.  0.
    8880022    1    1    2    0    0 -0.28196812027E+03  0.88031480900E+02  0.35647738416E+03  0.48756880634E+03  0.15294330000E+03 0.  0.
<mgrwt>
<rscale>  0 0.33263676E+03</rscale>
<asrwt>0</asrwt>
<pdfrwt beam="1">  1        2 0.73084496E-01 0.33263676E+03</pdfrwt>
<pdfrwt beam="2">  1       -2 0.90339904E-01 0.33263676E+03</pdfrwt>
<totfact> 0.71709120E+01</totfact>
</mgrwt>
</event>
<event>
 4    1  0.5410820E-008  0.6364854E+03  0.7818608E-02  0.9832474E-01
         -2   -1    0    0    0  501 -0.00000000000E+00  0.00000000000E+00  0.62992498831E+03  0.62992498831E+03  0.25500000000E-02 0.  1.
          2   -1    0    0  501    0  0.00000000000E+00 -0.00000000000E+00 -0.88174355686E+03  0.88174355686E+03  0.25500000000E-02 0. -1.
    8880022    1    1    2    0    0 -0.60222363282E+03 -0.13801721558E+03  0.26729420503E+03  0.69033318100E+03  0.15294330000E+03 0.  0.
    8880022    1    1    2    0    0  0.60222363282E+03  0.13801721558E+03 -0.51911277359E+03  0.82133536417E+03  0.15294330000E+03 0. -1.
<mgrwt>
<rscale>  0 0.63648543E+03</rscale>
<asrwt>0</asrwt>
<pdfrwt beam="1">  1        2 0.13565285E+00 0.63648543E+03</pdfrwt>
<pdfrwt beam="2">  1       -2 0.96911537E-01 0.63648543E+03</pdfrwt>
<totfact> 0.27558368E+01</totfact>
</mgrwt>
</event>
<event>
 4    1  0.5410820E-008  0.6180809E+03  0.7818608E-02  0.9868588E-01
         -2   -1    0    0    0  501 -0.00000000000E+00  0.00000000000E+00  0.19050402069E+04  0.19050402069E+04  0.25500000000E-02 0.  1.
          2   -1    0    0  501    0  0.00000000000E+00 -0.00000000000E+00 -0.56612573389E+03  0.56612573390E+03  0.25500000000E-02 0. -1.
    8880022    1    1    2    0    0  0.54955835268E+03  0.23794521165E+03  0.16623768225E+04  0.17735615749E+04  0.15294330000E+03 0.  0.
    8880022    1    1    2    0    0 -0.54955835268E+03 -0.23794521165E+03 -0.32346234955E+03  0.69760436591E+03  0.15294330000E+03 0.  0.
<mgrwt>
<rscale>  0 0.61808087E+03</rscale>
<asrwt>0</asrwt>
<pdfrwt beam="1">  1        2 0.87096267E-01 0.61808087E+03</pdfrwt>
<pdfrwt beam="2">  1       -2 0.29308311E+00 0.61808087E+03</pdfrwt>
<totfact> 0.19840735E+00</totfact>
</mgrwt>
</event>
<event>
 4    1  0.5410820E-008  0.8581062E+03  0.7818608E-02  0.9479521E-01
          2   -1    0    0  501    0  0.00000000000E+00  0.00000000000E+00  0.23375310809E+04  0.23375310809E+04  0.25500000000E-02 0. -1.
         -2   -1    0    0    0  501 -0.00000000000E+00 -0.00000000000E+00 -0.38954744252E+03  0.38954744253E+03  0.25500000000E-02 0.  1.
    8880022    1    1    2    0    0  0.65681406302E+02  0.84180795138E+03  0.37754203156E+03  0.93748830006E+03  0.15294330000E+03 0.  0.
    8880022    1    1    2    0    0 -0.65681406302E+02 -0.84180795138E+03  0.15704416069E+04  0.17895902234E+04  0.15294330000E+03 0.  0.
<mgrwt>
<rscale>  0 0.85810624E+03</rscale>
<asrwt>0</asrwt>
<pdfrwt beam="1">  1        2 0.35962018E+00 0.85810624E+03</pdfrwt>
<pdfrwt beam="2">  1       -2 0.59930374E-01 0.85810624E+03</pdfrwt>
<totfact> 0.11509931E+01</totfact>
</mgrwt>
</event>
<event>
 4    1  0.5410820E-008  0.8116326E+03  0.7818608E-02  0.9543330E-01
          2   -1    0    0  501    0  0.00000000000E+00  0.00000000000E+00  0.69035502158E+03  0.69035502158E+03  0.25500000000E-02 0. -1.
         -2   -1    0    0    0  501 -0.00000000000E+00 -0.00000000000E+00 -0.11500052899E+04  0.11500052899E+04  0.25500000000E-02 0.  1.
    8880022    1    1    2    0    0  0.78529530728E+03 -0.13662786784E+03  0.14985495955E+03  0.82535086831E+03  0.15294330000E+03 0.  0.
    8880022    1    1    2    0    0 -0.78529530728E+03  0.13662786784E+03 -0.60950522786E+03  0.10150094432E+04  0.15294330000E+03 0.  0.
<mgrwt>
<rscale>  0 0.81163264E+03</rscale>
<asrwt>0</asrwt>
<pdfrwt beam="1">  1        2 0.10620847E+00 0.81163264E+03</pdfrwt>
<pdfrwt beam="2">  1       -2 0.17692389E+00 0.81163264E+03</pdfrwt>
<totfact> 0.80281293E+00</totfact>
</mgrwt>
</event>
<event>
 4    1  0.5410820E-008  0.8049852E+03  0.7818608E-02  0.9552829E-01
          2   -1    0    0  501    0  0.00000000000E+00  0.00000000000E+00  0.27303315300E+04  0.27303315300E+04  0.25500000000E-02 0. -1.
         -2   -1    0    0    0  501 -0.00000000000E+00 -0.00000000000E+00 -0.41050828691E+03  0.41050828692E+03  0.25500000000E-02 0.  1.
    8880022    1    1    2    0    0 -0.58639659325E+03  0.52985709298E+03  0.21799023684E+04  0.23237847345E+04  0.15294330000E+03 0.  0.
    8880022    1    1    2    0    0  0.58639659325E+03 -0.52985709298E+03  0.13992087473E+03  0.81705508245E+03  0.15294330000E+03 0.  0.
<mgrwt>
<rscale>  0 0.80498519E+03</rscale>
<asrwt>0</asrwt>
<pdfrwt beam="1">  1        2 0.42005101E+00 0.80498519E+03</pdfrwt>
<pdfrwt beam="2">  1       -2 0.63155120E-01 0.80498519E+03</pdfrwt>
<totfact> 0.61898727E+00</totfact>
</mgrwt>
</event>
<event>
 4    1  0.5410820E-008  0.8560672E+03  0.7818608E-02  0.9482230E-01
          2   -1    0    0  501    0  0.00000000000E+00  0.00000000000E+00  0.28661249552E+04  0.28661249552E+04  0.25500000000E-02 0. -1.
         -2   -1    0    0    0  501 -0.00000000000E+00 -0.00000000000E+00 -0.65973707913E+03  0.65973707913E+03  0.25500000000E-02 0.  1.
    8880022    1    1    2    0    0  0.55444308015E+02 -0.84046730768E+03  0.24828273259E+04  0.26262677986E+04  0.15294330000E+03 0.  0.
    8880022    1    1    2    0    0 -0.55444308015E+02  0.84046730768E+03 -0.27643944983E+03  0.89959423576E+03  0.15294330000E+03 0.  0.
<mgrwt>
<rscale>  0 0.85606718E+03</rscale>
<asrwt>0</asrwt>
<pdfrwt beam="1">  1        2 0.44094230E+00 0.85606718E+03</pdfrwt>
<pdfrwt beam="2">  1       -2 0.10149801E+00 0.85606718E+03</pdfrwt>
<totfact> 0.17492634E+00</totfact>
</mgrwt>
</event>
<event>
 4    1  0.5410820E-008  0.8849632E+03  0.7818608E-02  0.9444576E-01
          2   -1    0    0  501    0  0.00000000000E+00  0.00000000000E+00  0.16268389587E+04  0.16268389587E+04  0.25500000000E-02 0. -1.
         -2   -1    0    0    0  501 -0.00000000000E+00 -0.00000000000E+00 -0.66608041234E+03  0.66608041235E+03  0.25500000000E-02 0.  1.
    8880022    1    1    2    0    0  0.75808940197E+03  0.43019606819E+03  0.10840584284E+04  0.13994079204E+04  0.15294330000E+03 0.  0.
    8880022    1    1    2    0    0 -0.75808940197E+03 -0.43019606819E+03 -0.12329988207E+03  0.89351145063E+03  0.15294330000E+03 0.  0.
<mgrwt>
<rscale>  0 0.88496319E+03</rscale>
<asrwt>0</asrwt>
<pdfrwt beam="1">  1        2 0.25028291E+00 0.88496319E+03</pdfrwt>
<pdfrwt beam="2">  1       -2 0.10247391E+00 0.88496319E+03</pdfrwt>
<totfact> 0.84725601E+00</totfact>
</mgrwt>
</event>
<event>
 4    1  0.5410820E-008  0.9237826E+03  0.7818608E-02  0.9396331E-01
          2   -1    0    0  501    0  0.00000000000E+00  0.00000000000E+00  0.16045126785E+04  0.16045126786E+04  0.25500000000E-02 0. -1.
         -2   -1    0    0    0  501 -0.00000000000E+00 -0.00000000000E+00 -0.54145275225E+03  0.54145275226E+03  0.25500000000E-02 0.  1.
    8880022    1    1    2    0    0 -0.58547999978E+03 -0.69799409737E+03  0.38870292204E+03  0.10022296168E+04  0.15294330000E+03 0.  0.
    8880022    1    1    2    0    0  0.58547999978E+03  0.69799409737E+03  0.67435700425E+03  0.11437358140E+04  0.15294330000E+03 0.  0.
<mgrwt>
<rscale>  0 0.92378257E+03</rscale>
<asrwt>0</asrwt>
<pdfrwt beam="1">  1        2 0.24684810E+00 0.92378257E+03</pdfrwt>
<pdfrwt beam="2">  1       -2 0.83300424E-01 0.92378257E+03</pdfrwt>
<totfact> 0.14062914E+01</totfact>
</mgrwt>
</event>
<event>
 4    1  0.5410820E-008  0.4097995E+03  0.7818608E-02  0.1040438E+00
          2   -1    0    0  501    0  0.00000000000E+00  0.00000000000E+00  0.18684774781E+04  0.18684774781E+04  0.25500000000E-02 0. -1.
         -2   -1    0    0    0  501 -0.00000000000E+00 -0.00000000000E+00 -0.26038693093E+03  0.26038693094E+03  0.25500000000E-02 0.  1.
    8880022    1    1    2    0    0  0.36298125253E+03 -0.11308681101E+03  0.16653989992E+04  0.17150771108E+04  0.15294330000E+03 0.  0.
    8880022    1    1    2    0    0 -0.36298125253E+03  0.11308681101E+03 -0.57308452000E+02  0.41378729825E+03  0.15294330000E+03 0.  0.
<mgrwt>
<rscale>  0 0.40979955E+03</rscale>
<asrwt>0</asrwt>
<pdfrwt beam="1">  1        2 0.28745808E+00 0.40979955E+03</pdfrwt>
<pdfrwt beam="2">  1       -2 0.40059527E-01 0.40979955E+03</pdfrwt>
<totfact> 0.50542448E+01</totfact>
</mgrwt>
</event>
<event>
 4    1  0.5410820E-008  0.4155961E+03  0.7818608E-02  0.1038509E+00
          2   -1    0    0  501    0  0.00000000000E+00  0.00000000000E+00  0.29760656927E+04  0.29760656927E+04  0.25500000000E-02 0. -1.
         -2   -1    0    0    0  501 -0.00000000000E+00 -0.00000000000E+00 -0.97389975932E+02  0.97389975966E+02  0.25500000000E-02 0.  1.
    8880022    1    1    2    0    0  0.34297351710E+03  0.17803826998E+03  0.46247864026E+03  0.62177697346E+03  0.15294330000E+03 0.  0.
    8880022    1    1    2    0    0 -0.34297351710E+03 -0.17803826998E+03  0.24161970765E+04  0.24516786952E+04  0.15294330000E+03 0.  0.
<mgrwt>
<rscale>  0 0.41559609E+03</rscale>
<asrwt>0</asrwt>
<pdfrwt beam="1">  1        2 0.45785625E+00 0.41559609E+03</pdfrwt>
<pdfrwt beam="2">  1       -2 0.14983074E-01 0.41559609E+03</pdfrwt>
<totfact> 0.70917968E+01</totfact>
</mgrwt>
</event>
<event>
 4    1  0.5410820E-008  0.2316896E+03  0.7818608E-02  0.1125456E+00
          2   -1    0    0  501    0  0.00000000000E+00  0.00000000000E+00  0.13115774674E+04  0.13115774674E+04  0.25500000000E-02 0. -1.
         -2   -1    0    0    0  501 -0.00000000000E+00 -0.00000000000E+00 -0.32942574462E+03  0.32942574463E+03  0.25500000000E-02 0.  1.
    8880022    1    1    2    0    0 -0.86163694733E+02  0.15120931875E+03 -0.27676631598E+03  0.36094277530E+03  0.15294330000E+03 0.  0.
    8880022    1    1    2    0    0  0.86163694733E+02 -0.15120931875E+03  0.12589180387E+04  0.12800604367E+04  0.15294330000E+03 0. -1.
<mgrwt>
<rscale>  0 0.23168965E+03</rscale>
<asrwt>0</asrwt>
<pdfrwt beam="1">  1        2 0.20178115E+00 0.23168965E+03</pdfrwt>
<pdfrwt beam="2">  1       -2 0.50680884E-01 0.23168965E+03</pdfrwt>
<totfact> 0.66301937E+01</totfact>
</mgrwt>
</event>
<event>
 4    1  0.5410820E-008  0.3025210E+03  0.7818608E-02  0.1083987E+00
         -2   -1    0    0    0  501 -0.00000000000E+00  0.00000000000E+00  0.33667034662E+03  0.33667034663E+03  0.25500000000E-02 0.  1.
          2   -1    0    0  501    0  0.00000000000E+00 -0.00000000000E+00 -0.70211377407E+03  0.70211377407E+03  0.25500000000E-02 0. -1.
    8880022    1    1    2    0    0  0.25772319340E+03  0.41304298859E+02 -0.58932069214E+03  0.66243325756E+03  0.15294330000E+03 0.  0.
    8880022    1    1    2    0    0 -0.25772319340E+03 -0.41304298859E+02  0.22387726469E+03  0.37635086314E+03  0.15294330000E+03 0.  1.
<mgrwt>
<rscale>  0 0.30252098E+03</rscale>
<asrwt>0</asrwt>
<pdfrwt beam="1">  1        2 0.10801750E+00 0.30252098E+03</pdfrwt>
<pdfrwt beam="2">  1       -2 0.51795438E-01 0.30252098E+03</pdfrwt>
<totfact> 0.15051710E+02</totfact>
</mgrwt>
</event>
<event>
 4    1  0.5410820E-008  0.1049246E+04  0.7818608E-02  0.9256123E-01
          2   -1    0    0  501    0  0.00000000000E+00  0.00000000000E+00  0.21262724672E+04  0.21262724672E+04  0.25500000000E-02 0. -1.
         -2   -1    0    0    0  501 -0.00000000000E+00 -0.00000000000E+00 -0.77845780614E+03  0.77845780615E+03  0.25500000000E-02 0.  1.
    8880022    1    1    2    0    0  0.63204357491E+02 -0.10361128882E+04  0.15143732311E+04  0.18423470477E+04  0.15294330000E+03 0.  0.
    8880022    1    1    2    0    0 -0.63204357491E+02  0.10361128882E+04 -0.16655857001E+03  0.10623832257E+04  0.15294330000E+03 0.  0.
<mgrwt>
<rscale>  0 0.10492456E+04</rscale>
<asrwt>0</asrwt>
<pdfrwt beam="1">  1        2 0.32711885E+00 0.10492456E+04</pdfrwt>
<pdfrwt beam="2">  1       -2 0.11976274E+00 0.10492456E+04</pdfrwt>
<totfact> 0.30142870E+00</totfact>
</mgrwt>
</event>
<event>
 4    1  0.5410820E-008  0.1938765E+03  0.7818608E-02  0.1155011E+00
         -2   -1    0    0    0  501 -0.00000000000E+00  0.00000000000E+00  0.31765265275E+03  0.31765265276E+03  0.25500000000E-02 0.  1.
          2   -1    0    0  501    0  0.00000000000E+00 -0.00000000000E+00 -0.95269311399E+03  0.95269311400E+03  0.25500000000E-02 0. -1.
    8880022    1    1    2    0    0 -0.55193230294E+02 -0.10559432298E+03  0.27689888093E+03  0.33802529046E+03  0.15294330000E+03 0.  1.
    8880022    1    1    2    0    0  0.55193230294E+02  0.10559432298E+03 -0.91193934217E+03  0.93232047630E+03  0.15294330000E+03 0.  0.
<mgrwt>
<rscale>  0 0.19387652E+03</rscale>
<asrwt>0</asrwt>
<pdfrwt beam="1">  1        2 0.14656817E+00 0.19387652E+03</pdfrwt>
<pdfrwt beam="2">  1       -2 0.48869639E-01 0.19387652E+03</pdfrwt>
<totfact> 0.11633125E+02</totfact>
</mgrwt>
</event>
<event>
 4    1  0.5410820E-008  0.1119209E+04  0.7818608E-02  0.9186669E-01
          2   -1    0    0  501    0  0.00000000000E+00  0.00000000000E+00  0.36145200572E+04  0.36145200572E+04  0.25500000000E-02 0. -1.
         -2   -1    0    0    0  501 -0.00000000000E+00 -0.00000000000E+00 -0.72616080903E+03  0.72616080903E+03  0.25500000000E-02 0.  1.
    8880022    1    1    2    0    0 -0.17935617726E+03  0.10941067232E+04  0.30133782255E+04  0.32145105604E+04  0.15294330000E+03 0.  0.
    8880022    1    1    2    0    0  0.17935617726E+03 -0.10941067232E+04 -0.12501897734E+03  0.11261703058E+04  0.15294330000E+03 0.  0.
<mgrwt>
<rscale>  0 0.11192095E+04</rscale>
<asrwt>0</asrwt>
<pdfrwt beam="1">  1        2 0.55608002E+00 0.11192095E+04</pdfrwt>
<pdfrwt beam="2">  1       -2 0.11171705E+00 0.11192095E+04</pdfrwt>
<totfact> 0.43272624E-01</totfact>
</mgrwt>
</event>
<event>
 4    1  0.5410820E-008  0.4992237E+03  0.7818608E-02  0.1013982E+00
         -2   -1    0    0    0  501 -0.00000000000E+00  0.00000000000E+00  0.34521644656E+03  0.34521644657E+03  0.25500000000E-02 0.  1.
          2   -1    0    0  501    0  0.00000000000E+00 -0.00000000000E+00 -0.11861334505E+04  0.11861334505E+04  0.25500000000E-02 0. -1.
    8880022    1    1    2    0    0 -0.40971906699E+02 -0.47344894884E+03  0.58534239842E+02  0.50264352631E+03  0.15294330000E+03 0.  0.
    8880022    1    1    2    0    0  0.40971906699E+02  0.47344894884E+03 -0.89945124381E+03  0.10287063708E+04  0.15294330000E+03 0.  0.
<mgrwt>
<rscale>  0 0.49922365E+03</rscale>
<asrwt>0</asrwt>
<pdfrwt beam="1">  1        2 0.18248207E+00 0.49922365E+03</pdfrwt>
<pdfrwt beam="2">  1       -2 0.53110223E-01 0.49922365E+03</pdfrwt>
<totfact> 0.67415701E+01</totfact>
</mgrwt>
</event>
<event>
 4    1  0.5410820E-008  0.4775423E+03  0.7818608E-02  0.1019813E+00
         -2   -1    0    0    0  501 -0.00000000000E+00  0.00000000000E+00  0.25553643394E+03  0.25553643395E+03  0.25500000000E-02 0.  1.
          2   -1    0    0  501    0  0.00000000000E+00 -0.00000000000E+00 -0.14892315811E+04  0.14892315811E+04  0.25500000000E-02 0. -1.
    8880022    1    1    2    0    0 -0.14502143519E+03  0.42851349516E+03 -0.11691080614E+04  0.12628778026E+04  0.15294330000E+03 0.  0.
    8880022    1    1    2    0    0  0.14502143519E+03 -0.42851349516E+03 -0.64587085832E+02  0.48189021246E+03  0.15294330000E+03 0.  0.
<mgrwt>
<rscale>  0 0.47754234E+03</rscale>
<asrwt>0</asrwt>
<pdfrwt beam="1">  1        2 0.22911255E+00 0.47754234E+03</pdfrwt>
<pdfrwt beam="2">  1       -2 0.39313298E-01 0.47754234E+03</pdfrwt>
<totfact> 0.82898000E+01</totfact>
</mgrwt>
</event>
<event>
 4    1  0.5410820E-008  0.5224883E+03  0.7818608E-02  0.1008070E+00
         -2   -1    0    0    0  501 -0.00000000000E+00  0.00000000000E+00  0.12411229762E+04  0.12411229762E+04  0.25500000000E-02 0.  1.
          2   -1    0    0  501    0  0.00000000000E+00 -0.00000000000E+00 -0.15597073928E+04  0.15597073928E+04  0.25500000000E-02 0. -1.
    8880022    1    1    2    0    0  0.32645863440E+02  0.49853449399E+03  0.11386254623E+04  0.12527817010E+04  0.15294330000E+03 0.  0.
    8880022    1    1    2    0    0 -0.32645863440E+02 -0.49853449399E+03 -0.14572098789E+04  0.15480486679E+04  0.15294330000E+03 0. -1.
<mgrwt>
<rscale>  0 0.52248832E+03</rscale>
<asrwt>0</asrwt>
<pdfrwt beam="1">  1        2 0.23995498E+00 0.52248832E+03</pdfrwt>
<pdfrwt beam="2">  1       -2 0.19094200E+00 0.52248832E+03</pdfrwt>
<totfact> 0.19449896E+00</totfact>
</mgrwt>
</event>
<event>
 4    1  0.5410820E-008  0.5192743E+03  0.7818608E-02  0.1008867E+00
         -2   -1    0    0    0  501 -0.00000000000E+00  0.00000000000E+00  0.42634643412E+03  0.42634643412E+03  0.25500000000E-02 0.  1.
          2   -1    0    0  501    0  0.00000000000E+00 -0.00000000000E+00 -0.69604591255E+03  0.69604591255E+03  0.25500000000E-02 0. -1.
    8880022    1    1    2    0    0 -0.22612228678E+03 -0.44172709999E+03 -0.30447345408E+03  0.60195502880E+03  0.15294330000E+03 0. -1.
    8880022    1    1    2    0    0  0.22612228678E+03  0.44172709999E+03  0.34773975650E+02  0.52043731788E+03  0.15294330000E+03 0.  0.
<mgrwt>
<rscale>  0 0.51927427E+03</rscale>
<asrwt>0</asrwt>
<pdfrwt beam="1">  1        2 0.10708399E+00 0.51927427E+03</pdfrwt>
<pdfrwt beam="2">  1       -2 0.65591759E-01 0.51927427E+03</pdfrwt>
<totfact> 0.90992939E+01</totfact>
</mgrwt>
</event>
<event>
 4    1  0.5410820E-008  0.1908955E+03  0.7818608E-02  0.1157656E+00
         -2   -1    0    0    0  501 -0.00000000000E+00  0.00000000000E+00  0.58992151577E+02  0.58992151632E+02  0.25500000000E-02 0.  1.
          2   -1    0    0  501    0  0.00000000000E+00 -0.00000000000E+00 -0.11371321506E+04  0.11371321506E+04  0.25500000000E-02 0. -1.
    8880022    1    1    2    0    0 -0.27561015637E+02 -0.11085943900E+03 -0.94326760972E+03  0.96239018146E+03  0.15294330000E+03 0.  0.
    8880022    1    1    2    0    0  0.27561015637E+02  0.11085943900E+03 -0.13487238927E+03  0.23373412074E+03  0.15294330000E+03 0.  1.
<mgrwt>
<rscale>  0 0.19089546E+03</rscale>
<asrwt>0</asrwt>
<pdfrwt beam="1">  1        2 0.17494339E+00 0.19089546E+03</pdfrwt>
<pdfrwt beam="2">  1       -2 0.90757165E-02 0.19089546E+03</pdfrwt>
<totfact> 0.16829693E+03</totfact>
</mgrwt>
</event>
<event>
 4    1  0.5410820E-008  0.8380185E+03  0.7818608E-02  0.9506561E-01
          2   -1    0    0  501    0  0.00000000000E+00  0.00000000000E+00  0.12821731334E+04  0.12821731334E+04  0.25500000000E-02 0. -1.
         -2   -1    0    0    0  501 -0.00000000000E+00 -0.00000000000E+00 -0.84046066331E+03  0.84046066331E+03  0.25500000000E-02 0.  1.
    8880022    1    1    2    0    0 -0.55946853413E+03 -0.60487882561E+03  0.84721916579E+03  0.11916607748E+04  0.15294330000E+03 0.  0.
    8880022    1    1    2    0    0  0.55946853413E+03  0.60487882561E+03 -0.40550669566E+03  0.93097302194E+03  0.15294330000E+03 0.  0.
<mgrwt>
<rscale>  0 0.83801855E+03</rscale>
<asrwt>0</asrwt>
<pdfrwt beam="1">  1        2 0.19725740E+00 0.83801855E+03</pdfrwt>
<pdfrwt beam="2">  1       -2 0.12930164E+00 0.83801855E+03</pdfrwt>
<totfact> 0.75305668E+00</totfact>
</mgrwt>
</event>
<event>
 4    1  0.5410820E-008  0.6048572E+03  0.7818608E-02  0.9895380E-01
         -2   -1    0    0    0  501 -0.00000000000E+00  0.00000000000E+00  0.15541542810E+03  0.15541542813E+03  0.25500000000E-02 0.  1.
          2   -1    0    0  501    0  0.00000000000E+00 -0.00000000000E+00 -0.34112020699E+04  0.34112020699E+04  0.25500000000E-02 0. -1.
    8880022    1    1    2    0    0 -0.34317085259E+03 -0.47401932835E+03 -0.26206576078E+04  0.26895535890E+04  0.15294330000E+03 0.  0.
    8880022    1    1    2    0    0  0.34317085259E+03  0.47401932835E+03 -0.63512903406E+03  0.87706390910E+03  0.15294330000E+03 0.  0.
<mgrwt>
<rscale>  0 0.60485718E+03</rscale>
<asrwt>0</asrwt>
<pdfrwt beam="1">  1        2 0.52480026E+00 0.60485718E+03</pdfrwt>
<pdfrwt beam="2">  1       -2 0.23910068E-01 0.60485718E+03</pdfrwt>
<totfact> 0.16096105E+01</totfact>
</mgrwt>
</event>
<event>
 4    1  0.5410820E-008  0.4040014E+03  0.7818608E-02  0.1042403E+00
         -2   -1    0    0    0  501 -0.00000000000E+00  0.00000000000E+00  0.37176559955E+03  0.37176559956E+03  0.25500000000E-02 0.  1.
          2   -1    0    0  501    0  0.00000000000E+00 -0.00000000000E+00 -0.12137120926E+04  0.12137120927E+04  0.25500000000E-02 0. -1.
    8880022    1    1    2    0    0  0.37233165078E+03  0.34563411786E+02  0.21236160684E+03  0.45641493477E+03  0.15294330000E+03 0.  0.
    8880022    1    1    2    0    0 -0.37233165078E+03 -0.34563411786E+02 -0.10543080999E+04  0.11290627574E+04  0.15294330000E+03 0.  0.
<mgrwt>
<rscale>  0 0.40400141E+03</rscale>
<asrwt>0</asrwt>
<pdfrwt beam="1">  1        2 0.18672494E+00 0.40400141E+03</pdfrwt>
<pdfrwt beam="2">  1       -2 0.57194708E-01 0.40400141E+03</pdfrwt>
<totfact> 0.56585153E+01</totfact>
</mgrwt>
</event>
<event>
 4    1  0.5410820E-008  0.3953478E+03  0.7818608E-02  0.1045403E+00
          2   -1    0    0  501    0  0.00000000000E+00  0.00000000000E+00  0.51907463750E+03  0.51907463750E+03  0.25500000000E-02 0. -1.
         -2   -1    0    0    0  501 -0.00000000000E+00 -0.00000000000E+00 -0.58153537997E+03  0.58153537997E+03  0.25500000000E-02 0.  1.
    8880022    1    1    2    0    0  0.20431657256E+01  0.36456007634E+03 -0.41337001547E+03  0.57199182380E+03  0.15294330000E+03 0.  0.
    8880022    1    1    2    0    0 -0.20431657256E+01 -0.36456007634E+03  0.35090927300E+03  0.52861819367E+03  0.15294330000E+03 0.  0.
<mgrwt>
<rscale>  0 0.39534779E+03</rscale>
<asrwt>0</asrwt>
<pdfrwt beam="1">  1        2 0.79857636E-01 0.39534779E+03</pdfrwt>
<pdfrwt beam="2">  1       -2 0.89466982E-01 0.39534779E+03</pdfrwt>
<totfact> 0.65802509E+01</totfact>
</mgrwt>
</event>
<event>
 4    1  0.5410820E-008  0.4672657E+03  0.7818608E-02  0.1022695E+00
          2   -1    0    0  501    0  0.00000000000E+00  0.00000000000E+00  0.10579506959E+04  0.10579506959E+04  0.25500000000E-02 0. -1.
         -2   -1    0    0    0  501 -0.00000000000E+00 -0.00000000000E+00 -0.31388346075E+03  0.31388346076E+03  0.25500000000E-02 0.  1.
    8880022    1    1    2    0    0 -0.19717102409E+03 -0.39505596408E+03 -0.29390587914E+02  0.46818915746E+03  0.15294330000E+03 0.  1.
    8880022    1    1    2    0    0  0.19717102409E+03  0.39505596408E+03  0.77345782304E+03  0.90364499918E+03  0.15294330000E+03 0.  0.
<mgrwt>
<rscale>  0 0.46726575E+03</rscale>
<asrwt>0</asrwt>
<pdfrwt beam="1">  1        2 0.16276164E+00 0.46726575E+03</pdfrwt>
<pdfrwt beam="2">  1       -2 0.48289763E-01 0.46726575E+03</pdfrwt>
<totfact> 0.97939281E+01</totfact>
</mgrwt>
</event>
<event>
 4    1  0.5410820E-008  0.7756345E+03  0.7818608E-02  0.9595971E-01
          2   -1    0    0  501    0  0.00000000000E+00  0.00000000000E+00  0.18876321180E+04  0.18876321180E+04  0.25500000000E-02 0. -1.
         -2   -1    0    0    0  501 -0.00000000000E+00 -0.00000000000E+00 -0.55250311367E+03  0.55250311368E+03  0.25500000000E-02 0.  1.
    8880022    1    1    2    0    0  0.10719646970E+03  0.75281213313E+03 -0.12609021050E+03  0.78581650855E+03  0.15294330000E+03 0.  0.
    8880022    1    1    2    0    0 -0.10719646970E+03 -0.75281213313E+03  0.14612192149E+04  0.16543187232E+04  0.15294330000E+03 0.  0.
<mgrwt>
<rscale>  0 0.77563448E+03</rscale>
<asrwt>0</asrwt>
<pdfrwt beam="1">  1        2 0.29040494E+00 0.77563448E+03</pdfrwt>
<pdfrwt beam="2">  1       -2 0.85000479E-01 0.77563448E+03</pdfrwt>
<totfact> 0.95640220E+00</totfact>
</mgrwt>
</event>
<event>
 4    1  0.5410820E-008  0.1367102E+04  0.7818608E-02  0.8977982E-01
          2   -1    0    0  501    0  0.00000000000E+00  0.00000000000E+00  0.13133647823E+04  0.13133647823E+04  0.25500000000E-02 0. -1.
         -2   -1    0    0    0  501 -0.00000000000E+00 -0.00000000000E+00 -0.23309948821E+04  0.23309948821E+04  0.25500000000E-02 0.  1.
    8880022    1    1    2    0    0 -0.88276983514E+03 -0.10326150343E+04  0.62842770503E+03  0.15046226850E+04  0.15294330000E+03 0.  0.
    8880022    1    1    2    0    0  0.88276983514E+03  0.10326150343E+04 -0.16460578048E+04  0.21397369793E+04  0.15294330000E+03 0.  0.
<mgrwt>
<rscale>  0 0.13671021E+04</rscale>
<asrwt>0</asrwt>
<pdfrwt beam="1">  1        2 0.20205612E+00 0.13671021E+04</pdfrwt>
<pdfrwt beam="2">  1       -2 0.35861460E+00 0.13671021E+04</pdfrwt>
<totfact> 0.21382554E-01</totfact>
</mgrwt>
</event>
<event>
 4    1  0.5410820E-008  0.6822804E+03  0.7818608E-02  0.9748024E-01
          2   -1    0    0  501    0  0.00000000000E+00  0.00000000000E+00  0.34009608199E+04  0.34009608199E+04  0.25500000000E-02 0. -1.
         -2   -1    0    0    0  501 -0.00000000000E+00 -0.00000000000E+00 -0.24897264982E+03  0.24897264983E+03  0.25500000000E-02 0.  1.
    8880022    1    1    2    0    0 -0.41449577735E+03 -0.51991169384E+03  0.35144174751E+03  0.76747499878E+03  0.15294330000E+03 0.  0.
    8880022    1    1    2    0    0  0.41449577735E+03  0.51991169384E+03  0.28005464226E+04  0.28824584710E+04  0.15294330000E+03 0.  0.
<mgrwt>
<rscale>  0 0.68228042E+03</rscale>
<asrwt>0</asrwt>
<pdfrwt beam="1">  1        2 0.52322471E+00 0.68228042E+03</pdfrwt>
<pdfrwt beam="2">  1       -2 0.38303487E-01 0.68228042E+03</pdfrwt>
<totfact> 0.67033966E+00</totfact>
</mgrwt>
</event>
<event>
 4    1  0.5410820E-008  0.5004150E+03  0.7818608E-02  0.1013671E+00
         -2   -1    0    0    0  501 -0.00000000000E+00  0.00000000000E+00  0.41860880388E+03  0.41860880389E+03  0.25500000000E-02 0.  1.
          2   -1    0    0  501    0  0.00000000000E+00 -0.00000000000E+00 -0.11879607039E+04  0.11879607039E+04  0.25500000000E-02 0. -1.
    8880022    1    1    2    0    0  0.39567428749E+03  0.26545313675E+03  0.18130711037E+03  0.53224752782E+03  0.15294330000E+03 0.  0.
    8880022    1    1    2    0    0 -0.39567428749E+03 -0.26545313675E+03 -0.95065901037E+03  0.10743219800E+04  0.15294330000E+03 0.  0.
<mgrwt>
<rscale>  0 0.50041499E+03</rscale>
<asrwt>0</asrwt>
<pdfrwt beam="1">  1        2 0.18276318E+00 0.50041499E+03</pdfrwt>
<pdfrwt beam="2">  1       -2 0.64401355E-01 0.50041499E+03</pdfrwt>
<totfact> 0.44953794E+01</totfact>
</mgrwt>
</event>
<event>
 4    1  0.5410820E-008  0.4211920E+03  0.7818608E-02  0.1036679E+00
          2   -1    0    0  501    0  0.00000000000E+00  0.00000000000E+00  0.59497614196E+03  0.59497614196E+03  0.25500000000E-02 0. -1.
         -2   -1    0    0    0  501 -0.00000000000E+00 -0.00000000000E+00 -0.98816074158E+03  0.98816074158E+03  0.25500000000E-02 0.  1.
    8880022    1    1    2    0    0  0.36563500548E+03  0.14255554087E+03  0.46485769279E+03  0.62729209068E+03  0.15294330000E+03 0.  0.
    8880022    1    1    2    0    0 -0.36563500548E+03 -0.14255554087E+03 -0.85804229241E+03  0.95584479286E+03  0.15294330000E+03 0.  1.
<mgrwt>
<rscale>  0 0.42119199E+03</rscale>
<asrwt>0</asrwt>
<pdfrwt beam="1">  1        2 0.91534791E-01 0.42119199E+03</pdfrwt>
<pdfrwt beam="2">  1       -2 0.15202473E+00 0.42119199E+03</pdfrwt>
<totfact> 0.15329486E+01</totfact>
</mgrwt>
</event>
<event>
 4    1  0.5410820E-008  0.6741100E+03  0.7818608E-02  0.9762561E-01
         -2   -1    0    0    0  501 -0.00000000000E+00  0.00000000000E+00  0.13081723495E+04  0.13081723495E+04  0.25500000000E-02 0.  1.
          2   -1    0    0  501    0  0.00000000000E+00 -0.00000000000E+00 -0.76842426831E+03  0.76842426831E+03  0.25500000000E-02 0. -1.
    8880022    1    1    2    0    0  0.64207492336E+03 -0.13701252638E+03  0.10384537025E+04  0.12380671972E+04  0.15294330000E+03 0.  0.
    8880022    1    1    2    0    0 -0.64207492336E+03  0.13701252638E+03 -0.49870562126E+03  0.83852942064E+03  0.15294330000E+03 0.  0.
<mgrwt>
<rscale>  0 0.67411000E+03</rscale>
<asrwt>0</asrwt>
<pdfrwt beam="1">  1        2 0.11821912E+00 0.67411000E+03</pdfrwt>
<pdfrwt beam="2">  1       -2 0.20125728E+00 0.67411000E+03</pdfrwt>
<totfact> 0.48961195E+00</totfact>
</mgrwt>
</event>
<event>
 4    1  0.5410820E-008  0.8368860E+03  0.7818608E-02  0.9508109E-01
          2   -1    0    0  501    0  0.00000000000E+00  0.00000000000E+00  0.40319215147E+04  0.40319215147E+04  0.25500000000E-02 0. -1.
         -2   -1    0    0    0  501 -0.00000000000E+00 -0.00000000000E+00 -0.67022324762E+03  0.67022324763E+03  0.25500000000E-02 0.  1.
    8880022    1    1    2    0    0  0.78856247892E+03  0.23485252457E+03 -0.34274042123E+03  0.90435012070E+03  0.15294330000E+03 0.  0.
    8880022    1    1    2    0    0 -0.78856247892E+03 -0.23485252457E+03  0.37044386883E+04  0.37977946416E+04  0.15294330000E+03 0.  0.
<mgrwt>
<rscale>  0 0.83688598E+03</rscale>
<asrwt>0</asrwt>
<pdfrwt beam="1">  1        2 0.62029561E+00 0.83688598E+03</pdfrwt>
<pdfrwt beam="2">  1       -2 0.10311127E+00 0.83688598E+03</pdfrwt>
<totfact> 0.26996602E-01</totfact>
</mgrwt>
</event>
<event>
 4    1  0.5410820E-008  0.1595068E+03  0.7818608E-02  0.1189255E+00
         -2   -1    0    0    0  501 -0.00000000000E+00  0.00000000000E+00  0.88037168662E+03  0.88037168662E+03  0.25500000000E-02 0.  1.
          2   -1    0    0  501    0  0.00000000000E+00 -0.00000000000E+00 -0.18247082378E+03  0.18247082380E+03  0.25500000000E-02 0. -1.
    8880022    1    1    2    0    0  0.24058909832E+02 -0.38365970182E+02 -0.13857475746E+03  0.21129456981E+03  0.15294330000E+03 0.  0.
    8880022    1    1    2    0    0 -0.24058909832E+02  0.38365970182E+02  0.83647562029E+03  0.85154794062E+03  0.15294330000E+03 0.  1.
<mgrwt>
<rscale>  0 0.15950684E+03</rscale>
<asrwt>0</asrwt>
<pdfrwt beam="1">  1        2 0.28072435E-01 0.15950684E+03</pdfrwt>
<pdfrwt beam="2">  1       -2 0.13544180E+00 0.15950684E+03</pdfrwt>
<totfact> 0.79258439E+01</totfact>
</mgrwt>
</event>
<event>
 4    1  0.5410820E-008  0.3650691E+03  0.7818608E-02  0.1056595E+00
          2   -1    0    0  501    0  0.00000000000E+00  0.00000000000E+00  0.18959427564E+04  0.18959427564E+04  0.25500000000E-02 0. -1.
         -2   -1    0    0    0  501 -0.00000000000E+00 -0.00000000000E+00 -0.10294724068E+03  0.10294724071E+03  0.25500000000E-02 0.  1.
    8880022    1    1    2    0    0 -0.61929090907E+02  0.32565098716E+03  0.14593670628E+04  0.15043362838E+04  0.15294330000E+03 0.  0.
    8880022    1    1    2    0    0  0.61929090907E+02 -0.32565098716E+03  0.33362845294E+03  0.49455371333E+03  0.15294330000E+03 0.  1.
<mgrwt>
<rscale>  0 0.36506908E+03</rscale>
<asrwt>0</asrwt>
<pdfrwt beam="1">  1        2 0.29168350E+00 0.36506908E+03</pdfrwt>
<pdfrwt beam="2">  1       -2 0.15838037E-01 0.36506908E+03</pdfrwt>
<totfact> 0.26008890E+02</totfact>
</mgrwt>
</event>
<event>
 4    1  0.5410820E-008  0.6929597E+03  0.7818608E-02  0.9729348E-01
          2   -1    0    0  501    0  0.00000000000E+00  0.00000000000E+00  0.78527024252E+03  0.78527024253E+03  0.25500000000E-02 0. -1.
         -2   -1    0    0    0  501 -0.00000000000E+00 -0.00000000000E+00 -0.86891162154E+03  0.86891162155E+03  0.25500000000E-02 0.  1.
    8880022    1    1    2    0    0  0.61717304067E+03  0.27549763254E+03  0.40835194794E+03  0.80432858588E+03  0.15294330000E+03 0.  0.
    8880022    1    1    2    0    0 -0.61717304067E+03 -0.27549763254E+03 -0.49199332696E+03  0.84985327819E+03  0.15294330000E+03 0.  0.
<mgrwt>
<rscale>  0 0.69295971E+03</rscale>
<asrwt>0</asrwt>
<pdfrwt beam="1">  1        2 0.12081081E+00 0.69295971E+03</pdfrwt>
<pdfrwt beam="2">  1       -2 0.13367871E+00 0.69295971E+03</pdfrwt>
<totfact> 0.14588331E+01</totfact>
</mgrwt>
</event>
<event>
 4    1  0.5410820E-008  0.4807535E+03  0.7818608E-02  0.1018928E+00
         -2   -1    0    0    0  501 -0.00000000000E+00  0.00000000000E+00  0.30367262556E+03  0.30367262557E+03  0.25500000000E-02 0.  1.
          2   -1    0    0  501    0  0.00000000000E+00 -0.00000000000E+00 -0.12194123745E+04  0.12194123745E+04  0.25500000000E-02 0. -1.
    8880022    1    1    2    0    0 -0.27607798514E+03 -0.36264745232E+03 -0.92474609041E+03  0.10422471939E+04  0.15294330000E+03 0.  0.
    8880022    1    1    2    0    0  0.27607798514E+03  0.36264745232E+03  0.90063415155E+01  0.48083780608E+03  0.15294330000E+03 0.  0.
<mgrwt>
<rscale>  0 0.48075345E+03</rscale>
<asrwt>0</asrwt>
<pdfrwt beam="1">  1        2 0.18760190E+00 0.48075345E+03</pdfrwt>
<pdfrwt beam="2">  1       -2 0.46718866E-01 0.48075345E+03</pdfrwt>
<totfact> 0.83747642E+01</totfact>
</mgrwt>
</event>
<event>
 4    1  0.5410820E-008  0.3784017E+03  0.7818608E-02  0.1051526E+00
         -2   -1    0    0    0  501 -0.00000000000E+00  0.00000000000E+00  0.19015224800E+03  0.19015224802E+03  0.25500000000E-02 0.  1.
          2   -1    0    0  501    0  0.00000000000E+00 -0.00000000000E+00 -0.84443798832E+03  0.84443798832E+03  0.25500000000E-02 0. -1.
    8880022    1    1    2    0    0  0.28536699481E+03  0.19586178617E+03 -0.15693555525E+03  0.40965422312E+03  0.15294330000E+03 0.  0.
    8880022    1    1    2    0    0 -0.28536699481E+03 -0.19586178617E+03 -0.49735018507E+03  0.62493601321E+03  0.15294330000E+03 0.  0.
<mgrwt>
<rscale>  0 0.37840166E+03</rscale>
<asrwt>0</asrwt>
<pdfrwt beam="1">  1        2 0.12991353E+00 0.37840166E+03</pdfrwt>
<pdfrwt beam="2">  1       -2 0.29254192E-01 0.37840166E+03</pdfrwt>
<totfact> 0.35347650E+02</totfact>
</mgrwt>
</event>
<event>
 4    1  0.5410820E-008  0.7311718E+03  0.7818608E-02  0.9665361E-01
          2   -1    0    0  501    0  0.00000000000E+00  0.00000000000E+00  0.17773545230E+04  0.17773545231E+04  0.25500000000E-02 0. -1.
         -2   -1    0    0    0  501 -0.00000000000E+00 -0.00000000000E+00 -0.54699510832E+03  0.54699510833E+03  0.25500000000E-02 0.  1.
    8880022    1    1    2    0    0  0.69427759064E+03 -0.17087747460E+03 -0.16452012301E+03  0.74945247219E+03  0.15294330000E+03 0.  0.
    8880022    1    1    2    0    0 -0.69427759064E+03  0.17087747460E+03  0.13948795377E+04  0.15748971592E+04  0.15294330000E+03 0.  0.
<mgrwt>
<rscale>  0 0.73117176E+03</rscale>
<asrwt>0</asrwt>
<pdfrwt beam="1">  1        2 0.27343916E+00 0.73117176E+03</pdfrwt>
<pdfrwt beam="2">  1       -2 0.84153094E-01 0.73117176E+03</pdfrwt>
<totfact> 0.11309666E+01</totfact>
</mgrwt>
</event>
<event>
 4    1  0.5410820E-008  0.4722648E+03  0.7818608E-02  0.1021283E+00
          2   -1    0    0  501    0  0.00000000000E+00  0.00000000000E+00  0.69750645925E+03  0.69750645926E+03  0.25500000000E-02 0. -1.
         -2   -1    0    0    0  501 -0.00000000000E+00 -0.00000000000E+00 -0.57547964397E+03  0.57547964398E+03  0.25500000000E-02 0.  1.
    8880022    1    1    2    0    0  0.11418500878E+03 -0.43197708156E+03  0.48530209882E+03  0.67716482142E+03  0.15294330000E+03 0.  0.
    8880022    1    1    2    0    0 -0.11418500878E+03  0.43197708156E+03 -0.36327528354E+03  0.59582128182E+03  0.15294330000E+03 0.  0.
<mgrwt>
<rscale>  0 0.47226483E+03</rscale>
<asrwt>0</asrwt>
<pdfrwt beam="1">  1        2 0.10730869E+00 0.47226483E+03</pdfrwt>
<pdfrwt beam="2">  1       -2 0.88535329E-01 0.47226483E+03</pdfrwt>
<totfact> 0.46988730E+01</totfact>
</mgrwt>
</event>
<event>
 4    1  0.5410820E-008  0.9638614E+03  0.7818608E-02  0.9349094E-01
         -2   -1    0    0    0  501 -0.00000000000E+00  0.00000000000E+00  0.46436256662E+03  0.46436256663E+03  0.25500000000E-02 0.  1.
          2   -1    0    0  501    0  0.00000000000E+00 -0.00000000000E+00 -0.21978641063E+04  0.21978641063E+04  0.25500000000E-02 0. -1.
    8880022    1    1    2    0    0 -0.30498388869E+03 -0.90145544562E+03 -0.46802033074E+03  0.10714811131E+04  0.15294330000E+03 0.  0.
    8880022    1    1    2    0    0  0.30498388869E+03  0.90145544562E+03 -0.12654812089E+04  0.15907455598E+04  0.15294330000E+03 0.  0.
<mgrwt>
<rscale>  0 0.96386137E+03</rscale>
<asrwt>0</asrwt>
<pdfrwt beam="1">  1        2 0.33813293E+00 0.96386137E+03</pdfrwt>
<pdfrwt beam="2">  1       -2 0.71440396E-01 0.96386137E+03</pdfrwt>
<totfact> 0.92982705E+00</totfact>
</mgrwt>
</event>
<event>
 4    1  0.5410820E-008  0.5087925E+03  0.7818608E-02  0.1011509E+00
          2   -1    0    0  501    0  0.00000000000E+00  0.00000000000E+00  0.10027032734E+04  0.10027032734E+04  0.25500000000E-02 0. -1.
         -2   -1    0    0    0  501 -0.00000000000E+00 -0.00000000000E+00 -0.50655693842E+03  0.50655693843E+03  0.25500000000E-02 0.  1.
    8880022    1    1    2    0    0  0.38696120583E+03  0.29281252177E+03 -0.28035105465E+03  0.58091868156E+03  0.15294330000E+03 0.  0.
    8880022    1    1    2    0    0 -0.38696120583E+03 -0.29281252177E+03  0.77649738963E+03  0.92834153027E+03  0.15294330000E+03 0.  0.
<mgrwt>
<rscale>  0 0.50879249E+03</rscale>
<asrwt>0</asrwt>
<pdfrwt beam="1">  1        2 0.15426204E+00 0.50879249E+03</pdfrwt>
<pdfrwt beam="2">  1       -2 0.77931837E-01 0.50879249E+03</pdfrwt>
<totfact> 0.38385401E+01</totfact>
</mgrwt>
</event>
<event>
 4    1  0.5410820E-008  0.3565551E+03  0.7818608E-02  0.1059956E+00
         -2   -1    0    0    0  501 -0.00000000000E+00  0.00000000000E+00  0.28478356598E+03  0.28478356599E+03  0.25500000000E-02 0.  1.
          2   -1    0    0  501    0  0.00000000000E+00 -0.00000000000E+00 -0.11983998753E+04  0.11983998753E+04  0.25500000000E-02 0. -1.
    8880022    1    1    2    0    0  0.50823874995E+02 -0.31805162087E+03  0.13063879366E+03  0.37973417970E+03  0.15294330000E+03 0.  0.
    8880022    1    1    2    0    0 -0.50823874995E+02  0.31805162087E+03 -0.10442551030E+04  0.11034492616E+04  0.15294330000E+03 0.  0.
<mgrwt>
<rscale>  0 0.35655512E+03</rscale>
<asrwt>0</asrwt>
<pdfrwt beam="1">  1        2 0.18436921E+00 0.35655512E+03</pdfrwt>
<pdfrwt beam="2">  1       -2 0.43812857E-01 0.35655512E+03</pdfrwt>
<totfact> 0.99613493E+01</totfact>
</mgrwt>
</event>
<event>
 4    1  0.5410820E-008  0.5104985E+03  0.7818608E-02  0.1011074E+00
         -2   -1    0    0    0  501 -0.00000000000E+00  0.00000000000E+00  0.53733295703E+03  0.53733295704E+03  0.25500000000E-02 0.  1.
          2   -1    0    0  501    0  0.00000000000E+00 -0.00000000000E+00 -0.11286038912E+04  0.11286038912E+04  0.25500000000E-02 0. -1.
    8880022    1    1    2    0    0  0.29116410560E+03  0.39043626819E+03  0.33338637448E+03  0.60971726531E+03  0.15294330000E+03 0.  0.
    8880022    1    1    2    0    0 -0.29116410560E+03 -0.39043626819E+03 -0.92465730862E+03  0.10562195829E+04  0.15294330000E+03 0. -1.
<mgrwt>
<rscale>  0 0.51049845E+03</rscale>
<asrwt>0</asrwt>
<pdfrwt beam="1">  1        2 0.17363137E+00 0.51049845E+03</pdfrwt>
<pdfrwt beam="2">  1       -2 0.82666609E-01 0.51049845E+03</pdfrwt>
<totfact> 0.28161711E+01</totfact>
</mgrwt>
</event>
<event>
 4    1  0.5410820E-008  0.4125053E+03  0.7818608E-02  0.1039534E+00
          2   -1    0    0  501    0  0.00000000000E+00  0.00000000000E+00  0.66685028223E+02  0.66685028272E+02  0.25500000000E-02 0. -1.
         -2   -1    0    0    0  501 -0.00000000000E+00 -0.00000000000E+00 -0.30144646894E+04  0.30144646894E+04  0.25500000000E-02 0.  1.
    8880022    1    1    2    0    0 -0.27849821842E+03 -0.26307356888E+03 -0.87028207745E+03  0.96309475529E+03  0.15294330000E+03 0.  0.
    8880022    1    1    2    0    0  0.27849821842E+03  0.26307356888E+03 -0.20774975837E+04  0.21180549624E+04  0.15294330000E+03 0.  1.
<mgrwt>
<rscale>  0 0.41250529E+03</rscale>
<asrwt>0</asrwt>
<pdfrwt beam="1">  1        2 0.10259237E-01 0.41250529E+03</pdfrwt>
<pdfrwt beam="2">  1       -2 0.46376369E+00 0.41250529E+03</pdfrwt>
<totfact> 0.20538126E+00</totfact>
</mgrwt>
</event>
<event>
 4    1  0.5410820E-008  0.2031650E+03  0.7818608E-02  0.1147096E+00
         -2   -1    0    0    0  501 -0.00000000000E+00  0.00000000000E+00  0.17816425186E+03  0.17816425188E+03  0.25500000000E-02 0.  1.
          2   -1    0    0  501    0  0.00000000000E+00 -0.00000000000E+00 -0.23440937455E+03  0.23440937457E+03  0.25500000000E-02 0. -1.
    8880022    1    1    2    0    0 -0.49561372120E+02 -0.12420960659E+03 -0.50406885351E+02  0.20932477895E+03  0.15294330000E+03 0.  1.
    8880022    1    1    2    0    0  0.49561372120E+02  0.12420960659E+03 -0.58382373439E+01  0.20324884749E+03  0.15294330000E+03 0. -1.
<mgrwt>
<rscale>  0 0.20316498E+03</rscale>
<asrwt>0</asrwt>
<pdfrwt beam="1">  1        2 0.36062981E-01 0.20316498E+03</pdfrwt>
<pdfrwt beam="2">  1       -2 0.27409885E-01 0.20316498E+03</pdfrwt>
<totfact> 0.17089930E+03</totfact>
</mgrwt>
</event>
<event>
 4    1  0.5410820E-008  0.4234309E+03  0.7818608E-02  0.1035955E+00
          2   -1    0    0  501    0  0.00000000000E+00  0.00000000000E+00  0.17614687637E+04  0.17614687637E+04  0.25500000000E-02 0. -1.
         -2   -1    0    0    0  501 -0.00000000000E+00 -0.00000000000E+00 -0.45206466720E+03  0.45206466720E+03  0.25500000000E-02 0.  1.
    8880022    1    1    2    0    0 -0.39242191925E+03 -0.43670838985E+02 -0.31952982895E+03  0.53046495595E+03  0.15294330000E+03 0.  0.
    8880022    1    1    2    0    0  0.39242191925E+03  0.43670838985E+02  0.16289339255E+04  0.16830684750E+04  0.15294330000E+03 0.  0.
<mgrwt>
<rscale>  0 0.42343094E+03</rscale>
<asrwt>0</asrwt>
<pdfrwt beam="1">  1        2 0.27099519E+00 0.42343094E+03</pdfrwt>
<pdfrwt beam="2">  1       -2 0.69548411E-01 0.42343094E+03</pdfrwt>
<totfact> 0.18636544E+01</totfact>
</mgrwt>
</event>
<event>
 4    1  0.5410820E-008  0.6526488E+03  0.7818608E-02  0.9801822E-01
         -2   -1    0    0    0  501 -0.00000000000E+00  0.00000000000E+00  0.11998553555E+04  0.11998553555E+04  0.25500000000E-02 0.  1.
          2   -1    0    0  501    0  0.00000000000E+00 -0.00000000000E+00 -0.18693204954E+04  0.18693204954E+04  0.25500000000E-02 0. -1.
    8880022    1    1    2    0    0  0.31310905424E+03  0.55183467618E+03 -0.17159389601E+04  0.18358640901E+04  0.15294330000E+03 0.  0.
    8880022    1    1    2    0    0 -0.31310905424E+03 -0.55183467618E+03  0.10464738203E+04  0.12333117608E+04  0.15294330000E+03 0.  0.
<mgrwt>
<rscale>  0 0.65264879E+03</rscale>
<asrwt>0</asrwt>
<pdfrwt beam="1">  1        2 0.28758777E+00 0.65264879E+03</pdfrwt>
<pdfrwt beam="2">  1       -2 0.18459313E+00 0.65264879E+03</pdfrwt>
<totfact> 0.14108764E+00</totfact>
</mgrwt>
</event>
<event>
 4    1  0.5410820E-008  0.6378270E+03  0.7818608E-02  0.9829893E-01
          2   -1    0    0  501    0  0.00000000000E+00  0.00000000000E+00  0.35199885304E+04  0.35199885304E+04  0.25500000000E-02 0. -1.
         -2   -1    0    0    0  501 -0.00000000000E+00 -0.00000000000E+00 -0.16588456841E+03  0.16588456843E+03  0.25500000000E-02 0.  1.
    8880022    1    1    2    0    0 -0.42533107707E+03 -0.45002784815E+03  0.66213156429E+03  0.91937013802E+03  0.15294330000E+03 0.  1.
    8880022    1    1    2    0    0  0.42533107707E+03  0.45002784815E+03  0.26919723977E+04  0.27665029608E+04  0.15294330000E+03 0.  0.
<mgrwt>
<rscale>  0 0.63782697E+03</rscale>
<asrwt>0</asrwt>
<pdfrwt beam="1">  1        2 0.54153673E+00 0.63782697E+03</pdfrwt>
<pdfrwt beam="2">  1       -2 0.25520701E-01 0.63782697E+03</pdfrwt>
<totfact> 0.12008633E+01</totfact>
</mgrwt>
</event>
<event>
 4    1  0.5410820E-008  0.5923815E+03  0.7818608E-02  0.9921339E-01
          2   -1    0    0  501    0  0.00000000000E+00  0.00000000000E+00  0.13034334586E+04  0.13034334586E+04  0.25500000000E-02 0. -1.
         -2   -1    0    0    0  501 -0.00000000000E+00 -0.00000000000E+00 -0.79447815148E+03  0.79447815148E+03  0.25500000000E-02 0.  1.
    8880022    1    1    2    0    0 -0.35772495828E+03 -0.44671802557E+03 -0.59842779227E+03  0.84204015090E+03  0.15294330000E+03 0.  0.
    8880022    1    1    2    0    0  0.35772495828E+03  0.44671802557E+03  0.11073830994E+04  0.12558714592E+04  0.15294330000E+03 0.  0.
<mgrwt>
<rscale>  0 0.59238146E+03</rscale>
<asrwt>0</asrwt>
<pdfrwt beam="1">  1        2 0.20052822E+00 0.59238146E+03</pdfrwt>
<pdfrwt beam="2">  1       -2 0.12222741E+00 0.59238146E+03</pdfrwt>
<totfact> 0.87294432E+00</totfact>
</mgrwt>
</event>
<event>
 4    1  0.5410820E-008  0.2768132E+03  0.7818608E-02  0.1097442E+00
         -2   -1    0    0    0  501 -0.00000000000E+00  0.00000000000E+00  0.13606295654E+03  0.13606295656E+03  0.25500000000E-02 0.  1.
          2   -1    0    0  501    0  0.00000000000E+00 -0.00000000000E+00 -0.17577574242E+04  0.17577574242E+04  0.25500000000E-02 0. -1.
    8880022    1    1    2    0    0 -0.83984878680E+02 -0.21489633362E+03 -0.15914672135E+04  0.16153617052E+04  0.15294330000E+03 0.  0.
    8880022    1    1    2    0    0  0.83984878680E+02  0.21489633362E+03 -0.30227254114E+02  0.27845867549E+03  0.15294330000E+03 0.  0.
<mgrwt>
<rscale>  0 0.27681320E+03</rscale>
<asrwt>0</asrwt>
<pdfrwt beam="1">  1        2 0.27042420E+00 0.27681320E+03</pdfrwt>
<pdfrwt beam="2">  1       -2 0.20932764E-01 0.27681320E+03</pdfrwt>
<totfact> 0.19465037E+02</totfact>
</mgrwt>
</event>
<event>
 4    1  0.5410820E-008  0.1105034E+04  0.7818608E-02  0.9200300E-01
          2   -1    0    0  501    0  0.00000000000E+00  0.00000000000E+00  0.20672321667E+04  0.20672321667E+04  0.25500000000E-02 0. -1.
         -2   -1    0    0    0  501 -0.00000000000E+00 -0.00000000000E+00 -0.14557303192E+04  0.14557303192E+04  0.25500000000E-02 0.  1.
    8880022    1    1    2    0    0  0.10858735071E+04  0.13633218088E+03  0.16636109494E+04  0.19971731975E+04  0.15294330000E+03 0.  0.
    8880022    1    1    2    0    0 -0.10858735071E+04 -0.13633218088E+03 -0.10521091019E+04  0.15257892883E+04  0.15294330000E+03 0.  0.
<mgrwt>
<rscale>  0 0.11050337E+04</rscale>
<asrwt>0</asrwt>
<pdfrwt beam="1">  1        2 0.31803572E+00 0.11050337E+04</pdfrwt>
<pdfrwt beam="2">  1       -2 0.22395851E+00 0.11050337E+04</pdfrwt>
<totfact> 0.56339535E-01</totfact>
</mgrwt>
</event>
<event>
 4    1  0.5410820E-008  0.3766579E+03  0.7818608E-02  0.1052176E+00
          2   -1    0    0  501    0  0.00000000000E+00  0.00000000000E+00  0.11348170234E+04  0.11348170234E+04  0.25500000000E-02 0. -1.
         -2   -1    0    0    0  501 -0.00000000000E+00 -0.00000000000E+00 -0.52095188295E+03  0.52095188295E+03  0.25500000000E-02 0.  1.
    8880022    1    1    2    0    0  0.64490055379E+02 -0.33811321623E+03 -0.41481100412E+03  0.56030289700E+03  0.15294330000E+03 0.  0.
    8880022    1    1    2    0    0 -0.64490055379E+02  0.33811321623E+03  0.10286761446E+04  0.10954660094E+04  0.15294330000E+03 0.  0.
<mgrwt>
<rscale>  0 0.37665789E+03</rscale>
<asrwt>0</asrwt>
<pdfrwt beam="1">  1        2 0.17458723E+00 0.37665789E+03</pdfrwt>
<pdfrwt beam="2">  1       -2 0.80146444E-01 0.37665789E+03</pdfrwt>
<totfact> 0.30642863E+01</totfact>
</mgrwt>
</event>
<event>
 4    1  0.5410820E-008  0.9084322E+03  0.7818608E-02  0.9415102E-01
          2   -1    0    0  501    0  0.00000000000E+00  0.00000000000E+00  0.10264823108E+04  0.10264823108E+04  0.25500000000E-02 0. -1.
         -2   -1    0    0    0  501 -0.00000000000E+00 -0.00000000000E+00 -0.14768215189E+04  0.14768215189E+04  0.25500000000E-02 0.  1.
    8880022    1    1    2    0    0 -0.74330094659E+03 -0.49936072530E+03  0.61968684173E+03  0.10996639787E+04  0.15294330000E+03 0.  0.
    8880022    1    1    2    0    0  0.74330094659E+03  0.49936072530E+03 -0.10700260498E+04  0.14036398511E+04  0.15294330000E+03 0.  0.
<mgrwt>
<rscale>  0 0.90843221E+03</rscale>
<asrwt>0</asrwt>
<pdfrwt beam="1">  1        2 0.15792036E+00 0.90843221E+03</pdfrwt>
<pdfrwt beam="2">  1       -2 0.22720331E+00 0.90843221E+03</pdfrwt>
<totfact> 0.21690766E+00</totfact>
</mgrwt>
</event>
<event>
 4    1  0.5410820E-008  0.3719509E+03  0.7818608E-02  0.1053949E+00
         -2   -1    0    0    0  501 -0.00000000000E+00  0.00000000000E+00  0.53358478388E+02  0.53358478449E+02  0.25500000000E-02 0.  1.
          2   -1    0    0  501    0  0.00000000000E+00 -0.00000000000E+00 -0.26702792757E+04  0.26702792757E+04  0.25500000000E-02 0. -1.
    8880022    1    1    2    0    0  0.26782596869E+03 -0.20790646868E+03 -0.10764792344E+04  0.11389271462E+04  0.15294330000E+03 0.  1.
    8880022    1    1    2    0    0 -0.26782596869E+03  0.20790646868E+03 -0.15404415629E+04  0.15847106080E+04  0.15294330000E+03 0. -1.
<mgrwt>
<rscale>  0 0.37195094E+03</rscale>
<asrwt>0</asrwt>
<pdfrwt beam="1">  1        2 0.41081209E+00 0.37195094E+03</pdfrwt>
<pdfrwt beam="2">  1       -2 0.82089988E-02 0.37195094E+03</pdfrwt>
<totfact> 0.28676217E+02</totfact>
</mgrwt>
</event>
<event>
 4    1  0.5410820E-008  0.2930675E+03  0.7818608E-02  0.1088758E+00
          2   -1    0    0  501    0  0.00000000000E+00  0.00000000000E+00  0.21091274425E+04  0.21091274425E+04  0.25500000000E-02 0. -1.
         -2   -1    0    0    0  501 -0.00000000000E+00 -0.00000000000E+00 -0.18510900407E+03  0.18510900409E+03  0.25500000000E-02 0.  1.
    8880022    1    1    2    0    0  0.24975660574E+03 -0.10887837215E+02 -0.51103995314E+02  0.29748979556E+03  0.15294330000E+03 0.  1.
    8880022    1    1    2    0    0 -0.24975660574E+03  0.10887837215E+02  0.19751224337E+04  0.19967466510E+04  0.15294330000E+03 0.  0.
<mgrwt>
<rscale>  0 0.29306750E+03</rscale>
<asrwt>0</asrwt>
<pdfrwt beam="1">  1        2 0.32448113E+00 0.29306750E+03</pdfrwt>
<pdfrwt beam="2">  1       -2 0.28478309E-01 0.29306750E+03</pdfrwt>
<totfact> 0.73408361E+01</totfact>
</mgrwt>
</event>
<event>
 4    1  0.5410820E-008  0.5502632E+03  0.7818608E-02  0.1001433E+00
          2   -1    0    0  501    0  0.00000000000E+00  0.00000000000E+00  0.16721952790E+04  0.16721952790E+04  0.25500000000E-02 0. -1.
         -2   -1    0    0    0  501 -0.00000000000E+00 -0.00000000000E+00 -0.28421234440E+03  0.28421234441E+03  0.25500000000E-02 0.  1.
    8880022    1    1    2    0    0 -0.49477291766E+03 -0.18600442055E+03  0.12832690394E+04  0.13962696606E+04  0.15294330000E+03 0.  0.
    8880022    1    1    2    0    0  0.49477291766E+03  0.18600442055E+03  0.10471389514E+03  0.56013796279E+03  0.15294330000E+03 0.  0.
<mgrwt>
<rscale>  0 0.55026315E+03</rscale>
<asrwt>0</asrwt>
<pdfrwt beam="1">  1        2 0.25726081E+00 0.55026315E+03</pdfrwt>
<pdfrwt beam="2">  1       -2 0.43724976E-01 0.55026315E+03</pdfrwt>
<totfact> 0.52959636E+01</totfact>
</mgrwt>
</event>
<event>
 4    1  0.5410820E-008  0.6605978E+03  0.7818608E-02  0.9787094E-01
          2   -1    0    0  501    0  0.00000000000E+00  0.00000000000E+00  0.16604854428E+04  0.16604854428E+04  0.25500000000E-02 0. -1.
         -2   -1    0    0    0  501 -0.00000000000E+00 -0.00000000000E+00 -0.42714582618E+03  0.42714582619E+03  0.25500000000E-02 0.  1.
    8880022    1    1    2    0    0 -0.61427342993E+03  0.18885448895E+03  0.12641164138E+04  0.14263168741E+04  0.15294330000E+03 0. -1.
    8880022    1    1    2    0    0  0.61427342993E+03 -0.18885448895E+03 -0.30776797120E+02  0.66131439495E+03  0.15294330000E+03 0.  0.
<mgrwt>
<rscale>  0 0.66059785E+03</rscale>
<asrwt>0</asrwt>
<pdfrwt beam="1">  1        2 0.25545930E+00 0.66059785E+03</pdfrwt>
<pdfrwt beam="2">  1       -2 0.65714742E-01 0.66059785E+03</pdfrwt>
<totfact> 0.22859043E+01</totfact>
</mgrwt>
</event>
<event>
 4    1  0.5410820E-008  0.8797146E+03  0.7818608E-02  0.9451300E-01
          2   -1    0    0  501    0  0.00000000000E+00  0.00000000000E+00  0.27548610976E+04  0.27548610976E+04  0.25500000000E-02 0. -1.
         -2   -1    0    0    0  501 -0.00000000000E+00 -0.00000000000E+00 -0.63315056909E+03  0.63315056910E+03  0.25500000000E-02 0.  1.
    8880022    1    1    2    0    0  0.76794735882E+03 -0.40095266222E+03  0.23243528544E+04  0.24852593482E+04  0.15294330000E+03 0.  0.
    8880022    1    1    2    0    0 -0.76794735882E+03  0.40095266222E+03 -0.20264232588E+03  0.90275231847E+03  0.15294330000E+03 0.  0.
<mgrwt>
<rscale>  0 0.87971463E+03</rscale>
<asrwt>0</asrwt>
<pdfrwt beam="1">  1        2 0.42382478E+00 0.87971463E+03</pdfrwt>
<pdfrwt beam="2">  1       -2 0.97407781E-01 0.87971463E+03</pdfrwt>
<totfact> 0.22364852E+00</totfact>
</mgrwt>
</event>
<event>
 4    1  0.5410820E-008  0.7932603E+03  0.7818608E-02  0.9569824E-01
         -2   -1    0    0    0  501 -0.00000000000E+00  0.00000000000E+00  0.25772067254E+03  0.25772067256E+03  0.25500000000E-02 0.  1.
          2   -1    0    0  501    0  0.00000000000E+00 -0.00000000000E+00 -0.33754106657E+04  0.33754106657E+04  0.25500000000E-02 0. -1.
    8880022    1    1    2    0    0 -0.37113423597E+03 -0.68420003266E+03 -0.25142931690E+04  0.26364620419E+04  0.15294330000E+03 0.  0.
    8880022    1    1    2    0    0  0.37113423597E+03  0.68420003266E+03 -0.60339682411E+03  0.99666929629E+03  0.15294330000E+03 0.  0.
<mgrwt>
<rscale>  0 0.79326033E+03</rscale>
<asrwt>0</asrwt>
<pdfrwt beam="1">  1        2 0.51929392E+00 0.79326033E+03</pdfrwt>
<pdfrwt beam="2">  1       -2 0.39649337E-01 0.79326033E+03</pdfrwt>
<totfact> 0.63741588E+00</totfact>
</mgrwt>
</event>
<event>
 4    1  0.5410820E-008  0.1775517E+03  0.7818608E-02  0.1170194E+00
         -2   -1    0    0    0  501 -0.00000000000E+00  0.00000000000E+00  0.63269795336E+02  0.63269795387E+02  0.25500000000E-02 0.  1.
          2   -1    0    0  501    0  0.00000000000E+00 -0.00000000000E+00 -0.20001521863E+04  0.20001521863E+04  0.25500000000E-02 0. -1.
    8880022    1    1    2    0    0  0.89033848215E+02  0.14349607764E+02 -0.74422885963E+02  0.19251845714E+03  0.15294330000E+03 0.  0.
    8880022    1    1    2    0    0 -0.89033848215E+02 -0.14349607764E+02 -0.18624595050E+04  0.18709035245E+04  0.15294330000E+03 0. -1.
<mgrwt>
<rscale>  0 0.17755166E+03</rscale>
<asrwt>0</asrwt>
<pdfrwt beam="1">  1        2 0.30771567E+00 0.17755166E+03</pdfrwt>
<pdfrwt beam="2">  1       -2 0.97338162E-02 0.17755166E+03</pdfrwt>
<totfact> 0.52566682E+02</totfact>
</mgrwt>
</event>
<event>
 4    1  0.5410820E-008  0.5865988E+03  0.7818608E-02  0.9933606E-01
          2   -1    0    0  501    0  0.00000000000E+00  0.00000000000E+00  0.12776899910E+04  0.12776899910E+04  0.25500000000E-02 0. -1.
         -2   -1    0    0    0  501 -0.00000000000E+00 -0.00000000000E+00 -0.13465968005E+04  0.13465968005E+04  0.25500000000E-02 0.  1.
    8880022    1    1    2    0    0 -0.20838035054E+03  0.52657771237E+03  0.11391669678E+04  0.12813272382E+04  0.15294330000E+03 0.  0.
    8880022    1    1    2    0    0  0.20838035054E+03 -0.52657771237E+03 -0.12080737772E+04  0.13429595533E+04  0.15294330000E+03 0.  0.
<mgrwt>
<rscale>  0 0.58659876E+03</rscale>
<asrwt>0</asrwt>
<pdfrwt beam="1">  1        2 0.19656769E+00 0.58659876E+03</pdfrwt>
<pdfrwt beam="2">  1       -2 0.20716874E+00 0.58659876E+03</pdfrwt>
<totfact> 0.21611917E+00</totfact>
</mgrwt>
</event>
<event>
 4    1  0.5410820E-008  0.8438233E+03  0.7818608E-02  0.9498665E-01
         -2   -1    0    0    0  501 -0.00000000000E+00  0.00000000000E+00  0.46469470361E+03  0.46469470361E+03  0.25500000000E-02 0.  1.
          2   -1    0    0  501    0  0.00000000000E+00 -0.00000000000E+00 -0.17113177293E+04  0.17113177293E+04  0.25500000000E-02 0. -1.
    8880022    1    1    2    0    0  0.69525585596E+03  0.45306227681E+03 -0.97523672312E+03  0.12896218248E+04  0.15294330000E+03 0.  0.
    8880022    1    1    2    0    0 -0.69525585596E+03 -0.45306227681E+03 -0.27138630260E+03  0.88639060812E+03  0.15294330000E+03 0.  0.
<mgrwt>
<rscale>  0 0.84382331E+03</rscale>
<asrwt>0</asrwt>
<pdfrwt beam="1">  1        2 0.26327965E+00 0.84382331E+03</pdfrwt>
<pdfrwt beam="2">  1       -2 0.71491494E-01 0.84382331E+03</pdfrwt>
<totfact> 0.17436121E+01</totfact>
</mgrwt>
</event>
<event>
 4    1  0.5410820E-008  0.2186174E+03  0.7818608E-02  0.1134918E+00
         -2   -1    0    0    0  501 -0.00000000000E+00  0.00000000000E+00  0.21148262308E+03  0.21148262310E+03  0.25500000000E-02 0.  1.
          2   -1    0    0  501    0  0.00000000000E+00 -0.00000000000E+00 -0.12650877227E+04  0.12650877227E+04  0.25500000000E-02 0. -1.
    8880022    1    1    2    0    0 -0.13562604036E+03  0.77507980264E+02 -0.11959031583E+04  0.12157211550E+04  0.15294330000E+03 0.  0.
    8880022    1    1    2    0    0  0.13562604036E+03 -0.77507980264E+02  0.14229805863E+03  0.26084919078E+03  0.15294330000E+03 0.  1.
<mgrwt>
<rscale>  0 0.21861739E+03</rscale>
<asrwt>0</asrwt>
<pdfrwt beam="1">  1        2 0.19462888E+00 0.21861739E+03</pdfrwt>
<pdfrwt beam="2">  1       -2 0.32535789E-01 0.21861739E+03</pdfrwt>
<totfact> 0.16518379E+02</totfact>
</mgrwt>
</event>
<event>
 4    1  0.5410820E-008  0.9195950E+03  0.7818608E-02  0.9401413E-01
         -2   -1    0    0    0  501 -0.00000000000E+00  0.00000000000E+00  0.46224262949E+03  0.46224262950E+03  0.25500000000E-02 0.  1.
          2   -1    0    0  501    0  0.00000000000E+00 -0.00000000000E+00 -0.28512505828E+04  0.28512505828E+04  0.25500000000E-02 0. -1.
    8880022    1    1    2    0    0 -0.89620274749E+03 -0.13814436116E+03 -0.21862926010E+04  0.23718200226E+04  0.15294330000E+03 0.  0.
    8880022    1    1    2    0    0  0.89620274749E+03  0.13814436116E+03 -0.20271535223E+03  0.94167318969E+03  0.15294330000E+03 0.  0.
<mgrwt>
<rscale>  0 0.91959496E+03</rscale>
<asrwt>0</asrwt>
<pdfrwt beam="1">  1        2 0.43865393E+00 0.91959496E+03</pdfrwt>
<pdfrwt beam="2">  1       -2 0.71114252E-01 0.91959496E+03</pdfrwt>
<totfact> 0.39834335E+00</totfact>
</mgrwt>
</event>
<event>
 4    1  0.5410820E-008  0.7748177E+03  0.7818608E-02  0.9597200E-01
         -2   -1    0    0    0  501 -0.00000000000E+00  0.00000000000E+00  0.98837025349E+03  0.98837025350E+03  0.25500000000E-02 0.  1.
          2   -1    0    0  501    0  0.00000000000E+00 -0.00000000000E+00 -0.25900092689E+04  0.25900092689E+04  0.25500000000E-02 0. -1.
    8880022    1    1    2    0    0  0.73176761530E+03 -0.20363448068E+03 -0.23662132787E+04  0.24898409142E+04  0.15294330000E+03 0.  0.
    8880022    1    1    2    0    0 -0.73176761530E+03  0.20363448068E+03  0.76457426329E+03  0.10885386082E+04  0.15294330000E+03 0.  0.
<mgrwt>
<rscale>  0 0.77481772E+03</rscale>
<asrwt>0</asrwt>
<pdfrwt beam="1">  1        2 0.39846296E+00 0.77481772E+03</pdfrwt>
<pdfrwt beam="2">  1       -2 0.15205696E+00 0.77481772E+03</pdfrwt>
<totfact> 0.93582538E-01</totfact>
</mgrwt>
</event>
<event>
 4    1  0.5410820E-008  0.5248697E+03  0.7818608E-02  0.1007484E+00
         -2   -1    0    0    0  501 -0.00000000000E+00  0.00000000000E+00  0.12427811926E+03  0.12427811929E+03  0.25500000000E-02 0.  1.
          2   -1    0    0  501    0  0.00000000000E+00 -0.00000000000E+00 -0.26989976616E+04  0.26989976616E+04  0.25500000000E-02 0. -1.
    8880022    1    1    2    0    0  0.18668609463E+03  0.46609533297E+03 -0.69063185131E+03  0.86744484805E+03  0.15294330000E+03 0.  0.
    8880022    1    1    2    0    0 -0.18668609463E+03 -0.46609533297E+03 -0.18840876910E+04  0.19558309328E+04  0.15294330000E+03 0.  0.
<mgrwt>
<rscale>  0 0.52486971E+03</rscale>
<asrwt>0</asrwt>
<pdfrwt beam="1">  1        2 0.41523036E+00 0.52486971E+03</pdfrwt>
<pdfrwt beam="2">  1       -2 0.19119713E-01 0.52486971E+03</pdfrwt>
<totfact> 0.66504088E+01</totfact>
</mgrwt>
</event>
<event>
 4    1  0.7516867E-008  0.5572444E+03  0.7818608E-02  0.9998309E-01
          2   -1    0    0  501    0  0.00000000000E+00  0.00000000000E+00  0.24943088404E+04  0.24943088404E+04  0.25500000000E-02 0. -1.
         -2   -1    0    0    0  501 -0.00000000000E+00 -0.00000000000E+00 -0.95398812707E+03  0.95398812708E+03  0.25500000000E-02 0.  1.
    8880022    1    1    2    0    0  0.17481276606E+03 -0.50652751617E+03  0.23778802427E+04  0.24423013183E+04  0.15294330000E+03 0.  0.
    8880022    1    1    2    0    0 -0.17481276606E+03  0.50652751617E+03 -0.83755952939E+03  0.10059956491E+04  0.15294330000E+03 0.  1.
<mgrwt>
<rscale>  0 0.55724436E+03</rscale>
<asrwt>0</asrwt>
<pdfrwt beam="1">  1        2 0.38373982E+00 0.55724436E+03</pdfrwt>
<pdfrwt beam="2">  1       -2 0.14676741E+00 0.55724436E+03</pdfrwt>
<totfact> 0.12278919E+00</totfact>
</mgrwt>
</event>
<event>
 4    1  0.5410820E-008  0.1758874E+03  0.7818608E-02  0.1171844E+00
         -2   -1    0    0    0  501 -0.00000000000E+00  0.00000000000E+00  0.84531202228E+02  0.84531202267E+02  0.25500000000E-02 0.  1.
          2   -1    0    0  501    0  0.00000000000E+00 -0.00000000000E+00 -0.13823102085E+04  0.13823102085E+04  0.25500000000E-02 0. -1.
    8880022    1    1    2    0    0 -0.83107875171E+02  0.25254631893E+02 -0.20008119874E+02  0.17702173094E+03  0.15294330000E+03 0.  1.
    8880022    1    1    2    0    0  0.83107875171E+02 -0.25254631893E+02 -0.12777708864E+04  0.12898196799E+04  0.15294330000E+03 0.  0.
<mgrwt>
<rscale>  0 0.17588737E+03</rscale>
<asrwt>0</asrwt>
<pdfrwt beam="1">  1        2 0.21266309E+00 0.17588737E+03</pdfrwt>
<pdfrwt beam="2">  1       -2 0.13004801E-01 0.17588737E+03</pdfrwt>
<totfact> 0.69485138E+02</totfact>
</mgrwt>
</event>
<event>
 4    1  0.5410820E-008  0.2250798E+03  0.7818608E-02  0.1130152E+00
         -2   -1    0    0    0  501 -0.00000000000E+00  0.00000000000E+00  0.76293704576E+03  0.76293704577E+03  0.25500000000E-02 0.  1.
          2   -1    0    0  501    0  0.00000000000E+00 -0.00000000000E+00 -0.37871810417E+03  0.37871810418E+03  0.25500000000E-02 0. -1.
    8880022    1    1    2    0    0 -0.52450462186E+02  0.15658293045E+03  0.71048412790E+03  0.74528425054E+03  0.15294330000E+03 0.  0.
    8880022    1    1    2    0    0  0.52450462186E+02 -0.15658293045E+03 -0.32626518630E+03  0.39637089941E+03  0.15294330000E+03 0. -1.
<mgrwt>
<rscale>  0 0.22507980E+03</rscale>
<asrwt>0</asrwt>
<pdfrwt beam="1">  1        2 0.58264325E-01 0.22507980E+03</pdfrwt>
<pdfrwt beam="2">  1       -2 0.11737493E+00 0.22507980E+03</pdfrwt>
<totfact> 0.50622345E+01</totfact>
</mgrwt>
</event>
<event>
 4    1  0.5410820E-008  0.3022306E+03  0.7818608E-02  0.1084131E+00
         -2   -1    0    0    0  501 -0.00000000000E+00  0.00000000000E+00  0.11325115678E+04  0.11325115678E+04  0.25500000000E-02 0.  1.
          2   -1    0    0  501    0  0.00000000000E+00 -0.00000000000E+00 -0.26869717741E+03  0.26869717743E+03  0.25500000000E-02 0. -1.
    8880022    1    1    2    0    0  0.89136608928E+02  0.24496199028E+03 -0.15418814722E+03  0.33928947743E+03  0.15294330000E+03 0.  0.
    8880022    1    1    2    0    0 -0.89136608928E+02 -0.24496199028E+03  0.10180025376E+04  0.10619192678E+04  0.15294330000E+03 0.  0.
<mgrwt>
<rscale>  0 0.30223065E+03</rscale>
<asrwt>0</asrwt>
<pdfrwt beam="1">  1        2 0.41338027E-01 0.30223065E+03</pdfrwt>
<pdfrwt beam="2">  1       -2 0.17423255E+00 0.30223065E+03</pdfrwt>
<totfact> 0.26315967E+01</totfact>
</mgrwt>
</event>
<event>
 4    1  0.5410820E-008  0.1186345E+04  0.7818608E-02  0.9124893E-01
          2   -1    0    0  501    0  0.00000000000E+00  0.00000000000E+00  0.29456804705E+04  0.29456804705E+04  0.25500000000E-02 0. -1.
         -2   -1    0    0    0  501 -0.00000000000E+00 -0.00000000000E+00 -0.74023588045E+03  0.74023588045E+03  0.25500000000E-02 0.  1.
    8880022    1    1    2    0    0 -0.11760853882E+04 -0.29083252722E+02  0.53576817093E+01  0.11863570431E+04  0.15294330000E+03 0.  0.
    8880022    1    1    2    0    0  0.11760853882E+04  0.29083252722E+02  0.22000869083E+04  0.24995593078E+04  0.15294330000E+03 0.  0.
<mgrwt>
<rscale>  0 0.11863449E+04</rscale>
<asrwt>0</asrwt>
<pdfrwt beam="1">  1        2 0.45318162E+00 0.11863449E+04</pdfrwt>
<pdfrwt beam="2">  1       -2 0.11388244E+00 0.11863449E+04</pdfrwt>
<totfact> 0.11249930E+00</totfact>
</mgrwt>
</event>
<event>
 4    1  0.5410820E-008  0.2828626E+03  0.7818608E-02  0.1094136E+00
          2   -1    0    0  501    0  0.00000000000E+00  0.00000000000E+00  0.37601417237E+03  0.37601417238E+03  0.25500000000E-02 0. -1.
         -2   -1    0    0    0  501 -0.00000000000E+00 -0.00000000000E+00 -0.45674952890E+03  0.45674952890E+03  0.25500000000E-02 0.  1.
    8880022    1    1    2    0    0  0.23588006129E+03  0.31307952900E+02 -0.34467580530E+03  0.44588412733E+03  0.15294330000E+03 0.  0.
    8880022    1    1    2    0    0 -0.23588006129E+03 -0.31307952900E+02  0.26394044878E+03  0.38687957396E+03  0.15294330000E+03 0.  0.
<mgrwt>
<rscale>  0 0.28286259E+03</rscale>
<asrwt>0</asrwt>
<pdfrwt beam="1">  1        2 0.57848334E-01 0.28286259E+03</pdfrwt>
<pdfrwt beam="2">  1       -2 0.70269158E-01 0.28286259E+03</pdfrwt>
<totfact> 0.16288442E+02</totfact>
</mgrwt>
</event>
<event>
 4    1  0.5410820E-008  0.3307187E+03  0.7818608E-02  0.1070819E+00
         -2   -1    0    0    0  501 -0.00000000000E+00  0.00000000000E+00  0.62163352376E+02  0.62163352428E+02  0.25500000000E-02 0.  1.
          2   -1    0    0  501    0  0.00000000000E+00 -0.00000000000E+00 -0.33527677266E+04  0.33527677266E+04  0.25500000000E-02 0. -1.
    8880022    1    1    2    0    0 -0.20346299504E+03 -0.21115393781E+03 -0.46824360368E+03  0.57325988976E+03  0.15294330000E+03 0.  0.
    8880022    1    1    2    0    0  0.20346299504E+03  0.21115393781E+03 -0.28223607705E+04  0.28416711893E+04  0.15294330000E+03 0.  0.
<mgrwt>
<rscale>  0 0.33071866E+03</rscale>
<asrwt>0</asrwt>
<pdfrwt beam="1">  1        2 0.51581028E+00 0.33071866E+03</pdfrwt>
<pdfrwt beam="2">  1       -2 0.95635953E-02 0.33071866E+03</pdfrwt>
<totfact> 0.88395300E+01</totfact>
</mgrwt>
</event>
<event>
 4    1  0.5410820E-008  0.8832139E+03  0.7818608E-02  0.9446812E-01
          2   -1    0    0  501    0  0.00000000000E+00  0.00000000000E+00  0.28373956316E+04  0.28373956316E+04  0.25500000000E-02 0. -1.
         -2   -1    0    0    0  501 -0.00000000000E+00 -0.00000000000E+00 -0.45960556418E+03  0.45960556419E+03  0.25500000000E-02 0.  1.
    8880022    1    1    2    0    0 -0.15442471554E+03  0.85605380812E+03  0.22338770526E+04  0.24021393495E+04  0.15294330000E+03 0.  0.
    8880022    1    1    2    0    0  0.15442471554E+03 -0.85605380812E+03  0.14391301483E+03  0.89486184633E+03  0.15294330000E+03 0.  0.
<mgrwt>
<rscale>  0 0.88321389E+03</rscale>
<asrwt>0</asrwt>
<pdfrwt beam="1">  1        2 0.43652239E+00 0.88321389E+03</pdfrwt>
<pdfrwt beam="2">  1       -2 0.70708551E-01 0.88321389E+03</pdfrwt>
<totfact> 0.41351036E+00</totfact>
</mgrwt>
</event>
<event>
 4    1  0.5410820E-008  0.2206913E+03  0.7818608E-02  0.1133369E+00
         -2   -1    0    0    0  501 -0.00000000000E+00  0.00000000000E+00  0.23724752862E+03  0.23724752864E+03  0.25500000000E-02 0.  1.
          2   -1    0    0  501    0  0.00000000000E+00 -0.00000000000E+00 -0.10026590276E+04  0.10026590276E+04  0.25500000000E-02 0. -1.
    8880022    1    1    2    0    0 -0.10581798618E+02 -0.15874833966E+03  0.17015005367E+03  0.27866772972E+03  0.15294330000E+03 0.  1.
    8880022    1    1    2    0    0  0.10581798618E+02  0.15874833966E+03 -0.93556155260E+03  0.96123882648E+03  0.15294330000E+03 0.  0.
<mgrwt>
<rscale>  0 0.22069133E+03</rscale>
<asrwt>0</asrwt>
<pdfrwt beam="1">  1        2 0.15425523E+00 0.22069133E+03</pdfrwt>
<pdfrwt beam="2">  1       -2 0.36499620E-01 0.22069133E+03</pdfrwt>
<totfact> 0.18917092E+02</totfact>
</mgrwt>
</event>
<event>
 4    1  0.5410820E-008  0.9758153E+03  0.7818608E-02  0.9335475E-01
          2   -1    0    0  501    0  0.00000000000E+00  0.00000000000E+00  0.10257787273E+04  0.10257787273E+04  0.25500000000E-02 0. -1.
         -2   -1    0    0    0  501 -0.00000000000E+00 -0.00000000000E+00 -0.11531802529E+04  0.11531802529E+04  0.25500000000E-02 0.  1.
    8880022    1    1    2    0    0  0.56594376298E+02  0.96209196047E+03 -0.54482819957E+03  0.11176105242E+04  0.15294330000E+03 0.  0.
    8880022    1    1    2    0    0 -0.56594376298E+02 -0.96209196047E+03  0.41742667392E+03  0.10613484559E+04  0.15294330000E+03 0.  0.
<mgrwt>
<rscale>  0 0.97581531E+03</rscale>
<asrwt>0</asrwt>
<pdfrwt beam="1">  1        2 0.15781211E+00 0.97581531E+03</pdfrwt>
<pdfrwt beam="2">  1       -2 0.17741235E+00 0.97581531E+03</pdfrwt>
<totfact> 0.45543907E+00</totfact>
</mgrwt>
</event>
<event>
 4    1  0.5410820E-008  0.4228893E+03  0.7818608E-02  0.1036130E+00
         -2   -1    0    0    0  501 -0.00000000000E+00  0.00000000000E+00  0.13072078453E+04  0.13072078453E+04  0.25500000000E-02 0.  1.
          2   -1    0    0  501    0  0.00000000000E+00 -0.00000000000E+00 -0.22816303450E+03  0.22816303452E+03  0.25500000000E-02 0. -1.
    8880022    1    1    2    0    0  0.38964275413E+03  0.60184695003E+02  0.10252905396E+04  0.11090789047E+04  0.15294330000E+03 0.  0.
    8880022    1    1    2    0    0 -0.38964275413E+03 -0.60184695003E+02  0.53754271258E+02  0.42629197512E+03  0.15294330000E+03 0. -1.
<mgrwt>
<rscale>  0 0.42288926E+03</rscale>
<asrwt>0</asrwt>
<pdfrwt beam="1">  1        2 0.35102006E-01 0.42288926E+03</pdfrwt>
<pdfrwt beam="2">  1       -2 0.20110889E+00 0.42288926E+03</pdfrwt>
<totfact> 0.20525184E+01</totfact>
</mgrwt>
</event>
<event>
 4    1  0.5410820E-008  0.4438102E+03  0.7818608E-02  0.1029584E+00
          2   -1    0    0  501    0  0.00000000000E+00  0.00000000000E+00  0.14163824554E+04  0.14163824554E+04  0.25500000000E-02 0. -1.
         -2   -1    0    0    0  501 -0.00000000000E+00 -0.00000000000E+00 -0.24065924505E+03  0.24065924506E+03  0.25500000000E-02 0.  1.
    8880022    1    1    2    0    0  0.19097234176E+03 -0.37027749756E+03  0.49543104935E+02  0.44656694098E+03  0.15294330000E+03 0.  0.
    8880022    1    1    2    0    0 -0.19097234176E+03  0.37027749756E+03  0.11261801055E+04  0.12104747595E+04  0.15294330000E+03 0.  0.
<mgrwt>
<rscale>  0 0.44381022E+03</rscale>
<asrwt>0</asrwt>
<pdfrwt beam="1">  1        2 0.21790499E+00 0.44381022E+03</pdfrwt>
<pdfrwt beam="2">  1       -2 0.37024499E-01 0.44381022E+03</pdfrwt>
<totfact> 0.10252614E+02</totfact>
</mgrwt>
</event>
<event>
 4    1  0.5410820E-008  0.6350258E+03  0.7818608E-02  0.9835290E-01
          2   -1    0    0  501    0  0.00000000000E+00  0.00000000000E+00  0.19560494651E+04  0.19560494651E+04  0.25500000000E-02 0. -1.
         -2   -1    0    0    0  501 -0.00000000000E+00 -0.00000000000E+00 -0.32313336964E+03  0.32313336965E+03  0.25500000000E-02 0.  1.
    8880022    1    1    2    0    0  0.33832301094E+03 -0.51517342630E+03  0.13080710003E+03  0.64835813355E+03  0.15294330000E+03 0.  0.
    8880022    1    1    2    0    0 -0.33832301094E+03  0.51517342630E+03  0.15021089954E+04  0.16308247012E+04  0.15294330000E+03 0.  0.
<mgrwt>
<rscale>  0 0.63502580E+03</rscale>
<asrwt>0</asrwt>
<pdfrwt beam="1">  1        2 0.30093069E+00 0.63502580E+03</pdfrwt>
<pdfrwt beam="2">  1       -2 0.49712826E-01 0.63502580E+03</pdfrwt>
<totfact> 0.28388591E+01</totfact>
</mgrwt>
</event>
<event>
 4    1  0.5410820E-008  0.6609167E+03  0.7818608E-02  0.9786508E-01
          2   -1    0    0  501    0  0.00000000000E+00  0.00000000000E+00  0.13278072721E+04  0.13278072721E+04  0.25500000000E-02 0. -1.
         -2   -1    0    0    0  501 -0.00000000000E+00 -0.00000000000E+00 -0.55318741907E+03  0.55318741907E+03  0.25500000000E-02 0.  1.
    8880022    1    1    2    0    0  0.54011518100E+03 -0.34884794421E+03 -0.21145244929E+03  0.69391864671E+03  0.15294330000E+03 0.  0.
    8880022    1    1    2    0    0 -0.54011518100E+03  0.34884794421E+03  0.98607230235E+03  0.11870760445E+04  0.15294330000E+03 0. -1.
<mgrwt>
<rscale>  0 0.66091675E+03</rscale>
<asrwt>0</asrwt>
<pdfrwt beam="1">  1        2 0.20427804E+00 0.66091675E+03</pdfrwt>
<pdfrwt beam="2">  1       -2 0.85105757E-01 0.66091675E+03</pdfrwt>
<totfact> 0.19757054E+01</totfact>
</mgrwt>
</event>
<event>
 4    1  0.5410820E-008  0.6634527E+03  0.7818608E-02  0.9781859E-01
          2   -1    0    0  501    0  0.00000000000E+00  0.00000000000E+00  0.31020269878E+04  0.31020269878E+04  0.25500000000E-02 0. -1.
         -2   -1    0    0    0  501 -0.00000000000E+00 -0.00000000000E+00 -0.20537588603E+03  0.20537588605E+03  0.25500000000E-02 0.  1.
    8880022    1    1    2    0    0  0.44579878472E+03 -0.46694887673E+03  0.52894402951E+03  0.84849941032E+03  0.15294330000E+03 0.  0.
    8880022    1    1    2    0    0 -0.44579878472E+03  0.46694887673E+03  0.23677070723E+04  0.24589034635E+04  0.15294330000E+03 0.  0.
<mgrwt>
<rscale>  0 0.66345268E+03</rscale>
<asrwt>0</asrwt>
<pdfrwt beam="1">  1        2 0.47723489E+00 0.66345268E+03</pdfrwt>
<pdfrwt beam="2">  1       -2 0.31596292E-01 0.66345268E+03</pdfrwt>
<totfact> 0.15091994E+01</totfact>
</mgrwt>
</event>
<event>
 4    1  0.5410820E-008  0.5225696E+03  0.7818608E-02  0.1008050E+00
          2   -1    0    0  501    0  0.00000000000E+00  0.00000000000E+00  0.34544443045E+03  0.34544443046E+03  0.25500000000E-02 0. -1.
         -2   -1    0    0    0  501 -0.00000000000E+00 -0.00000000000E+00 -0.98960130514E+03  0.98960130515E+03  0.25500000000E-02 0.  1.
    8880022    1    1    2    0    0  0.46503483000E+03 -0.18283852188E+03 -0.22674977155E+02  0.52306130214E+03  0.15294330000E+03 0.  0.
    8880022    1    1    2    0    0 -0.46503483000E+03  0.18283852188E+03 -0.62148189754E+03  0.81198443346E+03  0.15294330000E+03 0.  0.
<mgrwt>
<rscale>  0 0.52256959E+03</rscale>
<asrwt>0</asrwt>
<pdfrwt beam="1">  1        2 0.53145298E-01 0.52256959E+03</pdfrwt>
<pdfrwt beam="2">  1       -2 0.15224635E+00 0.52256959E+03</pdfrwt>
<totfact> 0.27898119E+01</totfact>
</mgrwt>
</event>
<event>
 4    1  0.5410820E-008  0.4032762E+03  0.7818608E-02  0.1042651E+00
         -2   -1    0    0    0  501 -0.00000000000E+00  0.00000000000E+00  0.48067765508E+03  0.48067765509E+03  0.25500000000E-02 0.  1.
          2   -1    0    0  501    0  0.00000000000E+00 -0.00000000000E+00 -0.55279995928E+03  0.55279995928E+03  0.25500000000E-02 0. -1.
    8880022    1    1    2    0    0  0.55797588294E+01 -0.37310713117E+03 -0.35791728372E+03  0.53919987021E+03  0.15294330000E+03 0.  0.
    8880022    1    1    2    0    0 -0.55797588294E+01  0.37310713117E+03  0.28579497953E+03  0.49427774416E+03  0.15294330000E+03 0.  0.
<mgrwt>
<rscale>  0 0.40327623E+03</rscale>
<asrwt>0</asrwt>
<pdfrwt beam="1">  1        2 0.85046148E-01 0.40327623E+03</pdfrwt>
<pdfrwt beam="2">  1       -2 0.73950408E-01 0.40327623E+03</pdfrwt>
<totfact> 0.93588117E+01</totfact>
</mgrwt>
</event>
<event>
 4    1  0.5410820E-008  0.5587860E+03  0.7818608E-02  0.9994805E-01
         -2   -1    0    0    0  501 -0.00000000000E+00  0.00000000000E+00  0.38050984612E+03  0.38050984612E+03  0.25500000000E-02 0.  1.
          2   -1    0    0  501    0  0.00000000000E+00 -0.00000000000E+00 -0.11967421121E+04  0.11967421121E+04  0.25500000000E-02 0. -1.
    8880022    1    1    2    0    0 -0.11525538280E+03  0.52494410254E+03 -0.85024998742E+03  0.10174314759E+04  0.15294330000E+03 0.  0.
    8880022    1    1    2    0    0  0.11525538280E+03 -0.52494410254E+03  0.34017721412E+02  0.55982048234E+03  0.15294330000E+03 0.  0.
<mgrwt>
<rscale>  0 0.55878598E+03</rscale>
<asrwt>0</asrwt>
<pdfrwt beam="1">  1        2 0.18411417E+00 0.55878598E+03</pdfrwt>
<pdfrwt beam="2">  1       -2 0.58539977E-01 0.55878598E+03</pdfrwt>
<totfact> 0.53914868E+01</totfact>
</mgrwt>
</event>
<event>
 4    1  0.5410820E-008  0.9248515E+03  0.7818608E-02  0.9395038E-01
         -2   -1    0    0    0  501 -0.00000000000E+00  0.00000000000E+00  0.52082316820E+03  0.52082316821E+03  0.25500000000E-02 0.  1.
          2   -1    0    0  501    0  0.00000000000E+00 -0.00000000000E+00 -0.19374394183E+04  0.19374394183E+04  0.25500000000E-02 0. -1.
    8880022    1    1    2    0    0 -0.45478795890E+03  0.79064943100E+03 -0.22858079088E+03  0.95268013587E+03  0.15294330000E+03 0.  0.
    8880022    1    1    2    0    0  0.45478795890E+03 -0.79064943100E+03 -0.11880354592E+04  0.15055824506E+04  0.15294330000E+03 0.  0.
<mgrwt>
<rscale>  0 0.92485148E+03</rscale>
<asrwt>0</asrwt>
<pdfrwt beam="1">  1        2 0.29806760E+00 0.92485148E+03</pdfrwt>
<pdfrwt beam="2">  1       -2 0.80126643E-01 0.92485148E+03</pdfrwt>
<totfact> 0.10070165E+01</totfact>
</mgrwt>
</event>
<event>
 4    1  0.5410820E-008  0.7047410E+03  0.7818608E-02  0.9709159E-01
          2   -1    0    0  501    0  0.00000000000E+00  0.00000000000E+00  0.11143386243E+04  0.11143386243E+04  0.25500000000E-02 0. -1.
         -2   -1    0    0    0  501 -0.00000000000E+00 -0.00000000000E+00 -0.62184841197E+03  0.62184841197E+03  0.25500000000E-02 0.  1.
    8880022    1    1    2    0    0  0.68768182183E+03  0.19025977811E+02  0.70826906314E+03  0.99915213793E+03  0.15294330000E+03 0.  0.
    8880022    1    1    2    0    0 -0.68768182183E+03 -0.19025977811E+02 -0.21577885081E+03  0.73703489834E+03  0.15294330000E+03 0.  0.
<mgrwt>
<rscale>  0 0.70474104E+03</rscale>
<asrwt>0</asrwt>
<pdfrwt beam="1">  1        2 0.17143671E+00 0.70474104E+03</pdfrwt>
<pdfrwt beam="2">  1       -2 0.95668986E-01 0.70474104E+03</pdfrwt>
<totfact> 0.20024030E+01</totfact>
</mgrwt>
</event>
<event>
 4    1  0.5410820E-008  0.3170767E+03  0.7818608E-02  0.1077003E+00
          2   -1    0    0  501    0  0.00000000000E+00  0.00000000000E+00  0.29928918248E+04  0.29928918248E+04  0.25500000000E-02 0. -1.
         -2   -1    0    0    0  501 -0.00000000000E+00 -0.00000000000E+00 -0.30608216242E+03  0.30608216243E+03  0.25500000000E-02 0.  1.
    8880022    1    1    2    0    0 -0.25841236939E+03 -0.10182850346E+03  0.28997473594E+04  0.29170314359E+04  0.15294330000E+03 0.  0.
    8880022    1    1    2    0    0  0.25841236939E+03  0.10182850346E+03 -0.21293769694E+03  0.38194255139E+03  0.15294330000E+03 0.  0.
<mgrwt>
<rscale>  0 0.31707673E+03</rscale>
<asrwt>0</asrwt>
<pdfrwt beam="1">  1        2 0.46044491E+00 0.31707673E+03</pdfrwt>
<pdfrwt beam="2">  1       -2 0.47089562E-01 0.31707673E+03</pdfrwt>
<totfact> 0.90390364E+00</totfact>
</mgrwt>
</event>
<event>
 4    1  0.5410820E-008  0.2643302E+03  0.7818608E-02  0.1104569E+00
          2   -1    0    0  501    0  0.00000000000E+00  0.00000000000E+00  0.19841326960E+03  0.19841326961E+03  0.25500000000E-02 0. -1.
         -2   -1    0    0    0  501 -0.00000000000E+00 -0.00000000000E+00 -0.40408163717E+03  0.40408163717E+03  0.25500000000E-02 0.  1.
    8880022    1    1    2    0    0 -0.21491430164E+03 -0.17048363352E+02  0.51651781623E+01  0.26438066461E+03  0.15294330000E+03 0. -1.
    8880022    1    1    2    0    0  0.21491430164E+03  0.17048363352E+02 -0.21083354573E+03  0.33811424217E+03  0.15294330000E+03 0.  1.
<mgrwt>
<rscale>  0 0.26433020E+03</rscale>
<asrwt>0</asrwt>
<pdfrwt beam="1">  1        2 0.30525119E-01 0.26433020E+03</pdfrwt>
<pdfrwt beam="2">  1       -2 0.62166405E-01 0.26433020E+03</pdfrwt>
<totfact> 0.42400120E+02</totfact>
</mgrwt>
</event>
<event>
 4    1  0.5410820E-008  0.6446830E+03  0.7818608E-02  0.9816808E-01
          2   -1    0    0  501    0  0.00000000000E+00  0.00000000000E+00  0.23762721588E+04  0.23762721588E+04  0.25500000000E-02 0. -1.
         -2   -1    0    0    0  501 -0.00000000000E+00 -0.00000000000E+00 -0.17993313477E+03  0.17993313479E+03  0.25500000000E-02 0.  1.
    8880022    1    1    2    0    0  0.61941129570E+03 -0.92488527609E+02  0.13118761709E+04  0.14617233739E+04  0.15294330000E+03 0.  0.
    8880022    1    1    2    0    0 -0.61941129570E+03  0.92488527609E+02  0.88446285308E+03  0.10944819197E+04  0.15294330000E+03 0.  0.
<mgrwt>
<rscale>  0 0.64468297E+03</rscale>
<asrwt>0</asrwt>
<pdfrwt beam="1">  1        2 0.36558035E+00 0.64468297E+03</pdfrwt>
<pdfrwt beam="2">  1       -2 0.27682020E-01 0.64468297E+03</pdfrwt>
<totfact> 0.51402802E+01</totfact>
</mgrwt>
</event>
<event>
 4    1  0.5410820E-008  0.4810536E+03  0.7818608E-02  0.1018846E+00
          2   -1    0    0  501    0  0.00000000000E+00  0.00000000000E+00  0.12329285168E+04  0.12329285168E+04  0.25500000000E-02 0. -1.
         -2   -1    0    0    0  501 -0.00000000000E+00 -0.00000000000E+00 -0.49786376120E+03  0.49786376120E+03  0.25500000000E-02 0.  1.
    8880022    1    1    2    0    0  0.39920798034E+03  0.22057639626E+03 -0.31552911961E+03  0.57530099643E+03  0.15294330000E+03 0.  0.
    8880022    1    1    2    0    0 -0.39920798034E+03 -0.22057639626E+03  0.10505938753E+04  0.11554912816E+04  0.15294330000E+03 0.  0.
<mgrwt>
<rscale>  0 0.48105365E+03</rscale>
<asrwt>0</asrwt>
<pdfrwt beam="1">  1        2 0.18968131E+00 0.48105365E+03</pdfrwt>
<pdfrwt beam="2">  1       -2 0.76594425E-01 0.48105365E+03</pdfrwt>
<totfact> 0.29136331E+01</totfact>
</mgrwt>
</event>
<event>
 4    1  0.5410820E-008  0.3678288E+03  0.7818608E-02  0.1055526E+00
          2   -1    0    0  501    0  0.00000000000E+00  0.00000000000E+00  0.18714066956E+04  0.18714066956E+04  0.25500000000E-02 0. -1.
         -2   -1    0    0    0  501 -0.00000000000E+00 -0.00000000000E+00 -0.12938197980E+03  0.12938197982E+03  0.25500000000E-02 0.  1.
    8880022    1    1    2    0    0 -0.33336215235E+03  0.27857205251E+02  0.20651478114E+03  0.42183688358E+03  0.15294330000E+03 0.  0.
    8880022    1    1    2    0    0  0.33336215235E+03 -0.27857205251E+02  0.15355099347E+04  0.15789517919E+04  0.15294330000E+03 0.  0.
<mgrwt>
<rscale>  0 0.36782877E+03</rscale>
<asrwt>0</asrwt>
<pdfrwt beam="1">  1        2 0.28790869E+00 0.36782877E+03</pdfrwt>
<pdfrwt beam="2">  1       -2 0.19904922E-01 0.36782877E+03</pdfrwt>
<totfact> 0.18155563E+02</totfact>
</mgrwt>
</event>
<event>
 4    1  0.5410820E-008  0.1968379E+03  0.7818608E-02  0.1152435E+00
          2   -1    0    0  501    0  0.00000000000E+00  0.00000000000E+00  0.76864124379E+03  0.76864124380E+03  0.25500000000E-02 0. -1.
         -2   -1    0    0    0  501 -0.00000000000E+00 -0.00000000000E+00 -0.34793826838E+03  0.34793826839E+03  0.25500000000E-02 0.  1.
    8880022    1    1    2    0    0 -0.38749101676E+02 -0.11769452699E+03  0.72661880347E+03  0.75280809848E+03  0.15294330000E+03 0. -1.
    8880022    1    1    2    0    0  0.38749101676E+02  0.11769452699E+03 -0.30591582806E+03  0.36377141371E+03  0.15294330000E+03 0.  0.
<mgrwt>
<rscale>  0 0.19683787E+03</rscale>
<asrwt>0</asrwt>
<pdfrwt beam="1">  1        2 0.11825250E+00 0.19683787E+03</pdfrwt>
<pdfrwt beam="2">  1       -2 0.53528965E-01 0.19683787E+03</pdfrwt>
<totfact> 0.12807309E+02</totfact>
</mgrwt>
</event>
<event>
 4    1  0.5410820E-008  0.2209245E+03  0.7818608E-02  0.1133196E+00
         -2   -1    0    0    0  501 -0.00000000000E+00  0.00000000000E+00  0.39950945169E+02  0.39950945250E+02  0.25500000000E-02 0.  1.
          2   -1    0    0  501    0  0.00000000000E+00 -0.00000000000E+00 -0.26109488330E+04  0.26109488330E+04  0.25500000000E-02 0. -1.
    8880022    1    1    2    0    0 -0.68590679745E+02  0.14391423298E+03 -0.31865622457E+03  0.38774918475E+03  0.15294330000E+03 0.  1.
    8880022    1    1    2    0    0  0.68590679745E+02 -0.14391423298E+03 -0.22523416632E+04  0.22631505935E+04  0.15294330000E+03 0.  0.
<mgrwt>
<rscale>  0 0.22092451E+03</rscale>
<asrwt>0</asrwt>
<pdfrwt beam="1">  1        2 0.40168430E+00 0.22092451E+03</pdfrwt>
<pdfrwt beam="2">  1       -2 0.61463013E-02 0.22092451E+03</pdfrwt>
<totfact> 0.50290031E+02</totfact>
</mgrwt>
</event>
<event>
 4    1  0.5410820E-008  0.3583983E+03  0.7818608E-02  0.1059220E+00
          2   -1    0    0  501    0  0.00000000000E+00  0.00000000000E+00  0.20382964809E+04  0.20382964809E+04  0.25500000000E-02 0. -1.
         -2   -1    0    0    0  501 -0.00000000000E+00 -0.00000000000E+00 -0.13526858202E+03  0.13526858204E+03  0.25500000000E-02 0.  1.
    8880022    1    1    2    0    0 -0.18208238051E+03  0.26814869462E+03  0.17457779039E+04  0.17821868192E+04  0.15294330000E+03 0.  0.
    8880022    1    1    2    0    0  0.18208238051E+03 -0.26814869462E+03  0.15724999490E+03  0.39137824368E+03  0.15294330000E+03 0.  0.
<mgrwt>
<rscale>  0 0.35839834E+03</rscale>
<asrwt>0</asrwt>
<pdfrwt beam="1">  1        2 0.31358406E+00 0.35839834E+03</pdfrwt>
<pdfrwt beam="2">  1       -2 0.20810552E-01 0.35839834E+03</pdfrwt>
<totfact> 0.13727414E+02</totfact>
</mgrwt>
</event>
<event>
 4    1  0.5410820E-008  0.5707989E+03  0.7818608E-02  0.9967912E-01
         -2   -1    0    0    0  501 -0.00000000000E+00  0.00000000000E+00  0.34621682161E+03  0.34621682162E+03  0.25500000000E-02 0.  1.
          2   -1    0    0  501    0  0.00000000000E+00 -0.00000000000E+00 -0.11890107330E+04  0.11890107330E+04  0.25500000000E-02 0. -1.
    8880022    1    1    2    0    0  0.53782312356E+03 -0.11474324715E+03 -0.70862175694E+02  0.57518068984E+03  0.15294330000E+03 0.  0.
    8880022    1    1    2    0    0 -0.53782312356E+03  0.11474324715E+03 -0.77193173571E+03  0.96004686480E+03  0.15294330000E+03 0.  0.
<mgrwt>
<rscale>  0 0.57079889E+03</rscale>
<asrwt>0</asrwt>
<pdfrwt beam="1">  1        2 0.18292473E+00 0.57079889E+03</pdfrwt>
<pdfrwt beam="2">  1       -2 0.53264127E-01 0.57079889E+03</pdfrwt>
<totfact> 0.66165968E+01</totfact>
</mgrwt>
</event>
<event>
 4    1  0.5410820E-008  0.5163744E+03  0.7818608E-02  0.1009591E+00
          2   -1    0    0  501    0  0.00000000000E+00  0.00000000000E+00  0.85829827284E+03  0.85829827284E+03  0.25500000000E-02 0. -1.
         -2   -1    0    0    0  501 -0.00000000000E+00 -0.00000000000E+00 -0.71281085537E+03  0.71281085538E+03  0.25500000000E-02 0.  1.
    8880022    1    1    2    0    0  0.32882947188E+03  0.36758946587E+03  0.66278372961E+03  0.84019328863E+03  0.15294330000E+03 0.  0.
    8880022    1    1    2    0    0 -0.32882947188E+03 -0.36758946587E+03 -0.51729631215E+03  0.73091583959E+03  0.15294330000E+03 0.  0.
<mgrwt>
<rscale>  0 0.51637437E+03</rscale>
<asrwt>0</asrwt>
<pdfrwt beam="1">  1        2 0.13204589E+00 0.51637437E+03</pdfrwt>
<pdfrwt beam="2">  1       -2 0.10966321E+00 0.51637437E+03</pdfrwt>
<totfact> 0.21631088E+01</totfact>
</mgrwt>
</event>
<event>
 4    1  0.5410820E-008  0.8614489E+03  0.7818608E-02  0.9475098E-01
          2   -1    0    0  501    0  0.00000000000E+00  0.00000000000E+00  0.21180052748E+04  0.21180052748E+04  0.25500000000E-02 0. -1.
         -2   -1    0    0    0  501 -0.00000000000E+00 -0.00000000000E+00 -0.84573663352E+03  0.84573663352E+03  0.25500000000E-02 0.  1.
    8880022    1    1    2    0    0  0.12659659573E+03  0.83825759312E+03 -0.49797364869E+03  0.99502356669E+03  0.15294330000E+03 0.  0.
    8880022    1    1    2    0    0 -0.12659659573E+03 -0.83825759312E+03  0.17702422899E+04  0.19687183416E+04  0.15294330000E+03 0.  0.
<mgrwt>
<rscale>  0 0.86144886E+03</rscale>
<asrwt>0</asrwt>
<pdfrwt beam="1">  1        2 0.32584697E+00 0.86144886E+03</pdfrwt>
<pdfrwt beam="2">  1       -2 0.13011333E+00 0.86144886E+03</pdfrwt>
<totfact> 0.25387496E+00</totfact>
</mgrwt>
</event>
<event>
 4    1  0.5410820E-008  0.3173235E+03  0.7818608E-02  0.1076888E+00
          2   -1    0    0  501    0  0.00000000000E+00  0.00000000000E+00  0.14428730789E+04  0.14428730789E+04  0.25500000000E-02 0. -1.
         -2   -1    0    0    0  501 -0.00000000000E+00 -0.00000000000E+00 -0.20558342819E+03  0.20558342821E+03  0.25500000000E-02 0.  1.
    8880022    1    1    2    0    0 -0.25352567839E+03 -0.11413705643E+03 -0.51235416403E+02  0.32143313172E+03  0.15294330000E+03 0.  0.
    8880022    1    1    2    0    0  0.25352567839E+03  0.11413705643E+03  0.12885250671E+04  0.13270233754E+04  0.15294330000E+03 0. -1.
<mgrwt>
<rscale>  0 0.31732348E+03</rscale>
<asrwt>0</asrwt>
<pdfrwt beam="1">  1        2 0.22198048E+00 0.31732348E+03</pdfrwt>
<pdfrwt beam="2">  1       -2 0.31628219E-01 0.31732348E+03</pdfrwt>
<totfact> 0.13610082E+02</totfact>
</mgrwt>
</event>
<event>
 4    1  0.5410820E-008  0.3348872E+03  0.7818608E-02  0.1068995E+00
          2   -1    0    0  501    0  0.00000000000E+00  0.00000000000E+00  0.14878992893E+04  0.14878992893E+04  0.25500000000E-02 0. -1.
         -2   -1    0    0    0  501 -0.00000000000E+00 -0.00000000000E+00 -0.13345085905E+03  0.13345085907E+03  0.25500000000E-02 0.  1.
    8880022    1    1    2    0    0  0.29322656133E+03  0.52687688779E+02  0.12120179790E+04  0.12574327191E+04  0.15294330000E+03 0.  0.
    8880022    1    1    2    0    0 -0.29322656133E+03 -0.52687688779E+02  0.14243045127E+03  0.36391742921E+03  0.15294330000E+03 0.  0.
<mgrwt>
<rscale>  0 0.33488724E+03</rscale>
<asrwt>0</asrwt>
<pdfrwt beam="1">  1        2 0.22890758E+00 0.33488724E+03</pdfrwt>
<pdfrwt beam="2">  1       -2 0.20530902E-01 0.33488724E+03</pdfrwt>
<totfact> 0.27736255E+02</totfact>
</mgrwt>
</event>
<event>
 4    1  0.5410820E-008  0.3773234E+03  0.7818608E-02  0.1051927E+00
          2   -1    0    0  501    0  0.00000000000E+00  0.00000000000E+00  0.12865294479E+04  0.12865294479E+04  0.25500000000E-02 0. -1.
         -2   -1    0    0    0  501 -0.00000000000E+00 -0.00000000000E+00 -0.72901990971E+03  0.72901990971E+03  0.25500000000E-02 0.  1.
    8880022    1    1    2    0    0  0.58237932090E+02  0.33998475388E+03  0.12068934726E+04  0.12645017979E+04  0.15294330000E+03 0. -1.
    8880022    1    1    2    0    0 -0.58237932090E+02 -0.33998475388E+03 -0.64938393444E+03  0.75104755970E+03  0.15294330000E+03 0.  0.
<mgrwt>
<rscale>  0 0.37732339E+03</rscale>
<asrwt>0</asrwt>
<pdfrwt beam="1">  1        2 0.19792761E+00 0.37732339E+03</pdfrwt>
<pdfrwt beam="2">  1       -2 0.11215691E+00 0.37732339E+03</pdfrwt>
<totfact> 0.11510953E+01</totfact>
</mgrwt>
</event>
<event>
 4    1  0.5410820E-008  0.4398094E+03  0.7818608E-02  0.1030805E+00
          2   -1    0    0  501    0  0.00000000000E+00  0.00000000000E+00  0.13908043307E+04  0.13908043307E+04  0.25500000000E-02 0. -1.
         -2   -1    0    0    0  501 -0.00000000000E+00 -0.00000000000E+00 -0.22992623462E+03  0.22992623463E+03  0.25500000000E-02 0.  1.
    8880022    1    1    2    0    0  0.53392580209E+02 -0.40888854743E+03  0.10898184820E+04  0.11752176771E+04  0.15294330000E+03 0.  0.
    8880022    1    1    2    0    0 -0.53392580209E+02  0.40888854743E+03  0.71059614124E+02  0.44551288827E+03  0.15294330000E+03 0.  0.
<mgrwt>
<rscale>  0 0.43980935E+03</rscale>
<asrwt>0</asrwt>
<pdfrwt beam="1">  1        2 0.21396989E+00 0.43980935E+03</pdfrwt>
<pdfrwt beam="2">  1       -2 0.35373267E-01 0.43980935E+03</pdfrwt>
<totfact> 0.11558302E+02</totfact>
</mgrwt>
</event>
<event>
 4    1  0.5410820E-008  0.8066452E+03  0.7818608E-02  0.9550448E-01
         -2   -1    0    0    0  501 -0.00000000000E+00  0.00000000000E+00  0.28110040782E+04  0.28110040782E+04  0.25500000000E-02 0.  1.
          2   -1    0    0  501    0  0.00000000000E+00 -0.00000000000E+00 -0.26453942715E+03  0.26453942717E+03  0.25500000000E-02 0. -1.
    8880022    1    1    2    0    0  0.25006982806E+03  0.75149839607E+03  0.18168942857E+04  0.19879087647E+04  0.15294330000E+03 0.  0.
    8880022    1    1    2    0    0 -0.25006982806E+03 -0.75149839607E+03  0.72957036536E+03  0.10876347407E+04  0.15294330000E+03 0. -1.
<mgrwt>
<rscale>  0 0.80664516E+03</rscale>
<asrwt>0</asrwt>
<pdfrwt beam="1">  1        2 0.40698374E-01 0.80664516E+03</pdfrwt>
<pdfrwt beam="2">  1       -2 0.43246216E+00 0.80664516E+03</pdfrwt>
<totfact> 0.60387848E-01</totfact>
</mgrwt>
</event>
<event>
 4    1  0.5410820E-008  0.4861327E+03  0.7818608E-02  0.1017463E+00
          2   -1    0    0  501    0  0.00000000000E+00  0.00000000000E+00  0.99052058279E+03  0.99052058279E+03  0.25500000000E-02 0. -1.
         -2   -1    0    0    0  501 -0.00000000000E+00 -0.00000000000E+00 -0.43580609842E+03  0.43580609843E+03  0.25500000000E-02 0.  1.
    8880022    1    1    2    0    0  0.30071293365E+03  0.35000731761E+03  0.75710965370E+03  0.89974444793E+03  0.15294330000E+03 0. -1.
    8880022    1    1    2    0    0 -0.30071293365E+03 -0.35000731761E+03 -0.20239516933E+03  0.52658223329E+03  0.15294330000E+03 0.  0.
<mgrwt>
<rscale>  0 0.48613274E+03</rscale>
<asrwt>0</asrwt>
<pdfrwt beam="1">  1        2 0.15238778E+00 0.48613274E+03</pdfrwt>
<pdfrwt beam="2">  1       -2 0.67047093E-01 0.48613274E+03</pdfrwt>
<totfact> 0.54443802E+01</totfact>
</mgrwt>
</event>
<event>
 4    1  0.5410820E-008  0.2782467E+03  0.7818608E-02  0.1096650E+00
          2   -1    0    0  501    0  0.00000000000E+00  0.00000000000E+00  0.28219278360E+04  0.28219278360E+04  0.25500000000E-02 0. -1.
         -2   -1    0    0    0  501 -0.00000000000E+00 -0.00000000000E+00 -0.17124976416E+03  0.17124976418E+03  0.25500000000E-02 0.  1.
    8880022    1    1    2    0    0 -0.48878850994E+02 -0.22724531633E+03 -0.46137430038E+02  0.28204590288E+03  0.15294330000E+03 0.  1.
    8880022    1    1    2    0    0  0.48878850994E+02  0.22724531633E+03  0.26968155019E+04  0.27111316973E+04  0.15294330000E+03 0.  0.
<mgrwt>
<rscale>  0 0.27824671E+03</rscale>
<asrwt>0</asrwt>
<pdfrwt beam="1">  1        2 0.43414272E+00 0.27824671E+03</pdfrwt>
<pdfrwt beam="2">  1       -2 0.26346119E-01 0.27824671E+03</pdfrwt>
<totfact> 0.34485266E+01</totfact>
</mgrwt>
</event>
<event>
 4    1  0.5410820E-008  0.4509965E+03  0.7818608E-02  0.1027425E+00
          2   -1    0    0  501    0  0.00000000000E+00  0.00000000000E+00  0.60101247179E+03  0.60101247179E+03  0.25500000000E-02 0. -1.
         -2   -1    0    0    0  501 -0.00000000000E+00 -0.00000000000E+00 -0.43897667158E+03  0.43897667159E+03  0.25500000000E-02 0.  1.
    8880022    1    1    2    0    0  0.69532207244E+02  0.41853494291E+03  0.32988752752E+03  0.55876977380E+03  0.15294330000E+03 0.  0.
    8880022    1    1    2    0    0 -0.69532207244E+02 -0.41853494291E+03 -0.16785172731E+03  0.48121936958E+03  0.15294330000E+03 0.  0.
<mgrwt>
<rscale>  0 0.45099654E+03</rscale>
<asrwt>0</asrwt>
<pdfrwt beam="1">  1        2 0.92463457E-01 0.45099654E+03</pdfrwt>
<pdfrwt beam="2">  1       -2 0.67534873E-01 0.45099654E+03</pdfrwt>
<totfact> 0.10281173E+02</totfact>
</mgrwt>
</event>
<event>
 4    1  0.5410820E-008  0.1543120E+03  0.7818608E-02  0.1195272E+00
          2   -1    0    0  501    0  0.00000000000E+00  0.00000000000E+00  0.59561601659E+03  0.59561601660E+03  0.25500000000E-02 0. -1.
         -2   -1    0    0    0  501 -0.00000000000E+00 -0.00000000000E+00 -0.83890427048E+02  0.83890427087E+02  0.25500000000E-02 0.  1.
    8880022    1    1    2    0    0  0.20187856972E+02  0.36050169838E+01  0.50167056590E+03  0.52486717884E+03  0.15294330000E+03 0.  1.
    8880022    1    1    2    0    0 -0.20187856972E+02 -0.36050169838E+01  0.10055023643E+02  0.15463926485E+03  0.15294330000E+03 0.  1.
<mgrwt>
<rscale>  0 0.15431202E+03</rscale>
<asrwt>0</asrwt>
<pdfrwt beam="1">  1        2 0.91633233E-01 0.15431202E+03</pdfrwt>
<pdfrwt beam="2">  1       -2 0.12906220E-01 0.15431202E+03</pdfrwt>
<totfact> 0.22018537E+03</totfact>
</mgrwt>
</event>
<event>
 4    1  0.5410820E-008  0.9223523E+03  0.7818608E-02  0.9398063E-01
         -2   -1    0    0    0  501 -0.00000000000E+00  0.00000000000E+00  0.61631825639E+03  0.61631825640E+03  0.25500000000E-02 0.  1.
          2   -1    0    0  501    0  0.00000000000E+00 -0.00000000000E+00 -0.17739609848E+04  0.17739609848E+04  0.25500000000E-02 0. -1.
    8880022    1    1    2    0    0  0.55834389744E+02  0.90786816557E+03 -0.15856537154E+02  0.92248857333E+03  0.15294330000E+03 0.  0.
    8880022    1    1    2    0    0 -0.55834389744E+02 -0.90786816557E+03 -0.11417861913E+04  0.14677906679E+04  0.15294330000E+03 0.  0.
<mgrwt>
<rscale>  0 0.92235229E+03</rscale>
<asrwt>0</asrwt>
<pdfrwt beam="1">  1        2 0.27291707E+00 0.92235229E+03</pdfrwt>
<pdfrwt beam="2">  1       -2 0.94818194E-01 0.92235229E+03</pdfrwt>
<totfact> 0.84112301E+00</totfact>
</mgrwt>
</event>
<event>
 4    1  0.5410820E-008  0.1080505E+04  0.7818608E-02  0.9224404E-01
          2   -1    0    0  501    0  0.00000000000E+00  0.00000000000E+00  0.14448212720E+04  0.14448212720E+04  0.25500000000E-02 0. -1.
         -2   -1    0    0    0  501 -0.00000000000E+00 -0.00000000000E+00 -0.96843164244E+03  0.96843164244E+03  0.25500000000E-02 0.  1.
    8880022    1    1    2    0    0  0.65841715632E+03  0.84296301200E+03 -0.25284001504E+03  0.11096934340E+04  0.15294330000E+03 0.  0.
    8880022    1    1    2    0    0 -0.65841715632E+03 -0.84296301200E+03  0.72922964457E+03  0.13035594804E+04  0.15294330000E+03 0.  0.
<mgrwt>
<rscale>  0 0.10805052E+04</rscale>
<asrwt>0</asrwt>
<pdfrwt beam="1">  1        2 0.22228020E+00 0.10805052E+04</pdfrwt>
<pdfrwt beam="2">  1       -2 0.14898948E+00 0.10805052E+04</pdfrwt>
<totfact> 0.40937129E+00</totfact>
</mgrwt>
</event>
<event>
 4    1  0.5410820E-008  0.7394360E+03  0.7818608E-02  0.9652071E-01
          2   -1    0    0  501    0  0.00000000000E+00  0.00000000000E+00  0.14130361763E+04  0.14130361764E+04  0.25500000000E-02 0. -1.
         -2   -1    0    0    0  501 -0.00000000000E+00 -0.00000000000E+00 -0.67316252036E+03  0.67316252037E+03  0.25500000000E-02 0.  1.
    8880022    1    1    2    0    0  0.59908382048E+03  0.40555209041E+03 -0.31022888402E+03  0.80187750654E+03  0.15294330000E+03 0.  0.
    8880022    1    1    2    0    0 -0.59908382048E+03 -0.40555209041E+03  0.10501025400E+04  0.12843211902E+04  0.15294330000E+03 0.  0.
<mgrwt>
<rscale>  0 0.73943598E+03</rscale>
<asrwt>0</asrwt>
<pdfrwt beam="1">  1        2 0.21739018E+00 0.73943598E+03</pdfrwt>
<pdfrwt beam="2">  1       -2 0.10356347E+00 0.73943598E+03</pdfrwt>
<totfact> 0.11071575E+01</totfact>
</mgrwt>
</event>
<event>
 4    1  0.5410820E-008  0.7105085E+03  0.7818608E-02  0.9699428E-01
          2   -1    0    0  501    0  0.00000000000E+00  0.00000000000E+00  0.17665569419E+04  0.17665569419E+04  0.25500000000E-02 0. -1.
         -2   -1    0    0    0  501 -0.00000000000E+00 -0.00000000000E+00 -0.72034702096E+03  0.72034702096E+03  0.25500000000E-02 0.  1.
    8880022    1    1    2    0    0 -0.56434521319E+03 -0.40366470835E+03 -0.44270879118E+03  0.83714601070E+03  0.15294330000E+03 0.  0.
    8880022    1    1    2    0    0  0.56434521319E+03  0.40366470835E+03  0.14889187121E+04  0.16497579521E+04  0.15294330000E+03 0.  0.
<mgrwt>
<rscale>  0 0.71050853E+03</rscale>
<asrwt>0</asrwt>
<pdfrwt beam="1">  1        2 0.27177799E+00 0.71050853E+03</pdfrwt>
<pdfrwt beam="2">  1       -2 0.11082262E+00 0.71050853E+03</pdfrwt>
<totfact> 0.60260829E+00</totfact>
</mgrwt>
</event>
<event>
 4    1  0.5410820E-008  0.2648126E+03  0.7818608E-02  0.1104286E+00
          2   -1    0    0  501    0  0.00000000000E+00  0.00000000000E+00  0.24027157665E+04  0.24027157665E+04  0.25500000000E-02 0. -1.
         -2   -1    0    0    0  501 -0.00000000000E+00 -0.00000000000E+00 -0.28335151421E+03  0.28335151422E+03  0.25500000000E-02 0.  1.
    8880022    1    1    2    0    0 -0.81537329928E+02  0.20021417761E+03 -0.21230412954E+03  0.33940941284E+03  0.15294330000E+03 0.  1.
    8880022    1    1    2    0    0  0.81537329928E+02 -0.20021417761E+03  0.23316683819E+04  0.23466578679E+04  0.15294330000E+03 0.  0.
<mgrwt>
<rscale>  0 0.26481259E+03</rscale>
<asrwt>0</asrwt>
<pdfrwt beam="1">  1        2 0.36964859E+00 0.26481259E+03</pdfrwt>
<pdfrwt beam="2">  1       -2 0.43592540E-01 0.26481259E+03</pdfrwt>
<totfact> 0.23236352E+01</totfact>
</mgrwt>
</event>
<event>
 4    1  0.5410820E-008  0.9650654E+03  0.7818608E-02  0.9347713E-01
         -2   -1    0    0    0  501 -0.00000000000E+00  0.00000000000E+00  0.72891037040E+03  0.72891037040E+03  0.25500000000E-02 0.  1.
          2   -1    0    0  501    0  0.00000000000E+00 -0.00000000000E+00 -0.14886117470E+04  0.14886117470E+04  0.25500000000E-02 0. -1.
    8880022    1    1    2    0    0  0.56746463874E+03  0.76546948189E+03 -0.79716744321E+03  0.12517296950E+04  0.15294330000E+03 0.  0.
    8880022    1    1    2    0    0 -0.56746463874E+03 -0.76546948189E+03  0.37466066603E+02  0.96579242236E+03  0.15294330000E+03 0.  0.
<mgrwt>
<rscale>  0 0.96506544E+03</rscale>
<asrwt>0</asrwt>
<pdfrwt beam="1">  1        2 0.22901719E+00 0.96506544E+03</pdfrwt>
<pdfrwt beam="2">  1       -2 0.11214006E+00 0.96506544E+03</pdfrwt>
<totfact> 0.80629930E+00</totfact>
</mgrwt>
</event>
<event>
 4    1  0.5410820E-008  0.2373019E+03  0.7818608E-02  0.1121603E+00
         -2   -1    0    0    0  501 -0.00000000000E+00  0.00000000000E+00  0.34198522360E+02  0.34198522455E+02  0.25500000000E-02 0.  1.
          2   -1    0    0  501    0  0.00000000000E+00 -0.00000000000E+00 -0.25150521514E+04  0.25150521514E+04  0.25500000000E-02 0. -1.
    8880022    1    1    2    0    0  0.16692311469E+03  0.71114060689E+02 -0.19894157523E+04  0.20035187107E+04  0.15294330000E+03 0.  0.
    8880022    1    1    2    0    0 -0.16692311469E+03 -0.71114060689E+02 -0.49143787680E+03  0.54573196315E+03  0.15294330000E+03 0.  1.
<mgrwt>
<rscale>  0 0.23730189E+03</rscale>
<asrwt>0</asrwt>
<pdfrwt beam="1">  1        2 0.38693096E+00 0.23730189E+03</pdfrwt>
<pdfrwt beam="2">  1       -2 0.52613131E-02 0.23730189E+03</pdfrwt>
<totfact> 0.71750099E+02</totfact>
</mgrwt>
</event>
<event>
 4    1  0.5410820E-008  0.5151809E+03  0.7818608E-02  0.1009891E+00
          2   -1    0    0  501    0  0.00000000000E+00  0.00000000000E+00  0.18356313087E+04  0.18356313087E+04  0.25500000000E-02 0. -1.
         -2   -1    0    0    0  501 -0.00000000000E+00 -0.00000000000E+00 -0.56878528002E+03  0.56878528002E+03  0.25500000000E-02 0.  1.
    8880022    1    1    2    0    0  0.74985472360E+02 -0.48620658938E+03 -0.40479650407E+03  0.65518816484E+03  0.15294330000E+03 0.  0.
    8880022    1    1    2    0    0 -0.74985472360E+02  0.48620658938E+03  0.16716425327E+04  0.17492284239E+04  0.15294330000E+03 0.  0.
<mgrwt>
<rscale>  0 0.51518086E+03</rscale>
<asrwt>0</asrwt>
<pdfrwt beam="1">  1        2 0.28240482E+00 0.51518086E+03</pdfrwt>
<pdfrwt beam="2">  1       -2 0.87505428E-01 0.51518086E+03</pdfrwt>
<totfact> 0.99991674E+00</totfact>
</mgrwt>
</event>
<event>
 4    1  0.5410820E-008  0.8953026E+03  0.7818608E-02  0.9431473E-01
          2   -1    0    0  501    0  0.00000000000E+00  0.00000000000E+00  0.25244393572E+04  0.25244393572E+04  0.25500000000E-02 0. -1.
         -2   -1    0    0    0  501 -0.00000000000E+00 -0.00000000000E+00 -0.35881359488E+03  0.35881359488E+03  0.25500000000E-02 0.  1.
    8880022    1    1    2    0    0  0.67380720257E+03  0.56934960019E+03  0.15718541660E+04  0.18089478394E+04  0.15294330000E+03 0.  0.
    8880022    1    1    2    0    0 -0.67380720257E+03 -0.56934960019E+03  0.59377159625E+03  0.10743051126E+04  0.15294330000E+03 0.  0.
<mgrwt>
<rscale>  0 0.89530261E+03</rscale>
<asrwt>0</asrwt>
<pdfrwt beam="1">  1        2 0.38837527E+00 0.89530261E+03</pdfrwt>
<pdfrwt beam="2">  1       -2 0.55202093E-01 0.89530261E+03</pdfrwt>
<totfact> 0.10667921E+01</totfact>
</mgrwt>
</event>
<event>
 4    1  0.5410820E-008  0.4471470E+03  0.7818608E-02  0.1028576E+00
         -2   -1    0    0    0  501 -0.00000000000E+00  0.00000000000E+00  0.40879396529E+03  0.40879396530E+03  0.25500000000E-02 0.  1.
          2   -1    0    0  501    0  0.00000000000E+00 -0.00000000000E+00 -0.93159979949E+03  0.93159979950E+03  0.25500000000E-02 0. -1.
    8880022    1    1    2    0    0 -0.20955586942E+03  0.36419103572E+03  0.20049403075E+03  0.49003906200E+03  0.15294330000E+03 0.  0.
    8880022    1    1    2    0    0  0.20955586942E+03 -0.36419103572E+03 -0.72329986496E+03  0.85035470280E+03  0.15294330000E+03 0.  0.
<mgrwt>
<rscale>  0 0.44714698E+03</rscale>
<asrwt>0</asrwt>
<pdfrwt beam="1">  1        2 0.14332305E+00 0.44714698E+03</pdfrwt>
<pdfrwt beam="2">  1       -2 0.62891380E-01 0.44714698E+03</pdfrwt>
<totfact> 0.68413878E+01</totfact>
</mgrwt>
</event>
<event>
 4    1  0.5410820E-008  0.6213857E+03  0.7818608E-02  0.9862005E-01
          2   -1    0    0  501    0  0.00000000000E+00  0.00000000000E+00  0.29980549778E+03  0.29980549779E+03  0.25500000000E-02 0. -1.
         -2   -1    0    0    0  501 -0.00000000000E+00 -0.00000000000E+00 -0.13236875593E+04  0.13236875593E+04  0.25500000000E-02 0.  1.
    8880022    1    1    2    0    0 -0.23391760995E+03  0.55498747387E+03 -0.64540979320E+03  0.89592075463E+03  0.15294330000E+03 0.  0.
    8880022    1    1    2    0    0  0.23391760995E+03 -0.55498747387E+03 -0.37847226833E+03  0.72757230246E+03  0.15294330000E+03 0.  0.
<mgrwt>
<rscale>  0 0.62138571E+03</rscale>
<asrwt>0</asrwt>
<pdfrwt beam="1">  1        2 0.46123923E-01 0.62138571E+03</pdfrwt>
<pdfrwt beam="2">  1       -2 0.20364424E+00 0.62138571E+03</pdfrwt>
<totfact> 0.14265444E+01</totfact>
</mgrwt>
</event>
<event>
 4    1  0.5410820E-008  0.7561680E+03  0.7818608E-02  0.9625723E-01
          2   -1    0    0  501    0  0.00000000000E+00  0.00000000000E+00  0.13002458060E+04  0.13002458060E+04  0.25500000000E-02 0. -1.
         -2   -1    0    0    0  501 -0.00000000000E+00 -0.00000000000E+00 -0.10756152744E+04  0.10756152744E+04  0.25500000000E-02 0.  1.
    8880022    1    1    2    0    0 -0.14994577088E+03 -0.72519970564E+03 -0.80104750850E+03  0.11015748323E+04  0.15294330000E+03 0.  0.
    8880022    1    1    2    0    0  0.14994577088E+03  0.72519970564E+03  0.10256780401E+04  0.12742862481E+04  0.15294330000E+03 0.  0.
<mgrwt>
<rscale>  0 0.75616797E+03</rscale>
<asrwt>0</asrwt>
<pdfrwt beam="1">  1        2 0.20003781E+00 0.75616797E+03</pdfrwt>
<pdfrwt beam="2">  1       -2 0.16547927E+00 0.75616797E+03</pdfrwt>
<totfact> 0.38840904E+00</totfact>
</mgrwt>
</event>
<event>
 4    1  0.5410820E-008  0.4395398E+03  0.7818608E-02  0.1030888E+00
         -2   -1    0    0    0  501 -0.00000000000E+00  0.00000000000E+00  0.40660751611E+03  0.40660751612E+03  0.25500000000E-02 0.  1.
          2   -1    0    0  501    0  0.00000000000E+00 -0.00000000000E+00 -0.17676117220E+04  0.17676117220E+04  0.25500000000E-02 0. -1.
    8880022    1    1    2    0    0  0.36312611368E+03 -0.19478956154E+03 -0.16100901883E+04  0.16690073742E+04  0.15294330000E+03 0.  0.
    8880022    1    1    2    0    0 -0.36312611368E+03  0.19478956154E+03  0.24908598245E+03  0.50521186386E+03  0.15294330000E+03 0.  0.
<mgrwt>
<rscale>  0 0.43953976E+03</rscale>
<asrwt>0</asrwt>
<pdfrwt beam="1">  1        2 0.27194026E+00 0.43953976E+03</pdfrwt>
<pdfrwt beam="2">  1       -2 0.62555003E-01 0.43953976E+03</pdfrwt>
<totfact> 0.23111274E+01</totfact>
</mgrwt>
</event>
<event>
 4    1  0.5410820E-008  0.4887820E+03  0.7818608E-02  0.1016749E+00
         -2   -1    0    0    0  501 -0.00000000000E+00  0.00000000000E+00  0.61407327118E+03  0.61407327119E+03  0.25500000000E-02 0.  1.
          2   -1    0    0  501    0  0.00000000000E+00 -0.00000000000E+00 -0.63368885613E+03  0.63368885613E+03  0.25500000000E-02 0. -1.
    8880022    1    1    2    0    0 -0.18843352695E+03 -0.42427463891E+03 -0.39744255299E+03  0.62997491954E+03  0.15294330000E+03 0.  0.
    8880022    1    1    2    0    0  0.18843352695E+03  0.42427463891E+03  0.37782696805E+03  0.61778720778E+03  0.15294330000E+03 0.  0.
<mgrwt>
<rscale>  0 0.48878197E+03</rscale>
<asrwt>0</asrwt>
<pdfrwt beam="1">  1        2 0.97490593E-01 0.48878197E+03</pdfrwt>
<pdfrwt beam="2">  1       -2 0.94472811E-01 0.48878197E+03</pdfrwt>
<totfact> 0.45430845E+01</totfact>
</mgrwt>
</event>
<event>
 4    1  0.5410820E-008  0.3471540E+03  0.7818608E-02  0.1063789E+00
          2   -1    0    0  501    0  0.00000000000E+00  0.00000000000E+00  0.28663660414E+03  0.28663660415E+03  0.25500000000E-02 0. -1.
         -2   -1    0    0    0  501 -0.00000000000E+00 -0.00000000000E+00 -0.43558386173E+03  0.43558386173E+03  0.25500000000E-02 0.  1.
    8880022    1    1    2    0    0 -0.31046296328E+03  0.27147793180E+02 -0.14178701817E+03  0.37499262096E+03  0.15294330000E+03 0.  0.
    8880022    1    1    2    0    0  0.31046296328E+03 -0.27147793180E+02 -0.71602394220E+01  0.34722784492E+03  0.15294330000E+03 0.  1.
<mgrwt>
<rscale>  0 0.34715401E+03</rscale>
<asrwt>0</asrwt>
<pdfrwt beam="1">  1        2 0.44097939E-01 0.34715401E+03</pdfrwt>
<pdfrwt beam="2">  1       -2 0.67012902E-01 0.34715401E+03</pdfrwt>
<totfact> 0.24141176E+02</totfact>
</mgrwt>
</event>
<event>
 4    1  0.6235429E-008  0.6738968E+03  0.7818608E-02  0.9762944E-01
         -2   -1    0    0    0  501 -0.00000000000E+00  0.00000000000E+00  0.47756970631E+03  0.47756970632E+03  0.25500000000E-02 0.  1.
          2   -1    0    0  501    0  0.00000000000E+00 -0.00000000000E+00 -0.31236957245E+04  0.31236957245E+04  0.25500000000E-02 0. -1.
    8880022    1    1    2    0    0  0.61203540867E+03 -0.23697656763E+03  0.17868445115E+03  0.69718363518E+03  0.15294330000E+03 0.  0.
    8880022    1    1    2    0    0 -0.61203540867E+03  0.23697656763E+03 -0.28248104693E+04  0.29040817956E+04  0.15294330000E+03 0.  0.
<mgrwt>
<rscale>  0 0.67389679E+03</rscale>
<asrwt>0</asrwt>
<pdfrwt beam="1">  1        2 0.48056856E+00 0.67389679E+03</pdfrwt>
<pdfrwt beam="2">  1       -2 0.73472264E-01 0.67389679E+03</pdfrwt>
<totfact> 0.26473618E+00</totfact>
</mgrwt>
</event>
<event>
 4    1  0.5410820E-008  0.2410261E+03  0.7818608E-02  0.1119111E+00
          2   -1    0    0  501    0  0.00000000000E+00  0.00000000000E+00  0.81297609918E+03  0.81297609919E+03  0.25500000000E-02 0. -1.
         -2   -1    0    0    0  501 -0.00000000000E+00 -0.00000000000E+00 -0.47792422538E+03  0.47792422539E+03  0.25500000000E-02 0.  1.
    8880022    1    1    2    0    0 -0.17052280806E+03 -0.74992594670E+02  0.76277055016E+03  0.79994529971E+03  0.15294330000E+03 0.  0.
    8880022    1    1    2    0    0  0.17052280806E+03  0.74992594670E+02 -0.42771867636E+03  0.49095502487E+03  0.15294330000E+03 0.  0.
<mgrwt>
<rscale>  0 0.24102608E+03</rscale>
<asrwt>0</asrwt>
<pdfrwt beam="1">  1        2 0.12507324E+00 0.24102608E+03</pdfrwt>
<pdfrwt beam="2">  1       -2 0.73526805E-01 0.24102608E+03</pdfrwt>
<totfact> 0.60824174E+01</totfact>
</mgrwt>
</event>
<event>
 4    1  0.6598625E-008  0.6184588E+03  0.7818608E-02  0.9867833E-01
         -2   -1    0    0    0  501 -0.00000000000E+00  0.00000000000E+00  0.59199176768E+03  0.59199176769E+03  0.25500000000E-02 0.  1.
          2   -1    0    0  501    0  0.00000000000E+00 -0.00000000000E+00 -0.24832578549E+04  0.24832578549E+04  0.25500000000E-02 0. -1.
    8880022    1    1    2    0    0 -0.55233627964E+03 -0.23243115628E+03  0.37691553183E+03  0.72426278336E+03  0.15294330000E+03 0.  0.
    8880022    1    1    2    0    0  0.55233627964E+03  0.23243115628E+03 -0.22681816190E+04  0.23509868392E+04  0.15294330000E+03 0.  0.
<mgrwt>
<rscale>  0 0.61845878E+03</rscale>
<asrwt>0</asrwt>
<pdfrwt beam="1">  1        2 0.38203966E+00 0.61845878E+03</pdfrwt>
<pdfrwt beam="2">  1       -2 0.91075658E-01 0.61845878E+03</pdfrwt>
<totfact> 0.39459967E+00</totfact>
</mgrwt>
</event>
<event>
 4    1  0.5410820E-008  0.3803058E+03  0.7818608E-02  0.1050821E+00
         -2   -1    0    0    0  501 -0.00000000000E+00  0.00000000000E+00  0.30357645782E+03  0.30357645783E+03  0.25500000000E-02 0.  1.
          2   -1    0    0  501    0  0.00000000000E+00 -0.00000000000E+00 -0.67450260478E+03  0.67450260478E+03  0.25500000000E-02 0. -1.
    8880022    1    1    2    0    0  0.15458819186E+03 -0.31199893822E+03  0.79549157673E+02  0.38853644361E+03  0.15294330000E+03 0.  0.
    8880022    1    1    2    0    0 -0.15458819186E+03  0.31199893822E+03 -0.45047530463E+03  0.58954261900E+03  0.15294330000E+03 0.  0.
<mgrwt>
<rscale>  0 0.38030580E+03</rscale>
<asrwt>0</asrwt>
<pdfrwt beam="1">  1        2 0.10376963E+00 0.38030580E+03</pdfrwt>
<pdfrwt beam="2">  1       -2 0.46704071E-01 0.38030580E+03</pdfrwt>
<totfact> 0.19293503E+02</totfact>
</mgrwt>
</event>
<event>
 4    1  0.5410820E-008  0.5969173E+03  0.7818608E-02  0.9911822E-01
         -2   -1    0    0    0  501 -0.00000000000E+00  0.00000000000E+00  0.82693930459E+03  0.82693930460E+03  0.25500000000E-02 0.  1.
          2   -1    0    0  501    0  0.00000000000E+00 -0.00000000000E+00 -0.92738582995E+03  0.92738582996E+03  0.25500000000E-02 0. -1.
    8880022    1    1    2    0    0  0.54202866197E+03 -0.19779668657E+03  0.59159601120E+03  0.84041423899E+03  0.15294330000E+03 0.  0.
    8880022    1    1    2    0    0 -0.54202866197E+03  0.19779668657E+03 -0.69204253656E+03  0.91391089557E+03  0.15294330000E+03 0. -1.
<mgrwt>
<rscale>  0 0.59691729E+03</rscale>
<asrwt>0</asrwt>
<pdfrwt beam="1">  1        2 0.14267474E+00 0.59691729E+03</pdfrwt>
<pdfrwt beam="2">  1       -2 0.12722143E+00 0.59691729E+03</pdfrwt>
<totfact> 0.13353029E+01</totfact>
</mgrwt>
</event>
<event>
 4    1  0.5410820E-008  0.5340948E+03  0.7818608E-02  0.1005244E+00
          2   -1    0    0  501    0  0.00000000000E+00  0.00000000000E+00  0.19020827239E+04  0.19020827239E+04  0.25500000000E-02 0. -1.
         -2   -1    0    0    0  501 -0.00000000000E+00 -0.00000000000E+00 -0.37113851138E+03  0.37113851138E+03  0.25500000000E-02 0.  1.
    8880022    1    1    2    0    0 -0.86289645595E+02 -0.50440029397E+03 -0.11194153462E+03  0.54569966070E+03  0.15294330000E+03 0.  1.
    8880022    1    1    2    0    0  0.86289645595E+02  0.50440029397E+03  0.16428857472E+04  0.17275215746E+04  0.15294330000E+03 0.  0.
<mgrwt>
<rscale>  0 0.53409476E+03</rscale>
<asrwt>0</asrwt>
<pdfrwt beam="1">  1        2 0.29262811E+00 0.53409476E+03</pdfrwt>
<pdfrwt beam="2">  1       -2 0.57098233E-01 0.53409476E+03</pdfrwt>
<totfact> 0.23240764E+01</totfact>
</mgrwt>
</event>
<event>
 4    1  0.5410820E-008  0.5249738E+03  0.7818608E-02  0.1007458E+00
         -2   -1    0    0    0  501 -0.00000000000E+00  0.00000000000E+00  0.48214236752E+03  0.48214236752E+03  0.25500000000E-02 0.  1.
          2   -1    0    0  501    0  0.00000000000E+00 -0.00000000000E+00 -0.12131911548E+04  0.12131911548E+04  0.25500000000E-02 0. -1.
    8880022    1    1    2    0    0  0.11830282043E+03  0.48806788504E+03  0.25090918123E+03  0.58185297797E+03  0.15294330000E+03 0.  1.
    8880022    1    1    2    0    0 -0.11830282043E+03 -0.48806788504E+03 -0.98195796847E+03  0.11134805443E+04  0.15294330000E+03 0.  0.
<mgrwt>
<rscale>  0 0.52497378E+03</rscale>
<asrwt>0</asrwt>
<pdfrwt beam="1">  1        2 0.18664479E+00 0.52497378E+03</pdfrwt>
<pdfrwt beam="2">  1       -2 0.74175749E-01 0.52497378E+03</pdfrwt>
<totfact> 0.31886764E+01</totfact>
</mgrwt>
</event>
<event>
 4    1  0.5410820E-008  0.6152535E+03  0.7818608E-02  0.9874256E-01
          2   -1    0    0  501    0  0.00000000000E+00  0.00000000000E+00  0.37397537691E+03  0.37397537692E+03  0.25500000000E-02 0. -1.
         -2   -1    0    0    0  501 -0.00000000000E+00 -0.00000000000E+00 -0.13194055427E+04  0.13194055427E+04  0.25500000000E-02 0.  1.
    8880022    1    1    2    0    0 -0.25943743422E+03  0.53650485335E+03 -0.64158796995E+02  0.61858972202E+03  0.15294330000E+03 0.  0.
    8880022    1    1    2    0    0  0.25943743422E+03 -0.53650485335E+03 -0.88127136875E+03  0.10747911976E+04  0.15294330000E+03 0.  0.
<mgrwt>
<rscale>  0 0.61525352E+03</rscale>
<asrwt>0</asrwt>
<pdfrwt beam="1">  1        2 0.57534674E-01 0.61525352E+03</pdfrwt>
<pdfrwt beam="2">  1       -2 0.20298547E+00 0.61525352E+03</pdfrwt>
<totfact> 0.11278071E+01</totfact>
</mgrwt>
</event>
<event>
 4    1  0.5410820E-008  0.1448794E+04  0.7818608E-02  0.8919237E-01
         -2   -1    0    0    0  501 -0.00000000000E+00  0.00000000000E+00  0.12952962147E+04  0.12952962147E+04  0.25500000000E-02 0.  1.
          2   -1    0    0  501    0  0.00000000000E+00 -0.00000000000E+00 -0.24487446159E+04  0.24487446159E+04  0.25500000000E-02 0. -1.
    8880022    1    1    2    0    0  0.54229478173E+03  0.13347390952E+04  0.51201273712E+03  0.15366069044E+04  0.15294330000E+03 0.  0.
    8880022    1    1    2    0    0 -0.54229478173E+03 -0.13347390952E+04 -0.16654611383E+04  0.22074339262E+04  0.15294330000E+03 0.  0.
<mgrwt>
<rscale>  0 0.14487939E+04</rscale>
<asrwt>0</asrwt>
<pdfrwt beam="1">  1        2 0.37672994E+00 0.14487939E+04</pdfrwt>
<pdfrwt beam="2">  1       -2 0.19927634E+00 0.14487939E+04</pdfrwt>
<totfact> 0.47360772E-01</totfact>
</mgrwt>
</event>
<event>
 4    1  0.5410820E-008  0.8631949E+03  0.7818608E-02  0.9472796E-01
         -2   -1    0    0    0  501 -0.00000000000E+00  0.00000000000E+00  0.18920974459E+04  0.18920974459E+04  0.25500000000E-02 0.  1.
          2   -1    0    0  501    0  0.00000000000E+00 -0.00000000000E+00 -0.15931106318E+04  0.15931106318E+04  0.25500000000E-02 0. -1.
    8880022    1    1    2    0    0  0.48371394808E+03 -0.69837997707E+03  0.16614587405E+04  0.18723115594E+04  0.15294330000E+03 0.  0.
    8880022    1    1    2    0    0 -0.48371394808E+03  0.69837997707E+03 -0.13624719264E+04  0.16128965184E+04  0.15294330000E+03 0.  0.
<mgrwt>
<rscale>  0 0.86319490E+03</rscale>
<asrwt>0</asrwt>
<pdfrwt beam="1">  1        2 0.24509394E+00 0.86319490E+03</pdfrwt>
<pdfrwt beam="2">  1       -2 0.29109191E+00 0.86319490E+03</pdfrwt>
<totfact> 0.41741458E-01</totfact>
</mgrwt>
</event>
<event>
 4    1  0.5410820E-008  0.8737725E+03  0.7818608E-02  0.9458974E-01
         -2   -1    0    0    0  501 -0.00000000000E+00  0.00000000000E+00  0.28934208052E+03  0.28934208053E+03  0.25500000000E-02 0.  1.
          2   -1    0    0  501    0  0.00000000000E+00 -0.00000000000E+00 -0.28884562465E+04  0.28884562465E+04  0.25500000000E-02 0. -1.
    8880022    1    1    2    0    0  0.21847624443E+03 -0.83207860605E+03 -0.83230901293E+03  0.12067380089E+04  0.15294330000E+03 0.  0.
    8880022    1    1    2    0    0 -0.21847624443E+03  0.83207860605E+03 -0.17668051531E+04  0.19710603182E+04  0.15294330000E+03 0.  0.
<mgrwt>
<rscale>  0 0.87377247E+03</rscale>
<asrwt>0</asrwt>
<pdfrwt beam="1">  1        2 0.44437786E+00 0.87377247E+03</pdfrwt>
<pdfrwt beam="2">  1       -2 0.44514168E-01 0.87377247E+03</pdfrwt>
<totfact> 0.10150532E+01</totfact>
</mgrwt>
</event>
<event>
 4    1  0.5410820E-008  0.5873072E+03  0.7818608E-02  0.9932095E-01
          2   -1    0    0  501    0  0.00000000000E+00  0.00000000000E+00  0.21413135072E+04  0.21413135072E+04  0.25500000000E-02 0. -1.
         -2   -1    0    0    0  501 -0.00000000000E+00 -0.00000000000E+00 -0.96808731342E+03  0.96808731342E+03  0.25500000000E-02 0.  1.
    8880022    1    1    2    0    0 -0.32823205597E+02 -0.56609248405E+03 -0.83286047900E+03  0.10191105405E+04  0.15294330000E+03 0.  0.
    8880022    1    1    2    0    0  0.32823205597E+02  0.56609248405E+03  0.20060866728E+04  0.20902902801E+04  0.15294330000E+03 0.  0.
<mgrwt>
<rscale>  0 0.58730717E+03</rscale>
<asrwt>0</asrwt>
<pdfrwt beam="1">  1        2 0.32943284E+00 0.58730717E+03</pdfrwt>
<pdfrwt beam="2">  1       -2 0.14893651E+00 0.58730717E+03</pdfrwt>
<totfact> 0.18357905E+00</totfact>
</mgrwt>
</event>
<event>
 4    1  0.5410820E-008  0.5626775E+03  0.7818608E-02  0.9986015E-01
         -2   -1    0    0    0  501 -0.00000000000E+00  0.00000000000E+00  0.48127965273E+03  0.48127965273E+03  0.25500000000E-02 0.  1.
          2   -1    0    0  501    0  0.00000000000E+00 -0.00000000000E+00 -0.11504212078E+04  0.11504212078E+04  0.25500000000E-02 0. -1.
    8880022    1    1    2    0    0  0.72528737162E+02  0.53661332370E+03  0.19928037093E+03  0.59692428008E+03  0.15294330000E+03 0.  0.
    8880022    1    1    2    0    0 -0.72528737162E+02 -0.53661332370E+03 -0.86842192600E+03  0.10347765805E+04  0.15294330000E+03 0.  0.
<mgrwt>
<rscale>  0 0.56267747E+03</rscale>
<asrwt>0</asrwt>
<pdfrwt beam="1">  1        2 0.17698788E+00 0.56267747E+03</pdfrwt>
<pdfrwt beam="2">  1       -2 0.74043024E-01 0.56267747E+03</pdfrwt>
<totfact> 0.34669870E+01</totfact>
</mgrwt>
</event>
<event>
 4    1  0.5410820E-008  0.1687748E+03  0.7818608E-02  0.1179132E+00
          2   -1    0    0  501    0  0.00000000000E+00  0.00000000000E+00  0.13478041613E+04  0.13478041613E+04  0.25500000000E-02 0. -1.
         -2   -1    0    0    0  501 -0.00000000000E+00 -0.00000000000E+00 -0.53824888425E+03  0.53824888425E+03  0.25500000000E-02 0.  1.
    8880022    1    1    2    0    0  0.51770668436E+02  0.49123174665E+02 -0.51954952910E+03  0.54627525534E+03  0.15294330000E+03 0.  0.
    8880022    1    1    2    0    0 -0.51770668436E+02 -0.49123174665E+02  0.13291048061E+04  0.13397777902E+04  0.15294330000E+03 0. -1.
<mgrwt>
<rscale>  0 0.16877482E+03</rscale>
<asrwt>0</asrwt>
<pdfrwt beam="1">  1        2 0.20735449E+00 0.16877482E+03</pdfrwt>
<pdfrwt beam="2">  1       -2 0.82807521E-01 0.16877482E+03</pdfrwt>
<totfact> 0.23129318E+01</totfact>
</mgrwt>
</event>
<event>
 4    1  0.5410820E-008  0.7301923E+03  0.7818608E-02  0.9666948E-01
          2   -1    0    0  501    0  0.00000000000E+00  0.00000000000E+00  0.17593608263E+04  0.17593608263E+04  0.25500000000E-02 0. -1.
         -2   -1    0    0    0  501 -0.00000000000E+00 -0.00000000000E+00 -0.30929319483E+03  0.30929319484E+03  0.25500000000E-02 0.  1.
    8880022    1    1    2    0    0  0.68346207481E+03 -0.20656398596E+03  0.87194292473E+03  0.11373061175E+04  0.15294330000E+03 0.  0.
    8880022    1    1    2    0    0 -0.68346207481E+03  0.20656398596E+03  0.57812470678E+03  0.93134790363E+03  0.15294330000E+03 0.  0.
<mgrwt>
<rscale>  0 0.73019226E+03</rscale>
<asrwt>0</asrwt>
<pdfrwt beam="1">  1        2 0.27067090E+00 0.73019226E+03</pdfrwt>
<pdfrwt beam="2">  1       -2 0.47583568E-01 0.73019226E+03</pdfrwt>
<totfact> 0.39154713E+01</totfact>
</mgrwt>
</event>
<event>
 4    1  0.5410820E-008  0.6620475E+03  0.7818608E-02  0.9784432E-01
         -2   -1    0    0    0  501 -0.00000000000E+00  0.00000000000E+00  0.51246495735E+03  0.51246495735E+03  0.25500000000E-02 0.  1.
          2   -1    0    0  501    0  0.00000000000E+00 -0.00000000000E+00 -0.17008421972E+04  0.17008421972E+04  0.25500000000E-02 0. -1.
    8880022    1    1    2    0    0  0.57022103378E+03  0.29960503931E+03  0.18608969669E+03  0.68770359544E+03  0.15294330000E+03 0.  0.
    8880022    1    1    2    0    0 -0.57022103378E+03 -0.29960503931E+03 -0.13744669366E+04  0.15256035591E+04  0.15294330000E+03 0.  0.
<mgrwt>
<rscale>  0 0.66204748E+03</rscale>
<asrwt>0</asrwt>
<pdfrwt beam="1">  1        2 0.26166803E+00 0.66204748E+03</pdfrwt>
<pdfrwt beam="2">  1       -2 0.78840764E-01 0.66204748E+03</pdfrwt>
<totfact> 0.14572237E+01</totfact>
</mgrwt>
</event>
<event>
 4    1  0.5410820E-008  0.1002951E+04  0.7818608E-02  0.9305314E-01
          2   -1    0    0  501    0  0.00000000000E+00  0.00000000000E+00  0.80930302297E+03  0.80930302297E+03  0.25500000000E-02 0. -1.
         -2   -1    0    0    0  501 -0.00000000000E+00 -0.00000000000E+00 -0.16786369463E+04  0.16786369463E+04  0.25500000000E-02 0.  1.
    8880022    1    1    2    0    0 -0.49454625888E+03  0.85903660118E+03 -0.10684286242E+04  0.14654184598E+04  0.15294330000E+03 0.  0.
    8880022    1    1    2    0    0  0.49454625888E+03 -0.85903660118E+03  0.19909470087E+03  0.10225215094E+04  0.15294330000E+03 0.  0.
<mgrwt>
<rscale>  0 0.10029514E+04</rscale>
<asrwt>0</asrwt>
<pdfrwt beam="1">  1        2 0.12450816E+00 0.10029514E+04</pdfrwt>
<pdfrwt beam="2">  1       -2 0.25825184E+00 0.10029514E+04</pdfrwt>
<totfact> 0.19360279E+00</totfact>
</mgrwt>
</event>
<event>
 4    1  0.5410820E-008  0.5638097E+03  0.7818608E-02  0.9983471E-01
         -2   -1    0    0    0  501 -0.00000000000E+00  0.00000000000E+00  0.12692807662E+04  0.12692807662E+04  0.25500000000E-02 0.  1.
          2   -1    0    0  501    0  0.00000000000E+00 -0.00000000000E+00 -0.98161172027E+03  0.98161172028E+03  0.25500000000E-02 0. -1.
    8880022    1    1    2    0    0 -0.32848533398E+03  0.43195736463E+03  0.11151581120E+04  0.12495835496E+04  0.15294330000E+03 0.  0.
    8880022    1    1    2    0    0  0.32848533398E+03 -0.43195736463E+03 -0.82748906613E+03  0.10013089369E+04  0.15294330000E+03 0. -1.
<mgrwt>
<rscale>  0 0.56380975E+03</rscale>
<asrwt>0</asrwt>
<pdfrwt beam="1">  1        2 0.15101719E+00 0.56380975E+03</pdfrwt>
<pdfrwt beam="2">  1       -2 0.19527396E+00 0.56380975E+03</pdfrwt>
<totfact> 0.39053603E+00</totfact>
</mgrwt>
</event>
<event>
 4    1  0.5410820E-008  0.4293366E+03  0.7818608E-02  0.1034070E+00
         -2   -1    0    0    0  501 -0.00000000000E+00  0.00000000000E+00  0.65933330997E+03  0.65933330997E+03  0.25500000000E-02 0.  1.
          2   -1    0    0  501    0  0.00000000000E+00 -0.00000000000E+00 -0.38972981603E+03  0.38972981604E+03  0.25500000000E-02 0. -1.
    8880022    1    1    2    0    0 -0.40074237203E+03  0.18541534114E+02  0.41367135204E+03  0.59619952847E+03  0.15294330000E+03 0.  0.
    8880022    1    1    2    0    0  0.40074237203E+03 -0.18541534114E+02 -0.14406785811E+03  0.45286359755E+03  0.15294330000E+03 0. -1.
<mgrwt>
<rscale>  0 0.42933657E+03</rscale>
<asrwt>0</asrwt>
<pdfrwt beam="1">  1        2 0.59958434E-01 0.42933657E+03</pdfrwt>
<pdfrwt beam="2">  1       -2 0.10143589E+00 0.42933657E+03</pdfrwt>
<totfact> 0.67637351E+01</totfact>
</mgrwt>
</event>
<event>
 4    1  0.5410820E-008  0.5846702E+03  0.7818608E-02  0.9937731E-01
          2   -1    0    0  501    0  0.00000000000E+00  0.00000000000E+00  0.21674318373E+04  0.21674318373E+04  0.25500000000E-02 0. -1.
         -2   -1    0    0    0  501 -0.00000000000E+00 -0.00000000000E+00 -0.29504024228E+03  0.29504024229E+03  0.25500000000E-02 0.  1.
    8880022    1    1    2    0    0  0.17951666425E+03  0.53499654258E+03  0.17761854329E+04  0.18699395387E+04  0.15294330000E+03 0.  0.
    8880022    1    1    2    0    0 -0.17951666425E+03 -0.53499654258E+03  0.96206162059E+02  0.59253254084E+03  0.15294330000E+03 0.  0.
<mgrwt>
<rscale>  0 0.58467015E+03</rscale>
<asrwt>0</asrwt>
<pdfrwt beam="1">  1        2 0.33345104E+00 0.58467015E+03</pdfrwt>
<pdfrwt beam="2">  1       -2 0.45390808E-01 0.58467015E+03</pdfrwt>
<totfact> 0.26377628E+01</totfact>
</mgrwt>
</event>
<event>
 4    1  0.5410820E-008  0.3109125E+03  0.7818608E-02  0.1079909E+00
          2   -1    0    0  501    0  0.00000000000E+00  0.00000000000E+00  0.17158237843E+04  0.17158237843E+04  0.25500000000E-02 0. -1.
         -2   -1    0    0    0  501 -0.00000000000E+00 -0.00000000000E+00 -0.98157389161E+02  0.98157389194E+02  0.25500000000E-02 0.  1.
    8880022    1    1    2    0    0 -0.12159768233E+03  0.24184489806E+03  0.21682388530E+03  0.37905039417E+03  0.15294330000E+03 0.  0.
    8880022    1    1    2    0    0  0.12159768233E+03 -0.24184489806E+03  0.14008425098E+04  0.14349307793E+04  0.15294330000E+03 0. -1.
<mgrwt>
<rscale>  0 0.31091253E+03</rscale>
<asrwt>0</asrwt>
<pdfrwt beam="1">  1        2 0.26397289E+00 0.31091253E+03</pdfrwt>
<pdfrwt beam="2">  1       -2 0.15101137E-01 0.31091253E+03</pdfrwt>
<totfact> 0.35401978E+02</totfact>
</mgrwt>
</event>
<event>
 4    1  0.5410820E-008  0.4363525E+03  0.7818608E-02  0.1031872E+00
         -2   -1    0    0    0  501 -0.00000000000E+00  0.00000000000E+00  0.34783737899E+03  0.34783737900E+03  0.25500000000E-02 0.  1.
          2   -1    0    0  501    0  0.00000000000E+00 -0.00000000000E+00 -0.19440889975E+04  0.19440889975E+04  0.25500000000E-02 0. -1.
    8880022    1    1    2    0    0 -0.14290573350E+03 -0.38287047443E+03 -0.17694487576E+04  0.18224577931E+04  0.15294330000E+03 0.  0.
    8880022    1    1    2    0    0  0.14290573350E+03  0.38287047443E+03  0.17319713904E+03  0.46946858345E+03  0.15294330000E+03 0.  0.
<mgrwt>
<rscale>  0 0.43635250E+03</rscale>
<asrwt>0</asrwt>
<pdfrwt beam="1">  1        2 0.29909061E+00 0.43635250E+03</pdfrwt>
<pdfrwt beam="2">  1       -2 0.53513444E-01 0.43635250E+03</pdfrwt>
<totfact> 0.25745626E+01</totfact>
</mgrwt>
</event>
<event>
 4    1  0.5410820E-008  0.5283714E+03  0.7818608E-02  0.1006628E+00
         -2   -1    0    0    0  501 -0.00000000000E+00  0.00000000000E+00  0.15164098495E+04  0.15164098495E+04  0.25500000000E-02 0.  1.
          2   -1    0    0  501    0  0.00000000000E+00 -0.00000000000E+00 -0.55112185240E+03  0.55112185240E+03  0.25500000000E-02 0. -1.
    8880022    1    1    2    0    0  0.32807978142E+03  0.38490044260E+03  0.13262550533E+04  0.14276304890E+04  0.15294330000E+03 0.  0.
    8880022    1    1    2    0    0 -0.32807978142E+03 -0.38490044260E+03 -0.36096705616E+03  0.63990121295E+03  0.15294330000E+03 0.  0.
<mgrwt>
<rscale>  0 0.52837141E+03</rscale>
<asrwt>0</asrwt>
<pdfrwt beam="1">  1        2 0.84787978E-01 0.52837141E+03</pdfrwt>
<pdfrwt beam="2">  1       -2 0.23329382E+00 0.52837141E+03</pdfrwt>
<totfact> 0.47550189E+00</totfact>
</mgrwt>
</event>
<event>
 4    1  0.5410820E-008  0.5028149E+03  0.7818608E-02  0.1013047E+00
          2   -1    0    0  501    0  0.00000000000E+00  0.00000000000E+00  0.34477134351E+04  0.34477134351E+04  0.25500000000E-02 0. -1.
         -2   -1    0    0    0  501 -0.00000000000E+00 -0.00000000000E+00 -0.24778424186E+03  0.24778424188E+03  0.25500000000E-02 0.  1.
    8880022    1    1    2    0    0  0.43578334219E+03  0.19880658614E+03  0.31503730891E+04  0.31902466101E+04  0.15294330000E+03 0.  0.
    8880022    1    1    2    0    0 -0.43578334219E+03 -0.19880658614E+03  0.49556104094E+02  0.50525106679E+03  0.15294330000E+03 0.  0.
<mgrwt>
<rscale>  0 0.50281491E+03</rscale>
<asrwt>0</asrwt>
<pdfrwt beam="1">  1        2 0.53041745E+00 0.50281491E+03</pdfrwt>
<pdfrwt beam="2">  1       -2 0.38120653E-01 0.50281491E+03</pdfrwt>
<totfact> 0.65963070E+00</totfact>
</mgrwt>
</event>
<event>
 4    1  0.5410820E-008  0.1987506E+03  0.7818608E-02  0.1150797E+00
         -2   -1    0    0    0  501 -0.00000000000E+00  0.00000000000E+00  0.61845472875E+02  0.61845472928E+02  0.25500000000E-02 0.  1.
          2   -1    0    0  501    0  0.00000000000E+00 -0.00000000000E+00 -0.87747301660E+03  0.87747301660E+03  0.25500000000E-02 0. -1.
    8880022    1    1    2    0    0 -0.10668399343E+03 -0.68765213827E+02 -0.65280061008E+03  0.68238582827E+03  0.15294330000E+03 0. -1.
    8880022    1    1    2    0    0  0.10668399343E+03  0.68765213827E+02 -0.16282693364E+03  0.25693266126E+03  0.15294330000E+03 0. -1.
<mgrwt>
<rscale>  0 0.19875055E+03</rscale>
<asrwt>0</asrwt>
<pdfrwt beam="1">  1        2 0.13499584E+00 0.19875055E+03</pdfrwt>
<pdfrwt beam="2">  1       -2 0.95146887E-02 0.19875055E+03</pdfrwt>
<totfact> 0.22464260E+03</totfact>
</mgrwt>
</event>
<event>
 4    1  0.5410820E-008  0.4713071E+03  0.7818608E-02  0.1021552E+00
          2   -1    0    0  501    0  0.00000000000E+00  0.00000000000E+00  0.15395994615E+04  0.15395994615E+04  0.25500000000E-02 0. -1.
         -2   -1    0    0    0  501 -0.00000000000E+00 -0.00000000000E+00 -0.67981489441E+03  0.67981489441E+03  0.25500000000E-02 0.  1.
    8880022    1    1    2    0    0  0.44501517047E+03 -0.26461747123E+02  0.14148276740E+04  0.14912638017E+04  0.15294330000E+03 0.  0.
    8880022    1    1    2    0    0 -0.44501517047E+03  0.26461747123E+02 -0.55504310695E+03  0.72815055421E+03  0.15294330000E+03 0.  0.
<mgrwt>
<rscale>  0 0.47130710E+03</rscale>
<asrwt>0</asrwt>
<pdfrwt beam="1">  1        2 0.23686145E+00 0.47130710E+03</pdfrwt>
<pdfrwt beam="2">  1       -2 0.10458691E+00 0.47130710E+03</pdfrwt>
<totfact> 0.96349585E+00</totfact>
</mgrwt>
</event>
<event>
 4    1  0.5410820E-008  0.3972573E+03  0.7818608E-02  0.1044734E+00
         -2   -1    0    0    0  501 -0.00000000000E+00  0.00000000000E+00  0.18858770789E+03  0.18858770790E+03  0.25500000000E-02 0.  1.
          2   -1    0    0  501    0  0.00000000000E+00 -0.00000000000E+00 -0.13660966921E+04  0.13660966921E+04  0.25500000000E-02 0. -1.
    8880022    1    1    2    0    0 -0.95327472120E+02  0.35402597946E+03 -0.10490064663E+03  0.41087409234E+03  0.15294330000E+03 0.  0.
    8880022    1    1    2    0    0  0.95327472120E+02 -0.35402597946E+03 -0.10726083376E+04  0.11438103077E+04  0.15294330000E+03 0. -1.
<mgrwt>
<rscale>  0 0.39725731E+03</rscale>
<asrwt>0</asrwt>
<pdfrwt beam="1">  1        2 0.21016872E+00 0.39725731E+03</pdfrwt>
<pdfrwt beam="2">  1       -2 0.29013494E-01 0.39725731E+03</pdfrwt>
<totfact> 0.17345170E+02</totfact>
</mgrwt>
</event>
<event>
 4    1  0.5410820E-008  0.3214176E+03  0.7818608E-02  0.1074999E+00
         -2   -1    0    0    0  501 -0.00000000000E+00  0.00000000000E+00  0.17172488762E+03  0.17172488764E+03  0.25500000000E-02 0.  1.
          2   -1    0    0  501    0  0.00000000000E+00 -0.00000000000E+00 -0.19332743527E+04  0.19332743527E+04  0.25500000000E-02 0. -1.
    8880022    1    1    2    0    0 -0.22403595780E+03  0.17241095591E+03 -0.17542982310E+04  0.17834998134E+04  0.15294330000E+03 0.  0.
    8880022    1    1    2    0    0  0.22403595780E+03 -0.17241095591E+03 -0.72512340785E+01  0.32149942693E+03  0.15294330000E+03 0.  0.
<mgrwt>
<rscale>  0 0.32141764E+03</rscale>
<asrwt>0</asrwt>
<pdfrwt beam="1">  1        2 0.29742681E+00 0.32141764E+03</pdfrwt>
<pdfrwt beam="2">  1       -2 0.26419215E-01 0.32141764E+03</pdfrwt>
<totfact> 0.10333189E+02</totfact>
</mgrwt>
</event>
<event>
 4    1  0.5410820E-008  0.2320444E+03  0.7818608E-02  0.1125209E+00
         -2   -1    0    0    0  501 -0.00000000000E+00  0.00000000000E+00  0.16313372423E+03  0.16313372425E+03  0.25500000000E-02 0.  1.
          2   -1    0    0  501    0  0.00000000000E+00 -0.00000000000E+00 -0.48228637396E+03  0.48228637397E+03  0.25500000000E-02 0. -1.
    8880022    1    1    2    0    0  0.32734581146E+02  0.17140997973E+03  0.21724210504E+02  0.23305906610E+03  0.15294330000E+03 0.  1.
    8880022    1    1    2    0    0 -0.32734581146E+02 -0.17140997973E+03 -0.34087686023E+03  0.41236103212E+03  0.15294330000E+03 0.  0.
<mgrwt>
<rscale>  0 0.23204436E+03</rscale>
<asrwt>0</asrwt>
<pdfrwt beam="1">  1        2 0.74197903E-01 0.23204436E+03</pdfrwt>
<pdfrwt beam="2">  1       -2 0.25097496E-01 0.23204436E+03</pdfrwt>
<totfact> 0.91669025E+02</totfact>
</mgrwt>
</event>
<event>
 4    1  0.5410820E-008  0.6878137E+03  0.7818608E-02  0.9738302E-01
          2   -1    0    0  501    0  0.00000000000E+00  0.00000000000E+00  0.10449659209E+04  0.10449659209E+04  0.25500000000E-02 0. -1.
         -2   -1    0    0    0  501 -0.00000000000E+00 -0.00000000000E+00 -0.66635977960E+03  0.66635977960E+03  0.25500000000E-02 0.  1.
    8880022    1    1    2    0    0 -0.66949679458E+03  0.38341823938E+02  0.67378647811E+03  0.96284782002E+03  0.15294330000E+03 0.  0.
    8880022    1    1    2    0    0  0.66949679458E+03 -0.38341823938E+02 -0.29518033676E+03  0.74847788053E+03  0.15294330000E+03 0.  0.
<mgrwt>
<rscale>  0 0.68781371E+03</rscale>
<asrwt>0</asrwt>
<pdfrwt beam="1">  1        2 0.16076399E+00 0.68781371E+03</pdfrwt>
<pdfrwt beam="2">  1       -2 0.10251689E+00 0.68781371E+03</pdfrwt>
<totfact> 0.18802039E+01</totfact>
</mgrwt>
</event>
<event>
 4    1  0.5410820E-008  0.3524478E+03  0.7818608E-02  0.1061615E+00
         -2   -1    0    0    0  501 -0.00000000000E+00  0.00000000000E+00  0.32330399874E+03  0.32330399875E+03  0.25500000000E-02 0.  1.
          2   -1    0    0  501    0  0.00000000000E+00 -0.00000000000E+00 -0.90451883321E+03  0.90451883322E+03  0.25500000000E-02 0. -1.
    8880022    1    1    2    0    0 -0.30363421030E+03 -0.92919494801E+02 -0.75621913411E+03  0.83431816352E+03  0.15294330000E+03 0.  0.
    8880022    1    1    2    0    0  0.30363421030E+03  0.92919494801E+02  0.17500429963E+03  0.39350466844E+03  0.15294330000E+03 0.  0.
<mgrwt>
<rscale>  0 0.35244775E+03</rscale>
<asrwt>0</asrwt>
<pdfrwt beam="1">  1        2 0.13915674E+00 0.35244775E+03</pdfrwt>
<pdfrwt beam="2">  1       -2 0.49739077E-01 0.35244775E+03</pdfrwt>
<totfact> 0.11707211E+02</totfact>
</mgrwt>
</event>
<event>
 4    1  0.5410820E-008  0.1289657E+04  0.7818608E-02  0.9037807E-01
          2   -1    0    0  501    0  0.00000000000E+00  0.00000000000E+00  0.15519388432E+04  0.15519388432E+04  0.25500000000E-02 0. -1.
         -2   -1    0    0    0  501 -0.00000000000E+00 -0.00000000000E+00 -0.18810293873E+04  0.18810293873E+04  0.25500000000E-02 0.  1.
    8880022    1    1    2    0    0 -0.12579967832E+04 -0.23930911092E+03  0.96136566908E+03  0.16085522559E+04  0.15294330000E+03 0.  0.
    8880022    1    1    2    0    0  0.12579967832E+04  0.23930911092E+03 -0.12904562132E+04  0.18244159746E+04  0.15294330000E+03 0.  0.
<mgrwt>
<rscale>  0 0.12896575E+04</rscale>
<asrwt>0</asrwt>
<pdfrwt beam="1">  1        2 0.23875982E+00 0.12896575E+04</pdfrwt>
<pdfrwt beam="2">  1       -2 0.28938914E+00 0.12896575E+04</pdfrwt>
<totfact> 0.42186398E-01</totfact>
</mgrwt>
</event>
<event>
 4    1  0.5410820E-008  0.4240327E+03  0.7818608E-02  0.1035762E+00
         -2   -1    0    0    0  501 -0.00000000000E+00  0.00000000000E+00  0.43670098720E+03  0.43670098720E+03  0.25500000000E-02 0.  1.
          2   -1    0    0  501    0  0.00000000000E+00 -0.00000000000E+00 -0.10799639670E+04  0.10799639670E+04  0.25500000000E-02 0. -1.
    8880022    1    1    2    0    0  0.29861741416E+03  0.25930620193E+03 -0.91814280382E+03  0.10113307706E+04  0.15294330000E+03 0.  0.
    8880022    1    1    2    0    0 -0.29861741416E+03 -0.25930620193E+03  0.27487982403E+03  0.50533418356E+03  0.15294330000E+03 0.  0.
<mgrwt>
<rscale>  0 0.42403269E+03</rscale>
<asrwt>0</asrwt>
<pdfrwt beam="1">  1        2 0.16614830E+00 0.42403269E+03</pdfrwt>
<pdfrwt beam="2">  1       -2 0.67184768E-01 0.42403269E+03</pdfrwt>
<totfact> 0.48166763E+01</totfact>
</mgrwt>
</event>
<event>
 4    1  0.5410820E-008  0.6508284E+03  0.7818608E-02  0.9805226E-01
         -2   -1    0    0    0  501 -0.00000000000E+00  0.00000000000E+00  0.22987169844E+03  0.22987169845E+03  0.25500000000E-02 0.  1.
          2   -1    0    0  501    0  0.00000000000E+00 -0.00000000000E+00 -0.43583473168E+04  0.43583473168E+04  0.25500000000E-02 0. -1.
    8880022    1    1    2    0    0 -0.58968399474E+03 -0.22903876070E+03 -0.32130471225E+03  0.72581977011E+03  0.15294330000E+03 0.  0.
    8880022    1    1    2    0    0  0.58968399474E+03  0.22903876070E+03 -0.38071709061E+04  0.38623992451E+04  0.15294330000E+03 0.  0.
<mgrwt>
<rscale>  0 0.65082841E+03</rscale>
<asrwt>0</asrwt>
<pdfrwt beam="1">  1        2 0.67051491E+00 0.65082841E+03</pdfrwt>
<pdfrwt beam="2">  1       -2 0.35364880E-01 0.65082841E+03</pdfrwt>
<totfact> 0.14617619E+00</totfact>
</mgrwt>
</event>
<event>
 4    1  0.5410820E-008  0.9377028E+03  0.7818608E-02  0.9379641E-01
          2   -1    0    0  501    0  0.00000000000E+00  0.00000000000E+00  0.51587252884E+04  0.51587252884E+04  0.25500000000E-02 0. -1.
         -2   -1    0    0    0  501 -0.00000000000E+00 -0.00000000000E+00 -0.20534761651E+03  0.20534761652E+03  0.25500000000E-02 0.  1.
    8880022    1    1    2    0    0  0.67642650928E+03  0.63114346187E+03  0.35823948048E+04  0.37030850763E+04  0.15294330000E+03 0.  0.
    8880022    1    1    2    0    0 -0.67642650928E+03 -0.63114346187E+03  0.13709828671E+04  0.16609878286E+04  0.15294330000E+03 0.  0.
<mgrwt>
<rscale>  0 0.93770280E+03</rscale>
<asrwt>0</asrwt>
<pdfrwt beam="1">  1        2 0.79364995E+00 0.93770280E+03</pdfrwt>
<pdfrwt beam="2">  1       -2 0.31591945E-01 0.93770280E+03</pdfrwt>
<totfact> 0.22248682E-01</totfact>
</mgrwt>
</event>
<event>
 4    1  0.5410820E-008  0.1313435E+04  0.7818608E-02  0.9018979E-01
          2   -1    0    0  501    0  0.00000000000E+00  0.00000000000E+00  0.15136355702E+04  0.15136355702E+04  0.25500000000E-02 0. -1.
         -2   -1    0    0    0  501 -0.00000000000E+00 -0.00000000000E+00 -0.11610697136E+04  0.11610697136E+04  0.25500000000E-02 0.  1.
    8880022    1    1    2    0    0  0.45975763590E+03 -0.12207954225E+04 -0.50946395789E+01  0.13134443863E+04  0.15294330000E+03 0.  0.
    8880022    1    1    2    0    0 -0.45975763590E+03  0.12207954225E+04  0.35766049621E+03  0.13612608975E+04  0.15294330000E+03 0.  0.
<mgrwt>
<rscale>  0 0.13134345E+04</rscale>
<asrwt>0</asrwt>
<pdfrwt beam="1">  1        2 0.23286701E+00 0.13134345E+04</pdfrwt>
<pdfrwt beam="2">  1       -2 0.17862611E+00 0.13134345E+04</pdfrwt>
<totfact> 0.22180379E+00</totfact>
</mgrwt>
</event>
<event>
 4    1  0.5410820E-008  0.3413969E+03  0.7818608E-02  0.1066203E+00
          2   -1    0    0  501    0  0.00000000000E+00  0.00000000000E+00  0.15367311109E+04  0.15367311109E+04  0.25500000000E-02 0. -1.
         -2   -1    0    0    0  501 -0.00000000000E+00 -0.00000000000E+00 -0.10704687843E+03  0.10704687846E+03  0.25500000000E-02 0.  1.
    8880022    1    1    2    0    0  0.25928459814E+03 -0.16103311081E+03  0.11585769904E+04  0.12078296492E+04  0.15294330000E+03 0.  1.
    8880022    1    1    2    0    0 -0.25928459814E+03  0.16103311081E+03  0.27110724201E+03  0.43594834017E+03  0.15294330000E+03 0. -1.
<mgrwt>
<rscale>  0 0.34139686E+03</rscale>
<asrwt>0</asrwt>
<pdfrwt beam="1">  1        2 0.23642015E+00 0.34139686E+03</pdfrwt>
<pdfrwt beam="2">  1       -2 0.16468752E-01 0.34139686E+03</pdfrwt>
<totfact> 0.37991895E+02</totfact>
</mgrwt>
</event>
<event>
 4    1  0.5410820E-008  0.2757101E+03  0.7818608E-02  0.1098055E+00
         -2   -1    0    0    0  501 -0.00000000000E+00  0.00000000000E+00  0.72397638882E+03  0.72397638883E+03  0.25500000000E-02 0.  1.
          2   -1    0    0  501    0  0.00000000000E+00 -0.00000000000E+00 -0.17859736753E+04  0.17859736753E+04  0.25500000000E-02 0. -1.
    8880022    1    1    2    0    0 -0.21783555207E+03  0.71917256011E+02  0.68652743875E+03  0.73982159784E+03  0.15294330000E+03 0.  0.
    8880022    1    1    2    0    0  0.21783555207E+03 -0.71917256011E+02 -0.17485247252E+04  0.17701284663E+04  0.15294330000E+03 0.  0.
<mgrwt>
<rscale>  0 0.27571012E+03</rscale>
<asrwt>0</asrwt>
<pdfrwt beam="1">  1        2 0.27476518E+00 0.27571012E+03</pdfrwt>
<pdfrwt beam="2">  1       -2 0.11138098E+00 0.27571012E+03</pdfrwt>
<totfact> 0.65084229E+00</totfact>
</mgrwt>
</event>
<event>
 4    1  0.5410820E-008  0.6962352E+03  0.7818608E-02  0.9723692E-01
          2   -1    0    0  501    0  0.00000000000E+00  0.00000000000E+00  0.21955597856E+04  0.21955597856E+04  0.25500000000E-02 0. -1.
         -2   -1    0    0    0  501 -0.00000000000E+00 -0.00000000000E+00 -0.11600300600E+04  0.11600300600E+04  0.25500000000E-02 0.  1.
    8880022    1    1    2    0    0 -0.48185268363E+03 -0.47871682883E+03 -0.99194694327E+03  0.12119002443E+04  0.15294330000E+03 0.  0.
    8880022    1    1    2    0    0  0.48185268363E+03  0.47871682883E+03  0.20274766689E+04  0.21436896013E+04  0.15294330000E+03 0. -1.
<mgrwt>
<rscale>  0 0.69623521E+03</rscale>
<asrwt>0</asrwt>
<pdfrwt beam="1">  1        2 0.33777842E+00 0.69623521E+03</pdfrwt>
<pdfrwt beam="2">  1       -2 0.17846617E+00 0.69623521E+03</pdfrwt>
<totfact> 0.10213358E+00</totfact>
</mgrwt>
</event>
<event>
 4    1  0.5410820E-008  0.2679740E+03  0.7818608E-02  0.1102445E+00
          2   -1    0    0  501    0  0.00000000000E+00  0.00000000000E+00  0.10498059303E+04  0.10498059303E+04  0.25500000000E-02 0. -1.
         -2   -1    0    0    0  501 -0.00000000000E+00 -0.00000000000E+00 -0.34093919829E+03  0.34093919830E+03  0.25500000000E-02 0.  1.
    8880022    1    1    2    0    0 -0.87519869190E+02 -0.20188780999E+03 -0.26728118786E+03  0.37848289489E+03  0.15294330000E+03 0.  0.
    8880022    1    1    2    0    0  0.87519869190E+02  0.20188780999E+03  0.97614791991E+03  0.10122622338E+04  0.15294330000E+03 0. -1.
<mgrwt>
<rscale>  0 0.26797401E+03</rscale>
<asrwt>0</asrwt>
<pdfrwt beam="1">  1        2 0.16150860E+00 0.26797401E+03</pdfrwt>
<pdfrwt beam="2">  1       -2 0.52452185E-01 0.26797401E+03</pdfrwt>
<totfact> 0.86576800E+01</totfact>
</mgrwt>
</event>
<event>
 4    1  0.5410820E-008  0.2894722E+03  0.7818608E-02  0.1090625E+00
         -2   -1    0    0    0  501 -0.00000000000E+00  0.00000000000E+00  0.75667747915E+02  0.75667747958E+02  0.25500000000E-02 0.  1.
          2   -1    0    0  501    0  0.00000000000E+00 -0.00000000000E+00 -0.26893079876E+04  0.26893079876E+04  0.25500000000E-02 0. -1.
    8880022    1    1    2    0    0  0.13204317804E+03 -0.20728512959E+03 -0.23671284779E+04  0.23847623382E+04  0.15294330000E+03 0. -1.
    8880022    1    1    2    0    0 -0.13204317804E+03  0.20728512959E+03 -0.24651176178E+03  0.38021339735E+03  0.15294330000E+03 0.  0.
<mgrwt>
<rscale>  0 0.28947224E+03</rscale>
<asrwt>0</asrwt>
<pdfrwt beam="1">  1        2 0.41373962E+00 0.28947224E+03</pdfrwt>
<pdfrwt beam="2">  1       -2 0.11641194E-01 0.28947224E+03</pdfrwt>
<totfact> 0.16312273E+02</totfact>
</mgrwt>
</event>
<event>
 4    1  0.5410820E-008  0.1028005E+04  0.7818608E-02  0.9278351E-01
          2   -1    0    0  501    0  0.00000000000E+00  0.00000000000E+00  0.40655364691E+04  0.40655364691E+04  0.25500000000E-02 0. -1.
         -2   -1    0    0    0  501 -0.00000000000E+00 -0.00000000000E+00 -0.33350728413E+03  0.33350728414E+03  0.25500000000E-02 0.  1.
    8880022    1    1    2    0    0  0.19871444455E+03  0.99695334554E+03  0.83297172436E+03  0.13231163782E+04  0.15294330000E+03 0.  0.
    8880022    1    1    2    0    0 -0.19871444455E+03 -0.99695334554E+03  0.28990574606E+04  0.30759273750E+04  0.15294330000E+03 0.  0.
<mgrwt>
<rscale>  0 0.10280054E+04</rscale>
<asrwt>0</asrwt>
<pdfrwt beam="1">  1        2 0.62546708E+00 0.10280054E+04</pdfrwt>
<pdfrwt beam="2">  1       -2 0.51308818E-01 0.10280054E+04</pdfrwt>
<totfact> 0.11415643E+00</totfact>
</mgrwt>
</event>
<event>
 4    1  0.5410820E-008  0.6152925E+03  0.7818608E-02  0.9874177E-01
         -2   -1    0    0    0  501 -0.00000000000E+00  0.00000000000E+00  0.14380966234E+03  0.14380966236E+03  0.25500000000E-02 0.  1.
          2   -1    0    0  501    0  0.00000000000E+00 -0.00000000000E+00 -0.29136448845E+04  0.29136448845E+04  0.25500000000E-02 0. -1.
    8880022    1    1    2    0    0 -0.41160904776E+03  0.43101179630E+03 -0.91007996685E+03  0.10985583170E+04  0.15294330000E+03 0.  0.
    8880022    1    1    2    0    0  0.41160904776E+03 -0.43101179630E+03 -0.18597552553E+04  0.19588962299E+04  0.15294330000E+03 0.  0.
<mgrwt>
<rscale>  0 0.61529247E+03</rscale>
<asrwt>0</asrwt>
<pdfrwt beam="1">  1        2 0.44825302E+00 0.61529247E+03</pdfrwt>
<pdfrwt beam="2">  1       -2 0.22124566E-01 0.61529247E+03</pdfrwt>
<totfact> 0.37901360E+01</totfact>
</mgrwt>
</event>
<event>
 4    1  0.5410820E-008  0.6588644E+03  0.7818608E-02  0.9790286E-01
         -2   -1    0    0    0  501 -0.00000000000E+00  0.00000000000E+00  0.68161279466E+03  0.68161279466E+03  0.25500000000E-02 0.  1.
          2   -1    0    0  501    0  0.00000000000E+00 -0.00000000000E+00 -0.11385682875E+04  0.11385682875E+04  0.25500000000E-02 0. -1.
    8880022    1    1    2    0    0 -0.28326434208E+03  0.57486692487E+03 -0.83259897117E+03  0.10617548534E+04  0.15294330000E+03 0.  0.
    8880022    1    1    2    0    0  0.28326434208E+03 -0.57486692487E+03  0.37564347830E+03  0.75842622885E+03  0.15294330000E+03 0.  0.
<mgrwt>
<rscale>  0 0.65886442E+03</rscale>
<asrwt>0</asrwt>
<pdfrwt beam="1">  1        2 0.17516435E+00 0.65886442E+03</pdfrwt>
<pdfrwt beam="2">  1       -2 0.10486351E+00 0.65886442E+03</pdfrwt>
<totfact> 0.15668119E+01</totfact>
</mgrwt>
</event>
<event>
 4    1  0.5410820E-008  0.8219512E+03  0.7818608E-02  0.9528776E-01
          2   -1    0    0  501    0  0.00000000000E+00  0.00000000000E+00  0.12119954540E+04  0.12119954540E+04  0.25500000000E-02 0. -1.
         -2   -1    0    0    0  501 -0.00000000000E+00 -0.00000000000E+00 -0.76315629826E+03  0.76315629826E+03  0.25500000000E-02 0.  1.
    8880022    1    1    2    0    0 -0.67821562179E+03  0.43844682074E+03  0.73717197475E+03  0.11040952032E+04  0.15294330000E+03 0.  0.
    8880022    1    1    2    0    0  0.67821562179E+03 -0.43844682074E+03 -0.28833281899E+03  0.87105654913E+03  0.15294330000E+03 0.  0.
<mgrwt>
<rscale>  0 0.82195115E+03</rscale>
<asrwt>0</asrwt>
<pdfrwt beam="1">  1        2 0.18646084E+00 0.82195115E+03</pdfrwt>
<pdfrwt beam="2">  1       -2 0.11740866E+00 0.82195115E+03</pdfrwt>
<totfact> 0.10558785E+01</totfact>
</mgrwt>
</event>
<event>
 4    1  0.5410820E-008  0.6553284E+03  0.7818608E-02  0.9796832E-01
          2   -1    0    0  501    0  0.00000000000E+00  0.00000000000E+00  0.84907253140E+03  0.84907253141E+03  0.25500000000E-02 0. -1.
         -2   -1    0    0    0  501 -0.00000000000E+00 -0.00000000000E+00 -0.53670951027E+03  0.53670951028E+03  0.25500000000E-02 0.  1.
    8880022    1    1    2    0    0  0.47259168866E+02 -0.63547632885E+03 -0.10116865746E+02  0.65540643693E+03  0.15294330000E+03 0.  0.
    8880022    1    1    2    0    0 -0.47259168866E+02  0.63547632885E+03  0.32247988687E+03  0.73037560476E+03  0.15294330000E+03 0.  0.
<mgrwt>
<rscale>  0 0.65532835E+03</rscale>
<asrwt>0</asrwt>
<pdfrwt beam="1">  1        2 0.13062654E+00 0.65532835E+03</pdfrwt>
<pdfrwt beam="2">  1       -2 0.82570694E-01 0.65532835E+03</pdfrwt>
<totfact> 0.41849051E+01</totfact>
</mgrwt>
</event>
<event>
 4    1  0.5410820E-008  0.9711308E+03  0.7818608E-02  0.9340787E-01
          2   -1    0    0  501    0  0.00000000000E+00  0.00000000000E+00  0.11665890688E+04  0.11665890688E+04  0.25500000000E-02 0. -1.
         -2   -1    0    0    0  501 -0.00000000000E+00 -0.00000000000E+00 -0.10093497362E+04  0.10093497362E+04  0.25500000000E-02 0.  1.
    8880022    1    1    2    0    0  0.33448620730E+03  0.89878938816E+03  0.56403884152E+03  0.11230471294E+04  0.15294330000E+03 0.  0.
    8880022    1    1    2    0    0 -0.33448620730E+03 -0.89878938816E+03 -0.40679950886E+03  0.10528916756E+04  0.15294330000E+03 0.  0.
<mgrwt>
<rscale>  0 0.97113080E+03</rscale>
<asrwt>0</asrwt>
<pdfrwt beam="1">  1        2 0.17947524E+00 0.97113080E+03</pdfrwt>
<pdfrwt beam="2">  1       -2 0.15528458E+00 0.97113080E+03</pdfrwt>
<totfact> 0.53878580E+00</totfact>
</mgrwt>
</event>
<event>
 4    1  0.5410820E-008  0.3067673E+03  0.7818608E-02  0.1081906E+00
         -2   -1    0    0    0  501 -0.00000000000E+00  0.00000000000E+00  0.14454226858E+04  0.14454226858E+04  0.25500000000E-02 0.  1.
          2   -1    0    0  501    0  0.00000000000E+00 -0.00000000000E+00 -0.88961092375E+03  0.88961092376E+03  0.25500000000E-02 0. -1.
    8880022    1    1    2    0    0  0.12943283766E+03  0.23229650945E+03  0.14018885739E+04  0.14350601919E+04  0.15294330000E+03 0.  0.
    8880022    1    1    2    0    0 -0.12943283766E+03 -0.23229650945E+03 -0.84607681189E+03  0.89997341761E+03  0.15294330000E+03 0.  0.
<mgrwt>
<rscale>  0 0.30676731E+03</rscale>
<asrwt>0</asrwt>
<pdfrwt beam="1">  1        2 0.13686322E+00 0.30676731E+03</pdfrwt>
<pdfrwt beam="2">  1       -2 0.22237272E+00 0.30676731E+03</pdfrwt>
<totfact> 0.32385254E+00</totfact>
</mgrwt>
</event>
<event>
 4    1  0.5410820E-008  0.4133650E+03  0.7818608E-02  0.1039248E+00
         -2   -1    0    0    0  501 -0.00000000000E+00  0.00000000000E+00  0.29448234343E+03  0.29448234344E+03  0.25500000000E-02 0.  1.
          2   -1    0    0  501    0  0.00000000000E+00 -0.00000000000E+00 -0.13765215820E+04  0.13765215820E+04  0.25500000000E-02 0. -1.
    8880022    1    1    2    0    0  0.36501420605E+03 -0.11934663025E+03 -0.11764809177E+04  0.12469875667E+04  0.15294330000E+03 0.  0.
    8880022    1    1    2    0    0 -0.36501420605E+03  0.11934663025E+03  0.94441679080E+02  0.42401635880E+03  0.15294330000E+03 0.  0.
<mgrwt>
<rscale>  0 0.41336502E+03</rscale>
<asrwt>0</asrwt>
<pdfrwt beam="1">  1        2 0.21177255E+00 0.41336502E+03</pdfrwt>
<pdfrwt beam="2">  1       -2 0.45304977E-01 0.41336502E+03</pdfrwt>
<totfact> 0.73253893E+01</totfact>
</mgrwt>
</event>
<event>
 4    1  0.5410820E-008  0.3457946E+03  0.7818608E-02  0.1064354E+00
          2   -1    0    0  501    0  0.00000000000E+00  0.00000000000E+00  0.16862833197E+04  0.16862833197E+04  0.25500000000E-02 0. -1.
         -2   -1    0    0    0  501 -0.00000000000E+00 -0.00000000000E+00 -0.90951550151E+02  0.90951550187E+02  0.25500000000E-02 0.  1.
    8880022    1    1    2    0    0 -0.30520129642E+03 -0.55085413465E+02  0.38052917842E+03  0.51417540077E+03  0.15294330000E+03 0.  1.
    8880022    1    1    2    0    0  0.30520129642E+03  0.55085413465E+02  0.12148025912E+04  0.12630594691E+04  0.15294330000E+03 0.  0.
<mgrwt>
<rscale>  0 0.34579457E+03</rscale>
<asrwt>0</asrwt>
<pdfrwt beam="1">  1        2 0.25942822E+00 0.34579457E+03</pdfrwt>
<pdfrwt beam="2">  1       -2 0.13992545E-01 0.34579457E+03</pdfrwt>
<totfact> 0.41447147E+02</totfact>
</mgrwt>
</event>
<event>
 4    1  0.5410820E-008  0.6697439E+03  0.7818608E-02  0.9770421E-01
         -2   -1    0    0    0  501 -0.00000000000E+00  0.00000000000E+00  0.51606903860E+03  0.51606903861E+03  0.25500000000E-02 0.  1.
          2   -1    0    0  501    0  0.00000000000E+00 -0.00000000000E+00 -0.25570296257E+04  0.25570296257E+04  0.25500000000E-02 0. -1.
    8880022    1    1    2    0    0 -0.35936672404E+03  0.54407792629E+03 -0.22688565632E+04  0.23656430394E+04  0.15294330000E+03 0.  0.
    8880022    1    1    2    0    0  0.35936672404E+03 -0.54407792629E+03  0.22789597617E+03  0.70745562490E+03  0.15294330000E+03 0.  0.
<mgrwt>
<rscale>  0 0.66974390E+03</rscale>
<asrwt>0</asrwt>
<pdfrwt beam="1">  1        2 0.39338917E+00 0.66974390E+03</pdfrwt>
<pdfrwt beam="2">  1       -2 0.79395238E-01 0.66974390E+03</pdfrwt>
<totfact> 0.48433761E+00</totfact>
</mgrwt>
</event>
<event>
 4    1  0.5410820E-008  0.2261088E+04  0.7818608E-02  0.8493424E-01
          2   -1    0    0  501    0  0.00000000000E+00  0.00000000000E+00  0.36947393396E+04  0.36947393396E+04  0.25500000000E-02 0. -1.
         -2   -1    0    0    0  501 -0.00000000000E+00 -0.00000000000E+00 -0.20497931714E+04  0.20497931714E+04  0.25500000000E-02 0.  1.
    8880022    1    1    2    0    0 -0.69316555778E+03 -0.21467763057E+04  0.24597707834E+04  0.33411062475E+04  0.15294330000E+03 0.  0.
    8880022    1    1    2    0    0  0.69316555778E+03  0.21467763057E+04 -0.81482461529E+03  0.24034262635E+04  0.15294330000E+03 0.  0.
<mgrwt>
<rscale>  0 0.22610879E+04</rscale>
<asrwt>0</asrwt>
<pdfrwt beam="1">  1        2 0.56842144E+00 0.22610879E+04</pdfrwt>
<pdfrwt beam="2">  1       -2 0.31535279E+00 0.22610879E+04</pdfrwt>
<totfact> 0.12933274E-02</totfact>
</mgrwt>
</event>
<event>
 4    1  0.5410820E-008  0.5597439E+03  0.7818608E-02  0.9992634E-01
         -2   -1    0    0    0  501 -0.00000000000E+00  0.00000000000E+00  0.15572444821E+03  0.15572444823E+03  0.25500000000E-02 0.  1.
          2   -1    0    0  501    0  0.00000000000E+00 -0.00000000000E+00 -0.26691792265E+04  0.26691792265E+04  0.25500000000E-02 0. -1.
    8880022    1    1    2    0    0  0.50942662101E+03 -0.17437351778E+03 -0.19575948259E+04  0.20360478289E+04  0.15294330000E+03 0.  0.
    8880022    1    1    2    0    0 -0.50942662101E+03  0.17437351778E+03 -0.55585995232E+03  0.78885584583E+03  0.15294330000E+03 0.  0.
<mgrwt>
<rscale>  0 0.55974392E+03</rscale>
<asrwt>0</asrwt>
<pdfrwt beam="1">  1        2 0.41064292E+00 0.55974392E+03</pdfrwt>
<pdfrwt beam="2">  1       -2 0.23957609E-01 0.55974392E+03</pdfrwt>
<totfact> 0.46245685E+01</totfact>
</mgrwt>
</event>
<event>
 4    1  0.5410820E-008  0.9924697E+03  0.7818608E-02  0.9316843E-01
         -2   -1    0    0    0  501 -0.00000000000E+00  0.00000000000E+00  0.13150971818E+04  0.13150971818E+04  0.25500000000E-02 0.  1.
          2   -1    0    0  501    0  0.00000000000E+00 -0.00000000000E+00 -0.12076166655E+04  0.12076166655E+04  0.25500000000E-02 0. -1.
    8880022    1    1    2    0    0 -0.20474181888E+03  0.95900223940E+03 -0.72358458765E+03  0.12282389084E+04  0.15294330000E+03 0.  0.
    8880022    1    1    2    0    0  0.20474181888E+03 -0.95900223940E+03  0.83106510397E+03  0.12944749390E+04  0.15294330000E+03 0.  0.
<mgrwt>
<rscale>  0 0.99246973E+03</rscale>
<asrwt>0</asrwt>
<pdfrwt beam="1">  1        2 0.18578718E+00 0.99246973E+03</pdfrwt>
<pdfrwt beam="2">  1       -2 0.20232264E+00 0.99246973E+03</pdfrwt>
<totfact> 0.23909394E+00</totfact>
</mgrwt>
</event>
<event>
 4    1  0.5410820E-008  0.1046487E+04  0.7818608E-02  0.9258979E-01
          2   -1    0    0  501    0  0.00000000000E+00  0.00000000000E+00  0.48011441878E+04  0.48011441878E+04  0.25500000000E-02 0. -1.
         -2   -1    0    0    0  501 -0.00000000000E+00 -0.00000000000E+00 -0.29494165632E+03  0.29494165633E+03  0.25500000000E-02 0.  1.
    8880022    1    1    2    0    0 -0.48057999484E+03  0.91694376594E+03  0.34661173794E+04  0.36206497127E+04  0.15294330000E+03 0.  0.
    8880022    1    1    2    0    0  0.48057999484E+03 -0.91694376594E+03  0.10400851521E+04  0.14754361314E+04  0.15294330000E+03 0.  0.
<mgrwt>
<rscale>  0 0.10464868E+04</rscale>
<asrwt>0</asrwt>
<pdfrwt beam="1">  1        2 0.73863760E+00 0.10464868E+04</pdfrwt>
<pdfrwt beam="2">  1       -2 0.45375637E-01 0.10464868E+04</pdfrwt>
<totfact> 0.29568587E-01</totfact>
</mgrwt>
</event>
<event>
 4    1  0.5410820E-008  0.4559166E+03  0.7818608E-02  0.1025972E+00
         -2   -1    0    0    0  501 -0.00000000000E+00  0.00000000000E+00  0.24284885400E+03  0.24284885401E+03  0.25500000000E-02 0.  1.
          2   -1    0    0  501    0  0.00000000000E+00 -0.00000000000E+00 -0.28539708613E+04  0.28539708613E+04  0.25500000000E-02 0. -1.
    8880022    1    1    2    0    0  0.33844756029E+03 -0.26442685958E+03 -0.99814604524E+01  0.45602587394E+03  0.15294330000E+03 0.  0.
    8880022    1    1    2    0    0 -0.33844756029E+03  0.26442685958E+03 -0.26011405469E+04  0.26407938414E+04  0.15294330000E+03 0. -1.
<mgrwt>
<rscale>  0 0.45591662E+03</rscale>
<asrwt>0</asrwt>
<pdfrwt beam="1">  1        2 0.43907242E+00 0.45591662E+03</pdfrwt>
<pdfrwt beam="2">  1       -2 0.37361364E-01 0.45591662E+03</pdfrwt>
<totfact> 0.16303163E+01</totfact>
</mgrwt>
</event>
<event>
 4    1  0.5410820E-008  0.7367252E+03  0.7818608E-02  0.9656410E-01
         -2   -1    0    0    0  501 -0.00000000000E+00  0.00000000000E+00  0.10624034070E+04  0.10624034070E+04  0.25500000000E-02 0.  1.
          2   -1    0    0  501    0  0.00000000000E+00 -0.00000000000E+00 -0.78609429442E+03  0.78609429443E+03  0.25500000000E-02 0. -1.
    8880022    1    1    2    0    0  0.70423656667E+03 -0.15304671095E+03  0.68502510753E+03  0.10059937816E+04  0.15294330000E+03 0.  0.
    8880022    1    1    2    0    0 -0.70423656667E+03  0.15304671095E+03 -0.40871599491E+03  0.84250391992E+03  0.15294330000E+03 0.  0.
<mgrwt>
<rscale>  0 0.73672525E+03</rscale>
<asrwt>0</asrwt>
<pdfrwt beam="1">  1        2 0.12093758E+00 0.73672525E+03</pdfrwt>
<pdfrwt beam="2">  1       -2 0.16344668E+00 0.73672525E+03</pdfrwt>
<totfact> 0.85351802E+00</totfact>
</mgrwt>
</event>
<event>
 4    1  0.5410820E-008  0.2211573E+03  0.7818608E-02  0.1133023E+00
          2   -1    0    0  501    0  0.00000000000E+00  0.00000000000E+00  0.10727141559E+04  0.10727141559E+04  0.25500000000E-02 0. -1.
         -2   -1    0    0    0  501 -0.00000000000E+00 -0.00000000000E+00 -0.66400127078E+02  0.66400127127E+02  0.25500000000E-02 0.  1.
    8880022    1    1    2    0    0  0.43051947837E+02  0.15383578804E+03  0.82197026959E+03  0.85120250058E+03  0.15294330000E+03 0.  0.
    8880022    1    1    2    0    0 -0.43051947837E+02 -0.15383578804E+03  0.18434375925E+03  0.28791178247E+03  0.15294330000E+03 0.  0.
<mgrwt>
<rscale>  0 0.22115735E+03</rscale>
<asrwt>0</asrwt>
<pdfrwt beam="1">  1        2 0.16503294E+00 0.22115735E+03</pdfrwt>
<pdfrwt beam="2">  1       -2 0.10215404E-01 0.22115735E+03</pdfrwt>
<totfact> 0.15217249E+03</totfact>
</mgrwt>
</event>
<event>
 4    1  0.5410820E-008  0.4396032E+03  0.7818608E-02  0.1030869E+00
         -2   -1    0    0    0  501 -0.00000000000E+00  0.00000000000E+00  0.35398686023E+03  0.35398686024E+03  0.25500000000E-02 0.  1.
          2   -1    0    0  501    0  0.00000000000E+00 -0.00000000000E+00 -0.89315386563E+03  0.89315386564E+03  0.25500000000E-02 0. -1.
    8880022    1    1    2    0    0  0.40786977575E+03 -0.59174223315E+02  0.11921892253E+03  0.45548232367E+03  0.15294330000E+03 0.  0.
    8880022    1    1    2    0    0 -0.40786977575E+03  0.59174223315E+02 -0.65838592793E+03  0.79165840221E+03  0.15294330000E+03 0.  0.
<mgrwt>
<rscale>  0 0.43960323E+03</rscale>
<asrwt>0</asrwt>
<pdfrwt beam="1">  1        2 0.13740829E+00 0.43960323E+03</pdfrwt>
<pdfrwt beam="2">  1       -2 0.54459517E-01 0.43960323E+03</pdfrwt>
<totfact> 0.97974472E+01</totfact>
</mgrwt>
</event>
<event>
 4    1  0.5410820E-008  0.6637088E+03  0.7818608E-02  0.9781390E-01
         -2   -1    0    0    0  501 -0.00000000000E+00  0.00000000000E+00  0.60475042734E+03  0.60475042734E+03  0.25500000000E-02 0.  1.
          2   -1    0    0  501    0  0.00000000000E+00 -0.00000000000E+00 -0.13676188144E+04  0.13676188144E+04  0.25500000000E-02 0. -1.
    8880022    1    1    2    0    0  0.20271635834E+03  0.61320781545E+03  0.29277598578E+03  0.72541517611E+03  0.15294330000E+03 0.  0.
    8880022    1    1    2    0    0 -0.20271635834E+03 -0.61320781545E+03 -0.10556443728E+04  0.12469540656E+04  0.15294330000E+03 0.  0.
<mgrwt>
<rscale>  0 0.66370882E+03</rscale>
<asrwt>0</asrwt>
<pdfrwt beam="1">  1        2 0.21040289E+00 0.66370882E+03</pdfrwt>
<pdfrwt beam="2">  1       -2 0.93038528E-01 0.66370882E+03</pdfrwt>
<totfact> 0.15276141E+01</totfact>
</mgrwt>
</event>
<event>
 4    1  0.5410820E-008  0.8116843E+03  0.7818608E-02  0.9543257E-01
          2   -1    0    0  501    0  0.00000000000E+00  0.00000000000E+00  0.15436873320E+04  0.15436873320E+04  0.25500000000E-02 0. -1.
         -2   -1    0    0    0  501 -0.00000000000E+00 -0.00000000000E+00 -0.51165705753E+03  0.51165705754E+03  0.25500000000E-02 0.  1.
    8880022    1    1    2    0    0  0.29958943366E+03  0.73870562437E+03  0.93455108329E+03  0.12378276166E+04  0.15294330000E+03 0.  0.
    8880022    1    1    2    0    0 -0.29958943366E+03 -0.73870562437E+03  0.97479191171E+02  0.81751677289E+03  0.15294330000E+03 0.  0.
<mgrwt>
<rscale>  0 0.81168435E+03</rscale>
<asrwt>0</asrwt>
<pdfrwt beam="1">  1        2 0.23749035E+00 0.81168435E+03</pdfrwt>
<pdfrwt beam="2">  1       -2 0.78716472E-01 0.81168435E+03</pdfrwt>
<totfact> 0.17490140E+01</totfact>
</mgrwt>
</event>
<event>
 4    1  0.5410820E-008  0.5496150E+03  0.7818608E-02  0.1001583E+00
         -2   -1    0    0    0  501 -0.00000000000E+00  0.00000000000E+00  0.60396469637E+03  0.60396469638E+03  0.25500000000E-02 0.  1.
          2   -1    0    0  501    0  0.00000000000E+00 -0.00000000000E+00 -0.72098223237E+03  0.72098223237E+03  0.25500000000E-02 0. -1.
    8880022    1    1    2    0    0 -0.11579847514E+03 -0.51504921897E+03 -0.42514165749E+03  0.69485398952E+03  0.15294330000E+03 0.  0.
    8880022    1    1    2    0    0  0.11579847514E+03  0.51504921897E+03  0.30812412149E+03  0.63009293923E+03  0.15294330000E+03 0.  0.
<mgrwt>
<rscale>  0 0.54961499E+03</rscale>
<asrwt>0</asrwt>
<pdfrwt beam="1">  1        2 0.11092034E+00 0.54961499E+03</pdfrwt>
<pdfrwt beam="2">  1       -2 0.92917646E-01 0.54961499E+03</pdfrwt>
<totfact> 0.39986220E+01</totfact>
</mgrwt>
</event>
<event>
 4    1  0.5410820E-008  0.5349975E+03  0.7818608E-02  0.1005027E+00
          2   -1    0    0  501    0  0.00000000000E+00  0.00000000000E+00  0.98666332683E+03  0.98666332684E+03  0.25500000000E-02 0. -1.
         -2   -1    0    0    0  501 -0.00000000000E+00 -0.00000000000E+00 -0.95719511106E+03  0.95719511106E+03  0.25500000000E-02 0.  1.
    8880022    1    1    2    0    0 -0.31413644869E+03  0.40515294985E+03  0.82612694688E+03  0.98422965132E+03  0.15294330000E+03 0.  0.
    8880022    1    1    2    0    0  0.31413644869E+03 -0.40515294985E+03 -0.79665873111E+03  0.95962878658E+03  0.15294330000E+03 0.  0.
<mgrwt>
<rscale>  0 0.53499745E+03</rscale>
<asrwt>0</asrwt>
<pdfrwt beam="1">  1        2 0.15179436E+00 0.53499745E+03</pdfrwt>
<pdfrwt beam="2">  1       -2 0.14726079E+00 0.53499745E+03</pdfrwt>
<totfact> 0.84923687E+00</totfact>
</mgrwt>
</event>
<event>
 4    1  0.5410820E-008  0.2232552E+03  0.7818608E-02  0.1131479E+00
         -2   -1    0    0    0  501 -0.00000000000E+00  0.00000000000E+00  0.33584012905E+03  0.33584012906E+03  0.25500000000E-02 0.  1.
          2   -1    0    0  501    0  0.00000000000E+00 -0.00000000000E+00 -0.34126725324E+03  0.34126725325E+03  0.25500000000E-02 0. -1.
    8880022    1    1    2    0    0 -0.10217658445E+03  0.12653529421E+03 -0.25721800496E+03  0.34059358506E+03  0.15294330000E+03 0.  0.
    8880022    1    1    2    0    0  0.10217658445E+03 -0.12653529421E+03  0.25179088077E+03  0.33651379726E+03  0.15294330000E+03 0.  0.
<mgrwt>
<rscale>  0 0.22325521E+03</rscale>
<asrwt>0</asrwt>
<pdfrwt beam="1">  1        2 0.52502655E-01 0.22325521E+03</pdfrwt>
<pdfrwt beam="2">  1       -2 0.51667712E-01 0.22325521E+03</pdfrwt>
<totfact> 0.34421924E+02</totfact>
</mgrwt>
</event>
<event>
 4    1  0.5410820E-008  0.7215773E+03  0.7818608E-02  0.9681027E-01
          2   -1    0    0  501    0  0.00000000000E+00  0.00000000000E+00  0.10946835355E+04  0.10946835355E+04  0.25500000000E-02 0. -1.
         -2   -1    0    0    0  501 -0.00000000000E+00 -0.00000000000E+00 -0.84600484234E+03  0.84600484235E+03  0.25500000000E-02 0.  1.
    8880022    1    1    2    0    0 -0.58533305674E+03  0.39327770125E+03  0.76636895636E+03  0.10526134941E+04  0.15294330000E+03 0.  0.
    8880022    1    1    2    0    0  0.58533305674E+03 -0.39327770125E+03 -0.51769026319E+03  0.88807488380E+03  0.15294330000E+03 0.  0.
<mgrwt>
<rscale>  0 0.72157729E+03</rscale>
<asrwt>0</asrwt>
<pdfrwt beam="1">  1        2 0.16841285E+00 0.72157729E+03</pdfrwt>
<pdfrwt beam="2">  1       -2 0.13015459E+00 0.72157729E+03</pdfrwt>
<totfact> 0.97163439E+00</totfact>
</mgrwt>
</event>
<event>
 4    1  0.5410820E-008  0.1517876E+04  0.7818608E-02  0.8872652E-01
         -2   -1    0    0    0  501 -0.00000000000E+00  0.00000000000E+00  0.19552168052E+04  0.19552168052E+04  0.25500000000E-02 0.  1.
          2   -1    0    0  501    0  0.00000000000E+00 -0.00000000000E+00 -0.16827064426E+04  0.16827064426E+04  0.25500000000E-02 0. -1.
    8880022    1    1    2    0    0  0.49155891615E+03  0.14279091555E+04 -0.85957314736E+03  0.17443658943E+04  0.15294330000E+03 0.  0.
    8880022    1    1    2    0    0 -0.49155891615E+03 -0.14279091555E+04  0.11320835100E+04  0.18935573535E+04  0.15294330000E+03 0.  0.
<mgrwt>
<rscale>  0 0.15178756E+04</rscale>
<asrwt>0</asrwt>
<pdfrwt beam="1">  1        2 0.25887791E+00 0.15178756E+04</pdfrwt>
<pdfrwt beam="2">  1       -2 0.30080259E+00 0.15178756E+04</pdfrwt>
<totfact> 0.29542385E-01</totfact>
</mgrwt>
</event>
<event>
 4    1  0.5410820E-008  0.1039058E+04  0.7818608E-02  0.9266715E-01
         -2   -1    0    0    0  501 -0.00000000000E+00  0.00000000000E+00  0.14325277404E+04  0.14325277405E+04  0.25500000000E-02 0.  1.
          2   -1    0    0  501    0  0.00000000000E+00 -0.00000000000E+00 -0.14075538294E+04  0.14075538294E+04  0.25500000000E-02 0. -1.
    8880022    1    1    2    0    0 -0.10277262067E+04 -0.52747022093E+01  0.98036696433E+03  0.14285517198E+04  0.15294330000E+03 0.  0.
    8880022    1    1    2    0    0  0.10277262067E+04  0.52747022093E+01 -0.95539305326E+03  0.14115298500E+04  0.15294330000E+03 0.  0.
<mgrwt>
<rscale>  0 0.10390576E+04</rscale>
<asrwt>0</asrwt>
<pdfrwt beam="1">  1        2 0.21654674E+00 0.10390576E+04</pdfrwt>
<pdfrwt beam="2">  1       -2 0.22038888E+00 0.10390576E+04</pdfrwt>
<totfact> 0.13930730E+00</totfact>
</mgrwt>
</event>
<event>
 4    1  0.5410820E-008  0.5502554E+03  0.7818608E-02  0.1001435E+00
         -2   -1    0    0    0  501 -0.00000000000E+00  0.00000000000E+00  0.29444842026E+03  0.29444842027E+03  0.25500000000E-02 0.  1.
          2   -1    0    0  501    0  0.00000000000E+00 -0.00000000000E+00 -0.12632019514E+04  0.12632019514E+04  0.25500000000E-02 0. -1.
    8880022    1    1    2    0    0  0.52389102620E+03 -0.70196418071E+02 -0.82022872675E+03  0.98770246615E+03  0.15294330000E+03 0. -1.
    8880022    1    1    2    0    0 -0.52389102620E+03  0.70196418071E+02 -0.14852480434E+03  0.56994790548E+03  0.15294330000E+03 0.  1.
<mgrwt>
<rscale>  0 0.55025539E+03</rscale>
<asrwt>0</asrwt>
<pdfrwt beam="1">  1        2 0.19433876E+00 0.55025539E+03</pdfrwt>
<pdfrwt beam="2">  1       -2 0.45299758E-01 0.55025539E+03</pdfrwt>
<totfact> 0.83288492E+01</totfact>
</mgrwt>
</event>
<event>
 4    1  0.5410820E-008  0.2339359E+03  0.7818608E-02  0.1123900E+00
         -2   -1    0    0    0  501 -0.00000000000E+00  0.00000000000E+00  0.10662272759E+03  0.10662272762E+03  0.25500000000E-02 0.  1.
          2   -1    0    0  501    0  0.00000000000E+00 -0.00000000000E+00 -0.12514155154E+04  0.12514155154E+04  0.25500000000E-02 0. -1.
    8880022    1    1    2    0    0 -0.16865730293E+03  0.53750237555E+02 -0.50898164794E+02  0.23940895987E+03  0.15294330000E+03 0.  0.
    8880022    1    1    2    0    0  0.16865730293E+03 -0.53750237555E+02 -0.10938946230E+04  0.11186292832E+04  0.15294330000E+03 0.  0.
<mgrwt>
<rscale>  0 0.23393595E+03</rscale>
<asrwt>0</asrwt>
<pdfrwt beam="1">  1        2 0.19252545E+00 0.23393595E+03</pdfrwt>
<pdfrwt beam="2">  1       -2 0.16403497E-01 0.23393595E+03</pdfrwt>
<totfact> 0.55526912E+02</totfact>
</mgrwt>
</event>
<event>
 4    1  0.5410820E-008  0.4363985E+03  0.7818608E-02  0.1031858E+00
         -2   -1    0    0    0  501 -0.00000000000E+00  0.00000000000E+00  0.77587765245E+03  0.77587765245E+03  0.25500000000E-02 0.  1.
          2   -1    0    0  501    0  0.00000000000E+00 -0.00000000000E+00 -0.11731239740E+04  0.11731239740E+04  0.25500000000E-02 0. -1.
    8880022    1    1    2    0    0  0.25627917168E+03  0.31839122115E+03  0.66795270456E+03  0.79787496018E+03  0.15294330000E+03 0.  1.
    8880022    1    1    2    0    0 -0.25627917168E+03 -0.31839122115E+03 -0.10651990261E+04  0.11511266663E+04  0.15294330000E+03 0.  0.
<mgrwt>
<rscale>  0 0.43639848E+03</rscale>
<asrwt>0</asrwt>
<pdfrwt beam="1">  1        2 0.18048061E+00 0.43639848E+03</pdfrwt>
<pdfrwt beam="2">  1       -2 0.11936579E+00 0.43639848E+03</pdfrwt>
<totfact> 0.11340705E+01</totfact>
</mgrwt>
</event>
<event>
 4    1  0.5410820E-008  0.4729627E+03  0.7818608E-02  0.1021087E+00
         -2   -1    0    0    0  501 -0.00000000000E+00  0.00000000000E+00  0.43412404131E+03  0.43412404131E+03  0.25500000000E-02 0.  1.
          2   -1    0    0  501    0  0.00000000000E+00 -0.00000000000E+00 -0.98509722991E+03  0.98509722991E+03  0.25500000000E-02 0. -1.
    8880022    1    1    2    0    0  0.20216145386E+03  0.39929042693E+03  0.21457066915E+03  0.51935953206E+03  0.15294330000E+03 0.  0.
    8880022    1    1    2    0    0 -0.20216145386E+03 -0.39929042693E+03 -0.76554385775E+03  0.89986173917E+03  0.15294330000E+03 0.  0.
<mgrwt>
<rscale>  0 0.47296274E+03</rscale>
<asrwt>0</asrwt>
<pdfrwt beam="1">  1        2 0.15155342E+00 0.47296274E+03</pdfrwt>
<pdfrwt beam="2">  1       -2 0.66788314E-01 0.47296274E+03</pdfrwt>
<totfact> 0.55429736E+01</totfact>
</mgrwt>
</event>
<event>
 4    1  0.5410820E-008  0.4064540E+03  0.7818608E-02  0.1041568E+00
         -2   -1    0    0    0  501 -0.00000000000E+00  0.00000000000E+00  0.12536562972E+04  0.12536562972E+04  0.25500000000E-02 0.  1.
          2   -1    0    0  501    0  0.00000000000E+00 -0.00000000000E+00 -0.20577780796E+04  0.20577780796E+04  0.25500000000E-02 0. -1.
    8880022    1    1    2    0    0 -0.23538615541E+03  0.29394999333E+03  0.11997638146E+04  0.12667431092E+04  0.15294330000E+03 0.  1.
    8880022    1    1    2    0    0  0.23538615541E+03 -0.29394999333E+03 -0.20038855970E+04  0.20446912676E+04  0.15294330000E+03 0.  0.
<mgrwt>
<rscale>  0 0.40645405E+03</rscale>
<asrwt>0</asrwt>
<pdfrwt beam="1">  1        2 0.31658124E+00 0.40645405E+03</pdfrwt>
<pdfrwt beam="2">  1       -2 0.19287020E+00 0.40645405E+03</pdfrwt>
<totfact> 0.10583293E+00</totfact>
</mgrwt>
</event>
<event>
 4    1  0.5410820E-008  0.9558448E+03  0.7818608E-02  0.9358345E-01
          2   -1    0    0  501    0  0.00000000000E+00  0.00000000000E+00  0.17809860615E+04  0.17809860615E+04  0.25500000000E-02 0. -1.
         -2   -1    0    0    0  501 -0.00000000000E+00 -0.00000000000E+00 -0.64707220362E+03  0.64707220363E+03  0.25500000000E-02 0.  1.
    8880022    1    1    2    0    0 -0.62523681176E+03  0.70663038767E+03  0.14334978691E+02  0.95595225832E+03  0.15294330000E+03 0.  0.
    8880022    1    1    2    0    0  0.62523681176E+03 -0.70663038767E+03  0.11195788792E+04  0.14721060068E+04  0.15294330000E+03 0.  0.
<mgrwt>
<rscale>  0 0.95584477E+03</rscale>
<asrwt>0</asrwt>
<pdfrwt beam="1">  1        2 0.27399786E+00 0.95584477E+03</pdfrwt>
<pdfrwt beam="2">  1       -2 0.99549569E-01 0.95584477E+03</pdfrwt>
<totfact> 0.74034119E+00</totfact>
</mgrwt>
</event>
<event>
 4    1  0.5410820E-008  0.3708423E+03  0.7818608E-02  0.1054371E+00
          2   -1    0    0  501    0  0.00000000000E+00  0.00000000000E+00  0.54564091377E+03  0.54564091377E+03  0.25500000000E-02 0. -1.
         -2   -1    0    0    0  501 -0.00000000000E+00 -0.00000000000E+00 -0.27405481762E+03  0.27405481763E+03  0.25500000000E-02 0.  1.
    8880022    1    1    2    0    0  0.30738203750E+03  0.14017371161E+03  0.25195095706E+03  0.44833394271E+03  0.15294330000E+03 0.  0.
    8880022    1    1    2    0    0 -0.30738203750E+03 -0.14017371161E+03  0.19635139086E+02  0.37136178870E+03  0.15294330000E+03 0.  1.
<mgrwt>
<rscale>  0 0.37084234E+03</rscale>
<asrwt>0</asrwt>
<pdfrwt beam="1">  1        2 0.83944756E-01 0.37084234E+03</pdfrwt>
<pdfrwt beam="2">  1       -2 0.42162280E-01 0.37084234E+03</pdfrwt>
<totfact> 0.30357583E+02</totfact>
</mgrwt>
</event>
<event>
 4    1  0.5410820E-008  0.9560689E+03  0.7818608E-02  0.9358085E-01
          2   -1    0    0  501    0  0.00000000000E+00  0.00000000000E+00  0.23179193537E+04  0.23179193537E+04  0.25500000000E-02 0. -1.
         -2   -1    0    0    0  501 -0.00000000000E+00 -0.00000000000E+00 -0.43026943151E+03  0.43026943152E+03  0.25500000000E-02 0.  1.
    8880022    1    1    2    0    0  0.47086618141E+03  0.81790041982E+03  0.54679715502E+03  0.11013876880E+04  0.15294330000E+03 0.  0.
    8880022    1    1    2    0    0 -0.47086618141E+03 -0.81790041982E+03  0.13408527672E+04  0.16468010972E+04  0.15294330000E+03 0.  0.
<mgrwt>
<rscale>  0 0.95606888E+03</rscale>
<asrwt>0</asrwt>
<pdfrwt beam="1">  1        2 0.35660298E+00 0.95606888E+03</pdfrwt>
<pdfrwt beam="2">  1       -2 0.66195296E-01 0.95606888E+03</pdfrwt>
<totfact> 0.94212457E+00</totfact>
</mgrwt>
</event>
<event>
 4    1  0.5410820E-008  0.4200100E+03  0.7818608E-02  0.1037063E+00
          2   -1    0    0  501    0  0.00000000000E+00  0.00000000000E+00  0.41279936399E+04  0.41279936399E+04  0.25500000000E-02 0. -1.
         -2   -1    0    0    0  501 -0.00000000000E+00 -0.00000000000E+00 -0.11139374537E+03  0.11139374539E+03  0.25500000000E-02 0.  1.
    8880022    1    1    2    0    0 -0.37940543060E+03 -0.95227655263E+02  0.34415295623E+03  0.54300064216E+03  0.15294330000E+03 0.  0.
    8880022    1    1    2    0    0  0.37940543060E+03  0.95227655263E+02  0.36724469383E+04  0.36963867431E+04  0.15294330000E+03 0. -1.
<mgrwt>
<rscale>  0 0.42001005E+03</rscale>
<asrwt>0</asrwt>
<pdfrwt beam="1">  1        2 0.63507584E+00 0.42001005E+03</pdfrwt>
<pdfrwt beam="2">  1       -2 0.17137502E-01 0.42001005E+03</pdfrwt>
<totfact> 0.90995487E+00</totfact>
</mgrwt>
</event>
<event>
 4    1  0.6963467E-008  0.5503982E+03  0.7818608E-02  0.1001402E+00
          2   -1    0    0  501    0  0.00000000000E+00  0.00000000000E+00  0.24577117687E+04  0.24577117687E+04  0.25500000000E-02 0. -1.
         -2   -1    0    0    0  501 -0.00000000000E+00 -0.00000000000E+00 -0.15627076261E+04  0.15627076261E+04  0.25500000000E-02 0.  1.
    8880022    1    1    2    0    0 -0.47241033956E+03 -0.23743429510E+03 -0.14818007105E+04  0.15807186885E+04  0.15294330000E+03 0.  0.
    8880022    1    1    2    0    0  0.47241033956E+03  0.23743429510E+03  0.23768048532E+04  0.24397007063E+04  0.15294330000E+03 0. -1.
<mgrwt>
<rscale>  0 0.55039824E+03</rscale>
<asrwt>0</asrwt>
<pdfrwt beam="1">  1        2 0.37810950E+00 0.55039824E+03</pdfrwt>
<pdfrwt beam="2">  1       -2 0.24041656E+00 0.55039824E+03</pdfrwt>
<totfact> 0.30629162E-01</totfact>
</mgrwt>
</event>
<event>
 4    1  0.5410820E-008  0.5151412E+03  0.7818608E-02  0.1009901E+00
         -2   -1    0    0    0  501 -0.00000000000E+00  0.00000000000E+00  0.10044596896E+03  0.10044596900E+03  0.25500000000E-02 0.  1.
          2   -1    0    0  501    0  0.00000000000E+00 -0.00000000000E+00 -0.37172883136E+04  0.37172883136E+04  0.25500000000E-02 0. -1.
    8880022    1    1    2    0    0  0.46914970271E+03  0.14791010797E+03 -0.28351142394E+04  0.28815348770E+04  0.15294330000E+03 0.  0.
    8880022    1    1    2    0    0 -0.46914970271E+03 -0.14791010797E+03 -0.78172810519E+03  0.93619940561E+03  0.15294330000E+03 0.  0.
<mgrwt>
<rscale>  0 0.51514124E+03</rscale>
<asrwt>0</asrwt>
<pdfrwt beam="1">  1        2 0.57189040E+00 0.51514124E+03</pdfrwt>
<pdfrwt beam="2">  1       -2 0.15453229E-01 0.51514124E+03</pdfrwt>
<totfact> 0.21584559E+01</totfact>
</mgrwt>
</event>
<event>
 4    1  0.5410820E-008  0.7567949E+03  0.7818608E-02  0.9624750E-01
         -2   -1    0    0    0  501 -0.00000000000E+00  0.00000000000E+00  0.29727631449E+03  0.29727631451E+03  0.25500000000E-02 0.  1.
          2   -1    0    0  501    0  0.00000000000E+00 -0.00000000000E+00 -0.20012605049E+04  0.20012605049E+04  0.25500000000E-02 0. -1.
    8880022    1    1    2    0    0  0.74113687792E+03 -0.79385219065E+01 -0.63004143905E+03  0.98472877478E+03  0.15294330000E+03 0.  0.
    8880022    1    1    2    0    0 -0.74113687792E+03  0.79385219065E+01 -0.10739427514E+04  0.13138080446E+04  0.15294330000E+03 0.  0.
<mgrwt>
<rscale>  0 0.75679492E+03</rscale>
<asrwt>0</asrwt>
<pdfrwt beam="1">  1        2 0.30788622E+00 0.75679492E+03</pdfrwt>
<pdfrwt beam="2">  1       -2 0.45734819E-01 0.75679492E+03</pdfrwt>
<totfact> 0.31192300E+01</totfact>
</mgrwt>
</event>
<event>
 4    1  0.5410820E-008  0.8075356E+03  0.7818608E-02  0.9549173E-01
         -2   -1    0    0    0  501 -0.00000000000E+00  0.00000000000E+00  0.22187388519E+03  0.22187388521E+03  0.25500000000E-02 0.  1.
          2   -1    0    0  501    0  0.00000000000E+00 -0.00000000000E+00 -0.32886454088E+04  0.32886454088E+04  0.25500000000E-02 0. -1.
    8880022    1    1    2    0    0 -0.59780585128E+03 -0.52091295767E+03 -0.21056185132E+04  0.22551592231E+04  0.15294330000E+03 0.  0.
    8880022    1    1    2    0    0  0.59780585128E+03  0.52091295767E+03 -0.96115301046E+03  0.12553600710E+04  0.15294330000E+03 0.  0.
<mgrwt>
<rscale>  0 0.80753563E+03</rscale>
<asrwt>0</asrwt>
<pdfrwt beam="1">  1        2 0.50594541E+00 0.80753563E+03</pdfrwt>
<pdfrwt beam="2">  1       -2 0.34134446E-01 0.80753563E+03</pdfrwt>
<totfact> 0.96684175E+00</totfact>
</mgrwt>
</event>
<event>
 4    1  0.5410820E-008  0.2531457E+03  0.7818608E-02  0.1111333E+00
          2   -1    0    0  501    0  0.00000000000E+00  0.00000000000E+00  0.12751903129E+04  0.12751903129E+04  0.25500000000E-02 0. -1.
         -2   -1    0    0    0  501 -0.00000000000E+00 -0.00000000000E+00 -0.27752341959E+03  0.27752341960E+03  0.25500000000E-02 0.  1.
    8880022    1    1    2    0    0  0.18964154741E+03  0.68754390851E+02  0.12013921025E+04  0.12277726662E+04  0.15294330000E+03 0. -1.
    8880022    1    1    2    0    0 -0.18964154741E+03 -0.68754390851E+02 -0.20372520916E+03  0.32494106639E+03  0.15294330000E+03 0.  0.
<mgrwt>
<rscale>  0 0.25314568E+03</rscale>
<asrwt>0</asrwt>
<pdfrwt beam="1">  1        2 0.19618313E+00 0.25314568E+03</pdfrwt>
<pdfrwt beam="2">  1       -2 0.42695910E-01 0.25314568E+03</pdfrwt>
<totfact> 0.96787264E+01</totfact>
</mgrwt>
</event>
<event>
 4    1  0.5410820E-008  0.7756412E+03  0.7818608E-02  0.9595960E-01
         -2   -1    0    0    0  501 -0.00000000000E+00  0.00000000000E+00  0.33125942267E+03  0.33125942268E+03  0.25500000000E-02 0.  1.
          2   -1    0    0  501    0  0.00000000000E+00 -0.00000000000E+00 -0.39408737541E+04  0.39408737541E+04  0.25500000000E-02 0. -1.
    8880022    1    1    2    0    0 -0.62353117955E+03  0.43524309847E+03 -0.33732510279E+04  0.34612774862E+04  0.15294330000E+03 0.  0.
    8880022    1    1    2    0    0  0.62353117955E+03 -0.43524309847E+03 -0.23636330358E+03  0.81085569057E+03  0.15294330000E+03 0.  0.
<mgrwt>
<rscale>  0 0.77564124E+03</rscale>
<asrwt>0</asrwt>
<pdfrwt beam="1">  1        2 0.60628823E+00 0.77564124E+03</pdfrwt>
<pdfrwt beam="2">  1       -2 0.50962991E-01 0.77564124E+03</pdfrwt>
<totfact> 0.15297758E+00</totfact>
</mgrwt>
</event>
<event>
 4    1  0.5410820E-008  0.9618756E+03  0.7818608E-02  0.9351376E-01
          2   -1    0    0  501    0  0.00000000000E+00  0.00000000000E+00  0.97403426843E+03  0.97403426844E+03  0.25500000000E-02 0. -1.
         -2   -1    0    0    0  501 -0.00000000000E+00 -0.00000000000E+00 -0.11105163052E+04  0.11105163052E+04  0.25500000000E-02 0.  1.
    8880022    1    1    2    0    0  0.53678764525E+03 -0.78337225361E+03  0.32818032208E+03  0.10163203435E+04  0.15294330000E+03 0.  0.
    8880022    1    1    2    0    0 -0.53678764525E+03  0.78337225361E+03 -0.46466235884E+03  0.10682302301E+04  0.15294330000E+03 0.  0.
<mgrwt>
<rscale>  0 0.96187562E+03</rscale>
<asrwt>0</asrwt>
<pdfrwt beam="1">  1        2 0.14985143E+00 0.96187562E+03</pdfrwt>
<pdfrwt beam="2">  1       -2 0.17084866E+00 0.96187562E+03</pdfrwt>
<totfact> 0.54762165E+00</totfact>
</mgrwt>
</event>
<event>
 4    1  0.5410820E-008  0.3066139E+03  0.7818608E-02  0.1081980E+00
         -2   -1    0    0    0  501 -0.00000000000E+00  0.00000000000E+00  0.82589362206E+02  0.82589362246E+02  0.25500000000E-02 0.  1.
          2   -1    0    0  501    0  0.00000000000E+00 -0.00000000000E+00 -0.30337367171E+04  0.30337367171E+04  0.25500000000E-02 0. -1.
    8880022    1    1    2    0    0 -0.21615938234E+03 -0.15458193114E+03 -0.24395087833E+03  0.39182156151E+03  0.15294330000E+03 0.  0.
    8880022    1    1    2    0    0  0.21615938234E+03  0.15458193114E+03 -0.27071964766E+04  0.27245045178E+04  0.15294330000E+03 0.  0.
<mgrwt>
<rscale>  0 0.30661393E+03</rscale>
<asrwt>0</asrwt>
<pdfrwt beam="1">  1        2 0.46672864E+00 0.30661393E+03</pdfrwt>
<pdfrwt beam="2">  1       -2 0.12706058E-01 0.30661393E+03</pdfrwt>
<totfact> 0.88799400E+01</totfact>
</mgrwt>
</event>
<event>
 4    1  0.5410820E-008  0.1110827E+04  0.7818608E-02  0.9194703E-01
         -2   -1    0    0    0  501 -0.00000000000E+00  0.00000000000E+00  0.12158264927E+04  0.12158264927E+04  0.25500000000E-02 0.  1.
          2   -1    0    0  501    0  0.00000000000E+00 -0.00000000000E+00 -0.14077032298E+04  0.14077032298E+04  0.25500000000E-02 0. -1.
    8880022    1    1    2    0    0 -0.10924202476E+04  0.13100406876E+03  0.59699417978E+03  0.12610859475E+04  0.15294330000E+03 0.  0.
    8880022    1    1    2    0    0  0.10924202476E+04 -0.13100406876E+03 -0.78887091694E+03  0.13624437750E+04  0.15294330000E+03 0.  0.
<mgrwt>
<rscale>  0 0.11108266E+04</rscale>
<asrwt>0</asrwt>
<pdfrwt beam="1">  1        2 0.21656973E+00 0.11108266E+04</pdfrwt>
<pdfrwt beam="2">  1       -2 0.18705023E+00 0.11108266E+04</pdfrwt>
<totfact> 0.22770256E+00</totfact>
</mgrwt>
</event>
<event>
 4    1  0.5410820E-008  0.5073862E+03  0.7818608E-02  0.1011869E+00
         -2   -1    0    0    0  501 -0.00000000000E+00  0.00000000000E+00  0.30555212077E+03  0.30555212078E+03  0.25500000000E-02 0.  1.
          2   -1    0    0  501    0  0.00000000000E+00 -0.00000000000E+00 -0.31753553512E+04  0.31753553512E+04  0.25500000000E-02 0. -1.
    8880022    1    1    2    0    0 -0.45484617117E+03  0.16481511743E+03  0.56883417703E+02  0.51056482310E+03  0.15294330000E+03 0.  0.
    8880022    1    1    2    0    0  0.45484617117E+03 -0.16481511743E+03 -0.29266866481E+04  0.29703426489E+04  0.15294330000E+03 0.  0.
<mgrwt>
<rscale>  0 0.50738616E+03</rscale>
<asrwt>0</asrwt>
<pdfrwt beam="1">  1        2 0.48851618E+00 0.50738616E+03</pdfrwt>
<pdfrwt beam="2">  1       -2 0.47008021E-01 0.50738616E+03</pdfrwt>
<totfact> 0.65490132E+00</totfact>
</mgrwt>
</event>
<event>
 4    1  0.5410820E-008  0.5289767E+03  0.7818608E-02  0.1006481E+00
          2   -1    0    0  501    0  0.00000000000E+00  0.00000000000E+00  0.63807060151E+03  0.63807060152E+03  0.25500000000E-02 0. -1.
         -2   -1    0    0    0  501 -0.00000000000E+00 -0.00000000000E+00 -0.53799561744E+03  0.53799561745E+03  0.25500000000E-02 0.  1.
    8880022    1    1    2    0    0  0.50270487704E+03 -0.60929986870E+02  0.30287291703E+03  0.60954763028E+03  0.15294330000E+03 0.  0.
    8880022    1    1    2    0    0 -0.50270487704E+03  0.60929986870E+02 -0.20279793296E+03  0.56651858869E+03  0.15294330000E+03 0.  0.
<mgrwt>
<rscale>  0 0.52897666E+03</rscale>
<asrwt>0</asrwt>
<pdfrwt beam="1">  1        2 0.98164707E-01 0.52897666E+03</pdfrwt>
<pdfrwt beam="2">  1       -2 0.82768557E-01 0.52897666E+03</pdfrwt>
<totfact> 0.60694477E+01</totfact>
</mgrwt>
</event>
<event>
 4    1  0.5410820E-008  0.5804210E+03  0.7818608E-02  0.9946880E-01
         -2   -1    0    0    0  501 -0.00000000000E+00  0.00000000000E+00  0.43721141882E+03  0.43721141882E+03  0.25500000000E-02 0.  1.
          2   -1    0    0  501    0  0.00000000000E+00 -0.00000000000E+00 -0.10853683191E+04  0.10853683191E+04  0.25500000000E-02 0. -1.
    8880022    1    1    2    0    0  0.48967227595E+03 -0.27151045432E+03 -0.73409270633E+03  0.93583151215E+03  0.15294330000E+03 0.  0.
    8880022    1    1    2    0    0 -0.48967227595E+03  0.27151045432E+03  0.85935806070E+02  0.58674822575E+03  0.15294330000E+03 0.  0.
<mgrwt>
<rscale>  0 0.58042098E+03</rscale>
<asrwt>0</asrwt>
<pdfrwt beam="1">  1        2 0.16697974E+00 0.58042098E+03</pdfrwt>
<pdfrwt beam="2">  1       -2 0.67263296E-01 0.58042098E+03</pdfrwt>
<totfact> 0.46667004E+01</totfact>
</mgrwt>
</event>
<event>
 4    1  0.5410820E-008  0.1308699E+04  0.7818608E-02  0.9022695E-01
          2   -1    0    0  501    0  0.00000000000E+00  0.00000000000E+00  0.27304691473E+04  0.27304691473E+04  0.25500000000E-02 0. -1.
         -2   -1    0    0    0  501 -0.00000000000E+00 -0.00000000000E+00 -0.72824005630E+03  0.72824005630E+03  0.25500000000E-02 0.  1.
    8880022    1    1    2    0    0  0.44646782216E+03 -0.12206423547E+04  0.16451076730E+04  0.21021589338E+04  0.15294330000E+03 0.  0.
    8880022    1    1    2    0    0 -0.44646782216E+03  0.12206423547E+04  0.35712141804E+03  0.13565502698E+04  0.15294330000E+03 0.  0.
<mgrwt>
<rscale>  0 0.13086989E+04</rscale>
<asrwt>0</asrwt>
<pdfrwt beam="1">  1        2 0.42007218E+00 0.13086989E+04</pdfrwt>
<pdfrwt beam="2">  1       -2 0.11203693E+00 0.13086989E+04</pdfrwt>
<totfact> 0.15552813E+00</totfact>
</mgrwt>
</event>
<event>
 4    1  0.5410820E-008  0.2510728E+03  0.7818608E-02  0.1112629E+00
         -2   -1    0    0    0  501 -0.00000000000E+00  0.00000000000E+00  0.43033977899E+03  0.43033977899E+03  0.25500000000E-02 0.  1.
          2   -1    0    0  501    0  0.00000000000E+00 -0.00000000000E+00 -0.76436969561E+03  0.76436969561E+03  0.25500000000E-02 0. -1.
    8880022    1    1    2    0    0 -0.16367619034E+03  0.11338435810E+03  0.37006002422E+03  0.44719345086E+03  0.15294330000E+03 0.  0.
    8880022    1    1    2    0    0  0.16367619034E+03 -0.11338435810E+03 -0.70408994084E+03  0.74751602375E+03  0.15294330000E+03 0. -1.
<mgrwt>
<rscale>  0 0.25107282E+03</rscale>
<asrwt>0</asrwt>
<pdfrwt beam="1">  1        2 0.11759534E+00 0.25107282E+03</pdfrwt>
<pdfrwt beam="2">  1       -2 0.66206120E-01 0.25107282E+03</pdfrwt>
<totfact> 0.82175605E+01</totfact>
</mgrwt>
</event>
<event>
 4    1  0.5410820E-008  0.6556712E+03  0.7818608E-02  0.9796195E-01
         -2   -1    0    0    0  501 -0.00000000000E+00  0.00000000000E+00  0.18849105400E+03  0.18849105401E+03  0.25500000000E-02 0.  1.
          2   -1    0    0  501    0  0.00000000000E+00 -0.00000000000E+00 -0.43005701792E+04  0.43005701792E+04  0.25500000000E-02 0. -1.
    8880022    1    1    2    0    0 -0.63470874422E+03 -0.60480817994E+02 -0.35942533498E+04  0.36535683810E+04  0.15294330000E+03 0. -1.
    8880022    1    1    2    0    0  0.63470874422E+03  0.60480817994E+02 -0.51782577536E+03  0.83549285214E+03  0.15294330000E+03 0.  0.
<mgrwt>
<rscale>  0 0.65567124E+03</rscale>
<asrwt>0</asrwt>
<pdfrwt beam="1">  1        2 0.66162610E+00 0.65567124E+03</pdfrwt>
<pdfrwt beam="2">  1       -2 0.28998627E-01 0.65567124E+03</pdfrwt>
<totfact> 0.23810088E+00</totfact>
</mgrwt>
</event>
<event>
 4    1  0.5410820E-008  0.1559683E+03  0.7818608E-02  0.1193325E+00
          2   -1    0    0  501    0  0.00000000000E+00  0.00000000000E+00  0.25904909280E+04  0.25904909280E+04  0.25500000000E-02 0. -1.
         -2   -1    0    0    0  501 -0.00000000000E+00 -0.00000000000E+00 -0.17632535499E+02  0.17632535684E+02  0.25500000000E-02 0.  1.
    8880022    1    1    2    0    0 -0.23614921821E+02  0.19410997791E+02  0.39485601019E+03  0.42454372350E+03  0.15294330000E+03 0.  1.
    8880022    1    1    2    0    0  0.23614921821E+02 -0.19410997791E+02  0.21780023824E+04  0.21835797402E+04  0.15294330000E+03 0.  0.
<mgrwt>
<rscale>  0 0.15596828E+03</rscale>
<asrwt>0</asrwt>
<pdfrwt beam="1">  1        2 0.39853715E+00 0.15596828E+03</pdfrwt>
<pdfrwt beam="2">  1       -2 0.27126972E-02 0.15596828E+03</pdfrwt>
<totfact> 0.17862910E+03</totfact>
</mgrwt>
</event>
<event>
 4    1  0.5410820E-008  0.2884625E+03  0.7818608E-02  0.1091155E+00
          2   -1    0    0  501    0  0.00000000000E+00  0.00000000000E+00  0.16175862026E+04  0.16175862026E+04  0.25500000000E-02 0. -1.
         -2   -1    0    0    0  501 -0.00000000000E+00 -0.00000000000E+00 -0.12121159108E+03  0.12121159110E+03  0.25500000000E-02 0.  1.
    8880022    1    1    2    0    0  0.12038161261E+03  0.21290196284E+03  0.88584522464E+02  0.30175793124E+03  0.15294330000E+03 0.  0.
    8880022    1    1    2    0    0 -0.12038161261E+03 -0.21290196284E+03  0.14077900891E+04  0.14370398625E+04  0.15294330000E+03 0.  0.
<mgrwt>
<rscale>  0 0.28846253E+03</rscale>
<asrwt>0</asrwt>
<pdfrwt beam="1">  1        2 0.24885941E+00 0.28846253E+03</pdfrwt>
<pdfrwt beam="2">  1       -2 0.18647938E-01 0.28846253E+03</pdfrwt>
<totfact> 0.28087403E+02</totfact>
</mgrwt>
</event>
<event>
 4    1  0.5410820E-008  0.1023634E+04  0.7818608E-02  0.9282997E-01
         -2   -1    0    0    0  501 -0.00000000000E+00  0.00000000000E+00  0.62644406957E+03  0.62644406957E+03  0.25500000000E-02 0.  1.
          2   -1    0    0  501    0  0.00000000000E+00 -0.00000000000E+00 -0.24441232390E+04  0.24441232390E+04  0.25500000000E-02 0. -1.
    8880022    1    1    2    0    0  0.27769971049E+03  0.97330241212E+03 -0.17713918090E+04  0.20458874135E+04  0.15294330000E+03 0.  0.
    8880022    1    1    2    0    0 -0.27769971049E+03 -0.97330241212E+03 -0.46287360437E+02  0.10246798951E+04  0.15294330000E+03 0.  0.
<mgrwt>
<rscale>  0 0.10236339E+04</rscale>
<asrwt>0</asrwt>
<pdfrwt beam="1">  1        2 0.37601896E+00 0.10236339E+04</pdfrwt>
<pdfrwt beam="2">  1       -2 0.96376012E-01 0.10236339E+04</pdfrwt>
<totfact> 0.33948012E+00</totfact>
</mgrwt>
</event>
<event>
 4    1  0.5410820E-008  0.2172863E+03  0.7818608E-02  0.1135923E+00
         -2   -1    0    0    0  501 -0.00000000000E+00  0.00000000000E+00  0.16682059988E+03  0.16682059990E+03  0.25500000000E-02 0.  1.
          2   -1    0    0  501    0  0.00000000000E+00 -0.00000000000E+00 -0.58651973752E+03  0.58651973753E+03  0.25500000000E-02 0. -1.
    8880022    1    1    2    0    0 -0.54515671486E+02 -0.14439436173E+03  0.61107214093E+02  0.22571538443E+03  0.15294330000E+03 0.  0.
    8880022    1    1    2    0    0  0.54515671486E+02  0.14439436173E+03 -0.48080635174E+03  0.52762495300E+03  0.15294330000E+03 0.  0.
<mgrwt>
<rscale>  0 0.21728632E+03</rscale>
<asrwt>0</asrwt>
<pdfrwt beam="1">  1        2 0.90233805E-01 0.21728632E+03</pdfrwt>
<pdfrwt beam="2">  1       -2 0.25664708E-01 0.21728632E+03</pdfrwt>
<totfact> 0.70611254E+02</totfact>
</mgrwt>
</event>
<event>
 4    1  0.5410820E-008  0.6279684E+03  0.7818608E-02  0.9849021E-01
         -2   -1    0    0    0  501 -0.00000000000E+00  0.00000000000E+00  0.93801424117E+03  0.93801424117E+03  0.25500000000E-02 0.  1.
          2   -1    0    0  501    0  0.00000000000E+00 -0.00000000000E+00 -0.12928904464E+04  0.12928904464E+04  0.25500000000E-02 0. -1.
    8880022    1    1    2    0    0 -0.52199820749E+03  0.31380019126E+03 -0.10937633659E+04  0.12612147486E+04  0.15294330000E+03 0.  0.
    8880022    1    1    2    0    0  0.52199820749E+03 -0.31380019126E+03  0.73888716059E+03  0.96968993898E+03  0.15294330000E+03 0.  0.
<mgrwt>
<rscale>  0 0.62796842E+03</rscale>
<asrwt>0</asrwt>
<pdfrwt beam="1">  1        2 0.19890622E+00 0.62796842E+03</pdfrwt>
<pdfrwt beam="2">  1       -2 0.14430988E+00 0.62796842E+03</pdfrwt>
<totfact> 0.57705902E+00</totfact>
</mgrwt>
</event>
<event>
 4    1  0.5410820E-008  0.4921162E+03  0.7818608E-02  0.1015857E+00
          2   -1    0    0  501    0  0.00000000000E+00  0.00000000000E+00  0.12606527746E+04  0.12606527746E+04  0.25500000000E-02 0. -1.
         -2   -1    0    0    0  501 -0.00000000000E+00 -0.00000000000E+00 -0.28402876880E+03  0.28402876882E+03  0.25500000000E-02 0.  1.
    8880022    1    1    2    0    0 -0.44251551078E+03  0.15154771487E+03  0.48931774954E+02  0.49454287861E+03  0.15294330000E+03 0.  1.
    8880022    1    1    2    0    0  0.44251551078E+03 -0.15154771487E+03  0.92769223088E+03  0.10501386649E+04  0.15294330000E+03 0.  0.
<mgrwt>
<rscale>  0 0.49211619E+03</rscale>
<asrwt>0</asrwt>
<pdfrwt beam="1">  1        2 0.19394658E+00 0.49211619E+03</pdfrwt>
<pdfrwt beam="2">  1       -2 0.43696734E-01 0.49211619E+03</pdfrwt>
<totfact> 0.90389505E+01</totfact>
</mgrwt>
</event>
<event>
 4    1  0.5410820E-008  0.6155718E+03  0.7818608E-02  0.9873616E-01
         -2   -1    0    0    0  501 -0.00000000000E+00  0.00000000000E+00  0.66579144530E+03  0.66579144530E+03  0.25500000000E-02 0.  1.
          2   -1    0    0  501    0  0.00000000000E+00 -0.00000000000E+00 -0.14119101127E+04  0.14119101127E+04  0.25500000000E-02 0. -1.
    8880022    1    1    2    0    0 -0.26733113292E+03  0.53298311826E+03 -0.11756686368E+04  0.13270739751E+04  0.15294330000E+03 0.  0.
    8880022    1    1    2    0    0  0.26733113292E+03 -0.53298311826E+03  0.42954996936E+03  0.75062758288E+03  0.15294330000E+03 0.  0.
<mgrwt>
<rscale>  0 0.61557176E+03</rscale>
<asrwt>0</asrwt>
<pdfrwt beam="1">  1        2 0.21721694E+00 0.61557176E+03</pdfrwt>
<pdfrwt beam="2">  1       -2 0.10242945E+00 0.61557176E+03</pdfrwt>
<totfact> 0.11590128E+01</totfact>
</mgrwt>
</event>
<event>
 4    1  0.5410820E-008  0.5889765E+03  0.7818608E-02  0.9928544E-01
         -2   -1    0    0    0  501 -0.00000000000E+00  0.00000000000E+00  0.36046380278E+03  0.36046380279E+03  0.25500000000E-02 0.  1.
          2   -1    0    0  501    0  0.00000000000E+00 -0.00000000000E+00 -0.12552613971E+04  0.12552613971E+04  0.25500000000E-02 0. -1.
    8880022    1    1    2    0    0 -0.36043599303E+03  0.43998579944E+03 -0.83764317666E+03  0.10239821059E+04  0.15294330000E+03 0.  0.
    8880022    1    1    2    0    0  0.36043599303E+03 -0.43998579944E+03 -0.57154417632E+02  0.59174309396E+03  0.15294330000E+03 0.  0.
<mgrwt>
<rscale>  0 0.58897645E+03</rscale>
<asrwt>0</asrwt>
<pdfrwt beam="1">  1        2 0.19311714E+00 0.58897645E+03</pdfrwt>
<pdfrwt beam="2">  1       -2 0.55455970E-01 0.58897645E+03</pdfrwt>
<totfact> 0.55584684E+01</totfact>
</mgrwt>
</event>
<event>
 4    1  0.5410820E-008  0.5907445E+03  0.7818608E-02  0.9924797E-01
         -2   -1    0    0    0  501 -0.00000000000E+00  0.00000000000E+00  0.26873431474E+03  0.26873431475E+03  0.25500000000E-02 0.  1.
          2   -1    0    0  501    0  0.00000000000E+00 -0.00000000000E+00 -0.15379019582E+04  0.15379019582E+04  0.25500000000E-02 0. -1.
    8880022    1    1    2    0    0 -0.55080911024E+03 -0.14898553149E+03 -0.99090971484E+03  0.11536381931E+04  0.15294330000E+03 0.  0.
    8880022    1    1    2    0    0  0.55080911024E+03  0.14898553149E+03 -0.27825792867E+03  0.65299807994E+03  0.15294330000E+03 0.  0.
<mgrwt>
<rscale>  0 0.59074446E+03</rscale>
<asrwt>0</asrwt>
<pdfrwt beam="1">  1        2 0.23660030E+00 0.59074446E+03</pdfrwt>
<pdfrwt beam="2">  1       -2 0.41343742E-01 0.59074446E+03</pdfrwt>
<totfact> 0.69595382E+01</totfact>
</mgrwt>
</event>
<event>
 4    1  0.5410820E-008  0.7286335E+03  0.7818608E-02  0.9669480E-01
          2   -1    0    0  501    0  0.00000000000E+00  0.00000000000E+00  0.13782898188E+04  0.13782898188E+04  0.25500000000E-02 0. -1.
         -2   -1    0    0    0  501 -0.00000000000E+00 -0.00000000000E+00 -0.69277928508E+03  0.69277928508E+03  0.25500000000E-02 0.  1.
    8880022    1    1    2    0    0  0.85260398685E+02 -0.70728053608E+03  0.10327584016E+04  0.12639211453E+04  0.15294330000E+03 0.  0.
    8880022    1    1    2    0    0 -0.85260398685E+02  0.70728053608E+03 -0.34724786790E+03  0.80714795861E+03  0.15294330000E+03 0.  0.
<mgrwt>
<rscale>  0 0.72863348E+03</rscale>
<asrwt>0</asrwt>
<pdfrwt beam="1">  1        2 0.21204459E+00 0.72863348E+03</pdfrwt>
<pdfrwt beam="2">  1       -2 0.10658143E+00 0.72863348E+03</pdfrwt>
<totfact> 0.10827805E+01</totfact>
</mgrwt>
</event>
<event>
 4    1  0.5410820E-008  0.6861096E+03  0.7818608E-02  0.9741286E-01
         -2   -1    0    0    0  501 -0.00000000000E+00  0.00000000000E+00  0.46223995520E+03  0.46223995521E+03  0.25500000000E-02 0.  1.
          2   -1    0    0  501    0  0.00000000000E+00 -0.00000000000E+00 -0.16980805684E+04  0.16980805684E+04  0.25500000000E-02 0. -1.
    8880022    1    1    2    0    0 -0.65855355574E+03  0.11688441638E+03 -0.13012977237E+04  0.14710955684E+04  0.15294330000E+03 0.  0.
    8880022    1    1    2    0    0  0.65855355574E+03 -0.11688441638E+03  0.65457110514E+02  0.68922495522E+03  0.15294330000E+03 0.  1.
<mgrwt>
<rscale>  0 0.68610962E+03</rscale>
<asrwt>0</asrwt>
<pdfrwt beam="1">  1        2 0.26124316E+00 0.68610962E+03</pdfrwt>
<pdfrwt beam="2">  1       -2 0.71113840E-01 0.68610962E+03</pdfrwt>
<totfact> 0.18305585E+01</totfact>
</mgrwt>
</event>
<event>
 4    1  0.5410820E-008  0.5659856E+03  0.7818608E-02  0.9978602E-01
          2   -1    0    0  501    0  0.00000000000E+00  0.00000000000E+00  0.33041842609E+04  0.33041842609E+04  0.25500000000E-02 0. -1.
         -2   -1    0    0    0  501 -0.00000000000E+00 -0.00000000000E+00 -0.19917384296E+03  0.19917384297E+03  0.25500000000E-02 0.  1.
    8880022    1    1    2    0    0 -0.54163661763E+03  0.59814648753E+02  0.28074225635E+04  0.28639066187E+04  0.15294330000E+03 0.  0.
    8880022    1    1    2    0    0  0.54163661763E+03 -0.59814648753E+02  0.29758785451E+03  0.63945148520E+03  0.15294330000E+03 0.  0.
<mgrwt>
<rscale>  0 0.56598557E+03</rscale>
<asrwt>0</asrwt>
<pdfrwt beam="1">  1        2 0.50833602E+00 0.56598557E+03</pdfrwt>
<pdfrwt beam="2">  1       -2 0.30642131E-01 0.56598557E+03</pdfrwt>
<totfact> 0.12156777E+01</totfact>
</mgrwt>
</event>
<event>
 4    1  0.5410820E-008  0.6492760E+03  0.7818608E-02  0.9808139E-01
          2   -1    0    0  501    0  0.00000000000E+00  0.00000000000E+00  0.41256234698E+04  0.41256234698E+04  0.25500000000E-02 0. -1.
         -2   -1    0    0    0  501 -0.00000000000E+00 -0.00000000000E+00 -0.15164246154E+03  0.15164246156E+03  0.25500000000E-02 0.  1.
    8880022    1    1    2    0    0 -0.62973144235E+03  0.40074644315E+02  0.76558353450E+03  0.10038313942E+04  0.15294330000E+03 0.  0.
    8880022    1    1    2    0    0  0.62973144235E+03 -0.40074644315E+02  0.32083974737E+04  0.32734345372E+04  0.15294330000E+03 0.  0.
<mgrwt>
<rscale>  0 0.64927600E+03</rscale>
<asrwt>0</asrwt>
<pdfrwt beam="1">  1        2 0.63471141E+00 0.64927600E+03</pdfrwt>
<pdfrwt beam="2">  1       -2 0.23329605E-01 0.64927600E+03</pdfrwt>
<totfact> 0.49741879E+00</totfact>
</mgrwt>
</event>
<event>
 4    1  0.5410820E-008  0.6601982E+03  0.7818608E-02  0.9787829E-01
          2   -1    0    0  501    0  0.00000000000E+00  0.00000000000E+00  0.19940236735E+04  0.19940236735E+04  0.25500000000E-02 0. -1.
         -2   -1    0    0    0  501 -0.00000000000E+00 -0.00000000000E+00 -0.26229368491E+03  0.26229368492E+03  0.25500000000E-02 0.  1.
    8880022    1    1    2    0    0  0.60537132367E+03 -0.21446570695E+03  0.13264027135E+04  0.14816226883E+04  0.15294330000E+03 0.  0.
    8880022    1    1    2    0    0 -0.60537132367E+03  0.21446570695E+03  0.40532727502E+03  0.77469467009E+03  0.15294330000E+03 0. -1.
<mgrwt>
<rscale>  0 0.66019818E+03</rscale>
<asrwt>0</asrwt>
<pdfrwt beam="1">  1        2 0.30677288E+00 0.66019818E+03</pdfrwt>
<pdfrwt beam="2">  1       -2 0.40352873E-01 0.66019818E+03</pdfrwt>
<totfact> 0.40833755E+01</totfact>
</mgrwt>
</event>
<event>
 4    1  0.5410820E-008  0.5596235E+03  0.7818608E-02  0.9992907E-01
          2   -1    0    0  501    0  0.00000000000E+00  0.00000000000E+00  0.23490580968E+04  0.23490580968E+04  0.25500000000E-02 0. -1.
         -2   -1    0    0    0  501 -0.00000000000E+00 -0.00000000000E+00 -0.31272307979E+03  0.31272307980E+03  0.25500000000E-02 0.  1.
    8880022    1    1    2    0    0  0.49197527567E+03  0.21851128404E+03  0.20262040175E+04  0.21020659425E+04  0.15294330000E+03 0.  0.
    8880022    1    1    2    0    0 -0.49197527567E+03 -0.21851128404E+03  0.10130999523E+02  0.55971523411E+03  0.15294330000E+03 0.  0.
<mgrwt>
<rscale>  0 0.55962354E+03</rscale>
<asrwt>0</asrwt>
<pdfrwt beam="1">  1        2 0.36139356E+00 0.55962354E+03</pdfrwt>
<pdfrwt beam="2">  1       -2 0.48111243E-01 0.55962354E+03</pdfrwt>
<totfact> 0.18753138E+01</totfact>
</mgrwt>
</event>
<event>
 4    1  0.5410820E-008  0.6843346E+03  0.7818608E-02  0.9744404E-01
          2   -1    0    0  501    0  0.00000000000E+00  0.00000000000E+00  0.16328312297E+04  0.16328312297E+04  0.25500000000E-02 0. -1.
         -2   -1    0    0    0  501 -0.00000000000E+00 -0.00000000000E+00 -0.66668698311E+03  0.66668698311E+03  0.25500000000E-02 0.  1.
    8880022    1    1    2    0    0  0.43652256188E+03 -0.50435128876E+03  0.13509664232E+04  0.15144055266E+04  0.15294330000E+03 0.  0.
    8880022    1    1    2    0    0 -0.43652256188E+03  0.50435128876E+03 -0.38482217654E+03  0.78511268623E+03  0.15294330000E+03 0.  0.
<mgrwt>
<rscale>  0 0.68433458E+03</rscale>
<asrwt>0</asrwt>
<pdfrwt beam="1">  1        2 0.25120480E+00 0.68433458E+03</pdfrwt>
<pdfrwt beam="2">  1       -2 0.10256723E+00 0.68433458E+03</pdfrwt>
<totfact> 0.86247301E+00</totfact>
</mgrwt>
</event>
<event>
 4    1  0.5410820E-008  0.5748345E+03  0.7818608E-02  0.9959037E-01
          2   -1    0    0  501    0  0.00000000000E+00  0.00000000000E+00  0.39606890544E+03  0.39606890545E+03  0.25500000000E-02 0. -1.
         -2   -1    0    0    0  501 -0.00000000000E+00 -0.00000000000E+00 -0.98311586460E+03  0.98311586460E+03  0.25500000000E-02 0.  1.
    8880022    1    1    2    0    0  0.21168484084E+03  0.51208654005E+03 -0.56183240766E+03  0.80379748920E+03  0.15294330000E+03 0.  0.
    8880022    1    1    2    0    0 -0.21168484084E+03 -0.51208654005E+03 -0.25214551499E+02  0.57538728084E+03  0.15294330000E+03 0.  0.
<mgrwt>
<rscale>  0 0.57483454E+03</rscale>
<asrwt>0</asrwt>
<pdfrwt beam="1">  1        2 0.60933678E-01 0.57483454E+03</pdfrwt>
<pdfrwt beam="2">  1       -2 0.15124859E+00 0.57483454E+03</pdfrwt>
<totfact> 0.24251377E+01</totfact>
</mgrwt>
</event>
<event>
 4    1  0.5410820E-008  0.5911570E+03  0.7818608E-02  0.9923924E-01
         -2   -1    0    0    0  501 -0.00000000000E+00  0.00000000000E+00  0.75149157636E+03  0.75149157637E+03  0.25500000000E-02 0.  1.
          2   -1    0    0  501    0  0.00000000000E+00 -0.00000000000E+00 -0.23594107117E+04  0.23594107117E+04  0.25500000000E-02 0. -1.
    8880022    1    1    2    0    0  0.16765220732E+02  0.57078355788E+03  0.58980096221E+03  0.83506393205E+03  0.15294330000E+03 0.  0.
    8880022    1    1    2    0    0 -0.16765220732E+02 -0.57078355788E+03 -0.21977200976E+04  0.22758383561E+04  0.15294330000E+03 0.  0.
<mgrwt>
<rscale>  0 0.59115700E+03</rscale>
<asrwt>0</asrwt>
<pdfrwt beam="1">  1        2 0.36298626E+00 0.59115700E+03</pdfrwt>
<pdfrwt beam="2">  1       -2 0.11561409E+00 0.59115700E+03</pdfrwt>
<totfact> 0.26423453E+00</totfact>
</mgrwt>
</event>
<event>
 4    1  0.1052772E-007  0.8024292E+03  0.7818608E-02  0.9556508E-01
          2   -1    0    0  501    0  0.00000000000E+00  0.00000000000E+00  0.11452562008E+04  0.11452562008E+04  0.25500000000E-02 0. -1.
         -2   -1    0    0    0  501 -0.00000000000E+00 -0.00000000000E+00 -0.14555102624E+04  0.14555102624E+04  0.25500000000E-02 0.  1.
    8880022    1    1    2    0    0  0.78073469284E+03 -0.10466278467E+03 -0.11738558886E+04  0.14219107776E+04  0.15294330000E+03 0.  0.
    8880022    1    1    2    0    0 -0.78073469284E+03  0.10466278467E+03  0.86360182697E+03  0.11788556857E+04  0.15294330000E+03 0.  0.
<mgrwt>
<rscale>  0 0.80242919E+03</rscale>
<asrwt>0</asrwt>
<pdfrwt beam="1">  1        2 0.17619326E+00 0.80242919E+03</pdfrwt>
<pdfrwt beam="2">  1       -2 0.22392466E+00 0.80242919E+03</pdfrwt>
<totfact> 0.19493536E+00</totfact>
</mgrwt>
</event>
<event>
 4    1  0.5410820E-008  0.3384309E+03  0.7818608E-02  0.1067466E+00
         -2   -1    0    0    0  501 -0.00000000000E+00  0.00000000000E+00  0.87852032037E+02  0.87852032074E+02  0.25500000000E-02 0.  1.
          2   -1    0    0  501    0  0.00000000000E+00 -0.00000000000E+00 -0.14328501557E+04  0.14328501557E+04  0.25500000000E-02 0. -1.
    8880022    1    1    2    0    0 -0.89347592238E+02  0.28837616572E+03 -0.44425034272E+03  0.55847455198E+03  0.15294330000E+03 0.  0.
    8880022    1    1    2    0    0  0.89347592238E+02 -0.28837616572E+03 -0.90074778092E+03  0.96222763577E+03  0.15294330000E+03 0.  0.
<mgrwt>
<rscale>  0 0.33843088E+03</rscale>
<asrwt>0</asrwt>
<pdfrwt beam="1">  1        2 0.22043847E+00 0.33843088E+03</pdfrwt>
<pdfrwt beam="2">  1       -2 0.13515698E-01 0.33843088E+03</pdfrwt>
<totfact> 0.60140578E+02</totfact>
</mgrwt>
</event>
<event>
 4    1  0.5410820E-008  0.1020667E+04  0.7818608E-02  0.9286164E-01
          2   -1    0    0  501    0  0.00000000000E+00  0.00000000000E+00  0.26556290355E+04  0.26556290355E+04  0.25500000000E-02 0. -1.
         -2   -1    0    0    0  501 -0.00000000000E+00 -0.00000000000E+00 -0.91525680696E+03  0.91525680696E+03  0.25500000000E-02 0.  1.
    8880022    1    1    2    0    0 -0.84136123306E+02  0.10056291728E+04  0.22198140938E+04  0.24432222953E+04  0.15294330000E+03 0.  0.
    8880022    1    1    2    0    0  0.84136123306E+02 -0.10056291728E+04 -0.47944186520E+03  0.11276635472E+04  0.15294330000E+03 0.  0.
<mgrwt>
<rscale>  0 0.10206667E+04</rscale>
<asrwt>0</asrwt>
<pdfrwt beam="1">  1        2 0.40855832E+00 0.10206667E+04</pdfrwt>
<pdfrwt beam="2">  1       -2 0.14080874E+00 0.10206667E+04</pdfrwt>
<totfact> 0.10042238E+00</totfact>
</mgrwt>
</event>
<event>
 4    1  0.5410820E-008  0.2130132E+03  0.7818608E-02  0.1139202E+00
         -2   -1    0    0    0  501 -0.00000000000E+00  0.00000000000E+00  0.45008568571E+03  0.45008568572E+03  0.25500000000E-02 0.  1.
          2   -1    0    0  501    0  0.00000000000E+00 -0.00000000000E+00 -0.43277010636E+03  0.43277010636E+03  0.25500000000E-02 0. -1.
    8880022    1    1    2    0    0 -0.11905579630E+03 -0.88366856143E+02  0.39526675138E+03  0.44901051397E+03  0.15294330000E+03 0.  0.
    8880022    1    1    2    0    0  0.11905579630E+03  0.88366856143E+02 -0.37795117202E+03  0.43384527811E+03  0.15294330000E+03 0. -1.
<mgrwt>
<rscale>  0 0.21301323E+03</rscale>
<asrwt>0</asrwt>
<pdfrwt beam="1">  1        2 0.66580016E-01 0.21301323E+03</pdfrwt>
<pdfrwt beam="2">  1       -2 0.69243952E-01 0.21301323E+03</pdfrwt>
<totfact> 0.14520192E+02</totfact>
</mgrwt>
</event>
<event>
 4    1  0.5410820E-008  0.1027357E+04  0.7818608E-02  0.9279039E-01
          2   -1    0    0  501    0  0.00000000000E+00  0.00000000000E+00  0.15195385310E+04  0.15195385310E+04  0.25500000000E-02 0. -1.
         -2   -1    0    0    0  501 -0.00000000000E+00 -0.00000000000E+00 -0.11746209618E+04  0.11746209618E+04  0.25500000000E-02 0.  1.
    8880022    1    1    2    0    0 -0.78335259037E+02  0.10128843493E+04  0.10336054463E+04  0.14573273446E+04  0.15294330000E+03 0.  0.
    8880022    1    1    2    0    0  0.78335259037E+02 -0.10128843493E+04 -0.68868787710E+03  0.12368321482E+04  0.15294330000E+03 0.  0.
<mgrwt>
<rscale>  0 0.10273572E+04</rscale>
<asrwt>0</asrwt>
<pdfrwt beam="1">  1        2 0.23377516E+00 0.10273572E+04</pdfrwt>
<pdfrwt beam="2">  1       -2 0.18071092E+00 0.10273572E+04</pdfrwt>
<totfact> 0.21955111E+00</totfact>
</mgrwt>
</event>
<event>
 4    1  0.5410820E-008  0.5838445E+03  0.7818608E-02  0.9939502E-01
          2   -1    0    0  501    0  0.00000000000E+00  0.00000000000E+00  0.23831642315E+04  0.23831642315E+04  0.25500000000E-02 0. -1.
         -2   -1    0    0    0  501 -0.00000000000E+00 -0.00000000000E+00 -0.53708317542E+03  0.53708317543E+03  0.25500000000E-02 0.  1.
    8880022    1    1    2    0    0  0.23282075490E+02 -0.56297486069E+03 -0.32763278591E+03  0.66949058562E+03  0.15294330000E+03 0.  1.
    8880022    1    1    2    0    0 -0.23282075490E+02  0.56297486069E+03  0.21737138420E+04  0.22507568213E+04  0.15294330000E+03 0.  0.
<mgrwt>
<rscale>  0 0.58384450E+03</rscale>
<asrwt>0</asrwt>
<pdfrwt beam="1">  1        2 0.36664065E+00 0.58384450E+03</pdfrwt>
<pdfrwt beam="2">  1       -2 0.82628180E-01 0.58384450E+03</pdfrwt>
<totfact> 0.56481833E+00</totfact>
</mgrwt>
</event>
<event>
 4    1  0.5410820E-008  0.8370010E+03  0.7818608E-02  0.9507952E-01
         -2   -1    0    0    0  501 -0.00000000000E+00  0.00000000000E+00  0.85665213352E+03  0.85665213352E+03  0.25500000000E-02 0.  1.
          2   -1    0    0  501    0  0.00000000000E+00 -0.00000000000E+00 -0.26264574445E+04  0.26264574445E+04  0.25500000000E-02 0. -1.
    8880022    1    1    2    0    0  0.82285078360E+03 -0.97783891123E+01 -0.23301095950E+04  0.24758799257E+04  0.15294330000E+03 0.  0.
    8880022    1    1    2    0    0 -0.82285078360E+03  0.97783891123E+01  0.56030428394E+03  0.10072296524E+04  0.15294330000E+03 0.  0.
<mgrwt>
<rscale>  0 0.83700100E+03</rscale>
<asrwt>0</asrwt>
<pdfrwt beam="1">  1        2 0.40407037E+00 0.83700100E+03</pdfrwt>
<pdfrwt beam="2">  1       -2 0.13179264E+00 0.83700100E+03</pdfrwt>
<totfact> 0.12775370E+00</totfact>
</mgrwt>
</event>
<event>
 4    1  0.5410820E-008  0.3711214E+03  0.7818608E-02  0.1054265E+00
         -2   -1    0    0    0  501 -0.00000000000E+00  0.00000000000E+00  0.11149038782E+04  0.11149038782E+04  0.25500000000E-02 0.  1.
          2   -1    0    0  501    0  0.00000000000E+00 -0.00000000000E+00 -0.72656441437E+03  0.72656441437E+03  0.25500000000E-02 0. -1.
    8880022    1    1    2    0    0 -0.18127281445E+03 -0.28544634151E+03 -0.64464484331E+03  0.74384008641E+03  0.15294330000E+03 0. -1.
    8880022    1    1    2    0    0  0.18127281445E+03  0.28544634151E+03  0.10329843071E+04  0.10976282061E+04  0.15294330000E+03 0.  0.
<mgrwt>
<rscale>  0 0.37112141E+03</rscale>
<asrwt>0</asrwt>
<pdfrwt beam="1">  1        2 0.11177914E+00 0.37112141E+03</pdfrwt>
<pdfrwt beam="2">  1       -2 0.17152367E+00 0.37112141E+03</pdfrwt>
<totfact> 0.87896258E+00</totfact>
</mgrwt>
</event>
<event>
 4    1  0.5410820E-008  0.6029321E+03  0.7818608E-02  0.9899341E-01
          2   -1    0    0  501    0  0.00000000000E+00  0.00000000000E+00  0.19454715514E+04  0.19454715514E+04  0.25500000000E-02 0. -1.
         -2   -1    0    0    0  501 -0.00000000000E+00 -0.00000000000E+00 -0.36002597564E+03  0.36002597565E+03  0.25500000000E-02 0.  1.
    8880022    1    1    2    0    0  0.57117911754E+03  0.11785547785E+03 -0.67457738209E+01  0.60296986364E+03  0.15294330000E+03 0.  0.
    8880022    1    1    2    0    0 -0.57117911754E+03 -0.11785547785E+03  0.15921913496E+04  0.17025276634E+04  0.15294330000E+03 0.  0.
<mgrwt>
<rscale>  0 0.60293213E+03</rscale>
<asrwt>0</asrwt>
<pdfrwt beam="1">  1        2 0.29930332E+00 0.60293213E+03</pdfrwt>
<pdfrwt beam="2">  1       -2 0.55388611E-01 0.60293213E+03</pdfrwt>
<totfact> 0.23167504E+01</totfact>
</mgrwt>
</event>
<event>
 4    1  0.5410820E-008  0.1819289E+03  0.7818608E-02  0.1165949E+00
         -2   -1    0    0    0  501 -0.00000000000E+00  0.00000000000E+00  0.77335764798E+02  0.77335764841E+02  0.25500000000E-02 0.  1.
          2   -1    0    0  501    0  0.00000000000E+00 -0.00000000000E+00 -0.16637269088E+04  0.16637269088E+04  0.25500000000E-02 0. -1.
    8880022    1    1    2    0    0  0.81781943251E+02 -0.54937851271E+02 -0.42941644600E+02  0.18692803856E+03  0.15294330000E+03 0.  0.
    8880022    1    1    2    0    0 -0.81781943251E+02  0.54937851271E+02 -0.15434494994E+04  0.15541346351E+04  0.15294330000E+03 0.  0.
<mgrwt>
<rscale>  0 0.18192885E+03</rscale>
<asrwt>0</asrwt>
<pdfrwt beam="1">  1        2 0.25595796E+00 0.18192885E+03</pdfrwt>
<pdfrwt beam="2">  1       -2 0.11897811E-01 0.18192885E+03</pdfrwt>
<totfact> 0.56962658E+02</totfact>
</mgrwt>
</event>
<event>
 4    1  0.5410820E-008  0.7695582E+03  0.7818608E-02  0.9605157E-01
         -2   -1    0    0    0  501 -0.00000000000E+00  0.00000000000E+00  0.11928019707E+04  0.11928019707E+04  0.25500000000E-02 0.  1.
          2   -1    0    0  501    0  0.00000000000E+00 -0.00000000000E+00 -0.18376732272E+04  0.18376732272E+04  0.25500000000E-02 0. -1.
    8880022    1    1    2    0    0 -0.14452111510E+03  0.74023094349E+03  0.97202811333E+03  0.12397816374E+04  0.15294330000E+03 0.  0.
    8880022    1    1    2    0    0  0.14452111510E+03 -0.74023094349E+03 -0.16168993698E+04  0.17906935604E+04  0.15294330000E+03 0.  0.
<mgrwt>
<rscale>  0 0.76955822E+03</rscale>
<asrwt>0</asrwt>
<pdfrwt beam="1">  1        2 0.28271896E+00 0.76955822E+03</pdfrwt>
<pdfrwt beam="2">  1       -2 0.18350800E+00 0.76955822E+03</pdfrwt>
<totfact> 0.14578634E+00</totfact>
</mgrwt>
</event>
<event>
 4    1  0.5410820E-008  0.5652314E+03  0.7818608E-02  0.9980287E-01
          2   -1    0    0  501    0  0.00000000000E+00  0.00000000000E+00  0.22412565413E+04  0.22412565413E+04  0.25500000000E-02 0. -1.
         -2   -1    0    0    0  501 -0.00000000000E+00 -0.00000000000E+00 -0.16309782296E+03  0.16309782298E+03  0.25500000000E-02 0.  1.
    8880022    1    1    2    0    0 -0.24385934709E+03  0.48644370004E+03  0.61235340936E+03  0.83334458985E+03  0.15294330000E+03 0.  0.
    8880022    1    1    2    0    0  0.24385934709E+03 -0.48644370004E+03  0.14658053089E+04  0.15710097744E+04  0.15294330000E+03 0.  0.
<mgrwt>
<rscale>  0 0.56523138E+03</rscale>
<asrwt>0</asrwt>
<pdfrwt beam="1">  1        2 0.34480870E+00 0.56523138E+03</pdfrwt>
<pdfrwt beam="2">  1       -2 0.25091973E-01 0.56523138E+03</pdfrwt>
<totfact> 0.73822118E+01</totfact>
</mgrwt>
</event>
<event>
 4    1  0.5410820E-008  0.1841689E+04  0.7818608E-02  0.8684439E-01
         -2   -1    0    0    0  501 -0.00000000000E+00  0.00000000000E+00  0.17066052406E+04  0.17066052406E+04  0.25500000000E-02 0.  1.
          2   -1    0    0  501    0  0.00000000000E+00 -0.00000000000E+00 -0.36917215988E+04  0.36917215988E+04  0.25500000000E-02 0. -1.
    8880022    1    1    2    0    0  0.16287649342E+04 -0.84590244772E+03 -0.28264859542E+04  0.33735501574E+04  0.15294330000E+03 0.  0.
    8880022    1    1    2    0    0 -0.16287649342E+04  0.84590244772E+03  0.84136959600E+03  0.20247766820E+04  0.15294330000E+03 0.  0.
<mgrwt>
<rscale>  0 0.18416888E+04</rscale>
<asrwt>0</asrwt>
<pdfrwt beam="1">  1        2 0.56795717E+00 0.18416888E+04</pdfrwt>
<pdfrwt beam="2">  1       -2 0.26255465E+00 0.18416888E+04</pdfrwt>
<totfact> 0.28821532E-02</totfact>
</mgrwt>
</event>
<event>
 4    1  0.6450120E-008  0.9204187E+03  0.7818608E-02  0.9400411E-01
          2   -1    0    0  501    0  0.00000000000E+00  0.00000000000E+00  0.23274737785E+04  0.23274737785E+04  0.25500000000E-02 0. -1.
         -2   -1    0    0    0  501 -0.00000000000E+00 -0.00000000000E+00 -0.10729604003E+04  0.10729604003E+04  0.25500000000E-02 0.  1.
    8880022    1    1    2    0    0 -0.55546566233E+03 -0.71779995266E+03 -0.75480509284E+03  0.11903366143E+04  0.15294330000E+03 0.  0.
    8880022    1    1    2    0    0  0.55546566233E+03  0.71779995266E+03  0.20093184710E+04  0.22100975646E+04  0.15294330000E+03 0.  0.
<mgrwt>
<rscale>  0 0.92041867E+03</rscale>
<asrwt>0</asrwt>
<pdfrwt beam="1">  1        2 0.35807289E+00 0.92041867E+03</pdfrwt>
<pdfrwt beam="2">  1       -2 0.16507083E+00 0.92041867E+03</pdfrwt>
<totfact> 0.10269876E+00</totfact>
</mgrwt>
</event>
<event>
 4    1  0.5410820E-008  0.6259149E+03  0.7818608E-02  0.9853053E-01
          2   -1    0    0  501    0  0.00000000000E+00  0.00000000000E+00  0.64477379173E+03  0.64477379174E+03  0.25500000000E-02 0. -1.
         -2   -1    0    0    0  501 -0.00000000000E+00 -0.00000000000E+00 -0.70947148869E+03  0.70947148870E+03  0.25500000000E-02 0.  1.
    8880022    1    1    2    0    0 -0.59346990338E+03 -0.12716630396E+03  0.22422359709E+03  0.66486515144E+03  0.15294330000E+03 0.  0.
    8880022    1    1    2    0    0  0.59346990338E+03  0.12716630396E+03 -0.28892129405E+03  0.68938012900E+03  0.15294330000E+03 0.  0.
<mgrwt>
<rscale>  0 0.62591489E+03</rscale>
<asrwt>0</asrwt>
<pdfrwt beam="1">  1        2 0.99195968E-01 0.62591489E+03</pdfrwt>
<pdfrwt beam="2">  1       -2 0.10914946E+00 0.62591489E+03</pdfrwt>
<totfact> 0.31146809E+01</totfact>
</mgrwt>
</event>
<event>
 4    1  0.5410820E-008  0.3286092E+03  0.7818608E-02  0.1071754E+00
          2   -1    0    0  501    0  0.00000000000E+00  0.00000000000E+00  0.13453730418E+04  0.13453730418E+04  0.25500000000E-02 0. -1.
         -2   -1    0    0    0  501 -0.00000000000E+00 -0.00000000000E+00 -0.60858819033E+03  0.60858819034E+03  0.25500000000E-02 0.  1.
    8880022    1    1    2    0    0 -0.22962499112E+03  0.17850694752E+03 -0.54188702961E+03  0.63373935710E+03  0.15294330000E+03 0.  0.
    8880022    1    1    2    0    0  0.22962499112E+03 -0.17850694752E+03  0.12786718811E+04  0.13202218750E+04  0.15294330000E+03 0.  0.
<mgrwt>
<rscale>  0 0.32860922E+03</rscale>
<asrwt>0</asrwt>
<pdfrwt beam="1">  1        2 0.20698047E+00 0.32860922E+03</pdfrwt>
<pdfrwt beam="2">  1       -2 0.93628953E-01 0.32860922E+03</pdfrwt>
<totfact> 0.16542451E+01</totfact>
</mgrwt>
</event>
<event>
 4    1  0.5778707E-008  0.7734889E+03  0.7818608E-02  0.9599204E-01
          2   -1    0    0  501    0  0.00000000000E+00  0.00000000000E+00  0.20438436124E+04  0.20438436124E+04  0.25500000000E-02 0. -1.
         -2   -1    0    0    0  501 -0.00000000000E+00 -0.00000000000E+00 -0.11571450317E+04  0.11571450317E+04  0.25500000000E-02 0.  1.
    8880022    1    1    2    0    0 -0.74023128788E+03  0.16416774883E+03  0.18266689077E+04  0.19836845416E+04  0.15294330000E+03 0. -1.
    8880022    1    1    2    0    0  0.74023128788E+03 -0.16416774883E+03 -0.93997032697E+03  0.12173041025E+04  0.15294330000E+03 0.  0.
<mgrwt>
<rscale>  0 0.77348889E+03</rscale>
<asrwt>0</asrwt>
<pdfrwt beam="1">  1        2 0.31443748E+00 0.77348889E+03</pdfrwt>
<pdfrwt beam="2">  1       -2 0.17802231E+00 0.77348889E+03</pdfrwt>
<totfact> 0.12258299E+00</totfact>
</mgrwt>
</event>
<event>
 4    1  0.5410820E-008  0.1912315E+03  0.7818608E-02  0.1157355E+00
         -2   -1    0    0    0  501 -0.00000000000E+00  0.00000000000E+00  0.72563622852E+03  0.72563622852E+03  0.25500000000E-02 0.  1.
          2   -1    0    0  501    0  0.00000000000E+00 -0.00000000000E+00 -0.16515365332E+04  0.16515365332E+04  0.25500000000E-02 0. -1.
    8880022    1    1    2    0    0 -0.11424595623E+03 -0.11210784145E+02 -0.16332612551E+04  0.16444183777E+04  0.15294330000E+03 0.  0.
    8880022    1    1    2    0    0  0.11424595623E+03  0.11210784145E+02  0.70736095044E+03  0.73275438410E+03  0.15294330000E+03 0.  1.
<mgrwt>
<rscale>  0 0.19123147E+03</rscale>
<asrwt>0</asrwt>
<pdfrwt beam="1">  1        2 0.25408254E+00 0.19123147E+03</pdfrwt>
<pdfrwt beam="2">  1       -2 0.11163634E+00 0.19123147E+03</pdfrwt>
<totfact> 0.79540152E+00</totfact>
</mgrwt>
</event>
<event>
 4    1  0.5410820E-008  0.4165450E+03  0.7818608E-02  0.1038197E+00
         -2   -1    0    0    0  501 -0.00000000000E+00  0.00000000000E+00  0.41195309955E+03  0.41195309956E+03  0.25500000000E-02 0.  1.
          2   -1    0    0  501    0  0.00000000000E+00 -0.00000000000E+00 -0.96485659196E+03  0.96485659196E+03  0.25500000000E-02 0. -1.
    8880022    1    1    2    0    0 -0.29484842233E+03  0.25136130059E+03 -0.79320070664E+03  0.89592249085E+03  0.15294330000E+03 0. -1.
    8880022    1    1    2    0    0  0.29484842233E+03 -0.25136130059E+03  0.24029721423E+03  0.48088720067E+03  0.15294330000E+03 0.  0.
<mgrwt>
<rscale>  0 0.41654501E+03</rscale>
<asrwt>0</asrwt>
<pdfrwt beam="1">  1        2 0.14843947E+00 0.41654501E+03</pdfrwt>
<pdfrwt beam="2">  1       -2 0.63377401E-01 0.41654501E+03</pdfrwt>
<totfact> 0.64347493E+01</totfact>
</mgrwt>
</event>
<event>
 4    1  0.5410820E-008  0.2432679E+03  0.7818608E-02  0.1117635E+00
          2   -1    0    0  501    0  0.00000000000E+00  0.00000000000E+00  0.19384772622E+03  0.19384772624E+03  0.25500000000E-02 0. -1.
         -2   -1    0    0    0  501 -0.00000000000E+00 -0.00000000000E+00 -0.58531293681E+03  0.58531293682E+03  0.25500000000E-02 0.  1.
    8880022    1    1    2    0    0  0.16672109015E+03  0.89396192133E+02 -0.46519727864E+03  0.52496453417E+03  0.15294330000E+03 0.  0.
    8880022    1    1    2    0    0 -0.16672109015E+03 -0.89396192133E+02  0.73732068046E+02  0.25419612889E+03  0.15294330000E+03 0. -1.
<mgrwt>
<rscale>  0 0.24326786E+03</rscale>
<asrwt>0</asrwt>
<pdfrwt beam="1">  1        2 0.29822727E-01 0.24326786E+03</pdfrwt>
<pdfrwt beam="2">  1       -2 0.90048144E-01 0.24326786E+03</pdfrwt>
<totfact> 0.19409540E+02</totfact>
</mgrwt>
</event>
<event>
 4    1  0.5410820E-008  0.5811668E+03  0.7818608E-02  0.9945268E-01
          2   -1    0    0  501    0  0.00000000000E+00  0.00000000000E+00  0.25451739933E+04  0.25451739933E+04  0.25500000000E-02 0. -1.
         -2   -1    0    0    0  501 -0.00000000000E+00 -0.00000000000E+00 -0.21580553327E+03  0.21580553328E+03  0.25500000000E-02 0.  1.
    8880022    1    1    2    0    0 -0.55665978653E+03 -0.67030446723E+02  0.30802847512E+03  0.65775101157E+03  0.15294330000E+03 0.  0.
    8880022    1    1    2    0    0  0.55665978653E+03  0.67030446723E+02  0.20213399849E+04  0.21032285150E+04  0.15294330000E+03 0.  0.
<mgrwt>
<rscale>  0 0.58116680E+03</rscale>
<asrwt>0</asrwt>
<pdfrwt beam="1">  1        2 0.39156524E+00 0.58116680E+03</pdfrwt>
<pdfrwt beam="2">  1       -2 0.33200850E-01 0.58116680E+03</pdfrwt>
<totfact> 0.29825507E+01</totfact>
</mgrwt>
</event>
<event>
 4    1  0.5410820E-008  0.8157227E+03  0.7818608E-02  0.9537534E-01
          2   -1    0    0  501    0  0.00000000000E+00  0.00000000000E+00  0.95073718849E+03  0.95073718849E+03  0.25500000000E-02 0. -1.
         -2   -1    0    0    0  501 -0.00000000000E+00 -0.00000000000E+00 -0.13590903304E+04  0.13590903304E+04  0.25500000000E-02 0.  1.
    8880022    1    1    2    0    0  0.65321279098E+03 -0.46403108589E+03  0.60015825625E+03  0.10127158459E+04  0.15294330000E+03 0.  0.
    8880022    1    1    2    0    0 -0.65321279098E+03  0.46403108589E+03 -0.10085113982E+04  0.12971116730E+04  0.15294330000E+03 0.  0.
<mgrwt>
<rscale>  0 0.81572266E+03</rscale>
<asrwt>0</asrwt>
<pdfrwt beam="1">  1        2 0.14626726E+00 0.81572266E+03</pdfrwt>
<pdfrwt beam="2">  1       -2 0.20909082E+00 0.81572266E+03</pdfrwt>
<totfact> 0.31964930E+00</totfact>
</mgrwt>
</event>
<event>
 4    1  0.5410820E-008  0.2770078E+03  0.7818608E-02  0.1097335E+00
          2   -1    0    0  501    0  0.00000000000E+00  0.00000000000E+00  0.31004524432E+03  0.31004524433E+03  0.25500000000E-02 0. -1.
         -2   -1    0    0    0  501 -0.00000000000E+00 -0.00000000000E+00 -0.44116125911E+03  0.44116125911E+03  0.25500000000E-02 0.  1.
    8880022    1    1    2    0    0 -0.23017828491E+03 -0.18963887386E+02 -0.31442220692E+03  0.41904015212E+03  0.15294330000E+03 0.  0.
    8880022    1    1    2    0    0  0.23017828491E+03  0.18963887386E+02  0.18330619213E+03  0.33216635133E+03  0.15294330000E+03 0.  0.
<mgrwt>
<rscale>  0 0.27700781E+03</rscale>
<asrwt>0</asrwt>
<pdfrwt beam="1">  1        2 0.47699268E-01 0.27700781E+03</pdfrwt>
<pdfrwt beam="2">  1       -2 0.67870963E-01 0.27700781E+03</pdfrwt>
<totfact> 0.21648793E+02</totfact>
</mgrwt>
</event>
<event>
 4    1  0.5410820E-008  0.5836288E+03  0.7818608E-02  0.9939966E-01
         -2   -1    0    0    0  501 -0.00000000000E+00  0.00000000000E+00  0.90488975017E+03  0.90488975017E+03  0.25500000000E-02 0.  1.
          2   -1    0    0  501    0  0.00000000000E+00 -0.00000000000E+00 -0.21900713092E+04  0.21900713092E+04  0.25500000000E-02 0. -1.
    8880022    1    1    2    0    0 -0.43791566202E+02  0.56152755174E+03  0.76563548610E+03  0.96271503739E+03  0.15294330000E+03 0.  0.
    8880022    1    1    2    0    0  0.43791566202E+02 -0.56152755174E+03 -0.20508170451E+04  0.21322460220E+04  0.15294330000E+03 0.  0.
<mgrwt>
<rscale>  0 0.58362877E+03</rscale>
<asrwt>0</asrwt>
<pdfrwt beam="1">  1        2 0.33693405E+00 0.58362877E+03</pdfrwt>
<pdfrwt beam="2">  1       -2 0.13921381E+00 0.58362877E+03</pdfrwt>
<totfact> 0.20601351E+00</totfact>
</mgrwt>
</event>
<event>
 4    1  0.5410820E-008  0.4519316E+03  0.7818608E-02  0.1027148E+00
          2   -1    0    0  501    0  0.00000000000E+00  0.00000000000E+00  0.87498223802E+03  0.87498223802E+03  0.25500000000E-02 0. -1.
         -2   -1    0    0    0  501 -0.00000000000E+00 -0.00000000000E+00 -0.49829582563E+03  0.49829582563E+03  0.25500000000E-02 0.  1.
    8880022    1    1    2    0    0  0.18183880594E+03 -0.38442841045E+03  0.68895654158E+03  0.82395589888E+03  0.15294330000E+03 0.  0.
    8880022    1    1    2    0    0 -0.18183880594E+03  0.38442841045E+03 -0.31227012919E+03  0.54932216477E+03  0.15294330000E+03 0.  0.
<mgrwt>
<rscale>  0 0.45193164E+03</rscale>
<asrwt>0</asrwt>
<pdfrwt beam="1">  1        2 0.13461265E+00 0.45193164E+03</pdfrwt>
<pdfrwt beam="2">  1       -2 0.76660896E-01 0.45193164E+03</pdfrwt>
<totfact> 0.48556870E+01</totfact>
</mgrwt>
</event>
<event>
 4    1  0.5410820E-008  0.2406808E+03  0.7818608E-02  0.1119340E+00
          2   -1    0    0  501    0  0.00000000000E+00  0.00000000000E+00  0.38488707149E+03  0.38488707150E+03  0.25500000000E-02 0. -1.
         -2   -1    0    0    0  501 -0.00000000000E+00 -0.00000000000E+00 -0.30618723914E+03  0.30618723915E+03  0.25500000000E-02 0.  1.
    8880022    1    1    2    0    0 -0.89901334098E+02  0.16264485131E+03  0.28573895901E+03  0.37359604287E+03  0.15294330000E+03 0.  0.
    8880022    1    1    2    0    0  0.89901334098E+02 -0.16264485131E+03 -0.20703912666E+03  0.31747826779E+03  0.15294330000E+03 0.  1.
<mgrwt>
<rscale>  0 0.24068081E+03</rscale>
<asrwt>0</asrwt>
<pdfrwt beam="1">  1        2 0.59213395E-01 0.24068081E+03</pdfrwt>
<pdfrwt beam="2">  1       -2 0.47105729E-01 0.24068081E+03</pdfrwt>
<totfact> 0.36304994E+02</totfact>
</mgrwt>
</event>
<event>
 4    1  0.5410820E-008  0.4078954E+03  0.7818608E-02  0.1041080E+00
          2   -1    0    0  501    0  0.00000000000E+00  0.00000000000E+00  0.19336277429E+04  0.19336277429E+04  0.25500000000E-02 0. -1.
         -2   -1    0    0    0  501 -0.00000000000E+00 -0.00000000000E+00 -0.87165660819E+02  0.87165660856E+02  0.25500000000E-02 0.  1.
    8880022    1    1    2    0    0  0.23863838668E+03  0.29332356167E+03  0.80865551878E+03  0.90570546675E+03  0.15294330000E+03 0. -1.
    8880022    1    1    2    0    0 -0.23863838668E+03 -0.29332356167E+03  0.10378065633E+04  0.11150879370E+04  0.15294330000E+03 0.  1.
<mgrwt>
<rscale>  0 0.40789538E+03</rscale>
<asrwt>0</asrwt>
<pdfrwt beam="1">  1        2 0.29748116E+00 0.40789538E+03</pdfrwt>
<pdfrwt beam="2">  1       -2 0.13410103E-01 0.40789538E+03</pdfrwt>
<totfact> 0.32557729E+02</totfact>
</mgrwt>
</event>
<event>
 4    1  0.5410820E-008  0.5650754E+03  0.7818608E-02  0.9980636E-01
          2   -1    0    0  501    0  0.00000000000E+00  0.00000000000E+00  0.10272370162E+04  0.10272370162E+04  0.25500000000E-02 0. -1.
         -2   -1    0    0    0  501 -0.00000000000E+00 -0.00000000000E+00 -0.35820601769E+03  0.35820601770E+03  0.25500000000E-02 0.  1.
    8880022    1    1    2    0    0 -0.14462704211E+03  0.52440595114E+03  0.58640400536E+03  0.81435857791E+03  0.15294330000E+03 0.  0.
    8880022    1    1    2    0    0  0.14462704211E+03 -0.52440595114E+03  0.82626993188E+02  0.57108445603E+03  0.15294330000E+03 0.  0.
<mgrwt>
<rscale>  0 0.56507542E+03</rscale>
<asrwt>0</asrwt>
<pdfrwt beam="1">  1        2 0.15803646E+00 0.56507542E+03</pdfrwt>
<pdfrwt beam="2">  1       -2 0.55108619E-01 0.56507542E+03</pdfrwt>
<totfact> 0.77321329E+01</totfact>
</mgrwt>
</event>
<event>
 4    1  0.5410820E-008  0.6160303E+03  0.7818608E-02  0.9872695E-01
          2   -1    0    0  501    0  0.00000000000E+00  0.00000000000E+00  0.18353605998E+04  0.18353605998E+04  0.25500000000E-02 0. -1.
         -2   -1    0    0    0  501 -0.00000000000E+00 -0.00000000000E+00 -0.35296665289E+03  0.35296665290E+03  0.25500000000E-02 0.  1.
    8880022    1    1    2    0    0 -0.19139405515E+03  0.56521672038E+03  0.14453832796E+04  0.15711862089E+04  0.15294330000E+03 0.  0.
    8880022    1    1    2    0    0  0.19139405515E+03 -0.56521672038E+03  0.37010667328E+02  0.61714104373E+03  0.15294330000E+03 0.  0.
<mgrwt>
<rscale>  0 0.61603026E+03</rscale>
<asrwt>0</asrwt>
<pdfrwt beam="1">  1        2 0.28236317E+00 0.61603026E+03</pdfrwt>
<pdfrwt beam="2">  1       -2 0.54302561E-01 0.61603026E+03</pdfrwt>
<totfact> 0.27627245E+01</totfact>
</mgrwt>
</event>
<event>
 4    1  0.5410820E-008  0.9327771E+03  0.7818608E-02  0.9385511E-01
          2   -1    0    0  501    0  0.00000000000E+00  0.00000000000E+00  0.34112718011E+04  0.34112718011E+04  0.25500000000E-02 0. -1.
         -2   -1    0    0    0  501 -0.00000000000E+00 -0.00000000000E+00 -0.82837350903E+03  0.82837350903E+03  0.25500000000E-02 0.  1.
    8880022    1    1    2    0    0 -0.90668282115E+03 -0.15686843645E+03 -0.47208214388E+03  0.10454351477E+04  0.15294330000E+03 0.  0.
    8880022    1    1    2    0    0  0.90668282115E+03  0.15686843645E+03  0.30549804359E+04  0.31942101624E+04  0.15294330000E+03 0.  0.
<mgrwt>
<rscale>  0 0.93277709E+03</rscale>
<asrwt>0</asrwt>
<pdfrwt beam="1">  1        2 0.52481105E+00 0.93277709E+03</pdfrwt>
<pdfrwt beam="2">  1       -2 0.12744208E+00 0.93277709E+03</pdfrwt>
<totfact> 0.44579207E-01</totfact>
</mgrwt>
</event>
<event>
 4    1  0.5410820E-008  0.1042807E+04  0.7818608E-02  0.9262802E-01
          2   -1    0    0  501    0  0.00000000000E+00  0.00000000000E+00  0.15326240019E+04  0.15326240019E+04  0.25500000000E-02 0. -1.
         -2   -1    0    0    0  501 -0.00000000000E+00 -0.00000000000E+00 -0.12921084644E+04  0.12921084644E+04  0.25500000000E-02 0.  1.
    8880022    1    1    2    0    0  0.89584582521E+03  0.51138626792E+03  0.10686193106E+04  0.14931157161E+04  0.15294330000E+03 0.  0.
    8880022    1    1    2    0    0 -0.89584582521E+03 -0.51138626792E+03 -0.82810377303E+03  0.13316167502E+04  0.15294330000E+03 0.  0.
<mgrwt>
<rscale>  0 0.10428074E+04</rscale>
<asrwt>0</asrwt>
<pdfrwt beam="1">  1        2 0.23578831E+00 0.10428074E+04</pdfrwt>
<pdfrwt beam="2">  1       -2 0.19878592E+00 0.10428074E+04</pdfrwt>
<totfact> 0.16288102E+00</totfact>
</mgrwt>
</event>
<event>
 4    1  0.5410820E-008  0.3330845E+03  0.7818608E-02  0.1069780E+00
          2   -1    0    0  501    0  0.00000000000E+00  0.00000000000E+00  0.14953562660E+04  0.14953562660E+04  0.25500000000E-02 0. -1.
         -2   -1    0    0    0  501 -0.00000000000E+00 -0.00000000000E+00 -0.64100340867E+03  0.64100340868E+03  0.25500000000E-02 0.  1.
    8880022    1    1    2    0    0  0.29560093062E+03 -0.13180598277E+02 -0.57728446238E+03  0.66648529006E+03  0.15294330000E+03 0.  0.
    8880022    1    1    2    0    0 -0.29560093062E+03  0.13180598277E+02  0.14316373197E+04  0.14698743846E+04  0.15294330000E+03 0.  0.
<mgrwt>
<rscale>  0 0.33308451E+03</rscale>
<asrwt>0</asrwt>
<pdfrwt beam="1">  1        2 0.23005481E+00 0.33308451E+03</pdfrwt>
<pdfrwt beam="2">  1       -2 0.98615909E-01 0.33308451E+03</pdfrwt>
<totfact> 0.12128733E+01</totfact>
</mgrwt>
</event>
<event>
 4    1  0.5410820E-008  0.4820743E+03  0.7818608E-02  0.1018567E+00
         -2   -1    0    0    0  501 -0.00000000000E+00  0.00000000000E+00  0.73962280395E+03  0.73962280395E+03  0.25500000000E-02 0.  1.
          2   -1    0    0  501    0  0.00000000000E+00 -0.00000000000E+00 -0.10445641579E+04  0.10445641579E+04  0.25500000000E-02 0. -1.
    8880022    1    1    2    0    0 -0.37365457155E+03  0.26341275137E+03  0.59347988583E+03  0.76460057829E+03  0.15294330000E+03 0.  0.
    8880022    1    1    2    0    0  0.37365457155E+03 -0.26341275137E+03 -0.89842123977E+03  0.10195863835E+04  0.15294330000E+03 0.  0.
<mgrwt>
<rscale>  0 0.48207434E+03</rscale>
<asrwt>0</asrwt>
<pdfrwt beam="1">  1        2 0.16070218E+00 0.48207434E+03</pdfrwt>
<pdfrwt beam="2">  1       -2 0.11378812E+00 0.48207434E+03</pdfrwt>
<totfact> 0.15080687E+01</totfact>
</mgrwt>
</event>
<event>
 4    1  0.5410820E-008  0.3153560E+03  0.7818608E-02  0.1077807E+00
          2   -1    0    0  501    0  0.00000000000E+00  0.00000000000E+00  0.36499134424E+03  0.36499134425E+03  0.25500000000E-02 0. -1.
         -2   -1    0    0    0  501 -0.00000000000E+00 -0.00000000000E+00 -0.35994957306E+03  0.35994957307E+03  0.25500000000E-02 0.  1.
    8880022    1    1    2    0    0  0.21810622388E+03 -0.16878228420E+03  0.18121219929E+03  0.36371320920E+03  0.15294330000E+03 0.  0.
    8880022    1    1    2    0    0 -0.21810622388E+03  0.16878228420E+03 -0.17617042812E+03  0.36122770812E+03  0.15294330000E+03 0.  0.
<mgrwt>
<rscale>  0 0.31535605E+03</rscale>
<asrwt>0</asrwt>
<pdfrwt beam="1">  1        2 0.56152514E-01 0.31535605E+03</pdfrwt>
<pdfrwt beam="2">  1       -2 0.55376858E-01 0.31535605E+03</pdfrwt>
<totfact> 0.27687125E+02</totfact>
</mgrwt>
</event>
<event>
 4    1  0.5410820E-008  0.5087525E+03  0.7818608E-02  0.1011519E+00
          2   -1    0    0  501    0  0.00000000000E+00  0.00000000000E+00  0.11492185271E+04  0.11492185271E+04  0.25500000000E-02 0. -1.
         -2   -1    0    0    0  501 -0.00000000000E+00 -0.00000000000E+00 -0.34814081651E+03  0.34814081652E+03  0.25500000000E-02 0.  1.
    8880022    1    1    2    0    0  0.41050942893E+03  0.25868798359E+03 -0.44325929065E+02  0.51067984599E+03  0.15294330000E+03 0.  0.
    8880022    1    1    2    0    0 -0.41050942893E+03 -0.25868798359E+03  0.84540363966E+03  0.98667949764E+03  0.15294330000E+03 0.  0.
<mgrwt>
<rscale>  0 0.50875251E+03</rscale>
<asrwt>0</asrwt>
<pdfrwt beam="1">  1        2 0.17680285E+00 0.50875251E+03</pdfrwt>
<pdfrwt beam="2">  1       -2 0.53560126E-01 0.50875251E+03</pdfrwt>
<totfact> 0.69578737E+01</totfact>
</mgrwt>
</event>
<event>
 4    1  0.5410820E-008  0.6239820E+03  0.7818608E-02  0.9856863E-01
          2   -1    0    0  501    0  0.00000000000E+00  0.00000000000E+00  0.21993572001E+04  0.21993572001E+04  0.25500000000E-02 0. -1.
         -2   -1    0    0    0  501 -0.00000000000E+00 -0.00000000000E+00 -0.27992537468E+03  0.27992537469E+03  0.25500000000E-02 0.  1.
    8880022    1    1    2    0    0 -0.10102724252E+03  0.59645235655E+03  0.17112895097E+04  0.18215008527E+04  0.15294330000E+03 0.  0.
    8880022    1    1    2    0    0  0.10102724252E+03 -0.59645235655E+03  0.20814231578E+03  0.65778172215E+03  0.15294330000E+03 0.  0.
<mgrwt>
<rscale>  0 0.62398203E+03</rscale>
<asrwt>0</asrwt>
<pdfrwt beam="1">  1        2 0.33836265E+00 0.62398203E+03</pdfrwt>
<pdfrwt beam="2">  1       -2 0.43065441E-01 0.62398203E+03</pdfrwt>
<totfact> 0.27930019E+01</totfact>
</mgrwt>
</event>
<event>
 4    1  0.5410820E-008  0.1836753E+03  0.7818608E-02  0.1164293E+00
         -2   -1    0    0    0  501 -0.00000000000E+00  0.00000000000E+00  0.14363000307E+03  0.14363000309E+03  0.25500000000E-02 0.  1.
          2   -1    0    0  501    0  0.00000000000E+00 -0.00000000000E+00 -0.33316423030E+04  0.33316423030E+04  0.25500000000E-02 0. -1.
    8880022    1    1    2    0    0  0.10167180058E+03 -0.27974973933E+01  0.81257618666E+02  0.20084679393E+03  0.15294330000E+03 0.  0.
    8880022    1    1    2    0    0 -0.10167180058E+03  0.27974973933E+01 -0.32692699186E+04  0.32744255121E+04  0.15294330000E+03 0. -1.
<mgrwt>
<rscale>  0 0.18367535E+03</rscale>
<asrwt>0</asrwt>
<pdfrwt beam="1">  1        2 0.51256030E+00 0.18367535E+03</pdfrwt>
<pdfrwt beam="2">  1       -2 0.22096926E-01 0.18367535E+03</pdfrwt>
<totfact> 0.24526636E+01</totfact>
</mgrwt>
</event>
<event>
 4    1  0.5410820E-008  0.4760258E+03  0.7818608E-02  0.1020233E+00
          2   -1    0    0  501    0  0.00000000000E+00  0.00000000000E+00  0.21377000335E+04  0.21377000335E+04  0.25500000000E-02 0. -1.
         -2   -1    0    0    0  501 -0.00000000000E+00 -0.00000000000E+00 -0.22707363863E+03  0.22707363864E+03  0.25500000000E-02 0.  1.
    8880022    1    1    2    0    0 -0.44838713947E+03 -0.46452974424E+02  0.18186840239E+04  0.18799500359E+04  0.15294330000E+03 0. -1.
    8880022    1    1    2    0    0  0.44838713947E+03  0.46452974424E+02  0.91942370983E+02  0.48482363625E+03  0.15294330000E+03 0.  0.
<mgrwt>
<rscale>  0 0.47602580E+03</rscale>
<asrwt>0</asrwt>
<pdfrwt beam="1">  1        2 0.32887691E+00 0.47602580E+03</pdfrwt>
<pdfrwt beam="2">  1       -2 0.34934407E-01 0.47602580E+03</pdfrwt>
<totfact> 0.46428683E+01</totfact>
</mgrwt>
</event>
<event>
 4    1  0.5410820E-008  0.3328986E+03  0.7818608E-02  0.1069861E+00
          2   -1    0    0  501    0  0.00000000000E+00  0.00000000000E+00  0.54975829043E+03  0.54975829044E+03  0.25500000000E-02 0. -1.
         -2   -1    0    0    0  501 -0.00000000000E+00 -0.00000000000E+00 -0.41457696015E+03  0.41457696016E+03  0.25500000000E-02 0.  1.
    8880022    1    1    2    0    0 -0.14780764836E+03  0.25609127684E+03 -0.27801424649E+03  0.43372043675E+03  0.15294330000E+03 0.  0.
    8880022    1    1    2    0    0  0.14780764836E+03 -0.25609127684E+03  0.41319557678E+03  0.53061481384E+03  0.15294330000E+03 0.  0.
<mgrwt>
<rscale>  0 0.33289863E+03</rscale>
<asrwt>0</asrwt>
<pdfrwt beam="1">  1        2 0.84578198E-01 0.33289863E+03</pdfrwt>
<pdfrwt beam="2">  1       -2 0.63781071E-01 0.33289863E+03</pdfrwt>
<totfact> 0.13042114E+02</totfact>
</mgrwt>
</event>
<event>
 4    1  0.5410820E-008  0.2176459E+03  0.7818608E-02  0.1135650E+00
          2   -1    0    0  501    0  0.00000000000E+00  0.00000000000E+00  0.12385841542E+04  0.12385841542E+04  0.25500000000E-02 0. -1.
         -2   -1    0    0    0  501 -0.00000000000E+00 -0.00000000000E+00 -0.19851447115E+03  0.19851447117E+03  0.25500000000E-02 0.  1.
    8880022    1    1    2    0    0 -0.14342621058E+03  0.58369391381E+02 -0.12559831090E+03  0.25128599732E+03  0.15294330000E+03 0.  0.
    8880022    1    1    2    0    0  0.14342621058E+03 -0.58369391381E+02  0.11656679940E+04  0.11858126281E+04  0.15294330000E+03 0.  0.
<mgrwt>
<rscale>  0 0.21764585E+03</rscale>
<asrwt>0</asrwt>
<pdfrwt beam="1">  1        2 0.19055141E+00 0.21764585E+03</pdfrwt>
<pdfrwt beam="2">  1       -2 0.30540688E-01 0.21764585E+03</pdfrwt>
<totfact> 0.19192784E+02</totfact>
</mgrwt>
</event>
<event>
 4    1  0.5410820E-008  0.8071647E+03  0.7818608E-02  0.9549704E-01
          2   -1    0    0  501    0  0.00000000000E+00  0.00000000000E+00  0.18624442024E+04  0.18624442024E+04  0.25500000000E-02 0. -1.
         -2   -1    0    0    0  501 -0.00000000000E+00 -0.00000000000E+00 -0.74757644303E+03  0.74757644303E+03  0.25500000000E-02 0.  1.
    8880022    1    1    2    0    0 -0.30727790941E+03 -0.73055012388E+03  0.15093448501E+04  0.17116181603E+04  0.15294330000E+03 0.  0.
    8880022    1    1    2    0    0  0.30727790941E+03  0.73055012388E+03 -0.39447709075E+03  0.89840248512E+03  0.15294330000E+03 0.  0.
<mgrwt>
<rscale>  0 0.80716470E+03</rscale>
<asrwt>0</asrwt>
<pdfrwt beam="1">  1        2 0.28652987E+00 0.80716470E+03</pdfrwt>
<pdfrwt beam="2">  1       -2 0.11501176E+00 0.80716470E+03</pdfrwt>
<totfact> 0.48080108E+00</totfact>
</mgrwt>
</event>
<event>
 4    1  0.5410820E-008  0.8322452E+03  0.7818608E-02  0.9514482E-01
         -2   -1    0    0    0  501 -0.00000000000E+00  0.00000000000E+00  0.44192312039E+03  0.44192312040E+03  0.25500000000E-02 0.  1.
          2   -1    0    0  501    0  0.00000000000E+00 -0.00000000000E+00 -0.19492568018E+04  0.19492568018E+04  0.25500000000E-02 0. -1.
    8880022    1    1    2    0    0  0.81648081457E+03 -0.50986032285E+02 -0.22443363995E+03  0.86197599027E+03  0.15294330000E+03 0.  0.
    8880022    1    1    2    0    0 -0.81648081457E+03  0.50986032285E+02 -0.12829000414E+04  0.15292039319E+04  0.15294330000E+03 0.  0.
<mgrwt>
<rscale>  0 0.83224525E+03</rscale>
<asrwt>0</asrwt>
<pdfrwt beam="1">  1        2 0.29988566E+00 0.83224525E+03</pdfrwt>
<pdfrwt beam="2">  1       -2 0.67988173E-01 0.83224525E+03</pdfrwt>
<totfact> 0.14437118E+01</totfact>
</mgrwt>
</event>
<event>
 4    1  0.5410820E-008  0.5263269E+03  0.7818608E-02  0.1007127E+00
          2   -1    0    0  501    0  0.00000000000E+00  0.00000000000E+00  0.13275735987E+04  0.13275735987E+04  0.25500000000E-02 0. -1.
         -2   -1    0    0    0  501 -0.00000000000E+00 -0.00000000000E+00 -0.23780985699E+03  0.23780985700E+03  0.25500000000E-02 0.  1.
    8880022    1    1    2    0    0 -0.50282966010E+03  0.28118944001E+02  0.81887924375E+03  0.97343885835E+03  0.15294330000E+03 0.  0.
    8880022    1    1    2    0    0  0.50282966010E+03 -0.28118944001E+02  0.27088449797E+03  0.59194459736E+03  0.15294330000E+03 0.  0.
<mgrwt>
<rscale>  0 0.52632689E+03</rscale>
<asrwt>0</asrwt>
<pdfrwt beam="1">  1        2 0.20424209E+00 0.52632689E+03</pdfrwt>
<pdfrwt beam="2">  1       -2 0.36586132E-01 0.52632689E+03</pdfrwt>
<totfact> 0.11632929E+02</totfact>
</mgrwt>
</event>
<event>
 4    1  0.5410820E-008  0.1753801E+04  0.7818608E-02  0.8731261E-01
          2   -1    0    0  501    0  0.00000000000E+00  0.00000000000E+00  0.45792744865E+04  0.45792744865E+04  0.25500000000E-02 0. -1.
         -2   -1    0    0    0  501 -0.00000000000E+00 -0.00000000000E+00 -0.70373816013E+03  0.70373816014E+03  0.25500000000E-02 0.  1.
    8880022    1    1    2    0    0  0.15626067414E+04 -0.78146337605E+03  0.13739987719E+04  0.22279338219E+04  0.15294330000E+03 0.  0.
    8880022    1    1    2    0    0 -0.15626067414E+04  0.78146337605E+03  0.25015375544E+04  0.30550788248E+04  0.15294330000E+03 0.  0.
<mgrwt>
<rscale>  0 0.17538006E+04</rscale>
<asrwt>0</asrwt>
<pdfrwt beam="1">  1        2 0.70450373E+00 0.17538006E+04</pdfrwt>
<pdfrwt beam="2">  1       -2 0.10826741E+00 0.17538006E+04</pdfrwt>
<totfact> 0.66343492E-02</totfact>
</mgrwt>
</event>
<event>
 4    1  0.5410820E-008  0.1933775E+03  0.7818608E-02  0.1155450E+00
          2   -1    0    0  501    0  0.00000000000E+00  0.00000000000E+00  0.29628907371E+04  0.29628907371E+04  0.25500000000E-02 0. -1.
         -2   -1    0    0    0  501 -0.00000000000E+00 -0.00000000000E+00 -0.44057902650E+02  0.44057902724E+02  0.25500000000E-02 0.  1.
    8880022    1    1    2    0    0  0.38368005013E+02 -0.11194245641E+03  0.18941720236E+03  0.27069123909E+03  0.15294330000E+03 0.  1.
    8880022    1    1    2    0    0 -0.38368005013E+02  0.11194245641E+03  0.27294156321E+04  0.27362574007E+04  0.15294330000E+03 0.  0.
<mgrwt>
<rscale>  0 0.19337753E+03</rscale>
<asrwt>0</asrwt>
<pdfrwt beam="1">  1        2 0.45582942E+00 0.19337753E+03</pdfrwt>
<pdfrwt beam="2">  1       -2 0.67781377E-02 0.19337753E+03</pdfrwt>
<totfact> 0.27592324E+02</totfact>
</mgrwt>
</event>
<event>
 4    1  0.5410820E-008  0.1006550E+04  0.7818608E-02  0.9301390E-01
          2   -1    0    0  501    0  0.00000000000E+00  0.00000000000E+00  0.10584734911E+04  0.10584734911E+04  0.25500000000E-02 0. -1.
         -2   -1    0    0    0  501 -0.00000000000E+00 -0.00000000000E+00 -0.15727195694E+04  0.15727195694E+04  0.25500000000E-02 0.  1.
    8880022    1    1    2    0    0  0.45239450357E+03  0.88605349280E+03  0.56592882585E+03  0.11547374887E+04  0.15294330000E+03 0.  0.
    8880022    1    1    2    0    0 -0.45239450357E+03 -0.88605349280E+03 -0.10801749041E+04  0.14764555718E+04  0.15294330000E+03 0.  0.
<mgrwt>
<rscale>  0 0.10065502E+04</rscale>
<asrwt>0</asrwt>
<pdfrwt beam="1">  1        2 0.16284208E+00 0.10065502E+04</pdfrwt>
<pdfrwt beam="2">  1       -2 0.24195686E+00 0.10065502E+04</pdfrwt>
<totfact> 0.16574092E+00</totfact>
</mgrwt>
</event>
<event>
 4    1  0.5410820E-008  0.6259716E+03  0.7818608E-02  0.9852942E-01
          2   -1    0    0  501    0  0.00000000000E+00  0.00000000000E+00  0.18730967529E+04  0.18730967529E+04  0.25500000000E-02 0. -1.
         -2   -1    0    0    0  501 -0.00000000000E+00 -0.00000000000E+00 -0.21262028869E+03  0.21262028871E+03  0.25500000000E-02 0.  1.
    8880022    1    1    2    0    0 -0.58846175651E+03  0.14886772571E+03  0.69785323894E+03  0.93746447120E+03  0.15294330000E+03 0.  1.
    8880022    1    1    2    0    0  0.58846175651E+03 -0.14886772571E+03  0.96262322528E+03  0.11482525704E+04  0.15294330000E+03 0. -1.
<mgrwt>
<rscale>  0 0.62597164E+03</rscale>
<asrwt>0</asrwt>
<pdfrwt beam="1">  1        2 0.28816872E+00 0.62597164E+03</pdfrwt>
<pdfrwt beam="2">  1       -2 0.32710815E-01 0.62597164E+03</pdfrwt>
<totfact> 0.71288717E+01</totfact>
</mgrwt>
</event>
<event>
 4    1  0.5410820E-008  0.1025047E+04  0.7818608E-02  0.9281493E-01
         -2   -1    0    0    0  501 -0.00000000000E+00  0.00000000000E+00  0.12222903765E+04  0.12222903765E+04  0.25500000000E-02 0.  1.
          2   -1    0    0  501    0  0.00000000000E+00 -0.00000000000E+00 -0.11614664913E+04  0.11614664913E+04  0.25500000000E-02 0. -1.
    8880022    1    1    2    0    0 -0.82866338429E+03 -0.58364870318E+03 -0.57718101479E+03  0.11763751060E+04  0.15294330000E+03 0.  0.
    8880022    1    1    2    0    0  0.82866338429E+03  0.58364870318E+03  0.63800489998E+03  0.12073817617E+04  0.15294330000E+03 0.  0.
<mgrwt>
<rscale>  0 0.10250466E+04</rscale>
<asrwt>0</asrwt>
<pdfrwt beam="1">  1        2 0.17868715E+00 0.10250466E+04</pdfrwt>
<pdfrwt beam="2">  1       -2 0.18804467E+00 0.10250466E+04</pdfrwt>
<totfact> 0.31566038E+00</totfact>
</mgrwt>
</event>
<event>
 4    1  0.5410820E-008  0.2637175E+03  0.7818608E-02  0.1104930E+00
         -2   -1    0    0    0  501 -0.00000000000E+00  0.00000000000E+00  0.90768379101E+03  0.90768379101E+03  0.25500000000E-02 0.  1.
          2   -1    0    0  501    0  0.00000000000E+00 -0.00000000000E+00 -0.96744083863E+03  0.96744083864E+03  0.25500000000E-02 0. -1.
    8880022    1    1    2    0    0 -0.72451843119E+02  0.20225231580E+03  0.86979112081E+03  0.90889136626E+03  0.15294330000E+03 0.  0.
    8880022    1    1    2    0    0  0.72451843119E+02 -0.20225231580E+03 -0.92954816843E+03  0.96623326339E+03  0.15294330000E+03 0. -1.
<mgrwt>
<rscale>  0 0.26371750E+03</rscale>
<asrwt>0</asrwt>
<pdfrwt beam="1">  1        2 0.14883705E+00 0.26371750E+03</pdfrwt>
<pdfrwt beam="2">  1       -2 0.13964366E+00 0.26371750E+03</pdfrwt>
<totfact> 0.10689485E+01</totfact>
</mgrwt>
</event>
<event>
 4    1  0.5410820E-008  0.4068116E+03  0.7818608E-02  0.1041446E+00
         -2   -1    0    0    0  501 -0.00000000000E+00  0.00000000000E+00  0.17431193136E+03  0.17431193138E+03  0.25500000000E-02 0.  1.
          2   -1    0    0  501    0  0.00000000000E+00 -0.00000000000E+00 -0.32498676096E+04  0.32498676096E+04  0.25500000000E-02 0. -1.
    8880022    1    1    2    0    0  0.37690155464E+03  0.70190696638E+01 -0.97323097083E+02  0.41829115155E+03  0.15294330000E+03 0.  0.
    8880022    1    1    2    0    0 -0.37690155464E+03 -0.70190696638E+01 -0.29782325812E+04  0.30058883895E+04  0.15294330000E+03 0.  0.
<mgrwt>
<rscale>  0 0.40681163E+03</rscale>
<asrwt>0</asrwt>
<pdfrwt beam="1">  1        2 0.49997959E+00 0.40681163E+03</pdfrwt>
<pdfrwt beam="2">  1       -2 0.26817223E-01 0.40681163E+03</pdfrwt>
<totfact> 0.17587575E+01</totfact>
</mgrwt>
</event>
<event>
 4    1  0.5410820E-008  0.2326426E+03  0.7818608E-02  0.1124794E+00
          2   -1    0    0  501    0  0.00000000000E+00  0.00000000000E+00  0.52193768700E+03  0.52193768700E+03  0.25500000000E-02 0. -1.
         -2   -1    0    0    0  501 -0.00000000000E+00 -0.00000000000E+00 -0.14037049023E+03  0.14037049025E+03  0.25500000000E-02 0.  1.
    8880022    1    1    2    0    0  0.16207350627E+03  0.66806409496E+02  0.36005259814E+03  0.42867288721E+03  0.15294330000E+03 0.  0.
    8880022    1    1    2    0    0 -0.16207350627E+03 -0.66806409496E+02  0.21514598629E+02  0.23363529005E+03  0.15294330000E+03 0.  1.
<mgrwt>
<rscale>  0 0.23264258E+03</rscale>
<asrwt>0</asrwt>
<pdfrwt beam="1">  1        2 0.80298106E-01 0.23264258E+03</pdfrwt>
<pdfrwt beam="2">  1       -2 0.21595460E-01 0.23264258E+03</pdfrwt>
<totfact> 0.10911459E+03</totfact>
</mgrwt>
</event>
<event>
 4    1  0.5410820E-008  0.4173280E+03  0.7818608E-02  0.1037939E+00
          2   -1    0    0  501    0  0.00000000000E+00  0.00000000000E+00  0.26386804416E+04  0.26386804416E+04  0.25500000000E-02 0. -1.
         -2   -1    0    0    0  501 -0.00000000000E+00 -0.00000000000E+00 -0.16554634454E+03  0.16554634456E+03  0.25500000000E-02 0.  1.
    8880022    1    1    2    0    0 -0.25499462083E+03 -0.29282892157E+03  0.23238132901E+04  0.23609893889E+04  0.15294330000E+03 0.  0.
    8880022    1    1    2    0    0  0.25499462083E+03  0.29282892157E+03  0.14932080693E+03  0.44323739729E+03  0.15294330000E+03 0.  0.
<mgrwt>
<rscale>  0 0.41732803E+03</rscale>
<asrwt>0</asrwt>
<pdfrwt beam="1">  1        2 0.40595084E+00 0.41732803E+03</pdfrwt>
<pdfrwt beam="2">  1       -2 0.25468668E-01 0.41732803E+03</pdfrwt>
<totfact> 0.44522545E+01</totfact>
</mgrwt>
</event>
<event>
 4    1  0.5410820E-008  0.2198199E+03  0.7818608E-02  0.1134017E+00
          2   -1    0    0  501    0  0.00000000000E+00  0.00000000000E+00  0.28650555087E+03  0.28650555088E+03  0.25500000000E-02 0. -1.
         -2   -1    0    0    0  501 -0.00000000000E+00 -0.00000000000E+00 -0.74614807541E+03  0.74614807542E+03  0.25500000000E-02 0.  1.
    8880022    1    1    2    0    0 -0.11525433513E+03 -0.10791473806E+03  0.22441863798E+03  0.31414094057E+03  0.15294330000E+03 0. -1.
    8880022    1    1    2    0    0  0.11525433513E+03  0.10791473806E+03 -0.68406116253E+03  0.71851268572E+03  0.15294330000E+03 0.  0.
<mgrwt>
<rscale>  0 0.21981994E+03</rscale>
<asrwt>0</asrwt>
<pdfrwt beam="1">  1        2 0.44077777E-01 0.21981994E+03</pdfrwt>
<pdfrwt beam="2">  1       -2 0.11479201E+00 0.21981994E+03</pdfrwt>
<totfact> 0.72203503E+01</totfact>
</mgrwt>
</event>
<event>
 4    1  0.5410820E-008  0.3050522E+03  0.7818608E-02  0.1082742E+00
          2   -1    0    0  501    0  0.00000000000E+00  0.00000000000E+00  0.45312272424E+03  0.45312272424E+03  0.25500000000E-02 0. -1.
         -2   -1    0    0    0  501 -0.00000000000E+00 -0.00000000000E+00 -0.13059790004E+04  0.13059790004E+04  0.25500000000E-02 0.  1.
    8880022    1    1    2    0    0  0.26349170982E+03 -0.15405056624E+02  0.38101102778E+03  0.48808426856E+03  0.15294330000E+03 0. -1.
    8880022    1    1    2    0    0 -0.26349170982E+03  0.15405056624E+02 -0.12338673039E+04  0.12710174561E+04  0.15294330000E+03 0.  0.
<mgrwt>
<rscale>  0 0.30505221E+03</rscale>
<asrwt>0</asrwt>
<pdfrwt beam="1">  1        2 0.69711189E-01 0.30505221E+03</pdfrwt>
<pdfrwt beam="2">  1       -2 0.20091984E+00 0.30505221E+03</pdfrwt>
<totfact> 0.99147859E+00</totfact>
</mgrwt>
</event>
<event>
 4    1  0.5410820E-008  0.4664808E+03  0.7818608E-02  0.1022918E+00
         -2   -1    0    0    0  501 -0.00000000000E+00  0.00000000000E+00  0.23957019201E+03  0.23957019203E+03  0.25500000000E-02 0.  1.
          2   -1    0    0  501    0  0.00000000000E+00 -0.00000000000E+00 -0.15041519519E+04  0.15041519519E+04  0.25500000000E-02 0. -1.
    8880022    1    1    2    0    0  0.36372280987E+03  0.24883405487E+03 -0.83551053518E+02  0.47390410511E+03  0.15294330000E+03 0.  1.
    8880022    1    1    2    0    0 -0.36372280987E+03 -0.24883405487E+03 -0.11810307063E+04  0.12698180388E+04  0.15294330000E+03 0.  0.
<mgrwt>
<rscale>  0 0.46648078E+03</rscale>
<asrwt>0</asrwt>
<pdfrwt beam="1">  1        2 0.23140799E+00 0.46648078E+03</pdfrwt>
<pdfrwt beam="2">  1       -2 0.36856953E-01 0.46648078E+03</pdfrwt>
<totfact> 0.92222286E+01</totfact>
</mgrwt>
</event>
<event>
 4    1  0.5410820E-008  0.3329554E+03  0.7818608E-02  0.1069837E+00
         -2   -1    0    0    0  501 -0.00000000000E+00  0.00000000000E+00  0.17518765001E+03  0.17518765003E+03  0.25500000000E-02 0.  1.
          2   -1    0    0  501    0  0.00000000000E+00 -0.00000000000E+00 -0.80845621034E+03  0.80845621034E+03  0.25500000000E-02 0. -1.
    8880022    1    1    2    0    0 -0.44464715482E+02 -0.29238762951E+03 -0.54588333223E+03  0.63941215365E+03  0.15294330000E+03 0.  0.
    8880022    1    1    2    0    0  0.44464715482E+02  0.29238762951E+03 -0.87385228095E+02  0.34423170673E+03  0.15294330000E+03 0.  0.
<mgrwt>
<rscale>  0 0.33295539E+03</rscale>
<asrwt>0</asrwt>
<pdfrwt beam="1">  1        2 0.12437788E+00 0.33295539E+03</pdfrwt>
<pdfrwt beam="2">  1       -2 0.26951947E-01 0.33295539E+03</pdfrwt>
<totfact> 0.43558161E+02</totfact>
</mgrwt>
</event>
<event>
 4    1  0.5410820E-008  0.1794341E+03  0.7818608E-02  0.1168352E+00
          2   -1    0    0  501    0  0.00000000000E+00  0.00000000000E+00  0.17964019692E+04  0.17964019692E+04  0.25500000000E-02 0. -1.
         -2   -1    0    0    0  501 -0.00000000000E+00 -0.00000000000E+00 -0.10310441751E+03  0.10310441754E+03  0.25500000000E-02 0.  1.
    8880022    1    1    2    0    0 -0.92049527060E+02 -0.18216071978E+02  0.17099155180E+04  0.17193044153E+04  0.15294330000E+03 0.  0.
    8880022    1    1    2    0    0  0.92049527060E+02  0.18216071978E+02 -0.16617966277E+02  0.18020197149E+03  0.15294330000E+03 0.  1.
<mgrwt>
<rscale>  0 0.17943409E+03</rscale>
<asrwt>0</asrwt>
<pdfrwt beam="1">  1        2 0.27636956E+00 0.17943409E+03</pdfrwt>
<pdfrwt beam="2">  1       -2 0.15862217E-01 0.17943409E+03</pdfrwt>
<totfact> 0.30447702E+02</totfact>
</mgrwt>
</event>
<event>
 4    1  0.5410820E-008  0.3972598E+03  0.7818608E-02  0.1044733E+00
          2   -1    0    0  501    0  0.00000000000E+00  0.00000000000E+00  0.12664024911E+04  0.12664024911E+04  0.25500000000E-02 0. -1.
         -2   -1    0    0    0  501 -0.00000000000E+00 -0.00000000000E+00 -0.14006147942E+03  0.14006147944E+03  0.25500000000E-02 0.  1.
    8880022    1    1    2    0    0 -0.17618021976E+03 -0.32153414872E+03  0.79669116969E+03  0.89024274864E+03  0.15294330000E+03 0.  0.
    8880022    1    1    2    0    0  0.17618021976E+03  0.32153414872E+03  0.32964984202E+03  0.51622122195E+03  0.15294330000E+03 0.  0.
<mgrwt>
<rscale>  0 0.39725978E+03</rscale>
<asrwt>0</asrwt>
<pdfrwt beam="1">  1        2 0.19483115E+00 0.39725978E+03</pdfrwt>
<pdfrwt beam="2">  1       -2 0.21547920E-01 0.39725978E+03</pdfrwt>
<totfact> 0.33561307E+02</totfact>
</mgrwt>
</event>
<event>
 4    1  0.5410820E-008  0.3983698E+03  0.7818608E-02  0.1044346E+00
         -2   -1    0    0    0  501 -0.00000000000E+00  0.00000000000E+00  0.90619769078E+02  0.90619769114E+02  0.25500000000E-02 0.  1.
          2   -1    0    0  501    0  0.00000000000E+00 -0.00000000000E+00 -0.38685595668E+04  0.38685595668E+04  0.25500000000E-02 0. -1.
    8880022    1    1    2    0    0 -0.32307317935E+03  0.17587096475E+03 -0.42446115272E+03  0.58212180739E+03  0.15294330000E+03 0.  0.
    8880022    1    1    2    0    0  0.32307317935E+03 -0.17587096475E+03 -0.33534786450E+04  0.33770575285E+04  0.15294330000E+03 0.  0.
<mgrwt>
<rscale>  0 0.39836984E+03</rscale>
<asrwt>0</asrwt>
<pdfrwt beam="1">  1        2 0.59516288E+00 0.39836984E+03</pdfrwt>
<pdfrwt beam="2">  1       -2 0.13941506E-01 0.39836984E+03</pdfrwt>
<totfact> 0.20620429E+01</totfact>
</mgrwt>
</event>
<event>
 4    1  0.5410820E-008  0.4487052E+03  0.7818608E-02  0.1028109E+00
         -2   -1    0    0    0  501 -0.00000000000E+00  0.00000000000E+00  0.15965406824E+03  0.15965406826E+03  0.25500000000E-02 0.  1.
          2   -1    0    0  501    0  0.00000000000E+00 -0.00000000000E+00 -0.24131214484E+04  0.24131214484E+04  0.25500000000E-02 0. -1.
    8880022    1    1    2    0    0  0.41918497620E+03 -0.47208693827E+02 -0.20155593630E+04  0.20649009429E+04  0.15294330000E+03 0.  0.
    8880022    1    1    2    0    0 -0.41918497620E+03  0.47208693827E+02 -0.23790801711E+03  0.50787457375E+03  0.15294330000E+03 0.  0.
<mgrwt>
<rscale>  0 0.44870520E+03</rscale>
<asrwt>0</asrwt>
<pdfrwt beam="1">  1        2 0.37124943E+00 0.44870520E+03</pdfrwt>
<pdfrwt beam="2">  1       -2 0.24562166E-01 0.44870520E+03</pdfrwt>
<totfact> 0.63039796E+01</totfact>
</mgrwt>
</event>
<event>
 4    1  0.5410820E-008  0.9926930E+03  0.7818608E-02  0.9316595E-01
         -2   -1    0    0    0  501 -0.00000000000E+00  0.00000000000E+00  0.13359745863E+04  0.13359745863E+04  0.25500000000E-02 0.  1.
          2   -1    0    0  501    0  0.00000000000E+00 -0.00000000000E+00 -0.99902980979E+03  0.99902980979E+03  0.25500000000E-02 0. -1.
    8880022    1    1    2    0    0 -0.27974192022E+03  0.94010222419E+03  0.76568749377E+03  0.12536812693E+04  0.15294330000E+03 0.  0.
    8880022    1    1    2    0    0  0.27974192022E+03 -0.94010222419E+03 -0.42874271729E+03  0.10813231268E+04  0.15294330000E+03 0.  0.
<mgrwt>
<rscale>  0 0.99269300E+03</rscale>
<asrwt>0</asrwt>
<pdfrwt beam="1">  1        2 0.15369689E+00 0.99269300E+03</pdfrwt>
<pdfrwt beam="2">  1       -2 0.20553455E+00 0.99269300E+03</pdfrwt>
<totfact> 0.30664133E+00</totfact>
</mgrwt>
</event>
<event>
 4    1  0.5410820E-008  0.7416591E+03  0.7818608E-02  0.9648528E-01
         -2   -1    0    0    0  501 -0.00000000000E+00  0.00000000000E+00  0.56818015822E+03  0.56818015823E+03  0.25500000000E-02 0.  1.
          2   -1    0    0  501    0  0.00000000000E+00 -0.00000000000E+00 -0.11668949801E+04  0.11668949801E+04  0.25500000000E-02 0. -1.
    8880022    1    1    2    0    0 -0.11982729007E+03 -0.71575688797E+03 -0.65742866103E+03  0.99109565607E+03  0.15294330000E+03 0.  0.
    8880022    1    1    2    0    0  0.11982729007E+03  0.71575688797E+03  0.58713839138E+02  0.74397948227E+03  0.15294330000E+03 0.  0.
<mgrwt>
<rscale>  0 0.74165906E+03</rscale>
<asrwt>0</asrwt>
<pdfrwt beam="1">  1        2 0.17952230E+00 0.74165906E+03</pdfrwt>
<pdfrwt beam="2">  1       -2 0.87412332E-01 0.74165906E+03</pdfrwt>
<totfact> 0.22847094E+01</totfact>
</mgrwt>
</event>
<event>
 4    1  0.5410820E-008  0.5110259E+03  0.7818608E-02  0.1010940E+00
         -2   -1    0    0    0  501 -0.00000000000E+00  0.00000000000E+00  0.86241009310E+03  0.86241009310E+03  0.25500000000E-02 0.  1.
          2   -1    0    0  501    0  0.00000000000E+00 -0.00000000000E+00 -0.54105670872E+03  0.54105670872E+03  0.25500000000E-02 0. -1.
    8880022    1    1    2    0    0 -0.46892983042E+03 -0.13364380049E+03 -0.30497699201E+03  0.59511214904E+03  0.15294330000E+03 0.  0.
    8880022    1    1    2    0    0  0.46892983042E+03  0.13364380049E+03  0.62633037639E+03  0.80835465278E+03  0.15294330000E+03 0.  1.
<mgrwt>
<rscale>  0 0.51102593E+03</rscale>
<asrwt>0</asrwt>
<pdfrwt beam="1">  1        2 0.83239494E-01 0.51102593E+03</pdfrwt>
<pdfrwt beam="2">  1       -2 0.13267848E+00 0.51102593E+03</pdfrwt>
<totfact> 0.24022298E+01</totfact>
</mgrwt>
</event>
<event>
 4    1  0.5410820E-008  0.4291414E+03  0.7818608E-02  0.1034132E+00
          2   -1    0    0  501    0  0.00000000000E+00  0.00000000000E+00  0.27562317426E+04  0.27562317426E+04  0.25500000000E-02 0. -1.
         -2   -1    0    0    0  501 -0.00000000000E+00 -0.00000000000E+00 -0.25132842387E+03  0.25132842389E+03  0.25500000000E-02 0.  1.
    8880022    1    1    2    0    0  0.47340791627E+02 -0.39815766225E+03 -0.36021868280E+02  0.43065055737E+03  0.15294330000E+03 0.  0.
    8880022    1    1    2    0    0 -0.47340791627E+02  0.39815766225E+03  0.25409251870E+04  0.25769096091E+04  0.15294330000E+03 0.  0.
<mgrwt>
<rscale>  0 0.42914138E+03</rscale>
<asrwt>0</asrwt>
<pdfrwt beam="1">  1        2 0.42403566E+00 0.42914138E+03</pdfrwt>
<pdfrwt beam="2">  1       -2 0.38665911E-01 0.42914138E+03</pdfrwt>
<totfact> 0.17536805E+01</totfact>
</mgrwt>
</event>
<event>
 4    1  0.5410820E-008  0.2675612E+03  0.7818608E-02  0.1102684E+00
          2   -1    0    0  501    0  0.00000000000E+00  0.00000000000E+00  0.10703377236E+04  0.10703377236E+04  0.25500000000E-02 0. -1.
         -2   -1    0    0    0  501 -0.00000000000E+00 -0.00000000000E+00 -0.24437232887E+03  0.24437232888E+03  0.25500000000E-02 0.  1.
    8880022    1    1    2    0    0 -0.17833484637E+03 -0.12803919997E+03 -0.14723685007E+03  0.30539760509E+03  0.15294330000E+03 0.  0.
    8880022    1    1    2    0    0  0.17833484637E+03  0.12803919997E+03  0.97320224483E+03  0.10093124474E+04  0.15294330000E+03 0.  0.
<mgrwt>
<rscale>  0 0.26756122E+03</rscale>
<asrwt>0</asrwt>
<pdfrwt beam="1">  1        2 0.16466734E+00 0.26756122E+03</pdfrwt>
<pdfrwt beam="2">  1       -2 0.37595743E-01 0.26756122E+03</pdfrwt>
<totfact> 0.16147980E+02</totfact>
</mgrwt>
</event>
<event>
 4    1  0.5410820E-008  0.1459168E+04  0.7818608E-02  0.8912069E-01
         -2   -1    0    0    0  501 -0.00000000000E+00  0.00000000000E+00  0.11370481450E+04  0.11370481450E+04  0.25500000000E-02 0.  1.
          2   -1    0    0  501    0  0.00000000000E+00 -0.00000000000E+00 -0.29134630723E+04  0.29134630723E+04  0.25500000000E-02 0. -1.
    8880022    1    1    2    0    0 -0.21597596987E+03  0.14349687003E+04  0.32234498730E+03  0.14943489332E+04  0.15294330000E+03 0.  0.
    8880022    1    1    2    0    0  0.21597596987E+03 -0.14349687003E+04 -0.20987599147E+04  0.25561622841E+04  0.15294330000E+03 0.  0.
<mgrwt>
<rscale>  0 0.14591684E+04</rscale>
<asrwt>0</asrwt>
<pdfrwt beam="1">  1        2 0.44822509E+00 0.14591684E+04</pdfrwt>
<pdfrwt beam="2">  1       -2 0.17493048E+00 0.14591684E+04</pdfrwt>
<totfact> 0.36779432E-01</totfact>
</mgrwt>
</event>
<event>
 4    1  0.5410820E-008  0.4228536E+03  0.7818608E-02  0.1036142E+00
          2   -1    0    0  501    0  0.00000000000E+00  0.00000000000E+00  0.12539650020E+04  0.12539650020E+04  0.25500000000E-02 0. -1.
         -2   -1    0    0    0  501 -0.00000000000E+00 -0.00000000000E+00 -0.16846886185E+03  0.16846886187E+03  0.25500000000E-02 0.  1.
    8880022    1    1    2    0    0 -0.38842662656E+03  0.67366659791E+02  0.82148820031E+03  0.92393074813E+03  0.15294330000E+03 0.  0.
    8880022    1    1    2    0    0  0.38842662656E+03 -0.67366659791E+02  0.26400793979E+03  0.49850311570E+03  0.15294330000E+03 0.  0.
<mgrwt>
<rscale>  0 0.42285360E+03</rscale>
<asrwt>0</asrwt>
<pdfrwt beam="1">  1        2 0.19291769E+00 0.42285360E+03</pdfrwt>
<pdfrwt beam="2">  1       -2 0.25918287E-01 0.42285360E+03</pdfrwt>
<totfact> 0.24529759E+02</totfact>
</mgrwt>
</event>
<event>
 4    1  0.5410820E-008  0.1140239E+04  0.7818608E-02  0.9166836E-01
         -2   -1    0    0    0  501 -0.00000000000E+00  0.00000000000E+00  0.10361241279E+04  0.10361241279E+04  0.25500000000E-02 0.  1.
          2   -1    0    0  501    0  0.00000000000E+00 -0.00000000000E+00 -0.16395206070E+04  0.16395206070E+04  0.25500000000E-02 0. -1.
    8880022    1    1    2    0    0  0.64429999598E+02 -0.11280967238E+04  0.34634461583E+03  0.11916793567E+04  0.15294330000E+03 0.  0.
    8880022    1    1    2    0    0 -0.64429999598E+02  0.11280967238E+04 -0.94974109493E+03  0.14839653782E+04  0.15294330000E+03 0.  0.
<mgrwt>
<rscale>  0 0.11402391E+04</rscale>
<asrwt>0</asrwt>
<pdfrwt beam="1">  1        2 0.25223394E+00 0.11402391E+04</pdfrwt>
<pdfrwt beam="2">  1       -2 0.15940371E+00 0.11402391E+04</pdfrwt>
<totfact> 0.26365201E+00</totfact>
</mgrwt>
</event>
<event>
 4    1  0.5410820E-008  0.2908159E+03  0.7818608E-02  0.1089924E+00
          2   -1    0    0  501    0  0.00000000000E+00  0.00000000000E+00  0.13222043815E+04  0.13222043815E+04  0.25500000000E-02 0. -1.
         -2   -1    0    0    0  501 -0.00000000000E+00 -0.00000000000E+00 -0.12539672897E+03  0.12539672900E+03  0.25500000000E-02 0.  1.
    8880022    1    1    2    0    0 -0.22769778102E+03  0.96622859036E+02  0.91792882709E+02  0.30495875574E+03  0.15294330000E+03 0.  0.
    8880022    1    1    2    0    0  0.22769778102E+03 -0.96622859036E+02  0.11050147698E+04  0.11426423547E+04  0.15294330000E+03 0.  0.
<mgrwt>
<rscale>  0 0.29081594E+03</rscale>
<asrwt>0</asrwt>
<pdfrwt beam="1">  1        2 0.20341607E+00 0.29081594E+03</pdfrwt>
<pdfrwt beam="2">  1       -2 0.19291804E-01 0.29081594E+03</pdfrwt>
<totfact> 0.38277405E+02</totfact>
</mgrwt>
</event>
<event>
 4    1  0.5410820E-008  0.3643526E+03  0.7818608E-02  0.1056874E+00
         -2   -1    0    0    0  501 -0.00000000000E+00  0.00000000000E+00  0.96426785684E+02  0.96426785718E+02  0.25500000000E-02 0.  1.
          2   -1    0    0  501    0  0.00000000000E+00 -0.00000000000E+00 -0.24747915956E+04  0.24747915956E+04  0.25500000000E-02 0. -1.
    8880022    1    1    2    0    0 -0.20839777072E+03  0.25677142505E+03 -0.20455389954E+04  0.20777349759E+04  0.15294330000E+03 0.  0.
    8880022    1    1    2    0    0  0.20839777072E+03 -0.25677142505E+03 -0.33282581455E+03  0.49348340540E+03  0.15294330000E+03 0.  0.
<mgrwt>
<rscale>  0 0.36435264E+03</rscale>
<asrwt>0</asrwt>
<pdfrwt beam="1">  1        2 0.38073712E+00 0.36435264E+03</pdfrwt>
<pdfrwt beam="2">  1       -2 0.14834892E-01 0.36435264E+03</pdfrwt>
<totfact> 0.14151429E+02</totfact>
</mgrwt>
</event>
<event>
 4    1  0.5410820E-008  0.8516453E+03  0.7818608E-02  0.9488131E-01
          2   -1    0    0  501    0  0.00000000000E+00  0.00000000000E+00  0.13891237149E+04  0.13891237149E+04  0.25500000000E-02 0. -1.
         -2   -1    0    0    0  501 -0.00000000000E+00 -0.00000000000E+00 -0.81499938839E+03  0.81499938839E+03  0.25500000000E-02 0.  1.
    8880022    1    1    2    0    0 -0.79211070315E+03  0.27288959414E+03 -0.37357959737E+03  0.92997928214E+03  0.15294330000E+03 0.  0.
    8880022    1    1    2    0    0  0.79211070315E+03 -0.27288959414E+03  0.94770392389E+03  0.12741438212E+04  0.15294330000E+03 0.  0.
<mgrwt>
<rscale>  0 0.85164532E+03</rscale>
<asrwt>0</asrwt>
<pdfrwt beam="1">  1        2 0.21371134E+00 0.85164532E+03</pdfrwt>
<pdfrwt beam="2">  1       -2 0.12538452E+00 0.85164532E+03</pdfrwt>
<totfact> 0.70524455E+00</totfact>
</mgrwt>
</event>
<event>
 4    1  0.5410820E-008  0.3231737E+03  0.7818608E-02  0.1074198E+00
          2   -1    0    0  501    0  0.00000000000E+00  0.00000000000E+00  0.30165411810E+03  0.30165411811E+03  0.25500000000E-02 0. -1.
         -2   -1    0    0    0  501 -0.00000000000E+00 -0.00000000000E+00 -0.37003677299E+03  0.37003677300E+03  0.25500000000E-02 0.  1.
    8880022    1    1    2    0    0 -0.19585203492E+03  0.20661944372E+03  0.50997087114E+02  0.32717269142E+03  0.15294330000E+03 0.  0.
    8880022    1    1    2    0    0  0.19585203492E+03 -0.20661944372E+03 -0.11937974201E+03  0.34451819969E+03  0.15294330000E+03 0.  0.
<mgrwt>
<rscale>  0 0.32317374E+03</rscale>
<asrwt>0</asrwt>
<pdfrwt beam="1">  1        2 0.46408326E-01 0.32317374E+03</pdfrwt>
<pdfrwt beam="2">  1       -2 0.56928734E-01 0.32317374E+03</pdfrwt>
<totfact> 0.32186304E+02</totfact>
</mgrwt>
</event>
<event>
 4    1  0.5410820E-008  0.9717731E+03  0.7818608E-02  0.9340057E-01
          2   -1    0    0  501    0  0.00000000000E+00  0.00000000000E+00  0.57266958709E+03  0.57266958710E+03  0.25500000000E-02 0. -1.
         -2   -1    0    0    0  501 -0.00000000000E+00 -0.00000000000E+00 -0.19963418795E+04  0.19963418795E+04  0.25500000000E-02 0.  1.
    8880022    1    1    2    0    0  0.58170712184E+03 -0.76326155556E+03 -0.17605764419E+03  0.98759269180E+03  0.15294330000E+03 0.  0.
    8880022    1    1    2    0    0 -0.58170712184E+03  0.76326155556E+03 -0.12476146482E+04  0.15814187748E+04  0.15294330000E+03 0.  0.
<mgrwt>
<rscale>  0 0.97177314E+03</rscale>
<asrwt>0</asrwt>
<pdfrwt beam="1">  1        2 0.88103014E-01 0.97177314E+03</pdfrwt>
<pdfrwt beam="2">  1       -2 0.30712952E+00 0.97177314E+03</pdfrwt>
<totfact> 0.15243044E+00</totfact>
</mgrwt>
</event>
<event>
 4    1  0.5410820E-008  0.1675086E+04  0.7818608E-02  0.8775703E-01
          2   -1    0    0  501    0  0.00000000000E+00  0.00000000000E+00  0.32237696072E+04  0.32237696072E+04  0.25500000000E-02 0. -1.
         -2   -1    0    0    0  501 -0.00000000000E+00 -0.00000000000E+00 -0.12667021034E+04  0.12667021034E+04  0.25500000000E-02 0.  1.
    8880022    1    1    2    0    0  0.16319049951E+04 -0.34555317250E+03 -0.27734443018E+03  0.16978906013E+04  0.15294330000E+03 0.  0.
    8880022    1    1    2    0    0 -0.16319049951E+04  0.34555317250E+03  0.22344119339E+04  0.27925811092E+04  0.15294330000E+03 0.  0.
<mgrwt>
<rscale>  0 0.16750858E+04</rscale>
<asrwt>0</asrwt>
<pdfrwt beam="1">  1        2 0.49596455E+00 0.16750858E+04</pdfrwt>
<pdfrwt beam="2">  1       -2 0.19487725E+00 0.16750858E+04</pdfrwt>
<totfact> 0.16644321E-01</totfact>
</mgrwt>
</event>
<event>
 4    1  0.5410820E-008  0.7357251E+03  0.7818608E-02  0.9658015E-01
          2   -1    0    0  501    0  0.00000000000E+00  0.00000000000E+00  0.11840823994E+04  0.11840823994E+04  0.25500000000E-02 0. -1.
         -2   -1    0    0    0  501 -0.00000000000E+00 -0.00000000000E+00 -0.60523275794E+03  0.60523275795E+03  0.25500000000E-02 0.  1.
    8880022    1    1    2    0    0 -0.71529030154E+03 -0.79117613644E+02 -0.15312533375E+03  0.75149107322E+03  0.15294330000E+03 0.  0.
    8880022    1    1    2    0    0  0.71529030154E+03  0.79117613644E+02  0.73197497521E+03  0.10378240841E+04  0.15294330000E+03 0.  0.
<mgrwt>
<rscale>  0 0.73572513E+03</rscale>
<asrwt>0</asrwt>
<pdfrwt beam="1">  1        2 0.18216652E+00 0.73572513E+03</pdfrwt>
<pdfrwt beam="2">  1       -2 0.93112733E-01 0.73572513E+03</pdfrwt>
<totfact> 0.19299321E+01</totfact>
</mgrwt>
</event>
<event>
 4    1  0.5410820E-008  0.6005557E+03  0.7818608E-02  0.9904254E-01
          2   -1    0    0  501    0  0.00000000000E+00  0.00000000000E+00  0.41120707770E+03  0.41120707770E+03  0.25500000000E-02 0. -1.
         -2   -1    0    0    0  501 -0.00000000000E+00 -0.00000000000E+00 -0.88770579119E+03  0.88770579119E+03  0.25500000000E-02 0.  1.
    8880022    1    1    2    0    0 -0.58092750093E+02 -0.57784144168E+03 -0.16724005662E+03  0.62340708120E+03  0.15294330000E+03 0.  0.
    8880022    1    1    2    0    0  0.58092750093E+02  0.57784144168E+03 -0.30925865687E+03  0.67550578769E+03  0.15294330000E+03 0.  0.
<mgrwt>
<rscale>  0 0.60055570E+03</rscale>
<asrwt>0</asrwt>
<pdfrwt beam="1">  1        2 0.63262627E-01 0.60055570E+03</pdfrwt>
<pdfrwt beam="2">  1       -2 0.13657012E+00 0.60055570E+03</pdfrwt>
<totfact> 0.30247073E+01</totfact>
</mgrwt>
</event>
<event>
 4    1  0.5410820E-008  0.3629018E+03  0.7818608E-02  0.1057441E+00
          2   -1    0    0  501    0  0.00000000000E+00  0.00000000000E+00  0.47490565994E+03  0.47490565994E+03  0.25500000000E-02 0. -1.
         -2   -1    0    0    0  501 -0.00000000000E+00 -0.00000000000E+00 -0.30705678297E+03  0.30705678298E+03  0.25500000000E-02 0.  1.
    8880022    1    1    2    0    0  0.26940670177E+03 -0.18901345138E+03  0.20561072773E+03  0.41710128282E+03  0.15294330000E+03 0.  0.
    8880022    1    1    2    0    0 -0.26940670177E+03  0.18901345138E+03 -0.37761850763E+02  0.36486116010E+03  0.15294330000E+03 0.  0.
<mgrwt>
<rscale>  0 0.36290179E+03</rscale>
<asrwt>0</asrwt>
<pdfrwt beam="1">  1        2 0.73062409E-01 0.36290179E+03</pdfrwt>
<pdfrwt beam="2">  1       -2 0.47239505E-01 0.36290179E+03</pdfrwt>
<totfact> 0.28447369E+02</totfact>
</mgrwt>
</event>
<event>
 4    1  0.5410820E-008  0.1175887E+04  0.7818608E-02  0.9134228E-01
         -2   -1    0    0    0  501 -0.00000000000E+00  0.00000000000E+00  0.73239241789E+03  0.73239241790E+03  0.25500000000E-02 0.  1.
          2   -1    0    0  501    0  0.00000000000E+00 -0.00000000000E+00 -0.38953899427E+04  0.38953899427E+04  0.25500000000E-02 0. -1.
    8880022    1    1    2    0    0  0.87572101919E+03 -0.76969599665E+03  0.79579625132E+02  0.11785770236E+04  0.15294330000E+03 0.  0.
    8880022    1    1    2    0    0 -0.87572101919E+03  0.76969599665E+03 -0.32425771499E+04  0.34492053370E+04  0.15294330000E+03 0.  0.
<mgrwt>
<rscale>  0 0.11758873E+04</rscale>
<asrwt>0</asrwt>
<pdfrwt beam="1">  1        2 0.59929075E+00 0.11758873E+04</pdfrwt>
<pdfrwt beam="2">  1       -2 0.11267576E+00 0.11758873E+04</pdfrwt>
<totfact> 0.26021194E-01</totfact>
</mgrwt>
</event>
<event>
 4    1  0.5410820E-008  0.3640889E+03  0.7818608E-02  0.1056976E+00
          2   -1    0    0  501    0  0.00000000000E+00  0.00000000000E+00  0.91021621949E+03  0.91021621950E+03  0.25500000000E-02 0. -1.
         -2   -1    0    0    0  501 -0.00000000000E+00 -0.00000000000E+00 -0.20595849526E+03  0.20595849528E+03  0.25500000000E-02 0.  1.
    8880022    1    1    2    0    0  0.27398933162E+03 -0.18465886866E+03  0.65415892819E+03  0.74865519965E+03  0.15294330000E+03 0.  0.
    8880022    1    1    2    0    0 -0.27398933162E+03  0.18465886866E+03  0.50098796038E+02  0.36751951512E+03  0.15294330000E+03 0.  0.
<mgrwt>
<rscale>  0 0.36408887E+03</rscale>
<asrwt>0</asrwt>
<pdfrwt beam="1">  1        2 0.14003326E+00 0.36408887E+03</pdfrwt>
<pdfrwt beam="2">  1       -2 0.31685923E-01 0.36408887E+03</pdfrwt>
<totfact> 0.27626147E+02</totfact>
</mgrwt>
</event>
<event>
 4    1  0.5410820E-008  0.1922175E+03  0.7818608E-02  0.1156476E+00
          2   -1    0    0  501    0  0.00000000000E+00  0.00000000000E+00  0.36133641112E+04  0.36133641112E+04  0.25500000000E-02 0. -1.
         -2   -1    0    0    0  501 -0.00000000000E+00 -0.00000000000E+00 -0.11391144760E+02  0.11391145045E+02  0.25500000000E-02 0.  1.
    8880022    1    1    2    0    0  0.21332954764E+02 -0.11445882433E+03  0.12211657727E+04  0.12362012033E+04  0.15294330000E+03 0.  0.
    8880022    1    1    2    0    0 -0.21332954764E+02  0.11445882433E+03  0.23808071937E+04  0.23885540530E+04  0.15294330000E+03 0. -1.
<mgrwt>
<rscale>  0 0.19221751E+03</rscale>
<asrwt>0</asrwt>
<pdfrwt beam="1">  1        2 0.55590151E+00 0.19221751E+03</pdfrwt>
<pdfrwt beam="2">  1       -2 0.17524859E-02 0.19221751E+03</pdfrwt>
<totfact> 0.81671070E+02</totfact>
</mgrwt>
</event>
<event>
 4    1  0.5410820E-008  0.5296401E+03  0.7818608E-02  0.1006319E+00
         -2   -1    0    0    0  501 -0.00000000000E+00  0.00000000000E+00  0.30186888597E+03  0.30186888598E+03  0.25500000000E-02 0.  1.
          2   -1    0    0  501    0  0.00000000000E+00 -0.00000000000E+00 -0.17972921737E+04  0.17972921737E+04  0.25500000000E-02 0. -1.
    8880022    1    1    2    0    0  0.22649520442E+03 -0.45368149915E+03 -0.14771205473E+04  0.15692048128E+04  0.15294330000E+03 0.  0.
    8880022    1    1    2    0    0 -0.22649520442E+03  0.45368149915E+03 -0.18302740459E+02  0.52995624689E+03  0.15294330000E+03 0.  0.
<mgrwt>
<rscale>  0 0.52964010E+03</rscale>
<asrwt>0</asrwt>
<pdfrwt beam="1">  1        2 0.27650648E+00 0.52964010E+03</pdfrwt>
<pdfrwt beam="2">  1       -2 0.46441368E-01 0.52964010E+03</pdfrwt>
<totfact> 0.40348520E+01</totfact>
</mgrwt>
</event>
<event>
 4    1  0.5410820E-008  0.6223299E+03  0.7818608E-02  0.9860132E-01
         -2   -1    0    0    0  501 -0.00000000000E+00  0.00000000000E+00  0.37061644559E+03  0.37061644560E+03  0.25500000000E-02 0.  1.
          2   -1    0    0  501    0  0.00000000000E+00 -0.00000000000E+00 -0.15696106155E+04  0.15696106155E+04  0.25500000000E-02 0. -1.
    8880022    1    1    2    0    0  0.16552991945E+03  0.58008849678E+03 -0.38649548768E+02  0.62352887581E+03  0.15294330000E+03 0.  0.
    8880022    1    1    2    0    0 -0.16552991945E+03 -0.58008849678E+03 -0.11603446212E+04  0.13166981853E+04  0.15294330000E+03 0.  0.
<mgrwt>
<rscale>  0 0.62232987E+03</rscale>
<asrwt>0</asrwt>
<pdfrwt beam="1">  1        2 0.24147855E+00 0.62232987E+03</pdfrwt>
<pdfrwt beam="2">  1       -2 0.57017916E-01 0.62232987E+03</pdfrwt>
<totfact> 0.34802683E+01</totfact>
</mgrwt>
</event>
<event>
 4    1  0.5410820E-008  0.2351962E+03  0.7818608E-02  0.1123035E+00
         -2   -1    0    0    0  501 -0.00000000000E+00  0.00000000000E+00  0.58883335658E+03  0.58883335658E+03  0.25500000000E-02 0.  1.
          2   -1    0    0  501    0  0.00000000000E+00 -0.00000000000E+00 -0.47021715919E+03  0.47021715920E+03  0.25500000000E-02 0. -1.
    8880022    1    1    2    0    0  0.17256896198E+03 -0.46320232810E+02  0.53299258233E+03  0.58257905596E+03  0.15294330000E+03 0.  0.
    8880022    1    1    2    0    0 -0.17256896198E+03  0.46320232810E+02 -0.41437638495E+03  0.47647145982E+03  0.15294330000E+03 0.  0.
<mgrwt>
<rscale>  0 0.23519622E+03</rscale>
<asrwt>0</asrwt>
<pdfrwt beam="1">  1        2 0.72341102E-01 0.23519622E+03</pdfrwt>
<pdfrwt beam="2">  1       -2 0.90589746E-01 0.23519622E+03</pdfrwt>
<totfact> 0.73102887E+01</totfact>
</mgrwt>
</event>
<event>
 4    1  0.5410820E-008  0.3912646E+03  0.7818608E-02  0.1046847E+00
          2   -1    0    0  501    0  0.00000000000E+00  0.00000000000E+00  0.11277260956E+04  0.11277260956E+04  0.25500000000E-02 0. -1.
         -2   -1    0    0    0  501 -0.00000000000E+00 -0.00000000000E+00 -0.17329817244E+03  0.17329817246E+03  0.25500000000E-02 0.  1.
    8880022    1    1    2    0    0 -0.25724294298E+03  0.25203654525E+03  0.17441318856E+03  0.42837829685E+03  0.15294330000E+03 0.  0.
    8880022    1    1    2    0    0  0.25724294298E+03 -0.25203654525E+03  0.78001473458E+03  0.87264597119E+03  0.15294330000E+03 0.  0.
<mgrwt>
<rscale>  0 0.39126462E+03</rscale>
<asrwt>0</asrwt>
<pdfrwt beam="1">  1        2 0.17349632E+00 0.39126462E+03</pdfrwt>
<pdfrwt beam="2">  1       -2 0.26661257E-01 0.39126462E+03</pdfrwt>
<totfact> 0.27696072E+02</totfact>
</mgrwt>
</event>
<event>
 4    1  0.5410820E-008  0.6717657E+03  0.7818608E-02  0.9766773E-01
          2   -1    0    0  501    0  0.00000000000E+00  0.00000000000E+00  0.21178078496E+04  0.21178078496E+04  0.25500000000E-02 0. -1.
         -2   -1    0    0    0  501 -0.00000000000E+00 -0.00000000000E+00 -0.22457781961E+03  0.22457781962E+03  0.25500000000E-02 0.  1.
    8880022    1    1    2    0    0  0.16905820069E+03  0.63189932786E+03  0.12115833193E+04  0.13853531061E+04  0.15294330000E+03 0.  0.
    8880022    1    1    2    0    0 -0.16905820069E+03 -0.63189932786E+03  0.68164671062E+03  0.95703256313E+03  0.15294330000E+03 0.  0.
<mgrwt>
<rscale>  0 0.67176565E+03</rscale>
<asrwt>0</asrwt>
<pdfrwt beam="1">  1        2 0.32581658E+00 0.67176565E+03</pdfrwt>
<pdfrwt beam="2">  1       -2 0.34550435E-01 0.67176565E+03</pdfrwt>
<totfact> 0.47043609E+01</totfact>
</mgrwt>
</event>
<event>
 4    1  0.5410820E-008  0.1778559E+03  0.7818608E-02  0.1169894E+00
         -2   -1    0    0    0  501 -0.00000000000E+00  0.00000000000E+00  0.69569381430E+02  0.69569381477E+02  0.25500000000E-02 0.  1.
          2   -1    0    0  501    0  0.00000000000E+00 -0.00000000000E+00 -0.12727915017E+04  0.12727915017E+04  0.25500000000E-02 0. -1.
    8880022    1    1    2    0    0  0.85281892464E+02 -0.31113856965E+02 -0.63510556580E+02  0.18885528081E+03  0.15294330000E+03 0.  0.
    8880022    1    1    2    0    0 -0.85281892464E+02  0.31113856965E+02 -0.11397115637E+04  0.11535056023E+04  0.15294330000E+03 0. -1.
<mgrwt>
<rscale>  0 0.17785591E+03</rscale>
<asrwt>0</asrwt>
<pdfrwt beam="1">  1        2 0.19581406E+00 0.17785591E+03</pdfrwt>
<pdfrwt beam="2">  1       -2 0.10702983E-01 0.17785591E+03</pdfrwt>
<totfact> 0.10887577E+03</totfact>
</mgrwt>
</event>
<event>
 4    1  0.5410820E-008  0.5145864E+03  0.7818608E-02  0.1010040E+00
         -2   -1    0    0    0  501 -0.00000000000E+00  0.00000000000E+00  0.20680508510E+03  0.20680508512E+03  0.25500000000E-02 0.  1.
          2   -1    0    0  501    0  0.00000000000E+00 -0.00000000000E+00 -0.15982318468E+04  0.15982318468E+04  0.25500000000E-02 0. -1.
    8880022    1    1    2    0    0 -0.43610709701E+03 -0.22631418833E+03 -0.10981665092E+04  0.12127525909E+04  0.15294330000E+03 0.  0.
    8880022    1    1    2    0    0  0.43610709701E+03  0.22631418833E+03 -0.29326025258E+03  0.59228434106E+03  0.15294330000E+03 0.  0.
<mgrwt>
<rscale>  0 0.51458640E+03</rscale>
<asrwt>0</asrwt>
<pdfrwt beam="1">  1        2 0.24588181E+00 0.51458640E+03</pdfrwt>
<pdfrwt beam="2">  1       -2 0.31816168E-01 0.51458640E+03</pdfrwt>
<totfact> 0.10737422E+02</totfact>
</mgrwt>
</event>
<event>
 4    1  0.5410820E-008  0.1906621E+03  0.7818608E-02  0.1157865E+00
          2   -1    0    0  501    0  0.00000000000E+00  0.00000000000E+00  0.11224421260E+04  0.11224421260E+04  0.25500000000E-02 0. -1.
         -2   -1    0    0    0  501 -0.00000000000E+00 -0.00000000000E+00 -0.49885962144E+03  0.49885962145E+03  0.25500000000E-02 0.  1.
    8880022    1    1    2    0    0 -0.11136297936E+03 -0.23636542439E+02  0.10956863664E+04  0.11121513682E+04  0.15294330000E+03 0.  0.
    8880022    1    1    2    0    0  0.11136297936E+03  0.23636542439E+02 -0.47210386183E+03  0.50915037924E+03  0.15294330000E+03 0.  1.
<mgrwt>
<rscale>  0 0.19066214E+03</rscale>
<asrwt>0</asrwt>
<pdfrwt beam="1">  1        2 0.17268340E+00 0.19066214E+03</pdfrwt>
<pdfrwt beam="2">  1       -2 0.76747635E-01 0.19066214E+03</pdfrwt>
<totfact> 0.36101615E+01</totfact>
</mgrwt>
</event>
<event>
 4    1  0.5410820E-008  0.5717055E+03  0.7818608E-02  0.9965912E-01
          2   -1    0    0  501    0  0.00000000000E+00  0.00000000000E+00  0.27718906600E+04  0.27718906600E+04  0.25500000000E-02 0. -1.
         -2   -1    0    0    0  501 -0.00000000000E+00 -0.00000000000E+00 -0.38189461184E+03  0.38189461184E+03  0.25500000000E-02 0.  1.
    8880022    1    1    2    0    0  0.53626691662E+03  0.12598915506E+03 -0.11604112284E+03  0.58336323869E+03  0.15294330000E+03 0.  0.
    8880022    1    1    2    0    0 -0.53626691662E+03 -0.12598915506E+03  0.25060371710E+04  0.25704220331E+04  0.15294330000E+03 0.  0.
<mgrwt>
<rscale>  0 0.57170545E+03</rscale>
<asrwt>0</asrwt>
<pdfrwt beam="1">  1        2 0.42644471E+00 0.57170545E+03</pdfrwt>
<pdfrwt beam="2">  1       -2 0.58753018E-01 0.57170545E+03</pdfrwt>
<totfact> 0.71466047E+00</totfact>
</mgrwt>
</event>
<event>
 4    1  0.5410820E-008  0.2857790E+03  0.7818608E-02  0.1092574E+00
          2   -1    0    0  501    0  0.00000000000E+00  0.00000000000E+00  0.85391105044E+03  0.85391105045E+03  0.25500000000E-02 0. -1.
         -2   -1    0    0    0  501 -0.00000000000E+00 -0.00000000000E+00 -0.85141417870E+03  0.85141417871E+03  0.25500000000E-02 0.  1.
    8880022    1    1    2    0    0  0.18698784622E+03  0.15268773665E+03 -0.80209688630E+03  0.85148638719E+03  0.15294330000E+03 0.  1.
    8880022    1    1    2    0    0 -0.18698784622E+03 -0.15268773665E+03  0.80459375803E+03  0.85383884196E+03  0.15294330000E+03 0.  0.
<mgrwt>
<rscale>  0 0.28577903E+03</rscale>
<asrwt>0</asrwt>
<pdfrwt beam="1">  1        2 0.13137093E+00 0.28577903E+03</pdfrwt>
<pdfrwt beam="2">  1       -2 0.13098680E+00 0.28577903E+03</pdfrwt>
<totfact> 0.14759160E+01</totfact>
</mgrwt>
</event>
<event>
 4    1  0.5410820E-008  0.7327178E+03  0.7818608E-02  0.9662860E-01
          2   -1    0    0  501    0  0.00000000000E+00  0.00000000000E+00  0.89583501039E+03  0.89583501039E+03  0.25500000000E-02 0. -1.
         -2   -1    0    0    0  501 -0.00000000000E+00 -0.00000000000E+00 -0.10473472454E+04  0.10473472454E+04  0.25500000000E-02 0.  1.
    8880022    1    1    2    0    0  0.30707087824E+03  0.64744978979E+03  0.55972008986E+03  0.92204229109E+03  0.15294330000E+03 0.  0.
    8880022    1    1    2    0    0 -0.30707087824E+03 -0.64744978979E+03 -0.71123232488E+03  0.10211399647E+04  0.15294330000E+03 0.  0.
<mgrwt>
<rscale>  0 0.73271782E+03</rscale>
<asrwt>0</asrwt>
<pdfrwt beam="1">  1        2 0.13782077E+00 0.73271782E+03</pdfrwt>
<pdfrwt beam="2">  1       -2 0.16113035E+00 0.73271782E+03</pdfrwt>
<totfact> 0.74405960E+00</totfact>
</mgrwt>
</event>
<event>
 4    1  0.5410820E-008  0.3218482E+03  0.7818608E-02  0.1074802E+00
          2   -1    0    0  501    0  0.00000000000E+00  0.00000000000E+00  0.68583340198E+03  0.68583340198E+03  0.25500000000E-02 0. -1.
         -2   -1    0    0    0  501 -0.00000000000E+00 -0.00000000000E+00 -0.22377278621E+03  0.22377278623E+03  0.25500000000E-02 0.  1.
    8880022    1    1    2    0    0  0.74583819121E+02 -0.27318835174E+03 -0.28264371284E+02  0.32308690673E+03  0.15294330000E+03 0.  0.
    8880022    1    1    2    0    0 -0.74583819121E+02  0.27318835174E+03  0.49032498705E+03  0.58651928148E+03  0.15294330000E+03 0.  0.
<mgrwt>
<rscale>  0 0.32184822E+03</rscale>
<asrwt>0</asrwt>
<pdfrwt beam="1">  1        2 0.10551283E+00 0.32184822E+03</pdfrwt>
<pdfrwt beam="2">  1       -2 0.34426583E-01 0.32184822E+03</pdfrwt>
<totfact> 0.34197252E+02</totfact>
</mgrwt>
</event>
<event>
 4    1  0.5410820E-008  0.1435423E+04  0.7818608E-02  0.8928569E-01
         -2   -1    0    0    0  501 -0.00000000000E+00  0.00000000000E+00  0.10869560053E+04  0.10869560053E+04  0.25500000000E-02 0.  1.
          2   -1    0    0  501    0  0.00000000000E+00 -0.00000000000E+00 -0.23308293531E+04  0.23308293531E+04  0.25500000000E-02 0. -1.
    8880022    1    1    2    0    0  0.14269022261E+04  0.31600682221E+02 -0.13603774908E+04  0.19776418120E+04  0.15294330000E+03 0.  0.
    8880022    1    1    2    0    0 -0.14269022261E+04 -0.31600682221E+02  0.11650414300E+03  0.14401435464E+04  0.15294330000E+03 0.  0.
<mgrwt>
<rscale>  0 0.14354234E+04</rscale>
<asrwt>0</asrwt>
<pdfrwt beam="1">  1        2 0.35858913E+00 0.14354234E+04</pdfrwt>
<pdfrwt beam="2">  1       -2 0.16722400E+00 0.14354234E+04</pdfrwt>
<totfact> 0.92154603E-01</totfact>
</mgrwt>
</event>
<event>
 4    1  0.5410820E-008  0.2646215E+03  0.7818608E-02  0.1104398E+00
          2   -1    0    0  501    0  0.00000000000E+00  0.00000000000E+00  0.10025137118E+04  0.10025137118E+04  0.25500000000E-02 0. -1.
         -2   -1    0    0    0  501 -0.00000000000E+00 -0.00000000000E+00 -0.11921344313E+03  0.11921344315E+03  0.25500000000E-02 0.  1.
    8880022    1    1    2    0    0 -0.12446527244E+02  0.21558750295E+03  0.80256262927E+03  0.84506290558E+03  0.15294330000E+03 0.  0.
    8880022    1    1    2    0    0  0.12446527244E+02 -0.21558750295E+03  0.80737639439E+02  0.27666424942E+03  0.15294330000E+03 0.  1.
<mgrwt>
<rscale>  0 0.26462150E+03</rscale>
<asrwt>0</asrwt>
<pdfrwt beam="1">  1        2 0.15423288E+00 0.26462150E+03</pdfrwt>
<pdfrwt beam="2">  1       -2 0.18340529E-01 0.26462150E+03</pdfrwt>
<totfact> 0.64088450E+02</totfact>
</mgrwt>
</event>
<event>
 4    1  0.5410820E-008  0.6352061E+03  0.7818608E-02  0.9834942E-01
         -2   -1    0    0    0  501 -0.00000000000E+00  0.00000000000E+00  0.48275954067E+03  0.48275954067E+03  0.25500000000E-02 0.  1.
          2   -1    0    0  501    0  0.00000000000E+00 -0.00000000000E+00 -0.12211155514E+04  0.12211155514E+04  0.25500000000E-02 0. -1.
    8880022    1    1    2    0    0 -0.35794969465E+03 -0.50196324584E+03 -0.84774412618E+03  0.10593190457E+04  0.15294330000E+03 0.  0.
    8880022    1    1    2    0    0  0.35794969465E+03  0.50196324584E+03  0.10938811548E+03  0.64455604636E+03  0.15294330000E+03 0.  0.
<mgrwt>
<rscale>  0 0.63520606E+03</rscale>
<asrwt>0</asrwt>
<pdfrwt beam="1">  1        2 0.18786393E+00 0.63520606E+03</pdfrwt>
<pdfrwt beam="2">  1       -2 0.74270699E-01 0.63520606E+03</pdfrwt>
<totfact> 0.30993301E+01</totfact>
</mgrwt>
</event>
<event>
 4    1  0.5410820E-008  0.3993029E+03  0.7818608E-02  0.1044021E+00
          2   -1    0    0  501    0  0.00000000000E+00  0.00000000000E+00  0.15070171078E+04  0.15070171078E+04  0.25500000000E-02 0. -1.
         -2   -1    0    0    0  501 -0.00000000000E+00 -0.00000000000E+00 -0.14641377021E+04  0.14641377021E+04  0.25500000000E-02 0.  1.
    8880022    1    1    2    0    0  0.22011701962E+03 -0.29597238932E+03 -0.14094565897E+04  0.14649268544E+04  0.15294330000E+03 0.  0.
    8880022    1    1    2    0    0 -0.22011701962E+03  0.29597238932E+03  0.14523359953E+04  0.15062279555E+04  0.15294330000E+03 0. -1.
<mgrwt>
<rscale>  0 0.39930291E+03</rscale>
<asrwt>0</asrwt>
<pdfrwt beam="1">  1        2 0.23184879E+00 0.39930291E+03</pdfrwt>
<pdfrwt beam="2">  1       -2 0.22525195E+00 0.39930291E+03</pdfrwt>
<totfact> 0.13093950E+00</totfact>
</mgrwt>
</event>
<event>
 4    1  0.5410820E-008  0.6651855E+03  0.7818608E-02  0.9778695E-01
         -2   -1    0    0    0  501 -0.00000000000E+00  0.00000000000E+00  0.51051392691E+03  0.51051392691E+03  0.25500000000E-02 0.  1.
          2   -1    0    0  501    0  0.00000000000E+00 -0.00000000000E+00 -0.16531624093E+04  0.16531624093E+04  0.25500000000E-02 0. -1.
    8880022    1    1    2    0    0 -0.49313629706E+03  0.41940032180E+03 -0.13174954883E+04  0.14758950004E+04  0.15294330000E+03 0. -1.
    8880022    1    1    2    0    0  0.49313629706E+03 -0.41940032180E+03  0.17484700593E+03  0.68778133582E+03  0.15294330000E+03 0.  0.
<mgrwt>
<rscale>  0 0.66518546E+03</rscale>
<asrwt>0</asrwt>
<pdfrwt beam="1">  1        2 0.25433268E+00 0.66518546E+03</pdfrwt>
<pdfrwt beam="2">  1       -2 0.78540605E-01 0.66518546E+03</pdfrwt>
<totfact> 0.15597224E+01</totfact>
</mgrwt>
</event>
<event>
 4    1  0.5410820E-008  0.2494015E+03  0.7818608E-02  0.1113684E+00
          2   -1    0    0  501    0  0.00000000000E+00  0.00000000000E+00  0.96121824155E+03  0.96121824155E+03  0.25500000000E-02 0. -1.
         -2   -1    0    0    0  501 -0.00000000000E+00 -0.00000000000E+00 -0.24494741557E+03  0.24494741558E+03  0.25500000000E-02 0.  1.
    8880022    1    1    2    0    0  0.97891137400E+02  0.17095847420E+03  0.87545882883E+03  0.91029077150E+03  0.15294330000E+03 0.  0.
    8880022    1    1    2    0    0 -0.97891137400E+02 -0.17095847420E+03 -0.15918800285E+03  0.29587488563E+03  0.15294330000E+03 0.  1.
<mgrwt>
<rscale>  0 0.24940154E+03</rscale>
<asrwt>0</asrwt>
<pdfrwt beam="1">  1        2 0.14787973E+00 0.24940154E+03</pdfrwt>
<pdfrwt beam="2">  1       -2 0.37684218E-01 0.24940154E+03</pdfrwt>
<totfact> 0.18795662E+02</totfact>
</mgrwt>
</event>
<event>
 4    1  0.5410820E-008  0.6354504E+03  0.7818608E-02  0.9834470E-01
         -2   -1    0    0    0  501 -0.00000000000E+00  0.00000000000E+00  0.75025725692E+03  0.75025725692E+03  0.25500000000E-02 0.  1.
          2   -1    0    0  501    0  0.00000000000E+00 -0.00000000000E+00 -0.15645429752E+04  0.15645429752E+04  0.25500000000E-02 0. -1.
    8880022    1    1    2    0    0 -0.61589994697E+03  0.32752916163E+02 -0.13445614841E+04  0.14871592839E+04  0.15294330000E+03 0.  0.
    8880022    1    1    2    0    0  0.61589994697E+03 -0.32752916163E+02  0.53027576586E+03  0.82764094816E+03  0.15294330000E+03 0.  0.
<mgrwt>
<rscale>  0 0.63545035E+03</rscale>
<asrwt>0</asrwt>
<pdfrwt beam="1">  1        2 0.24069892E+00 0.63545035E+03</pdfrwt>
<pdfrwt beam="2">  1       -2 0.11542419E+00 0.63545035E+03</pdfrwt>
<totfact> 0.71292473E+00</totfact>
</mgrwt>
</event>
<event>
 4    1  0.5410820E-008  0.6459800E+03  0.7818608E-02  0.9814352E-01
         -2   -1    0    0    0  501 -0.00000000000E+00  0.00000000000E+00  0.30630875789E+03  0.30630875790E+03  0.25500000000E-02 0.  1.
          2   -1    0    0  501    0  0.00000000000E+00 -0.00000000000E+00 -0.29602516820E+04  0.29602516820E+04  0.25500000000E-02 0. -1.
    8880022    1    1    2    0    0  0.57705945029E+03 -0.24678099924E+03 -0.12698685310E+03  0.65834321188E+03  0.15294330000E+03 0.  0.
    8880022    1    1    2    0    0 -0.57705945029E+03  0.24678099924E+03 -0.25269560710E+04  0.26082172280E+04  0.15294330000E+03 0.  0.
<mgrwt>
<rscale>  0 0.64597997E+03</rscale>
<asrwt>0</asrwt>
<pdfrwt beam="1">  1        2 0.45542332E+00 0.64597997E+03</pdfrwt>
<pdfrwt beam="2">  1       -2 0.47124426E-01 0.64597997E+03</pdfrwt>
<totfact> 0.85371450E+00</totfact>
</mgrwt>
</event>
<event>
 4    1  0.5410820E-008  0.7545187E+03  0.7818608E-02  0.9628288E-01
          2   -1    0    0  501    0  0.00000000000E+00  0.00000000000E+00  0.13612393928E+04  0.13612393928E+04  0.25500000000E-02 0. -1.
         -2   -1    0    0    0  501 -0.00000000000E+00 -0.00000000000E+00 -0.42789193517E+03  0.42789193518E+03  0.25500000000E-02 0.  1.
    8880022    1    1    2    0    0  0.13937179998E+03  0.72559101940E+03  0.33218485562E+03  0.82440600275E+03  0.15294330000E+03 0.  0.
    8880022    1    1    2    0    0 -0.13937179998E+03 -0.72559101940E+03  0.60116260201E+03  0.96472532523E+03  0.15294330000E+03 0.  0.
<mgrwt>
<rscale>  0 0.75451871E+03</rscale>
<asrwt>0</asrwt>
<pdfrwt beam="1">  1        2 0.20942144E+00 0.75451871E+03</pdfrwt>
<pdfrwt beam="2">  1       -2 0.65829529E-01 0.75451871E+03</pdfrwt>
<totfact> 0.33017089E+01</totfact>
</mgrwt>
</event>
<event>
 4    1  0.5410820E-008  0.7158559E+03  0.7818608E-02  0.9690494E-01
         -2   -1    0    0    0  501 -0.00000000000E+00  0.00000000000E+00  0.29504683044E+03  0.29504683045E+03  0.25500000000E-02 0.  1.
          2   -1    0    0  501    0  0.00000000000E+00 -0.00000000000E+00 -0.32360236037E+04  0.32360236037E+04  0.25500000000E-02 0. -1.
    8880022    1    1    2    0    0  0.44923338887E+03 -0.53595466104E+03 -0.26721928804E+04  0.27664172641E+04  0.15294330000E+03 0.  0.
    8880022    1    1    2    0    0 -0.44923338887E+03  0.53595466104E+03 -0.26878389292E+03  0.76465317005E+03  0.15294330000E+03 0.  0.
<mgrwt>
<rscale>  0 0.71585591E+03</rscale>
<asrwt>0</asrwt>
<pdfrwt beam="1">  1        2 0.49784976E+00 0.71585591E+03</pdfrwt>
<pdfrwt beam="2">  1       -2 0.45391822E-01 0.71585591E+03</pdfrwt>
<totfact> 0.61085237E+00</totfact>
</mgrwt>
</event>
<event>
 4    1  0.5410820E-008  0.4301925E+03  0.7818608E-02  0.1033799E+00
         -2   -1    0    0    0  501 -0.00000000000E+00  0.00000000000E+00  0.16461372119E+03  0.16461372121E+03  0.25500000000E-02 0.  1.
          2   -1    0    0  501    0  0.00000000000E+00 -0.00000000000E+00 -0.16733337985E+04  0.16733337985E+04  0.25500000000E-02 0. -1.
    8880022    1    1    2    0    0 -0.17392813438E+03  0.36252302487E+03 -0.22793752111E+03  0.48684813447E+03  0.15294330000E+03 0.  0.
    8880022    1    1    2    0    0  0.17392813438E+03 -0.36252302487E+03 -0.12807825562E+04  0.13510993852E+04  0.15294330000E+03 0.  0.
<mgrwt>
<rscale>  0 0.43019251E+03</rscale>
<asrwt>0</asrwt>
<pdfrwt beam="1">  1        2 0.25743596E+00 0.43019251E+03</pdfrwt>
<pdfrwt beam="2">  1       -2 0.25325189E-01 0.43019251E+03</pdfrwt>
<totfact> 0.15012460E+02</totfact>
</mgrwt>
</event>
<event>
 4    1  0.5410820E-008  0.4938884E+03  0.7818608E-02  0.1015387E+00
          2   -1    0    0  501    0  0.00000000000E+00  0.00000000000E+00  0.10253743984E+04  0.10253743984E+04  0.25500000000E-02 0. -1.
         -2   -1    0    0    0  501 -0.00000000000E+00 -0.00000000000E+00 -0.40123886067E+03  0.40123886068E+03  0.25500000000E-02 0.  1.
    8880022    1    1    2    0    0  0.46790513123E+03  0.39985815480E+02 -0.14306025759E+03  0.51419059461E+03  0.15294330000E+03 0.  0.
    8880022    1    1    2    0    0 -0.46790513123E+03 -0.39985815480E+02  0.76719579535E+03  0.91242266450E+03  0.15294330000E+03 0.  0.
<mgrwt>
<rscale>  0 0.49388838E+03</rscale>
<asrwt>0</asrwt>
<pdfrwt beam="1">  1        2 0.15774991E+00 0.49388838E+03</pdfrwt>
<pdfrwt beam="2">  1       -2 0.61729056E-01 0.49388838E+03</pdfrwt>
<totfact> 0.61676572E+01</totfact>
</mgrwt>
</event>
<event>
 4    1  0.5410820E-008  0.4451756E+03  0.7818608E-02  0.1029171E+00
          2   -1    0    0  501    0  0.00000000000E+00  0.00000000000E+00  0.88407036997E+03  0.88407036997E+03  0.25500000000E-02 0. -1.
         -2   -1    0    0    0  501 -0.00000000000E+00 -0.00000000000E+00 -0.35388427004E+03  0.35388427005E+03  0.25500000000E-02 0.  1.
    8880022    1    1    2    0    0 -0.30462178756E+03  0.28634806938E+03  0.63984112261E+03  0.77947287669E+03  0.15294330000E+03 0.  0.
    8880022    1    1    2    0    0  0.30462178756E+03 -0.28634806938E+03 -0.10965502269E+03  0.45848176333E+03  0.15294330000E+03 0.  0.
<mgrwt>
<rscale>  0 0.44517559E+03</rscale>
<asrwt>0</asrwt>
<pdfrwt beam="1">  1        2 0.13601082E+00 0.44517559E+03</pdfrwt>
<pdfrwt beam="2">  1       -2 0.54443735E-01 0.44517559E+03</pdfrwt>
<totfact> 0.99342039E+01</totfact>
</mgrwt>
</event>
<event>
 4    1  0.5410820E-008  0.5738096E+03  0.7818608E-02  0.9961284E-01
         -2   -1    0    0    0  501 -0.00000000000E+00  0.00000000000E+00  0.46238005428E+03  0.46238005428E+03  0.25500000000E-02 0.  1.
          2   -1    0    0  501    0  0.00000000000E+00 -0.00000000000E+00 -0.10832446572E+04  0.10832446572E+04  0.25500000000E-02 0. -1.
    8880022    1    1    2    0    0  0.17084974979E+03  0.52600014804E+03 -0.76279488559E+03  0.95452264680E+03  0.15294330000E+03 0.  0.
    8880022    1    1    2    0    0 -0.17084974979E+03 -0.52600014804E+03  0.14193028266E+03  0.59110206470E+03  0.15294330000E+03 0.  0.
<mgrwt>
<rscale>  0 0.57380959E+03</rscale>
<asrwt>0</asrwt>
<pdfrwt beam="1">  1        2 0.16665302E+00 0.57380959E+03</pdfrwt>
<pdfrwt beam="2">  1       -2 0.71135393E-01 0.57380959E+03</pdfrwt>
<totfact> 0.41488561E+01</totfact>
</mgrwt>
</event>
<event>
 4    1  0.5410820E-008  0.5508039E+03  0.7818608E-02  0.1001308E+00
         -2   -1    0    0    0  501 -0.00000000000E+00  0.00000000000E+00  0.51832629138E+03  0.51832629138E+03  0.25500000000E-02 0.  1.
          2   -1    0    0  501    0  0.00000000000E+00 -0.00000000000E+00 -0.12600616888E+04  0.12600616888E+04  0.25500000000E-02 0. -1.
    8880022    1    1    2    0    0  0.21825871328E+03 -0.48203363896E+03 -0.10215522603E+04  0.11605834604E+04  0.15294330000E+03 0.  0.
    8880022    1    1    2    0    0 -0.21825871328E+03  0.48203363896E+03  0.27981686281E+03  0.61780451985E+03  0.15294330000E+03 0.  0.
<mgrwt>
<rscale>  0 0.55080391E+03</rscale>
<asrwt>0</asrwt>
<pdfrwt beam="1">  1        2 0.19385564E+00 0.55080391E+03</pdfrwt>
<pdfrwt beam="2">  1       -2 0.79742506E-01 0.55080391E+03</pdfrwt>
<totfact> 0.25414102E+01</totfact>
</mgrwt>
</event>
<event>
 4    1  0.5410820E-008  0.3833772E+03  0.7818608E-02  0.1049693E+00
          2   -1    0    0  501    0  0.00000000000E+00  0.00000000000E+00  0.12932493542E+04  0.12932493542E+04  0.25500000000E-02 0. -1.
         -2   -1    0    0    0  501 -0.00000000000E+00 -0.00000000000E+00 -0.13789298524E+03  0.13789298526E+03  0.25500000000E-02 0.  1.
    8880022    1    1    2    0    0 -0.18340003690E+03 -0.29991801313E+03  0.87771396596E+03  0.95778904107E+03  0.15294330000E+03 0.  0.
    8880022    1    1    2    0    0  0.18340003690E+03  0.29991801313E+03  0.27764240297E+03  0.47335329837E+03  0.15294330000E+03 0.  0.
<mgrwt>
<rscale>  0 0.38337715E+03</rscale>
<asrwt>0</asrwt>
<pdfrwt beam="1">  1        2 0.19896144E+00 0.38337715E+03</pdfrwt>
<pdfrwt beam="2">  1       -2 0.21214305E-01 0.38337715E+03</pdfrwt>
<totfact> 0.33350483E+02</totfact>
</mgrwt>
</event>
<event>
 4    1  0.5410820E-008  0.2635653E+03  0.7818608E-02  0.1105020E+00
          2   -1    0    0  501    0  0.00000000000E+00  0.00000000000E+00  0.14689987980E+04  0.14689987980E+04  0.25500000000E-02 0. -1.
         -2   -1    0    0    0  501 -0.00000000000E+00 -0.00000000000E+00 -0.23263157995E+03  0.23263157996E+03  0.25500000000E-02 0.  1.
    8880022    1    1    2    0    0  0.18389944446E+03 -0.11070687588E+03  0.13776160583E+04  0.14026021086E+04  0.15294330000E+03 0.  0.
    8880022    1    1    2    0    0 -0.18389944446E+03  0.11070687588E+03 -0.14124884017E+03  0.29902826940E+03  0.15294330000E+03 0.  0.
<mgrwt>
<rscale>  0 0.26356531E+03</rscale>
<asrwt>0</asrwt>
<pdfrwt beam="1">  1        2 0.22599981E+00 0.26356531E+03</pdfrwt>
<pdfrwt beam="2">  1       -2 0.35789474E-01 0.26356531E+03</pdfrwt>
<totfact> 0.10591759E+02</totfact>
</mgrwt>
</event>
<event>
 4    1  0.5589457E-008  0.7310039E+03  0.7818608E-02  0.9665633E-01
         -2   -1    0    0    0  501 -0.00000000000E+00  0.00000000000E+00  0.89055480422E+03  0.89055480422E+03  0.25500000000E-02 0.  1.
          2   -1    0    0  501    0  0.00000000000E+00 -0.00000000000E+00 -0.18580449523E+04  0.18580449523E+04  0.25500000000E-02 0. -1.
    8880022    1    1    2    0    0 -0.47103186950E+02  0.71327155490E+03  0.64707869849E+03  0.97625689053E+03  0.15294330000E+03 0.  0.
    8880022    1    1    2    0    0  0.47103186950E+02 -0.71327155490E+03 -0.16145688465E+04  0.17723428660E+04  0.15294330000E+03 0.  0.
<mgrwt>
<rscale>  0 0.73100388E+03</rscale>
<asrwt>0</asrwt>
<pdfrwt beam="1">  1        2 0.28585307E+00 0.73100388E+03</pdfrwt>
<pdfrwt beam="2">  1       -2 0.13700843E+00 0.73100388E+03</pdfrwt>
<totfact> 0.31558628E+00</totfact>
</mgrwt>
</event>
<event>
 4    1  0.5410820E-008  0.9457028E+03  0.7818608E-02  0.9370187E-01
         -2   -1    0    0    0  501 -0.00000000000E+00  0.00000000000E+00  0.31480119633E+03  0.31480119634E+03  0.25500000000E-02 0.  1.
          2   -1    0    0  501    0  0.00000000000E+00 -0.00000000000E+00 -0.36336665832E+04  0.36336665832E+04  0.25500000000E-02 0. -1.
    8880022    1    1    2    0    0 -0.39833772444E+03 -0.84397229788E+03 -0.25815117877E+04  0.27492829875E+04  0.15294330000E+03 0.  0.
    8880022    1    1    2    0    0  0.39833772444E+03  0.84397229788E+03 -0.73735359920E+03  0.11991847921E+04  0.15294330000E+03 0.  0.
<mgrwt>
<rscale>  0 0.94570283E+03</rscale>
<asrwt>0</asrwt>
<pdfrwt beam="1">  1        2 0.55902560E+00 0.94570283E+03</pdfrwt>
<pdfrwt beam="2">  1       -2 0.48430956E-01 0.94570283E+03</pdfrwt>
<totfact> 0.27706668E+00</totfact>
</mgrwt>
</event>
<event>
 4    1  0.5410820E-008  0.4320504E+03  0.7818608E-02  0.1033214E+00
         -2   -1    0    0    0  501 -0.00000000000E+00  0.00000000000E+00  0.19841142175E+04  0.19841142175E+04  0.25500000000E-02 0.  1.
          2   -1    0    0  501    0  0.00000000000E+00 -0.00000000000E+00 -0.16234187152E+03  0.16234187154E+03  0.25500000000E-02 0. -1.
    8880022    1    1    2    0    0 -0.40021007644E+03 -0.55747808426E+02  0.16068111916E+04  0.16638839449E+04  0.15294330000E+03 0.  0.
    8880022    1    1    2    0    0  0.40021007644E+03  0.55747808426E+02  0.21496115433E+03  0.48257214415E+03  0.15294330000E+03 0.  0.
<mgrwt>
<rscale>  0 0.43205043E+03</rscale>
<asrwt>0</asrwt>
<pdfrwt beam="1">  1        2 0.24975672E-01 0.43205043E+03</pdfrwt>
<pdfrwt beam="2">  1       -2 0.30524834E+00 0.43205043E+03</pdfrwt>
<totfact> 0.70714695E+00</totfact>
</mgrwt>
</event>
<event>
 4    1  0.5410820E-008  0.6143562E+03  0.7818608E-02  0.9876061E-01
         -2   -1    0    0    0  501 -0.00000000000E+00  0.00000000000E+00  0.60985658142E+03  0.60985658143E+03  0.25500000000E-02 0.  1.
          2   -1    0    0  501    0  0.00000000000E+00 -0.00000000000E+00 -0.30146226785E+04  0.30146226785E+04  0.25500000000E-02 0. -1.
    8880022    1    1    2    0    0  0.33802393613E+03  0.48967515463E+03 -0.28179256034E+04  0.28841182878E+04  0.15294330000E+03 0.  0.
    8880022    1    1    2    0    0 -0.33802393613E+03 -0.48967515463E+03  0.41315950631E+03  0.74036097218E+03  0.15294330000E+03 0.  0.
<mgrwt>
<rscale>  0 0.61435624E+03</rscale>
<asrwt>0</asrwt>
<pdfrwt beam="1">  1        2 0.46378810E+00 0.61435624E+03</pdfrwt>
<pdfrwt beam="2">  1       -2 0.93824091E-01 0.61435624E+03</pdfrwt>
<totfact> 0.18045288E+00</totfact>
</mgrwt>
</event>
<event>
 4    1  0.5410820E-008  0.4586193E+03  0.7818608E-02  0.1025182E+00
         -2   -1    0    0    0  501 -0.00000000000E+00  0.00000000000E+00  0.23771233041E+03  0.23771233042E+03  0.25500000000E-02 0.  1.
          2   -1    0    0  501    0  0.00000000000E+00 -0.00000000000E+00 -0.29630599219E+04  0.29630599219E+04  0.25500000000E-02 0. -1.
    8880022    1    1    2    0    0  0.34853656084E+03  0.25585595192E+03 -0.22371294510E+02  0.45916460034E+03  0.15294330000E+03 0.  0.
    8880022    1    1    2    0    0 -0.34853656084E+03 -0.25585595192E+03 -0.27029762970E+04  0.27416076520E+04  0.15294330000E+03 0.  0.
<mgrwt>
<rscale>  0 0.45861929E+03</rscale>
<asrwt>0</asrwt>
<pdfrwt beam="1">  1        2 0.45585535E+00 0.45861929E+03</pdfrwt>
<pdfrwt beam="2">  1       -2 0.36571130E-01 0.45861929E+03</pdfrwt>
<totfact> 0.14620293E+01</totfact>
</mgrwt>
</event>
<event>
 4    1  0.5410820E-008  0.6218793E+03  0.7818608E-02  0.9861025E-01
         -2   -1    0    0    0  501 -0.00000000000E+00  0.00000000000E+00  0.16187559219E+03  0.16187559221E+03  0.25500000000E-02 0.  1.
          2   -1    0    0  501    0  0.00000000000E+00 -0.00000000000E+00 -0.28880725257E+04  0.28880725257E+04  0.25500000000E-02 0. -1.
    8880022    1    1    2    0    0  0.29556009545E+03 -0.52534411321E+03 -0.19969756286E+04  0.20915653281E+04  0.15294330000E+03 0.  0.
    8880022    1    1    2    0    0 -0.29556009545E+03  0.52534411321E+03 -0.72922130487E+03  0.95838278980E+03  0.15294330000E+03 0.  0.
<mgrwt>
<rscale>  0 0.62187930E+03</rscale>
<asrwt>0</asrwt>
<pdfrwt beam="1">  1        2 0.44431881E+00 0.62187930E+03</pdfrwt>
<pdfrwt beam="2">  1       -2 0.24903939E-01 0.62187930E+03</pdfrwt>
<totfact> 0.31754864E+01</totfact>
</mgrwt>
</event>
<event>
 4    1  0.5410820E-008  0.3014368E+03  0.7818608E-02  0.1084525E+00
         -2   -1    0    0    0  501 -0.00000000000E+00  0.00000000000E+00  0.12542865648E+03  0.12542865651E+03  0.25500000000E-02 0.  1.
          2   -1    0    0  501    0  0.00000000000E+00 -0.00000000000E+00 -0.97684615852E+03  0.97684615853E+03  0.25500000000E-02 0. -1.
    8880022    1    1    2    0    0  0.11548512188E+02 -0.25949782666E+03 -0.70586887989E+03  0.76753828490E+03  0.15294330000E+03 0.  0.
    8880022    1    1    2    0    0 -0.11548512188E+02  0.25949782666E+03 -0.14554862215E+03  0.33473653013E+03  0.15294330000E+03 0.  1.
<mgrwt>
<rscale>  0 0.30143680E+03</rscale>
<asrwt>0</asrwt>
<pdfrwt beam="1">  1        2 0.15028402E+00 0.30143680E+03</pdfrwt>
<pdfrwt beam="2">  1       -2 0.19296717E-01 0.30143680E+03</pdfrwt>
<totfact> 0.60804112E+02</totfact>
</mgrwt>
</event>
<event>
 4    1  0.5410820E-008  0.5648349E+03  0.7818608E-02  0.9981174E-01
         -2   -1    0    0    0  501 -0.00000000000E+00  0.00000000000E+00  0.18547055438E+04  0.18547055438E+04  0.25500000000E-02 0.  1.
          2   -1    0    0  501    0  0.00000000000E+00 -0.00000000000E+00 -0.64385323232E+03  0.64385323232E+03  0.25500000000E-02 0. -1.
    8880022    1    1    2    0    0  0.54310700613E+03  0.26107834802E+02  0.16748808016E+04  0.17675588227E+04  0.15294330000E+03 0.  0.
    8880022    1    1    2    0    0 -0.54310700613E+03 -0.26107834802E+02 -0.46402849015E+03  0.73099995338E+03  0.15294330000E+03 0.  0.
<mgrwt>
<rscale>  0 0.56483492E+03</rscale>
<asrwt>0</asrwt>
<pdfrwt beam="1">  1        2 0.99054344E-01 0.56483492E+03</pdfrwt>
<pdfrwt beam="2">  1       -2 0.28533931E+00 0.56483492E+03</pdfrwt>
<totfact> 0.19117679E+00</totfact>
</mgrwt>
</event>
<event>
 4    1  0.5410820E-008  0.6421949E+03  0.7818608E-02  0.9821536E-01
          2   -1    0    0  501    0  0.00000000000E+00  0.00000000000E+00  0.27765483679E+04  0.27765483679E+04  0.25500000000E-02 0. -1.
         -2   -1    0    0    0  501 -0.00000000000E+00 -0.00000000000E+00 -0.31400492386E+03  0.31400492387E+03  0.25500000000E-02 0.  1.
    8880022    1    1    2    0    0  0.24546569827E+03  0.57338402213E+03  0.23530258940E+04  0.24390869514E+04  0.15294330000E+03 0.  0.
    8880022    1    1    2    0    0 -0.24546569827E+03 -0.57338402213E+03  0.10951755010E+03  0.65146634039E+03  0.15294330000E+03 0.  0.
<mgrwt>
<rscale>  0 0.64219491E+03</rscale>
<asrwt>0</asrwt>
<pdfrwt beam="1">  1        2 0.42716128E+00 0.64219491E+03</pdfrwt>
<pdfrwt beam="2">  1       -2 0.48308451E-01 0.64219491E+03</pdfrwt>
<totfact> 0.10454565E+01</totfact>
</mgrwt>
</event>
<event>
 4    1  0.5410820E-008  0.4997783E+03  0.7818608E-02  0.1013837E+00
         -2   -1    0    0    0  501 -0.00000000000E+00  0.00000000000E+00  0.13962111261E+03  0.13962111263E+03  0.25500000000E-02 0.  1.
          2   -1    0    0  501    0  0.00000000000E+00 -0.00000000000E+00 -0.25197228782E+04  0.25197228782E+04  0.25500000000E-02 0. -1.
    8880022    1    1    2    0    0 -0.43439964926E+03  0.19412270738E+03 -0.47398554655E+03  0.68879650997E+03  0.15294330000E+03 0.  0.
    8880022    1    1    2    0    0  0.43439964926E+03 -0.19412270738E+03 -0.19061162191E+04  0.19705474809E+04  0.15294330000E+03 0.  0.
<mgrwt>
<rscale>  0 0.49977828E+03</rscale>
<asrwt>0</asrwt>
<pdfrwt beam="1">  1        2 0.38764964E+00 0.49977828E+03</pdfrwt>
<pdfrwt beam="2">  1       -2 0.21480173E-01 0.49977828E+03</pdfrwt>
<totfact> 0.68980116E+01</totfact>
</mgrwt>
</event>
<event>
 4    1  0.5410820E-008  0.3940038E+03  0.7818608E-02  0.1045876E+00
          2   -1    0    0  501    0  0.00000000000E+00  0.00000000000E+00  0.86524047110E+03  0.86524047110E+03  0.25500000000E-02 0. -1.
         -2   -1    0    0    0  501 -0.00000000000E+00 -0.00000000000E+00 -0.26371390164E+03  0.26371390165E+03  0.25500000000E-02 0.  1.
    8880022    1    1    2    0    0 -0.36251374001E+03 -0.20763637374E+02 -0.18379669220E+02  0.39443225729E+03  0.15294330000E+03 0.  0.
    8880022    1    1    2    0    0  0.36251374001E+03  0.20763637374E+02  0.61990623868E+03  0.73452211546E+03  0.15294330000E+03 0.  0.
<mgrwt>
<rscale>  0 0.39400380E+03</rscale>
<asrwt>0</asrwt>
<pdfrwt beam="1">  1        2 0.13311392E+00 0.39400380E+03</pdfrwt>
<pdfrwt beam="2">  1       -2 0.40571370E-01 0.39400380E+03</pdfrwt>
<totfact> 0.18482973E+02</totfact>
</mgrwt>
</event>
<event>
 4    1  0.5410820E-008  0.7339373E+03  0.7818608E-02  0.9660893E-01
          2   -1    0    0  501    0  0.00000000000E+00  0.00000000000E+00  0.23031451466E+04  0.23031451466E+04  0.25500000000E-02 0. -1.
         -2   -1    0    0    0  501 -0.00000000000E+00 -0.00000000000E+00 -0.30340844558E+03  0.30340844559E+03  0.25500000000E-02 0.  1.
    8880022    1    1    2    0    0 -0.71776324491E+03  0.93952334646E+01  0.16237441036E+04  0.17819115896E+04  0.15294330000E+03 0.  0.
    8880022    1    1    2    0    0  0.71776324491E+03 -0.93952334646E+01  0.37599259747E+03  0.82464200264E+03  0.15294330000E+03 0.  0.
<mgrwt>
<rscale>  0 0.73393733E+03</rscale>
<asrwt>0</asrwt>
<pdfrwt beam="1">  1        2 0.35433002E+00 0.73393733E+03</pdfrwt>
<pdfrwt beam="2">  1       -2 0.46678222E-01 0.73393733E+03</pdfrwt>
<totfact> 0.20495570E+01</totfact>
</mgrwt>
</event>
<event>
 4    1  0.5410820E-008  0.2748507E+03  0.7818608E-02  0.1098535E+00
         -2   -1    0    0    0  501 -0.00000000000E+00  0.00000000000E+00  0.28712930293E+03  0.28712930294E+03  0.25500000000E-02 0.  1.
          2   -1    0    0  501    0  0.00000000000E+00 -0.00000000000E+00 -0.11418202882E+04  0.11418202882E+04  0.25500000000E-02 0. -1.
    8880022    1    1    2    0    0  0.21522995303E+03  0.76336859892E+02 -0.10541239566E+04  0.10893668885E+04  0.15294330000E+03 0. -1.
    8880022    1    1    2    0    0 -0.21522995303E+03 -0.76336859892E+02  0.19943297134E+03  0.33958270264E+03  0.15294330000E+03 0.  0.
<mgrwt>
<rscale>  0 0.27485069E+03</rscale>
<asrwt>0</asrwt>
<pdfrwt beam="1">  1        2 0.17566466E+00 0.27485069E+03</pdfrwt>
<pdfrwt beam="2">  1       -2 0.44173739E-01 0.27485069E+03</pdfrwt>
<totfact> 0.10732634E+02</totfact>
</mgrwt>
</event>
<event>
 4    1  0.5410820E-008  0.5613114E+03  0.7818608E-02  0.9989092E-01
         -2   -1    0    0    0  501 -0.00000000000E+00  0.00000000000E+00  0.23612583202E+04  0.23612583202E+04  0.25500000000E-02 0.  1.
          2   -1    0    0  501    0  0.00000000000E+00 -0.00000000000E+00 -0.57071989509E+03  0.57071989510E+03  0.25500000000E-02 0. -1.
    8880022    1    1    2    0    0  0.12130166925E+03 -0.52627442458E+03 -0.38795431498E+03  0.68233354634E+03  0.15294330000E+03 0. -1.
    8880022    1    1    2    0    0 -0.12130166925E+03  0.52627442458E+03  0.21784927401E+04  0.22496446690E+04  0.15294330000E+03 0.  0.
<mgrwt>
<rscale>  0 0.56131143E+03</rscale>
<asrwt>0</asrwt>
<pdfrwt beam="1">  1        2 0.87803060E-01 0.56131143E+03</pdfrwt>
<pdfrwt beam="2">  1       -2 0.36327051E+00 0.56131143E+03</pdfrwt>
<totfact> 0.74445344E-01</totfact>
</mgrwt>
</event>
<event>
 4    1  0.5410820E-008  0.2087577E+04  0.7818608E-02  0.8566736E-01
         -2   -1    0    0    0  501 -0.00000000000E+00  0.00000000000E+00  0.41343748086E+04  0.41343748086E+04  0.25500000000E-02 0.  1.
          2   -1    0    0  501    0  0.00000000000E+00 -0.00000000000E+00 -0.14086381852E+04  0.14086381852E+04  0.25500000000E-02 0. -1.
    8880022    1    1    2    0    0  0.16932904819E+04 -0.12113428508E+04  0.27533262459E+04  0.34552541480E+04  0.15294330000E+03 0.  0.
    8880022    1    1    2    0    0 -0.16932904819E+04  0.12113428508E+04 -0.27589622466E+02  0.20877588459E+04  0.15294330000E+03 0.  0.
<mgrwt>
<rscale>  0 0.20875765E+04</rscale>
<asrwt>0</asrwt>
<pdfrwt beam="1">  1        2 0.21671357E+00 0.20875765E+04</pdfrwt>
<pdfrwt beam="2">  1       -2 0.63605766E+00 0.20875765E+04</pdfrwt>
<totfact> 0.46084740E-03</totfact>
</mgrwt>
</event>
<event>
 4    1  0.5410820E-008  0.1016270E+04  0.7818608E-02  0.9290878E-01
          2   -1    0    0  501    0  0.00000000000E+00  0.00000000000E+00  0.20363281698E+04  0.20363281698E+04  0.25500000000E-02 0. -1.
         -2   -1    0    0    0  501 -0.00000000000E+00 -0.00000000000E+00 -0.64313089471E+03  0.64313089472E+03  0.25500000000E-02 0.  1.
    8880022    1    1    2    0    0  0.82118628148E+03  0.57884945286E+03  0.13125444865E+04  0.16599934578E+04  0.15294330000E+03 0.  0.
    8880022    1    1    2    0    0 -0.82118628148E+03 -0.57884945286E+03  0.80652788635E+02  0.10194656067E+04  0.15294330000E+03 0.  0.
<mgrwt>
<rscale>  0 0.10162703E+04</rscale>
<asrwt>0</asrwt>
<pdfrwt beam="1">  1        2 0.31328126E+00 0.10162703E+04</pdfrwt>
<pdfrwt beam="2">  1       -2 0.98943215E-01 0.10162703E+04</pdfrwt>
<totfact> 0.53967868E+00</totfact>
</mgrwt>
</event>
<event>
 4    1  0.5410820E-008  0.5355446E+03  0.7818608E-02  0.1004896E+00
          2   -1    0    0  501    0  0.00000000000E+00  0.00000000000E+00  0.22036544320E+04  0.22036544320E+04  0.25500000000E-02 0. -1.
         -2   -1    0    0    0  501 -0.00000000000E+00 -0.00000000000E+00 -0.17983455720E+03  0.17983455722E+03  0.25500000000E-02 0.  1.
    8880022    1    1    2    0    0 -0.48816981188E+03 -0.15845078421E+03  0.16383109370E+04  0.17236214189E+04  0.15294330000E+03 0. -1.
    8880022    1    1    2    0    0  0.48816981188E+03  0.15845078421E+03  0.38550893778E+03  0.65986757033E+03  0.15294330000E+03 0.  0.
<mgrwt>
<rscale>  0 0.53554465E+03</rscale>
<asrwt>0</asrwt>
<pdfrwt beam="1">  1        2 0.33902377E+00 0.53554465E+03</pdfrwt>
<pdfrwt beam="2">  1       -2 0.27666854E-01 0.53554465E+03</pdfrwt>
<totfact> 0.65179195E+01</totfact>
</mgrwt>
</event>
<event>
 4    1  0.5410820E-008  0.6434352E+03  0.7818608E-02  0.9819176E-01
          2   -1    0    0  501    0  0.00000000000E+00  0.00000000000E+00  0.12042112562E+04  0.12042112562E+04  0.25500000000E-02 0. -1.
         -2   -1    0    0    0  501 -0.00000000000E+00 -0.00000000000E+00 -0.81030537450E+03  0.81030537450E+03  0.25500000000E-02 0.  1.
    8880022    1    1    2    0    0  0.61180162289E+03 -0.12773422462E+03  0.96121871218E+03  0.11566980261E+04  0.15294330000E+03 0.  0.
    8880022    1    1    2    0    0 -0.61180162289E+03  0.12773422462E+03 -0.56731283043E+03  0.85781860466E+03  0.15294330000E+03 0.  0.
<mgrwt>
<rscale>  0 0.64343524E+03</rscale>
<asrwt>0</asrwt>
<pdfrwt beam="1">  1        2 0.18526327E+00 0.64343524E+03</pdfrwt>
<pdfrwt beam="2">  1       -2 0.12466237E+00 0.64343524E+03</pdfrwt>
<totfact> 0.94104738E+00</totfact>
</mgrwt>
</event>
<event>
 4    1  0.5410820E-008  0.5930511E+03  0.7818608E-02  0.9919929E-01
         -2   -1    0    0    0  501 -0.00000000000E+00  0.00000000000E+00  0.78223660104E+03  0.78223660104E+03  0.25500000000E-02 0.  1.
          2   -1    0    0  501    0  0.00000000000E+00 -0.00000000000E+00 -0.87113394213E+03  0.87113394213E+03  0.25500000000E-02 0. -1.
    8880022    1    1    2    0    0 -0.10309428194E+03 -0.56363950446E+03  0.53059850021E+03  0.79576651312E+03  0.15294330000E+03 0.  0.
    8880022    1    1    2    0    0  0.10309428194E+03  0.56363950446E+03 -0.61949584131E+03  0.85760403005E+03  0.15294330000E+03 0.  0.
<mgrwt>
<rscale>  0 0.59305107E+03</rscale>
<asrwt>0</asrwt>
<pdfrwt beam="1">  1        2 0.13402061E+00 0.59305107E+03</pdfrwt>
<pdfrwt beam="2">  1       -2 0.12034409E+00 0.59305107E+03</pdfrwt>
<totfact> 0.16731522E+01</totfact>
</mgrwt>
</event>
<event>
 4    1  0.5410820E-008  0.1341674E+04  0.7818608E-02  0.8997155E-01
         -2   -1    0    0    0  501 -0.00000000000E+00  0.00000000000E+00  0.25552262258E+04  0.25552262258E+04  0.25500000000E-02 0.  1.
          2   -1    0    0  501    0  0.00000000000E+00 -0.00000000000E+00 -0.12654794535E+04  0.12654794535E+04  0.25500000000E-02 0. -1.
    8880022    1    1    2    0    0 -0.96202808629E+03  0.92260501645E+03 -0.62707559420E+03  0.14809839665E+04  0.15294330000E+03 0.  0.
    8880022    1    1    2    0    0  0.96202808629E+03 -0.92260501645E+03  0.19168223665E+04  0.23397217127E+04  0.15294330000E+03 0.  0.
<mgrwt>
<rscale>  0 0.13416742E+04</rscale>
<asrwt>0</asrwt>
<pdfrwt beam="1">  1        2 0.19468915E+00 0.13416742E+04</pdfrwt>
<pdfrwt beam="2">  1       -2 0.39311172E+00 0.13416742E+04</pdfrwt>
<totfact> 0.13750067E-01</totfact>
</mgrwt>
</event>
<event>
 4    1  0.5410820E-008  0.4417221E+03  0.7818608E-02  0.1030220E+00
          2   -1    0    0  501    0  0.00000000000E+00  0.00000000000E+00  0.20247397247E+04  0.20247397247E+04  0.25500000000E-02 0. -1.
         -2   -1    0    0    0  501 -0.00000000000E+00 -0.00000000000E+00 -0.62160751771E+03  0.62160751772E+03  0.25500000000E-02 0.  1.
    8880022    1    1    2    0    0 -0.69767575861E+02 -0.40848403970E+03  0.19178578430E+04  0.19680693800E+04  0.15294330000E+03 0.  0.
    8880022    1    1    2    0    0  0.69767575861E+02  0.40848403970E+03 -0.51472563601E+03  0.67827786247E+03  0.15294330000E+03 0.  0.
<mgrwt>
<rscale>  0 0.44172206E+03</rscale>
<asrwt>0</asrwt>
<pdfrwt beam="1">  1        2 0.31149841E+00 0.44172206E+03</pdfrwt>
<pdfrwt beam="2">  1       -2 0.95631928E-01 0.44172206E+03</pdfrwt>
<totfact> 0.65708835E+00</totfact>
</mgrwt>
</event>
<event>
 4    1  0.5410820E-008  0.2141353E+03  0.7818608E-02  0.1138332E+00
         -2   -1    0    0    0  501 -0.00000000000E+00  0.00000000000E+00  0.85484801992E+02  0.85484802030E+02  0.25500000000E-02 0.  1.
          2   -1    0    0  501    0  0.00000000000E+00 -0.00000000000E+00 -0.16558372903E+04  0.16558372903E+04  0.25500000000E-02 0. -1.
    8880022    1    1    2    0    0  0.14897812259E+03  0.16364884156E+02 -0.69295952127E+02  0.22506859497E+03  0.15294330000E+03 0.  0.
    8880022    1    1    2    0    0 -0.14897812259E+03 -0.16364884156E+02 -0.15010565362E+04  0.15162534974E+04  0.15294330000E+03 0.  0.
<mgrwt>
<rscale>  0 0.21413534E+03</rscale>
<asrwt>0</asrwt>
<pdfrwt beam="1">  1        2 0.25474418E+00 0.21413534E+03</pdfrwt>
<pdfrwt beam="2">  1       -2 0.13151509E-01 0.21413534E+03</pdfrwt>
<totfact> 0.48606828E+02</totfact>
</mgrwt>
</event>
<event>
 4    1  0.5410820E-008  0.7934144E+03  0.7818608E-02  0.9569599E-01
         -2   -1    0    0    0  501 -0.00000000000E+00  0.00000000000E+00  0.18152599612E+03  0.18152599614E+03  0.25500000000E-02 0.  1.
          2   -1    0    0  501    0  0.00000000000E+00 -0.00000000000E+00 -0.41081358517E+04  0.41081358517E+04  0.25500000000E-02 0. -1.
    8880022    1    1    2    0    0  0.39227677472E+03 -0.67248324124E+03 -0.11165557082E+04  0.13697456261E+04  0.15294330000E+03 0.  0.
    8880022    1    1    2    0    0 -0.39227677472E+03  0.67248324124E+03 -0.28100541473E+04  0.29199162217E+04  0.15294330000E+03 0.  0.
<mgrwt>
<rscale>  0 0.79341441E+03</rscale>
<asrwt>0</asrwt>
<pdfrwt beam="1">  1        2 0.63202083E+00 0.79341441E+03</pdfrwt>
<pdfrwt beam="2">  1       -2 0.27927079E-01 0.79341441E+03</pdfrwt>
<totfact> 0.35896867E+00</totfact>
</mgrwt>
</event>
<event>
 4    1  0.5410820E-008  0.3959520E+03  0.7818608E-02  0.1045190E+00
         -2   -1    0    0    0  501 -0.00000000000E+00  0.00000000000E+00  0.13715045376E+03  0.13715045378E+03  0.25500000000E-02 0.  1.
          2   -1    0    0  501    0  0.00000000000E+00 -0.00000000000E+00 -0.13587536627E+04  0.13587536627E+04  0.25500000000E-02 0. -1.
    8880022    1    1    2    0    0 -0.26293433304E+03 -0.25347957607E+03 -0.31283193109E+03  0.50462048026E+03  0.15294330000E+03 0.  0.
    8880022    1    1    2    0    0  0.26293433304E+03  0.25347957607E+03 -0.90877127786E+03  0.99128363622E+03  0.15294330000E+03 0.  0.
<mgrwt>
<rscale>  0 0.39595203E+03</rscale>
<asrwt>0</asrwt>
<pdfrwt beam="1">  1        2 0.20903902E+00 0.39595203E+03</pdfrwt>
<pdfrwt beam="2">  1       -2 0.21100071E-01 0.39595203E+03</pdfrwt>
<totfact> 0.30895806E+02</totfact>
</mgrwt>
</event>
<event>
 4    1  0.5410820E-008  0.1675902E+04  0.7818608E-02  0.8775229E-01
          2   -1    0    0  501    0  0.00000000000E+00  0.00000000000E+00  0.26195154455E+04  0.26195154455E+04  0.25500000000E-02 0. -1.
         -2   -1    0    0    0  501 -0.00000000000E+00 -0.00000000000E+00 -0.17528957286E+04  0.17528957286E+04  0.25500000000E-02 0.  1.
    8880022    1    1    2    0    0  0.99245676425E+03 -0.13417473609E+04  0.17956609139E+04  0.24562260035E+04  0.15294330000E+03 0.  0.
    8880022    1    1    2    0    0 -0.99245676425E+03  0.13417473609E+04 -0.92904119698E+03  0.19161851706E+04  0.15294330000E+03 0.  0.
<mgrwt>
<rscale>  0 0.16759022E+04</rscale>
<asrwt>0</asrwt>
<pdfrwt beam="1">  1        2 0.40300238E+00 0.16759022E+04</pdfrwt>
<pdfrwt beam="2">  1       -2 0.26967626E+00 0.16759022E+04</pdfrwt>
<totfact> 0.13253107E-01</totfact>
</mgrwt>
</event>
<event>
 4    1  0.5410820E-008  0.1084774E+04  0.7818608E-02  0.9220161E-01
          2   -1    0    0  501    0  0.00000000000E+00  0.00000000000E+00  0.19538198784E+04  0.19538198784E+04  0.25500000000E-02 0. -1.
         -2   -1    0    0    0  501 -0.00000000000E+00 -0.00000000000E+00 -0.13086648715E+04  0.13086648715E+04  0.25500000000E-02 0.  1.
    8880022    1    1    2    0    0  0.73443972564E+03  0.78354349770E+03  0.15210470151E+04  0.18682392241E+04  0.15294330000E+03 0.  0.
    8880022    1    1    2    0    0 -0.73443972564E+03 -0.78354349770E+03 -0.87589200812E+03  0.13942455258E+04  0.15294330000E+03 0.  0.
<mgrwt>
<rscale>  0 0.10847736E+04</rscale>
<asrwt>0</asrwt>
<pdfrwt beam="1">  1        2 0.30058767E+00 0.10847736E+04</pdfrwt>
<pdfrwt beam="2">  1       -2 0.20133306E+00 0.10847736E+04</pdfrwt>
<totfact> 0.91093634E-01</totfact>
</mgrwt>
</event>
<event>
 4    1  0.5410820E-008  0.8210818E+03  0.7818608E-02  0.9529994E-01
         -2   -1    0    0    0  501 -0.00000000000E+00  0.00000000000E+00  0.28204791621E+03  0.28204791622E+03  0.25500000000E-02 0.  1.
          2   -1    0    0  501    0  0.00000000000E+00 -0.00000000000E+00 -0.32317342282E+04  0.32317342282E+04  0.25500000000E-02 0. -1.
    8880022    1    1    2    0    0  0.52330632036E+03  0.61394970075E+03 -0.57836331686E+03  0.10043303835E+04  0.15294330000E+03 0.  0.
    8880022    1    1    2    0    0 -0.52330632036E+03 -0.61394970075E+03 -0.23713229951E+04  0.25094517609E+04  0.15294330000E+03 0.  0.
<mgrwt>
<rscale>  0 0.82108184E+03</rscale>
<asrwt>0</asrwt>
<pdfrwt beam="1">  1        2 0.49718985E+00 0.82108184E+03</pdfrwt>
<pdfrwt beam="2">  1       -2 0.43391990E-01 0.82108184E+03</pdfrwt>
<totfact> 0.65912411E+00</totfact>
</mgrwt>
</event>
<event>
 4    1  0.5410820E-008  0.9517742E+03  0.7818608E-02  0.9363079E-01
         -2   -1    0    0    0  501 -0.00000000000E+00  0.00000000000E+00  0.56659079599E+03  0.56659079600E+03  0.25500000000E-02 0.  1.
          2   -1    0    0  501    0  0.00000000000E+00 -0.00000000000E+00 -0.17649520932E+04  0.17649520932E+04  0.25500000000E-02 0. -1.
    8880022    1    1    2    0    0  0.69546588813E+03  0.63151376367E+03 -0.95684836141E+03  0.13496047106E+04  0.15294330000E+03 0.  0.
    8880022    1    1    2    0    0 -0.69546588813E+03 -0.63151376367E+03 -0.24151293576E+03  0.98193817851E+03  0.15294330000E+03 0.  0.
<mgrwt>
<rscale>  0 0.95177418E+03</rscale>
<asrwt>0</asrwt>
<pdfrwt beam="1">  1        2 0.27153109E+00 0.95177418E+03</pdfrwt>
<pdfrwt beam="2">  1       -2 0.87167815E-01 0.95177418E+03</pdfrwt>
<totfact> 0.10306807E+01</totfact>
</mgrwt>
</event>
<event>
 4    1  0.5410820E-008  0.2428033E+03  0.7818608E-02  0.1117939E+00
         -2   -1    0    0    0  501 -0.00000000000E+00  0.00000000000E+00  0.10917857381E+03  0.10917857384E+03  0.25500000000E-02 0.  1.
          2   -1    0    0  501    0  0.00000000000E+00 -0.00000000000E+00 -0.32564186534E+04  0.32564186534E+04  0.25500000000E-02 0. -1.
    8880022    1    1    2    0    0  0.18815264956E+03  0.12664292863E+02 -0.36660066365E+02  0.24555532438E+03  0.15294330000E+03 0.  0.
    8880022    1    1    2    0    0 -0.18815264956E+03 -0.12664292863E+02 -0.31105800132E+04  0.31200419028E+04  0.15294330000E+03 0. -1.
<mgrwt>
<rscale>  0 0.24280333E+03</rscale>
<asrwt>0</asrwt>
<pdfrwt beam="1">  1        2 0.50098741E+00 0.24280333E+03</pdfrwt>
<pdfrwt beam="2">  1       -2 0.16796706E-01 0.24280333E+03</pdfrwt>
<totfact> 0.42005928E+01</totfact>
</mgrwt>
</event>
<event>
 4    1  0.5410820E-008  0.2491193E+03  0.7818608E-02  0.1113863E+00
         -2   -1    0    0    0  501 -0.00000000000E+00  0.00000000000E+00  0.45504195961E+02  0.45504196032E+02  0.25500000000E-02 0.  1.
          2   -1    0    0  501    0  0.00000000000E+00 -0.00000000000E+00 -0.17181430845E+04  0.17181430845E+04  0.25500000000E-02 0. -1.
    8880022    1    1    2    0    0  0.84300071168E+02  0.17765769993E+03 -0.43587715584E+03  0.50204512581E+03  0.15294330000E+03 0.  1.
    8880022    1    1    2    0    0 -0.84300071168E+02 -0.17765769993E+03 -0.12367617327E+04  0.12616021548E+04  0.15294330000E+03 0.  0.
<mgrwt>
<rscale>  0 0.24911928E+03</rscale>
<asrwt>0</asrwt>
<pdfrwt beam="1">  1        2 0.26432965E+00 0.24911928E+03</pdfrwt>
<pdfrwt beam="2">  1       -2 0.70006469E-02 0.24911928E+03</pdfrwt>
<totfact> 0.12206506E+03</totfact>
</mgrwt>
</event>
<event>
 4    1  0.5410820E-008  0.9794996E+03  0.7818608E-02  0.9331319E-01
         -2   -1    0    0    0  501 -0.00000000000E+00  0.00000000000E+00  0.58875302376E+03  0.58875302377E+03  0.25500000000E-02 0.  1.
          2   -1    0    0  501    0  0.00000000000E+00 -0.00000000000E+00 -0.20336773604E+04  0.20336773604E+04  0.25500000000E-02 0. -1.
    8880022    1    1    2    0    0 -0.78780954277E+03  0.56159056758E+03 -0.13069514520E+04  0.16332610300E+04  0.15294330000E+03 0.  0.
    8880022    1    1    2    0    0  0.78780954277E+03 -0.56159056758E+03 -0.13797288462E+03  0.98916935415E+03  0.15294330000E+03 0.  0.
<mgrwt>
<rscale>  0 0.97949961E+03</rscale>
<asrwt>0</asrwt>
<pdfrwt beam="1">  1        2 0.31287344E+00 0.97949961E+03</pdfrwt>
<pdfrwt beam="2">  1       -2 0.90577389E-01 0.97949961E+03</pdfrwt>
<totfact> 0.66910414E+00</totfact>
</mgrwt>
</event>
<event>
 4    1  0.5410820E-008  0.4393576E+03  0.7818608E-02  0.1030944E+00
          2   -1    0    0  501    0  0.00000000000E+00  0.00000000000E+00  0.17338599550E+04  0.17338599550E+04  0.25500000000E-02 0. -1.
         -2   -1    0    0    0  501 -0.00000000000E+00 -0.00000000000E+00 -0.33238213758E+03  0.33238213759E+03  0.25500000000E-02 0.  1.
    8880022    1    1    2    0    0  0.38818047280E+03  0.13769301715E+03 -0.14177522893E+03  0.46166580444E+03  0.15294330000E+03 0.  0.
    8880022    1    1    2    0    0 -0.38818047280E+03 -0.13769301715E+03  0.15432530464E+04  0.16045762882E+04  0.15294330000E+03 0.  0.
<mgrwt>
<rscale>  0 0.43935760E+03</rscale>
<asrwt>0</asrwt>
<pdfrwt beam="1">  1        2 0.26674768E+00 0.43935760E+03</pdfrwt>
<pdfrwt beam="2">  1       -2 0.51135714E-01 0.43935760E+03</pdfrwt>
<totfact> 0.36571859E+01</totfact>
</mgrwt>
</event>
<event>
 4    1  0.5410820E-008  0.2597427E+03  0.7818608E-02  0.1107298E+00
          2   -1    0    0  501    0  0.00000000000E+00  0.00000000000E+00  0.17930390625E+04  0.17930390625E+04  0.25500000000E-02 0. -1.
         -2   -1    0    0    0  501 -0.00000000000E+00 -0.00000000000E+00 -0.11857294801E+03  0.11857294804E+03  0.25500000000E-02 0.  1.
    8880022    1    1    2    0    0  0.20931437523E+03  0.16189909951E+02  0.16269566484E+04  0.16475600777E+04  0.15294330000E+03 0.  0.
    8880022    1    1    2    0    0 -0.20931437523E+03 -0.16189909951E+02  0.47509466108E+02  0.26405193286E+03  0.15294330000E+03 0.  1.
<mgrwt>
<rscale>  0 0.25974271E+03</rscale>
<asrwt>0</asrwt>
<pdfrwt beam="1">  1        2 0.27585217E+00 0.25974271E+03</pdfrwt>
<pdfrwt beam="2">  1       -2 0.18241992E-01 0.25974271E+03</pdfrwt>
<totfact> 0.23696572E+02</totfact>
</mgrwt>
</event>
<event>
 4    1  0.5410820E-008  0.6655325E+03  0.7818608E-02  0.9778062E-01
          2   -1    0    0  501    0  0.00000000000E+00  0.00000000000E+00  0.14064143486E+04  0.14064143486E+04  0.25500000000E-02 0. -1.
         -2   -1    0    0    0  501 -0.00000000000E+00 -0.00000000000E+00 -0.49448188689E+03  0.49448188689E+03  0.25500000000E-02 0.  1.
    8880022    1    1    2    0    0 -0.42659825859E+03  0.48739687937E+03  0.10286810577E+04  0.12252012748E+04  0.15294330000E+03 0.  0.
    8880022    1    1    2    0    0  0.42659825859E+03 -0.48739687937E+03 -0.11674859598E+03  0.67569496071E+03  0.15294330000E+03 0.  0.
<mgrwt>
<rscale>  0 0.66553245E+03</rscale>
<asrwt>0</asrwt>
<pdfrwt beam="1">  1        2 0.21637144E+00 0.66553245E+03</pdfrwt>
<pdfrwt beam="2">  1       -2 0.76074137E-01 0.66553245E+03</pdfrwt>
<totfact> 0.22930855E+01</totfact>
</mgrwt>
</event>
<event>
 4    1  0.5410820E-008  0.7497472E+03  0.7818608E-02  0.9635747E-01
          2   -1    0    0  501    0  0.00000000000E+00  0.00000000000E+00  0.27054853044E+04  0.27054853044E+04  0.25500000000E-02 0. -1.
         -2   -1    0    0    0  501 -0.00000000000E+00 -0.00000000000E+00 -0.31032975848E+03  0.31032975849E+03  0.25500000000E-02 0.  1.
    8880022    1    1    2    0    0 -0.15339503456E+03  0.71777372022E+03  0.33071603705E+03  0.81944731389E+03  0.15294330000E+03 0.  0.
    8880022    1    1    2    0    0  0.15339503456E+03 -0.71777372022E+03  0.20644395089E+04  0.21963677490E+04  0.15294330000E+03 0.  0.
<mgrwt>
<rscale>  0 0.74974716E+03</rscale>
<asrwt>0</asrwt>
<pdfrwt beam="1">  1        2 0.41622848E+00 0.74974716E+03</pdfrwt>
<pdfrwt beam="2">  1       -2 0.47743043E-01 0.74974716E+03</pdfrwt>
<totfact> 0.11546609E+01</totfact>
</mgrwt>
</event>
<event>
 4    1  0.5410820E-008  0.2337784E+03  0.7818608E-02  0.1124008E+00
         -2   -1    0    0    0  501 -0.00000000000E+00  0.00000000000E+00  0.24891357908E+03  0.24891357909E+03  0.25500000000E-02 0.  1.
          2   -1    0    0  501    0  0.00000000000E+00 -0.00000000000E+00 -0.16849527948E+04  0.16849527948E+04  0.25500000000E-02 0. -1.
    8880022    1    1    2    0    0 -0.16965740573E+03  0.49770176819E+02 -0.16197549493E+04  0.16365385588E+04  0.15294330000E+03 0. -1.
    8880022    1    1    2    0    0  0.16965740573E+03 -0.49770176819E+02  0.18371573358E+03  0.29732781505E+03  0.15294330000E+03 0.  0.
<mgrwt>
<rscale>  0 0.23377844E+03</rscale>
<asrwt>0</asrwt>
<pdfrwt beam="1">  1        2 0.25922350E+00 0.23377844E+03</pdfrwt>
<pdfrwt beam="2">  1       -2 0.38294398E-01 0.23377844E+03</pdfrwt>
<totfact> 0.72234904E+01</totfact>
</mgrwt>
</event>
<event>
 4    1  0.5410820E-008  0.2484037E+03  0.7818608E-02  0.1114318E+00
         -2   -1    0    0    0  501 -0.00000000000E+00  0.00000000000E+00  0.64896314393E+03  0.64896314393E+03  0.25500000000E-02 0.  1.
          2   -1    0    0  501    0  0.00000000000E+00 -0.00000000000E+00 -0.44958383228E+03  0.44958383229E+03  0.25500000000E-02 0. -1.
    8880022    1    1    2    0    0  0.11535095616E+03 -0.15813572910E+03 -0.38805534684E+03  0.46075086232E+03  0.15294330000E+03 0. -1.
    8880022    1    1    2    0    0 -0.11535095616E+03  0.15813572910E+03  0.58743465849E+03  0.63779611390E+03  0.15294330000E+03 0.  0.
<mgrwt>
<rscale>  0 0.24840371E+03</rscale>
<asrwt>0</asrwt>
<pdfrwt beam="1">  1        2 0.69166744E-01 0.24840371E+03</pdfrwt>
<pdfrwt beam="2">  1       -2 0.99840483E-01 0.24840371E+03</pdfrwt>
<totfact> 0.61313574E+01</totfact>
</mgrwt>
</event>
<event>
 4    1  0.5410820E-008  0.5081410E+03  0.7818608E-02  0.1011676E+00
         -2   -1    0    0    0  501 -0.00000000000E+00  0.00000000000E+00  0.16738696065E+03  0.16738696067E+03  0.25500000000E-02 0.  1.
          2   -1    0    0  501    0  0.00000000000E+00 -0.00000000000E+00 -0.18293620049E+04  0.18293620049E+04  0.25500000000E-02 0. -1.
    8880022    1    1    2    0    0  0.20281073710E+03  0.44009480624E+03 -0.43569207226E+03  0.66935406805E+03  0.15294330000E+03 0.  0.
    8880022    1    1    2    0    0 -0.20281073710E+03 -0.44009480624E+03 -0.12262829720E+04  0.13273948975E+04  0.15294330000E+03 0.  0.
<mgrwt>
<rscale>  0 0.50814101E+03</rscale>
<asrwt>0</asrwt>
<pdfrwt beam="1">  1        2 0.28144029E+00 0.50814101E+03</pdfrwt>
<pdfrwt beam="2">  1       -2 0.25751841E-01 0.50814101E+03</pdfrwt>
<totfact> 0.11873425E+02</totfact>
</mgrwt>
</event>
<event>
 4    1  0.5410820E-008  0.7476632E+03  0.7818608E-02  0.9639024E-01
         -2   -1    0    0    0  501 -0.00000000000E+00  0.00000000000E+00  0.56475028126E+03  0.56475028127E+03  0.25500000000E-02 0.  1.
          2   -1    0    0  501    0  0.00000000000E+00 -0.00000000000E+00 -0.10606473986E+04  0.10606473986E+04  0.25500000000E-02 0. -1.
    8880022    1    1    2    0    0 -0.67097280036E+03 -0.29223973376E+03 -0.37933852236E+02  0.74862486665E+03  0.15294330000E+03 0.  0.
    8880022    1    1    2    0    0  0.67097280036E+03  0.29223973376E+03 -0.45796326512E+03  0.87677281323E+03  0.15294330000E+03 0.  0.
<mgrwt>
<rscale>  0 0.74766317E+03</rscale>
<asrwt>0</asrwt>
<pdfrwt beam="1">  1        2 0.16317652E+00 0.74766317E+03</pdfrwt>
<pdfrwt beam="2">  1       -2 0.86884659E-01 0.74766317E+03</pdfrwt>
<totfact> 0.26870594E+01</totfact>
</mgrwt>
</event>
<event>
 4    1  0.5410820E-008  0.4064497E+03  0.7818608E-02  0.1041569E+00
         -2   -1    0    0    0  501 -0.00000000000E+00  0.00000000000E+00  0.17480093899E+03  0.17480093901E+03  0.25500000000E-02 0.  1.
          2   -1    0    0  501    0  0.00000000000E+00 -0.00000000000E+00 -0.11362966319E+04  0.11362966319E+04  0.25500000000E-02 0. -1.
    8880022    1    1    2    0    0  0.18056638366E+03  0.33046258939E+03 -0.74966505148E+03  0.85275968732E+03  0.15294330000E+03 0.  0.
    8880022    1    1    2    0    0 -0.18056638366E+03 -0.33046258939E+03 -0.21183064146E+03  0.45833788363E+03  0.15294330000E+03 0.  0.
<mgrwt>
<rscale>  0 0.40644974E+03</rscale>
<asrwt>0</asrwt>
<pdfrwt beam="1">  1        2 0.17481486E+00 0.40644974E+03</pdfrwt>
<pdfrwt beam="2">  1       -2 0.26892453E-01 0.40644974E+03</pdfrwt>
<totfact> 0.26910028E+02</totfact>
</mgrwt>
</event>
<event>
 4    1  0.5410820E-008  0.1925690E+03  0.7818608E-02  0.1156164E+00
         -2   -1    0    0    0  501 -0.00000000000E+00  0.00000000000E+00  0.12219180077E+03  0.12219180079E+03  0.25500000000E-02 0.  1.
          2   -1    0    0  501    0  0.00000000000E+00 -0.00000000000E+00 -0.11229211633E+04  0.11229211633E+04  0.25500000000E-02 0. -1.
    8880022    1    1    2    0    0 -0.87689662825E+02  0.77470589818E+02  0.31453151257E+02  0.19512079077E+03  0.15294330000E+03 0.  0.
    8880022    1    1    2    0    0  0.87689662825E+02 -0.77470589818E+02 -0.10321825138E+04  0.10499921733E+04  0.15294330000E+03 0.  0.
<mgrwt>
<rscale>  0 0.19256901E+03</rscale>
<asrwt>0</asrwt>
<pdfrwt beam="1">  1        2 0.17275710E+00 0.19256901E+03</pdfrwt>
<pdfrwt beam="2">  1       -2 0.18798739E-01 0.19256901E+03</pdfrwt>
<totfact> 0.52483089E+02</totfact>
</mgrwt>
</event>
<event>
 4    1  0.5410820E-008  0.3412819E+03  0.7818608E-02  0.1066251E+00
         -2   -1    0    0    0  501 -0.00000000000E+00  0.00000000000E+00  0.35864223695E+03  0.35864223696E+03  0.25500000000E-02 0.  1.
          2   -1    0    0  501    0  0.00000000000E+00 -0.00000000000E+00 -0.39639018467E+03  0.39639018468E+03  0.25500000000E-02 0. -1.
    8880022    1    1    2    0    0 -0.18215397042E+03 -0.24474810138E+03  0.14160430543E+03  0.36949307761E+03  0.15294330000E+03 0.  0.
    8880022    1    1    2    0    0  0.18215397042E+03  0.24474810138E+03 -0.17935225315E+03  0.38553934403E+03  0.15294330000E+03 0.  0.
<mgrwt>
<rscale>  0 0.34128193E+03</rscale>
<asrwt>0</asrwt>
<pdfrwt beam="1">  1        2 0.60983106E-01 0.34128193E+03</pdfrwt>
<pdfrwt beam="2">  1       -2 0.55175729E-01 0.34128193E+03</pdfrwt>
<totfact> 0.25447699E+02</totfact>
</mgrwt>
</event>
<event>
 4    1  0.5410820E-008  0.4930328E+03  0.7818608E-02  0.1015614E+00
         -2   -1    0    0    0  501 -0.00000000000E+00  0.00000000000E+00  0.68230243414E+03  0.68230243415E+03  0.25500000000E-02 0.  1.
          2   -1    0    0  501    0  0.00000000000E+00 -0.00000000000E+00 -0.59898198846E+03  0.59898198847E+03  0.25500000000E-02 0. -1.
    8880022    1    1    2    0    0 -0.84572330247E+02 -0.46101754122E+03  0.44947003389E+03  0.66716161216E+03  0.15294330000E+03 0.  0.
    8880022    1    1    2    0    0  0.84572330247E+02  0.46101754122E+03 -0.36614958821E+03  0.61412281045E+03  0.15294330000E+03 0.  0.
<mgrwt>
<rscale>  0 0.49303276E+03</rscale>
<asrwt>0</asrwt>
<pdfrwt beam="1">  1        2 0.92151075E-01 0.49303276E+03</pdfrwt>
<pdfrwt beam="2">  1       -2 0.10496961E+00 0.49303276E+03</pdfrwt>
<totfact> 0.37920136E+01</totfact>
</mgrwt>
</event>
<event>
 4    1  0.5410820E-008  0.3845776E+03  0.7818608E-02  0.1049255E+00
          2   -1    0    0  501    0  0.00000000000E+00  0.00000000000E+00  0.13956544708E+04  0.13956544708E+04  0.25500000000E-02 0. -1.
         -2   -1    0    0    0  501 -0.00000000000E+00 -0.00000000000E+00 -0.35442428352E+03  0.35442428353E+03  0.25500000000E-02 0.  1.
    8880022    1    1    2    0    0  0.16055397525E+03  0.31421436404E+03 -0.21201981286E+03  0.43914951849E+03  0.15294330000E+03 0.  0.
    8880022    1    1    2    0    0 -0.16055397525E+03 -0.31421436404E+03  0.12532500001E+04  0.13109292358E+04  0.15294330000E+03 0.  0.
<mgrwt>
<rscale>  0 0.38457756E+03</rscale>
<asrwt>0</asrwt>
<pdfrwt beam="1">  1        2 0.21471607E+00 0.38457756E+03</pdfrwt>
<pdfrwt beam="2">  1       -2 0.54526812E-01 0.38457756E+03</pdfrwt>
<totfact> 0.49492383E+01</totfact>
</mgrwt>
</event>
<event>
 4    1  0.9738040E-008  0.6940139E+03  0.7818608E-02  0.9727524E-01
          2   -1    0    0  501    0  0.00000000000E+00  0.00000000000E+00  0.81015733643E+03  0.81015733644E+03  0.25500000000E-02 0. -1.
         -2   -1    0    0    0  501 -0.00000000000E+00 -0.00000000000E+00 -0.19173854545E+04  0.19173854545E+04  0.25500000000E-02 0.  1.
    8880022    1    1    2    0    0  0.32321768222E+03 -0.59480587681E+03 -0.16863914594E+04  0.18236149563E+04  0.15294330000E+03 0.  0.
    8880022    1    1    2    0    0 -0.32321768222E+03  0.59480587681E+03  0.57916334142E+03  0.90392783464E+03  0.15294330000E+03 0.  0.
<mgrwt>
<rscale>  0 0.69401394E+03</rscale>
<asrwt>0</asrwt>
<pdfrwt beam="1">  1        2 0.12463959E+00 0.69401394E+03</pdfrwt>
<pdfrwt beam="2">  1       -2 0.29498238E+00 0.69401394E+03</pdfrwt>
<totfact> 0.12175634E+00</totfact>
</mgrwt>
</event>
<event>
 4    1  0.5410820E-008  0.2289856E+03  0.7818608E-02  0.1127356E+00
          2   -1    0    0  501    0  0.00000000000E+00  0.00000000000E+00  0.10151932937E+04  0.10151932937E+04  0.25500000000E-02 0. -1.
         -2   -1    0    0    0  501 -0.00000000000E+00 -0.00000000000E+00 -0.31701107148E+03  0.31701107149E+03  0.25500000000E-02 0.  1.
    8880022    1    1    2    0    0  0.56150238150E+02 -0.16090335123E+03 -0.26033705767E+03  0.34671281241E+03  0.15294330000E+03 0.  1.
    8880022    1    1    2    0    0 -0.56150238150E+02  0.16090335123E+03  0.95851927989E+03  0.98549155279E+03  0.15294330000E+03 0.  0.
<mgrwt>
<rscale>  0 0.22898557E+03</rscale>
<asrwt>0</asrwt>
<pdfrwt beam="1">  1        2 0.15618358E+00 0.22898557E+03</pdfrwt>
<pdfrwt beam="2">  1       -2 0.48770935E-01 0.22898557E+03</pdfrwt>
<totfact> 0.10602681E+02</totfact>
</mgrwt>
</event>
<event>
 4    1  0.5410820E-008  0.5585874E+03  0.7818608E-02  0.9995256E-01
         -2   -1    0    0    0  501 -0.00000000000E+00  0.00000000000E+00  0.21891865165E+03  0.21891865166E+03  0.25500000000E-02 0.  1.
          2   -1    0    0  501    0  0.00000000000E+00 -0.00000000000E+00 -0.55226347466E+04  0.55226347466E+04  0.25500000000E-02 0. -1.
    8880022    1    1    2    0    0 -0.48248560896E+03  0.23629605638E+03 -0.17911969664E+03  0.58660353549E+03  0.15294330000E+03 0.  0.
    8880022    1    1    2    0    0  0.48248560896E+03 -0.23629605638E+03 -0.51245963983E+04  0.51549498628E+04  0.15294330000E+03 0.  0.
<mgrwt>
<rscale>  0 0.55858736E+03</rscale>
<asrwt>0</asrwt>
<pdfrwt beam="1">  1        2 0.84963601E+00 0.55858736E+03</pdfrwt>
<pdfrwt beam="2">  1       -2 0.33679797E-01 0.55858736E+03</pdfrwt>
<totfact> 0.60134652E-02</totfact>
</mgrwt>
</event>
<event>
 4    1  0.5410820E-008  0.5853704E+03  0.7818608E-02  0.9936231E-01
          2   -1    0    0  501    0  0.00000000000E+00  0.00000000000E+00  0.12798770379E+04  0.12798770379E+04  0.25500000000E-02 0. -1.
         -2   -1    0    0    0  501 -0.00000000000E+00 -0.00000000000E+00 -0.14054777230E+04  0.14054777230E+04  0.25500000000E-02 0.  1.
    8880022    1    1    2    0    0 -0.55965776827E+03 -0.77781727496E+02  0.11452446959E+04  0.12861741256E+04  0.15294330000E+03 0.  0.
    8880022    1    1    2    0    0  0.55965776827E+03  0.77781727496E+02 -0.12708453810E+04  0.13991806353E+04  0.15294330000E+03 0.  0.
<mgrwt>
<rscale>  0 0.58537037E+03</rscale>
<asrwt>0</asrwt>
<pdfrwt beam="1">  1        2 0.19690416E+00 0.58537037E+03</pdfrwt>
<pdfrwt beam="2">  1       -2 0.21622734E+00 0.58537037E+03</pdfrwt>
<totfact> 0.18896029E+00</totfact>
</mgrwt>
</event>
<event>
 4    1  0.5410820E-008  0.5240698E+03  0.7818608E-02  0.1007681E+00
         -2   -1    0    0    0  501 -0.00000000000E+00  0.00000000000E+00  0.27616454620E+03  0.27616454621E+03  0.25500000000E-02 0.  1.
          2   -1    0    0  501    0  0.00000000000E+00 -0.00000000000E+00 -0.19492349186E+04  0.19492349186E+04  0.25500000000E-02 0. -1.
    8880022    1    1    2    0    0  0.15238895904E+03  0.47753023234E+03 -0.57809699481E+02  0.52724864344E+03  0.15294330000E+03 0.  0.
    8880022    1    1    2    0    0 -0.15238895904E+03 -0.47753023234E+03 -0.16152606729E+04  0.16981508214E+04  0.15294330000E+03 0.  0.
<mgrwt>
<rscale>  0 0.52406981E+03</rscale>
<asrwt>0</asrwt>
<pdfrwt beam="1">  1        2 0.29988229E+00 0.52406981E+03</pdfrwt>
<pdfrwt beam="2">  1       -2 0.42486854E-01 0.52406981E+03</pdfrwt>
<totfact> 0.39891422E+01</totfact>
</mgrwt>
</event>
<event>
 4    1  0.5410820E-008  0.1250976E+04  0.7818608E-02  0.9069372E-01
         -2   -1    0    0    0  501 -0.00000000000E+00  0.00000000000E+00  0.31173037839E+04  0.31173037839E+04  0.25500000000E-02 0.  1.
          2   -1    0    0  501    0  0.00000000000E+00 -0.00000000000E+00 -0.54458482812E+03  0.54458482812E+03  0.25500000000E-02 0. -1.
    8880022    1    1    2    0    0 -0.12414982569E+04 -0.15191611337E+02  0.17982554283E+04  0.21905850692E+04  0.15294330000E+03 0.  0.
    8880022    1    1    2    0    0  0.12414982569E+04  0.15191611337E+02  0.77446352750E+03  0.14713035429E+04  0.15294330000E+03 0.  0.
<mgrwt>
<rscale>  0 0.12509758E+04</rscale>
<asrwt>0</asrwt>
<pdfrwt beam="1">  1        2 0.83782281E-01 0.12509758E+04</pdfrwt>
<pdfrwt beam="2">  1       -2 0.47958520E+00 0.12509758E+04</pdfrwt>
<totfact> 0.12158888E-01</totfact>
</mgrwt>
</event>
<event>
 4    1  0.5410820E-008  0.4297941E+03  0.7818608E-02  0.1033925E+00
         -2   -1    0    0    0  501 -0.00000000000E+00  0.00000000000E+00  0.22569484640E+03  0.22569484641E+03  0.25500000000E-02 0.  1.
          2   -1    0    0  501    0  0.00000000000E+00 -0.00000000000E+00 -0.16313985973E+04  0.16313985973E+04  0.25500000000E-02 0. -1.
    8880022    1    1    2    0    0 -0.11154661320E+03 -0.38586094434E+03 -0.47383585832E+02  0.43239816432E+03  0.15294330000E+03 0.  0.
    8880022    1    1    2    0    0  0.11154661320E+03  0.38586094434E+03 -0.13583201651E+04  0.14246952794E+04  0.15294330000E+03 0.  0.
<mgrwt>
<rscale>  0 0.42979410E+03</rscale>
<asrwt>0</asrwt>
<pdfrwt beam="1">  1        2 0.25098439E+00 0.42979410E+03</pdfrwt>
<pdfrwt beam="2">  1       -2 0.34722285E-01 0.42979410E+03</pdfrwt>
<totfact> 0.88596381E+01</totfact>
</mgrwt>
</event>
<event>
 4    1  0.5410820E-008  0.2999247E+03  0.7818608E-02  0.1085278E+00
          2   -1    0    0  501    0  0.00000000000E+00  0.00000000000E+00  0.13355309242E+04  0.13355309242E+04  0.25500000000E-02 0. -1.
         -2   -1    0    0    0  501 -0.00000000000E+00 -0.00000000000E+00 -0.13157522240E+03  0.13157522242E+03  0.25500000000E-02 0.  1.
    8880022    1    1    2    0    0 -0.25650705023E+03  0.27700575149E+02  0.11144614738E+04  0.11541140404E+04  0.15294330000E+03 0. -1.
    8880022    1    1    2    0    0  0.25650705023E+03 -0.27700575149E+02  0.89494227987E+02  0.31299210619E+03  0.15294330000E+03 0.  0.
<mgrwt>
<rscale>  0 0.29992473E+03</rscale>
<asrwt>0</asrwt>
<pdfrwt beam="1">  1        2 0.20546629E+00 0.29992473E+03</pdfrwt>
<pdfrwt beam="2">  1       -2 0.20242343E-01 0.29992473E+03</pdfrwt>
<totfact> 0.34606106E+02</totfact>
</mgrwt>
</event>
<event>
 4    1  0.5410820E-008  0.4223184E+03  0.7818608E-02  0.1036314E+00
         -2   -1    0    0    0  501 -0.00000000000E+00  0.00000000000E+00  0.97395819867E+02  0.97395819900E+02  0.25500000000E-02 0.  1.
          2   -1    0    0  501    0  0.00000000000E+00 -0.00000000000E+00 -0.30156808059E+04  0.30156808059E+04  0.25500000000E-02 0. -1.
    8880022    1    1    2    0    0 -0.20014918071E+03  0.33897117751E+03 -0.24346444976E+04  0.24710011405E+04  0.15294330000E+03 0.  0.
    8880022    1    1    2    0    0  0.20014918071E+03 -0.33897117751E+03 -0.48364048839E+03  0.64207548524E+03  0.15294330000E+03 0.  0.
<mgrwt>
<rscale>  0 0.42231837E+03</rscale>
<asrwt>0</asrwt>
<pdfrwt beam="1">  1        2 0.46395082E+00 0.42231837E+03</pdfrwt>
<pdfrwt beam="2">  1       -2 0.14983975E-01 0.42231837E+03</pdfrwt>
<totfact> 0.67017344E+01</totfact>
</mgrwt>
</event>
<event>
 4    1  0.5410820E-008  0.4954887E+03  0.7818608E-02  0.1014963E+00
         -2   -1    0    0    0  501 -0.00000000000E+00  0.00000000000E+00  0.17491423142E+03  0.17491423144E+03  0.25500000000E-02 0.  1.
          2   -1    0    0  501    0  0.00000000000E+00 -0.00000000000E+00 -0.26413973809E+04  0.26413973809E+04  0.25500000000E-02 0. -1.
    8880022    1    1    2    0    0 -0.44884340527E+03 -0.14372554688E+03 -0.21972018721E+04  0.22523776670E+04  0.15294330000E+03 0.  0.
    8880022    1    1    2    0    0  0.44884340527E+03  0.14372554688E+03 -0.26928127736E+03  0.56393394528E+03  0.15294330000E+03 0.  0.
<mgrwt>
<rscale>  0 0.49548874E+03</rscale>
<asrwt>0</asrwt>
<pdfrwt beam="1">  1        2 0.40636880E+00 0.49548874E+03</pdfrwt>
<pdfrwt beam="2">  1       -2 0.26909884E-01 0.49548874E+03</pdfrwt>
<totfact> 0.39436531E+01</totfact>
</mgrwt>
</event>
<event>
 4    1  0.5410820E-008  0.5515522E+03  0.7818608E-02  0.1001135E+00
         -2   -1    0    0    0  501 -0.00000000000E+00  0.00000000000E+00  0.50642162715E+03  0.50642162716E+03  0.25500000000E-02 0.  1.
          2   -1    0    0  501    0  0.00000000000E+00 -0.00000000000E+00 -0.20448084901E+04  0.20448084901E+04  0.25500000000E-02 0. -1.
    8880022    1    1    2    0    0  0.61637537935E+01 -0.52988699977E+03 -0.18411878245E+04  0.19220256196E+04  0.15294330000E+03 0.  0.
    8880022    1    1    2    0    0 -0.61637537935E+01  0.52988699977E+03  0.30280096162E+03  0.62920449757E+03  0.15294330000E+03 0.  0.
<mgrwt>
<rscale>  0 0.55155224E+03</rscale>
<asrwt>0</asrwt>
<pdfrwt beam="1">  1        2 0.31458592E+00 0.55155224E+03</pdfrwt>
<pdfrwt beam="2">  1       -2 0.77911020E-01 0.55155224E+03</pdfrwt>
<totfact> 0.99402878E+00</totfact>
</mgrwt>
</event>
<event>
 4    1  0.5410820E-008  0.1835991E+03  0.7818608E-02  0.1164365E+00
         -2   -1    0    0    0  501 -0.00000000000E+00  0.00000000000E+00  0.27189207504E+03  0.27189207505E+03  0.25500000000E-02 0.  1.
          2   -1    0    0  501    0  0.00000000000E+00 -0.00000000000E+00 -0.59815885777E+03  0.59815885778E+03  0.25500000000E-02 0. -1.
    8880022    1    1    2    0    0 -0.52683057233E+02 -0.86841685300E+02 -0.55046096999E+03  0.58027227689E+03  0.15294330000E+03 0.  0.
    8880022    1    1    2    0    0  0.52683057233E+02  0.86841685300E+02  0.22419418726E+03  0.28977865594E+03  0.15294330000E+03 0.  1.
<mgrwt>
<rscale>  0 0.18359912E+03</rscale>
<asrwt>0</asrwt>
<pdfrwt beam="1">  1        2 0.92024439E-01 0.18359912E+03</pdfrwt>
<pdfrwt beam="2">  1       -2 0.41829550E-01 0.18359912E+03</pdfrwt>
<totfact> 0.28131743E+02</totfact>
</mgrwt>
</event>
<event>
 4    1  0.5410820E-008  0.6768312E+03  0.7818608E-02  0.9757695E-01
         -2   -1    0    0    0  501 -0.00000000000E+00  0.00000000000E+00  0.32451797149E+03  0.32451797150E+03  0.25500000000E-02 0.  1.
          2   -1    0    0  501    0  0.00000000000E+00 -0.00000000000E+00 -0.29584122678E+04  0.29584122678E+04  0.25500000000E-02 0. -1.
    8880022    1    1    2    0    0 -0.37063592942E+03 -0.54528686799E+03 -0.13004087935E+03  0.68921044964E+03  0.15294330000E+03 0.  0.
    8880022    1    1    2    0    0  0.37063592942E+03  0.54528686799E+03 -0.25038534170E+04  0.25937197897E+04  0.15294330000E+03 0.  0.
<mgrwt>
<rscale>  0 0.67683116E+03</rscale>
<asrwt>0</asrwt>
<pdfrwt beam="1">  1        2 0.45514033E+00 0.67683116E+03</pdfrwt>
<pdfrwt beam="2">  1       -2 0.49925844E-01 0.67683116E+03</pdfrwt>
<totfact> 0.75677350E+00</totfact>
</mgrwt>
</event>
<event>
 4    1  0.5410820E-008  0.4598041E+03  0.7818608E-02  0.1024838E+00
         -2   -1    0    0    0  501 -0.00000000000E+00  0.00000000000E+00  0.13836370921E+04  0.13836370921E+04  0.25500000000E-02 0.  1.
          2   -1    0    0  501    0  0.00000000000E+00 -0.00000000000E+00 -0.36676349103E+04  0.36676349103E+04  0.25500000000E-02 0. -1.
    8880022    1    1    2    0    0 -0.42779997229E+03 -0.70819280070E+02 -0.36144640207E+04  0.36435930064E+04  0.15294330000E+03 0.  0.
    8880022    1    1    2    0    0  0.42779997229E+03  0.70819280070E+02  0.13304662025E+04  0.14076789960E+04  0.15294330000E+03 0.  0.
<mgrwt>
<rscale>  0 0.45980413E+03</rscale>
<asrwt>0</asrwt>
<pdfrwt beam="1">  1        2 0.56425152E+00 0.45980413E+03</pdfrwt>
<pdfrwt beam="2">  1       -2 0.21286725E+00 0.45980413E+03</pdfrwt>
<totfact> 0.83969540E-02</totfact>
</mgrwt>
</event>
<event>
 4    1  0.5410820E-008  0.4910123E+03  0.7818608E-02  0.1016152E+00
          2   -1    0    0  501    0  0.00000000000E+00  0.00000000000E+00  0.22510078377E+04  0.22510078377E+04  0.25500000000E-02 0. -1.
         -2   -1    0    0    0  501 -0.00000000000E+00 -0.00000000000E+00 -0.25591952620E+03  0.25591952621E+03  0.25500000000E-02 0.  1.
    8880022    1    1    2    0    0  0.19839282687E+03 -0.42230527397E+03  0.41708099948E+02  0.49278055643E+03  0.15294330000E+03 0.  0.
    8880022    1    1    2    0    0 -0.19839282687E+03  0.42230527397E+03  0.19533802116E+04  0.20141468075E+04  0.15294330000E+03 0.  0.
<mgrwt>
<rscale>  0 0.49101233E+03</rscale>
<asrwt>0</asrwt>
<pdfrwt beam="1">  1        2 0.34630891E+00 0.49101233E+03</pdfrwt>
<pdfrwt beam="2">  1       -2 0.39372233E-01 0.49101233E+03</pdfrwt>
<totfact> 0.31964453E+01</totfact>
</mgrwt>
</event>
<event>
 4    1  0.5410820E-008  0.3857594E+03  0.7818608E-02  0.1048825E+00
         -2   -1    0    0    0  501 -0.00000000000E+00  0.00000000000E+00  0.55844603009E+03  0.55844603010E+03  0.25500000000E-02 0.  1.
          2   -1    0    0  501    0  0.00000000000E+00 -0.00000000000E+00 -0.13890717056E+04  0.13890717056E+04  0.25500000000E-02 0. -1.
    8880022    1    1    2    0    0 -0.60418261470E+02 -0.34895309836E+03  0.46007707242E+03  0.60040086338E+03  0.15294330000E+03 0.  1.
    8880022    1    1    2    0    0  0.60418261470E+02  0.34895309836E+03 -0.12907027479E+04  0.13471168723E+04  0.15294330000E+03 0.  0.
<mgrwt>
<rscale>  0 0.38575936E+03</rscale>
<asrwt>0</asrwt>
<pdfrwt beam="1">  1        2 0.21370334E+00 0.38575936E+03</pdfrwt>
<pdfrwt beam="2">  1       -2 0.85914774E-01 0.38575936E+03</pdfrwt>
<totfact> 0.18752695E+01</totfact>
</mgrwt>
</event>
<event>
 4    1  0.5410820E-008  0.3157167E+03  0.7818608E-02  0.1077638E+00
         -2   -1    0    0    0  501 -0.00000000000E+00  0.00000000000E+00  0.24868543436E+03  0.24868543437E+03  0.25500000000E-02 0.  1.
          2   -1    0    0  501    0  0.00000000000E+00 -0.00000000000E+00 -0.13454188234E+04  0.13454188234E+04  0.25500000000E-02 0. -1.
    8880022    1    1    2    0    0  0.18891504697E+03  0.20148576110E+03 -0.12162223901E+04  0.12565325153E+04  0.15294330000E+03 0. -1.
    8880022    1    1    2    0    0 -0.18891504697E+03 -0.20148576110E+03  0.11948900106E+03  0.33757174243E+03  0.15294330000E+03 0.  0.
<mgrwt>
<rscale>  0 0.31571674E+03</rscale>
<asrwt>0</asrwt>
<pdfrwt beam="1">  1        2 0.20698751E+00 0.31571674E+03</pdfrwt>
<pdfrwt beam="2">  1       -2 0.38259299E-01 0.31571674E+03</pdfrwt>
<totfact> 0.10775428E+02</totfact>
</mgrwt>
</event>
<event>
 4    1  0.5410820E-008  0.3100050E+03  0.7818608E-02  0.1080343E+00
          2   -1    0    0  501    0  0.00000000000E+00  0.00000000000E+00  0.12269127864E+04  0.12269127864E+04  0.25500000000E-02 0. -1.
         -2   -1    0    0    0  501 -0.00000000000E+00 -0.00000000000E+00 -0.28244151510E+03  0.28244151511E+03  0.25500000000E-02 0.  1.
    8880022    1    1    2    0    0 -0.95269148720E+00 -0.26964892468E+03 -0.16931587778E+03  0.35322934431E+03  0.15294330000E+03 0.  0.
    8880022    1    1    2    0    0  0.95269148720E+00  0.26964892468E+03  0.11137871491E+04  0.11561249572E+04  0.15294330000E+03 0.  0.
<mgrwt>
<rscale>  0 0.31000501E+03</rscale>
<asrwt>0</asrwt>
<pdfrwt beam="1">  1        2 0.18875581E+00 0.31000501E+03</pdfrwt>
<pdfrwt beam="2">  1       -2 0.43452541E-01 0.31000501E+03</pdfrwt>
<totfact> 0.98332593E+01</totfact>
</mgrwt>
</event>
<event>
 4    1  0.5410820E-008  0.7269175E+03  0.7818608E-02  0.9672276E-01
          2   -1    0    0  501    0  0.00000000000E+00  0.00000000000E+00  0.34885280444E+04  0.34885280444E+04  0.25500000000E-02 0. -1.
         -2   -1    0    0    0  501 -0.00000000000E+00 -0.00000000000E+00 -0.24496492339E+03  0.24496492340E+03  0.25500000000E-02 0.  1.
    8880022    1    1    2    0    0 -0.34556431100E+03  0.62096918899E+03  0.46852416133E+03  0.86482597641E+03  0.15294330000E+03 0.  0.
    8880022    1    1    2    0    0  0.34556431100E+03 -0.62096918899E+03  0.27750389597E+04  0.28686669914E+04  0.15294330000E+03 0.  0.
<mgrwt>
<rscale>  0 0.72691752E+03</rscale>
<asrwt>0</asrwt>
<pdfrwt beam="1">  1        2 0.53669657E+00 0.72691752E+03</pdfrwt>
<pdfrwt beam="2">  1       -2 0.37686915E-01 0.72691752E+03</pdfrwt>
<totfact> 0.59824109E+00</totfact>
</mgrwt>
</event>
<event>
 4    1  0.5410820E-008  0.2738328E+03  0.7818608E-02  0.1099106E+00
         -2   -1    0    0    0  501 -0.00000000000E+00  0.00000000000E+00  0.57041832174E+03  0.57041832174E+03  0.25500000000E-02 0.  1.
          2   -1    0    0  501    0  0.00000000000E+00 -0.00000000000E+00 -0.56630267946E+03  0.56630267947E+03  0.25500000000E-02 0. -1.
    8880022    1    1    2    0    0 -0.18702157968E+03 -0.12890178685E+03 -0.49598663545E+03  0.56655726760E+03  0.15294330000E+03 0. -1.
    8880022    1    1    2    0    0  0.18702157968E+03  0.12890178685E+03  0.50010227773E+03  0.57016373361E+03  0.15294330000E+03 0.  0.
<mgrwt>
<rscale>  0 0.27383279E+03</rscale>
<asrwt>0</asrwt>
<pdfrwt beam="1">  1        2 0.87123489E-01 0.27383279E+03</pdfrwt>
<pdfrwt beam="2">  1       -2 0.87756665E-01 0.27383279E+03</pdfrwt>
<totfact> 0.63256315E+01</totfact>
</mgrwt>
</event>
<event>
 4    1  0.5410820E-008  0.2582704E+03  0.7818608E-02  0.1108187E+00
          2   -1    0    0  501    0  0.00000000000E+00  0.00000000000E+00  0.32179287656E+03  0.32179287657E+03  0.25500000000E-02 0. -1.
         -2   -1    0    0    0  501 -0.00000000000E+00 -0.00000000000E+00 -0.59732235304E+03  0.59732235305E+03  0.25500000000E-02 0.  1.
    8880022    1    1    2    0    0 -0.53210937770E+02 -0.20119780968E+03 -0.50911807909E+03  0.57088075286E+03  0.15294330000E+03 0.  0.
    8880022    1    1    2    0    0  0.53210937770E+02  0.20119780968E+03  0.23358860261E+03  0.34823447676E+03  0.15294330000E+03 0. -1.
<mgrwt>
<rscale>  0 0.25827043E+03</rscale>
<asrwt>0</asrwt>
<pdfrwt beam="1">  1        2 0.49506597E-01 0.25827043E+03</pdfrwt>
<pdfrwt beam="2">  1       -2 0.91895746E-01 0.25827043E+03</pdfrwt>
<totfact> 0.10669536E+02</totfact>
</mgrwt>
</event>
<event>
 4    1  0.5410820E-008  0.4461790E+03  0.7818608E-02  0.1028868E+00
         -2   -1    0    0    0  501 -0.00000000000E+00  0.00000000000E+00  0.29717641756E+03  0.29717641757E+03  0.25500000000E-02 0.  1.
          2   -1    0    0  501    0  0.00000000000E+00 -0.00000000000E+00 -0.92810051959E+03  0.92810051959E+03  0.25500000000E-02 0. -1.
    8880022    1    1    2    0    0  0.41545759124E+03 -0.55489238896E+02  0.76797428400E+01  0.44624510890E+03  0.15294330000E+03 0.  0.
    8880022    1    1    2    0    0 -0.41545759124E+03  0.55489238896E+02 -0.63860384487E+03  0.77903182826E+03  0.15294330000E+03 0.  0.
<mgrwt>
<rscale>  0 0.44617902E+03</rscale>
<asrwt>0</asrwt>
<pdfrwt beam="1">  1        2 0.14278469E+00 0.44617902E+03</pdfrwt>
<pdfrwt beam="2">  1       -2 0.45719449E-01 0.44617902E+03</pdfrwt>
<totfact> 0.13218719E+02</totfact>
</mgrwt>
</event>
<event>
 4    1  0.5410820E-008  0.1553255E+03  0.7818608E-02  0.1194078E+00
         -2   -1    0    0    0  501 -0.00000000000E+00  0.00000000000E+00  0.18627243676E+03  0.18627243678E+03  0.25500000000E-02 0.  1.
          2   -1    0    0  501    0  0.00000000000E+00 -0.00000000000E+00 -0.69949927384E+03  0.69949927385E+03  0.25500000000E-02 0. -1.
    8880022    1    1    2    0    0  0.20566862515E+02 -0.17645163475E+02 -0.65639954507E+03  0.67452676997E+03  0.15294330000E+03 0. -1.
    8880022    1    1    2    0    0 -0.20566862515E+02  0.17645163475E+02  0.14317270798E+03  0.21124494066E+03  0.15294330000E+03 0.  0.
<mgrwt>
<rscale>  0 0.15532547E+03</rscale>
<asrwt>0</asrwt>
<pdfrwt beam="1">  1        2 0.10761527E+00 0.15532547E+03</pdfrwt>
<pdfrwt beam="2">  1       -2 0.28657298E-01 0.15532547E+03</pdfrwt>
<totfact> 0.47313351E+02</totfact>
</mgrwt>
</event>
<event>
 4    1  0.5410820E-008  0.7797368E+03  0.7818608E-02  0.9589819E-01
          2   -1    0    0  501    0  0.00000000000E+00  0.00000000000E+00  0.19899135479E+04  0.19899135479E+04  0.25500000000E-02 0. -1.
         -2   -1    0    0    0  501 -0.00000000000E+00 -0.00000000000E+00 -0.51356109527E+03  0.51356109528E+03  0.25500000000E-02 0.  1.
    8880022    1    1    2    0    0 -0.55069552479E+03  0.53040757534E+03  0.15348406726E+04  0.17215473564E+04  0.15294330000E+03 0.  0.
    8880022    1    1    2    0    0  0.55069552479E+03 -0.53040757534E+03 -0.58488219936E+02  0.78192728682E+03  0.15294330000E+03 0.  0.
<mgrwt>
<rscale>  0 0.77973676E+03</rscale>
<asrwt>0</asrwt>
<pdfrwt beam="1">  1        2 0.30614055E+00 0.77973676E+03</pdfrwt>
<pdfrwt beam="2">  1       -2 0.79009398E-01 0.77973676E+03</pdfrwt>
<totfact> 0.99159241E+00</totfact>
</mgrwt>
</event>
<event>
 4    1  0.5410820E-008  0.5642193E+03  0.7818608E-02  0.9982553E-01
         -2   -1    0    0    0  501 -0.00000000000E+00  0.00000000000E+00  0.59401871629E+03  0.59401871629E+03  0.25500000000E-02 0.  1.
          2   -1    0    0  501    0  0.00000000000E+00 -0.00000000000E+00 -0.71192488057E+03  0.71192488057E+03  0.25500000000E-02 0. -1.
    8880022    1    1    2    0    0 -0.52201301734E+03 -0.14984703351E+03 -0.38362610393E+03  0.68228466519E+03  0.15294330000E+03 0.  1.
    8880022    1    1    2    0    0  0.52201301734E+03  0.14984703351E+03  0.26571993965E+03  0.62365893168E+03  0.15294330000E+03 0.  0.
<mgrwt>
<rscale>  0 0.56421926E+03</rscale>
<asrwt>0</asrwt>
<pdfrwt beam="1">  1        2 0.10952690E+00 0.56421926E+03</pdfrwt>
<pdfrwt beam="2">  1       -2 0.91387495E-01 0.56421926E+03</pdfrwt>
<totfact> 0.42151013E+01</totfact>
</mgrwt>
</event>
<event>
 4    1  0.5410820E-008  0.4413608E+03  0.7818608E-02  0.1030330E+00
         -2   -1    0    0    0  501 -0.00000000000E+00  0.00000000000E+00  0.90592054871E+02  0.90592054907E+02  0.25500000000E-02 0.  1.
          2   -1    0    0  501    0  0.00000000000E+00 -0.00000000000E+00 -0.32826680498E+04  0.32826680498E+04  0.25500000000E-02 0. -1.
    8880022    1    1    2    0    0 -0.35502310521E+03 -0.21299358329E+03 -0.60543010115E+03  0.74922955905E+03  0.15294330000E+03 0.  0.
    8880022    1    1    2    0    0  0.35502310521E+03  0.21299358329E+03 -0.25866458938E+04  0.26240305457E+04  0.15294330000E+03 0.  0.
<mgrwt>
<rscale>  0 0.44136076E+03</rscale>
<asrwt>0</asrwt>
<pdfrwt beam="1">  1        2 0.50502576E+00 0.44136076E+03</pdfrwt>
<pdfrwt beam="2">  1       -2 0.13937242E-01 0.44136076E+03</pdfrwt>
<totfact> 0.51404216E+01</totfact>
</mgrwt>
</event>
<event>
 4    1  0.5410820E-008  0.2524958E+03  0.7818608E-02  0.1111738E+00
         -2   -1    0    0    0  501 -0.00000000000E+00  0.00000000000E+00  0.63507528249E+02  0.63507528300E+02  0.25500000000E-02 0.  1.
          2   -1    0    0  501    0  0.00000000000E+00 -0.00000000000E+00 -0.10622565957E+04  0.10622565957E+04  0.25500000000E-02 0. -1.
    8880022    1    1    2    0    0  0.18236843822E+03 -0.84286607106E+02 -0.63132491695E+03  0.67994505894E+03  0.15294330000E+03 0.  1.
    8880022    1    1    2    0    0 -0.18236843822E+03  0.84286607106E+02 -0.36742415055E+03  0.44581906511E+03  0.15294330000E+03 0.  0.
<mgrwt>
<rscale>  0 0.25249581E+03</rscale>
<asrwt>0</asrwt>
<pdfrwt beam="1">  1        2 0.16342408E+00 0.25249581E+03</pdfrwt>
<pdfrwt beam="2">  1       -2 0.97703897E-02 0.25249581E+03</pdfrwt>
<totfact> 0.16570192E+03</totfact>
</mgrwt>
</event>
<event>
 4    1  0.5410820E-008  0.7346019E+03  0.7818608E-02  0.9659822E-01
          2   -1    0    0  501    0  0.00000000000E+00  0.00000000000E+00  0.10810716639E+04  0.10810716639E+04  0.25500000000E-02 0. -1.
         -2   -1    0    0    0  501 -0.00000000000E+00 -0.00000000000E+00 -0.73571523379E+03  0.73571523380E+03  0.25500000000E-02 0.  1.
    8880022    1    1    2    0    0  0.67768010746E+03 -0.23874244487E+03  0.68775862976E+03  0.10063060513E+04  0.15294330000E+03 0.  0.
    8880022    1    1    2    0    0 -0.67768010746E+03  0.23874244487E+03 -0.34240219966E+03  0.81048084640E+03  0.15294330000E+03 0.  0.
<mgrwt>
<rscale>  0 0.73460189E+03</rscale>
<asrwt>0</asrwt>
<pdfrwt beam="1">  1        2 0.16631872E+00 0.73460189E+03</pdfrwt>
<pdfrwt beam="2">  1       -2 0.11318696E+00 0.73460189E+03</pdfrwt>
<totfact> 0.13989941E+01</totfact>
</mgrwt>
</event>
<event>
 4    1  0.5410820E-008  0.1290995E+04  0.7818608E-02  0.9036737E-01
          2   -1    0    0  501    0  0.00000000000E+00  0.00000000000E+00  0.65463115047E+03  0.65463115048E+03  0.25500000000E-02 0. -1.
         -2   -1    0    0    0  501 -0.00000000000E+00 -0.00000000000E+00 -0.33643557065E+04  0.33643557065E+04  0.25500000000E-02 0.  1.
    8880022    1    1    2    0    0  0.30268624348E+03  0.12456554569E+04 -0.36376581416E+03  0.13412657082E+04  0.15294330000E+03 0.  0.
    8880022    1    1    2    0    0 -0.30268624348E+03 -0.12456554569E+04 -0.23459587419E+04  0.26777211488E+04  0.15294330000E+03 0.  0.
<mgrwt>
<rscale>  0 0.12909950E+04</rscale>
<asrwt>0</asrwt>
<pdfrwt beam="1">  1        2 0.10071249E+00 0.12909950E+04</pdfrwt>
<pdfrwt beam="2">  1       -2 0.51759318E+00 0.12909950E+04</pdfrwt>
<totfact> 0.55603816E-02</totfact>
</mgrwt>
</event>
<event>
 4    1  0.5410820E-008  0.2797524E+03  0.7818608E-02  0.1095824E+00
         -2   -1    0    0    0  501 -0.00000000000E+00  0.00000000000E+00  0.20643408646E+03  0.20643408648E+03  0.25500000000E-02 0.  1.
          2   -1    0    0  501    0  0.00000000000E+00 -0.00000000000E+00 -0.16567308471E+04  0.16567308471E+04  0.25500000000E-02 0. -1.
    8880022    1    1    2    0    0  0.86705208879E+02  0.21760508537E+03 -0.15432291102E+04  0.15683805361E+04  0.15294330000E+03 0.  0.
    8880022    1    1    2    0    0 -0.86705208879E+02 -0.21760508537E+03  0.92932349511E+02  0.29478439753E+03  0.15294330000E+03 0.  1.
<mgrwt>
<rscale>  0 0.27975243E+03</rscale>
<asrwt>0</asrwt>
<pdfrwt beam="1">  1        2 0.25488166E+00 0.27975243E+03</pdfrwt>
<pdfrwt beam="2">  1       -2 0.31759091E-01 0.27975243E+03</pdfrwt>
<totfact> 0.10461587E+02</totfact>
</mgrwt>
</event>
<event>
 4    1  0.5410820E-008  0.3282004E+03  0.7818608E-02  0.1071936E+00
         -2   -1    0    0    0  501 -0.00000000000E+00  0.00000000000E+00  0.20701600296E+03  0.20701600297E+03  0.25500000000E-02 0.  1.
          2   -1    0    0  501    0  0.00000000000E+00 -0.00000000000E+00 -0.12653285896E+04  0.12653285896E+04  0.25500000000E-02 0. -1.
    8880022    1    1    2    0    0  0.10636559305E+03  0.27020398932E+03 -0.10940375336E+04  0.11422055915E+04  0.15294330000E+03 0. -1.
    8880022    1    1    2    0    0 -0.10636559305E+03 -0.27020398932E+03  0.35724946926E+02  0.33013900115E+03  0.15294330000E+03 0.  0.
<mgrwt>
<rscale>  0 0.32820038E+03</rscale>
<asrwt>0</asrwt>
<pdfrwt beam="1">  1        2 0.19466593E+00 0.32820038E+03</pdfrwt>
<pdfrwt beam="2">  1       -2 0.31848617E-01 0.32820038E+03</pdfrwt>
<totfact> 0.16814282E+02</totfact>
</mgrwt>
</event>
<event>
 4    1  0.5410820E-008  0.4153640E+03  0.7818608E-02  0.1038586E+00
         -2   -1    0    0    0  501 -0.00000000000E+00  0.00000000000E+00  0.49375249314E+03  0.49375249315E+03  0.25500000000E-02 0.  1.
          2   -1    0    0  501    0  0.00000000000E+00 -0.00000000000E+00 -0.51974492577E+03  0.51974492577E+03  0.25500000000E-02 0. -1.
    8880022    1    1    2    0    0  0.18504728869E+03  0.33895887925E+03  0.27709588865E+03  0.49930892782E+03  0.15294330000E+03 0.  0.
    8880022    1    1    2    0    0 -0.18504728869E+03 -0.33895887925E+03 -0.30308832128E+03  0.51418849111E+03  0.15294330000E+03 0.  0.
<mgrwt>
<rscale>  0 0.41536403E+03</rscale>
<asrwt>0</asrwt>
<pdfrwt beam="1">  1        2 0.79960757E-01 0.41536403E+03</pdfrwt>
<pdfrwt beam="2">  1       -2 0.75961922E-01 0.41536403E+03</pdfrwt>
<totfact> 0.94632430E+01</totfact>
</mgrwt>
</event>
<event>
 4    1  0.5410820E-008  0.3700700E+03  0.7818608E-02  0.1054666E+00
         -2   -1    0    0    0  501 -0.00000000000E+00  0.00000000000E+00  0.69138801349E+02  0.69138801396E+02  0.25500000000E-02 0.  1.
          2   -1    0    0  501    0  0.00000000000E+00 -0.00000000000E+00 -0.32076290292E+04  0.32076290292E+04  0.25500000000E-02 0. -1.
    8880022    1    1    2    0    0 -0.32540978265E+03 -0.87570494618E+02 -0.55600716242E+03  0.66790398700E+03  0.15294330000E+03 0.  0.
    8880022    1    1    2    0    0  0.32540978265E+03  0.87570494618E+02 -0.25824830654E+04  0.26088638436E+04  0.15294330000E+03 0.  0.
<mgrwt>
<rscale>  0 0.37006995E+03</rscale>
<asrwt>0</asrwt>
<pdfrwt beam="1">  1        2 0.49348127E+00 0.37006995E+03</pdfrwt>
<pdfrwt beam="2">  1       -2 0.10636741E-01 0.37006995E+03</pdfrwt>
<totfact> 0.90998295E+01</totfact>
</mgrwt>
</event>
<event>
 4    1  0.5410820E-008  0.3831199E+03  0.7818608E-02  0.1049787E+00
          2   -1    0    0  501    0  0.00000000000E+00  0.00000000000E+00  0.34161952315E+03  0.34161952316E+03  0.25500000000E-02 0. -1.
         -2   -1    0    0    0  501 -0.00000000000E+00 -0.00000000000E+00 -0.61058915882E+03  0.61058915882E+03  0.25500000000E-02 0.  1.
    8880022    1    1    2    0    0 -0.33535267585E+03 -0.10453607141E+03  0.12468218974E+03  0.40289764069E+03  0.15294330000E+03 0.  0.
    8880022    1    1    2    0    0  0.33535267585E+03  0.10453607141E+03 -0.39365182541E+03  0.54931104129E+03  0.15294330000E+03 0.  0.
<mgrwt>
<rscale>  0 0.38311990E+03</rscale>
<asrwt>0</asrwt>
<pdfrwt beam="1">  1        2 0.52556850E-01 0.38311990E+03</pdfrwt>
<pdfrwt beam="2">  1       -2 0.93936793E-01 0.38311990E+03</pdfrwt>
<totfact> 0.93927941E+01</totfact>
</mgrwt>
</event>
<event>
 4    1  0.5410820E-008  0.1273346E+04  0.7818608E-02  0.9050973E-01
          2   -1    0    0  501    0  0.00000000000E+00  0.00000000000E+00  0.17068903113E+04  0.17068903113E+04  0.25500000000E-02 0. -1.
         -2   -1    0    0    0  501 -0.00000000000E+00 -0.00000000000E+00 -0.13692737203E+04  0.13692737203E+04  0.25500000000E-02 0.  1.
    8880022    1    1    2    0    0 -0.11742603528E+03 -0.12586614750E+04 -0.68237797615E+03  0.14446622227E+04  0.15294330000E+03 0.  0.
    8880022    1    1    2    0    0  0.11742603528E+03  0.12586614750E+04  0.10199945672E+04  0.16315018089E+04  0.15294330000E+03 0.  0.
<mgrwt>
<rscale>  0 0.12733457E+04</rscale>
<asrwt>0</asrwt>
<pdfrwt beam="1">  1        2 0.26259851E+00 0.12733457E+04</pdfrwt>
<pdfrwt beam="2">  1       -2 0.21065750E+00 0.12733457E+04</pdfrwt>
<totfact> 0.10604867E+00</totfact>
</mgrwt>
</event>
<event>
 4    1  0.5410820E-008  0.4173299E+03  0.7818608E-02  0.1037939E+00
          2   -1    0    0  501    0  0.00000000000E+00  0.00000000000E+00  0.85040682569E+03  0.85040682569E+03  0.25500000000E-02 0. -1.
         -2   -1    0    0    0  501 -0.00000000000E+00 -0.00000000000E+00 -0.37151519721E+03  0.37151519722E+03  0.25500000000E-02 0.  1.
    8880022    1    1    2    0    0  0.38437231451E+03  0.55050278513E+02  0.64871717310E+03  0.77136128566E+03  0.15294330000E+03 0.  0.
    8880022    1    1    2    0    0 -0.38437231451E+03 -0.55050278513E+02 -0.16982554463E+03  0.45056073725E+03  0.15294330000E+03 0.  0.
<mgrwt>
<rscale>  0 0.41732992E+03</rscale>
<asrwt>0</asrwt>
<pdfrwt beam="1">  1        2 0.13083182E+00 0.41732992E+03</pdfrwt>
<pdfrwt beam="2">  1       -2 0.57156184E-01 0.41732992E+03</pdfrwt>
<totfact> 0.94987907E+01</totfact>
</mgrwt>
</event>
<event>
 4    1  0.5410820E-008  0.2975690E+03  0.7818608E-02  0.1086462E+00
         -2   -1    0    0    0  501 -0.00000000000E+00  0.00000000000E+00  0.80264882190E+03  0.80264882191E+03  0.25500000000E-02 0.  1.
          2   -1    0    0  501    0  0.00000000000E+00 -0.00000000000E+00 -0.12184183420E+03  0.12184183422E+03  0.25500000000E-02 0. -1.
    8880022    1    1    2    0    0  0.23367715253E+03 -0.10271625848E+03  0.19825023710E+03  0.35756181409E+03  0.15294330000E+03 0.  0.
    8880022    1    1    2    0    0 -0.23367715253E+03  0.10271625848E+03  0.48255675060E+03  0.56692884204E+03  0.15294330000E+03 0.  0.
<mgrwt>
<rscale>  0 0.29756897E+03</rscale>
<asrwt>0</asrwt>
<pdfrwt beam="1">  1        2 0.18744897E-01 0.29756897E+03</pdfrwt>
<pdfrwt beam="2">  1       -2 0.12348444E+00 0.29756897E+03</pdfrwt>
<totfact> 0.15544380E+02</totfact>
</mgrwt>
</event>
<event>
 4    1  0.5410820E-008  0.6316748E+03  0.7818608E-02  0.9841786E-01
         -2   -1    0    0    0  501 -0.00000000000E+00  0.00000000000E+00  0.11313175279E+04  0.11313175279E+04  0.25500000000E-02 0.  1.
          2   -1    0    0  501    0  0.00000000000E+00 -0.00000000000E+00 -0.12467556085E+04  0.12467556085E+04  0.25500000000E-02 0. -1.
    8880022    1    1    2    0    0 -0.39259721638E+03  0.47062603687E+03 -0.10646214258E+04  0.12379143243E+04  0.15294330000E+03 0. -1.
    8880022    1    1    2    0    0  0.39259721638E+03 -0.47062603687E+03  0.94918334524E+03  0.11401588121E+04  0.15294330000E+03 0.  0.
<mgrwt>
<rscale>  0 0.63167483E+03</rscale>
<asrwt>0</asrwt>
<pdfrwt beam="1">  1        2 0.19180856E+00 0.63167483E+03</pdfrwt>
<pdfrwt beam="2">  1       -2 0.17404885E+00 0.63167483E+03</pdfrwt>
<totfact> 0.37029744E+00</totfact>
</mgrwt>
</event>
<event>
 4    1  0.5410820E-008  0.6423776E+03  0.7818608E-02  0.9821188E-01
          2   -1    0    0  501    0  0.00000000000E+00  0.00000000000E+00  0.21933700577E+04  0.21933700577E+04  0.25500000000E-02 0. -1.
         -2   -1    0    0    0  501 -0.00000000000E+00 -0.00000000000E+00 -0.24611429220E+03  0.24611429221E+03  0.25500000000E-02 0.  1.
    8880022    1    1    2    0    0 -0.50681431326E+03  0.36386347799E+03  0.15656489722E+04  0.16923078136E+04  0.15294330000E+03 0.  0.
    8880022    1    1    2    0    0  0.50681431326E+03 -0.36386347799E+03  0.38160679330E+03  0.74717653633E+03  0.15294330000E+03 0.  0.
<mgrwt>
<rscale>  0 0.64237764E+03</rscale>
<asrwt>0</asrwt>
<pdfrwt beam="1">  1        2 0.33744153E+00 0.64237764E+03</pdfrwt>
<pdfrwt beam="2">  1       -2 0.37863739E-01 0.64237764E+03</pdfrwt>
<totfact> 0.36058870E+01</totfact>
</mgrwt>
</event>
<event>
 4    1  0.5410820E-008  0.5390938E+03  0.7818608E-02  0.1004050E+00
         -2   -1    0    0    0  501 -0.00000000000E+00  0.00000000000E+00  0.14513015614E+03  0.14513015616E+03  0.25500000000E-02 0.  1.
          2   -1    0    0  501    0  0.00000000000E+00 -0.00000000000E+00 -0.20661816530E+04  0.20661816530E+04  0.25500000000E-02 0. -1.
    8880022    1    1    2    0    0 -0.33813901570E+03 -0.39101470052E+03 -0.76640754061E+03  0.93701796209E+03  0.15294330000E+03 0.  0.
    8880022    1    1    2    0    0  0.33813901570E+03  0.39101470052E+03 -0.11546439563E+04  0.12742938471E+04  0.15294330000E+03 0.  0.
<mgrwt>
<rscale>  0 0.53909382E+03</rscale>
<asrwt>0</asrwt>
<pdfrwt beam="1">  1        2 0.31787408E+00 0.53909382E+03</pdfrwt>
<pdfrwt beam="2">  1       -2 0.22327718E-01 0.53909382E+03</pdfrwt>
<totfact> 0.11362521E+02</totfact>
</mgrwt>
</event>
<event>
 4    1  0.5410820E-008  0.5593947E+03  0.7818608E-02  0.9993425E-01
         -2   -1    0    0    0  501 -0.00000000000E+00  0.00000000000E+00  0.23330582615E+03  0.23330582616E+03  0.25500000000E-02 0.  1.
          2   -1    0    0  501    0  0.00000000000E+00 -0.00000000000E+00 -0.15338369004E+04  0.15338369004E+04  0.25500000000E-02 0. -1.
    8880022    1    1    2    0    0 -0.49886130069E+03 -0.20166364078E+03 -0.33718187102E+03  0.65315701672E+03  0.15294330000E+03 0.  0.
    8880022    1    1    2    0    0  0.49886130069E+03  0.20166364078E+03 -0.96334920319E+03  0.11139857098E+04  0.15294330000E+03 0.  0.
<mgrwt>
<rscale>  0 0.55939474E+03</rscale>
<asrwt>0</asrwt>
<pdfrwt beam="1">  1        2 0.23597490E+00 0.55939474E+03</pdfrwt>
<pdfrwt beam="2">  1       -2 0.35893205E-01 0.55939474E+03</pdfrwt>
<totfact> 0.92250865E+01</totfact>
</mgrwt>
</event>
<event>
 4    1  0.5410820E-008  0.5452873E+03  0.7818608E-02  0.1002591E+00
          2   -1    0    0  501    0  0.00000000000E+00  0.00000000000E+00  0.11278076619E+04  0.11278076619E+04  0.25500000000E-02 0. -1.
         -2   -1    0    0    0  501 -0.00000000000E+00 -0.00000000000E+00 -0.49041619377E+03  0.49041619378E+03  0.25500000000E-02 0.  1.
    8880022    1    1    2    0    0  0.73005772764E+02  0.51828247955E+03 -0.23150653302E+03  0.59239640387E+03  0.15294330000E+03 0.  1.
    8880022    1    1    2    0    0 -0.73005772764E+02 -0.51828247955E+03  0.86889800114E+03  0.10258274518E+04  0.15294330000E+03 0. -1.
<mgrwt>
<rscale>  0 0.54528729E+03</rscale>
<asrwt>0</asrwt>
<pdfrwt beam="1">  1        2 0.17350887E+00 0.54528729E+03</pdfrwt>
<pdfrwt beam="2">  1       -2 0.75448646E-01 0.54528729E+03</pdfrwt>
<totfact> 0.34392750E+01</totfact>
</mgrwt>
</event>
<event>
 4    1  0.5410820E-008  0.4786758E+03  0.7818608E-02  0.1019500E+00
          2   -1    0    0  501    0  0.00000000000E+00  0.00000000000E+00  0.37793422127E+04  0.37793422127E+04  0.25500000000E-02 0. -1.
         -2   -1    0    0    0  501 -0.00000000000E+00 -0.00000000000E+00 -0.13515383524E+03  0.13515383527E+03  0.25500000000E-02 0.  1.
    8880022    1    1    2    0    0 -0.92213744394E+02  0.44411201840E+03  0.36868547431E+03  0.60420153221E+03  0.15294330000E+03 0.  0.
    8880022    1    1    2    0    0  0.92213744394E+02 -0.44411201840E+03  0.32755029031E+04  0.33102945157E+04  0.15294330000E+03 0.  0.
<mgrwt>
<rscale>  0 0.47867579E+03</rscale>
<asrwt>0</asrwt>
<pdfrwt beam="1">  1        2 0.58143725E+00 0.47867579E+03</pdfrwt>
<pdfrwt beam="2">  1       -2 0.20792898E-01 0.47867579E+03</pdfrwt>
<totfact> 0.11830895E+01</totfact>
</mgrwt>
</event>
<event>
 4    1  0.5410820E-008  0.3438304E+03  0.7818608E-02  0.1065176E+00
          2   -1    0    0  501    0  0.00000000000E+00  0.00000000000E+00  0.14410990685E+04  0.14410990685E+04  0.25500000000E-02 0. -1.
         -2   -1    0    0    0  501 -0.00000000000E+00 -0.00000000000E+00 -0.48623147481E+03  0.48623147482E+03  0.25500000000E-02 0.  1.
    8880022    1    1    2    0    0  0.26156373891E+03  0.16251809210E+03 -0.40118679671E+03  0.52836561077E+03  0.15294330000E+03 0.  0.
    8880022    1    1    2    0    0 -0.26156373891E+03 -0.16251809210E+03  0.13560543904E+04  0.13989649326E+04  0.15294330000E+03 0.  0.
<mgrwt>
<rscale>  0 0.34383044E+03</rscale>
<asrwt>0</asrwt>
<pdfrwt beam="1">  1        2 0.22170755E+00 0.34383044E+03</pdfrwt>
<pdfrwt beam="2">  1       -2 0.74804842E-01 0.34383044E+03</pdfrwt>
<totfact> 0.24145900E+01</totfact>
</mgrwt>
</event>
<event>
 4    1  0.5410820E-008  0.5866263E+03  0.7818608E-02  0.9933547E-01
         -2   -1    0    0    0  501 -0.00000000000E+00  0.00000000000E+00  0.51430039244E+03  0.51430039245E+03  0.25500000000E-02 0.  1.
          2   -1    0    0  501    0  0.00000000000E+00 -0.00000000000E+00 -0.74320718671E+03  0.74320718671E+03  0.25500000000E-02 0. -1.
    8880022    1    1    2    0    0 -0.93535143154E+02 -0.55856062431E+03 -0.31296556799E+03  0.66488938463E+03  0.15294330000E+03 0.  0.
    8880022    1    1    2    0    0  0.93535143154E+02  0.55856062431E+03  0.84058773724E+02  0.59261819453E+03  0.15294330000E+03 0.  0.
<mgrwt>
<rscale>  0 0.58662633E+03</rscale>
<asrwt>0</asrwt>
<pdfrwt beam="1">  1        2 0.11433957E+00 0.58662633E+03</pdfrwt>
<pdfrwt beam="2">  1       -2 0.79123138E-01 0.58662633E+03</pdfrwt>
<totfact> 0.55231652E+01</totfact>
</mgrwt>
</event>
<event>
 4    1  0.5410820E-008  0.9630266E+03  0.7818608E-02  0.9350053E-01
         -2   -1    0    0    0  501 -0.00000000000E+00  0.00000000000E+00  0.22843791803E+04  0.22843791803E+04  0.25500000000E-02 0.  1.
          2   -1    0    0  501    0  0.00000000000E+00 -0.00000000000E+00 -0.84863288382E+03  0.84863288382E+03  0.25500000000E-02 0. -1.
    8880022    1    1    2    0    0 -0.94917234829E+03  0.55680678517E+02  0.18492364844E+04  0.20849689957E+04  0.15294330000E+03 0.  0.
    8880022    1    1    2    0    0  0.94917234829E+03 -0.55680678517E+02 -0.41349018794E+03  0.10480430684E+04  0.15294330000E+03 0.  0.
<mgrwt>
<rscale>  0 0.96302655E+03</rscale>
<asrwt>0</asrwt>
<pdfrwt beam="1">  1        2 0.13055891E+00 0.96302655E+03</pdfrwt>
<pdfrwt beam="2">  1       -2 0.35144294E+00 0.96302655E+03</pdfrwt>
<totfact> 0.49326780E-01</totfact>
</mgrwt>
</event>
<event>
 4    1  0.5410820E-008  0.6670915E+03  0.7818608E-02  0.9775226E-01
         -2   -1    0    0    0  501 -0.00000000000E+00  0.00000000000E+00  0.12225979636E+04  0.12225979636E+04  0.25500000000E-02 0.  1.
          2   -1    0    0  501    0  0.00000000000E+00 -0.00000000000E+00 -0.11197466444E+04  0.11197466444E+04  0.25500000000E-02 0. -1.
    8880022    1    1    2    0    0 -0.61909702995E+03 -0.19580169100E+03 -0.91074574774E+03  0.11289237816E+04  0.15294330000E+03 0.  0.
    8880022    1    1    2    0    0  0.61909702995E+03  0.19580169100E+03  0.10135970670E+04  0.12134208264E+04  0.15294330000E+03 0.  0.
<mgrwt>
<rscale>  0 0.66709151E+03</rscale>
<asrwt>0</asrwt>
<pdfrwt beam="1">  1        2 0.17226871E+00 0.66709151E+03</pdfrwt>
<pdfrwt beam="2">  1       -2 0.18809200E+00 0.66709151E+03</pdfrwt>
<totfact> 0.35098684E+00</totfact>
</mgrwt>
</event>
<event>
 4    1  0.5410820E-008  0.4145371E+03  0.7818608E-02  0.1038859E+00
          2   -1    0    0  501    0  0.00000000000E+00  0.00000000000E+00  0.88159242347E+03  0.88159242348E+03  0.25500000000E-02 0. -1.
         -2   -1    0    0    0  501 -0.00000000000E+00 -0.00000000000E+00 -0.31597519736E+03  0.31597519737E+03  0.25500000000E-02 0.  1.
    8880022    1    1    2    0    0 -0.38154096214E+03  0.53626786134E+02 -0.87815137467E+02  0.42373634416E+03  0.15294330000E+03 0.  0.
    8880022    1    1    2    0    0  0.38154096214E+03 -0.53626786134E+02  0.65343236358E+03  0.77383127668E+03  0.15294330000E+03 0.  0.
<mgrwt>
<rscale>  0 0.41453708E+03</rscale>
<asrwt>0</asrwt>
<pdfrwt beam="1">  1        2 0.13562960E+00 0.41453708E+03</pdfrwt>
<pdfrwt beam="2">  1       -2 0.48611570E-01 0.41453708E+03</pdfrwt>
<totfact> 0.12594892E+02</totfact>
</mgrwt>
</event>
<event>
 4    1  0.5410820E-008  0.1148912E+04  0.7818608E-02  0.9158788E-01
          2   -1    0    0  501    0  0.00000000000E+00  0.00000000000E+00  0.21110733406E+04  0.21110733406E+04  0.25500000000E-02 0. -1.
         -2   -1    0    0    0  501 -0.00000000000E+00 -0.00000000000E+00 -0.12878573618E+04  0.12878573618E+04  0.25500000000E-02 0.  1.
    8880022    1    1    2    0    0 -0.77827899674E+02  0.11360240447E+04  0.16305938417E+04  0.19947019180E+04  0.15294330000E+03 0.  0.
    8880022    1    1    2    0    0  0.77827899674E+02 -0.11360240447E+04 -0.80737786292E+03  0.14042287843E+04  0.15294330000E+03 0.  0.
<mgrwt>
<rscale>  0 0.11489123E+04</rscale>
<asrwt>0</asrwt>
<pdfrwt beam="1">  1        2 0.32478051E+00 0.11489123E+04</pdfrwt>
<pdfrwt beam="2">  1       -2 0.19813191E+00 0.11489123E+04</pdfrwt>
<totfact> 0.77568303E-01</totfact>
</mgrwt>
</event>
<event>
 4    1  0.5410820E-008  0.4330437E+03  0.7818608E-02  0.1032903E+00
          2   -1    0    0  501    0  0.00000000000E+00  0.00000000000E+00  0.47343019345E+03  0.47343019346E+03  0.25500000000E-02 0. -1.
         -2   -1    0    0    0  501 -0.00000000000E+00 -0.00000000000E+00 -0.12882201241E+04  0.12882201241E+04  0.25500000000E-02 0.  1.
    8880022    1    1    2    0    0 -0.40189548987E+03  0.51138859741E+02 -0.11403979834E+04  0.12198501471E+04  0.15294330000E+03 0.  0.
    8880022    1    1    2    0    0  0.40189548987E+03 -0.51138859741E+02  0.32560805273E+03  0.54180017051E+03  0.15294330000E+03 0.  0.
<mgrwt>
<rscale>  0 0.43304367E+03</rscale>
<asrwt>0</asrwt>
<pdfrwt beam="1">  1        2 0.72835415E-01 0.43304367E+03</pdfrwt>
<pdfrwt beam="2">  1       -2 0.19818771E+00 0.43304367E+03</pdfrwt>
<totfact> 0.95527005E+00</totfact>
</mgrwt>
</event>
<event>
 4    1  0.5410820E-008  0.6685008E+03  0.7818608E-02  0.9772670E-01
          2   -1    0    0  501    0  0.00000000000E+00  0.00000000000E+00  0.14413028454E+04  0.14413028454E+04  0.25500000000E-02 0. -1.
         -2   -1    0    0    0  501 -0.00000000000E+00 -0.00000000000E+00 -0.47892233536E+03  0.47892233536E+03  0.25500000000E-02 0.  1.
    8880022    1    1    2    0    0 -0.26568642987E+03  0.59406426716E+03  0.10512933578E+04  0.12458374733E+04  0.15294330000E+03 0.  0.
    8880022    1    1    2    0    0  0.26568642987E+03 -0.59406426716E+03 -0.88912847785E+02  0.67438770751E+03  0.15294330000E+03 0.  0.
<mgrwt>
<rscale>  0 0.66850077E+03</rscale>
<asrwt>0</asrwt>
<pdfrwt beam="1">  1        2 0.22173890E+00 0.66850077E+03</pdfrwt>
<pdfrwt beam="2">  1       -2 0.73680359E-01 0.66850077E+03</pdfrwt>
<totfact> 0.23517858E+01</totfact>
</mgrwt>
</event>
<event>
 4    1  0.5410820E-008  0.4368151E+03  0.7818608E-02  0.1031729E+00
          2   -1    0    0  501    0  0.00000000000E+00  0.00000000000E+00  0.11029905277E+04  0.11029905277E+04  0.25500000000E-02 0. -1.
         -2   -1    0    0    0  501 -0.00000000000E+00 -0.00000000000E+00 -0.12773108680E+04  0.12773108680E+04  0.25500000000E-02 0.  1.
    8880022    1    1    2    0    0 -0.27854316792E+03  0.29971561163E+03 -0.11937867605E+04  0.12711940162E+04  0.15294330000E+03 0.  1.
    8880022    1    1    2    0    0  0.27854316792E+03 -0.29971561163E+03  0.10194664202E+04  0.11091073795E+04  0.15294330000E+03 0.  0.
<mgrwt>
<rscale>  0 0.43681506E+03</rscale>
<asrwt>0</asrwt>
<pdfrwt beam="1">  1        2 0.16969085E+00 0.43681506E+03</pdfrwt>
<pdfrwt beam="2">  1       -2 0.19650936E+00 0.43681506E+03</pdfrwt>
<totfact> 0.33207156E+00</totfact>
</mgrwt>
</event>
<event>
 4    1  0.5410820E-008  0.7393636E+03  0.7818608E-02  0.9652187E-01
          2   -1    0    0  501    0  0.00000000000E+00  0.00000000000E+00  0.86186585182E+03  0.86186585183E+03  0.25500000000E-02 0. -1.
         -2   -1    0    0    0  501 -0.00000000000E+00 -0.00000000000E+00 -0.14381261361E+04  0.14381261361E+04  0.25500000000E-02 0.  1.
    8880022    1    1    2    0    0  0.15865012757E+03 -0.70575983484E+03 -0.11479077376E+04  0.13654122581E+04  0.15294330000E+03 0.  0.
    8880022    1    1    2    0    0 -0.15865012757E+03  0.70575983484E+03  0.57164745336E+03  0.93457972982E+03  0.15294330000E+03 0.  0.
<mgrwt>
<rscale>  0 0.73936355E+03</rscale>
<asrwt>0</asrwt>
<pdfrwt beam="1">  1        2 0.13259475E+00 0.73936355E+03</pdfrwt>
<pdfrwt beam="2">  1       -2 0.22125017E+00 0.73936355E+03</pdfrwt>
<totfact> 0.31065302E+00</totfact>
</mgrwt>
</event>
<event>
 4    1  0.5410820E-008  0.7267984E+03  0.7818608E-02  0.9672470E-01
          2   -1    0    0  501    0  0.00000000000E+00  0.00000000000E+00  0.17316642787E+04  0.17316642787E+04  0.25500000000E-02 0. -1.
         -2   -1    0    0    0  501 -0.00000000000E+00 -0.00000000000E+00 -0.40536120274E+03  0.40536120275E+03  0.25500000000E-02 0.  1.
    8880022    1    1    2    0    0  0.15387328019E+03 -0.69366222539E+03  0.11947009802E+04  0.13984085077E+04  0.15294330000E+03 0.  0.
    8880022    1    1    2    0    0 -0.15387328019E+03  0.69366222539E+03  0.13160209576E+03  0.73861697375E+03  0.15294330000E+03 0.  1.
<mgrwt>
<rscale>  0 0.72679841E+03</rscale>
<asrwt>0</asrwt>
<pdfrwt beam="1">  1        2 0.26640989E+00 0.72679841E+03</pdfrwt>
<pdfrwt beam="2">  1       -2 0.62363262E-01 0.72679841E+03</pdfrwt>
<totfact> 0.23166366E+01</totfact>
</mgrwt>
</event>
<event>
 4    1  0.5410820E-008  0.4830805E+03  0.7818608E-02  0.1018292E+00
         -2   -1    0    0    0  501 -0.00000000000E+00  0.00000000000E+00  0.13020343875E+04  0.13020343875E+04  0.25500000000E-02 0.  1.
          2   -1    0    0  501    0  0.00000000000E+00 -0.00000000000E+00 -0.30570244328E+03  0.30570244329E+03  0.25500000000E-02 0. -1.
    8880022    1    1    2    0    0  0.45336167073E+03 -0.66620869442E+02  0.10152120863E+04  0.11242874979E+04  0.15294330000E+03 0.  1.
    8880022    1    1    2    0    0 -0.45336167073E+03  0.66620869442E+02 -0.18880142061E+02  0.48344933293E+03  0.15294330000E+03 0.  0.
<mgrwt>
<rscale>  0 0.48308053E+03</rscale>
<asrwt>0</asrwt>
<pdfrwt beam="1">  1        2 0.47031143E-01 0.48308053E+03</pdfrwt>
<pdfrwt beam="2">  1       -2 0.20031299E+00 0.48308053E+03</pdfrwt>
<totfact> 0.14922443E+01</totfact>
</mgrwt>
</event>
<event>
 4    1  0.5410820E-008  0.3427618E+03  0.7818608E-02  0.1065626E+00
         -2   -1    0    0    0  501 -0.00000000000E+00  0.00000000000E+00  0.27121460954E+03  0.27121460955E+03  0.25500000000E-02 0.  1.
          2   -1    0    0  501    0  0.00000000000E+00 -0.00000000000E+00 -0.14641903895E+04  0.14641903895E+04  0.25500000000E-02 0. -1.
    8880022    1    1    2    0    0  0.26915054757E+03 -0.14714618529E+03 -0.13246077461E+04  0.13682365845E+04  0.15294330000E+03 0.  0.
    8880022    1    1    2    0    0 -0.26915054757E+03  0.14714618529E+03  0.13163196616E+03  0.36716841454E+03  0.15294330000E+03 0.  0.
<mgrwt>
<rscale>  0 0.34276183E+03</rscale>
<asrwt>0</asrwt>
<pdfrwt beam="1">  1        2 0.22526006E+00 0.34276183E+03</pdfrwt>
<pdfrwt beam="2">  1       -2 0.41725325E-01 0.34276183E+03</pdfrwt>
<totfact> 0.78064768E+01</totfact>
</mgrwt>
</event>
<event>
 4    1  0.5410820E-008  0.3924823E+03  0.7818608E-02  0.1046414E+00
          2   -1    0    0  501    0  0.00000000000E+00  0.00000000000E+00  0.20406073367E+04  0.20406073367E+04  0.25500000000E-02 0. -1.
         -2   -1    0    0    0  501 -0.00000000000E+00 -0.00000000000E+00 -0.48637344749E+03  0.48637344749E+03  0.25500000000E-02 0.  1.
    8880022    1    1    2    0    0  0.35976581646E+03  0.34918068243E+02  0.19384241906E+04  0.19777590121E+04  0.15294330000E+03 0.  0.
    8880022    1    1    2    0    0 -0.35976581646E+03 -0.34918068243E+02 -0.38419030143E+03  0.54922177206E+03  0.15294330000E+03 0.  1.
<mgrwt>
<rscale>  0 0.39248231E+03</rscale>
<asrwt>0</asrwt>
<pdfrwt beam="1">  1        2 0.31393959E+00 0.39248231E+03</pdfrwt>
<pdfrwt beam="2">  1       -2 0.74826684E-01 0.39248231E+03</pdfrwt>
<totfact> 0.11369657E+01</totfact>
</mgrwt>
</event>
<event>
 4    1  0.5410820E-008  0.9175061E+03  0.7818608E-02  0.9403959E-01
         -2   -1    0    0    0  501 -0.00000000000E+00  0.00000000000E+00  0.54534263176E+03  0.54534263177E+03  0.25500000000E-02 0.  1.
          2   -1    0    0  501    0  0.00000000000E+00 -0.00000000000E+00 -0.16627544995E+04  0.16627544995E+04  0.25500000000E-02 0. -1.
    8880022    1    1    2    0    0  0.36589430125E+03  0.82737360782E+03 -0.85419457011E+03  0.12535811674E+04  0.15294330000E+03 0. -1.
    8880022    1    1    2    0    0 -0.36589430125E+03 -0.82737360782E+03 -0.26321729766E+03  0.95451596393E+03  0.15294330000E+03 0.  1.
<mgrwt>
<rscale>  0 0.91750607E+03</rscale>
<asrwt>0</asrwt>
<pdfrwt beam="1">  1        2 0.25580838E+00 0.91750607E+03</pdfrwt>
<pdfrwt beam="2">  1       -2 0.83898867E-01 0.91750607E+03</pdfrwt>
<totfact> 0.12854731E+01</totfact>
</mgrwt>
</event>
<event>
 4    1  0.5504974E-008  0.8003818E+03  0.7818608E-02  0.9559465E-01
         -2   -1    0    0    0  501 -0.00000000000E+00  0.00000000000E+00  0.60999028869E+03  0.60999028870E+03  0.25500000000E-02 0.  1.
          2   -1    0    0  501    0  0.00000000000E+00 -0.00000000000E+00 -0.23855136987E+04  0.23855136987E+04  0.25500000000E-02 0. -1.
    8880022    1    1    2    0    0 -0.26596700875E+03  0.73924351561E+03 -0.20083363560E+04  0.21619495824E+04  0.15294330000E+03 0.  0.
    8880022    1    1    2    0    0  0.26596700875E+03 -0.73924351561E+03  0.23281294603E+03  0.83355440493E+03  0.15294330000E+03 0.  0.
<mgrwt>
<rscale>  0 0.80038183E+03</rscale>
<asrwt>0</asrwt>
<pdfrwt beam="1">  1        2 0.36700210E+00 0.80038183E+03</pdfrwt>
<pdfrwt beam="2">  1       -2 0.93844661E-01 0.80038183E+03</pdfrwt>
<totfact> 0.40319970E+00</totfact>
</mgrwt>
</event>
<event>
 4    1  0.5410820E-008  0.5842524E+03  0.7818608E-02  0.9938627E-01
          2   -1    0    0  501    0  0.00000000000E+00  0.00000000000E+00  0.98693775462E+03  0.98693775462E+03  0.25500000000E-02 0. -1.
         -2   -1    0    0    0  501 -0.00000000000E+00 -0.00000000000E+00 -0.12753073801E+04  0.12753073801E+04  0.25500000000E-02 0.  1.
    8880022    1    1    2    0    0 -0.42243968827E+03  0.37350224729E+03  0.82144930851E+03  0.10080326574E+04  0.15294330000E+03 0.  0.
    8880022    1    1    2    0    0  0.42243968827E+03 -0.37350224729E+03 -0.11098189340E+04  0.12542124773E+04  0.15294330000E+03 0.  0.
<mgrwt>
<rscale>  0 0.58425240E+03</rscale>
<asrwt>0</asrwt>
<pdfrwt beam="1">  1        2 0.15183658E+00 0.58425240E+03</pdfrwt>
<pdfrwt beam="2">  1       -2 0.19620114E+00 0.58425240E+03</pdfrwt>
<totfact> 0.38062813E+00</totfact>
</mgrwt>
</event>
<event>
 4    1  0.5410820E-008  0.4499579E+03  0.7818608E-02  0.1027735E+00
         -2   -1    0    0    0  501 -0.00000000000E+00  0.00000000000E+00  0.26737973814E+03  0.26737973815E+03  0.25500000000E-02 0.  1.
          2   -1    0    0  501    0  0.00000000000E+00 -0.00000000000E+00 -0.16507738165E+04  0.16507738165E+04  0.25500000000E-02 0. -1.
    8880022    1    1    2    0    0  0.22811674278E+03 -0.35641713615E+03 -0.13973202580E+04  0.14679802382E+04  0.15294330000E+03 0.  0.
    8880022    1    1    2    0    0 -0.22811674278E+03  0.35641713615E+03  0.13926179734E+02  0.45017331638E+03  0.15294330000E+03 0.  0.
<mgrwt>
<rscale>  0 0.44995786E+03</rscale>
<asrwt>0</asrwt>
<pdfrwt beam="1">  1        2 0.25396520E+00 0.44995786E+03</pdfrwt>
<pdfrwt beam="2">  1       -2 0.41135345E-01 0.44995786E+03</pdfrwt>
<totfact> 0.62312064E+01</totfact>
</mgrwt>
</event>
<event>
 4    1  0.5410820E-008  0.2695179E+03  0.7818608E-02  0.1101556E+00
         -2   -1    0    0    0  501 -0.00000000000E+00  0.00000000000E+00  0.15396011196E+03  0.15396011198E+03  0.25500000000E-02 0.  1.
          2   -1    0    0  501    0  0.00000000000E+00 -0.00000000000E+00 -0.16994070987E+04  0.16994070987E+04  0.25500000000E-02 0. -1.
    8880022    1    1    2    0    0 -0.12355069043E+03  0.18434606947E+03 -0.15603325772E+04  0.15834385530E+04  0.15294330000E+03 0.  0.
    8880022    1    1    2    0    0  0.12355069043E+03 -0.18434606947E+03  0.14885590505E+02  0.26992865771E+03  0.15294330000E+03 0.  0.
<mgrwt>
<rscale>  0 0.26951790E+03</rscale>
<asrwt>0</asrwt>
<pdfrwt beam="1">  1        2 0.26144723E+00 0.26951790E+03</pdfrwt>
<pdfrwt beam="2">  1       -2 0.23686172E-01 0.26951790E+03</pdfrwt>
<totfact> 0.16873203E+02</totfact>
</mgrwt>
</event>
<event>
 4    1  0.5410820E-008  0.5926269E+03  0.7818608E-02  0.9920822E-01
          2   -1    0    0  501    0  0.00000000000E+00  0.00000000000E+00  0.70769107012E+03  0.70769107013E+03  0.25500000000E-02 0. -1.
         -2   -1    0    0    0  501 -0.00000000000E+00 -0.00000000000E+00 -0.73780085862E+03  0.73780085863E+03  0.25500000000E-02 0.  1.
    8880022    1    1    2    0    0 -0.13642971526E+02 -0.57238871441E+03  0.39846977516E+03  0.71413219069E+03  0.15294330000E+03 0.  0.
    8880022    1    1    2    0    0  0.13642971526E+02  0.57238871441E+03 -0.42857956366E+03  0.73135973806E+03  0.15294330000E+03 0.  0.
<mgrwt>
<rscale>  0 0.59262688E+03</rscale>
<asrwt>0</asrwt>
<pdfrwt beam="1">  1        2 0.10887555E+00 0.59262688E+03</pdfrwt>
<pdfrwt beam="2">  1       -2 0.11350782E+00 0.59262688E+03</pdfrwt>
<totfact> 0.25330458E+01</totfact>
</mgrwt>
</event>
<event>
 4    1  0.5410820E-008  0.4051027E+03  0.7818608E-02  0.1042027E+00
          2   -1    0    0  501    0  0.00000000000E+00  0.00000000000E+00  0.10648207243E+04  0.10648207243E+04  0.25500000000E-02 0. -1.
         -2   -1    0    0    0  501 -0.00000000000E+00 -0.00000000000E+00 -0.22339758318E+03  0.22339758319E+03  0.25500000000E-02 0.  1.
    8880022    1    1    2    0    0 -0.37500030199E+03 -0.95577367809E+01  0.77940408331E+03  0.87839567105E+03  0.15294330000E+03 0.  0.
    8880022    1    1    2    0    0  0.37500030199E+03  0.95577367809E+01  0.62019057853E+02  0.40982263649E+03  0.15294330000E+03 0.  0.
<mgrwt>
<rscale>  0 0.40510274E+03</rscale>
<asrwt>0</asrwt>
<pdfrwt beam="1">  1        2 0.16381857E+00 0.40510274E+03</pdfrwt>
<pdfrwt beam="2">  1       -2 0.34368859E-01 0.40510274E+03</pdfrwt>
<totfact> 0.18905760E+02</totfact>
</mgrwt>
</event>
<event>
 4    1  0.5410820E-008  0.6226790E+03  0.7818608E-02  0.9859440E-01
          2   -1    0    0  501    0  0.00000000000E+00  0.00000000000E+00  0.10273256620E+04  0.10273256620E+04  0.25500000000E-02 0. -1.
         -2   -1    0    0    0  501 -0.00000000000E+00 -0.00000000000E+00 -0.15611033372E+04  0.15611033372E+04  0.25500000000E-02 0.  1.
    8880022    1    1    2    0    0  0.52369829585E+03 -0.30012933444E+03  0.86007227374E+03  0.10618161289E+04  0.15294330000E+03 0.  0.
    8880022    1    1    2    0    0 -0.52369829585E+03  0.30012933444E+03 -0.13938499490E+04  0.15266128703E+04  0.15294330000E+03 0.  0.
<mgrwt>
<rscale>  0 0.62267903E+03</rscale>
<asrwt>0</asrwt>
<pdfrwt beam="1">  1        2 0.15805010E+00 0.62267903E+03</pdfrwt>
<pdfrwt beam="2">  1       -2 0.24016974E+00 0.62267903E+03</pdfrwt>
<totfact> 0.18895179E+00</totfact>
</mgrwt>
</event>
<event>
 4    1  0.5410820E-008  0.1108140E+04  0.7818608E-02  0.9197295E-01
         -2   -1    0    0    0  501 -0.00000000000E+00  0.00000000000E+00  0.26562395768E+04  0.26562395768E+04  0.25500000000E-02 0.  1.
          2   -1    0    0  501    0  0.00000000000E+00 -0.00000000000E+00 -0.57802590861E+03  0.57802590862E+03  0.25500000000E-02 0. -1.
    8880022    1    1    2    0    0 -0.37498458894E+03  0.10314883112E+04  0.17626955505E+04  0.20820828117E+04  0.15294330000E+03 0.  0.
    8880022    1    1    2    0    0  0.37498458894E+03 -0.10314883112E+04  0.31551811775E+03  0.11521826738E+04  0.15294330000E+03 0.  0.
<mgrwt>
<rscale>  0 0.11081395E+04</rscale>
<asrwt>0</asrwt>
<pdfrwt beam="1">  1        2 0.88927061E-01 0.11081395E+04</pdfrwt>
<pdfrwt beam="2">  1       -2 0.40865225E+00 0.11081395E+04</pdfrwt>
<totfact> 0.33938549E-01</totfact>
</mgrwt>
</event>
<event>
 4    1  0.5410820E-008  0.3491505E+03  0.7818608E-02  0.1062964E+00
          2   -1    0    0  501    0  0.00000000000E+00  0.00000000000E+00  0.64269054429E+03  0.64269054430E+03  0.25500000000E-02 0. -1.
         -2   -1    0    0    0  501 -0.00000000000E+00 -0.00000000000E+00 -0.72471502228E+03  0.72471502229E+03  0.25500000000E-02 0.  1.
    8880022    1    1    2    0    0 -0.27524486632E+03 -0.15084647612E+03  0.54644262193E+03  0.64846402203E+03  0.15294330000E+03 0.  0.
    8880022    1    1    2    0    0  0.27524486632E+03  0.15084647612E+03 -0.62846709992E+03  0.71894154455E+03  0.15294330000E+03 0. -1.
<mgrwt>
<rscale>  0 0.34915047E+03</rscale>
<asrwt>0</asrwt>
<pdfrwt beam="1">  1        2 0.98875468E-01 0.34915047E+03</pdfrwt>
<pdfrwt beam="2">  1       -2 0.11149462E+00 0.34915047E+03</pdfrwt>
<totfact> 0.30801130E+01</totfact>
</mgrwt>
</event>
<event>
 4    1  0.5410820E-008  0.3852030E+03  0.7818608E-02  0.1049027E+00
          2   -1    0    0  501    0  0.00000000000E+00  0.00000000000E+00  0.95001053250E+03  0.95001053251E+03  0.25500000000E-02 0. -1.
         -2   -1    0    0    0  501 -0.00000000000E+00 -0.00000000000E+00 -0.37529579396E+03  0.37529579397E+03  0.25500000000E-02 0.  1.
    8880022    1    1    2    0    0 -0.21591343103E+03  0.27994837022E+03  0.79367981969E+03  0.88221823200E+03  0.15294330000E+03 0.  0.
    8880022    1    1    2    0    0  0.21591343103E+03 -0.27994837022E+03 -0.21896508114E+03  0.44308809447E+03  0.15294330000E+03 0.  0.
<mgrwt>
<rscale>  0 0.38520300E+03</rscale>
<asrwt>0</asrwt>
<pdfrwt beam="1">  1        2 0.14615547E+00 0.38520300E+03</pdfrwt>
<pdfrwt beam="2">  1       -2 0.57737815E-01 0.38520300E+03</pdfrwt>
<totfact> 0.80315610E+01</totfact>
</mgrwt>
</event>
<event>
 4    1  0.5410820E-008  0.3180156E+03  0.7818608E-02  0.1076566E+00
         -2   -1    0    0    0  501 -0.00000000000E+00  0.00000000000E+00  0.29623103526E+03  0.29623103527E+03  0.25500000000E-02 0.  1.
          2   -1    0    0  501    0  0.00000000000E+00 -0.00000000000E+00 -0.54817143969E+03  0.54817143970E+03  0.25500000000E-02 0. -1.
    8880022    1    1    2    0    0  0.49294838989E+02  0.27443081501E+03 -0.38527128996E+03  0.49956768637E+03  0.15294330000E+03 0.  0.
    8880022    1    1    2    0    0 -0.49294838989E+02 -0.27443081501E+03  0.13333088553E+03  0.34483478860E+03  0.15294330000E+03 0.  0.
<mgrwt>
<rscale>  0 0.31801558E+03</rscale>
<asrwt>0</asrwt>
<pdfrwt beam="1">  1        2 0.84334067E-01 0.31801558E+03</pdfrwt>
<pdfrwt beam="2">  1       -2 0.45574006E-01 0.31801558E+03</pdfrwt>
<totfact> 0.26015527E+02</totfact>
</mgrwt>
</event>
<event>
 4    1  0.5410820E-008  0.2760159E+03  0.7818608E-02  0.1097885E+00
          2   -1    0    0  501    0  0.00000000000E+00  0.00000000000E+00  0.26445595072E+04  0.26445595072E+04  0.25500000000E-02 0. -1.
         -2   -1    0    0    0  501 -0.00000000000E+00 -0.00000000000E+00 -0.62429179175E+02  0.62429179227E+02  0.25500000000E-02 0.  1.
    8880022    1    1    2    0    0 -0.24666806515E+02  0.22843967150E+03  0.22843374718E+04  0.23009525143E+04  0.15294330000E+03 0.  0.
    8880022    1    1    2    0    0  0.24666806515E+02 -0.22843967150E+03  0.29779285621E+03  0.40603617214E+03  0.15294330000E+03 0.  0.
<mgrwt>
<rscale>  0 0.27601592E+03</rscale>
<asrwt>0</asrwt>
<pdfrwt beam="1">  1        2 0.40685526E+00 0.27601592E+03</pdfrwt>
<pdfrwt beam="2">  1       -2 0.96044902E-02 0.27601592E+03</pdfrwt>
<totfact> 0.23625347E+02</totfact>
</mgrwt>
</event>
<event>
 4    1  0.5410820E-008  0.3276567E+03  0.7818608E-02  0.1072178E+00
         -2   -1    0    0    0  501 -0.00000000000E+00  0.00000000000E+00  0.13466096690E+03  0.13466096692E+03  0.25500000000E-02 0.  1.
          2   -1    0    0  501    0  0.00000000000E+00 -0.00000000000E+00 -0.28328288083E+04  0.28328288083E+04  0.25500000000E-02 0. -1.
    8880022    1    1    2    0    0  0.66489444262E+01  0.28969471487E+03 -0.91338665844E+02  0.34014943948E+03  0.15294330000E+03 0.  0.
    8880022    1    1    2    0    0 -0.66489444262E+01 -0.28969471487E+03 -0.26068291756E+04  0.26273403358E+04  0.15294330000E+03 0.  0.
<mgrwt>
<rscale>  0 0.32765666E+03</rscale>
<asrwt>0</asrwt>
<pdfrwt beam="1">  1        2 0.43581977E+00 0.32765666E+03</pdfrwt>
<pdfrwt beam="2">  1       -2 0.20717074E-01 0.32765666E+03</pdfrwt>
<totfact> 0.50908592E+01</totfact>
</mgrwt>
</event>
<event>
 4    1  0.5410820E-008  0.3583610E+03  0.7818608E-02  0.1059235E+00
          2   -1    0    0  501    0  0.00000000000E+00  0.00000000000E+00  0.57382756295E+03  0.57382756295E+03  0.25500000000E-02 0. -1.
         -2   -1    0    0    0  501 -0.00000000000E+00 -0.00000000000E+00 -0.51804060504E+03  0.51804060505E+03  0.25500000000E-02 0.  1.
    8880022    1    1    2    0    0  0.25440590959E+03  0.20076991247E+03  0.43933645302E+03  0.56695599172E+03  0.15294330000E+03 0.  0.
    8880022    1    1    2    0    0 -0.25440590959E+03 -0.20076991247E+03 -0.38354949511E+03  0.52491217628E+03  0.15294330000E+03 0.  0.
<mgrwt>
<rscale>  0 0.35836096E+03</rscale>
<asrwt>0</asrwt>
<pdfrwt beam="1">  1        2 0.88281164E-01 0.35836096E+03</pdfrwt>
<pdfrwt beam="2">  1       -2 0.79698555E-01 0.35836096E+03</pdfrwt>
<totfact> 0.76353907E+01</totfact>
</mgrwt>
</event>
<event>
 4    1  0.5410820E-008  0.1614651E+03  0.7818608E-02  0.1187053E+00
         -2   -1    0    0    0  501 -0.00000000000E+00  0.00000000000E+00  0.17055267116E+03  0.17055267118E+03  0.25500000000E-02 0.  1.
          2   -1    0    0  501    0  0.00000000000E+00 -0.00000000000E+00 -0.97775830159E+03  0.97775830160E+03  0.25500000000E-02 0. -1.
    8880022    1    1    2    0    0  0.40934968954E+02  0.31680617269E+02  0.12376484891E+03  0.20344218843E+03  0.15294330000E+03 0.  0.
    8880022    1    1    2    0    0 -0.40934968954E+02 -0.31680617269E+02 -0.93097047935E+03  0.94486878434E+03  0.15294330000E+03 0. -1.
<mgrwt>
<rscale>  0 0.16146512E+03</rscale>
<asrwt>0</asrwt>
<pdfrwt beam="1">  1        2 0.15042435E+00 0.16146512E+03</pdfrwt>
<pdfrwt beam="2">  1       -2 0.26238873E-01 0.16146512E+03</pdfrwt>
<totfact> 0.36109377E+02</totfact>
</mgrwt>
</event>
<event>
 4    1  0.5410820E-008  0.5173479E+03  0.7818608E-02  0.1009347E+00
          2   -1    0    0  501    0  0.00000000000E+00  0.00000000000E+00  0.16207573447E+04  0.16207573447E+04  0.25500000000E-02 0. -1.
         -2   -1    0    0    0  501 -0.00000000000E+00 -0.00000000000E+00 -0.43444552565E+03  0.43444552566E+03  0.25500000000E-02 0.  1.
    8880022    1    1    2    0    0  0.11633112586E+03  0.48033764133E+03 -0.21590492768E+03  0.56059233970E+03  0.15294330000E+03 0.  0.
    8880022    1    1    2    0    0 -0.11633112586E+03 -0.48033764133E+03  0.14022167467E+04  0.14946105307E+04  0.15294330000E+03 0.  0.
<mgrwt>
<rscale>  0 0.51734788E+03</rscale>
<asrwt>0</asrwt>
<pdfrwt beam="1">  1        2 0.24934728E+00 0.51734788E+03</pdfrwt>
<pdfrwt beam="2">  1       -2 0.66837774E-01 0.51734788E+03</pdfrwt>
<totfact> 0.23706659E+01</totfact>
</mgrwt>
</event>
<event>
 4    1  0.5410820E-008  0.6192950E+03  0.7818608E-02  0.9866164E-01
         -2   -1    0    0    0  501 -0.00000000000E+00  0.00000000000E+00  0.51003797188E+03  0.51003797189E+03  0.25500000000E-02 0.  1.
          2   -1    0    0  501    0  0.00000000000E+00 -0.00000000000E+00 -0.10228051174E+04  0.10228051174E+04  0.25500000000E-02 0. -1.
    8880022    1    1    2    0    0  0.50848282081E+03  0.31871594130E+03 -0.65078157228E+03  0.89835568575E+03  0.15294330000E+03 0.  0.
    8880022    1    1    2    0    0 -0.50848282081E+03 -0.31871594130E+03  0.13801442672E+03  0.63448740357E+03  0.15294330000E+03 0.  0.
<mgrwt>
<rscale>  0 0.61929499E+03</rscale>
<asrwt>0</asrwt>
<pdfrwt beam="1">  1        2 0.15735463E+00 0.61929499E+03</pdfrwt>
<pdfrwt beam="2">  1       -2 0.78467380E-01 0.61929499E+03</pdfrwt>
<totfact> 0.36218564E+01</totfact>
</mgrwt>
</event>
<event>
 4    1  0.5410820E-008  0.4091446E+03  0.7818608E-02  0.1040658E+00
         -2   -1    0    0    0  501 -0.00000000000E+00  0.00000000000E+00  0.10739997263E+03  0.10739997266E+03  0.25500000000E-02 0.  1.
          2   -1    0    0  501    0  0.00000000000E+00 -0.00000000000E+00 -0.25352050495E+04  0.25352050495E+04  0.25500000000E-02 0. -1.
    8880022    1    1    2    0    0  0.37690537032E+03  0.44158329953E+02 -0.39384664393E+03  0.56790355539E+03  0.15294330000E+03 0.  1.
    8880022    1    1    2    0    0 -0.37690537032E+03 -0.44158329953E+02 -0.20339584330E+04  0.20747014668E+04  0.15294330000E+03 0.  0.
<mgrwt>
<rscale>  0 0.40914456E+03</rscale>
<asrwt>0</asrwt>
<pdfrwt beam="1">  1        2 0.39003150E+00 0.40914456E+03</pdfrwt>
<pdfrwt beam="2">  1       -2 0.16523075E-01 0.40914456E+03</pdfrwt>
<totfact> 0.10821803E+02</totfact>
</mgrwt>
</event>
<event>
 4    1  0.5410820E-008  0.5392522E+03  0.7818608E-02  0.1004013E+00
          2   -1    0    0  501    0  0.00000000000E+00  0.00000000000E+00  0.33303739109E+04  0.33303739109E+04  0.25500000000E-02 0. -1.
         -2   -1    0    0    0  501 -0.00000000000E+00 -0.00000000000E+00 -0.11481103084E+03  0.11481103087E+03  0.25500000000E-02 0.  1.
    8880022    1    1    2    0    0 -0.30453226334E+03  0.41792505866E+03  0.76479102715E+03  0.93578748778E+03  0.15294330000E+03 0.  0.
    8880022    1    1    2    0    0  0.30453226334E+03 -0.41792505866E+03  0.24507718529E+04  0.25093974540E+04  0.15294330000E+03 0.  0.
<mgrwt>
<rscale>  0 0.53925217E+03</rscale>
<asrwt>0</asrwt>
<pdfrwt beam="1">  1        2 0.51236527E+00 0.53925217E+03</pdfrwt>
<pdfrwt beam="2">  1       -2 0.17663234E-01 0.53925217E+03</pdfrwt>
<totfact> 0.31351724E+01</totfact>
</mgrwt>
</event>
<event>
 4    1  0.5410820E-008  0.1783542E+03  0.7818608E-02  0.1169405E+00
         -2   -1    0    0    0  501 -0.00000000000E+00  0.00000000000E+00  0.86902913162E+02  0.86902913200E+02  0.25500000000E-02 0.  1.
          2   -1    0    0  501    0  0.00000000000E+00 -0.00000000000E+00 -0.10354361453E+04  0.10354361453E+04  0.25500000000E-02 0. -1.
    8880022    1    1    2    0    0  0.85392501993E+02  0.33566395799E+02 -0.23062626994E+02  0.17983915064E+03  0.15294330000E+03 0.  1.
    8880022    1    1    2    0    0 -0.85392501993E+02 -0.33566395799E+02 -0.92547060512E+03  0.94249990784E+03  0.15294330000E+03 0.  0.
<mgrwt>
<rscale>  0 0.17835424E+03</rscale>
<asrwt>0</asrwt>
<pdfrwt beam="1">  1        2 0.15929786E+00 0.17835424E+03</pdfrwt>
<pdfrwt beam="2">  1       -2 0.13369680E-01 0.17835424E+03</pdfrwt>
<totfact> 0.10395542E+03</totfact>
</mgrwt>
</event>
<event>
 4    1  0.5410820E-008  0.1593476E+03  0.7818608E-02  0.1189435E+00
          2   -1    0    0  501    0  0.00000000000E+00  0.00000000000E+00  0.32703206118E+04  0.32703206118E+04  0.25500000000E-02 0. -1.
         -2   -1    0    0    0  501 -0.00000000000E+00 -0.00000000000E+00 -0.17652017403E+03  0.17652017404E+03  0.25500000000E-02 0.  1.
    8880022    1    1    2    0    0 -0.41458606415E+02 -0.16768894091E+02 -0.13819147169E+03  0.21092308484E+03  0.15294330000E+03 0.  0.
    8880022    1    1    2    0    0  0.41458606415E+02  0.16768894091E+02  0.32319919094E+04  0.32359177010E+04  0.15294330000E+03 0. -1.
<mgrwt>
<rscale>  0 0.15934762E+03</rscale>
<asrwt>0</asrwt>
<pdfrwt beam="1">  1        2 0.50312617E+00 0.15934762E+03</pdfrwt>
<pdfrwt beam="2">  1       -2 0.27156954E-01 0.15934762E+03</pdfrwt>
<totfact> 0.19043417E+01</totfact>
</mgrwt>
</event>
<event>
 4    1  0.5410820E-008  0.1047005E+04  0.7818608E-02  0.9258441E-01
         -2   -1    0    0    0  501 -0.00000000000E+00  0.00000000000E+00  0.10774796548E+04  0.10774796548E+04  0.25500000000E-02 0.  1.
          2   -1    0    0  501    0  0.00000000000E+00 -0.00000000000E+00 -0.13375865596E+04  0.13375865596E+04  0.25500000000E-02 0. -1.
    8880022    1    1    2    0    0 -0.94675952419E+03 -0.42008951369E+03  0.46075170078E+03  0.11439023468E+04  0.15294330000E+03 0.  0.
    8880022    1    1    2    0    0  0.94675952419E+03  0.42008951369E+03 -0.72085860562E+03  0.12711638677E+04  0.15294330000E+03 0.  0.
<mgrwt>
<rscale>  0 0.10470055E+04</rscale>
<asrwt>0</asrwt>
<pdfrwt beam="1">  1        2 0.20578255E+00 0.10470055E+04</pdfrwt>
<pdfrwt beam="2">  1       -2 0.16576610E+00 0.10470055E+04</pdfrwt>
<totfact> 0.35445864E+00</totfact>
</mgrwt>
</event>
<event>
 4    1  0.5410820E-008  0.4329259E+03  0.7818608E-02  0.1032940E+00
          2   -1    0    0  501    0  0.00000000000E+00  0.00000000000E+00  0.21102309584E+04  0.21102309584E+04  0.25500000000E-02 0. -1.
         -2   -1    0    0    0  501 -0.00000000000E+00 -0.00000000000E+00 -0.17304530888E+03  0.17304530890E+03  0.25500000000E-02 0.  1.
    8880022    1    1    2    0    0 -0.68571341421E+02  0.39916309634E+03  0.17650767410E+04  0.18173939477E+04  0.15294330000E+03 0.  0.
    8880022    1    1    2    0    0  0.68571341421E+02 -0.39916309634E+03  0.17210890851E+03  0.46588231963E+03  0.15294330000E+03 0.  0.
<mgrwt>
<rscale>  0 0.43292593E+03</rscale>
<asrwt>0</asrwt>
<pdfrwt beam="1">  1        2 0.32465093E+00 0.43292593E+03</pdfrwt>
<pdfrwt beam="2">  1       -2 0.26622354E-01 0.43292593E+03</pdfrwt>
<totfact> 0.80022583E+01</totfact>
</mgrwt>
</event>
<event>
 4    1  0.5410820E-008  0.5518433E+03  0.7818608E-02  0.1001068E+00
         -2   -1    0    0    0  501 -0.00000000000E+00  0.00000000000E+00  0.27512871358E+03  0.27512871359E+03  0.25500000000E-02 0.  1.
          2   -1    0    0  501    0  0.00000000000E+00 -0.00000000000E+00 -0.25389759847E+04  0.25389759847E+04  0.25500000000E-02 0. -1.
    8880022    1    1    2    0    0 -0.50966678977E+03 -0.14621604723E+03 -0.21886655246E+04  0.22571636628E+04  0.15294330000E+03 0.  0.
    8880022    1    1    2    0    0  0.50966678977E+03  0.14621604723E+03 -0.75181746580E+02  0.55694103556E+03  0.15294330000E+03 0.  0.
<mgrwt>
<rscale>  0 0.55184329E+03</rscale>
<asrwt>0</asrwt>
<pdfrwt beam="1">  1        2 0.39061167E+00 0.55184329E+03</pdfrwt>
<pdfrwt beam="2">  1       -2 0.42327496E-01 0.55184329E+03</pdfrwt>
<totfact> 0.18977353E+01</totfact>
</mgrwt>
</event>
<event>
 4    1  0.5410820E-008  0.1946607E+03  0.7818608E-02  0.1154324E+00
         -2   -1    0    0    0  501 -0.00000000000E+00  0.00000000000E+00  0.68826631103E+02  0.68826631150E+02  0.25500000000E-02 0.  1.
          2   -1    0    0  501    0  0.00000000000E+00 -0.00000000000E+00 -0.18890835675E+04  0.18890835675E+04  0.25500000000E-02 0. -1.
    8880022    1    1    2    0    0 -0.11776191380E+03  0.25164980205E+02 -0.86083097480E+02  0.21284524251E+03  0.15294330000E+03 0.  0.
    8880022    1    1    2    0    0  0.11776191380E+03 -0.25164980205E+02 -0.17341738389E+04  0.17450649561E+04  0.15294330000E+03 0.  0.
<mgrwt>
<rscale>  0 0.19466072E+03</rscale>
<asrwt>0</asrwt>
<pdfrwt beam="1">  1        2 0.29062820E+00 0.19466072E+03</pdfrwt>
<pdfrwt beam="2">  1       -2 0.10588714E-01 0.19466072E+03</pdfrwt>
<totfact> 0.52304603E+02</totfact>
</mgrwt>
</event>
<event>
 4    1  0.5410820E-008  0.5891548E+03  0.7818608E-02  0.9928165E-01
         -2   -1    0    0    0  501 -0.00000000000E+00  0.00000000000E+00  0.30499231126E+03  0.30499231127E+03  0.25500000000E-02 0.  1.
          2   -1    0    0  501    0  0.00000000000E+00 -0.00000000000E+00 -0.14355877302E+04  0.14355877302E+04  0.25500000000E-02 0. -1.
    8880022    1    1    2    0    0 -0.38395474565E+03  0.41986957968E+03 -0.16910750608E+03  0.61294429786E+03  0.15294330000E+03 0.  0.
    8880022    1    1    2    0    0  0.38395474565E+03 -0.41986957968E+03 -0.96148791283E+03  0.11276357436E+04  0.15294330000E+03 0.  0.
<mgrwt>
<rscale>  0 0.58915479E+03</rscale>
<asrwt>0</asrwt>
<pdfrwt beam="1">  1        2 0.22085965E+00 0.58915479E+03</pdfrwt>
<pdfrwt beam="2">  1       -2 0.46921895E-01 0.58915479E+03</pdfrwt>
<totfact> 0.61735538E+01</totfact>
</mgrwt>
</event>
<event>
 4    1  0.5410820E-008  0.2537720E+03  0.7818608E-02  0.1110944E+00
          2   -1    0    0  501    0  0.00000000000E+00  0.00000000000E+00  0.29571805251E+03  0.29571805252E+03  0.25500000000E-02 0. -1.
         -2   -1    0    0    0  501 -0.00000000000E+00 -0.00000000000E+00 -0.19531811095E+04  0.19531811095E+04  0.25500000000E-02 0.  1.
    8880022    1    1    2    0    0  0.20034617895E+03 -0.29495687210E+02 -0.18886420134E+04  0.19056150962E+04  0.15294330000E+03 0.  0.
    8880022    1    1    2    0    0 -0.20034617895E+03  0.29495687210E+02  0.23117895639E+03  0.34328406586E+03  0.15294330000E+03 0.  0.
<mgrwt>
<rscale>  0 0.25377202E+03</rscale>
<asrwt>0</asrwt>
<pdfrwt beam="1">  1        2 0.45495086E-01 0.25377202E+03</pdfrwt>
<pdfrwt beam="2">  1       -2 0.30048939E+00 0.25377202E+03</pdfrwt>
<totfact> 0.40976752E+00</totfact>
</mgrwt>
</event>
<event>
 4    1  0.5410820E-008  0.8197158E+03  0.7818608E-02  0.9531910E-01
         -2   -1    0    0    0  501 -0.00000000000E+00  0.00000000000E+00  0.95126918634E+03  0.95126918634E+03  0.25500000000E-02 0.  1.
          2   -1    0    0  501    0  0.00000000000E+00 -0.00000000000E+00 -0.18678301327E+04  0.18678301327E+04  0.25500000000E-02 0. -1.
    8880022    1    1    2    0    0 -0.73852038483E+03 -0.32113860826E+03 -0.15697987211E+04  0.17709325347E+04  0.15294330000E+03 0.  0.
    8880022    1    1    2    0    0  0.73852038483E+03  0.32113860826E+03  0.65323777474E+03  0.10481667844E+04  0.15294330000E+03 0.  0.
<mgrwt>
<rscale>  0 0.81971582E+03</rscale>
<asrwt>0</asrwt>
<pdfrwt beam="1">  1        2 0.28735848E+00 0.81971582E+03</pdfrwt>
<pdfrwt beam="2">  1       -2 0.14634911E+00 0.81971582E+03</pdfrwt>
<totfact> 0.25869246E+00</totfact>
</mgrwt>
</event>
<event>
 4    1  0.5410820E-008  0.5771468E+03  0.7818608E-02  0.9953987E-01
          2   -1    0    0  501    0  0.00000000000E+00  0.00000000000E+00  0.10406766255E+04  0.10406766255E+04  0.25500000000E-02 0. -1.
         -2   -1    0    0    0  501 -0.00000000000E+00 -0.00000000000E+00 -0.68245340706E+03  0.68245340706E+03  0.25500000000E-02 0.  1.
    8880022    1    1    2    0    0 -0.41300177468E+01  0.55649777172E+03  0.80692483139E+03  0.99208173227E+03  0.15294330000E+03 0.  0.
    8880022    1    1    2    0    0  0.41300177468E+01 -0.55649777172E+03 -0.44870161291E+03  0.73104830033E+03  0.15294330000E+03 0.  0.
<mgrwt>
<rscale>  0 0.57714684E+03</rscale>
<asrwt>0</asrwt>
<pdfrwt beam="1">  1        2 0.16010410E+00 0.57714684E+03</pdfrwt>
<pdfrwt beam="2">  1       -2 0.10499283E+00 0.57714684E+03</pdfrwt>
<totfact> 0.18126887E+01</totfact>
</mgrwt>
</event>
<event>
 4    1  0.5410820E-008  0.9325860E+03  0.7818608E-02  0.9385740E-01
         -2   -1    0    0    0  501 -0.00000000000E+00  0.00000000000E+00  0.11347781042E+04  0.11347781042E+04  0.25500000000E-02 0.  1.
          2   -1    0    0  501    0  0.00000000000E+00 -0.00000000000E+00 -0.11888297214E+04  0.11888297214E+04  0.25500000000E-02 0. -1.
    8880022    1    1    2    0    0 -0.54391393174E+03 -0.74194514041E+03 -0.71955800896E+03  0.11779135528E+04  0.15294330000E+03 0.  0.
    8880022    1    1    2    0    0  0.54391393174E+03  0.74194514041E+03  0.66550639176E+03  0.11456942729E+04  0.15294330000E+03 0.  0.
<mgrwt>
<rscale>  0 0.93258598E+03</rscale>
<asrwt>0</asrwt>
<pdfrwt beam="1">  1        2 0.18289688E+00 0.93258598E+03</pdfrwt>
<pdfrwt beam="2">  1       -2 0.17458125E+00 0.93258598E+03</pdfrwt>
<totfact> 0.38010833E+00</totfact>
</mgrwt>
</event>
<event>
 4    1  0.5410820E-008  0.7173949E+03  0.7818608E-02  0.9687939E-01
          2   -1    0    0  501    0  0.00000000000E+00  0.00000000000E+00  0.20038346424E+04  0.20038346424E+04  0.25500000000E-02 0. -1.
         -2   -1    0    0    0  501 -0.00000000000E+00 -0.00000000000E+00 -0.59362597952E+03  0.59362597953E+03  0.25500000000E-02 0.  1.
    8880022    1    1    2    0    0 -0.36263068868E+03  0.59980223898E+03 -0.27312928636E+03  0.76762946943E+03  0.15294330000E+03 0.  0.
    8880022    1    1    2    0    0  0.36263068868E+03 -0.59980223898E+03  0.16833379492E+04  0.18298311524E+04  0.15294330000E+03 0. -1.
<mgrwt>
<rscale>  0 0.71739487E+03</rscale>
<asrwt>0</asrwt>
<pdfrwt beam="1">  1        2 0.30828225E+00 0.71739487E+03</pdfrwt>
<pdfrwt beam="2">  1       -2 0.91327074E-01 0.71739487E+03</pdfrwt>
<totfact> 0.70728471E+00</totfact>
</mgrwt>
</event>
<event>
 4    1  0.5410820E-008  0.5792643E+03  0.7818608E-02  0.9949385E-01
          2   -1    0    0  501    0  0.00000000000E+00  0.00000000000E+00  0.14700283918E+04  0.14700283918E+04  0.25500000000E-02 0. -1.
         -2   -1    0    0    0  501 -0.00000000000E+00 -0.00000000000E+00 -0.45662959255E+03  0.45662959256E+03  0.25500000000E-02 0.  1.
    8880022    1    1    2    0    0 -0.53109358487E+03  0.17347932283E+03 -0.17456037979E+03  0.60499458720E+03  0.15294330000E+03 0.  0.
    8880022    1    1    2    0    0  0.53109358487E+03 -0.17347932283E+03  0.11879591790E+04  0.13216633971E+04  0.15294330000E+03 0.  0.
<mgrwt>
<rscale>  0 0.57926430E+03</rscale>
<asrwt>0</asrwt>
<pdfrwt beam="1">  1        2 0.22615822E+00 0.57926430E+03</pdfrwt>
<pdfrwt beam="2">  1       -2 0.70250706E-01 0.57926430E+03</pdfrwt>
<totfact> 0.25482412E+01</totfact>
</mgrwt>
</event>
<event>
 4    1  0.5410820E-008  0.6011848E+03  0.7818608E-02  0.9902951E-01
         -2   -1    0    0    0  501 -0.00000000000E+00  0.00000000000E+00  0.19733368320E+03  0.19733368321E+03  0.25500000000E-02 0.  1.
          2   -1    0    0  501    0  0.00000000000E+00 -0.00000000000E+00 -0.38738363855E+04  0.38738363855E+04  0.25500000000E-02 0. -1.
    8880022    1    1    2    0    0 -0.56988678380E+03  0.11515436184E+03 -0.33162660567E+04  0.33703180392E+04  0.15294330000E+03 0.  0.
    8880022    1    1    2    0    0  0.56988678380E+03 -0.11515436184E+03 -0.36023664553E+03  0.70085202946E+03  0.15294330000E+03 0.  0.
<mgrwt>
<rscale>  0 0.60118477E+03</rscale>
<asrwt>0</asrwt>
<pdfrwt beam="1">  1        2 0.59597477E+00 0.60118477E+03</pdfrwt>
<pdfrwt beam="2">  1       -2 0.30359031E-01 0.60118477E+03</pdfrwt>
<totfact> 0.49220178E+00</totfact>
</mgrwt>
</event>
<event>
 4    1  0.5410820E-008  0.2464520E+03  0.7818608E-02  0.1115568E+00
          2   -1    0    0  501    0  0.00000000000E+00  0.00000000000E+00  0.10934602665E+04  0.10934602665E+04  0.25500000000E-02 0. -1.
         -2   -1    0    0    0  501 -0.00000000000E+00 -0.00000000000E+00 -0.37764527443E+03  0.37764527443E+03  0.25500000000E-02 0.  1.
    8880022    1    1    2    0    0 -0.85854829728E+02 -0.17313542625E+03 -0.32139923685E+03  0.40501364184E+03  0.15294330000E+03 0.  0.
    8880022    1    1    2    0    0  0.85854829728E+02  0.17313542625E+03  0.10372142289E+04  0.10660918991E+04  0.15294330000E+03 0.  0.
<mgrwt>
<rscale>  0 0.24645198E+03</rscale>
<asrwt>0</asrwt>
<pdfrwt beam="1">  1        2 0.16822466E+00 0.24645198E+03</pdfrwt>
<pdfrwt beam="2">  1       -2 0.58099272E-01 0.24645198E+03</pdfrwt>
<totfact> 0.66523803E+01</totfact>
</mgrwt>
</event>
<event>
 4    1  0.5410820E-008  0.3169336E+03  0.7818608E-02  0.1077069E+00
          2   -1    0    0  501    0  0.00000000000E+00  0.00000000000E+00  0.92079913856E+03  0.92079913856E+03  0.25500000000E-02 0. -1.
         -2   -1    0    0    0  501 -0.00000000000E+00 -0.00000000000E+00 -0.17683539216E+03  0.17683539217E+03  0.25500000000E-02 0.  1.
    8880022    1    1    2    0    0  0.44208566704E+02  0.27404537909E+03  0.71168042496E+03  0.77906093950E+03  0.15294330000E+03 0.  0.
    8880022    1    1    2    0    0 -0.44208566704E+02 -0.27404537909E+03  0.32283321438E+02  0.31857359123E+03  0.15294330000E+03 0.  0.
<mgrwt>
<rscale>  0 0.31693362E+03</rscale>
<asrwt>0</asrwt>
<pdfrwt beam="1">  1        2 0.14166141E+00 0.31693362E+03</pdfrwt>
<pdfrwt beam="2">  1       -2 0.27205445E-01 0.31693362E+03</pdfrwt>
<totfact> 0.36073582E+02</totfact>
</mgrwt>
</event>
<event>
 4    1  0.5410820E-008  0.1305855E+04  0.7818608E-02  0.9024935E-01
          2   -1    0    0  501    0  0.00000000000E+00  0.00000000000E+00  0.30373026587E+04  0.30373026587E+04  0.25500000000E-02 0. -1.
         -2   -1    0    0    0  501 -0.00000000000E+00 -0.00000000000E+00 -0.69668662611E+03  0.69668662611E+03  0.25500000000E-02 0.  1.
    8880022    1    1    2    0    0  0.12659171514E+04  0.28163679691E+03  0.19929118770E+04  0.23826361288E+04  0.15294330000E+03 0.  0.
    8880022    1    1    2    0    0 -0.12659171514E+04 -0.28163679691E+03  0.34770415560E+03  0.13513531561E+04  0.15294330000E+03 0.  0.
<mgrwt>
<rscale>  0 0.13058550E+04</rscale>
<asrwt>0</asrwt>
<pdfrwt beam="1">  1        2 0.46727733E+00 0.13058550E+04</pdfrwt>
<pdfrwt beam="2">  1       -2 0.10718256E+00 0.13058550E+04</pdfrwt>
<totfact> 0.11271808E+00</totfact>
</mgrwt>
</event>
<event>
 4    1  0.5410820E-008  0.5015742E+03  0.7818608E-02  0.1013369E+00
         -2   -1    0    0    0  501 -0.00000000000E+00  0.00000000000E+00  0.12727901578E+03  0.12727901580E+03  0.25500000000E-02 0.  1.
          2   -1    0    0  501    0  0.00000000000E+00 -0.00000000000E+00 -0.25779002098E+04  0.25779002098E+04  0.25500000000E-02 0. -1.
    8880022    1    1    2    0    0 -0.40075895961E+03 -0.25995629414E+03 -0.57204878006E+03  0.76079989376E+03  0.15294330000E+03 0.  0.
    8880022    1    1    2    0    0  0.40075895961E+03  0.25995629414E+03 -0.18785724140E+04  0.19443793319E+04  0.15294330000E+03 0.  0.
<mgrwt>
<rscale>  0 0.50157419E+03</rscale>
<asrwt>0</asrwt>
<pdfrwt beam="1">  1        2 0.39659999E+00 0.50157419E+03</pdfrwt>
<pdfrwt beam="2">  1       -2 0.19581389E-01 0.50157419E+03</pdfrwt>
<totfact> 0.75144301E+01</totfact>
</mgrwt>
</event>
<event>
 4    1  0.5410820E-008  0.8145747E+03  0.7818608E-02  0.9539157E-01
         -2   -1    0    0    0  501 -0.00000000000E+00  0.00000000000E+00  0.61448520583E+03  0.61448520583E+03  0.25500000000E-02 0.  1.
          2   -1    0    0  501    0  0.00000000000E+00 -0.00000000000E+00 -0.16981892321E+04  0.16981892321E+04  0.25500000000E-02 0. -1.
    8880022    1    1    2    0    0  0.55251585777E+03  0.57867651660E+03 -0.12396283605E+04  0.14833106246E+04  0.15294330000E+03 0.  0.
    8880022    1    1    2    0    0 -0.55251585777E+03 -0.57867651660E+03  0.15592433415E+03  0.82936381338E+03  0.15294330000E+03 0.  0.
<mgrwt>
<rscale>  0 0.81457470E+03</rscale>
<asrwt>0</asrwt>
<pdfrwt beam="1">  1        2 0.26125988E+00 0.81457470E+03</pdfrwt>
<pdfrwt beam="2">  1       -2 0.94536186E-01 0.81457470E+03</pdfrwt>
<totfact> 0.94480504E+00</totfact>
</mgrwt>
</event>
<event>
 4    1  0.5410820E-008  0.4017440E+03  0.7818608E-02  0.1043177E+00
          2   -1    0    0  501    0  0.00000000000E+00  0.00000000000E+00  0.10702591318E+04  0.10702591318E+04  0.25500000000E-02 0. -1.
         -2   -1    0    0    0  501 -0.00000000000E+00 -0.00000000000E+00 -0.24379947961E+03  0.24379947963E+03  0.25500000000E-02 0.  1.
    8880022    1    1    2    0    0  0.19510017541E+03 -0.31613688983E+03  0.74395284296E+01  0.40181290566E+03  0.15294330000E+03 0.  0.
    8880022    1    1    2    0    0 -0.19510017541E+03  0.31613688983E+03  0.81902012373E+03  0.91224570575E+03  0.15294330000E+03 0. -1.
<mgrwt>
<rscale>  0 0.40174403E+03</rscale>
<asrwt>0</asrwt>
<pdfrwt beam="1">  1        2 0.16465525E+00 0.40174403E+03</pdfrwt>
<pdfrwt beam="2">  1       -2 0.37507613E-01 0.40174403E+03</pdfrwt>
<totfact> 0.15907572E+02</totfact>
</mgrwt>
</event>
<event>
 4    1  0.5410820E-008  0.6252484E+03  0.7818608E-02  0.9854365E-01
          2   -1    0    0  501    0  0.00000000000E+00  0.00000000000E+00  0.68088924143E+03  0.68088924144E+03  0.25500000000E-02 0. -1.
         -2   -1    0    0    0  501 -0.00000000000E+00 -0.00000000000E+00 -0.89660948937E+03  0.89660948937E+03  0.25500000000E-02 0.  1.
    8880022    1    1    2    0    0 -0.18416676949E+03  0.57760409563E+03 -0.58087193569E+03  0.85343292001E+03  0.15294330000E+03 0.  0.
    8880022    1    1    2    0    0  0.18416676949E+03 -0.57760409563E+03  0.36515168776E+03  0.72406581080E+03  0.15294330000E+03 0.  0.
<mgrwt>
<rscale>  0 0.62524839E+03</rscale>
<asrwt>0</asrwt>
<pdfrwt beam="1">  1        2 0.10475219E+00 0.62524839E+03</pdfrwt>
<pdfrwt beam="2">  1       -2 0.13793992E+00 0.62524839E+03</pdfrwt>
<totfact> 0.16280460E+01</totfact>
</mgrwt>
</event>
<event>
 4    1  0.5410820E-008  0.2397943E+03  0.7818608E-02  0.1119930E+00
          2   -1    0    0  501    0  0.00000000000E+00  0.00000000000E+00  0.19183666284E+04  0.19183666284E+04  0.25500000000E-02 0. -1.
         -2   -1    0    0    0  501 -0.00000000000E+00 -0.00000000000E+00 -0.41536721625E+03  0.41536721626E+03  0.25500000000E-02 0.  1.
    8880022    1    1    2    0    0  0.87962347384E+02 -0.16239541208E+03  0.18754761310E+04  0.18907437731E+04  0.15294330000E+03 0. -1.
    8880022    1    1    2    0    0 -0.87962347384E+02  0.16239541208E+03 -0.37247671886E+03  0.44299007159E+03  0.15294330000E+03 0.  0.
<mgrwt>
<rscale>  0 0.23979428E+03</rscale>
<asrwt>0</asrwt>
<pdfrwt beam="1">  1        2 0.29513332E+00 0.23979428E+03</pdfrwt>
<pdfrwt beam="2">  1       -2 0.63902650E-01 0.23979428E+03</pdfrwt>
<totfact> 0.19579899E+01</totfact>
</mgrwt>
</event>
<event>
 4    1  0.5410820E-008  0.8165989E+03  0.7818608E-02  0.9536297E-01
         -2   -1    0    0    0  501 -0.00000000000E+00  0.00000000000E+00  0.21988018098E+04  0.21988018098E+04  0.25500000000E-02 0.  1.
          2   -1    0    0  501    0  0.00000000000E+00 -0.00000000000E+00 -0.34617792211E+03  0.34617792212E+03  0.25500000000E-02 0. -1.
    8880022    1    1    2    0    0 -0.73509259437E+02 -0.79877309595E+03  0.13742998189E+04  0.15986036768E+04  0.15294330000E+03 0.  0.
    8880022    1    1    2    0    0  0.73509259437E+02  0.79877309595E+03  0.47832406882E+03  0.94637605521E+03  0.15294330000E+03 0.  0.
<mgrwt>
<rscale>  0 0.81659888E+03</rscale>
<asrwt>0</asrwt>
<pdfrwt beam="1">  1        2 0.53258140E-01 0.81659888E+03</pdfrwt>
<pdfrwt beam="2">  1       -2 0.33827721E+00 0.81659888E+03</pdfrwt>
<totfact> 0.17923006E+00</totfact>
</mgrwt>
</event>
<event>
 4    1  0.5410820E-008  0.5406827E+03  0.7818608E-02  0.1003674E+00
         -2   -1    0    0    0  501 -0.00000000000E+00  0.00000000000E+00  0.29432466321E+03  0.29432466322E+03  0.25500000000E-02 0.  1.
          2   -1    0    0  501    0  0.00000000000E+00 -0.00000000000E+00 -0.27224021012E+04  0.27224021012E+04  0.25500000000E-02 0. -1.
    8880022    1    1    2    0    0 -0.29790661098E+03  0.42449711226E+03 -0.24161551039E+04  0.24759126168E+04  0.15294330000E+03 0.  0.
    8880022    1    1    2    0    0  0.29790661098E+03 -0.42449711226E+03 -0.11922334133E+02  0.54081414760E+03  0.15294330000E+03 0.  0.
<mgrwt>
<rscale>  0 0.54068272E+03</rscale>
<asrwt>0</asrwt>
<pdfrwt beam="1">  1        2 0.41883108E+00 0.54068272E+03</pdfrwt>
<pdfrwt beam="2">  1       -2 0.45280719E-01 0.54068272E+03</pdfrwt>
<totfact> 0.13085395E+01</totfact>
</mgrwt>
</event>
<event>
 4    1  0.5410820E-008  0.7890682E+03  0.7818608E-02  0.9575977E-01
         -2   -1    0    0    0  501 -0.00000000000E+00  0.00000000000E+00  0.26508327807E+03  0.26508327808E+03  0.25500000000E-02 0.  1.
          2   -1    0    0  501    0  0.00000000000E+00 -0.00000000000E+00 -0.31434859278E+04  0.31434859279E+04  0.25500000000E-02 0. -1.
    8880022    1    1    2    0    0 -0.76209648831E+03  0.13581550403E+03 -0.22961072266E+04  0.24279079385E+04  0.15294330000E+03 0.  0.
    8880022    1    1    2    0    0  0.76209648831E+03 -0.13581550403E+03 -0.58229542317E+03  0.98066126745E+03  0.15294330000E+03 0.  0.
<mgrwt>
<rscale>  0 0.78906816E+03</rscale>
<asrwt>0</asrwt>
<pdfrwt beam="1">  1        2 0.48361319E+00 0.78906816E+03</pdfrwt>
<pdfrwt beam="2">  1       -2 0.40782045E-01 0.78906816E+03</pdfrwt>
<totfact> 0.85243631E+00</totfact>
</mgrwt>
</event>
<event>
 4    1  0.5410820E-008  0.8425917E+03  0.7818608E-02  0.9500334E-01
          2   -1    0    0  501    0  0.00000000000E+00  0.00000000000E+00  0.80106797565E+03  0.80106797565E+03  0.25500000000E-02 0. -1.
         -2   -1    0    0    0  501 -0.00000000000E+00 -0.00000000000E+00 -0.98442975489E+03  0.98442975489E+03  0.25500000000E-02 0.  1.
    8880022    1    1    2    0    0  0.73247188400E+03  0.38736805897E+03  0.19022789583E+03  0.86379822837E+03  0.15294330000E+03 0.  0.
    8880022    1    1    2    0    0 -0.73247188400E+03 -0.38736805897E+03 -0.37358967507E+03  0.92169950217E+03  0.15294330000E+03 0.  0.
<mgrwt>
<rscale>  0 0.84259167E+03</rscale>
<asrwt>0</asrwt>
<pdfrwt beam="1">  1        2 0.12324123E+00 0.84259167E+03</pdfrwt>
<pdfrwt beam="2">  1       -2 0.15145073E+00 0.84259167E+03</pdfrwt>
<totfact> 0.10105842E+01</totfact>
</mgrwt>
</event>
<event>
 4    1  0.5410820E-008  0.3914084E+03  0.7818608E-02  0.1046796E+00
         -2   -1    0    0    0  501 -0.00000000000E+00  0.00000000000E+00  0.33184757403E+03  0.33184757404E+03  0.25500000000E-02 0.  1.
          2   -1    0    0  501    0  0.00000000000E+00 -0.00000000000E+00 -0.26025813501E+04  0.26025813501E+04  0.25500000000E-02 0. -1.
    8880022    1    1    2    0    0 -0.35747650901E+03  0.44937845258E+02  0.19536900327E+03  0.43745807215E+03  0.15294330000E+03 0.  0.
    8880022    1    1    2    0    0  0.35747650901E+03 -0.44937845258E+02 -0.24661027793E+04  0.24969708520E+04  0.15294330000E+03 0.  0.
<mgrwt>
<rscale>  0 0.39140838E+03</rscale>
<asrwt>0</asrwt>
<pdfrwt beam="1">  1        2 0.40039712E+00 0.39140838E+03</pdfrwt>
<pdfrwt beam="2">  1       -2 0.51053475E-01 0.39140838E+03</pdfrwt>
<totfact> 0.12551756E+01</totfact>
</mgrwt>
</event>
<event>
 4    1  0.5410820E-008  0.4008774E+03  0.7818608E-02  0.1043476E+00
          2   -1    0    0  501    0  0.00000000000E+00  0.00000000000E+00  0.81554909683E+03  0.81554909684E+03  0.25500000000E-02 0. -1.
         -2   -1    0    0    0  501 -0.00000000000E+00 -0.00000000000E+00 -0.45915233603E+03  0.45915233604E+03  0.25500000000E-02 0.  1.
    8880022    1    1    2    0    0 -0.32529959019E+03  0.17745770142E+03 -0.30334651337E+03  0.50271445112E+03  0.15294330000E+03 0.  1.
    8880022    1    1    2    0    0  0.32529959019E+03 -0.17745770142E+03  0.65974327418E+03  0.77198698176E+03  0.15294330000E+03 0.  0.
<mgrwt>
<rscale>  0 0.40087743E+03</rscale>
<asrwt>0</asrwt>
<pdfrwt beam="1">  1        2 0.12546909E+00 0.40087743E+03</pdfrwt>
<pdfrwt beam="2">  1       -2 0.70638821E-01 0.40087743E+03</pdfrwt>
<totfact> 0.64225547E+01</totfact>
</mgrwt>
</event>
<event>
 4    1  0.5410820E-008  0.2892258E+03  0.7818608E-02  0.1090754E+00
         -2   -1    0    0    0  501 -0.00000000000E+00  0.00000000000E+00  0.10847319000E+03  0.10847319003E+03  0.25500000000E-02 0.  1.
          2   -1    0    0  501    0  0.00000000000E+00 -0.00000000000E+00 -0.13654794717E+04  0.13654794717E+04  0.25500000000E-02 0. -1.
    8880022    1    1    2    0    0  0.16320561371E+03  0.18336804774E+03 -0.14230165690E+03  0.32233728895E+03  0.15294330000E+03 0.  0.
    8880022    1    1    2    0    0 -0.16320561371E+03 -0.18336804774E+03 -0.11147046248E+04  0.11516153728E+04  0.15294330000E+03 0. -1.
<mgrwt>
<rscale>  0 0.28922581E+03</rscale>
<asrwt>0</asrwt>
<pdfrwt beam="1">  1        2 0.21007375E+00 0.28922581E+03</pdfrwt>
<pdfrwt beam="2">  1       -2 0.16688184E-01 0.28922581E+03</pdfrwt>
<totfact> 0.46339264E+02</totfact>
</mgrwt>
</event>
<event>
 4    1  0.5410820E-008  0.4980426E+03  0.7818608E-02  0.1014291E+00
         -2   -1    0    0    0  501 -0.00000000000E+00  0.00000000000E+00  0.17658499994E+03  0.17658499995E+03  0.25500000000E-02 0.  1.
          2   -1    0    0  501    0  0.00000000000E+00 -0.00000000000E+00 -0.37364054120E+04  0.37364054120E+04  0.25500000000E-02 0. -1.
    8880022    1    1    2    0    0  0.45435352888E+03  0.13497272378E+03 -0.33254847886E+04  0.33625727498E+04  0.15294330000E+03 0. -1.
    8880022    1    1    2    0    0 -0.45435352888E+03 -0.13497272378E+03 -0.23433562344E+03  0.55041766215E+03  0.15294330000E+03 0.  0.
<mgrwt>
<rscale>  0 0.49804259E+03</rscale>
<asrwt>0</asrwt>
<pdfrwt beam="1">  1        2 0.57483154E+00 0.49804259E+03</pdfrwt>
<pdfrwt beam="2">  1       -2 0.27166926E-01 0.49804259E+03</pdfrwt>
<totfact> 0.78495772E+00</totfact>
</mgrwt>
</event>
<event>
 4    1  0.5410820E-008  0.4850668E+03  0.7818608E-02  0.1017752E+00
          2   -1    0    0  501    0  0.00000000000E+00  0.00000000000E+00  0.10362032892E+04  0.10362032892E+04  0.25500000000E-02 0. -1.
         -2   -1    0    0    0  501 -0.00000000000E+00 -0.00000000000E+00 -0.79787860967E+03  0.79787860967E+03  0.25500000000E-02 0.  1.
    8880022    1    1    2    0    0 -0.41727486362E+03 -0.19437046287E+03 -0.65648781514E+03  0.81625124385E+03  0.15294330000E+03 0.  0.
    8880022    1    1    2    0    0  0.41727486362E+03  0.19437046287E+03  0.89481249465E+03  0.10178306550E+04  0.15294330000E+03 0.  0.
<mgrwt>
<rscale>  0 0.48506684E+03</rscale>
<asrwt>0</asrwt>
<pdfrwt beam="1">  1        2 0.15941589E+00 0.48506684E+03</pdfrwt>
<pdfrwt beam="2">  1       -2 0.12275055E+00 0.48506684E+03</pdfrwt>
<totfact> 0.12669136E+01</totfact>
</mgrwt>
</event>
<event>
 4    1  0.5410820E-008  0.3457868E+03  0.7818608E-02  0.1064358E+00
          2   -1    0    0  501    0  0.00000000000E+00  0.00000000000E+00  0.16217631780E+04  0.16217631780E+04  0.25500000000E-02 0. -1.
         -2   -1    0    0    0  501 -0.00000000000E+00 -0.00000000000E+00 -0.32567328026E+03  0.32567328027E+03  0.25500000000E-02 0.  1.
    8880022    1    1    2    0    0 -0.23239386060E+03 -0.20535320695E+03 -0.20839280746E+03  0.40372770683E+03  0.15294330000E+03 0.  1.
    8880022    1    1    2    0    0  0.23239386060E+03  0.20535320695E+03  0.15044827052E+04  0.15437087514E+04  0.15294330000E+03 0.  0.
<mgrwt>
<rscale>  0 0.34578678E+03</rscale>
<asrwt>0</asrwt>
<pdfrwt beam="1">  1        2 0.24950202E+00 0.34578678E+03</pdfrwt>
<pdfrwt beam="2">  1       -2 0.50103582E-01 0.34578678E+03</pdfrwt>
<totfact> 0.44690896E+01</totfact>
</mgrwt>
</event>
<event>
 4    1  0.5410820E-008  0.4373616E+03  0.7818608E-02  0.1031559E+00
          2   -1    0    0  501    0  0.00000000000E+00  0.00000000000E+00  0.28484429001E+04  0.28484429001E+04  0.25500000000E-02 0. -1.
         -2   -1    0    0    0  501 -0.00000000000E+00 -0.00000000000E+00 -0.12081728139E+03  0.12081728142E+03  0.25500000000E-02 0.  1.
    8880022    1    1    2    0    0  0.39816587208E+03  0.96734098753E+02  0.37436905489E+03  0.57570599252E+03  0.15294330000E+03 0.  0.
    8880022    1    1    2    0    0 -0.39816587208E+03 -0.96734098753E+02  0.23532565638E+04  0.23935541890E+04  0.15294330000E+03 0.  0.
<mgrwt>
<rscale>  0 0.43736164E+03</rscale>
<asrwt>0</asrwt>
<pdfrwt beam="1">  1        2 0.43822193E+00 0.43736164E+03</pdfrwt>
<pdfrwt beam="2">  1       -2 0.18587276E-01 0.43736164E+03</pdfrwt>
<totfact> 0.58261726E+01</totfact>
</mgrwt>
</event>
<event>
 4    1  0.5410820E-008  0.2521597E+03  0.7818608E-02  0.1111948E+00
          2   -1    0    0  501    0  0.00000000000E+00  0.00000000000E+00  0.23205307485E+04  0.23205307485E+04  0.25500000000E-02 0. -1.
         -2   -1    0    0    0  501 -0.00000000000E+00 -0.00000000000E+00 -0.12172243272E+03  0.12172243275E+03  0.25500000000E-02 0.  1.
    8880022    1    1    2    0    0  0.38192521124E+02  0.19680998630E+03  0.24472288945E+02  0.25334440061E+03  0.15294330000E+03 0.  1.
    8880022    1    1    2    0    0 -0.38192521124E+02 -0.19680998630E+03  0.21743360268E+04  0.21889087806E+04  0.15294330000E+03 0.  0.
<mgrwt>
<rscale>  0 0.25215966E+03</rscale>
<asrwt>0</asrwt>
<pdfrwt beam="1">  1        2 0.35700474E+00 0.25215966E+03</pdfrwt>
<pdfrwt beam="2">  1       -2 0.18726528E-01 0.25215966E+03</pdfrwt>
<totfact> 0.11963165E+02</totfact>
</mgrwt>
</event>
<event>
 4    1  0.5410820E-008  0.1974420E+03  0.7818608E-02  0.1151915E+00
         -2   -1    0    0    0  501 -0.00000000000E+00  0.00000000000E+00  0.60464256239E+02  0.60464256293E+02  0.25500000000E-02 0.  1.
          2   -1    0    0  501    0  0.00000000000E+00 -0.00000000000E+00 -0.18832791719E+04  0.18832791719E+04  0.25500000000E-02 0. -1.
    8880022    1    1    2    0    0 -0.37097334271E+02 -0.11922862586E+03 -0.16995551477E+04  0.17109853975E+04  0.15294330000E+03 0. -1.
    8880022    1    1    2    0    0  0.37097334271E+02  0.11922862586E+03 -0.12325976798E+03  0.23275803069E+03  0.15294330000E+03 0.  0.
<mgrwt>
<rscale>  0 0.19744197E+03</rscale>
<asrwt>0</asrwt>
<pdfrwt beam="1">  1        2 0.28973521E+00 0.19744197E+03</pdfrwt>
<pdfrwt beam="2">  1       -2 0.93021947E-02 0.19744197E+03</pdfrwt>
<totfact> 0.64628027E+02</totfact>
</mgrwt>
</event>
<event>
 4    1  0.5410820E-008  0.3911444E+03  0.7818608E-02  0.1046890E+00
          2   -1    0    0  501    0  0.00000000000E+00  0.00000000000E+00  0.13506885954E+04  0.13506885954E+04  0.25500000000E-02 0. -1.
         -2   -1    0    0    0  501 -0.00000000000E+00 -0.00000000000E+00 -0.20986453857E+03  0.20986453858E+03  0.25500000000E-02 0.  1.
    8880022    1    1    2    0    0  0.26899501242E+03  0.23925713433E+03  0.41049849997E+02  0.39329255807E+03  0.15294330000E+03 0.  1.
    8880022    1    1    2    0    0 -0.26899501242E+03 -0.23925713433E+03  0.10997742068E+04  0.11672605759E+04  0.15294330000E+03 0.  0.
<mgrwt>
<rscale>  0 0.39114441E+03</rscale>
<asrwt>0</asrwt>
<pdfrwt beam="1">  1        2 0.20779825E+00 0.39114441E+03</pdfrwt>
<pdfrwt beam="2">  1       -2 0.32286852E-01 0.39114441E+03</pdfrwt>
<totfact> 0.14541702E+02</totfact>
</mgrwt>
</event>
<event>
 4    1  0.5410820E-008  0.5002240E+03  0.7818608E-02  0.1013720E+00
          2   -1    0    0  501    0  0.00000000000E+00  0.00000000000E+00  0.24375290311E+04  0.24375290311E+04  0.25500000000E-02 0. -1.
         -2   -1    0    0    0  501 -0.00000000000E+00 -0.00000000000E+00 -0.11341418906E+03  0.11341418909E+03  0.25500000000E-02 0.  1.
    8880022    1    1    2    0    0 -0.38183544298E+03 -0.28466494532E+03  0.15549109164E+04  0.16333928026E+04  0.15294330000E+03 0.  0.
    8880022    1    1    2    0    0  0.38183544298E+03  0.28466494532E+03  0.76920392563E+03  0.91755041759E+03  0.15294330000E+03 0.  0.
<mgrwt>
<rscale>  0 0.50022404E+03</rscale>
<asrwt>0</asrwt>
<pdfrwt beam="1">  1        2 0.37500447E+00 0.50022404E+03</pdfrwt>
<pdfrwt beam="2">  1       -2 0.17448336E-01 0.50022404E+03</pdfrwt>
<totfact> 0.10985858E+02</totfact>
</mgrwt>
</event>
<event>
 4    1  0.5410820E-008  0.8607278E+03  0.7818608E-02  0.9476051E-01
          2   -1    0    0  501    0  0.00000000000E+00  0.00000000000E+00  0.96409447728E+03  0.96409447729E+03  0.25500000000E-02 0. -1.
         -2   -1    0    0    0  501 -0.00000000000E+00 -0.00000000000E+00 -0.12397246810E+04  0.12397246810E+04  0.25500000000E-02 0.  1.
    8880022    1    1    2    0    0  0.84461245453E+03  0.63956434314E+02 -0.81721161834E+03  0.11868812518E+04  0.15294330000E+03 0.  0.
    8880022    1    1    2    0    0 -0.84461245453E+03 -0.63956434314E+02  0.54158141463E+03  0.10169379064E+04  0.15294330000E+03 0.  0.
<mgrwt>
<rscale>  0 0.86072776E+03</rscale>
<asrwt>0</asrwt>
<pdfrwt beam="1">  1        2 0.14832223E+00 0.86072776E+03</pdfrwt>
<pdfrwt beam="2">  1       -2 0.19072687E+00 0.86072776E+03</pdfrwt>
<totfact> 0.41041387E+00</totfact>
</mgrwt>
</event>
<event>
 4    1  0.5410820E-008  0.2252898E+03  0.7818608E-02  0.1130000E+00
          2   -1    0    0  501    0  0.00000000000E+00  0.00000000000E+00  0.22755063394E+04  0.22755063394E+04  0.25500000000E-02 0. -1.
         -2   -1    0    0    0  501 -0.00000000000E+00 -0.00000000000E+00 -0.42256538677E+02  0.42256538754E+02  0.25500000000E-02 0.  1.
    8880022    1    1    2    0    0  0.14018494076E+03 -0.87818145258E+02  0.32032130992E+03  0.39161363467E+03  0.15294330000E+03 0.  0.
    8880022    1    1    2    0    0 -0.14018494076E+03  0.87818145258E+02  0.19129284908E+04  0.19261492435E+04  0.15294330000E+03 0.  0.
<mgrwt>
<rscale>  0 0.22528981E+03</rscale>
<asrwt>0</asrwt>
<pdfrwt beam="1">  1        2 0.35007782E+00 0.22528981E+03</pdfrwt>
<pdfrwt beam="2">  1       -2 0.65010074E-02 0.22528981E+03</pdfrwt>
<totfact> 0.69987569E+02</totfact>
</mgrwt>
</event>
<event>
 4    1  0.5410820E-008  0.3803939E+03  0.7818608E-02  0.1050788E+00
         -2   -1    0    0    0  501 -0.00000000000E+00  0.00000000000E+00  0.93216466765E+02  0.93216466800E+02  0.25500000000E-02 0.  1.
          2   -1    0    0  501    0  0.00000000000E+00 -0.00000000000E+00 -0.25521257645E+04  0.25521257645E+04  0.25500000000E-02 0. -1.
    8880022    1    1    2    0    0 -0.31719115869E+03  0.14386676688E+03 -0.20573280049E+04  0.20921993334E+04  0.15294330000E+03 0. -1.
    8880022    1    1    2    0    0  0.31719115869E+03 -0.14386676688E+03 -0.40158129282E+03  0.55314289792E+03  0.15294330000E+03 0.  0.
<mgrwt>
<rscale>  0 0.38039392E+03</rscale>
<asrwt>0</asrwt>
<pdfrwt beam="1">  1        2 0.39263468E+00 0.38039392E+03</pdfrwt>
<pdfrwt beam="2">  1       -2 0.14340997E-01 0.38039392E+03</pdfrwt>
<totfact> 0.13513555E+02</totfact>
</mgrwt>
</event>
<event>
 4    1  0.5410820E-008  0.5764226E+03  0.7818608E-02  0.9955566E-01
          2   -1    0    0  501    0  0.00000000000E+00  0.00000000000E+00  0.11569516373E+04  0.11569516373E+04  0.25500000000E-02 0. -1.
         -2   -1    0    0    0  501 -0.00000000000E+00 -0.00000000000E+00 -0.33800346292E+03  0.33800346293E+03  0.25500000000E-02 0.  1.
    8880022    1    1    2    0    0  0.20071582078E+03  0.51825143816E+03  0.69929783639E+03  0.90624528185E+03  0.15294330000E+03 0.  0.
    8880022    1    1    2    0    0 -0.20071582078E+03 -0.51825143816E+03  0.11965033798E+03  0.58870981839E+03  0.15294330000E+03 0.  0.
<mgrwt>
<rscale>  0 0.57642263E+03</rscale>
<asrwt>0</asrwt>
<pdfrwt beam="1">  1        2 0.17799256E+00 0.57642263E+03</pdfrwt>
<pdfrwt beam="2">  1       -2 0.52000534E-01 0.57642263E+03</pdfrwt>
<totfact> 0.72555139E+01</totfact>
</mgrwt>
</event>
<event>
 4    1  0.5410820E-008  0.3943580E+03  0.7818608E-02  0.1045751E+00
          2   -1    0    0  501    0  0.00000000000E+00  0.00000000000E+00  0.11671025979E+04  0.11671025979E+04  0.25500000000E-02 0. -1.
         -2   -1    0    0    0  501 -0.00000000000E+00 -0.00000000000E+00 -0.22245961454E+03  0.22245961456E+03  0.25500000000E-02 0.  1.
    8880022    1    1    2    0    0 -0.30859226957E+02  0.36217989572E+03  0.32350051913E+02  0.39568263498E+03  0.15294330000E+03 0.  0.
    8880022    1    1    2    0    0  0.30859226957E+02 -0.36217989572E+03  0.91229293146E+03  0.99387957749E+03  0.15294330000E+03 0. -1.
<mgrwt>
<rscale>  0 0.39435799E+03</rscale>
<asrwt>0</asrwt>
<pdfrwt beam="1">  1        2 0.17955424E+00 0.39435799E+03</pdfrwt>
<pdfrwt beam="2">  1       -2 0.34224557E-01 0.39435799E+03</pdfrwt>
<totfact> 0.16585346E+02</totfact>
</mgrwt>
</event>
<event>
 4    1  0.5410820E-008  0.4358107E+03  0.7818608E-02  0.1032040E+00
          2   -1    0    0  501    0  0.00000000000E+00  0.00000000000E+00  0.34593852764E+03  0.34593852765E+03  0.25500000000E-02 0. -1.
         -2   -1    0    0    0  501 -0.00000000000E+00 -0.00000000000E+00 -0.11013165286E+04  0.11013165286E+04  0.25500000000E-02 0.  1.
    8880022    1    1    2    0    0  0.25946009507E+03 -0.31499163862E+03 -0.89012648345E+03  0.99108833253E+03  0.15294330000E+03 0.  0.
    8880022    1    1    2    0    0 -0.25946009507E+03  0.31499163862E+03  0.13474848244E+03  0.45616672377E+03  0.15294330000E+03 0.  0.
<mgrwt>
<rscale>  0 0.43581065E+03</rscale>
<asrwt>0</asrwt>
<pdfrwt beam="1">  1        2 0.53221312E-01 0.43581065E+03</pdfrwt>
<pdfrwt beam="2">  1       -2 0.16943331E+00 0.43581065E+03</pdfrwt>
<totfact> 0.21112319E+01</totfact>
</mgrwt>
</event>
<event>
 4    1  0.5410820E-008  0.4481606E+03  0.7818608E-02  0.1028272E+00
         -2   -1    0    0    0  501 -0.00000000000E+00  0.00000000000E+00  0.20334918543E+03  0.20334918544E+03  0.25500000000E-02 0.  1.
          2   -1    0    0  501    0  0.00000000000E+00 -0.00000000000E+00 -0.22387200615E+04  0.22387200615E+04  0.25500000000E-02 0. -1.
    8880022    1    1    2    0    0  0.20725895904E+03 -0.36674235640E+03 -0.10491763920E+03  0.46027773802E+03  0.15294330000E+03 0.  0.
    8880022    1    1    2    0    0 -0.20725895904E+03  0.36674235640E+03 -0.19304532368E+04  0.19817915089E+04  0.15294330000E+03 0.  0.
<mgrwt>
<rscale>  0 0.44816056E+03</rscale>
<asrwt>0</asrwt>
<pdfrwt beam="1">  1        2 0.34441845E+00 0.44816056E+03</pdfrwt>
<pdfrwt beam="2">  1       -2 0.31284492E-01 0.44816056E+03</pdfrwt>
<totfact> 0.50609726E+01</totfact>
</mgrwt>
</event>
<event>
 4    1  0.5410820E-008  0.1086399E+04  0.7818608E-02  0.9218551E-01
         -2   -1    0    0    0  501 -0.00000000000E+00  0.00000000000E+00  0.49011145973E+03  0.49011145974E+03  0.25500000000E-02 0.  1.
          2   -1    0    0  501    0  0.00000000000E+00 -0.00000000000E+00 -0.32894675122E+04  0.32894675122E+04  0.25500000000E-02 0. -1.
    8880022    1    1    2    0    0 -0.24165599146E+03  0.10480806880E+04 -0.42150297385E+03  0.11653013158E+04  0.15294330000E+03 0.  0.
    8880022    1    1    2    0    0  0.24165599146E+03 -0.10480806880E+04 -0.23778530787E+04  0.26142776561E+04  0.15294330000E+03 0.  0.
<mgrwt>
<rscale>  0 0.10863988E+04</rscale>
<asrwt>0</asrwt>
<pdfrwt beam="1">  1        2 0.50607191E+00 0.10863988E+04</pdfrwt>
<pdfrwt beam="2">  1       -2 0.75401765E-01 0.10863988E+04</pdfrwt>
<totfact> 0.18142505E+00</totfact>
</mgrwt>
</event>
<event>
 4    1  0.5410820E-008  0.6221935E+03  0.7818608E-02  0.9860402E-01
         -2   -1    0    0    0  501 -0.00000000000E+00  0.00000000000E+00  0.80863875549E+03  0.80863875549E+03  0.25500000000E-02 0.  1.
          2   -1    0    0  501    0  0.00000000000E+00 -0.00000000000E+00 -0.12335626778E+04  0.12335626778E+04  0.25500000000E-02 0. -1.
    8880022    1    1    2    0    0 -0.28773277730E+03 -0.53004049239E+03  0.58628920275E+03  0.85490336120E+03  0.15294330000E+03 0.  0.
    8880022    1    1    2    0    0  0.28773277730E+03  0.53004049239E+03 -0.10112131251E+04  0.11872980721E+04  0.15294330000E+03 0.  0.
<mgrwt>
<rscale>  0 0.62219348E+03</rscale>
<asrwt>0</asrwt>
<pdfrwt beam="1">  1        2 0.18977887E+00 0.62219348E+03</pdfrwt>
<pdfrwt beam="2">  1       -2 0.12440596E+00 0.62219348E+03</pdfrwt>
<totfact> 0.91217297E+00</totfact>
</mgrwt>
</event>
<event>
 4    1  0.5410820E-008  0.1578351E+04  0.7818608E-02  0.8833959E-01
         -2   -1    0    0    0  501 -0.00000000000E+00  0.00000000000E+00  0.12326354785E+04  0.12326354785E+04  0.25500000000E-02 0.  1.
          2   -1    0    0  501    0  0.00000000000E+00 -0.00000000000E+00 -0.42687457116E+04  0.42687457116E+04  0.25500000000E-02 0. -1.
    8880022    1    1    2    0    0  0.15116832860E+04 -0.42733431456E+03 -0.35140634131E+04  0.38522505497E+04  0.15294330000E+03 0.  0.
    8880022    1    1    2    0    0 -0.15116832860E+04  0.42733431456E+03  0.47795317995E+03  0.16491306403E+04  0.15294330000E+03 0.  0.
<mgrwt>
<rscale>  0 0.15783512E+04</rscale>
<asrwt>0</asrwt>
<pdfrwt beam="1">  1        2 0.65673010E+00 0.15783512E+04</pdfrwt>
<pdfrwt beam="2">  1       -2 0.18963623E+00 0.15783512E+04</pdfrwt>
<totfact> 0.29971932E-02</totfact>
</mgrwt>
</event>
<event>
 4    1  0.5410820E-008  0.6621867E+03  0.7818608E-02  0.9784177E-01
          2   -1    0    0  501    0  0.00000000000E+00  0.00000000000E+00  0.43314812897E+04  0.43314812897E+04  0.25500000000E-02 0. -1.
         -2   -1    0    0    0  501 -0.00000000000E+00 -0.00000000000E+00 -0.37969294805E+03  0.37969294806E+03  0.25500000000E-02 0.  1.
    8880022    1    1    2    0    0 -0.41852881065E+03  0.48982973705E+03  0.39931633446E+04  0.40476962196E+04  0.15294330000E+03 0.  0.
    8880022    1    1    2    0    0  0.41852881065E+03 -0.48982973705E+03 -0.41375002980E+02  0.66347801812E+03  0.15294330000E+03 0.  0.
<mgrwt>
<rscale>  0 0.66218667E+03</rscale>
<asrwt>0</asrwt>
<pdfrwt beam="1">  1        2 0.66638166E+00 0.66218667E+03</pdfrwt>
<pdfrwt beam="2">  1       -2 0.58414306E-01 0.66218667E+03</pdfrwt>
<totfact> 0.56532141E-01</totfact>
</mgrwt>
</event>
<event>
 4    1  0.5410820E-008  0.1076211E+04  0.7818608E-02  0.9228693E-01
          2   -1    0    0  501    0  0.00000000000E+00  0.00000000000E+00  0.17074680485E+04  0.17074680485E+04  0.25500000000E-02 0. -1.
         -2   -1    0    0    0  501 -0.00000000000E+00 -0.00000000000E+00 -0.13793099566E+04  0.13793099566E+04  0.25500000000E-02 0.  1.
    8880022    1    1    2    0    0 -0.47237299351E+03  0.95483114853E+03 -0.93618420919E+03  0.14264190456E+04  0.15294330000E+03 0.  0.
    8880022    1    1    2    0    0  0.47237299351E+03 -0.95483114853E+03  0.12643423010E+04  0.16603589595E+04  0.15294330000E+03 0.  0.
<mgrwt>
<rscale>  0 0.10762111E+04</rscale>
<asrwt>0</asrwt>
<pdfrwt beam="1">  1        2 0.26268739E+00 0.10762111E+04</pdfrwt>
<pdfrwt beam="2">  1       -2 0.21220153E+00 0.10762111E+04</pdfrwt>
<totfact> 0.10610603E+00</totfact>
</mgrwt>
</event>
<event>
 4    1  0.1010960E-007  0.1006957E+04  0.7818608E-02  0.9300947E-01
          2   -1    0    0  501    0  0.00000000000E+00  0.00000000000E+00  0.17787885746E+04  0.17787885746E+04  0.25500000000E-02 0. -1.
         -2   -1    0    0    0  501 -0.00000000000E+00 -0.00000000000E+00 -0.22022490772E+04  0.22022490772E+04  0.25500000000E-02 0.  1.
    8880022    1    1    2    0    0  0.91340230265E+03 -0.39530703130E+03  0.15019203575E+04  0.18082388749E+04  0.15294330000E+03 0.  0.
    8880022    1    1    2    0    0 -0.91340230265E+03  0.39530703130E+03 -0.19253808600E+04  0.21727987769E+04  0.15294330000E+03 0.  1.
<mgrwt>
<rscale>  0 0.10069573E+04</rscale>
<asrwt>0</asrwt>
<pdfrwt beam="1">  1        2 0.27365978E+00 0.10069573E+04</pdfrwt>
<pdfrwt beam="2">  1       -2 0.33880755E+00 0.10069573E+04</pdfrwt>
<totfact> 0.16418106E-01</totfact>
</mgrwt>
</event>
<event>
 4    1  0.5410820E-008  0.3543534E+03  0.7818608E-02  0.1060842E+00
         -2   -1    0    0    0  501 -0.00000000000E+00  0.00000000000E+00  0.94426782088E+02  0.94426782122E+02  0.25500000000E-02 0.  1.
          2   -1    0    0  501    0  0.00000000000E+00 -0.00000000000E+00 -0.27208528406E+04  0.27208528406E+04  0.25500000000E-02 0. -1.
    8880022    1    1    2    0    0  0.57883997429E+02  0.31436301907E+03 -0.30671060838E+03  0.46865521999E+03  0.15294330000E+03 0.  0.
    8880022    1    1    2    0    0 -0.57883997429E+02 -0.31436301907E+03 -0.23197154501E+04  0.23466244027E+04  0.15294330000E+03 0. -1.
<mgrwt>
<rscale>  0 0.35435338E+03</rscale>
<asrwt>0</asrwt>
<pdfrwt beam="1">  1        2 0.41859269E+00 0.35435338E+03</pdfrwt>
<pdfrwt beam="2">  1       -2 0.14527199E-01 0.35435338E+03</pdfrwt>
<totfact> 0.10691124E+02</totfact>
</mgrwt>
</event>
<event>
 4    1  0.5410820E-008  0.7796558E+03  0.7818608E-02  0.9589940E-01
         -2   -1    0    0    0  501 -0.00000000000E+00  0.00000000000E+00  0.22573474269E+04  0.22573474269E+04  0.25500000000E-02 0.  1.
          2   -1    0    0  501    0  0.00000000000E+00 -0.00000000000E+00 -0.53644638563E+03  0.53644638563E+03  0.25500000000E-02 0. -1.
    8880022    1    1    2    0    0  0.44931122049E+02 -0.76318589123E+03  0.18462541839E+04  0.20041251645E+04  0.15294330000E+03 0.  1.
    8880022    1    1    2    0    0 -0.44931122049E+02  0.76318589123E+03 -0.12535314265E+03  0.78966864804E+03  0.15294330000E+03 0.  0.
<mgrwt>
<rscale>  0 0.77965580E+03</rscale>
<asrwt>0</asrwt>
<pdfrwt beam="1">  1        2 0.82530215E-01 0.77965580E+03</pdfrwt>
<pdfrwt beam="2">  1       -2 0.34728421E+00 0.77965580E+03</pdfrwt>
<totfact> 0.96189376E-01</totfact>
</mgrwt>
</event>
<event>
 4    1  0.5780662E-008  0.9644114E+03  0.7818608E-02  0.9348463E-01
         -2   -1    0    0    0  501 -0.00000000000E+00  0.00000000000E+00  0.10440071156E+04  0.10440071156E+04  0.25500000000E-02 0.  1.
          2   -1    0    0  501    0  0.00000000000E+00 -0.00000000000E+00 -0.23349231476E+04  0.23349231476E+04  0.25500000000E-02 0. -1.
    8880022    1    1    2    0    0 -0.18720453285E+03 -0.93362311493E+03  0.68316695387E+03  0.11818656428E+04  0.15294330000E+03 0.  0.
    8880022    1    1    2    0    0  0.18720453285E+03  0.93362311493E+03 -0.19740829858E+04  0.21970646203E+04  0.15294330000E+03 0.  0.
<mgrwt>
<rscale>  0 0.96441138E+03</rscale>
<asrwt>0</asrwt>
<pdfrwt beam="1">  1        2 0.35921894E+00 0.96441138E+03</pdfrwt>
<pdfrwt beam="2">  1       -2 0.16061648E+00 0.96441138E+03</pdfrwt>
<totfact> 0.10884793E+00</totfact>
</mgrwt>
</event>
<event>
 4    1  0.5410820E-008  0.2656229E+03  0.7818608E-02  0.1103811E+00
          2   -1    0    0  501    0  0.00000000000E+00  0.00000000000E+00  0.55142480663E+03  0.55142480664E+03  0.25500000000E-02 0. -1.
         -2   -1    0    0    0  501 -0.00000000000E+00 -0.00000000000E+00 -0.35427760108E+03  0.35427760109E+03  0.25500000000E-02 0.  1.
    8880022    1    1    2    0    0 -0.64921651376E+01  0.21707539196E+03  0.46052576979E+03  0.53163851597E+03  0.15294330000E+03 0.  0.
    8880022    1    1    2    0    0  0.64921651376E+01 -0.21707539196E+03 -0.26337856424E+03  0.37406389176E+03  0.15294330000E+03 0.  0.
<mgrwt>
<rscale>  0 0.26562290E+03</rscale>
<asrwt>0</asrwt>
<pdfrwt beam="1">  1        2 0.84834585E-01 0.26562290E+03</pdfrwt>
<pdfrwt beam="2">  1       -2 0.54504247E-01 0.26562290E+03</pdfrwt>
<totfact> 0.18136936E+02</totfact>
</mgrwt>
</event>
<event>
 4    1  0.5410820E-008  0.4449844E+03  0.7818608E-02  0.1029228E+00
          2   -1    0    0  501    0  0.00000000000E+00  0.00000000000E+00  0.25699959185E+04  0.25699959185E+04  0.25500000000E-02 0. -1.
         -2   -1    0    0    0  501 -0.00000000000E+00 -0.00000000000E+00 -0.39796538369E+03  0.39796538370E+03  0.25500000000E-02 0.  1.
    8880022    1    1    2    0    0  0.36403880902E+03 -0.20517114448E+03  0.24186242054E+04  0.24592181996E+04  0.15294330000E+03 0. -1.
    8880022    1    1    2    0    0 -0.36403880902E+03  0.20517114448E+03 -0.24659367066E+03  0.50874310258E+03  0.15294330000E+03 0.  0.
<mgrwt>
<rscale>  0 0.44498439E+03</rscale>
<asrwt>0</asrwt>
<pdfrwt beam="1">  1        2 0.39538399E+00 0.44498439E+03</pdfrwt>
<pdfrwt beam="2">  1       -2 0.61225444E-01 0.44498439E+03</pdfrwt>
<totfact> 0.88495057E+00</totfact>
</mgrwt>
</event>
<event>
 4    1  0.5410820E-008  0.2074034E+03  0.7818608E-02  0.1143639E+00
          2   -1    0    0  501    0  0.00000000000E+00  0.00000000000E+00  0.36792416646E+04  0.36792416646E+04  0.25500000000E-02 0. -1.
         -2   -1    0    0    0  501 -0.00000000000E+00 -0.00000000000E+00 -0.16093892796E+03  0.16093892798E+03  0.25500000000E-02 0.  1.
    8880022    1    1    2    0    0  0.68196828401E+02 -0.12236713429E+03  0.36081832571E+04  0.36141392603E+04  0.15294330000E+03 0.  0.
    8880022    1    1    2    0    0 -0.68196828401E+02  0.12236713429E+03 -0.89880520418E+02  0.22604133233E+03  0.15294330000E+03 0.  0.
<mgrwt>
<rscale>  0 0.20740341E+03</rscale>
<asrwt>0</asrwt>
<pdfrwt beam="1">  1        2 0.56603722E+00 0.20740341E+03</pdfrwt>
<pdfrwt beam="2">  1       -2 0.24759833E-01 0.20740341E+03</pdfrwt>
<totfact> 0.11676209E+01</totfact>
</mgrwt>
</event>
<event>
 4    1  0.5410820E-008  0.8499911E+03  0.7818608E-02  0.9490349E-01
          2   -1    0    0  501    0  0.00000000000E+00  0.00000000000E+00  0.14726440927E+04  0.14726440927E+04  0.25500000000E-02 0. -1.
         -2   -1    0    0    0  501 -0.00000000000E+00 -0.00000000000E+00 -0.74490749536E+03  0.74490749537E+03  0.25500000000E-02 0.  1.
    8880022    1    1    2    0    0  0.61943983624E+03 -0.56159378235E+03 -0.28397327053E+03  0.89617283963E+03  0.15294330000E+03 0.  0.
    8880022    1    1    2    0    0 -0.61943983624E+03  0.56159378235E+03  0.10117098679E+04  0.13213787485E+04  0.15294330000E+03 0.  0.
<mgrwt>
<rscale>  0 0.84999114E+03</rscale>
<asrwt>0</asrwt>
<pdfrwt beam="1">  1        2 0.22656063E+00 0.84999114E+03</pdfrwt>
<pdfrwt beam="2">  1       -2 0.11460115E+00 0.84999114E+03</pdfrwt>
<totfact> 0.79096599E+00</totfact>
</mgrwt>
</event>
<event>
 4    1  0.5410820E-008  0.5206282E+03  0.7818608E-02  0.1008531E+00
          2   -1    0    0  501    0  0.00000000000E+00  0.00000000000E+00  0.14293257281E+04  0.14293257281E+04  0.25500000000E-02 0. -1.
         -2   -1    0    0    0  501 -0.00000000000E+00 -0.00000000000E+00 -0.30546418604E+03  0.30546418605E+03  0.25500000000E-02 0.  1.
    8880022    1    1    2    0    0 -0.47147528881E+03  0.15928953171E+03  0.27808039605E+02  0.52137035105E+03  0.15294330000E+03 0.  0.
    8880022    1    1    2    0    0  0.47147528881E+03 -0.15928953171E+03  0.10960535025E+04  0.12134195631E+04  0.15294330000E+03 0.  0.
<mgrwt>
<rscale>  0 0.52062823E+03</rscale>
<asrwt>0</asrwt>
<pdfrwt beam="1">  1        2 0.21989627E+00 0.52062823E+03</pdfrwt>
<pdfrwt beam="2">  1       -2 0.46994489E-01 0.52062823E+03</pdfrwt>
<totfact> 0.62611736E+01</totfact>
</mgrwt>
</event>
<event>
 4    1  0.5410820E-008  0.5030553E+03  0.7818608E-02  0.1012984E+00
          2   -1    0    0  501    0  0.00000000000E+00  0.00000000000E+00  0.45916987801E+03  0.45916987802E+03  0.25500000000E-02 0. -1.
         -2   -1    0    0    0  501 -0.00000000000E+00 -0.00000000000E+00 -0.11014723676E+04  0.11014723676E+04  0.25500000000E-02 0.  1.
    8880022    1    1    2    0    0  0.38380433479E+03  0.28699692233E+03  0.23041922503E+03  0.55331516616E+03  0.15294330000E+03 0.  0.
    8880022    1    1    2    0    0 -0.38380433479E+03 -0.28699692233E+03 -0.87272171461E+03  0.10073270795E+04  0.15294330000E+03 0.  0.
<mgrwt>
<rscale>  0 0.50305532E+03</rscale>
<asrwt>0</asrwt>
<pdfrwt beam="1">  1        2 0.70641520E-01 0.50305532E+03</pdfrwt>
<pdfrwt beam="2">  1       -2 0.16945729E+00 0.50305532E+03</pdfrwt>
<totfact> 0.15253646E+01</totfact>
</mgrwt>
</event>
<event>
 4    1  0.5410820E-008  0.7065021E+03  0.7818608E-02  0.9706177E-01
         -2   -1    0    0    0  501 -0.00000000000E+00  0.00000000000E+00  0.18169644792E+04  0.18169644792E+04  0.25500000000E-02 0.  1.
          2   -1    0    0  501    0  0.00000000000E+00 -0.00000000000E+00 -0.69024244509E+03  0.69024244510E+03  0.25500000000E-02 0. -1.
    8880022    1    1    2    0    0  0.41632275723E+03 -0.54993543574E+03 -0.40929621254E+03  0.81649780422E+03  0.15294330000E+03 0.  0.
    8880022    1    1    2    0    0 -0.41632275723E+03  0.54993543574E+03  0.15360182467E+04  0.16907091201E+04  0.15294330000E+03 0.  0.
<mgrwt>
<rscale>  0 0.70650214E+03</rscale>
<asrwt>0</asrwt>
<pdfrwt beam="1">  1        2 0.10619115E+00 0.70650214E+03</pdfrwt>
<pdfrwt beam="2">  1       -2 0.27953299E+00 0.70650214E+03</pdfrwt>
<totfact> 0.18482666E+00</totfact>
</mgrwt>
</event>
<event>
 4    1  0.5410820E-008  0.9339892E+03  0.7818608E-02  0.9384063E-01
          2   -1    0    0  501    0  0.00000000000E+00  0.00000000000E+00  0.33877730999E+04  0.33877730999E+04  0.25500000000E-02 0. -1.
         -2   -1    0    0    0  501 -0.00000000000E+00 -0.00000000000E+00 -0.27412999440E+03  0.27412999441E+03  0.25500000000E-02 0.  1.
    8880022    1    1    2    0    0  0.29063271687E+03  0.87434362501E+03  0.20078515186E+04  0.22144533240E+04  0.15294330000E+03 0.  0.
    8880022    1    1    2    0    0 -0.29063271687E+03 -0.87434362501E+03  0.11057915869E+04  0.14474497702E+04  0.15294330000E+03 0.  0.
<mgrwt>
<rscale>  0 0.93398919E+03</rscale>
<asrwt>0</asrwt>
<pdfrwt beam="1">  1        2 0.52119587E+00 0.93398919E+03</pdfrwt>
<pdfrwt beam="2">  1       -2 0.42173845E-01 0.93398919E+03</pdfrwt>
<totfact> 0.54082419E+00</totfact>
</mgrwt>
</event>
<event>
 4    1  0.5410820E-008  0.3653802E+03  0.7818608E-02  0.1056474E+00
         -2   -1    0    0    0  501 -0.00000000000E+00  0.00000000000E+00  0.63363514090E+03  0.63363514091E+03  0.25500000000E-02 0.  1.
          2   -1    0    0  501    0  0.00000000000E+00 -0.00000000000E+00 -0.11429228859E+04  0.11429228859E+04  0.25500000000E-02 0. -1.
    8880022    1    1    2    0    0  0.15768995393E+03 -0.29196727029E+03 -0.10568803111E+04  0.11182569711E+04  0.15294330000E+03 0.  0.
    8880022    1    1    2    0    0 -0.15768995393E+03  0.29196727029E+03  0.54759256608E+03  0.65830105569E+03  0.15294330000E+03 0.  0.
<mgrwt>
<rscale>  0 0.36538016E+03</rscale>
<asrwt>0</asrwt>
<pdfrwt beam="1">  1        2 0.17583429E+00 0.36538016E+03</pdfrwt>
<pdfrwt beam="2">  1       -2 0.97482329E-01 0.36538016E+03</pdfrwt>
<totfact> 0.19463624E+01</totfact>
</mgrwt>
</event>
<event>
 4    1  0.5410820E-008  0.4036515E+03  0.7818608E-02  0.1042523E+00
          2   -1    0    0  501    0  0.00000000000E+00  0.00000000000E+00  0.88980547092E+03  0.88980547093E+03  0.25500000000E-02 0. -1.
         -2   -1    0    0    0  501 -0.00000000000E+00 -0.00000000000E+00 -0.23628766452E+03  0.23628766454E+03  0.25500000000E-02 0.  1.
    8880022    1    1    2    0    0  0.29472815609E+03  0.22951729345E+03  0.59656308109E+02  0.40803603039E+03  0.15294330000E+03 0.  0.
    8880022    1    1    2    0    0 -0.29472815609E+03 -0.22951729345E+03  0.59386149829E+03  0.71805710508E+03  0.15294330000E+03 0.  0.
<mgrwt>
<rscale>  0 0.40365149E+03</rscale>
<asrwt>0</asrwt>
<pdfrwt beam="1">  1        2 0.13689315E+00 0.40365149E+03</pdfrwt>
<pdfrwt beam="2">  1       -2 0.36351948E-01 0.40365149E+03</pdfrwt>
<totfact> 0.21945656E+02</totfact>
</mgrwt>
</event>
<event>
 4    1  0.5410820E-008  0.5466967E+03  0.7818608E-02  0.1002261E+00
          2   -1    0    0  501    0  0.00000000000E+00  0.00000000000E+00  0.59092954905E+03  0.59092954906E+03  0.25500000000E-02 0. -1.
         -2   -1    0    0    0  501 -0.00000000000E+00 -0.00000000000E+00 -0.16977336110E+04  0.16977336110E+04  0.25500000000E-02 0.  1.
    8880022    1    1    2    0    0 -0.52349566813E+03  0.37919393717E+02 -0.15122455614E+04  0.16080310587E+04  0.15294330000E+03 0.  0.
    8880022    1    1    2    0    0  0.52349566813E+03 -0.37919393717E+02  0.40544149938E+03  0.68063210136E+03  0.15294330000E+03 0.  0.
<mgrwt>
<rscale>  0 0.54669667E+03</rscale>
<asrwt>0</asrwt>
<pdfrwt beam="1">  1        2 0.90912239E-01 0.54669667E+03</pdfrwt>
<pdfrwt beam="2">  1       -2 0.26118978E+00 0.54669667E+03</pdfrwt>
<totfact> 0.29637996E+00</totfact>
</mgrwt>
</event>
<event>
 4    1  0.5410820E-008  0.6442385E+03  0.7818608E-02  0.9817651E-01
          2   -1    0    0  501    0  0.00000000000E+00  0.00000000000E+00  0.11327235970E+04  0.11327235970E+04  0.25500000000E-02 0. -1.
         -2   -1    0    0    0  501 -0.00000000000E+00 -0.00000000000E+00 -0.10266524027E+04  0.10266524027E+04  0.25500000000E-02 0.  1.
    8880022    1    1    2    0    0  0.57352822265E+03  0.25043344291E+03  0.91887571788E+03  0.11222191272E+04  0.15294330000E+03 0.  0.
    8880022    1    1    2    0    0 -0.57352822265E+03 -0.25043344291E+03 -0.81280452357E+03  0.10371568724E+04  0.15294330000E+03 0.  0.
<mgrwt>
<rscale>  0 0.64423845E+03</rscale>
<asrwt>0</asrwt>
<pdfrwt beam="1">  1        2 0.17426517E+00 0.64423845E+03</pdfrwt>
<pdfrwt beam="2">  1       -2 0.15794652E+00 0.64423845E+03</pdfrwt>
<totfact> 0.56282940E+00</totfact>
</mgrwt>
</event>
<event>
 4    1  0.5410820E-008  0.8646530E+03  0.7818608E-02  0.9470878E-01
          2   -1    0    0  501    0  0.00000000000E+00  0.00000000000E+00  0.11825253375E+04  0.11825253375E+04  0.25500000000E-02 0. -1.
         -2   -1    0    0    0  501 -0.00000000000E+00 -0.00000000000E+00 -0.96211078326E+03  0.96211078327E+03  0.25500000000E-02 0.  1.
    8880022    1    1    2    0    0 -0.48009175404E+03 -0.70266998867E+03  0.73810850680E+03  0.11368504854E+04  0.15294330000E+03 0.  0.
    8880022    1    1    2    0    0  0.48009175404E+03  0.70266998867E+03 -0.51769395259E+03  0.10077856354E+04  0.15294330000E+03 0.  0.
<mgrwt>
<rscale>  0 0.86465303E+03</rscale>
<asrwt>0</asrwt>
<pdfrwt beam="1">  1        2 0.18192697E+00 0.86465303E+03</pdfrwt>
<pdfrwt beam="2">  1       -2 0.14801704E+00 0.86465303E+03</pdfrwt>
<totfact> 0.60592343E+00</totfact>
</mgrwt>
</event>
<event>
 4    1  0.5410820E-008  0.3409316E+03  0.7818608E-02  0.1066400E+00
          2   -1    0    0  501    0  0.00000000000E+00  0.00000000000E+00  0.22813219460E+04  0.22813219460E+04  0.25500000000E-02 0. -1.
         -2   -1    0    0    0  501 -0.00000000000E+00 -0.00000000000E+00 -0.29584550498E+03  0.29584550499E+03  0.25500000000E-02 0.  1.
    8880022    1    1    2    0    0 -0.25253511916E+03 -0.17049551340E+03 -0.17964655534E+03  0.38536637679E+03  0.15294330000E+03 0.  1.
    8880022    1    1    2    0    0  0.25253511916E+03  0.17049551340E+03  0.21651229964E+04  0.21918010742E+04  0.15294330000E+03 0.  0.
<mgrwt>
<rscale>  0 0.34093161E+03</rscale>
<asrwt>0</asrwt>
<pdfrwt beam="1">  1        2 0.35097261E+00 0.34093161E+03</pdfrwt>
<pdfrwt beam="2">  1       -2 0.45514693E-01 0.34093161E+03</pdfrwt>
<totfact> 0.24124434E+01</totfact>
</mgrwt>
</event>
<event>
 4    1  0.5410820E-008  0.9370771E+03  0.7818608E-02  0.9380384E-01
          2   -1    0    0  501    0  0.00000000000E+00  0.00000000000E+00  0.37461569072E+04  0.37461569072E+04  0.25500000000E-02 0. -1.
         -2   -1    0    0    0  501 -0.00000000000E+00 -0.00000000000E+00 -0.52179928913E+03  0.52179928914E+03  0.25500000000E-02 0.  1.
    8880022    1    1    2    0    0  0.28748571860E+02 -0.92406462074E+03  0.31958979337E+04  0.33304469909E+04  0.15294330000E+03 0.  0.
    8880022    1    1    2    0    0 -0.28748571860E+02  0.92406462074E+03  0.28459684417E+02  0.93750920547E+03  0.15294330000E+03 0.  0.
<mgrwt>
<rscale>  0 0.93707713E+03</rscale>
<asrwt>0</asrwt>
<pdfrwt beam="1">  1        2 0.57633181E+00 0.93707713E+03</pdfrwt>
<pdfrwt beam="2">  1       -2 0.80276817E-01 0.93707713E+03</pdfrwt>
<totfact> 0.78105110E-01</totfact>
</mgrwt>
</event>
<event>
 4    1  0.5410820E-008  0.1891645E+03  0.7818608E-02  0.1159217E+00
          2   -1    0    0  501    0  0.00000000000E+00  0.00000000000E+00  0.82806692807E+03  0.82806692807E+03  0.25500000000E-02 0. -1.
         -2   -1    0    0    0  501 -0.00000000000E+00 -0.00000000000E+00 -0.99114802979E+02  0.99114803011E+02  0.25500000000E-02 0.  1.
    8880022    1    1    2    0    0 -0.37917889232E+02  0.10466036900E+03  0.71263594186E+03  0.73731485663E+03  0.15294330000E+03 0. -1.
    8880022    1    1    2    0    0  0.37917889232E+02 -0.10466036900E+03  0.16316183228E+02  0.18986687445E+03  0.15294330000E+03 0.  0.
<mgrwt>
<rscale>  0 0.18916451E+03</rscale>
<asrwt>0</asrwt>
<pdfrwt beam="1">  1        2 0.12739491E+00 0.18916451E+03</pdfrwt>
<pdfrwt beam="2">  1       -2 0.15248431E-01 0.18916451E+03</pdfrwt>
<totfact> 0.11317418E+03</totfact>
</mgrwt>
</event>
<event>
 4    1  0.5410820E-008  0.3828382E+03  0.7818608E-02  0.1049890E+00
         -2   -1    0    0    0  501 -0.00000000000E+00  0.00000000000E+00  0.28979982564E+03  0.28979982565E+03  0.25500000000E-02 0.  1.
          2   -1    0    0  501    0  0.00000000000E+00 -0.00000000000E+00 -0.11287078897E+04  0.11287078897E+04  0.25500000000E-02 0. -1.
    8880022    1    1    2    0    0 -0.35095194977E+03  0.24848065578E+01 -0.94637037740E+03  0.10208731506E+04  0.15294330000E+03 0. -1.
    8880022    1    1    2    0    0  0.35095194977E+03 -0.24848065578E+01  0.10746231334E+03  0.39763456479E+03  0.15294330000E+03 0.  0.
<mgrwt>
<rscale>  0 0.38283821E+03</rscale>
<asrwt>0</asrwt>
<pdfrwt beam="1">  1        2 0.17364737E+00 0.38283821E+03</pdfrwt>
<pdfrwt beam="2">  1       -2 0.44584589E-01 0.38283821E+03</pdfrwt>
<totfact> 0.10526240E+02</totfact>
</mgrwt>
</event>
<event>
 4    1  0.5410820E-008  0.5046008E+03  0.7818608E-02  0.1012585E+00
         -2   -1    0    0    0  501 -0.00000000000E+00  0.00000000000E+00  0.10968825864E+04  0.10968825864E+04  0.25500000000E-02 0.  1.
          2   -1    0    0  501    0  0.00000000000E+00 -0.00000000000E+00 -0.51901891565E+03  0.51901891566E+03  0.25500000000E-02 0. -1.
    8880022    1    1    2    0    0 -0.13957056525E+03  0.46016339570E+03 -0.31175538455E+03  0.59313857254E+03  0.15294330000E+03 0.  0.
    8880022    1    1    2    0    0  0.13957056525E+03 -0.46016339570E+03  0.88961905531E+03  0.10227629295E+04  0.15294330000E+03 0.  0.
<mgrwt>
<rscale>  0 0.50460078E+03</rscale>
<asrwt>0</asrwt>
<pdfrwt beam="1">  1        2 0.79849064E-01 0.50460078E+03</pdfrwt>
<pdfrwt beam="2">  1       -2 0.16875117E+00 0.50460078E+03</pdfrwt>
<totfact> 0.13409202E+01</totfact>
</mgrwt>
</event>
<event>
 4    1  0.5410820E-008  0.5821928E+03  0.7818608E-02  0.9943055E-01
         -2   -1    0    0    0  501 -0.00000000000E+00  0.00000000000E+00  0.56941968723E+03  0.56941968724E+03  0.25500000000E-02 0.  1.
          2   -1    0    0  501    0  0.00000000000E+00 -0.00000000000E+00 -0.14828945845E+04  0.14828945845E+04  0.25500000000E-02 0. -1.
    8880022    1    1    2    0    0 -0.28880413647E+03 -0.48181838747E+03 -0.12506591888E+04  0.13795277624E+04  0.15294330000E+03 0. -1.
    8880022    1    1    2    0    0  0.28880413647E+03  0.48181838747E+03  0.33718429148E+03  0.67278650936E+03  0.15294330000E+03 0.  0.
<mgrwt>
<rscale>  0 0.58219279E+03</rscale>
<asrwt>0</asrwt>
<pdfrwt beam="1">  1        2 0.22813763E+00 0.58219279E+03</pdfrwt>
<pdfrwt beam="2">  1       -2 0.87603030E-01 0.58219279E+03</pdfrwt>
<totfact> 0.15314341E+01</totfact>
</mgrwt>
</event>
<event>
 4    1  0.5410820E-008  0.1228423E+04  0.7818608E-02  0.9088335E-01
         -2   -1    0    0    0  501 -0.00000000000E+00  0.00000000000E+00  0.94227139107E+03  0.94227139107E+03  0.25500000000E-02 0.  1.
          2   -1    0    0  501    0  0.00000000000E+00 -0.00000000000E+00 -0.23541876326E+04  0.23541876326E+04  0.25500000000E-02 0. -1.
    8880022    1    1    2    0    0 -0.11648470289E+04 -0.35883677607E+03 -0.16379491851E+04  0.20474133971E+04  0.15294330000E+03 0.  0.
    8880022    1    1    2    0    0  0.11648470289E+04  0.35883677607E+03  0.22603294354E+03  0.12490456266E+04  0.15294330000E+03 0.  0.
<mgrwt>
<rscale>  0 0.12284234E+04</rscale>
<asrwt>0</asrwt>
<pdfrwt beam="1">  1        2 0.36218271E+00 0.12284234E+04</pdfrwt>
<pdfrwt beam="2">  1       -2 0.14496483E+00 0.12284234E+04</pdfrwt>
<totfact> 0.13475017E+00</totfact>
</mgrwt>
</event>
<event>
 4    1  0.5410820E-008  0.4176421E+03  0.7818608E-02  0.1037836E+00
         -2   -1    0    0    0  501 -0.00000000000E+00  0.00000000000E+00  0.27849615888E+03  0.27849615889E+03  0.25500000000E-02 0.  1.
          2   -1    0    0  501    0  0.00000000000E+00 -0.00000000000E+00 -0.15259972653E+04  0.15259972653E+04  0.25500000000E-02 0. -1.
    8880022    1    1    2    0    0 -0.20748167207E+03  0.32861012043E+03 -0.13165287883E+04  0.13811853456E+04  0.15294330000E+03 0. -1.
    8880022    1    1    2    0    0  0.20748167207E+03 -0.32861012043E+03  0.69027681896E+02  0.42330807856E+03  0.15294330000E+03 0.  0.
<mgrwt>
<rscale>  0 0.41764208E+03</rscale>
<asrwt>0</asrwt>
<pdfrwt beam="1">  1        2 0.23476881E+00 0.41764208E+03</pdfrwt>
<pdfrwt beam="2">  1       -2 0.42845564E-01 0.41764208E+03</pdfrwt>
<totfact> 0.67624036E+01</totfact>
</mgrwt>
</event>
<event>
 4    1  0.5410820E-008  0.8468940E+03  0.7818608E-02  0.9494515E-01
          2   -1    0    0  501    0  0.00000000000E+00  0.00000000000E+00  0.11856928439E+04  0.11856928439E+04  0.25500000000E-02 0. -1.
         -2   -1    0    0    0  501 -0.00000000000E+00 -0.00000000000E+00 -0.17645524960E+04  0.17645524960E+04  0.25500000000E-02 0.  1.
    8880022    1    1    2    0    0 -0.28180837972E+03  0.78385060300E+03  0.90641321866E+03  0.12404895432E+04  0.15294330000E+03 0.  0.
    8880022    1    1    2    0    0  0.28180837972E+03 -0.78385060300E+03 -0.14852728708E+04  0.17097557967E+04  0.15294330000E+03 0.  0.
<mgrwt>
<rscale>  0 0.84689396E+03</rscale>
<asrwt>0</asrwt>
<pdfrwt beam="1">  1        2 0.18241428E+00 0.84689396E+03</pdfrwt>
<pdfrwt beam="2">  1       -2 0.27146961E+00 0.84689396E+03</pdfrwt>
<totfact> 0.93894136E-01</totfact>
</mgrwt>
</event>
<event>
 4    1  0.5410820E-008  0.5262079E+03  0.7818608E-02  0.1007156E+00
         -2   -1    0    0    0  501 -0.00000000000E+00  0.00000000000E+00  0.25442490204E+03  0.25442490206E+03  0.25500000000E-02 0.  1.
          2   -1    0    0  501    0  0.00000000000E+00 -0.00000000000E+00 -0.11459089901E+04  0.11459089901E+04  0.25500000000E-02 0. -1.
    8880022    1    1    2    0    0 -0.41699822226E+02  0.50176114158E+03 -0.28877438785E+03  0.60023780160E+03  0.15294330000E+03 0.  0.
    8880022    1    1    2    0    0  0.41699822226E+02 -0.50176114158E+03 -0.60270970017E+03  0.80009609052E+03  0.15294330000E+03 0.  0.
<mgrwt>
<rscale>  0 0.52620792E+03</rscale>
<asrwt>0</asrwt>
<pdfrwt beam="1">  1        2 0.17629369E+00 0.52620792E+03</pdfrwt>
<pdfrwt beam="2">  1       -2 0.39142293E-01 0.52620792E+03</pdfrwt>
<totfact> 0.13019678E+02</totfact>
</mgrwt>
</event>
<event>
 4    1  0.5410820E-008  0.4099402E+03  0.7818608E-02  0.1040391E+00
         -2   -1    0    0    0  501 -0.00000000000E+00  0.00000000000E+00  0.34920271404E+03  0.34920271405E+03  0.25500000000E-02 0.  1.
          2   -1    0    0  501    0  0.00000000000E+00 -0.00000000000E+00 -0.10283426884E+04  0.10283426884E+04  0.25500000000E-02 0. -1.
    8880022    1    1    2    0    0 -0.46737012450E+02  0.37745852835E+03 -0.84195966126E+03  0.93645449070E+03  0.15294330000E+03 0.  0.
    8880022    1    1    2    0    0  0.46737012450E+02 -0.37745852835E+03  0.16281968690E+03  0.44109091174E+03  0.15294330000E+03 0.  1.
<mgrwt>
<rscale>  0 0.40994017E+03</rscale>
<asrwt>0</asrwt>
<pdfrwt beam="1">  1        2 0.15820657E+00 0.40994017E+03</pdfrwt>
<pdfrwt beam="2">  1       -2 0.53723495E-01 0.40994017E+03</pdfrwt>
<totfact> 0.82904256E+01</totfact>
</mgrwt>
</event>
<event>
 4    1  0.5410820E-008  0.4874231E+03  0.7818608E-02  0.1017115E+00
          2   -1    0    0  501    0  0.00000000000E+00  0.00000000000E+00  0.19336168346E+03  0.19336168347E+03  0.25500000000E-02 0. -1.
         -2   -1    0    0    0  501 -0.00000000000E+00 -0.00000000000E+00 -0.16358564635E+04  0.16358564635E+04  0.25500000000E-02 0.  1.
    8880022    1    1    2    0    0  0.38957734198E+03 -0.24983820128E+03 -0.26494821337E+03  0.55477819080E+03  0.15294330000E+03 0. -1.
    8880022    1    1    2    0    0 -0.38957734198E+03  0.24983820128E+03 -0.11775465667E+04  0.12744399562E+04  0.15294330000E+03 0.  1.
<mgrwt>
<rscale>  0 0.48742311E+03</rscale>
<asrwt>0</asrwt>
<pdfrwt beam="1">  1        2 0.29747952E-01 0.48742311E+03</pdfrwt>
<pdfrwt beam="2">  1       -2 0.25167022E+00 0.48742311E+03</pdfrwt>
<totfact> 0.11952645E+01</totfact>
</mgrwt>
</event>
<event>
 4    1  0.5410820E-008  0.6385065E+03  0.7818608E-02  0.9828588E-01
         -2   -1    0    0    0  501 -0.00000000000E+00  0.00000000000E+00  0.93879768775E+03  0.93879768775E+03  0.25500000000E-02 0.  1.
          2   -1    0    0  501    0  0.00000000000E+00 -0.00000000000E+00 -0.48074825691E+03  0.48074825692E+03  0.25500000000E-02 0. -1.
    8880022    1    1    2    0    0  0.30297025216E+03 -0.54084006320E+03  0.44971887769E+03  0.78098506364E+03  0.15294330000E+03 0.  0.
    8880022    1    1    2    0    0 -0.30297025216E+03  0.54084006320E+03  0.83305531447E+01  0.63856088103E+03  0.15294330000E+03 0.  0.
<mgrwt>
<rscale>  0 0.63850654E+03</rscale>
<asrwt>0</asrwt>
<pdfrwt beam="1">  1        2 0.73961271E-01 0.63850654E+03</pdfrwt>
<pdfrwt beam="2">  1       -2 0.14443041E+00 0.63850654E+03</pdfrwt>
<totfact> 0.21840475E+01</totfact>
</mgrwt>
</event>
<event>
 4    1  0.5410820E-008  0.7610511E+03  0.7818608E-02  0.9618171E-01
         -2   -1    0    0    0  501 -0.00000000000E+00  0.00000000000E+00  0.20207260921E+04  0.20207260921E+04  0.25500000000E-02 0.  1.
          2   -1    0    0  501    0  0.00000000000E+00 -0.00000000000E+00 -0.89571533140E+03  0.89571533141E+03  0.25500000000E-02 0. -1.
    8880022    1    1    2    0    0  0.71673469971E+03 -0.20517928203E+03 -0.63997407156E+03  0.99436695079E+03  0.15294330000E+03 0.  0.
    8880022    1    1    2    0    0 -0.71673469971E+03  0.20517928203E+03  0.17649848322E+04  0.19220744727E+04  0.15294330000E+03 0.  0.
<mgrwt>
<rscale>  0 0.76105113E+03</rscale>
<asrwt>0</asrwt>
<pdfrwt beam="1">  1        2 0.13780236E+00 0.76105113E+03</pdfrwt>
<pdfrwt beam="2">  1       -2 0.31088093E+00 0.76105113E+03</pdfrwt>
<totfact> 0.84127676E-01</totfact>
</mgrwt>
</event>
<event>
 4    1  0.5410820E-008  0.9600057E+03  0.7818608E-02  0.9353531E-01
         -2   -1    0    0    0  501 -0.00000000000E+00  0.00000000000E+00  0.20427123141E+04  0.20427123141E+04  0.25500000000E-02 0.  1.
          2   -1    0    0  501    0  0.00000000000E+00 -0.00000000000E+00 -0.68751869098E+03  0.68751869098E+03  0.25500000000E-02 0. -1.
    8880022    1    1    2    0    0 -0.94237257269E+03  0.10076362990E+03  0.14779902391E+04  0.17624035221E+04  0.15294330000E+03 0.  0.
    8880022    1    1    2    0    0  0.94237257269E+03 -0.10076362990E+03 -0.12279661598E+03  0.96782748297E+03  0.15294330000E+03 0.  0.
<mgrwt>
<rscale>  0 0.96000574E+03</rscale>
<asrwt>0</asrwt>
<pdfrwt beam="1">  1        2 0.10577210E+00 0.96000574E+03</pdfrwt>
<pdfrwt beam="2">  1       -2 0.31426344E+00 0.96000574E+03</pdfrwt>
<totfact> 0.11029624E+00</totfact>
</mgrwt>
</event>
<event>
 4    1  0.5410820E-008  0.6438168E+03  0.7818608E-02  0.9818451E-01
          2   -1    0    0  501    0  0.00000000000E+00  0.00000000000E+00  0.17237895959E+04  0.17237895959E+04  0.25500000000E-02 0. -1.
         -2   -1    0    0    0  501 -0.00000000000E+00 -0.00000000000E+00 -0.53349460998E+03  0.53349460998E+03  0.25500000000E-02 0.  1.
    8880022    1    1    2    0    0  0.56923836468E+03  0.25899063924E+03 -0.24132504608E+03  0.68755937774E+03  0.15294330000E+03 0.  0.
    8880022    1    1    2    0    0 -0.56923836468E+03 -0.25899063924E+03  0.14316200320E+04  0.15697248281E+04  0.15294330000E+03 0.  0.
<mgrwt>
<rscale>  0 0.64381684E+03</rscale>
<asrwt>0</asrwt>
<pdfrwt beam="1">  1        2 0.26519840E+00 0.64381684E+03</pdfrwt>
<pdfrwt beam="2">  1       -2 0.82076094E-01 0.64381684E+03</pdfrwt>
<totfact> 0.12972930E+01</totfact>
</mgrwt>
</event>
<event>
 4    1  0.5410820E-008  0.6451912E+03  0.7818608E-02  0.9815845E-01
         -2   -1    0    0    0  501 -0.00000000000E+00  0.00000000000E+00  0.42694229697E+03  0.42694229698E+03  0.25500000000E-02 0.  1.
          2   -1    0    0  501    0  0.00000000000E+00 -0.00000000000E+00 -0.43770903763E+04  0.43770903763E+04  0.25500000000E-02 0. -1.
    8880022    1    1    2    0    0 -0.53827815662E+03 -0.32114894281E+03 -0.40927313654E+04  0.41432742728E+04  0.15294330000E+03 0. -1.
    8880022    1    1    2    0    0  0.53827815662E+03  0.32114894281E+03  0.14258328604E+03  0.66075840050E+03  0.15294330000E+03 0.  0.
<mgrwt>
<rscale>  0 0.64519119E+03</rscale>
<asrwt>0</asrwt>
<pdfrwt beam="1">  1        2 0.67339849E+00 0.64519119E+03</pdfrwt>
<pdfrwt beam="2">  1       -2 0.65683433E-01 0.64519119E+03</pdfrwt>
<totfact> 0.40347303E-01</totfact>
</mgrwt>
</event>
<event>
 4    1  0.5410820E-008  0.5367649E+03  0.7818608E-02  0.1004605E+00
          2   -1    0    0  501    0  0.00000000000E+00  0.00000000000E+00  0.65902266579E+03  0.65902266580E+03  0.25500000000E-02 0. -1.
         -2   -1    0    0    0  501 -0.00000000000E+00 -0.00000000000E+00 -0.89956224416E+03  0.89956224417E+03  0.25500000000E-02 0.  1.
    8880022    1    1    2    0    0 -0.14630296416E+03  0.49327509365E+03  0.43843433024E+03  0.69306651217E+03  0.15294330000E+03 0.  0.
    8880022    1    1    2    0    0  0.14630296416E+03 -0.49327509365E+03 -0.67897390861E+03  0.86551839780E+03  0.15294330000E+03 0.  0.
<mgrwt>
<rscale>  0 0.53676487E+03</rscale>
<asrwt>0</asrwt>
<pdfrwt beam="1">  1        2 0.10138810E+00 0.53676487E+03</pdfrwt>
<pdfrwt beam="2">  1       -2 0.13839419E+00 0.53676487E+03</pdfrwt>
<totfact> 0.16995930E+01</totfact>
</mgrwt>
</event>
<event>
 4    1  0.5410820E-008  0.5070850E+03  0.7818608E-02  0.1011946E+00
         -2   -1    0    0    0  501 -0.00000000000E+00  0.00000000000E+00  0.11560733534E+03  0.11560733537E+03  0.25500000000E-02 0.  1.
          2   -1    0    0  501    0  0.00000000000E+00 -0.00000000000E+00 -0.37445898404E+04  0.37445898404E+04  0.25500000000E-02 0. -1.
    8880022    1    1    2    0    0  0.47699077975E+03 -0.78888357834E+02 -0.58463848693E+03  0.77391045373E+03  0.15294330000E+03 0.  0.
    8880022    1    1    2    0    0 -0.47699077975E+03  0.78888357834E+02 -0.30443440182E+04  0.30862867221E+04  0.15294330000E+03 0. -1.
<mgrwt>
<rscale>  0 0.50708503E+03</rscale>
<asrwt>0</asrwt>
<pdfrwt beam="1">  1        2 0.57609065E+00 0.50708503E+03</pdfrwt>
<pdfrwt beam="2">  1       -2 0.17785747E-01 0.50708503E+03</pdfrwt>
<totfact> 0.16284221E+01</totfact>
</mgrwt>
</event>
<event>
 4    1  0.5410820E-008  0.4327608E+03  0.7818608E-02  0.1032991E+00
          2   -1    0    0  501    0  0.00000000000E+00  0.00000000000E+00  0.47797881956E+03  0.47797881957E+03  0.25500000000E-02 0. -1.
         -2   -1    0    0    0  501 -0.00000000000E+00 -0.00000000000E+00 -0.49301151259E+03  0.49301151260E+03  0.25500000000E-02 0.  1.
    8880022    1    1    2    0    0 -0.40224734861E+03  0.45686975155E+02 -0.22746810121E+03  0.48890041854E+03  0.15294330000E+03 0.  0.
    8880022    1    1    2    0    0  0.40224734861E+03 -0.45686975155E+02  0.21243540818E+03  0.48208991363E+03  0.15294330000E+03 0.  1.
<mgrwt>
<rscale>  0 0.43276077E+03</rscale>
<asrwt>0</asrwt>
<pdfrwt beam="1">  1        2 0.73535203E-01 0.43276077E+03</pdfrwt>
<pdfrwt beam="2">  1       -2 0.75847925E-01 0.43276077E+03</pdfrwt>
<totfact> 0.10430742E+02</totfact>
</mgrwt>
</event>
<event>
 4    1  0.5410820E-008  0.4395739E+03  0.7818608E-02  0.1030878E+00
         -2   -1    0    0    0  501 -0.00000000000E+00  0.00000000000E+00  0.65825679749E+03  0.65825679750E+03  0.25500000000E-02 0.  1.
          2   -1    0    0  501    0  0.00000000000E+00 -0.00000000000E+00 -0.63672761197E+03  0.63672761198E+03  0.25500000000E-02 0. -1.
    8880022    1    1    2    0    0 -0.38003203198E+03  0.15940271521E+03 -0.46459580787E+03  0.63958931249E+03  0.15294330000E+03 0.  0.
    8880022    1    1    2    0    0  0.38003203198E+03 -0.15940271521E+03  0.48612499338E+03  0.65539509699E+03  0.15294330000E+03 0.  0.
<mgrwt>
<rscale>  0 0.43957391E+03</rscale>
<asrwt>0</asrwt>
<pdfrwt beam="1">  1        2 0.97958094E-01 0.43957391E+03</pdfrwt>
<pdfrwt beam="2">  1       -2 0.10127028E+00 0.43957391E+03</pdfrwt>
<totfact> 0.38628274E+01</totfact>
</mgrwt>
</event>
<event>
 4    1  0.5410820E-008  0.2889012E+03  0.7818608E-02  0.1090924E+00
         -2   -1    0    0    0  501 -0.00000000000E+00  0.00000000000E+00  0.49083276530E+03  0.49083276530E+03  0.25500000000E-02 0.  1.
          2   -1    0    0  501    0  0.00000000000E+00 -0.00000000000E+00 -0.34098891574E+03  0.34098891575E+03  0.25500000000E-02 0. -1.
    8880022    1    1    2    0    0  0.16767270679E+03 -0.17876825085E+03  0.36940230487E+03  0.46895835633E+03  0.15294330000E+03 0.  0.
    8880022    1    1    2    0    0 -0.16767270679E+03  0.17876825085E+03 -0.21955845531E+03  0.36286332472E+03  0.15294330000E+03 0. -1.
<mgrwt>
<rscale>  0 0.28890115E+03</rscale>
<asrwt>0</asrwt>
<pdfrwt beam="1">  1        2 0.52459833E-01 0.28890115E+03</pdfrwt>
<pdfrwt beam="2">  1       -2 0.75512733E-01 0.28890115E+03</pdfrwt>
<totfact> 0.15491115E+02</totfact>
</mgrwt>
</event>
<event>
 4    1  0.5410820E-008  0.5288632E+03  0.7818608E-02  0.1006508E+00
         -2   -1    0    0    0  501 -0.00000000000E+00  0.00000000000E+00  0.38312437828E+03  0.38312437829E+03  0.25500000000E-02 0.  1.
          2   -1    0    0  501    0  0.00000000000E+00 -0.00000000000E+00 -0.96583981604E+03  0.96583981604E+03  0.25500000000E-02 0. -1.
    8880022    1    1    2    0    0 -0.26613664811E+03 -0.43066908948E+03 -0.62462243510E+03  0.81844329037E+03  0.15294330000E+03 0.  0.
    8880022    1    1    2    0    0  0.26613664811E+03  0.43066908948E+03  0.41906997345E+02  0.53052090397E+03  0.15294330000E+03 0.  0.
<mgrwt>
<rscale>  0 0.52886315E+03</rscale>
<asrwt>0</asrwt>
<pdfrwt beam="1">  1        2 0.14859074E+00 0.52886315E+03</pdfrwt>
<pdfrwt beam="2">  1       -2 0.58942212E-01 0.52886315E+03</pdfrwt>
<totfact> 0.73802329E+01</totfact>
</mgrwt>
</event>
<event>
 4    1  0.5410820E-008  0.4551700E+03  0.7818608E-02  0.1026191E+00
          2   -1    0    0  501    0  0.00000000000E+00  0.00000000000E+00  0.26120457390E+04  0.26120457390E+04  0.25500000000E-02 0. -1.
         -2   -1    0    0    0  501 -0.00000000000E+00 -0.00000000000E+00 -0.14658972797E+03  0.14658972799E+03  0.25500000000E-02 0.  1.
    8880022    1    1    2    0    0 -0.41247304103E+03  0.11685061828E+03  0.29832990010E+03  0.54422464009E+03  0.15294330000E+03 0.  0.
    8880022    1    1    2    0    0  0.41247304103E+03 -0.11685061828E+03  0.21671261109E+04  0.22144108269E+04  0.15294330000E+03 0.  0.
<mgrwt>
<rscale>  0 0.45517000E+03</rscale>
<asrwt>0</asrwt>
<pdfrwt beam="1">  1        2 0.40185317E+00 0.45517000E+03</pdfrwt>
<pdfrwt beam="2">  1       -2 0.22552267E-01 0.45517000E+03</pdfrwt>
<totfact> 0.56697439E+01</totfact>
</mgrwt>
</event>
<event>
 4    1  0.5410820E-008  0.4883751E+03  0.7818608E-02  0.1016859E+00
         -2   -1    0    0    0  501 -0.00000000000E+00  0.00000000000E+00  0.21205367381E+03  0.21205367383E+03  0.25500000000E-02 0.  1.
          2   -1    0    0  501    0  0.00000000000E+00 -0.00000000000E+00 -0.21850773294E+04  0.21850773294E+04  0.25500000000E-02 0. -1.
    8880022    1    1    2    0    0 -0.19487258045E+03 -0.42088384963E+03 -0.18214332822E+04  0.18857702384E+04  0.15294330000E+03 0.  0.
    8880022    1    1    2    0    0  0.19487258045E+03  0.42088384963E+03 -0.15159037338E+03  0.51136076483E+03  0.15294330000E+03 0.  0.
<mgrwt>
<rscale>  0 0.48837505E+03</rscale>
<asrwt>0</asrwt>
<pdfrwt beam="1">  1        2 0.33616573E+00 0.48837505E+03</pdfrwt>
<pdfrwt beam="2">  1       -2 0.32623644E-01 0.48837505E+03</pdfrwt>
<totfact> 0.49646016E+01</totfact>
</mgrwt>
</event>
<event>
 4    1  0.5410820E-008  0.2398618E+03  0.7818608E-02  0.1119885E+00
          2   -1    0    0  501    0  0.00000000000E+00  0.00000000000E+00  0.76501157066E+03  0.76501157066E+03  0.25500000000E-02 0. -1.
         -2   -1    0    0    0  501 -0.00000000000E+00 -0.00000000000E+00 -0.10627244534E+04  0.10627244534E+04  0.25500000000E-02 0.  1.
    8880022    1    1    2    0    0 -0.11570844084E+03 -0.14406107104E+03 -0.10297951298E+04  0.10573607227E+04  0.15294330000E+03 0.  1.
    8880022    1    1    2    0    0  0.11570844084E+03  0.14406107104E+03  0.73208224708E+03  0.77037530138E+03  0.15294330000E+03 0.  0.
<mgrwt>
<rscale>  0 0.23986181E+03</rscale>
<asrwt>0</asrwt>
<pdfrwt beam="1">  1        2 0.11769409E+00 0.23986181E+03</pdfrwt>
<pdfrwt beam="2">  1       -2 0.16349607E+00 0.23986181E+03</pdfrwt>
<totfact> 0.97472326E+00</totfact>
</mgrwt>
</event>
<event>
 4    1  0.5410820E-008  0.2141008E+03  0.7818608E-02  0.1138359E+00
          2   -1    0    0  501    0  0.00000000000E+00  0.00000000000E+00  0.31614393685E+04  0.31614393685E+04  0.25500000000E-02 0. -1.
         -2   -1    0    0    0  501 -0.00000000000E+00 -0.00000000000E+00 -0.23296229735E+02  0.23296229875E+02  0.25500000000E-02 0.  1.
    8880022    1    1    2    0    0 -0.11586172577E+03 -0.94992489945E+02  0.59056856372E+03  0.62818022423E+03  0.15294330000E+03 0.  1.
    8880022    1    1    2    0    0  0.11586172577E+03  0.94992489945E+02  0.25475745751E+04  0.25565553742E+04  0.15294330000E+03 0.  0.
<mgrwt>
<rscale>  0 0.21410083E+03</rscale>
<asrwt>0</asrwt>
<pdfrwt beam="1">  1        2 0.48637567E+00 0.21410083E+03</pdfrwt>
<pdfrwt beam="2">  1       -2 0.35840325E-02 0.21410083E+03</pdfrwt>
<totfact> 0.54861806E+02</totfact>
</mgrwt>
</event>
<event>
 4    1  0.5410820E-008  0.2447151E+03  0.7818608E-02  0.1116691E+00
         -2   -1    0    0    0  501 -0.00000000000E+00  0.00000000000E+00  0.23939012284E+03  0.23939012286E+03  0.25500000000E-02 0.  1.
          2   -1    0    0  501    0  0.00000000000E+00 -0.00000000000E+00 -0.24355902879E+04  0.24355902879E+04  0.25500000000E-02 0. -1.
    8880022    1    1    2    0    0 -0.97406195524E+02 -0.16433465841E+03 -0.23650431826E+04  0.23776700266E+04  0.15294330000E+03 0.  0.
    8880022    1    1    2    0    0  0.97406195524E+02  0.16433465841E+03  0.16884301760E+03  0.29731038409E+03  0.15294330000E+03 0.  1.
<mgrwt>
<rscale>  0 0.24471514E+03</rscale>
<asrwt>0</asrwt>
<pdfrwt beam="1">  1        2 0.37470618E+00 0.24471514E+03</pdfrwt>
<pdfrwt beam="2">  1       -2 0.36829251E-01 0.24471514E+03</pdfrwt>
<totfact> 0.31088767E+01</totfact>
</mgrwt>
</event>
<event>
 4    1  0.5903391E-008  0.9531843E+03  0.7818608E-02  0.9361436E-01
         -2   -1    0    0    0  501 -0.00000000000E+00  0.00000000000E+00  0.60983411147E+03  0.60983411148E+03  0.25500000000E-02 0.  1.
          2   -1    0    0  501    0  0.00000000000E+00 -0.00000000000E+00 -0.27470704207E+04  0.27470704207E+04  0.25500000000E-02 0. -1.
    8880022    1    1    2    0    0 -0.25865624516E+03 -0.90458030041E+03 -0.22040998311E+04  0.24013779985E+04  0.15294330000E+03 0.  0.
    8880022    1    1    2    0    0  0.25865624516E+03  0.90458030041E+03  0.66863521876E+02  0.95552653371E+03  0.15294330000E+03 0.  0.
<mgrwt>
<rscale>  0 0.95318426E+03</rscale>
<asrwt>0</asrwt>
<pdfrwt beam="1">  1        2 0.42262621E+00 0.95318426E+03</pdfrwt>
<pdfrwt beam="2">  1       -2 0.93820634E-01 0.95318426E+03</pdfrwt>
<totfact> 0.24393162E+00</totfact>
</mgrwt>
</event>
<event>
 4    1  0.5410820E-008  0.5280074E+03  0.7818608E-02  0.1006717E+00
          2   -1    0    0  501    0  0.00000000000E+00  0.00000000000E+00  0.42609807893E+03  0.42609807894E+03  0.25500000000E-02 0. -1.
         -2   -1    0    0    0  501 -0.00000000000E+00 -0.00000000000E+00 -0.15244282236E+04  0.15244282236E+04  0.25500000000E-02 0.  1.
    8880022    1    1    2    0    0 -0.43431152188E+03 -0.25840597870E+03 -0.12859867532E+04  0.13901632027E+04  0.15294330000E+03 0.  0.
    8880022    1    1    2    0    0  0.43431152188E+03  0.25840597870E+03  0.18765660853E+03  0.56036309979E+03  0.15294330000E+03 0.  0.
<mgrwt>
<rscale>  0 0.52800739E+03</rscale>
<asrwt>0</asrwt>
<pdfrwt beam="1">  1        2 0.65553551E-01 0.52800739E+03</pdfrwt>
<pdfrwt beam="2">  1       -2 0.23452742E+00 0.52800739E+03</pdfrwt>
<totfact> 0.62744216E+00</totfact>
</mgrwt>
</event>
<event>
 4    1  0.5410820E-008  0.3107537E+03  0.7818608E-02  0.1079985E+00
         -2   -1    0    0    0  501 -0.00000000000E+00  0.00000000000E+00  0.14684393920E+03  0.14684393922E+03  0.25500000000E-02 0.  1.
          2   -1    0    0  501    0  0.00000000000E+00 -0.00000000000E+00 -0.12581513345E+04  0.12581513345E+04  0.25500000000E-02 0. -1.
    8880022    1    1    2    0    0 -0.23558436406E+03 -0.13295191572E+03 -0.10409929428E+04  0.10863858267E+04  0.15294330000E+03 0.  0.
    8880022    1    1    2    0    0  0.23558436406E+03  0.13295191572E+03 -0.70314452494E+02  0.31860944701E+03  0.15294330000E+03 0.  1.
<mgrwt>
<rscale>  0 0.31075369E+03</rscale>
<asrwt>0</asrwt>
<pdfrwt beam="1">  1        2 0.19356174E+00 0.31075369E+03</pdfrwt>
<pdfrwt beam="2">  1       -2 0.22591376E-01 0.31075369E+03</pdfrwt>
<totfact> 0.31543766E+02</totfact>
</mgrwt>
</event>
<event>
 4    1  0.5410820E-008  0.4261039E+03  0.7818608E-02  0.1035098E+00
         -2   -1    0    0    0  501 -0.00000000000E+00  0.00000000000E+00  0.21329437797E+03  0.21329437799E+03  0.25500000000E-02 0.  1.
          2   -1    0    0  501    0  0.00000000000E+00 -0.00000000000E+00 -0.10525883135E+04  0.10525883136E+04  0.25500000000E-02 0. -1.
    8880022    1    1    2    0    0 -0.22053829882E+03 -0.33096188823E+03 -0.69647425906E+03  0.81648083827E+03  0.15294330000E+03 0.  0.
    8880022    1    1    2    0    0  0.22053829882E+03  0.33096188823E+03 -0.14281967651E+03  0.44940185327E+03  0.15294330000E+03 0.  0.
<mgrwt>
<rscale>  0 0.42610394E+03</rscale>
<asrwt>0</asrwt>
<pdfrwt beam="1">  1        2 0.16193666E+00 0.42610394E+03</pdfrwt>
<pdfrwt beam="2">  1       -2 0.32814520E-01 0.42610394E+03</pdfrwt>
<totfact> 0.20926581E+02</totfact>
</mgrwt>
</event>
<event>
 4    1  0.5410820E-008  0.4800621E+03  0.7818608E-02  0.1019118E+00
          2   -1    0    0  501    0  0.00000000000E+00  0.00000000000E+00  0.43212338188E+03  0.43212338189E+03  0.25500000000E-02 0. -1.
         -2   -1    0    0    0  501 -0.00000000000E+00 -0.00000000000E+00 -0.12388270482E+04  0.12388270482E+04  0.25500000000E-02 0.  1.
    8880022    1    1    2    0    0 -0.20636565040E+03 -0.40556281451E+03 -0.10338432843E+04  0.11398647146E+04  0.15294330000E+03 0.  0.
    8880022    1    1    2    0    0  0.20636565040E+03  0.40556281451E+03  0.22713961791E+03  0.53108571551E+03  0.15294330000E+03 0.  0.
<mgrwt>
<rscale>  0 0.48006211E+03</rscale>
<asrwt>0</asrwt>
<pdfrwt beam="1">  1        2 0.66480521E-01 0.48006211E+03</pdfrwt>
<pdfrwt beam="2">  1       -2 0.19058878E+00 0.48006211E+03</pdfrwt>
<totfact> 0.11772141E+01</totfact>
</mgrwt>
</event>
<event>
 4    1  0.5410820E-008  0.5367906E+03  0.7818608E-02  0.1004598E+00
          2   -1    0    0  501    0  0.00000000000E+00  0.00000000000E+00  0.69825168436E+03  0.69825168436E+03  0.25500000000E-02 0. -1.
         -2   -1    0    0    0  501 -0.00000000000E+00 -0.00000000000E+00 -0.67267757627E+03  0.67267757628E+03  0.25500000000E-02 0.  1.
    8880022    1    1    2    0    0 -0.41150662708E+03  0.30889277798E+03 -0.41337881373E+03  0.67751468551E+03  0.15294330000E+03 0.  0.
    8880022    1    1    2    0    0  0.41150662708E+03 -0.30889277798E+03  0.43895292181E+03  0.69341457513E+03  0.15294330000E+03 0. -1.
<mgrwt>
<rscale>  0 0.53679056E+03</rscale>
<asrwt>0</asrwt>
<pdfrwt beam="1">  1        2 0.10742334E+00 0.53679056E+03</pdfrwt>
<pdfrwt beam="2">  1       -2 0.10348886E+00 0.53679056E+03</pdfrwt>
<totfact> 0.32375256E+01</totfact>
</mgrwt>
</event>
<event>
 4    1  0.5410820E-008  0.2502440E+03  0.7818608E-02  0.1113151E+00
          2   -1    0    0  501    0  0.00000000000E+00  0.00000000000E+00  0.30386168315E+03  0.30386168316E+03  0.25500000000E-02 0. -1.
         -2   -1    0    0    0  501 -0.00000000000E+00 -0.00000000000E+00 -0.58885873301E+03  0.58885873302E+03  0.25500000000E-02 0.  1.
    8880022    1    1    2    0    0  0.17067607904E+03  0.10049914681E+03 -0.50237182791E+03  0.56124817056E+03  0.15294330000E+03 0.  0.
    8880022    1    1    2    0    0 -0.17067607904E+03 -0.10049914681E+03  0.21737477805E+03  0.33147224562E+03  0.15294330000E+03 0. -1.
<mgrwt>
<rscale>  0 0.25024399E+03</rscale>
<asrwt>0</asrwt>
<pdfrwt beam="1">  1        2 0.46747951E-01 0.25024399E+03</pdfrwt>
<pdfrwt beam="2">  1       -2 0.90593651E-01 0.25024399E+03</pdfrwt>
<totfact> 0.11736150E+02</totfact>
</mgrwt>
</event>
<event>
 4    1  0.5410820E-008  0.5977192E+03  0.7818608E-02  0.9910149E-01
         -2   -1    0    0    0  501 -0.00000000000E+00  0.00000000000E+00  0.69850082074E+03  0.69850082075E+03  0.25500000000E-02 0.  1.
          2   -1    0    0  501    0  0.00000000000E+00 -0.00000000000E+00 -0.96410285850E+03  0.96410285850E+03  0.25500000000E-02 0. -1.
    8880022    1    1    2    0    0  0.61464687758E+02 -0.57454213834E+03 -0.70239575116E+03  0.92229497495E+03  0.15294330000E+03 0.  0.
    8880022    1    1    2    0    0 -0.61464687758E+02  0.57454213834E+03  0.43679371340E+03  0.74030870429E+03  0.15294330000E+03 0.  0.
<mgrwt>
<rscale>  0 0.59771919E+03</rscale>
<asrwt>0</asrwt>
<pdfrwt beam="1">  1        2 0.14832352E+00 0.59771919E+03</pdfrwt>
<pdfrwt beam="2">  1       -2 0.10746166E+00 0.59771919E+03</pdfrwt>
<totfact> 0.19112926E+01</totfact>
</mgrwt>
</event>
<event>
 4    1  0.5410820E-008  0.8083478E+03  0.7818608E-02  0.9548012E-01
          2   -1    0    0  501    0  0.00000000000E+00  0.00000000000E+00  0.17589132520E+04  0.17589132520E+04  0.25500000000E-02 0. -1.
         -2   -1    0    0    0  501 -0.00000000000E+00 -0.00000000000E+00 -0.39316891018E+03  0.39316891019E+03  0.25500000000E-02 0.  1.
    8880022    1    1    2    0    0  0.75827110625E+03  0.23464740728E+03  0.93552000980E+03  0.12363752740E+04  0.15294330000E+03 0.  0.
    8880022    1    1    2    0    0 -0.75827110625E+03 -0.23464740728E+03  0.43022433205E+03  0.91570688827E+03  0.15294330000E+03 0.  0.
<mgrwt>
<rscale>  0 0.80834778E+03</rscale>
<asrwt>0</asrwt>
<pdfrwt beam="1">  1        2 0.27060204E+00 0.80834778E+03</pdfrwt>
<pdfrwt beam="2">  1       -2 0.60487525E-01 0.80834778E+03</pdfrwt>
<totfact> 0.23644285E+01</totfact>
</mgrwt>
</event>
<event>
 4    1  0.5410820E-008  0.5101475E+03  0.7818608E-02  0.1011164E+00
         -2   -1    0    0    0  501 -0.00000000000E+00  0.00000000000E+00  0.49186791223E+03  0.49186791224E+03  0.25500000000E-02 0.  1.
          2   -1    0    0  501    0  0.00000000000E+00 -0.00000000000E+00 -0.74718320601E+03  0.74718320602E+03  0.25500000000E-02 0. -1.
    8880022    1    1    2    0    0  0.37501454522E+02  0.48523439175E+03  0.20703832346E+03  0.55055907442E+03  0.15294330000E+03 0.  0.
    8880022    1    1    2    0    0 -0.37501454522E+02 -0.48523439175E+03 -0.46235361725E+03  0.68849204384E+03  0.15294330000E+03 0.  0.
<mgrwt>
<rscale>  0 0.51014746E+03</rscale>
<asrwt>0</asrwt>
<pdfrwt beam="1">  1        2 0.11495126E+00 0.51014746E+03</pdfrwt>
<pdfrwt beam="2">  1       -2 0.75671987E-01 0.51014746E+03</pdfrwt>
<totfact> 0.61040713E+01</totfact>
</mgrwt>
</event>
<event>
 4    1  0.5410820E-008  0.4849876E+03  0.7818608E-02  0.1017773E+00
         -2   -1    0    0    0  501 -0.00000000000E+00  0.00000000000E+00  0.80798600594E+03  0.80798600594E+03  0.25500000000E-02 0.  1.
          2   -1    0    0  501    0  0.00000000000E+00 -0.00000000000E+00 -0.10176373067E+04  0.10176373067E+04  0.25500000000E-02 0. -1.
    8880022    1    1    2    0    0 -0.45119774034E+03 -0.90784799532E+02 -0.87610302429E+03  0.10013837641E+04  0.15294330000E+03 0.  0.
    8880022    1    1    2    0    0  0.45119774034E+03  0.90784799532E+02  0.66645172351E+03  0.82423954862E+03  0.15294330000E+03 0.  1.
<mgrwt>
<rscale>  0 0.48498756E+03</rscale>
<asrwt>0</asrwt>
<pdfrwt beam="1">  1        2 0.15655959E+00 0.48498756E+03</pdfrwt>
<pdfrwt beam="2">  1       -2 0.12430554E+00 0.48498756E+03</pdfrwt>
<totfact> 0.12609815E+01</totfact>
</mgrwt>
</event>
<event>
 4    1  0.5410820E-008  0.2094024E+03  0.7818608E-02  0.1142040E+00
         -2   -1    0    0    0  501 -0.00000000000E+00  0.00000000000E+00  0.12074577623E+03  0.12074577626E+03  0.25500000000E-02 0.  1.
          2   -1    0    0  501    0  0.00000000000E+00 -0.00000000000E+00 -0.13588565069E+04  0.13588565069E+04  0.25500000000E-02 0. -1.
    8880022    1    1    2    0    0 -0.13255856985E+03  0.53720846419E+02 -0.12523312009E+04  0.12697176039E+04  0.15294330000E+03 0.  0.
    8880022    1    1    2    0    0  0.13255856985E+03 -0.53720846419E+02  0.14220470321E+02  0.20988467922E+03  0.15294330000E+03 0.  0.
<mgrwt>
<rscale>  0 0.20940238E+03</rscale>
<asrwt>0</asrwt>
<pdfrwt beam="1">  1        2 0.20905484E+00 0.20940238E+03</pdfrwt>
<pdfrwt beam="2">  1       -2 0.18576274E-01 0.20940238E+03</pdfrwt>
<totfact> 0.39456336E+02</totfact>
</mgrwt>
</event>
<event>
 4    1  0.5410820E-008  0.4417700E+03  0.7818608E-02  0.1030205E+00
         -2   -1    0    0    0  501 -0.00000000000E+00  0.00000000000E+00  0.23952579207E+03  0.23952579209E+03  0.25500000000E-02 0.  1.
          2   -1    0    0  501    0  0.00000000000E+00 -0.00000000000E+00 -0.16079970821E+04  0.16079970821E+04  0.25500000000E-02 0. -1.
    8880022    1    1    2    0    0 -0.65400232199E+02  0.40925774752E+03 -0.35431944764E+02  0.44318863929E+03  0.15294330000E+03 0.  0.
    8880022    1    1    2    0    0  0.65400232199E+02 -0.40925774752E+03 -0.13330393453E+04  0.14043342349E+04  0.15294330000E+03 0.  0.
<mgrwt>
<rscale>  0 0.44177002E+03</rscale>
<asrwt>0</asrwt>
<pdfrwt beam="1">  1        2 0.24738416E+00 0.44177002E+03</pdfrwt>
<pdfrwt beam="2">  1       -2 0.36850123E-01 0.44177002E+03</pdfrwt>
<totfact> 0.81325272E+01</totfact>
</mgrwt>
</event>
<event>
 4    1  0.5410820E-008  0.3190024E+03  0.7818608E-02  0.1076109E+00
         -2   -1    0    0    0  501 -0.00000000000E+00  0.00000000000E+00  0.74134686828E+03  0.74134686828E+03  0.25500000000E-02 0.  1.
          2   -1    0    0  501    0  0.00000000000E+00 -0.00000000000E+00 -0.29344008695E+03  0.29344008696E+03  0.25500000000E-02 0. -1.
    8880022    1    1    2    0    0  0.13019994536E+03 -0.24782825775E+03  0.60140754219E+03  0.68077423272E+03  0.15294330000E+03 0.  0.
    8880022    1    1    2    0    0 -0.13019994536E+03  0.24782825775E+03 -0.15350076086E+03  0.35401272253E+03  0.15294330000E+03 0.  0.
<mgrwt>
<rscale>  0 0.31900239E+03</rscale>
<asrwt>0</asrwt>
<pdfrwt beam="1">  1        2 0.45144630E-01 0.31900239E+03</pdfrwt>
<pdfrwt beam="2">  1       -2 0.11405336E+00 0.31900239E+03</pdfrwt>
<totfact> 0.70577943E+01</totfact>
</mgrwt>
</event>
<event>
 4    1  0.5410820E-008  0.4052697E+03  0.7818608E-02  0.1041970E+00
         -2   -1    0    0    0  501 -0.00000000000E+00  0.00000000000E+00  0.53549191293E+03  0.53549191293E+03  0.25500000000E-02 0.  1.
          2   -1    0    0  501    0  0.00000000000E+00 -0.00000000000E+00 -0.43203894990E+03  0.43203894991E+03  0.25500000000E-02 0. -1.
    8880022    1    1    2    0    0  0.34792259148E+03 -0.14071876498E+03 -0.20882282882E+03  0.45590627033E+03  0.15294330000E+03 0.  0.
    8880022    1    1    2    0    0 -0.34792259148E+03  0.14071876498E+03  0.31227579184E+03  0.51162459251E+03  0.15294330000E+03 0.  0.
<mgrwt>
<rscale>  0 0.40526973E+03</rscale>
<asrwt>0</asrwt>
<pdfrwt beam="1">  1        2 0.66467531E-01 0.40526973E+03</pdfrwt>
<pdfrwt beam="2">  1       -2 0.82383371E-01 0.40526973E+03</pdfrwt>
<totfact> 0.97479649E+01</totfact>
</mgrwt>
</event>
<event>
 4    1  0.5410820E-008  0.2924996E+03  0.7818608E-02  0.1089051E+00
          2   -1    0    0  501    0  0.00000000000E+00  0.00000000000E+00  0.12331127266E+04  0.12331127266E+04  0.25500000000E-02 0. -1.
         -2   -1    0    0    0  501 -0.00000000000E+00 -0.00000000000E+00 -0.10637061640E+03  0.10637061643E+03  0.25500000000E-02 0.  1.
    8880022    1    1    2    0    0 -0.23293496254E+03 -0.88913894069E+02  0.95830963461E+03  0.10019547825E+04  0.15294330000E+03 0.  0.
    8880022    1    1    2    0    0  0.23293496254E+03  0.88913894069E+02  0.16843247556E+03  0.33752856053E+03  0.15294330000E+03 0.  0.
<mgrwt>
<rscale>  0 0.29249962E+03</rscale>
<asrwt>0</asrwt>
<pdfrwt beam="1">  1        2 0.18970966E+00 0.29249962E+03</pdfrwt>
<pdfrwt beam="2">  1       -2 0.16364710E-01 0.29249962E+03</pdfrwt>
<totfact> 0.56732694E+02</totfact>
</mgrwt>
</event>
<event>
 4    1  0.5410820E-008  0.4783773E+03  0.7818608E-02  0.1019582E+00
         -2   -1    0    0    0  501 -0.00000000000E+00  0.00000000000E+00  0.72288909928E+03  0.72288909928E+03  0.25500000000E-02 0.  1.
          2   -1    0    0  501    0  0.00000000000E+00 -0.00000000000E+00 -0.11087159920E+04  0.11087159920E+04  0.25500000000E-02 0. -1.
    8880022    1    1    2    0    0 -0.44153814231E+03  0.10245600410E+03  0.58118175513E+03  0.75273969564E+03  0.15294330000E+03 0.  0.
    8880022    1    1    2    0    0  0.44153814231E+03 -0.10245600410E+03 -0.96700864787E+03  0.10788653957E+04  0.15294330000E+03 0.  0.
<mgrwt>
<rscale>  0 0.47837727E+03</rscale>
<asrwt>0</asrwt>
<pdfrwt beam="1">  1        2 0.17057169E+00 0.47837727E+03</pdfrwt>
<pdfrwt beam="2">  1       -2 0.11121371E+00 0.47837727E+03</pdfrwt>
<totfact> 0.14578307E+01</totfact>
</mgrwt>
</event>
<event>
 4    1  0.5410820E-008  0.4362264E+03  0.7818608E-02  0.1031911E+00
          2   -1    0    0  501    0  0.00000000000E+00  0.00000000000E+00  0.14801904595E+04  0.14801904595E+04  0.25500000000E-02 0. -1.
         -2   -1    0    0    0  501 -0.00000000000E+00 -0.00000000000E+00 -0.59757783830E+03  0.59757783831E+03  0.25500000000E-02 0.  1.
    8880022    1    1    2    0    0 -0.37817225390E+03 -0.15455592587E+03  0.13616806679E+04  0.14298488320E+04  0.15294330000E+03 0.  0.
    8880022    1    1    2    0    0  0.37817225390E+03  0.15455592587E+03 -0.47906804672E+03  0.64791946586E+03  0.15294330000E+03 0.  0.
<mgrwt>
<rscale>  0 0.43622636E+03</rscale>
<asrwt>0</asrwt>
<pdfrwt beam="1">  1        2 0.22772161E+00 0.43622636E+03</pdfrwt>
<pdfrwt beam="2">  1       -2 0.91935053E-01 0.43622636E+03</pdfrwt>
<totfact> 0.14150503E+01</totfact>
</mgrwt>
</event>
<event>
 4    1  0.5410820E-008  0.9701002E+03  0.7818608E-02  0.9341960E-01
          2   -1    0    0  501    0  0.00000000000E+00  0.00000000000E+00  0.12910186254E+04  0.12910186254E+04  0.25500000000E-02 0. -1.
         -2   -1    0    0    0  501 -0.00000000000E+00 -0.00000000000E+00 -0.17803334304E+04  0.17803334304E+04  0.25500000000E-02 0.  1.
    8880022    1    1    2    0    0 -0.59967627549E+02 -0.95608925581E+03 -0.14247836523E+04  0.17236887452E+04  0.15294330000E+03 0.  0.
    8880022    1    1    2    0    0  0.59967627549E+02  0.95608925581E+03  0.93546884731E+03  0.13476633106E+04  0.15294330000E+03 0.  0.
<mgrwt>
<rscale>  0 0.97010022E+03</rscale>
<asrwt>0</asrwt>
<pdfrwt beam="1">  1        2 0.19861825E+00 0.97010022E+03</pdfrwt>
<pdfrwt beam="2">  1       -2 0.27389745E+00 0.97010022E+03</pdfrwt>
<totfact> 0.77147313E-01</totfact>
</mgrwt>
</event>
<event>
 4    1  0.5410820E-008  0.1595077E+03  0.7818608E-02  0.1189254E+00
         -2   -1    0    0    0  501 -0.00000000000E+00  0.00000000000E+00  0.45264325099E+03  0.45264325099E+03  0.25500000000E-02 0.  1.
          2   -1    0    0  501    0  0.00000000000E+00 -0.00000000000E+00 -0.83979606885E+03  0.83979606885E+03  0.25500000000E-02 0. -1.
    8880022    1    1    2    0    0  0.26357075195E+02  0.36828950184E+02  0.43064235519E+03  0.45923366392E+03  0.15294330000E+03 0.  0.
    8880022    1    1    2    0    0 -0.26357075195E+02 -0.36828950184E+02 -0.81779517305E+03  0.83320565592E+03  0.15294330000E+03 0. -1.
<mgrwt>
<rscale>  0 0.15950774E+03</rscale>
<asrwt>0</asrwt>
<pdfrwt beam="1">  1        2 0.12919939E+00 0.15950774E+03</pdfrwt>
<pdfrwt beam="2">  1       -2 0.69637423E-01 0.15950774E+03</pdfrwt>
<totfact> 0.67077191E+01</totfact>
</mgrwt>
</event>
<event>
 4    1  0.5410820E-008  0.2474437E+03  0.7818608E-02  0.1114931E+00
         -2   -1    0    0    0  501 -0.00000000000E+00  0.00000000000E+00  0.24453579258E+03  0.24453579259E+03  0.25500000000E-02 0.  1.
          2   -1    0    0  501    0  0.00000000000E+00 -0.00000000000E+00 -0.29840278125E+03  0.29840278126E+03  0.25500000000E-02 0. -1.
    8880022    1    1    2    0    0  0.19152912098E+03 -0.33960365306E+02 -0.13583034882E+03  0.28227335558E+03  0.15294330000E+03 0.  0.
    8880022    1    1    2    0    0 -0.19152912098E+03  0.33960365306E+02  0.81963360155E+02  0.26066521827E+03  0.15294330000E+03 0. -1.
<mgrwt>
<rscale>  0 0.24744366E+03</rscale>
<asrwt>0</asrwt>
<pdfrwt beam="1">  1        2 0.45908120E-01 0.24744366E+03</pdfrwt>
<pdfrwt beam="2">  1       -2 0.37620891E-01 0.24744366E+03</pdfrwt>
<totfact> 0.73837493E+02</totfact>
</mgrwt>
</event>
<event>
 4    1  0.5410820E-008  0.1080330E+04  0.7818608E-02  0.9224579E-01
          2   -1    0    0  501    0  0.00000000000E+00  0.00000000000E+00  0.19815132780E+04  0.19815132780E+04  0.25500000000E-02 0. -1.
         -2   -1    0    0    0  501 -0.00000000000E+00 -0.00000000000E+00 -0.86780395342E+03  0.86780395342E+03  0.25500000000E-02 0.  1.
    8880022    1    1    2    0    0 -0.92435887423E+03  0.53784845353E+03  0.13643670940E+04  0.17402900642E+04  0.15294330000E+03 0.  0.
    8880022    1    1    2    0    0  0.92435887423E+03 -0.53784845353E+03 -0.25065776938E+03  0.11090271673E+04  0.15294330000E+03 0.  0.
<mgrwt>
<rscale>  0 0.10803296E+04</rscale>
<asrwt>0</asrwt>
<pdfrwt beam="1">  1        2 0.30484820E+00 0.10803296E+04</pdfrwt>
<pdfrwt beam="2">  1       -2 0.13350830E+00 0.10803296E+04</pdfrwt>
<totfact> 0.27435268E+00</totfact>
</mgrwt>
</event>
<event>
 4    1  0.5410820E-008  0.6190769E+03  0.7818608E-02  0.9866599E-01
         -2   -1    0    0    0  501 -0.00000000000E+00  0.00000000000E+00  0.34062577213E+03  0.34062577214E+03  0.25500000000E-02 0.  1.
          2   -1    0    0  501    0  0.00000000000E+00 -0.00000000000E+00 -0.11468965041E+04  0.11468965041E+04  0.25500000000E-02 0. -1.
    8880022    1    1    2    0    0  0.35174360881E+03  0.48594340927E+03 -0.50554315716E+03  0.79926847812E+03  0.15294330000E+03 0.  0.
    8880022    1    1    2    0    0 -0.35174360881E+03 -0.48594340927E+03 -0.30072757480E+03  0.68825379811E+03  0.15294330000E+03 0.  0.
<mgrwt>
<rscale>  0 0.61907691E+03</rscale>
<asrwt>0</asrwt>
<pdfrwt beam="1">  1        2 0.17644561E+00 0.61907691E+03</pdfrwt>
<pdfrwt beam="2">  1       -2 0.52403966E-01 0.61907691E+03</pdfrwt>
<totfact> 0.72078630E+01</totfact>
</mgrwt>
</event>
<event>
 4    1  0.5410820E-008  0.6973849E+03  0.7818608E-02  0.9721715E-01
          2   -1    0    0  501    0  0.00000000000E+00  0.00000000000E+00  0.12779254186E+04  0.12779254186E+04  0.25500000000E-02 0. -1.
         -2   -1    0    0    0  501 -0.00000000000E+00 -0.00000000000E+00 -0.10205167312E+04  0.10205167312E+04  0.25500000000E-02 0.  1.
    8880022    1    1    2    0    0 -0.19554564178E+03 -0.65170237623E+03 -0.78134287407E+03  0.10473024516E+04  0.15294330000E+03 0.  0.
    8880022    1    1    2    0    0  0.19554564178E+03  0.65170237623E+03  0.10387515614E+04  0.12511396983E+04  0.15294330000E+03 0. -1.
<mgrwt>
<rscale>  0 0.69738493E+03</rscale>
<asrwt>0</asrwt>
<pdfrwt beam="1">  1        2 0.19660391E+00 0.69738493E+03</pdfrwt>
<pdfrwt beam="2">  1       -2 0.15700257E+00 0.69738493E+03</pdfrwt>
<totfact> 0.46574806E+00</totfact>
</mgrwt>
</event>
<event>
 4    1  0.5410820E-008  0.6948946E+03  0.7818608E-02  0.9726003E-01
          2   -1    0    0  501    0  0.00000000000E+00  0.00000000000E+00  0.10539671658E+04  0.10539671658E+04  0.25500000000E-02 0. -1.
         -2   -1    0    0    0  501 -0.00000000000E+00 -0.00000000000E+00 -0.65715644240E+03  0.65715644241E+03  0.25500000000E-02 0.  1.
    8880022    1    1    2    0    0 -0.95941006821E+02  0.67103066488E+03  0.66921681980E+03  0.96474330001E+03  0.15294330000E+03 0.  0.
    8880022    1    1    2    0    0  0.95941006821E+02 -0.67103066488E+03 -0.27240609645E+03  0.74638030815E+03  0.15294330000E+03 0.  0.
<mgrwt>
<rscale>  0 0.69489458E+03</rscale>
<asrwt>0</asrwt>
<pdfrwt beam="1">  1        2 0.16214879E+00 0.69489458E+03</pdfrwt>
<pdfrwt beam="2">  1       -2 0.10110099E+00 0.69489458E+03</pdfrwt>
<totfact> 0.19170181E+01</totfact>
</mgrwt>
</event>
<event>
 4    1  0.5410820E-008  0.1527176E+04  0.7818608E-02  0.8866580E-01
         -2   -1    0    0    0  501 -0.00000000000E+00  0.00000000000E+00  0.97059539530E+03  0.97059539530E+03  0.25500000000E-02 0.  1.
          2   -1    0    0  501    0  0.00000000000E+00 -0.00000000000E+00 -0.27417006048E+04  0.27417006048E+04  0.25500000000E-02 0. -1.
    8880022    1    1    2    0    0 -0.13416441721E+04 -0.71334753227E+03 -0.15380222384E+04  0.21674357765E+04  0.15294330000E+03 0.  0.
    8880022    1    1    2    0    0  0.13416441721E+04  0.71334753227E+03 -0.23308297114E+03  0.15448602237E+04  0.15294330000E+03 0.  0.
<mgrwt>
<rscale>  0 0.15271756E+04</rscale>
<asrwt>0</asrwt>
<pdfrwt beam="1">  1        2 0.42180009E+00 0.15271756E+04</pdfrwt>
<pdfrwt beam="2">  1       -2 0.14932237E+00 0.15271756E+04</pdfrwt>
<totfact> 0.71719794E-01</totfact>
</mgrwt>
</event>
<event>
 4    1  0.5410820E-008  0.3211971E+03  0.7818608E-02  0.1075100E+00
          2   -1    0    0  501    0  0.00000000000E+00  0.00000000000E+00  0.78674834115E+03  0.78674834115E+03  0.25500000000E-02 0. -1.
         -2   -1    0    0    0  501 -0.00000000000E+00 -0.00000000000E+00 -0.24999604387E+03  0.24999604388E+03  0.25500000000E-02 0.  1.
    8880022    1    1    2    0    0 -0.18557525820E+03 -0.21292658599E+03 -0.89062186674E+02  0.33331611661E+03  0.15294330000E+03 0.  1.
    8880022    1    1    2    0    0  0.18557525820E+03  0.21292658599E+03  0.62581448396E+03  0.70342826843E+03  0.15294330000E+03 0.  0.
<mgrwt>
<rscale>  0 0.32119707E+03</rscale>
<asrwt>0</asrwt>
<pdfrwt beam="1">  1        2 0.12103820E+00 0.32119707E+03</pdfrwt>
<pdfrwt beam="2">  1       -2 0.38460930E-01 0.32119707E+03</pdfrwt>
<totfact> 0.23369526E+02</totfact>
</mgrwt>
</event>
<event>
 4    1  0.5410820E-008  0.3504479E+03  0.7818608E-02  0.1062431E+00
          2   -1    0    0  501    0  0.00000000000E+00  0.00000000000E+00  0.25769693708E+04  0.25769693708E+04  0.25500000000E-02 0. -1.
         -2   -1    0    0    0  501 -0.00000000000E+00 -0.00000000000E+00 -0.11917690334E+03  0.11917690337E+03  0.25500000000E-02 0.  1.
    8880022    1    1    2    0    0 -0.26065598830E+03  0.17742747019E+03  0.22732009578E+04  0.23000557165E+04  0.15294330000E+03 0.  0.
    8880022    1    1    2    0    0  0.26065598830E+03 -0.17742747019E+03  0.18459150962E+03  0.39609055764E+03  0.15294330000E+03 0.  0.
<mgrwt>
<rscale>  0 0.35044786E+03</rscale>
<asrwt>0</asrwt>
<pdfrwt beam="1">  1        2 0.39645681E+00 0.35044786E+03</pdfrwt>
<pdfrwt beam="2">  1       -2 0.18334909E-01 0.35044786E+03</pdfrwt>
<totfact> 0.87180347E+01</totfact>
</mgrwt>
</event>
<event>
 4    1  0.5410820E-008  0.1650836E+03  0.7818608E-02  0.1183074E+00
          2   -1    0    0  501    0  0.00000000000E+00  0.00000000000E+00  0.37801297922E+03  0.37801297923E+03  0.25500000000E-02 0. -1.
         -2   -1    0    0    0  501 -0.00000000000E+00 -0.00000000000E+00 -0.74312660034E+02  0.74312660077E+02  0.25500000000E-02 0.  1.
    8880022    1    1    2    0    0 -0.52449306150E+02  0.33317038903E+02  0.19092515321E+03  0.25239853791E+03  0.15294330000E+03 0. -1.
    8880022    1    1    2    0    0  0.52449306150E+02 -0.33317038903E+02  0.11277516598E+03  0.19992710140E+03  0.15294330000E+03 0.  1.
<mgrwt>
<rscale>  0 0.16508364E+03</rscale>
<asrwt>0</asrwt>
<pdfrwt beam="1">  1        2 0.58155844E-01 0.16508364E+03</pdfrwt>
<pdfrwt beam="2">  1       -2 0.11432717E-01 0.16508364E+03</pdfrwt>
<totfact> 0.44204356E+03</totfact>
</mgrwt>
</event>
<event>
 4    1  0.5410820E-008  0.8459046E+03  0.7818608E-02  0.9495850E-01
         -2   -1    0    0    0  501 -0.00000000000E+00  0.00000000000E+00  0.23845266607E+04  0.23845266607E+04  0.25500000000E-02 0.  1.
          2   -1    0    0  501    0  0.00000000000E+00 -0.00000000000E+00 -0.87102705575E+03  0.87102705575E+03  0.25500000000E-02 0. -1.
    8880022    1    1    2    0    0  0.49622723059E+03 -0.66777357510E+03  0.20746302793E+04  0.22404565296E+04  0.15294330000E+03 0.  0.
    8880022    1    1    2    0    0 -0.49622723059E+03  0.66777357510E+03 -0.56113067441E+03  0.10150971869E+04  0.15294330000E+03 0.  0.
<mgrwt>
<rscale>  0 0.84590464E+03</rscale>
<asrwt>0</asrwt>
<pdfrwt beam="1">  1        2 0.13400416E+00 0.84590464E+03</pdfrwt>
<pdfrwt beam="2">  1       -2 0.36685025E+00 0.84590464E+03</pdfrwt>
<totfact> 0.38854434E-01</totfact>
</mgrwt>
</event>
<event>
 4    1  0.5410820E-008  0.4807788E+03  0.7818608E-02  0.1018921E+00
          2   -1    0    0  501    0  0.00000000000E+00  0.00000000000E+00  0.10377963730E+03  0.10377963733E+03  0.25500000000E-02 0. -1.
         -2   -1    0    0    0  501 -0.00000000000E+00 -0.00000000000E+00 -0.22906197475E+04  0.22906197475E+04  0.25500000000E-02 0.  1.
    8880022    1    1    2    0    0  0.19687149523E+03 -0.41109394631E+03 -0.12924706495E+04  0.13789955225E+04  0.15294330000E+03 0.  0.
    8880022    1    1    2    0    0 -0.19687149523E+03  0.41109394631E+03 -0.89436946077E+03  0.10154038624E+04  0.15294330000E+03 0.  0.
<mgrwt>
<rscale>  0 0.48077882E+03</rscale>
<asrwt>0</asrwt>
<pdfrwt beam="1">  1        2 0.15966100E-01 0.48077882E+03</pdfrwt>
<pdfrwt beam="2">  1       -2 0.35240300E+00 0.48077882E+03</pdfrwt>
<totfact> 0.61262431E+00</totfact>
</mgrwt>
</event>
<event>
 4    1  0.5410820E-008  0.4695266E+03  0.7818608E-02  0.1022054E+00
          2   -1    0    0  501    0  0.00000000000E+00  0.00000000000E+00  0.96016466065E+03  0.96016466066E+03  0.25500000000E-02 0. -1.
         -2   -1    0    0    0  501 -0.00000000000E+00 -0.00000000000E+00 -0.55328004160E+03  0.55328004160E+03  0.25500000000E-02 0.  1.
    8880022    1    1    2    0    0  0.30014159844E+03 -0.32707580844E+03  0.78223233054E+03  0.91232814027E+03  0.15294330000E+03 0.  0.
    8880022    1    1    2    0    0 -0.30014159844E+03  0.32707580844E+03 -0.37534771148E+03  0.60111656199E+03  0.15294330000E+03 0.  0.
<mgrwt>
<rscale>  0 0.46952659E+03</rscale>
<asrwt>0</asrwt>
<pdfrwt beam="1">  1        2 0.14771764E+00 0.46952659E+03</pdfrwt>
<pdfrwt beam="2">  1       -2 0.85120007E-01 0.46952659E+03</pdfrwt>
<totfact> 0.33701931E+01</totfact>
</mgrwt>
</event>
<event>
 4    1  0.5410820E-008  0.3263260E+03  0.7818608E-02  0.1072774E+00
          2   -1    0    0  501    0  0.00000000000E+00  0.00000000000E+00  0.19633943785E+04  0.19633943785E+04  0.25500000000E-02 0. -1.
         -2   -1    0    0    0  501 -0.00000000000E+00 -0.00000000000E+00 -0.34778529591E+03  0.34778529592E+03  0.25500000000E-02 0.  1.
    8880022    1    1    2    0    0  0.20229441119E+03 -0.20536305438E+03 -0.25386136381E+03  0.41344196443E+03  0.15294330000E+03 0.  0.
    8880022    1    1    2    0    0 -0.20229441119E+03  0.20536305438E+03  0.18694704464E+04  0.18977377100E+04  0.15294330000E+03 0.  0.
<mgrwt>
<rscale>  0 0.32632601E+03</rscale>
<asrwt>0</asrwt>
<pdfrwt beam="1">  1        2 0.30206067E+00 0.32632601E+03</pdfrwt>
<pdfrwt beam="2">  1       -2 0.53505430E-01 0.32632601E+03</pdfrwt>
<totfact> 0.25911509E+01</totfact>
</mgrwt>
</event>
<event>
 4    1  0.5410820E-008  0.7727102E+03  0.7818608E-02  0.9600380E-01
         -2   -1    0    0    0  501 -0.00000000000E+00  0.00000000000E+00  0.27878905565E+03  0.27878905566E+03  0.25500000000E-02 0.  1.
          2   -1    0    0  501    0  0.00000000000E+00 -0.00000000000E+00 -0.24939227548E+04  0.24939227548E+04  0.25500000000E-02 0. -1.
    8880022    1    1    2    0    0  0.72396544099E+03  0.22262843608E+03 -0.16285758564E+04  0.18025926754E+04  0.15294330000E+03 0.  0.
    8880022    1    1    2    0    0 -0.72396544099E+03 -0.22262843608E+03 -0.58655784270E+03  0.97011913503E+03  0.15294330000E+03 0.  0.
<mgrwt>
<rscale>  0 0.77271019E+03</rscale>
<asrwt>0</asrwt>
<pdfrwt beam="1">  1        2 0.38368041E+00 0.77271019E+03</pdfrwt>
<pdfrwt beam="2">  1       -2 0.42890626E-01 0.77271019E+03</pdfrwt>
<totfact> 0.18852183E+01</totfact>
</mgrwt>
</event>
<event>
 4    1  0.5410820E-008  0.1884828E+03  0.7818608E-02  0.1159837E+00
         -2   -1    0    0    0  501 -0.00000000000E+00  0.00000000000E+00  0.19717259310E+03  0.19717259311E+03  0.25500000000E-02 0.  1.
          2   -1    0    0  501    0  0.00000000000E+00 -0.00000000000E+00 -0.66090770168E+03  0.66090770169E+03  0.25500000000E-02 0. -1.
    8880022    1    1    2    0    0 -0.65668502673E+02  0.88440724131E+02 -0.59778145904E+03  0.62679218224E+03  0.15294330000E+03 0. -1.
    8880022    1    1    2    0    0  0.65668502673E+02 -0.88440724131E+02  0.13404635045E+03  0.23128811256E+03  0.15294330000E+03 0.  0.
<mgrwt>
<rscale>  0 0.18848280E+03</rscale>
<asrwt>0</asrwt>
<pdfrwt beam="1">  1        2 0.10167811E+00 0.18848280E+03</pdfrwt>
<pdfrwt beam="2">  1       -2 0.30334245E-01 0.18848280E+03</pdfrwt>
<totfact> 0.45578208E+02</totfact>
</mgrwt>
</event>
<event>
 4    1  0.5410820E-008  0.5268126E+03  0.7818608E-02  0.1007008E+00
         -2   -1    0    0    0  501 -0.00000000000E+00  0.00000000000E+00  0.10865354418E+04  0.10865354418E+04  0.25500000000E-02 0.  1.
          2   -1    0    0  501    0  0.00000000000E+00 -0.00000000000E+00 -0.28526647656E+03  0.28526647658E+03  0.25500000000E-02 0. -1.
    8880022    1    1    2    0    0 -0.49401016278E+03  0.10046787401E+03  0.62246686742E+03  0.81547316859E+03  0.15294330000E+03 0.  0.
    8880022    1    1    2    0    0  0.49401016278E+03 -0.10046787401E+03  0.17880209782E+03  0.55632874979E+03  0.15294330000E+03 0. -1.
<mgrwt>
<rscale>  0 0.52681257E+03</rscale>
<asrwt>0</asrwt>
<pdfrwt beam="1">  1        2 0.43887150E-01 0.52681257E+03</pdfrwt>
<pdfrwt beam="2">  1       -2 0.16715930E+00 0.52681257E+03</pdfrwt>
<totfact> 0.26793371E+01</totfact>
</mgrwt>
</event>
<event>
 4    1  0.5410820E-008  0.3778107E+03  0.7818608E-02  0.1051746E+00
          2   -1    0    0  501    0  0.00000000000E+00  0.00000000000E+00  0.36171069156E+03  0.36171069157E+03  0.25500000000E-02 0. -1.
         -2   -1    0    0    0  501 -0.00000000000E+00 -0.00000000000E+00 -0.46086997379E+03  0.46086997380E+03  0.25500000000E-02 0.  1.
    8880022    1    1    2    0    0  0.94359881554E+02 -0.33233338064E+03 -0.20550910951E+03  0.43008709611E+03  0.15294330000E+03 0.  0.
    8880022    1    1    2    0    0 -0.94359881554E+02  0.33233338064E+03  0.10634982728E+03  0.39249356926E+03  0.15294330000E+03 0.  0.
<mgrwt>
<rscale>  0 0.37781069E+03</rscale>
<asrwt>0</asrwt>
<pdfrwt beam="1">  1        2 0.55647799E-01 0.37781069E+03</pdfrwt>
<pdfrwt beam="2">  1       -2 0.70903073E-01 0.37781069E+03</pdfrwt>
<totfact> 0.16551772E+02</totfact>
</mgrwt>
</event>
<event>
 4    1  0.5410820E-008  0.3865825E+03  0.7818608E-02  0.1048527E+00
         -2   -1    0    0    0  501 -0.00000000000E+00  0.00000000000E+00  0.12514751017E+03  0.12514751020E+03  0.25500000000E-02 0.  1.
          2   -1    0    0  501    0  0.00000000000E+00 -0.00000000000E+00 -0.19889148874E+04  0.19889148874E+04  0.25500000000E-02 0. -1.
    8880022    1    1    2    0    0 -0.35503835434E+03 -0.14753231749E+01 -0.26369902604E+03  0.46795644988E+03  0.15294330000E+03 0.  1.
    8880022    1    1    2    0    0  0.35503835434E+03  0.14753231749E+01 -0.16000683512E+04  0.16461059478E+04  0.15294330000E+03 0.  0.
<mgrwt>
<rscale>  0 0.38658254E+03</rscale>
<asrwt>0</asrwt>
<pdfrwt beam="1">  1        2 0.30598688E+00 0.38658254E+03</pdfrwt>
<pdfrwt beam="2">  1       -2 0.19253465E-01 0.38658254E+03</pdfrwt>
<totfact> 0.16592093E+02</totfact>
</mgrwt>
</event>
<event>
 4    1  0.5410820E-008  0.4395697E+03  0.7818608E-02  0.1030879E+00
         -2   -1    0    0    0  501 -0.00000000000E+00  0.00000000000E+00  0.10413355009E+04  0.10413355009E+04  0.25500000000E-02 0.  1.
          2   -1    0    0  501    0  0.00000000000E+00 -0.00000000000E+00 -0.12747260901E+04  0.12747260901E+04  0.25500000000E-02 0. -1.
    8880022    1    1    2    0    0 -0.36508728047E+03  0.19115744685E+03 -0.11871305077E+04  0.12658990430E+04  0.15294330000E+03 0.  0.
    8880022    1    1    2    0    0  0.36508728047E+03 -0.19115744685E+03  0.95373991848E+03  0.10501625479E+04  0.15294330000E+03 0.  0.
<mgrwt>
<rscale>  0 0.43956973E+03</rscale>
<asrwt>0</asrwt>
<pdfrwt beam="1">  1        2 0.19611171E+00 0.43956973E+03</pdfrwt>
<pdfrwt beam="2">  1       -2 0.16020546E+00 0.43956973E+03</pdfrwt>
<totfact> 0.46644627E+00</totfact>
</mgrwt>
</event>
<event>
 4    1  0.5410820E-008  0.2892999E+03  0.7818608E-02  0.1090715E+00
         -2   -1    0    0    0  501 -0.00000000000E+00  0.00000000000E+00  0.37787326224E+03  0.37787326225E+03  0.25500000000E-02 0.  1.
          2   -1    0    0  501    0  0.00000000000E+00 -0.00000000000E+00 -0.66950311700E+03  0.66950311701E+03  0.25500000000E-02 0. -1.
    8880022    1    1    2    0    0  0.12404968948E+03 -0.21193029547E+03 -0.57420832277E+03  0.64296938229E+03  0.15294330000E+03 0.  0.
    8880022    1    1    2    0    0 -0.12404968948E+03  0.21193029547E+03  0.28257846801E+03  0.40440699697E+03  0.15294330000E+03 0.  0.
<mgrwt>
<rscale>  0 0.28929989E+03</rscale>
<asrwt>0</asrwt>
<pdfrwt beam="1">  1        2 0.10300048E+00 0.28929989E+03</pdfrwt>
<pdfrwt beam="2">  1       -2 0.58134348E-01 0.28929989E+03</pdfrwt>
<totfact> 0.12616795E+02</totfact>
</mgrwt>
</event>
<event>
 4    1  0.5410820E-008  0.3664621E+03  0.7818608E-02  0.1056054E+00
          2   -1    0    0  501    0  0.00000000000E+00  0.00000000000E+00  0.17480294057E+03  0.17480294059E+03  0.25500000000E-02 0. -1.
         -2   -1    0    0    0  501 -0.00000000000E+00 -0.00000000000E+00 -0.18910272904E+04  0.18910272904E+04  0.25500000000E-02 0.  1.
    8880022    1    1    2    0    0  0.32078613983E+03  0.89437536560E+02 -0.16540152914E+04  0.16941254551E+04  0.15294330000E+03 0.  1.
    8880022    1    1    2    0    0 -0.32078613983E+03 -0.89437536560E+02 -0.62209058450E+02  0.37170477589E+03  0.15294330000E+03 0.  0.
<mgrwt>
<rscale>  0 0.36646210E+03</rscale>
<asrwt>0</asrwt>
<pdfrwt beam="1">  1        2 0.26892761E-01 0.36646210E+03</pdfrwt>
<pdfrwt beam="2">  1       -2 0.29092726E+00 0.36646210E+03</pdfrwt>
<totfact> 0.80198089E+00</totfact>
</mgrwt>
</event>
<event>
 4    1  0.5410820E-008  0.1387651E+04  0.7818608E-02  0.8962806E-01
          2   -1    0    0  501    0  0.00000000000E+00  0.00000000000E+00  0.29522114812E+04  0.29522114812E+04  0.25500000000E-02 0. -1.
         -2   -1    0    0    0  501 -0.00000000000E+00 -0.00000000000E+00 -0.12173985431E+04  0.12173985431E+04  0.25500000000E-02 0.  1.
    8880022    1    1    2    0    0 -0.91478067660E+02 -0.13761598400E+04  0.22878726525E+04  0.26758058729E+04  0.15294330000E+03 0.  0.
    8880022    1    1    2    0    0  0.91478067660E+02  0.13761598400E+04 -0.55305971447E+03  0.14938041514E+04  0.15294330000E+03 0.  0.
<mgrwt>
<rscale>  0 0.13876512E+04</rscale>
<asrwt>0</asrwt>
<pdfrwt beam="1">  1        2 0.45418638E+00 0.13876512E+04</pdfrwt>
<pdfrwt beam="2">  1       -2 0.18729209E+00 0.13876512E+04</pdfrwt>
<totfact> 0.28840819E-01</totfact>
</mgrwt>
</event>
<event>
 4    1  0.5410820E-008  0.4785934E+03  0.7818608E-02  0.1019522E+00
          2   -1    0    0  501    0  0.00000000000E+00  0.00000000000E+00  0.93111156047E+03  0.93111156048E+03  0.25500000000E-02 0. -1.
         -2   -1    0    0    0  501 -0.00000000000E+00 -0.00000000000E+00 -0.11626161398E+04  0.11626161398E+04  0.25500000000E-02 0.  1.
    8880022    1    1    2    0    0 -0.13771240896E+03  0.43208250545E+03  0.81378375534E+03  0.94408455795E+03  0.15294330000E+03 0.  0.
    8880022    1    1    2    0    0  0.13771240896E+03 -0.43208250545E+03 -0.10452883346E+04  0.11496431423E+04  0.15294330000E+03 0.  1.
<mgrwt>
<rscale>  0 0.47859341E+03</rscale>
<asrwt>0</asrwt>
<pdfrwt beam="1">  1        2 0.14324793E+00 0.47859341E+03</pdfrwt>
<pdfrwt beam="2">  1       -2 0.17886402E+00 0.47859341E+03</pdfrwt>
<totfact> 0.55095065E+00</totfact>
</mgrwt>
</event>
<event>
 4    1  0.5410820E-008  0.7929882E+03  0.7818608E-02  0.9570222E-01
         -2   -1    0    0    0  501 -0.00000000000E+00  0.00000000000E+00  0.94580355310E+03  0.94580355311E+03  0.25500000000E-02 0.  1.
          2   -1    0    0  501    0  0.00000000000E+00 -0.00000000000E+00 -0.21490664298E+04  0.21490664298E+04  0.25500000000E-02 0. -1.
    8880022    1    1    2    0    0 -0.76468434801E+03 -0.14386258279E+03  0.68434833353E+03  0.10474554355E+04  0.15294330000E+03 0.  0.
    8880022    1    1    2    0    0  0.76468434801E+03  0.14386258279E+03 -0.18876112102E+04  0.20474145473E+04  0.15294330000E+03 0.  0.
<mgrwt>
<rscale>  0 0.79298818E+03</rscale>
<asrwt>0</asrwt>
<pdfrwt beam="1">  1        2 0.33062560E+00 0.79298818E+03</pdfrwt>
<pdfrwt beam="2">  1       -2 0.14550824E+00 0.79298818E+03</pdfrwt>
<totfact> 0.18506071E+00</totfact>
</mgrwt>
</event>
<event>
 4    1  0.5410820E-008  0.1638205E+04  0.7818608E-02  0.8797415E-01
         -2   -1    0    0    0  501 -0.00000000000E+00  0.00000000000E+00  0.15771702103E+04  0.15771702103E+04  0.25500000000E-02 0.  1.
          2   -1    0    0  501    0  0.00000000000E+00 -0.00000000000E+00 -0.20903590721E+04  0.20903590721E+04  0.25500000000E-02 0. -1.
    8880022    1    1    2    0    0 -0.14359161142E+04  0.77360706952E+03 -0.10474055655E+04  0.19444210081E+04  0.15294330000E+03 0.  0.
    8880022    1    1    2    0    0  0.14359161142E+04 -0.77360706952E+03  0.53421670374E+03  0.17231082742E+04  0.15294330000E+03 0.  0.
<mgrwt>
<rscale>  0 0.16382047E+04</rscale>
<asrwt>0</asrwt>
<pdfrwt beam="1">  1        2 0.32159370E+00 0.16382047E+04</pdfrwt>
<pdfrwt beam="2">  1       -2 0.24264157E+00 0.16382047E+04</pdfrwt>
<totfact> 0.39214698E-01</totfact>
</mgrwt>
</event>
<event>
 4    1  0.5410820E-008  0.5618239E+03  0.7818608E-02  0.9987936E-01
         -2   -1    0    0    0  501 -0.00000000000E+00  0.00000000000E+00  0.69190945343E+03  0.69190945344E+03  0.25500000000E-02 0.  1.
          2   -1    0    0  501    0  0.00000000000E+00 -0.00000000000E+00 -0.18870893610E+04  0.18870893610E+04  0.25500000000E-02 0. -1.
    8880022    1    1    2    0    0  0.41838841227E+03 -0.34235296291E+03 -0.17204576931E+04  0.18098676033E+04  0.15294330000E+03 0.  0.
    8880022    1    1    2    0    0 -0.41838841227E+03  0.34235296291E+03  0.52527778561E+03  0.76913121105E+03  0.15294330000E+03 0.  0.
<mgrwt>
<rscale>  0 0.56182388E+03</rscale>
<asrwt>0</asrwt>
<pdfrwt beam="1">  1        2 0.29032144E+00 0.56182388E+03</pdfrwt>
<pdfrwt beam="2">  1       -2 0.10644761E+00 0.56182388E+03</pdfrwt>
<totfact> 0.58745111E+00</totfact>
</mgrwt>
</event>
<event>
 4    1  0.5410820E-008  0.2370605E+03  0.7818608E-02  0.1121767E+00
         -2   -1    0    0    0  501 -0.00000000000E+00  0.00000000000E+00  0.41691286080E+03  0.41691286081E+03  0.25500000000E-02 0.  1.
          2   -1    0    0  501    0  0.00000000000E+00 -0.00000000000E+00 -0.31990738621E+03  0.31990738622E+03  0.25500000000E-02 0. -1.
    8880022    1    1    2    0    0 -0.18100727552E+03 -0.65097190280E+01  0.32874747040E+03  0.40530551753E+03  0.15294330000E+03 0.  1.
    8880022    1    1    2    0    0  0.18100727552E+03  0.65097190280E+01 -0.23174199581E+03  0.33151472949E+03  0.15294330000E+03 0.  0.
<mgrwt>
<rscale>  0 0.23706046E+03</rscale>
<asrwt>0</asrwt>
<pdfrwt beam="1">  1        2 0.49216521E-01 0.23706046E+03</pdfrwt>
<pdfrwt beam="2">  1       -2 0.64140440E-01 0.23706046E+03</pdfrwt>
<totfact> 0.23647357E+02</totfact>
</mgrwt>
</event>
<event>
 4    1  0.5410820E-008  0.2414103E+03  0.7818608E-02  0.1118857E+00
          2   -1    0    0  501    0  0.00000000000E+00  0.00000000000E+00  0.14725946909E+04  0.14725946909E+04  0.25500000000E-02 0. -1.
         -2   -1    0    0    0  501 -0.00000000000E+00 -0.00000000000E+00 -0.80055124592E+02  0.80055124632E+02  0.25500000000E-02 0.  1.
    8880022    1    1    2    0    0  0.16616035314E+03 -0.85311350013E+02  0.14423530684E+03  0.28121658228E+03  0.15294330000E+03 0.  0.
    8880022    1    1    2    0    0 -0.16616035314E+03  0.85311350013E+02  0.12483042595E+04  0.12714332333E+04  0.15294330000E+03 0.  0.
<mgrwt>
<rscale>  0 0.24141032E+03</rscale>
<asrwt>0</asrwt>
<pdfrwt beam="1">  1        2 0.22655305E+00 0.24141032E+03</pdfrwt>
<pdfrwt beam="2">  1       -2 0.12316172E-01 0.24141032E+03</pdfrwt>
<totfact> 0.67325418E+02</totfact>
</mgrwt>
</event>
<event>
 4    1  0.5410820E-008  0.1454059E+04  0.7818608E-02  0.8915592E-01
          2   -1    0    0  501    0  0.00000000000E+00  0.00000000000E+00  0.34382091306E+04  0.34382091306E+04  0.25500000000E-02 0. -1.
         -2   -1    0    0    0  501 -0.00000000000E+00 -0.00000000000E+00 -0.86446150628E+03  0.86446150628E+03  0.25500000000E-02 0.  1.
    8880022    1    1    2    0    0  0.11387483527E+04 -0.89114906963E+03  0.24426954941E+04  0.28427183127E+04  0.15294330000E+03 0.  0.
    8880022    1    1    2    0    0 -0.11387483527E+04  0.89114906963E+03  0.13105213015E+03  0.14599523242E+04  0.15294330000E+03 0.  0.
<mgrwt>
<rscale>  0 0.14540585E+04</rscale>
<asrwt>0</asrwt>
<pdfrwt beam="1">  1        2 0.52895526E+00 0.14540585E+04</pdfrwt>
<pdfrwt beam="2">  1       -2 0.13299408E+00 0.14540585E+04</pdfrwt>
<totfact> 0.35331789E-01</totfact>
</mgrwt>
</event>
<event>
 4    1  0.5410820E-008  0.4467663E+03  0.7818608E-02  0.1028691E+00
         -2   -1    0    0    0  501 -0.00000000000E+00  0.00000000000E+00  0.10518524773E+04  0.10518524774E+04  0.25500000000E-02 0.  1.
          2   -1    0    0  501    0  0.00000000000E+00 -0.00000000000E+00 -0.89083983371E+03  0.89083983372E+03  0.25500000000E-02 0. -1.
    8880022    1    1    2    0    0 -0.34061855062E+03  0.24533143831E+03 -0.78119698783E+03  0.89992716287E+03  0.15294330000E+03 0.  0.
    8880022    1    1    2    0    0  0.34061855062E+03 -0.24533143831E+03  0.94220963147E+03  0.10427651482E+04  0.15294330000E+03 0.  0.
<mgrwt>
<rscale>  0 0.44676634E+03</rscale>
<asrwt>0</asrwt>
<pdfrwt beam="1">  1        2 0.13705228E+00 0.44676634E+03</pdfrwt>
<pdfrwt beam="2">  1       -2 0.16182346E+00 0.44676634E+03</pdfrwt>
<totfact> 0.77620666E+00</totfact>
</mgrwt>
</event>
<event>
 4    1  0.5410820E-008  0.5723642E+03  0.7818608E-02  0.9964461E-01
          2   -1    0    0  501    0  0.00000000000E+00  0.00000000000E+00  0.87173715556E+03  0.87173715557E+03  0.25500000000E-02 0. -1.
         -2   -1    0    0    0  501 -0.00000000000E+00 -0.00000000000E+00 -0.62757039866E+03  0.62757039866E+03  0.25500000000E-02 0.  1.
    8880022    1    1    2    0    0  0.48062891442E+03  0.27056415121E+03 -0.35273762274E+03  0.67232774508E+03  0.15294330000E+03 0.  0.
    8880022    1    1    2    0    0 -0.48062891442E+03 -0.27056415121E+03  0.59690437964E+03  0.82697980915E+03  0.15294330000E+03 0.  0.
<mgrwt>
<rscale>  0 0.57236419E+03</rscale>
<asrwt>0</asrwt>
<pdfrwt beam="1">  1        2 0.13411341E+00 0.57236419E+03</pdfrwt>
<pdfrwt beam="2">  1       -2 0.96549293E-01 0.57236419E+03</pdfrwt>
<totfact> 0.28449816E+01</totfact>
</mgrwt>
</event>
<event>
 4    1  0.5410820E-008  0.2483220E+03  0.7818608E-02  0.1114370E+00
         -2   -1    0    0    0  501 -0.00000000000E+00  0.00000000000E+00  0.65898907036E+03  0.65898907036E+03  0.25500000000E-02 0.  1.
          2   -1    0    0  501    0  0.00000000000E+00 -0.00000000000E+00 -0.13549099736E+04  0.13549099736E+04  0.25500000000E-02 0. -1.
    8880022    1    1    2    0    0 -0.16697742309E+03  0.10193475508E+03 -0.13195167806E+04  0.13426795379E+04  0.15294330000E+03 0.  0.
    8880022    1    1    2    0    0  0.16697742309E+03 -0.10193475508E+03  0.62359587735E+03  0.67121950610E+03  0.15294330000E+03 0.  0.
<mgrwt>
<rscale>  0 0.24832198E+03</rscale>
<asrwt>0</asrwt>
<pdfrwt beam="1">  1        2 0.20844769E+00 0.24832198E+03</pdfrwt>
<pdfrwt beam="2">  1       -2 0.10138293E+00 0.24832198E+03</pdfrwt>
<totfact> 0.13961196E+01</totfact>
</mgrwt>
</event>
<event>
 4    1  0.5410820E-008  0.9002884E+03  0.7818608E-02  0.9425221E-01
          2   -1    0    0  501    0  0.00000000000E+00  0.00000000000E+00  0.41481614829E+04  0.41481614829E+04  0.25500000000E-02 0. -1.
         -2   -1    0    0    0  501 -0.00000000000E+00 -0.00000000000E+00 -0.20841553569E+03  0.20841553570E+03  0.25500000000E-02 0.  1.
    8880022    1    1    2    0    0  0.58300603598E+03  0.66875371743E+03  0.14253601055E+04  0.16858738553E+04  0.15294330000E+03 0.  0.
    8880022    1    1    2    0    0 -0.58300603598E+03 -0.66875371743E+03  0.25143858417E+04  0.26707031633E+04  0.15294330000E+03 0.  0.
<mgrwt>
<rscale>  0 0.90028841E+03</rscale>
<asrwt>0</asrwt>
<pdfrwt beam="1">  1        2 0.63817866E+00 0.90028841E+03</pdfrwt>
<pdfrwt beam="2">  1       -2 0.32063930E-01 0.90028841E+03</pdfrwt>
<totfact> 0.25175083E+00</totfact>
</mgrwt>
</event>
<event>
 4    1  0.5410820E-008  0.6416951E+03  0.7818608E-02  0.9822489E-01
          2   -1    0    0  501    0  0.00000000000E+00  0.00000000000E+00  0.38410266353E+04  0.38410266353E+04  0.25500000000E-02 0. -1.
         -2   -1    0    0    0  501 -0.00000000000E+00 -0.00000000000E+00 -0.29627574085E+03  0.29627574086E+03  0.25500000000E-02 0.  1.
    8880022    1    1    2    0    0 -0.60346316728E+03 -0.15560565712E+03  0.11983237950E+03  0.65278814862E+03  0.15294330000E+03 0.  0.
    8880022    1    1    2    0    0  0.60346316728E+03  0.15560565712E+03  0.34249185149E+04  0.34845142275E+04  0.15294330000E+03 0.  0.
<mgrwt>
<rscale>  0 0.64169507E+03</rscale>
<asrwt>0</asrwt>
<pdfrwt beam="1">  1        2 0.59092717E+00 0.64169507E+03</pdfrwt>
<pdfrwt beam="2">  1       -2 0.45580884E-01 0.64169507E+03</pdfrwt>
<totfact> 0.23605902E+00</totfact>
</mgrwt>
</event>
<event>
 4    1  0.8066515E-008  0.4863397E+03  0.7818608E-02  0.1017407E+00
          2   -1    0    0  501    0  0.00000000000E+00  0.00000000000E+00  0.22890589469E+04  0.22890589469E+04  0.25500000000E-02 0. -1.
         -2   -1    0    0    0  501 -0.00000000000E+00 -0.00000000000E+00 -0.61456610261E+03  0.61456610262E+03  0.25500000000E-02 0.  1.
    8880022    1    1    2    0    0  0.42787317927E+03  0.17337598393E+03 -0.48690419829E+03  0.68818750401E+03  0.15294330000E+03 0.  0.
    8880022    1    1    2    0    0 -0.42787317927E+03 -0.17337598393E+03  0.21613970426E+04  0.22154375455E+04  0.15294330000E+03 0.  0.
<mgrwt>
<rscale>  0 0.48633974E+03</rscale>
<asrwt>0</asrwt>
<pdfrwt beam="1">  1        2 0.35216292E+00 0.48633974E+03</pdfrwt>
<pdfrwt beam="2">  1       -2 0.94548630E-01 0.48633974E+03</pdfrwt>
<totfact> 0.47928000E+00</totfact>
</mgrwt>
</event>
<event>
 4    1  0.5410820E-008  0.2149591E+03  0.7818608E-02  0.1137698E+00
         -2   -1    0    0    0  501 -0.00000000000E+00  0.00000000000E+00  0.76198071586E+02  0.76198071629E+02  0.25500000000E-02 0.  1.
          2   -1    0    0  501    0  0.00000000000E+00 -0.00000000000E+00 -0.20957361807E+04  0.20957361807E+04  0.25500000000E-02 0. -1.
    8880022    1    1    2    0    0  0.25245889379E+02  0.14892416017E+03 -0.19252367331E+04  0.19372000133E+04  0.15294330000E+03 0.  0.
    8880022    1    1    2    0    0 -0.25245889379E+02 -0.14892416017E+03 -0.94301376080E+02  0.23473423900E+03  0.15294330000E+03 0.  1.
<mgrwt>
<rscale>  0 0.21495910E+03</rscale>
<asrwt>0</asrwt>
<pdfrwt beam="1">  1        2 0.32242091E+00 0.21495910E+03</pdfrwt>
<pdfrwt beam="2">  1       -2 0.11722782E-01 0.21495910E+03</pdfrwt>
<totfact> 0.34516115E+02</totfact>
</mgrwt>
</event>
<event>
 4    1  0.5540353E-008  0.6250280E+03  0.7818608E-02  0.9854800E-01
         -2   -1    0    0    0  501 -0.00000000000E+00  0.00000000000E+00  0.88472312914E+03  0.88472312915E+03  0.25500000000E-02 0.  1.
          2   -1    0    0  501    0  0.00000000000E+00 -0.00000000000E+00 -0.35198916349E+04  0.35198916349E+04  0.25500000000E-02 0. -1.
    8880022    1    1    2    0    0  0.31651394608E+03 -0.51680482620E+03  0.74195873813E+03  0.97013541764E+03  0.15294330000E+03 0.  0.
    8880022    1    1    2    0    0 -0.31651394608E+03  0.51680482620E+03 -0.33771272439E+04  0.34344793464E+04  0.15294330000E+03 0.  0.
<mgrwt>
<rscale>  0 0.62502797E+03</rscale>
<asrwt>0</asrwt>
<pdfrwt beam="1">  1        2 0.54152178E+00 0.62502797E+03</pdfrwt>
<pdfrwt beam="2">  1       -2 0.13611125E+00 0.62502797E+03</pdfrwt>
<totfact> 0.34391851E-01</totfact>
</mgrwt>
</event>
<event>
 4    1  0.5410820E-008  0.5350663E+03  0.7818608E-02  0.1005011E+00
         -2   -1    0    0    0  501 -0.00000000000E+00  0.00000000000E+00  0.43433632043E+03  0.43433632044E+03  0.25500000000E-02 0.  1.
          2   -1    0    0  501    0  0.00000000000E+00 -0.00000000000E+00 -0.16961570290E+04  0.16961570290E+04  0.25500000000E-02 0. -1.
    8880022    1    1    2    0    0 -0.27889622140E+03 -0.43025715071E+03  0.20201574996E+03  0.57193210637E+03  0.15294330000E+03 0.  0.
    8880022    1    1    2    0    0  0.27889622140E+03  0.43025715071E+03 -0.14638364585E+04  0.15585612430E+04  0.15294330000E+03 0.  0.
<mgrwt>
<rscale>  0 0.53506632E+03</rscale>
<asrwt>0</asrwt>
<pdfrwt beam="1">  1        2 0.26094723E+00 0.53506632E+03</pdfrwt>
<pdfrwt beam="2">  1       -2 0.66820973E-01 0.53506632E+03</pdfrwt>
<totfact> 0.21520090E+01</totfact>
</mgrwt>
</event>
<event>
 4    1  0.5410820E-008  0.6163801E+03  0.7818608E-02  0.9871993E-01
         -2   -1    0    0    0  501 -0.00000000000E+00  0.00000000000E+00  0.17037884997E+03  0.17037884999E+03  0.25500000000E-02 0.  1.
          2   -1    0    0  501    0  0.00000000000E+00 -0.00000000000E+00 -0.37578914803E+04  0.37578914803E+04  0.25500000000E-02 0. -1.
    8880022    1    1    2    0    0 -0.24958975163E+03 -0.54243684931E+03 -0.30462124575E+04  0.31079470344E+04  0.15294330000E+03 0.  0.
    8880022    1    1    2    0    0  0.24958975163E+03  0.54243684931E+03 -0.54130017284E+03  0.82032329586E+03  0.15294330000E+03 0.  0.
<mgrwt>
<rscale>  0 0.61638010E+03</rscale>
<asrwt>0</asrwt>
<pdfrwt beam="1">  1        2 0.57813709E+00 0.61638010E+03</pdfrwt>
<pdfrwt beam="2">  1       -2 0.26212134E-01 0.61638010E+03</pdfrwt>
<totfact> 0.78180598E+00</totfact>
</mgrwt>
</event>
<event>
 4    1  0.5410820E-008  0.3063917E+03  0.7818608E-02  0.1082088E+00
         -2   -1    0    0    0  501 -0.00000000000E+00  0.00000000000E+00  0.10229520619E+04  0.10229520619E+04  0.25500000000E-02 0.  1.
          2   -1    0    0  501    0  0.00000000000E+00 -0.00000000000E+00 -0.16264892299E+03  0.16264892301E+03  0.25500000000E-02 0. -1.
    8880022    1    1    2    0    0  0.41404136587E+02  0.26224019285E+03  0.82148128016E+03  0.87675958389E+03  0.15294330000E+03 0.  0.
    8880022    1    1    2    0    0 -0.41404136587E+02 -0.26224019285E+03  0.38821858775E+02  0.30884140105E+03  0.15294330000E+03 0.  0.
<mgrwt>
<rscale>  0 0.30639170E+03</rscale>
<asrwt>0</asrwt>
<pdfrwt beam="1">  1        2 0.25022912E-01 0.30639170E+03</pdfrwt>
<pdfrwt beam="2">  1       -2 0.15737724E+00 0.30639170E+03</pdfrwt>
<totfact> 0.60213717E+01</totfact>
</mgrwt>
</event>
<event>
 4    1  0.5410820E-008  0.4236613E+03  0.7818608E-02  0.1035881E+00
          2   -1    0    0  501    0  0.00000000000E+00  0.00000000000E+00  0.18136019282E+04  0.18136019282E+04  0.25500000000E-02 0. -1.
         -2   -1    0    0    0  501 -0.00000000000E+00 -0.00000000000E+00 -0.23186179879E+03  0.23186179880E+03  0.25500000000E-02 0.  1.
    8880022    1    1    2    0    0 -0.37094349026E+03 -0.13600809838E+03  0.15651521448E+04  0.16214777720E+04  0.15294330000E+03 0.  0.
    8880022    1    1    2    0    0  0.37094349026E+03  0.13600809838E+03  0.16587984639E+02  0.42398595500E+03  0.15294330000E+03 0.  0.
<mgrwt>
<rscale>  0 0.42366134E+03</rscale>
<asrwt>0</asrwt>
<pdfrwt beam="1">  1        2 0.27901567E+00 0.42366134E+03</pdfrwt>
<pdfrwt beam="2">  1       -2 0.35671047E-01 0.42366134E+03</pdfrwt>
<totfact> 0.67309718E+01</totfact>
</mgrwt>
</event>
<event>
 4    1  0.5410820E-008  0.8007351E+03  0.7818608E-02  0.9558954E-01
         -2   -1    0    0    0  501 -0.00000000000E+00  0.00000000000E+00  0.10426954083E+04  0.10426954083E+04  0.25500000000E-02 0.  1.
          2   -1    0    0  501    0  0.00000000000E+00 -0.00000000000E+00 -0.19826259322E+04  0.19826259322E+04  0.25500000000E-02 0. -1.
    8880022    1    1    2    0    0 -0.77141598371E+03  0.15067343710E+03 -0.17263339645E+04  0.19029991368E+04  0.15294330000E+03 0.  0.
    8880022    1    1    2    0    0  0.77141598371E+03 -0.15067343710E+03  0.78640344055E+03  0.11223222037E+04  0.15294330000E+03 0.  0.
<mgrwt>
<rscale>  0 0.80073514E+03</rscale>
<asrwt>0</asrwt>
<pdfrwt beam="1">  1        2 0.30501937E+00 0.80073514E+03</pdfrwt>
<pdfrwt beam="2">  1       -2 0.16041468E+00 0.80073514E+03</pdfrwt>
<totfact> 0.17580629E+00</totfact>
</mgrwt>
</event>
<event>
 4    1  0.5410820E-008  0.4304080E+03  0.7818608E-02  0.1033731E+00
         -2   -1    0    0    0  501 -0.00000000000E+00  0.00000000000E+00  0.15662790790E+03  0.15662790792E+03  0.25500000000E-02 0.  1.
          2   -1    0    0  501    0  0.00000000000E+00 -0.00000000000E+00 -0.16591407675E+04  0.16591407675E+04  0.25500000000E-02 0. -1.
    8880022    1    1    2    0    0  0.13388843645E+03  0.37938538786E+03 -0.12377447036E+04  0.13104438142E+04  0.15294330000E+03 0.  0.
    8880022    1    1    2    0    0 -0.13388843645E+03 -0.37938538786E+03 -0.26476815608E+03  0.50532486128E+03  0.15294330000E+03 0.  0.
<mgrwt>
<rscale>  0 0.43040799E+03</rscale>
<asrwt>0</asrwt>
<pdfrwt beam="1">  1        2 0.25525241E+00 0.43040799E+03</pdfrwt>
<pdfrwt beam="2">  1       -2 0.24096602E-01 0.43040799E+03</pdfrwt>
<totfact> 0.16695411E+02</totfact>
</mgrwt>
</event>
<event>
 4    1  0.5410820E-008  0.2793404E+03  0.7818608E-02  0.1096050E+00
         -2   -1    0    0    0  501 -0.00000000000E+00  0.00000000000E+00  0.11359782680E+03  0.11359782683E+03  0.25500000000E-02 0.  1.
          2   -1    0    0  501    0  0.00000000000E+00 -0.00000000000E+00 -0.15626053920E+04  0.15626053920E+04  0.25500000000E-02 0. -1.
    8880022    1    1    2    0    0 -0.23341983077E+03 -0.12432855364E+02 -0.97096578239E+02  0.29573432640E+03  0.15294330000E+03 0.  0.
    8880022    1    1    2    0    0  0.23341983077E+03  0.12432855364E+02 -0.13519109870E+04  0.13804688925E+04  0.15294330000E+03 0. -1.
<mgrwt>
<rscale>  0 0.27934038E+03</rscale>
<asrwt>0</asrwt>
<pdfrwt beam="1">  1        2 0.24040081E+00 0.27934038E+03</pdfrwt>
<pdfrwt beam="2">  1       -2 0.17476590E-01 0.27934038E+03</pdfrwt>
<totfact> 0.33593437E+02</totfact>
</mgrwt>
</event>
<event>
 4    1  0.5410820E-008  0.2288833E+03  0.7818608E-02  0.1127428E+00
          2   -1    0    0  501    0  0.00000000000E+00  0.00000000000E+00  0.15268108074E+04  0.15268108074E+04  0.25500000000E-02 0. -1.
         -2   -1    0    0    0  501 -0.00000000000E+00 -0.00000000000E+00 -0.38389870177E+02  0.38389870262E+02  0.25500000000E-02 0.  1.
    8880022    1    1    2    0    0 -0.17027640951E+03  0.13665295425E+01  0.48913961336E+03  0.54004179228E+03  0.15294330000E+03 0.  1.
    8880022    1    1    2    0    0  0.17027640951E+03 -0.13665295425E+01  0.99928132387E+03  0.10251588854E+04  0.15294330000E+03 0. -1.
<mgrwt>
<rscale>  0 0.22888332E+03</rscale>
<asrwt>0</asrwt>
<pdfrwt beam="1">  1        2 0.23489398E+00 0.22888332E+03</pdfrwt>
<pdfrwt beam="2">  1       -2 0.59061336E-02 0.22888332E+03</pdfrwt>
<totfact> 0.20043056E+03</totfact>
</mgrwt>
</event>
<event>
 4    1  0.5410820E-008  0.6163080E+03  0.7818608E-02  0.9872138E-01
          2   -1    0    0  501    0  0.00000000000E+00  0.00000000000E+00  0.22656565501E+04  0.22656565501E+04  0.25500000000E-02 0. -1.
         -2   -1    0    0    0  501 -0.00000000000E+00 -0.00000000000E+00 -0.23271134483E+03  0.23271134484E+03  0.25500000000E-02 0.  1.
    8880022    1    1    2    0    0  0.51795679355E+03  0.29692526357E+03  0.16769862710E+04  0.17866500660E+04  0.15294330000E+03 0.  0.
    8880022    1    1    2    0    0 -0.51795679355E+03 -0.29692526357E+03  0.35595893422E+03  0.71171782892E+03  0.15294330000E+03 0.  0.
<mgrwt>
<rscale>  0 0.61630796E+03</rscale>
<asrwt>0</asrwt>
<pdfrwt beam="1">  1        2 0.34856253E+00 0.61630796E+03</pdfrwt>
<pdfrwt beam="2">  1       -2 0.35801747E-01 0.61630796E+03</pdfrwt>
<totfact> 0.36787538E+01</totfact>
</mgrwt>
</event>
<event>
 4    1  0.5410820E-008  0.1721099E+03  0.7818608E-02  0.1175665E+00
          2   -1    0    0  501    0  0.00000000000E+00  0.00000000000E+00  0.19945174067E+03  0.19945174068E+03  0.25500000000E-02 0. -1.
         -2   -1    0    0    0  501 -0.00000000000E+00 -0.00000000000E+00 -0.15155634060E+03  0.15155634063E+03  0.25500000000E-02 0.  1.
    8880022    1    1    2    0    0 -0.67774300579E+02  0.40457343507E+02 -0.90938347692E+00  0.17211226701E+03  0.15294330000E+03 0. -1.
    8880022    1    1    2    0    0  0.67774300579E+02 -0.40457343507E+02  0.48804783541E+02  0.17889581430E+03  0.15294330000E+03 0.  1.
<mgrwt>
<rscale>  0 0.17210986E+03</rscale>
<asrwt>0</asrwt>
<pdfrwt beam="1">  1        2 0.30684883E-01 0.17210986E+03</pdfrwt>
<pdfrwt beam="2">  1       -2 0.23316360E-01 0.17210986E+03</pdfrwt>
<totfact> 0.26918244E+03</totfact>
</mgrwt>
</event>
<event>
 4    1  0.5410820E-008  0.9771141E+03  0.7818608E-02  0.9334008E-01
          2   -1    0    0  501    0  0.00000000000E+00  0.00000000000E+00  0.35440821516E+04  0.35440821516E+04  0.25500000000E-02 0. -1.
         -2   -1    0    0    0  501 -0.00000000000E+00 -0.00000000000E+00 -0.43130343381E+03  0.43130343382E+03  0.25500000000E-02 0.  1.
    8880022    1    1    2    0    0  0.96360587169E+03 -0.53141779490E+02  0.27742422297E+04  0.29412874607E+04  0.15294330000E+03 0.  0.
    8880022    1    1    2    0    0 -0.96360587169E+03  0.53141779490E+02  0.33853648810E+03  0.10340981247E+04  0.15294330000E+03 0.  0.
<mgrwt>
<rscale>  0 0.97711411E+03</rscale>
<asrwt>0</asrwt>
<pdfrwt beam="1">  1        2 0.54524341E+00 0.97711411E+03</pdfrwt>
<pdfrwt beam="2">  1       -2 0.66354374E-01 0.97711411E+03</pdfrwt>
<totfact> 0.16465121E+00</totfact>
</mgrwt>
</event>
<event>
 4    1  0.5410820E-008  0.2562786E+03  0.7818608E-02  0.1109400E+00
         -2   -1    0    0    0  501 -0.00000000000E+00  0.00000000000E+00  0.50747839186E+03  0.50747839187E+03  0.25500000000E-02 0.  1.
          2   -1    0    0  501    0  0.00000000000E+00 -0.00000000000E+00 -0.16861551850E+04  0.16861551850E+04  0.25500000000E-02 0. -1.
    8880022    1    1    2    0    0 -0.17759554127E+03 -0.10366730507E+03 -0.16432215090E+04  0.16630861875E+04  0.15294330000E+03 0.  0.
    8880022    1    1    2    0    0  0.17759554127E+03  0.10366730507E+03  0.46454471581E+03  0.53054738942E+03  0.15294330000E+03 0.  1.
<mgrwt>
<rscale>  0 0.25627864E+03</rscale>
<asrwt>0</asrwt>
<pdfrwt beam="1">  1        2 0.25940849E+00 0.25627864E+03</pdfrwt>
<pdfrwt beam="2">  1       -2 0.78073600E-01 0.25627864E+03</pdfrwt>
<totfact> 0.16725364E+01</totfact>
</mgrwt>
</event>
<event>
 4    1  0.5410820E-008  0.7915969E+03  0.7818608E-02  0.9572261E-01
         -2   -1    0    0    0  501 -0.00000000000E+00  0.00000000000E+00  0.32543461399E+03  0.32543461400E+03  0.25500000000E-02 0.  1.
          2   -1    0    0  501    0  0.00000000000E+00 -0.00000000000E+00 -0.34328118292E+04  0.34328118292E+04  0.25500000000E-02 0. -1.
    8880022    1    1    2    0    0 -0.37641613964E+03 -0.67937089464E+03 -0.27988661269E+04  0.29086555609E+04  0.15294330000E+03 0.  0.
    8880022    1    1    2    0    0  0.37641613964E+03  0.67937089464E+03 -0.30851108831E+03  0.84959088230E+03  0.15294330000E+03 0.  0.
<mgrwt>
<rscale>  0 0.79159685E+03</rscale>
<asrwt>0</asrwt>
<pdfrwt beam="1">  1        2 0.52812487E+00 0.79159685E+03</pdfrwt>
<pdfrwt beam="2">  1       -2 0.50066866E-01 0.79159685E+03</pdfrwt>
<totfact> 0.36677584E+00</totfact>
</mgrwt>
</event>
<event>
 4    1  0.5410820E-008  0.7138226E+03  0.7818608E-02  0.9693881E-01
          2   -1    0    0  501    0  0.00000000000E+00  0.00000000000E+00  0.50760804603E+03  0.50760804604E+03  0.25500000000E-02 0. -1.
         -2   -1    0    0    0  501 -0.00000000000E+00 -0.00000000000E+00 -0.13319680355E+04  0.13319680355E+04  0.25500000000E-02 0.  1.
    8880022    1    1    2    0    0  0.34856826968E+03 -0.60386361273E+03  0.44362741974E+02  0.71519983732E+03  0.15294330000E+03 0.  0.
    8880022    1    1    2    0    0 -0.34856826968E+03  0.60386361273E+03 -0.86872273139E+03  0.11243762442E+04  0.15294330000E+03 0.  0.
<mgrwt>
<rscale>  0 0.71382264E+03</rscale>
<asrwt>0</asrwt>
<pdfrwt beam="1">  1        2 0.78093546E-01 0.71382264E+03</pdfrwt>
<pdfrwt beam="2">  1       -2 0.20491816E+00 0.71382264E+03</pdfrwt>
<totfact> 0.76562263E+00</totfact>
</mgrwt>
</event>
<event>
 4    1  0.8345393E-008  0.6886240E+03  0.7818608E-02  0.9736887E-01
          2   -1    0    0  501    0  0.00000000000E+00  0.00000000000E+00  0.27055151173E+04  0.27055151173E+04  0.25500000000E-02 0. -1.
         -2   -1    0    0    0  501 -0.00000000000E+00 -0.00000000000E+00 -0.56581518535E+03  0.56581518535E+03  0.25500000000E-02 0.  1.
    8880022    1    1    2    0    0  0.39420138056E+03  0.54352241944E+03  0.24287616461E+04  0.25244972045E+04  0.15294330000E+03 0.  0.
    8880022    1    1    2    0    0 -0.39420138056E+03 -0.54352241944E+03 -0.28906171417E+03  0.74683309814E+03  0.15294330000E+03 0.  0.
<mgrwt>
<rscale>  0 0.68862399E+03</rscale>
<asrwt>0</asrwt>
<pdfrwt beam="1">  1        2 0.41623309E+00 0.68862399E+03</pdfrwt>
<pdfrwt beam="2">  1       -2 0.87048491E-01 0.68862399E+03</pdfrwt>
<totfact> 0.32180552E+00</totfact>
</mgrwt>
</event>
<event>
 4    1  0.5410820E-008  0.2951726E+03  0.7818608E-02  0.1087679E+00
          2   -1    0    0  501    0  0.00000000000E+00  0.00000000000E+00  0.27461005844E+04  0.27461005844E+04  0.25500000000E-02 0. -1.
         -2   -1    0    0    0  501 -0.00000000000E+00 -0.00000000000E+00 -0.90293750132E+02  0.90293750168E+02  0.25500000000E-02 0.  1.
    8880022    1    1    2    0    0  0.24987936281E+03  0.35993539346E+02  0.24700754123E+04  0.24876493777E+04  0.15294330000E+03 0.  0.
    8880022    1    1    2    0    0 -0.24987936281E+03 -0.35993539346E+02  0.18573142198E+03  0.34874495689E+03  0.15294330000E+03 0.  0.
<mgrwt>
<rscale>  0 0.29517263E+03</rscale>
<asrwt>0</asrwt>
<pdfrwt beam="1">  1        2 0.42247694E+00 0.29517263E+03</pdfrwt>
<pdfrwt beam="2">  1       -2 0.13891348E-01 0.29517263E+03</pdfrwt>
<totfact> 0.11329808E+02</totfact>
</mgrwt>
</event>
<event>
 4    1  0.5410820E-008  0.7648188E+03  0.7818608E-02  0.9612385E-01
         -2   -1    0    0    0  501 -0.00000000000E+00  0.00000000000E+00  0.31454423687E+03  0.31454423689E+03  0.25500000000E-02 0.  1.
          2   -1    0    0  501    0  0.00000000000E+00 -0.00000000000E+00 -0.20079327231E+04  0.20079327231E+04  0.25500000000E-02 0. -1.
    8880022    1    1    2    0    0  0.74894837493E+03  0.25149896939E+02 -0.53114596320E+03  0.93116264576E+03  0.15294330000E+03 0.  0.
    8880022    1    1    2    0    0 -0.74894837493E+03 -0.25149896939E+02 -0.11622425230E+04  0.13913143142E+04  0.15294330000E+03 0.  0.
<mgrwt>
<rscale>  0 0.76481883E+03</rscale>
<asrwt>0</asrwt>
<pdfrwt beam="1">  1        2 0.30891272E+00 0.76481883E+03</pdfrwt>
<pdfrwt beam="2">  1       -2 0.48391422E-01 0.76481883E+03</pdfrwt>
<totfact> 0.27582115E+01</totfact>
</mgrwt>
</event>
<event>
 4    1  0.5410820E-008  0.1016976E+04  0.7818608E-02  0.9290119E-01
         -2   -1    0    0    0  501 -0.00000000000E+00  0.00000000000E+00  0.89916861788E+03  0.89916861789E+03  0.25500000000E-02 0.  1.
          2   -1    0    0  501    0  0.00000000000E+00 -0.00000000000E+00 -0.16670174992E+04  0.16670174993E+04  0.25500000000E-02 0. -1.
    8880022    1    1    2    0    0  0.45511428350E+03 -0.89650411207E+03 -0.10983367865E+04  0.14968580372E+04  0.15294330000E+03 0.  0.
    8880022    1    1    2    0    0 -0.45511428350E+03  0.89650411207E+03  0.33048790514E+03  0.10693280799E+04  0.15294330000E+03 0.  0.
<mgrwt>
<rscale>  0 0.10169761E+04</rscale>
<asrwt>0</asrwt>
<pdfrwt beam="1">  1        2 0.25646423E+00 0.10169761E+04</pdfrwt>
<pdfrwt beam="2">  1       -2 0.13833363E+00 0.10169761E+04</pdfrwt>
<totfact> 0.37616007E+00</totfact>
</mgrwt>
</event>
<event>
 4    1  0.5410820E-008  0.1080742E+04  0.7818608E-02  0.9224168E-01
          2   -1    0    0  501    0  0.00000000000E+00  0.00000000000E+00  0.17599479120E+04  0.17599479120E+04  0.25500000000E-02 0. -1.
         -2   -1    0    0    0  501 -0.00000000000E+00 -0.00000000000E+00 -0.15776254055E+04  0.15776254055E+04  0.25500000000E-02 0.  1.
    8880022    1    1    2    0    0 -0.79044714547E+03  0.72097542172E+03  0.13613380494E+04  0.17381729449E+04  0.15294330000E+03 0.  0.
    8880022    1    1    2    0    0  0.79044714547E+03 -0.72097542172E+03 -0.11790155429E+04  0.15994003726E+04  0.15294330000E+03 0.  0.
<mgrwt>
<rscale>  0 0.10807423E+04</rscale>
<asrwt>0</asrwt>
<pdfrwt beam="1">  1        2 0.27076122E+00 0.10807423E+04</pdfrwt>
<pdfrwt beam="2">  1       -2 0.24271160E+00 0.10807423E+04</pdfrwt>
<totfact> 0.63917674E-01</totfact>
</mgrwt>
</event>
<event>
 4    1  0.5410820E-008  0.7506239E+03  0.7818608E-02  0.9634372E-01
          2   -1    0    0  501    0  0.00000000000E+00  0.00000000000E+00  0.13635003874E+04  0.13635003874E+04  0.25500000000E-02 0. -1.
         -2   -1    0    0    0  501 -0.00000000000E+00 -0.00000000000E+00 -0.51606705927E+03  0.51606705928E+03  0.25500000000E-02 0.  1.
    8880022    1    1    2    0    0 -0.45094800942E+02 -0.73349235448E+03  0.41950150153E+01  0.75063561487E+03  0.15294330000E+03 0.  0.
    8880022    1    1    2    0    0  0.45094800942E+02  0.73349235448E+03  0.84323831311E+03  0.11289318318E+04  0.15294330000E+03 0.  0.
<mgrwt>
<rscale>  0 0.75062389E+03</rscale>
<asrwt>0</asrwt>
<pdfrwt beam="1">  1        2 0.20976929E+00 0.75062389E+03</pdfrwt>
<pdfrwt beam="2">  1       -2 0.79394932E-01 0.75062389E+03</pdfrwt>
<totfact> 0.21812446E+01</totfact>
</mgrwt>
</event>
<event>
 4    1  0.5410820E-008  0.5869625E+03  0.7818608E-02  0.9932830E-01
          2   -1    0    0  501    0  0.00000000000E+00  0.00000000000E+00  0.44742188688E+03  0.44742188689E+03  0.25500000000E-02 0. -1.
         -2   -1    0    0    0  501 -0.00000000000E+00 -0.00000000000E+00 -0.10100655189E+04  0.10100655189E+04  0.25500000000E-02 0.  1.
    8880022    1    1    2    0    0  0.23376733095E+03 -0.51622302656E+03 -0.63658021746E+03  0.86588648473E+03  0.15294330000E+03 0.  0.
    8880022    1    1    2    0    0 -0.23376733095E+03  0.51622302656E+03  0.73936585406E+02  0.59160092110E+03  0.15294330000E+03 0.  0.
<mgrwt>
<rscale>  0 0.58696255E+03</rscale>
<asrwt>0</asrwt>
<pdfrwt beam="1">  1        2 0.68834137E-01 0.58696255E+03</pdfrwt>
<pdfrwt beam="2">  1       -2 0.15539470E+00 0.58696255E+03</pdfrwt>
<totfact> 0.19656324E+01</totfact>
</mgrwt>
</event>
<event>
 4    1  0.5410820E-008  0.7357626E+03  0.7818608E-02  0.9657955E-01
          2   -1    0    0  501    0  0.00000000000E+00  0.00000000000E+00  0.31191848695E+04  0.31191848695E+04  0.25500000000E-02 0. -1.
         -2   -1    0    0    0  501 -0.00000000000E+00 -0.00000000000E+00 -0.36820036536E+03  0.36820036537E+03  0.25500000000E-02 0.  1.
    8880022    1    1    2    0    0 -0.71754082623E+03  0.55588692031E+02  0.26432933395E+04  0.27437832042E+04  0.15294330000E+03 0.  0.
    8880022    1    1    2    0    0  0.71754082623E+03 -0.55588692031E+02  0.10769116458E+03  0.74360203062E+03  0.15294330000E+03 0.  0.
<mgrwt>
<rscale>  0 0.73576259E+03</rscale>
<asrwt>0</asrwt>
<pdfrwt beam="1">  1        2 0.47987458E+00 0.73576259E+03</pdfrwt>
<pdfrwt beam="2">  1       -2 0.56646212E-01 0.73576259E+03</pdfrwt>
<totfact> 0.45903886E+00</totfact>
</mgrwt>
</event>
<event>
 4    1  0.5410820E-008  0.9317377E+03  0.7818608E-02  0.9386755E-01
         -2   -1    0    0    0  501 -0.00000000000E+00  0.00000000000E+00  0.22303420826E+04  0.22303420826E+04  0.25500000000E-02 0.  1.
          2   -1    0    0  501    0  0.00000000000E+00 -0.00000000000E+00 -0.10040165217E+04  0.10040165217E+04  0.25500000000E-02 0. -1.
    8880022    1    1    2    0    0  0.89402107310E+03 -0.21323663436E+03  0.18786182911E+04  0.20969839957E+04  0.15294330000E+03 0.  0.
    8880022    1    1    2    0    0 -0.89402107310E+03  0.21323663436E+03 -0.65229273028E+03  0.11373746086E+04  0.15294330000E+03 0.  0.
<mgrwt>
<rscale>  0 0.93173773E+03</rscale>
<asrwt>0</asrwt>
<pdfrwt beam="1">  1        2 0.15446408E+00 0.93173773E+03</pdfrwt>
<pdfrwt beam="2">  1       -2 0.34312955E+00 0.93173773E+03</pdfrwt>
<totfact> 0.43967493E-01</totfact>
</mgrwt>
</event>
<event>
 4    1  0.5410820E-008  0.3388466E+03  0.7818608E-02  0.1067288E+00
          2   -1    0    0  501    0  0.00000000000E+00  0.00000000000E+00  0.28441510739E+04  0.28441510739E+04  0.25500000000E-02 0. -1.
         -2   -1    0    0    0  501 -0.00000000000E+00 -0.00000000000E+00 -0.15233081642E+03  0.15233081644E+03  0.25500000000E-02 0.  1.
    8880022    1    1    2    0    0 -0.29258909259E+03 -0.76269068698E+02  0.26303735611E+04  0.26521089857E+04  0.15294330000E+03 0. -1.
    8880022    1    1    2    0    0  0.29258909259E+03  0.76269068698E+02  0.61446696358E+02  0.34437290465E+03  0.15294330000E+03 0.  1.
<mgrwt>
<rscale>  0 0.33884657E+03</rscale>
<asrwt>0</asrwt>
<pdfrwt beam="1">  1        2 0.43756167E+00 0.33884657E+03</pdfrwt>
<pdfrwt beam="2">  1       -2 0.23435512E-01 0.33884657E+03</pdfrwt>
<totfact> 0.40272421E+01</totfact>
</mgrwt>
</event>
<event>
 4    1  0.5410820E-008  0.2303066E+03  0.7818608E-02  0.1126424E+00
          2   -1    0    0  501    0  0.00000000000E+00  0.00000000000E+00  0.19848346163E+04  0.19848346163E+04  0.25500000000E-02 0. -1.
         -2   -1    0    0    0  501 -0.00000000000E+00 -0.00000000000E+00 -0.25062405461E+03  0.25062405463E+03  0.25500000000E-02 0.  1.
    8880022    1    1    2    0    0 -0.14723802881E+03 -0.89277315349E+02  0.19235655057E+04  0.19373036375E+04  0.15294330000E+03 0. -1.
    8880022    1    1    2    0    0  0.14723802881E+03  0.89277315349E+02 -0.18935494397E+03  0.29815503347E+03  0.15294330000E+03 0.  0.
<mgrwt>
<rscale>  0 0.23030660E+03</rscale>
<asrwt>0</asrwt>
<pdfrwt beam="1">  1        2 0.30535918E+00 0.23030660E+03</pdfrwt>
<pdfrwt beam="2">  1       -2 0.38557546E-01 0.23030660E+03</pdfrwt>
<totfact> 0.49762709E+01</totfact>
</mgrwt>
</event>
<event>
 4    1  0.5410820E-008  0.2671232E+03  0.7818608E-02  0.1102937E+00
          2   -1    0    0  501    0  0.00000000000E+00  0.00000000000E+00  0.21404450263E+03  0.21404450265E+03  0.25500000000E-02 0. -1.
         -2   -1    0    0    0  501 -0.00000000000E+00 -0.00000000000E+00 -0.58759223871E+03  0.58759223872E+03  0.25500000000E-02 0.  1.
    8880022    1    1    2    0    0 -0.15406932059E+03 -0.15564629860E+03 -0.45041993608E+03  0.52367250992E+03  0.15294330000E+03 0.  0.
    8880022    1    1    2    0    0  0.15406932059E+03  0.15564629860E+03  0.76872199998E+02  0.27796423145E+03  0.15294330000E+03 0.  0.
<mgrwt>
<rscale>  0 0.26712315E+03</rscale>
<asrwt>0</asrwt>
<pdfrwt beam="1">  1        2 0.32929924E-01 0.26712315E+03</pdfrwt>
<pdfrwt beam="2">  1       -2 0.90398805E-01 0.26712315E+03</pdfrwt>
<totfact> 0.17232601E+02</totfact>
</mgrwt>
</event>
<event>
 4    1  0.5410820E-008  0.6316994E+03  0.7818608E-02  0.9841738E-01
          2   -1    0    0  501    0  0.00000000000E+00  0.00000000000E+00  0.79469588365E+03  0.79469588366E+03  0.25500000000E-02 0. -1.
         -2   -1    0    0    0  501 -0.00000000000E+00 -0.00000000000E+00 -0.63863709126E+03  0.63863709127E+03  0.25500000000E-02 0.  1.
    8880022    1    1    2    0    0  0.56285492524E+03 -0.24258351633E+03  0.40935938930E+03  0.75274111877E+03  0.15294330000E+03 0. -1.
    8880022    1    1    2    0    0 -0.56285492524E+03  0.24258351633E+03 -0.25330059691E+03  0.68059185616E+03  0.15294330000E+03 0.  0.
<mgrwt>
<rscale>  0 0.63169936E+03</rscale>
<asrwt>0</asrwt>
<pdfrwt beam="1">  1        2 0.12226090E+00 0.63169936E+03</pdfrwt>
<pdfrwt beam="2">  1       -2 0.98251860E-01 0.63169936E+03</pdfrwt>
<totfact> 0.30698379E+01</totfact>
</mgrwt>
</event>
<event>
 4    1  0.5410820E-008  0.7919001E+03  0.7818608E-02  0.9571816E-01
          2   -1    0    0  501    0  0.00000000000E+00  0.00000000000E+00  0.11095717745E+04  0.11095717745E+04  0.25500000000E-02 0. -1.
         -2   -1    0    0    0  501 -0.00000000000E+00 -0.00000000000E+00 -0.78294858237E+03  0.78294858237E+03  0.25500000000E-02 0.  1.
    8880022    1    1    2    0    0 -0.41367182971E+03  0.65771555433E+03  0.66236077201E+03  0.10323892572E+04  0.15294330000E+03 0.  0.
    8880022    1    1    2    0    0  0.41367182971E+03 -0.65771555433E+03 -0.33573757985E+03  0.86013109968E+03  0.15294330000E+03 0.  0.
<mgrwt>
<rscale>  0 0.79190011E+03</rscale>
<asrwt>0</asrwt>
<pdfrwt beam="1">  1        2 0.17070335E+00 0.79190011E+03</pdfrwt>
<pdfrwt beam="2">  1       -2 0.12045363E+00 0.79190011E+03</pdfrwt>
<totfact> 0.11458105E+01</totfact>
</mgrwt>
</event>
<event>
 4    1  0.5410820E-008  0.7087797E+03  0.7818608E-02  0.9702334E-01
         -2   -1    0    0    0  501 -0.00000000000E+00  0.00000000000E+00  0.68474653699E+03  0.68474653699E+03  0.25500000000E-02 0.  1.
          2   -1    0    0  501    0  0.00000000000E+00 -0.00000000000E+00 -0.14089790445E+04  0.14089790446E+04  0.25500000000E-02 0. -1.
    8880022    1    1    2    0    0  0.52244191377E+03  0.45390686316E+03 -0.10868745047E+04  0.12975611106E+04  0.15294330000E+03 0.  0.
    8880022    1    1    2    0    0 -0.52244191377E+03 -0.45390686316E+03  0.36264199716E+03  0.79616447095E+03  0.15294330000E+03 0.  0.
<mgrwt>
<rscale>  0 0.70877969E+03</rscale>
<asrwt>0</asrwt>
<pdfrwt beam="1">  1        2 0.21676601E+00 0.70877969E+03</pdfrwt>
<pdfrwt beam="2">  1       -2 0.10534562E+00 0.70877969E+03</pdfrwt>
<totfact> 0.10728748E+01</totfact>
</mgrwt>
</event>
<event>
 4    1  0.5410820E-008  0.3692363E+03  0.7818608E-02  0.1054985E+00
          2   -1    0    0  501    0  0.00000000000E+00  0.00000000000E+00  0.85627860186E+03  0.85627860186E+03  0.25500000000E-02 0. -1.
         -2   -1    0    0    0  501 -0.00000000000E+00 -0.00000000000E+00 -0.29701716278E+03  0.29701716279E+03  0.25500000000E-02 0.  1.
    8880022    1    1    2    0    0  0.27827116366E+03  0.18843816483E+03  0.67240437905E+03  0.76711347561E+03  0.15294330000E+03 0.  0.
    8880022    1    1    2    0    0 -0.27827116366E+03 -0.18843816483E+03 -0.11314293997E+03  0.38618228904E+03  0.15294330000E+03 0.  0.
<mgrwt>
<rscale>  0 0.36923629E+03</rscale>
<asrwt>0</asrwt>
<pdfrwt beam="1">  1        2 0.13173517E+00 0.36923629E+03</pdfrwt>
<pdfrwt beam="2">  1       -2 0.45694949E-01 0.36923629E+03</pdfrwt>
<totfact> 0.14892173E+02</totfact>
</mgrwt>
</event>
<event>
 4    1  0.5410820E-008  0.5312977E+03  0.7818608E-02  0.1005918E+00
         -2   -1    0    0    0  501 -0.00000000000E+00  0.00000000000E+00  0.26011950870E+03  0.26011950871E+03  0.25500000000E-02 0.  1.
          2   -1    0    0  501    0  0.00000000000E+00 -0.00000000000E+00 -0.27262492378E+04  0.27262492378E+04  0.25500000000E-02 0. -1.
    8880022    1    1    2    0    0 -0.43996750823E+03  0.25556637764E+03 -0.74571020647E+02  0.53650542570E+03  0.15294330000E+03 0.  0.
    8880022    1    1    2    0    0  0.43996750823E+03 -0.25556637764E+03 -0.23915587085E+04  0.24498633208E+04  0.15294330000E+03 0.  0.
<mgrwt>
<rscale>  0 0.53129769E+03</rscale>
<asrwt>0</asrwt>
<pdfrwt beam="1">  1        2 0.41942294E+00 0.53129769E+03</pdfrwt>
<pdfrwt beam="2">  1       -2 0.40018388E-01 0.53129769E+03</pdfrwt>
<totfact> 0.16627685E+01</totfact>
</mgrwt>
</event>
<event>
 4    1  0.5410820E-008  0.5495914E+03  0.7818608E-02  0.1001589E+00
         -2   -1    0    0    0  501 -0.00000000000E+00  0.00000000000E+00  0.47080028492E+03  0.47080028492E+03  0.25500000000E-02 0.  1.
          2   -1    0    0  501    0  0.00000000000E+00 -0.00000000000E+00 -0.13910396474E+04  0.13910396474E+04  0.25500000000E-02 0. -1.
    8880022    1    1    2    0    0 -0.95539033423E+02 -0.51916411023E+03  0.22319379837E+03  0.59318311246E+03  0.15294330000E+03 0.  0.
    8880022    1    1    2    0    0  0.95539033423E+02  0.51916411023E+03 -0.11434331609E+04  0.12686568199E+04  0.15294330000E+03 0.  0.
<mgrwt>
<rscale>  0 0.54959142E+03</rscale>
<asrwt>0</asrwt>
<pdfrwt beam="1">  1        2 0.21400610E+00 0.54959142E+03</pdfrwt>
<pdfrwt beam="2">  1       -2 0.72430814E-01 0.54959142E+03</pdfrwt>
<totfact> 0.26500715E+01</totfact>
</mgrwt>
</event>
<event>
 4    1  0.5410820E-008  0.6146245E+03  0.7818608E-02  0.9875521E-01
         -2   -1    0    0    0  501 -0.00000000000E+00  0.00000000000E+00  0.83136161860E+03  0.83136161860E+03  0.25500000000E-02 0.  1.
          2   -1    0    0  501    0  0.00000000000E+00 -0.00000000000E+00 -0.32190535705E+04  0.32190535705E+04  0.25500000000E-02 0. -1.
    8880022    1    1    2    0    0  0.38932772874E+03  0.45032829774E+03  0.68299080082E+03  0.91882519727E+03  0.15294330000E+03 0.  0.
    8880022    1    1    2    0    0 -0.38932772874E+03 -0.45032829774E+03 -0.30706827527E+04  0.31315899918E+04  0.15294330000E+03 0.  0.
<mgrwt>
<rscale>  0 0.61462453E+03</rscale>
<asrwt>0</asrwt>
<pdfrwt beam="1">  1        2 0.49523900E+00 0.61462453E+03</pdfrwt>
<pdfrwt beam="2">  1       -2 0.12790179E+00 0.61462453E+03</pdfrwt>
<totfact> 0.63697695E-01</totfact>
</mgrwt>
</event>
<event>
 4    1  0.5410820E-008  0.6029420E+03  0.7818608E-02  0.9899321E-01
          2   -1    0    0  501    0  0.00000000000E+00  0.00000000000E+00  0.76317753908E+03  0.76317753908E+03  0.25500000000E-02 0. -1.
         -2   -1    0    0    0  501 -0.00000000000E+00 -0.00000000000E+00 -0.10833321399E+04  0.10833321399E+04  0.25500000000E-02 0.  1.
    8880022    1    1    2    0    0 -0.42939159355E+03  0.39467738024E+03  0.53100379490E+03  0.80343267191E+03  0.15294330000E+03 0.  0.
    8880022    1    1    2    0    0  0.42939159355E+03 -0.39467738024E+03 -0.85115839574E+03  0.10430770071E+04  0.15294330000E+03 0.  1.
<mgrwt>
<rscale>  0 0.60294198E+03</rscale>
<asrwt>0</asrwt>
<pdfrwt beam="1">  1        2 0.11741193E+00 0.60294198E+03</pdfrwt>
<pdfrwt beam="2">  1       -2 0.16666648E+00 0.60294198E+03</pdfrwt>
<totfact> 0.85593942E+00</totfact>
</mgrwt>
</event>
<event>
 4    1  0.5410820E-008  0.6108813E+03  0.7818608E-02  0.9883084E-01
          2   -1    0    0  501    0  0.00000000000E+00  0.00000000000E+00  0.23735211406E+04  0.23735211406E+04  0.25500000000E-02 0. -1.
         -2   -1    0    0    0  501 -0.00000000000E+00 -0.00000000000E+00 -0.39742899108E+03  0.39742899109E+03  0.25500000000E-02 0.  1.
    8880022    1    1    2    0    0 -0.10463035754E+03  0.58209689700E+03 -0.89062278931E+02  0.61733949474E+03  0.15294330000E+03 0.  0.
    8880022    1    1    2    0    0  0.10463035754E+03 -0.58209689700E+03  0.20651544284E+04  0.21536106369E+04  0.15294330000E+03 0.  0.
<mgrwt>
<rscale>  0 0.61088130E+03</rscale>
<asrwt>0</asrwt>
<pdfrwt beam="1">  1        2 0.36515710E+00 0.61088130E+03</pdfrwt>
<pdfrwt beam="2">  1       -2 0.61142922E-01 0.61088130E+03</pdfrwt>
<totfact> 0.10974090E+01</totfact>
</mgrwt>
</event>
<event>
 4    1  0.5410820E-008  0.3543634E+03  0.7818608E-02  0.1060838E+00
          2   -1    0    0  501    0  0.00000000000E+00  0.00000000000E+00  0.88687154208E+03  0.88687154208E+03  0.25500000000E-02 0. -1.
         -2   -1    0    0    0  501 -0.00000000000E+00 -0.00000000000E+00 -0.10820766106E+04  0.10820766106E+04  0.25500000000E-02 0.  1.
    8880022    1    1    2    0    0 -0.75948992303E+02  0.31050528074E+03 -0.10154092947E+04  0.10754670928E+04  0.15294330000E+03 0.  0.
    8880022    1    1    2    0    0  0.75948992303E+02 -0.31050528074E+03  0.82020422618E+03  0.89348105993E+03  0.15294330000E+03 0. -1.
<mgrwt>
<rscale>  0 0.35436342E+03</rscale>
<asrwt>0</asrwt>
<pdfrwt beam="1">  1        2 0.13644177E+00 0.35436342E+03</pdfrwt>
<pdfrwt beam="2">  1       -2 0.16647333E+00 0.35436342E+03</pdfrwt>
<totfact> 0.73947850E+00</totfact>
</mgrwt>
</event>
<event>
 4    1  0.5410820E-008  0.2355037E+03  0.7818608E-02  0.1122825E+00
         -2   -1    0    0    0  501 -0.00000000000E+00  0.00000000000E+00  0.61992866117E+02  0.61992866169E+02  0.25500000000E-02 0.  1.
          2   -1    0    0  501    0  0.00000000000E+00 -0.00000000000E+00 -0.18969027609E+04  0.18969027609E+04  0.25500000000E-02 0. -1.
    8880022    1    1    2    0    0  0.16918440339E+03  0.58710904628E+02 -0.16294011202E+04  0.16463322861E+04  0.15294330000E+03 0.  0.
    8880022    1    1    2    0    0 -0.16918440339E+03 -0.58710904628E+02 -0.20550877452E+03  0.31256334093E+03  0.15294330000E+03 0.  1.
<mgrwt>
<rscale>  0 0.23550369E+03</rscale>
<asrwt>0</asrwt>
<pdfrwt beam="1">  1        2 0.29183115E+00 0.23550369E+03</pdfrwt>
<pdfrwt beam="2">  1       -2 0.95373655E-02 0.23550369E+03</pdfrwt>
<totfact> 0.60698878E+02</totfact>
</mgrwt>
</event>
<event>
 4    1  0.5410820E-008  0.4692623E+03  0.7818608E-02  0.1022129E+00
         -2   -1    0    0    0  501 -0.00000000000E+00  0.00000000000E+00  0.17315905822E+04  0.17315905822E+04  0.25500000000E-02 0.  1.
          2   -1    0    0  501    0  0.00000000000E+00 -0.00000000000E+00 -0.98464961694E+03  0.98464961694E+03  0.25500000000E-02 0. -1.
    8880022    1    1    2    0    0  0.42647599502E+03  0.12220329350E+03 -0.89391614072E+03  0.10096004848E+04  0.15294330000E+03 0.  0.
    8880022    1    1    2    0    0 -0.42647599502E+03 -0.12220329350E+03  0.16408571060E+04  0.17066397143E+04  0.15294330000E+03 0.  0.
<mgrwt>
<rscale>  0 0.46926226E+03</rscale>
<asrwt>0</asrwt>
<pdfrwt beam="1">  1        2 0.15148455E+00 0.46926226E+03</pdfrwt>
<pdfrwt beam="2">  1       -2 0.26639855E+00 0.46926226E+03</pdfrwt>
<totfact> 0.14525713E+00</totfact>
</mgrwt>
</event>
<event>
 4    1  0.5410820E-008  0.2570252E+03  0.7818608E-02  0.1108944E+00
          2   -1    0    0  501    0  0.00000000000E+00  0.00000000000E+00  0.23022585165E+04  0.23022585165E+04  0.25500000000E-02 0. -1.
         -2   -1    0    0    0  501 -0.00000000000E+00 -0.00000000000E+00 -0.14963971011E+03  0.14963971013E+03  0.25500000000E-02 0.  1.
    8880022    1    1    2    0    0 -0.69925698748E+02 -0.19437257803E+03 -0.25847711871E+02  0.25832162058E+03  0.15294330000E+03 0.  0.
    8880022    1    1    2    0    0  0.69925698748E+02  0.19437257803E+03  0.21784665183E+04  0.21935766061E+04  0.15294330000E+03 0.  0.
<mgrwt>
<rscale>  0 0.25702520E+03</rscale>
<asrwt>0</asrwt>
<pdfrwt beam="1">  1        2 0.35419361E+00 0.25702520E+03</pdfrwt>
<pdfrwt beam="2">  1       -2 0.23021494E-01 0.25702520E+03</pdfrwt>
<totfact> 0.85565066E+01</totfact>
</mgrwt>
</event>
<event>
 4    1  0.5410820E-008  0.2140652E+03  0.7818608E-02  0.1138387E+00
         -2   -1    0    0    0  501 -0.00000000000E+00  0.00000000000E+00  0.75102547687E+02  0.75102547730E+02  0.25500000000E-02 0.  1.
          2   -1    0    0  501    0  0.00000000000E+00 -0.00000000000E+00 -0.10612224295E+04  0.10612224295E+04  0.25500000000E-02 0. -1.
    8880022    1    1    2    0    0 -0.94698339276E+02 -0.11603659960E+03 -0.12264214925E+03  0.24670836567E+03  0.15294330000E+03 0.  0.
    8880022    1    1    2    0    0  0.94698339276E+02  0.11603659960E+03 -0.86347773257E+03  0.88961661157E+03  0.15294330000E+03 0.  0.
<mgrwt>
<rscale>  0 0.21406523E+03</rscale>
<asrwt>0</asrwt>
<pdfrwt beam="1">  1        2 0.16326498E+00 0.21406523E+03</pdfrwt>
<pdfrwt beam="2">  1       -2 0.11554239E-01 0.21406523E+03</pdfrwt>
<totfact> 0.12693790E+03</totfact>
</mgrwt>
</event>
<event>
 4    1  0.5410820E-008  0.6985657E+03  0.7818608E-02  0.9719688E-01
         -2   -1    0    0    0  501 -0.00000000000E+00  0.00000000000E+00  0.90316400290E+03  0.90316400290E+03  0.25500000000E-02 0.  1.
          2   -1    0    0  501    0  0.00000000000E+00 -0.00000000000E+00 -0.93128053080E+03  0.93128053080E+03  0.25500000000E-02 0. -1.
    8880022    1    1    2    0    0 -0.38204456219E+03 -0.56448593022E+03  0.58023792138E+03  0.90811349034E+03  0.15294330000E+03 0.  0.
    8880022    1    1    2    0    0  0.38204456219E+03  0.56448593022E+03 -0.60835444928E+03  0.92633104336E+03  0.15294330000E+03 0.  0.
<mgrwt>
<rscale>  0 0.69856572E+03</rscale>
<asrwt>0</asrwt>
<pdfrwt beam="1">  1        2 0.14327393E+00 0.69856572E+03</pdfrwt>
<pdfrwt beam="2">  1       -2 0.13894831E+00 0.69856572E+03</pdfrwt>
<totfact> 0.10469829E+01</totfact>
</mgrwt>
</event>
<event>
 4    1  0.5410820E-008  0.3668137E+03  0.7818608E-02  0.1055918E+00
         -2   -1    0    0    0  501 -0.00000000000E+00  0.00000000000E+00  0.84586455892E+02  0.84586455931E+02  0.25500000000E-02 0.  1.
          2   -1    0    0  501    0  0.00000000000E+00 -0.00000000000E+00 -0.20729050047E+04  0.20729050047E+04  0.25500000000E-02 0. -1.
    8880022    1    1    2    0    0  0.21828390647E+03  0.25201735486E+03 -0.47387330660E+03  0.59925635140E+03  0.15294330000E+03 0.  0.
    8880022    1    1    2    0    0 -0.21828390647E+03 -0.25201735486E+03 -0.15144452423E+04  0.15582351093E+04  0.15294330000E+03 0.  0.
<mgrwt>
<rscale>  0 0.36681366E+03</rscale>
<asrwt>0</asrwt>
<pdfrwt beam="1">  1        2 0.31890842E+00 0.36681366E+03</pdfrwt>
<pdfrwt beam="2">  1       -2 0.13013302E-01 0.36681366E+03</pdfrwt>
<totfact> 0.29010652E+02</totfact>
</mgrwt>
</event>
<event>
 4    1  0.5410820E-008  0.6402632E+03  0.7818608E-02  0.9825223E-01
          2   -1    0    0  501    0  0.00000000000E+00  0.00000000000E+00  0.10511052576E+04  0.10511052576E+04  0.25500000000E-02 0. -1.
         -2   -1    0    0    0  501 -0.00000000000E+00 -0.00000000000E+00 -0.83400347260E+03  0.83400347260E+03  0.25500000000E-02 0.  1.
    8880022    1    1    2    0    0  0.31483314088E+03  0.53612065805E+03  0.79627291570E+03  0.10217570533E+04  0.15294330000E+03 0.  0.
    8880022    1    1    2    0    0 -0.31483314088E+03 -0.53612065805E+03 -0.57917113065E+03  0.86335167700E+03  0.15294330000E+03 0.  0.
<mgrwt>
<rscale>  0 0.64026316E+03</rscale>
<asrwt>0</asrwt>
<pdfrwt beam="1">  1        2 0.16170850E+00 0.64026316E+03</pdfrwt>
<pdfrwt beam="2">  1       -2 0.12830823E+00 0.64026316E+03</pdfrwt>
<totfact> 0.10833338E+01</totfact>
</mgrwt>
</event>
<event>
 4    1  0.5410820E-008  0.8830079E+03  0.7818608E-02  0.9447075E-01
         -2   -1    0    0    0  501 -0.00000000000E+00  0.00000000000E+00  0.10611253425E+04  0.10611253425E+04  0.25500000000E-02 0.  1.
          2   -1    0    0  501    0  0.00000000000E+00 -0.00000000000E+00 -0.18293318803E+04  0.18293318803E+04  0.25500000000E-02 0. -1.
    8880022    1    1    2    0    0 -0.42301081551E+03 -0.75985069970E+03 -0.15020130424E+04  0.17423392519E+04  0.15294330000E+03 0.  0.
    8880022    1    1    2    0    0  0.42301081551E+03  0.75985069970E+03  0.73380650466E+03  0.11481179709E+04  0.15294330000E+03 0.  0.
<mgrwt>
<rscale>  0 0.88300786E+03</rscale>
<asrwt>0</asrwt>
<pdfrwt beam="1">  1        2 0.28143567E+00 0.88300786E+03</pdfrwt>
<pdfrwt beam="2">  1       -2 0.16325005E+00 0.88300786E+03</pdfrwt>
<totfact> 0.20057308E+00</totfact>
</mgrwt>
</event>
<event>
 4    1  0.5410820E-008  0.2727300E+03  0.7818608E-02  0.1099727E+00
         -2   -1    0    0    0  501 -0.00000000000E+00  0.00000000000E+00  0.13168783838E+03  0.13168783840E+03  0.25500000000E-02 0.  1.
          2   -1    0    0  501    0  0.00000000000E+00 -0.00000000000E+00 -0.59092395499E+03  0.59092395500E+03  0.25500000000E-02 0. -1.
    8880022    1    1    2    0    0  0.39455601984E+02  0.22233587545E+03 -0.15369842558E+03  0.31305725527E+03  0.15294330000E+03 0.  0.
    8880022    1    1    2    0    0 -0.39455601984E+02 -0.22233587545E+03 -0.30553769104E+03  0.40955453813E+03  0.15294330000E+03 0.  0.
<mgrwt>
<rscale>  0 0.27272997E+03</rscale>
<asrwt>0</asrwt>
<pdfrwt beam="1">  1        2 0.90911377E-01 0.27272997E+03</pdfrwt>
<pdfrwt beam="2">  1       -2 0.20259668E-01 0.27272997E+03</pdfrwt>
<totfact> 0.10576343E+03</totfact>
</mgrwt>
</event>
<event>
 4    1  0.5410820E-008  0.7198787E+03  0.7818608E-02  0.9683828E-01
         -2   -1    0    0    0  501 -0.00000000000E+00  0.00000000000E+00  0.14666585703E+04  0.14666585703E+04  0.25500000000E-02 0.  1.
          2   -1    0    0  501    0  0.00000000000E+00 -0.00000000000E+00 -0.55772034136E+03  0.55772034136E+03  0.25500000000E-02 0. -1.
    8880022    1    1    2    0    0 -0.51058464765E+03  0.48387699427E+03 -0.15827044730E+03  0.73707178450E+03  0.15294330000E+03 0.  0.
    8880022    1    1    2    0    0  0.51058464765E+03 -0.48387699427E+03  0.10672086763E+04  0.12873071272E+04  0.15294330000E+03 0.  0.
<mgrwt>
<rscale>  0 0.71987866E+03</rscale>
<asrwt>0</asrwt>
<pdfrwt beam="1">  1        2 0.85803131E-01 0.71987866E+03</pdfrwt>
<pdfrwt beam="2">  1       -2 0.22563978E+00 0.71987866E+03</pdfrwt>
<totfact> 0.50703781E+00</totfact>
</mgrwt>
</event>
<event>
 4    1  0.5410820E-008  0.3890375E+03  0.7818608E-02  0.1047643E+00
          2   -1    0    0  501    0  0.00000000000E+00  0.00000000000E+00  0.35522106408E+03  0.35522106409E+03  0.25500000000E-02 0. -1.
         -2   -1    0    0    0  501 -0.00000000000E+00 -0.00000000000E+00 -0.88653411232E+03  0.88653411232E+03  0.25500000000E-02 0.  1.
    8880022    1    1    2    0    0  0.35711723586E+03 -0.20635818335E+02  0.18180386567E+03  0.42942153618E+03  0.15294330000E+03 0. -1.
    8880022    1    1    2    0    0 -0.35711723586E+03  0.20635818335E+02 -0.71311691391E+03  0.81233364023E+03  0.15294330000E+03 0.  0.
<mgrwt>
<rscale>  0 0.38903754E+03</rscale>
<asrwt>0</asrwt>
<pdfrwt beam="1">  1        2 0.54649394E-01 0.38903754E+03</pdfrwt>
<pdfrwt beam="2">  1       -2 0.13638986E+00 0.38903754E+03</pdfrwt>
<totfact> 0.36523333E+01</totfact>
</mgrwt>
</event>
<event>
 4    1  0.5410820E-008  0.1136796E+04  0.7818608E-02  0.9170052E-01
         -2   -1    0    0    0  501 -0.00000000000E+00  0.00000000000E+00  0.62473711658E+03  0.62473711658E+03  0.25500000000E-02 0.  1.
          2   -1    0    0  501    0  0.00000000000E+00 -0.00000000000E+00 -0.20907240057E+04  0.20907240057E+04  0.25500000000E-02 0. -1.
    8880022    1    1    2    0    0  0.96280176996E+03 -0.58474385101E+03 -0.59318939633E+03  0.12822550185E+04  0.15294330000E+03 0.  1.
    8880022    1    1    2    0    0 -0.96280176996E+03  0.58474385101E+03 -0.87279749284E+03  0.14332061038E+04  0.15294330000E+03 0. -1.
<mgrwt>
<rscale>  0 0.11367956E+04</rscale>
<asrwt>0</asrwt>
<pdfrwt beam="1">  1        2 0.32164984E+00 0.11367956E+04</pdfrwt>
<pdfrwt beam="2">  1       -2 0.96113404E-01 0.11367956E+04</pdfrwt>
<totfact> 0.53202852E+00</totfact>
</mgrwt>
</event>
<event>
 4    1  0.5410820E-008  0.3408553E+03  0.7818608E-02  0.1066432E+00
         -2   -1    0    0    0  501 -0.00000000000E+00  0.00000000000E+00  0.21448535410E+03  0.21448535412E+03  0.25500000000E-02 0.  1.
          2   -1    0    0  501    0  0.00000000000E+00 -0.00000000000E+00 -0.96769669412E+03  0.96769669412E+03  0.25500000000E-02 0. -1.
    8880022    1    1    2    0    0  0.14354912885E+03 -0.26867140492E+03  0.15585919654E+02  0.34121144488E+03  0.15294330000E+03 0.  0.
    8880022    1    1    2    0    0 -0.14354912885E+03  0.26867140492E+03 -0.76879725967E+03  0.84097060335E+03  0.15294330000E+03 0.  0.
<mgrwt>
<rscale>  0 0.34085529E+03</rscale>
<asrwt>0</asrwt>
<pdfrwt beam="1">  1        2 0.14887641E+00 0.34085529E+03</pdfrwt>
<pdfrwt beam="2">  1       -2 0.32997747E-01 0.34085529E+03</pdfrwt>
<totfact> 0.23596006E+02</totfact>
</mgrwt>
</event>
<event>
 4    1  0.5410820E-008  0.5228672E+03  0.7818608E-02  0.1007977E+00
          2   -1    0    0  501    0  0.00000000000E+00  0.00000000000E+00  0.93111894595E+03  0.93111894595E+03  0.25500000000E-02 0. -1.
         -2   -1    0    0    0  501 -0.00000000000E+00 -0.00000000000E+00 -0.54123475908E+03  0.54123475909E+03  0.25500000000E-02 0.  1.
    8880022    1    1    2    0    0  0.42269331307E+03  0.26707451468E+03  0.69288820551E+03  0.86803464888E+03  0.15294330000E+03 0.  0.
    8880022    1    1    2    0    0 -0.42269331307E+03 -0.26707451468E+03 -0.30300401864E+03  0.60431905616E+03  0.15294330000E+03 0.  0.
<mgrwt>
<rscale>  0 0.52286718E+03</rscale>
<asrwt>0</asrwt>
<pdfrwt beam="1">  1        2 0.14324907E+00 0.52286718E+03</pdfrwt>
<pdfrwt beam="2">  1       -2 0.83266887E-01 0.52286718E+03</pdfrwt>
<totfact> 0.36710629E+01</totfact>
</mgrwt>
</event>
<event>
 4    1  0.5410820E-008  0.7967943E+03  0.7818608E-02  0.9564669E-01
         -2   -1    0    0    0  501 -0.00000000000E+00  0.00000000000E+00  0.89276214736E+03  0.89276214736E+03  0.25500000000E-02 0.  1.
          2   -1    0    0  501    0  0.00000000000E+00 -0.00000000000E+00 -0.12249006550E+04  0.12249006550E+04  0.25500000000E-02 0. -1.
    8880022    1    1    2    0    0 -0.44342062898E+03  0.64410224057E+03 -0.85180327547E+03  0.11663833090E+04  0.15294330000E+03 0.  0.
    8880022    1    1    2    0    0  0.44342062898E+03 -0.64410224057E+03  0.51966476781E+03  0.95127949333E+03  0.15294330000E+03 0.  0.
<mgrwt>
<rscale>  0 0.79679433E+03</rscale>
<asrwt>0</asrwt>
<pdfrwt beam="1">  1        2 0.18844625E+00 0.79679433E+03</pdfrwt>
<pdfrwt beam="2">  1       -2 0.13734802E+00 0.79679433E+03</pdfrwt>
<totfact> 0.70099318E+00</totfact>
</mgrwt>
</event>
<event>
 4    1  0.5410820E-008  0.4264153E+03  0.7818608E-02  0.1034998E+00
         -2   -1    0    0    0  501 -0.00000000000E+00  0.00000000000E+00  0.36392079890E+03  0.36392079891E+03  0.25500000000E-02 0.  1.
          2   -1    0    0  501    0  0.00000000000E+00 -0.00000000000E+00 -0.95597345224E+03  0.95597345224E+03  0.25500000000E-02 0. -1.
    8880022    1    1    2    0    0  0.30057092320E+03 -0.26095112935E+03 -0.75198611802E+03  0.86447275636E+03  0.15294330000E+03 0.  0.
    8880022    1    1    2    0    0 -0.30057092320E+03  0.26095112935E+03  0.15993346468E+03  0.45542149479E+03  0.15294330000E+03 0.  0.
<mgrwt>
<rscale>  0 0.42641532E+03</rscale>
<asrwt>0</asrwt>
<pdfrwt beam="1">  1        2 0.14707284E+00 0.42641532E+03</pdfrwt>
<pdfrwt beam="2">  1       -2 0.55987816E-01 0.42641532E+03</pdfrwt>
<totfact> 0.84366552E+01</totfact>
</mgrwt>
</event>
<event>
 4    1  0.5410820E-008  0.5170162E+03  0.7818608E-02  0.1009430E+00
         -2   -1    0    0    0  501 -0.00000000000E+00  0.00000000000E+00  0.10396505291E+04  0.10396505291E+04  0.25500000000E-02 0.  1.
          2   -1    0    0  501    0  0.00000000000E+00 -0.00000000000E+00 -0.33818293698E+03  0.33818293698E+03  0.25500000000E-02 0. -1.
    8880022    1    1    2    0    0  0.12515148216E+03 -0.47775645524E+03  0.68804104408E+03  0.86064293140E+03  0.15294330000E+03 0.  0.
    8880022    1    1    2    0    0 -0.12515148216E+03  0.47775645524E+03  0.13426548083E+02  0.51719053473E+03  0.15294330000E+03 0.  0.
<mgrwt>
<rscale>  0 0.51701623E+03</rscale>
<asrwt>0</asrwt>
<pdfrwt beam="1">  1        2 0.52028145E-01 0.51701623E+03</pdfrwt>
<pdfrwt beam="2">  1       -2 0.15994623E+00 0.51701623E+03</pdfrwt>
<totfact> 0.25057135E+01</totfact>
</mgrwt>
</event>
<event>
 4    1  0.5410820E-008  0.4697241E+03  0.7818608E-02  0.1021998E+00
         -2   -1    0    0    0  501 -0.00000000000E+00  0.00000000000E+00  0.37653694213E+03  0.37653694214E+03  0.25500000000E-02 0.  1.
          2   -1    0    0  501    0  0.00000000000E+00 -0.00000000000E+00 -0.72284555884E+03  0.72284555885E+03  0.25500000000E-02 0. -1.
    8880022    1    1    2    0    0 -0.38366434380E+03  0.22372029363E+03  0.66041256000E+02  0.47434396696E+03  0.15294330000E+03 0.  0.
    8880022    1    1    2    0    0  0.38366434380E+03 -0.22372029363E+03 -0.41234987271E+03  0.62503853403E+03  0.15294330000E+03 0.  0.
<mgrwt>
<rscale>  0 0.46972412E+03</rscale>
<asrwt>0</asrwt>
<pdfrwt beam="1">  1        2 0.11120701E+00 0.46972412E+03</pdfrwt>
<pdfrwt beam="2">  1       -2 0.57928761E-01 0.46972412E+03</pdfrwt>
<totfact> 0.11333376E+02</totfact>
</mgrwt>
</event>
<event>
 4    1  0.5410820E-008  0.4063824E+03  0.7818608E-02  0.1041592E+00
          2   -1    0    0  501    0  0.00000000000E+00  0.00000000000E+00  0.25019518693E+04  0.25019518693E+04  0.25500000000E-02 0. -1.
         -2   -1    0    0    0  501 -0.00000000000E+00 -0.00000000000E+00 -0.62634422549E+03  0.62634422549E+03  0.25500000000E-02 0.  1.
    8880022    1    1    2    0    0  0.11362033400E+03 -0.35895044489E+03 -0.54163157822E+03  0.67713471461E+03  0.15294330000E+03 0.  0.
    8880022    1    1    2    0    0 -0.11362033400E+03  0.35895044489E+03  0.24172392221E+04  0.24511613802E+04  0.15294330000E+03 0.  0.
<mgrwt>
<rscale>  0 0.40638240E+03</rscale>
<asrwt>0</asrwt>
<pdfrwt beam="1">  1        2 0.38491568E+00 0.40638240E+03</pdfrwt>
<pdfrwt beam="2">  1       -2 0.96360648E-01 0.40638240E+03</pdfrwt>
<totfact> 0.35895611E+00</totfact>
</mgrwt>
</event>
<event>
 4    1  0.9463306E-008  0.1240798E+04  0.7818608E-02  0.9077877E-01
          2   -1    0    0  501    0  0.00000000000E+00  0.00000000000E+00  0.21808439532E+04  0.21808439532E+04  0.25500000000E-02 0. -1.
         -2   -1    0    0    0  501 -0.00000000000E+00 -0.00000000000E+00 -0.16476135655E+04  0.16476135655E+04  0.25500000000E-02 0.  1.
    8880022    1    1    2    0    0 -0.67786666802E+03  0.10279521223E+04  0.17137620236E+04  0.21157884374E+04  0.15294330000E+03 0.  0.
    8880022    1    1    2    0    0  0.67786666802E+03 -0.10279521223E+04 -0.11805316359E+04  0.17126690812E+04  0.15294330000E+03 0.  0.
<mgrwt>
<rscale>  0 0.12407983E+04</rscale>
<asrwt>0</asrwt>
<pdfrwt beam="1">  1        2 0.33551445E+00 0.12407983E+04</pdfrwt>
<pdfrwt beam="2">  1       -2 0.25347901E+00 0.12407983E+04</pdfrwt>
<totfact> 0.31369503E-01</totfact>
</mgrwt>
</event>
<event>
 4    1  0.5410820E-008  0.2555167E+03  0.7818608E-02  0.1109867E+00
         -2   -1    0    0    0  501 -0.00000000000E+00  0.00000000000E+00  0.18503430616E+04  0.18503430616E+04  0.25500000000E-02 0.  1.
          2   -1    0    0  501    0  0.00000000000E+00 -0.00000000000E+00 -0.10382153386E+04  0.10382153386E+04  0.25500000000E-02 0. -1.
    8880022    1    1    2    0    0  0.81127075809E+02  0.18792426296E+03 -0.10134606223E+04  0.10451752087E+04  0.15294330000E+03 0.  0.
    8880022    1    1    2    0    0 -0.81127075809E+02 -0.18792426296E+03  0.18255883453E+04  0.18433831914E+04  0.15294330000E+03 0.  0.
<mgrwt>
<rscale>  0 0.25551670E+03</rscale>
<asrwt>0</asrwt>
<pdfrwt beam="1">  1        2 0.15972544E+00 0.25551670E+03</pdfrwt>
<pdfrwt beam="2">  1       -2 0.28466816E+00 0.25551670E+03</pdfrwt>
<totfact> 0.11472729E+00</totfact>
</mgrwt>
</event>
<event>
 4    1  0.5410820E-008  0.4344597E+03  0.7818608E-02  0.1032460E+00
         -2   -1    0    0    0  501 -0.00000000000E+00  0.00000000000E+00  0.32516134293E+03  0.32516134294E+03  0.25500000000E-02 0.  1.
          2   -1    0    0  501    0  0.00000000000E+00 -0.00000000000E+00 -0.19222426567E+04  0.19222426567E+04  0.25500000000E-02 0. -1.
    8880022    1    1    2    0    0 -0.30566245919E+03  0.26820514547E+03 -0.17373602477E+04  0.17908589621E+04  0.15294330000E+03 0.  0.
    8880022    1    1    2    0    0  0.30566245919E+03 -0.26820514547E+03  0.14027893386E+03  0.45654503756E+03  0.15294330000E+03 0.  0.
<mgrwt>
<rscale>  0 0.43445966E+03</rscale>
<asrwt>0</asrwt>
<pdfrwt beam="1">  1        2 0.29572963E+00 0.43445966E+03</pdfrwt>
<pdfrwt beam="2">  1       -2 0.50024823E-01 0.43445966E+03</pdfrwt>
<totfact> 0.30344903E+01</totfact>
</mgrwt>
</event>
<event>
 4    1  0.5410820E-008  0.4671670E+03  0.7818608E-02  0.1022723E+00
         -2   -1    0    0    0  501 -0.00000000000E+00  0.00000000000E+00  0.13690234743E+04  0.13690234743E+04  0.25500000000E-02 0.  1.
          2   -1    0    0  501    0  0.00000000000E+00 -0.00000000000E+00 -0.17311886406E+04  0.17311886406E+04  0.25500000000E-02 0. -1.
    8880022    1    1    2    0    0  0.22186479483E+03  0.38161418453E+03  0.12959293369E+04  0.13775622935E+04  0.15294330000E+03 0.  0.
    8880022    1    1    2    0    0 -0.22186479483E+03 -0.38161418453E+03 -0.16580945031E+04  0.17226498214E+04  0.15294330000E+03 0.  0.
<mgrwt>
<rscale>  0 0.46716702E+03</rscale>
<asrwt>0</asrwt>
<pdfrwt beam="1">  1        2 0.26633672E+00 0.46716702E+03</pdfrwt>
<pdfrwt beam="2">  1       -2 0.21061899E+00 0.46716702E+03</pdfrwt>
<totfact> 0.11925621E+00</totfact>
</mgrwt>
</event>
<event>
 4    1  0.5410820E-008  0.1036322E+04  0.7818608E-02  0.9269581E-01
          2   -1    0    0  501    0  0.00000000000E+00  0.00000000000E+00  0.11079634468E+04  0.11079634468E+04  0.25500000000E-02 0. -1.
         -2   -1    0    0    0  501 -0.00000000000E+00 -0.00000000000E+00 -0.15203953820E+04  0.15203953820E+04  0.25500000000E-02 0.  1.
    8880022    1    1    2    0    0  0.62226795951E+03 -0.81446533868E+03 -0.99741334109E+03  0.14383310562E+04  0.15294330000E+03 0.  0.
    8880022    1    1    2    0    0 -0.62226795951E+03  0.81446533868E+03  0.58498140582E+03  0.11900277726E+04  0.15294330000E+03 0.  0.
<mgrwt>
<rscale>  0 0.10363218E+04</rscale>
<asrwt>0</asrwt>
<pdfrwt beam="1">  1        2 0.17045591E+00 0.10363218E+04</pdfrwt>
<pdfrwt beam="2">  1       -2 0.23390698E+00 0.10363218E+04</pdfrwt>
<totfact> 0.17244344E+00</totfact>
</mgrwt>
</event>
<event>
 4    1  0.5410820E-008  0.4627594E+03  0.7818608E-02  0.1023984E+00
          2   -1    0    0  501    0  0.00000000000E+00  0.00000000000E+00  0.18898252525E+04  0.18898252525E+04  0.25500000000E-02 0. -1.
         -2   -1    0    0    0  501 -0.00000000000E+00 -0.00000000000E+00 -0.43879332219E+03  0.43879332220E+03  0.25500000000E-02 0.  1.
    8880022    1    1    2    0    0 -0.23565899615E+03 -0.36772202297E+03  0.17282808685E+04  0.17891621118E+04  0.15294330000E+03 0.  0.
    8880022    1    1    2    0    0  0.23565899615E+03  0.36772202297E+03 -0.27724893823E+03  0.53945646294E+03  0.15294330000E+03 0.  0.
<mgrwt>
<rscale>  0 0.46275944E+03</rscale>
<asrwt>0</asrwt>
<pdfrwt beam="1">  1        2 0.29074234E+00 0.46275944E+03</pdfrwt>
<pdfrwt beam="2">  1       -2 0.67506666E-01 0.46275944E+03</pdfrwt>
<totfact> 0.16808533E+01</totfact>
</mgrwt>
</event>
<event>
 4    1  0.5410820E-008  0.1005475E+04  0.7818608E-02  0.9302560E-01
         -2   -1    0    0    0  501 -0.00000000000E+00  0.00000000000E+00  0.12163057322E+04  0.12163057322E+04  0.25500000000E-02 0.  1.
          2   -1    0    0  501    0  0.00000000000E+00 -0.00000000000E+00 -0.14290832095E+04  0.14290832095E+04  0.25500000000E-02 0. -1.
    8880022    1    1    2    0    0 -0.21486918906E+03  0.97026794386E+03  0.74915623915E+03  0.12538801278E+04  0.15294330000E+03 0.  0.
    8880022    1    1    2    0    0  0.21486918906E+03 -0.97026794386E+03 -0.96193371650E+03  0.13915088139E+04  0.15294330000E+03 0.  0.
<mgrwt>
<rscale>  0 0.10054752E+04</rscale>
<asrwt>0</asrwt>
<pdfrwt beam="1">  1        2 0.21985896E+00 0.10054752E+04</pdfrwt>
<pdfrwt beam="2">  1       -2 0.18712396E+00 0.10054752E+04</pdfrwt>
<totfact> 0.22389470E+00</totfact>
</mgrwt>
</event>
<event>
 4    1  0.5410820E-008  0.4790184E+03  0.7818608E-02  0.1019405E+00
          2   -1    0    0  501    0  0.00000000000E+00  0.00000000000E+00  0.86781869211E+03  0.86781869211E+03  0.25500000000E-02 0. -1.
         -2   -1    0    0    0  501 -0.00000000000E+00 -0.00000000000E+00 -0.10066840626E+04  0.10066840626E+04  0.25500000000E-02 0.  1.
    8880022    1    1    2    0    0  0.30821549184E+03  0.33327194764E+03  0.73537492409E+03  0.87763028235E+03  0.15294330000E+03 0.  0.
    8880022    1    1    2    0    0 -0.30821549184E+03 -0.33327194764E+03 -0.87424029462E+03  0.99687247241E+03  0.15294330000E+03 0.  0.
<mgrwt>
<rscale>  0 0.47901841E+03</rscale>
<asrwt>0</asrwt>
<pdfrwt beam="1">  1        2 0.13351057E+00 0.47901841E+03</pdfrwt>
<pdfrwt beam="2">  1       -2 0.15487447E+00 0.47901841E+03</pdfrwt>
<totfact> 0.89870475E+00</totfact>
</mgrwt>
</event>
<event>
 4    1  0.5410820E-008  0.4466138E+03  0.7818608E-02  0.1028737E+00
          2   -1    0    0  501    0  0.00000000000E+00  0.00000000000E+00  0.13900904884E+04  0.13900904884E+04  0.25500000000E-02 0. -1.
         -2   -1    0    0    0  501 -0.00000000000E+00 -0.00000000000E+00 -0.16998298382E+03  0.16998298384E+03  0.25500000000E-02 0.  1.
    8880022    1    1    2    0    0  0.40319252574E+03  0.11622389808E+03  0.91800295887E+03  0.10208786866E+04  0.15294330000E+03 0.  0.
    8880022    1    1    2    0    0 -0.40319252574E+03 -0.11622389808E+03  0.30210454577E+03  0.53919478566E+03  0.15294330000E+03 0.  0.
<mgrwt>
<rscale>  0 0.44661377E+03</rscale>
<asrwt>0</asrwt>
<pdfrwt beam="1">  1        2 0.21386008E+00 0.44661377E+03</pdfrwt>
<pdfrwt beam="2">  1       -2 0.26151228E-01 0.44661377E+03</pdfrwt>
<totfact> 0.20177945E+02</totfact>
</mgrwt>
</event>
<event>
 4    1  0.5410820E-008  0.1034930E+04  0.7818608E-02  0.9271043E-01
         -2   -1    0    0    0  501 -0.00000000000E+00  0.00000000000E+00  0.29410275132E+04  0.29410275132E+04  0.25500000000E-02 0.  1.
          2   -1    0    0  501    0  0.00000000000E+00 -0.00000000000E+00 -0.39647298944E+03  0.39647298945E+03  0.25500000000E-02 0. -1.
    8880022    1    1    2    0    0 -0.99010401017E+03 -0.25958135201E+03  0.79606505795E+03  0.13056797688E+04  0.15294330000E+03 0.  0.
    8880022    1    1    2    0    0  0.99010401017E+03  0.25958135201E+03  0.17484894658E+04  0.20318207338E+04  0.15294330000E+03 0.  0.
<mgrwt>
<rscale>  0 0.10349300E+04</rscale>
<asrwt>0</asrwt>
<pdfrwt beam="1">  1        2 0.60995844E-01 0.10349300E+04</pdfrwt>
<pdfrwt beam="2">  1       -2 0.45246578E+00 0.10349300E+04</pdfrwt>
<totfact> 0.27301930E-01</totfact>
</mgrwt>
</event>
<event>
 4    1  0.5410820E-008  0.6156786E+03  0.7818608E-02  0.9873401E-01
         -2   -1    0    0    0  501 -0.00000000000E+00  0.00000000000E+00  0.79334298711E+03  0.79334298712E+03  0.25500000000E-02 0.  1.
          2   -1    0    0  501    0  0.00000000000E+00 -0.00000000000E+00 -0.83625734583E+03  0.83625734583E+03  0.25500000000E-02 0. -1.
    8880022    1    1    2    0    0 -0.57679774100E+03  0.15156791130E+03  0.51199959862E+03  0.80075196394E+03  0.15294330000E+03 0.  0.
    8880022    1    1    2    0    0  0.57679774100E+03 -0.15156791130E+03 -0.55491395733E+03  0.82884836901E+03  0.15294330000E+03 0.  0.
<mgrwt>
<rscale>  0 0.61567858E+03</rscale>
<asrwt>0</asrwt>
<pdfrwt beam="1">  1        2 0.12865498E+00 0.61567858E+03</pdfrwt>
<pdfrwt beam="2">  1       -2 0.12205277E+00 0.61567858E+03</pdfrwt>
<totfact> 0.17024508E+01</totfact>
</mgrwt>
</event>
<event>
 4    1  0.5410820E-008  0.2497776E+03  0.7818608E-02  0.1113445E+00
          2   -1    0    0  501    0  0.00000000000E+00  0.00000000000E+00  0.63259797566E+03  0.63259797567E+03  0.25500000000E-02 0. -1.
         -2   -1    0    0    0  501 -0.00000000000E+00 -0.00000000000E+00 -0.26333664630E+03  0.26333664631E+03  0.25500000000E-02 0.  1.
    8880022    1    1    2    0    0  0.16298273287E+03 -0.11150699679E+03  0.53891765509E+03  0.59398743550E+03  0.15294330000E+03 0. -1.
    8880022    1    1    2    0    0 -0.16298273287E+03  0.11150699679E+03 -0.16965632572E+03  0.30194718648E+03  0.15294330000E+03 0.  0.
<mgrwt>
<rscale>  0 0.24977757E+03</rscale>
<asrwt>0</asrwt>
<pdfrwt beam="1">  1        2 0.97322764E-01 0.24977757E+03</pdfrwt>
<pdfrwt beam="2">  1       -2 0.40513331E-01 0.24977757E+03</pdfrwt>
<totfact> 0.27838423E+02</totfact>
</mgrwt>
</event>
<event>
 4    1  0.5410820E-008  0.5843346E+03  0.7818608E-02  0.9938451E-01
         -2   -1    0    0    0  501 -0.00000000000E+00  0.00000000000E+00  0.92389386061E+03  0.92389386061E+03  0.25500000000E-02 0.  1.
          2   -1    0    0  501    0  0.00000000000E+00 -0.00000000000E+00 -0.55252985919E+03  0.55252985919E+03  0.25500000000E-02 0. -1.
    8880022    1    1    2    0    0  0.42721603937E+03  0.36815988746E+03  0.61047428877E+03  0.84505961760E+03  0.15294330000E+03 0.  0.
    8880022    1    1    2    0    0 -0.42721603937E+03 -0.36815988746E+03 -0.23911028735E+03  0.63136410221E+03  0.15294330000E+03 0.  0.
<mgrwt>
<rscale>  0 0.58433458E+03</rscale>
<asrwt>0</asrwt>
<pdfrwt beam="1">  1        2 0.85004594E-01 0.58433458E+03</pdfrwt>
<pdfrwt beam="2">  1       -2 0.14213752E+00 0.58433458E+03</pdfrwt>
<totfact> 0.19482867E+01</totfact>
</mgrwt>
</event>
<event>
 4    1  0.5410820E-008  0.5143064E+03  0.7818608E-02  0.1010111E+00
         -2   -1    0    0    0  501 -0.00000000000E+00  0.00000000000E+00  0.71924794273E+03  0.71924794273E+03  0.25500000000E-02 0.  1.
          2   -1    0    0  501    0  0.00000000000E+00 -0.00000000000E+00 -0.67984634004E+03  0.67984634004E+03  0.25500000000E-02 0. -1.
    8880022    1    1    2    0    0  0.41929207418E+03 -0.25556517637E+03  0.49366830455E+03  0.71289511906E+03  0.15294330000E+03 0.  0.
    8880022    1    1    2    0    0 -0.41929207418E+03  0.25556517637E+03 -0.45426670186E+03  0.68619916371E+03  0.15294330000E+03 0.  0.
<mgrwt>
<rscale>  0 0.51430638E+03</rscale>
<asrwt>0</asrwt>
<pdfrwt beam="1">  1        2 0.10459174E+00 0.51430638E+03</pdfrwt>
<pdfrwt beam="2">  1       -2 0.11065353E+00 0.51430638E+03</pdfrwt>
<totfact> 0.28586472E+01</totfact>
</mgrwt>
</event>
<event>
 4    1  0.5410820E-008  0.3652719E+03  0.7818608E-02  0.1056516E+00
         -2   -1    0    0    0  501 -0.00000000000E+00  0.00000000000E+00  0.16087983140E+03  0.16087983142E+03  0.25500000000E-02 0.  1.
          2   -1    0    0  501    0  0.00000000000E+00 -0.00000000000E+00 -0.10929360665E+04  0.10929360665E+04  0.25500000000E-02 0. -1.
    8880022    1    1    2    0    0 -0.20046379662E+03 -0.26428422081E+03 -0.15815012798E+03  0.39803894171E+03  0.15294330000E+03 0.  0.
    8880022    1    1    2    0    0  0.20046379662E+03  0.26428422081E+03 -0.77390610717E+03  0.85577695625E+03  0.15294330000E+03 0. -1.
<mgrwt>
<rscale>  0 0.36527187E+03</rscale>
<asrwt>0</asrwt>
<pdfrwt beam="1">  1        2 0.16814401E+00 0.36527187E+03</pdfrwt>
<pdfrwt beam="2">  1       -2 0.24750744E-01 0.36527187E+03</pdfrwt>
<totfact> 0.33270014E+02</totfact>
</mgrwt>
</event>
<event>
 4    1  0.5410820E-008  0.6509985E+03  0.7818608E-02  0.9804907E-01
         -2   -1    0    0    0  501 -0.00000000000E+00  0.00000000000E+00  0.24350012613E+04  0.24350012613E+04  0.25500000000E-02 0.  1.
          2   -1    0    0  501    0  0.00000000000E+00 -0.00000000000E+00 -0.41211233226E+03  0.41211233227E+03  0.25500000000E-02 0. -1.
    8880022    1    1    2    0    0  0.63171900258E+03  0.36586025270E+02 -0.70530373211E+02  0.65480808030E+03  0.15294330000E+03 0.  0.
    8880022    1    1    2    0    0 -0.63171900258E+03 -0.36586025270E+02  0.20934193022E+04  0.21923055133E+04  0.15294330000E+03 0.  0.
<mgrwt>
<rscale>  0 0.65099853E+03</rscale>
<asrwt>0</asrwt>
<pdfrwt beam="1">  1        2 0.63401899E-01 0.65099853E+03</pdfrwt>
<pdfrwt beam="2">  1       -2 0.37461557E+00 0.65099853E+03</pdfrwt>
<totfact> 0.89973905E-01</totfact>
</mgrwt>
</event>
<event>
 4    1  0.5410820E-008  0.4508614E+03  0.7818608E-02  0.1027465E+00
          2   -1    0    0  501    0  0.00000000000E+00  0.00000000000E+00  0.91429167775E+03  0.91429167775E+03  0.25500000000E-02 0. -1.
         -2   -1    0    0    0  501 -0.00000000000E+00 -0.00000000000E+00 -0.99781027305E+03  0.99781027306E+03  0.25500000000E-02 0.  1.
    8880022    1    1    2    0    0 -0.42394682035E+03 -0.12388469972E+02 -0.88459313201E+03  0.99286506782E+03  0.15294330000E+03 0.  0.
    8880022    1    1    2    0    0  0.42394682035E+03  0.12388469972E+02  0.80107453671E+03  0.91923688299E+03  0.15294330000E+03 0.  0.
<mgrwt>
<rscale>  0 0.45086144E+03</rscale>
<asrwt>0</asrwt>
<pdfrwt beam="1">  1        2 0.14066026E+00 0.45086144E+03</pdfrwt>
<pdfrwt beam="2">  1       -2 0.15350927E+00 0.45086144E+03</pdfrwt>
<totfact> 0.86147782E+00</totfact>
</mgrwt>
</event>
<event>
 4    1  0.5410820E-008  0.5383417E+03  0.7818608E-02  0.1004229E+00
         -2   -1    0    0    0  501 -0.00000000000E+00  0.00000000000E+00  0.46783369885E+03  0.46783369886E+03  0.25500000000E-02 0.  1.
          2   -1    0    0  501    0  0.00000000000E+00 -0.00000000000E+00 -0.11727719453E+04  0.11727719453E+04  0.25500000000E-02 0. -1.
    8880022    1    1    2    0    0  0.43428127714E+03  0.27896214204E+03 -0.91590715428E+03  0.10624018414E+04  0.15294330000E+03 0.  0.
    8880022    1    1    2    0    0 -0.43428127714E+03 -0.27896214204E+03  0.21096890786E+03  0.57820380271E+03  0.15294330000E+03 0.  0.
<mgrwt>
<rscale>  0 0.53834167E+03</rscale>
<asrwt>0</asrwt>
<pdfrwt beam="1">  1        2 0.18042645E+00 0.53834167E+03</pdfrwt>
<pdfrwt beam="2">  1       -2 0.71974415E-01 0.53834167E+03</pdfrwt>
<totfact> 0.35904423E+01</totfact>
</mgrwt>
</event>
<event>
 4    1  0.5410820E-008  0.7756834E+03  0.7818608E-02  0.9595897E-01
         -2   -1    0    0    0  501 -0.00000000000E+00  0.00000000000E+00  0.95395334661E+03  0.95395334662E+03  0.25500000000E-02 0.  1.
          2   -1    0    0  501    0  0.00000000000E+00 -0.00000000000E+00 -0.20867413278E+04  0.20867413278E+04  0.25500000000E-02 0. -1.
    8880022    1    1    2    0    0 -0.57574099279E+03 -0.49680522451E+03 -0.18363574729E+04  0.19934627017E+04  0.15294330000E+03 0. -1.
    8880022    1    1    2    0    0  0.57574099279E+03  0.49680522451E+03  0.70356949173E+03  0.10472319727E+04  0.15294330000E+03 0.  0.
<mgrwt>
<rscale>  0 0.77568342E+03</rscale>
<asrwt>0</asrwt>
<pdfrwt beam="1">  1        2 0.32103713E+00 0.77568342E+03</pdfrwt>
<pdfrwt beam="2">  1       -2 0.14676205E+00 0.77568342E+03</pdfrwt>
<totfact> 0.19638994E+00</totfact>
</mgrwt>
</event>
<event>
 4    1  0.5410820E-008  0.3812547E+03  0.7818608E-02  0.1050471E+00
          2   -1    0    0  501    0  0.00000000000E+00  0.00000000000E+00  0.88254631455E+03  0.88254631455E+03  0.25500000000E-02 0. -1.
         -2   -1    0    0    0  501 -0.00000000000E+00 -0.00000000000E+00 -0.95827241285E+03  0.95827241285E+03  0.25500000000E-02 0.  1.
    8880022    1    1    2    0    0 -0.10899163117E+03  0.33178958136E+03  0.79972386871E+03  0.88595339672E+03  0.15294330000E+03 0.  0.
    8880022    1    1    2    0    0  0.10899163117E+03 -0.33178958136E+03 -0.87544996701E+03  0.95486533068E+03  0.15294330000E+03 0.  0.
<mgrwt>
<rscale>  0 0.38125471E+03</rscale>
<asrwt>0</asrwt>
<pdfrwt beam="1">  1        2 0.13577636E+00 0.38125471E+03</pdfrwt>
<pdfrwt beam="2">  1       -2 0.14742652E+00 0.38125471E+03</pdfrwt>
<totfact> 0.10202632E+01</totfact>
</mgrwt>
</event>
<event>
 4    1  0.5410820E-008  0.2547660E+03  0.7818608E-02  0.1110329E+00
          2   -1    0    0  501    0  0.00000000000E+00  0.00000000000E+00  0.12240919593E+04  0.12240919593E+04  0.25500000000E-02 0. -1.
         -2   -1    0    0    0  501 -0.00000000000E+00 -0.00000000000E+00 -0.68695912786E+02  0.68695912833E+02  0.25500000000E-02 0.  1.
    8880022    1    1    2    0    0 -0.19864167921E+03 -0.45338058771E+02  0.88644233934E+03  0.92232626021E+03  0.15294330000E+03 0.  0.
    8880022    1    1    2    0    0  0.19864167921E+03  0.45338058771E+02  0.26895370719E+03  0.37046161194E+03  0.15294330000E+03 0.  0.
<mgrwt>
<rscale>  0 0.25476599E+03</rscale>
<asrwt>0</asrwt>
<pdfrwt beam="1">  1        2 0.18832182E+00 0.25476599E+03</pdfrwt>
<pdfrwt beam="2">  1       -2 0.10568603E-01 0.25476599E+03</pdfrwt>
<totfact> 0.11778773E+03</totfact>
</mgrwt>
</event>
<event>
 4    1  0.5410820E-008  0.8141541E+03  0.7818608E-02  0.9539753E-01
         -2   -1    0    0    0  501 -0.00000000000E+00  0.00000000000E+00  0.68821198603E+03  0.68821198603E+03  0.25500000000E-02 0.  1.
          2   -1    0    0  501    0  0.00000000000E+00 -0.00000000000E+00 -0.14219865070E+04  0.14219865070E+04  0.25500000000E-02 0. -1.
    8880022    1    1    2    0    0 -0.63650763184E+03 -0.48405911511E+03  0.23245882343E+03  0.84668999635E+03  0.15294330000E+03 0.  0.
    8880022    1    1    2    0    0  0.63650763184E+03  0.48405911511E+03 -0.96623334437E+03  0.12635084966E+04  0.15294330000E+03 0.  0.
<mgrwt>
<rscale>  0 0.81415407E+03</rscale>
<asrwt>0</asrwt>
<pdfrwt beam="1">  1        2 0.21876715E+00 0.81415407E+03</pdfrwt>
<pdfrwt beam="2">  1       -2 0.10587877E+00 0.81415407E+03</pdfrwt>
<totfact> 0.10280002E+01</totfact>
</mgrwt>
</event>
<event>
 4    1  0.5410820E-008  0.4825401E+03  0.7818608E-02  0.1018439E+00
         -2   -1    0    0    0  501 -0.00000000000E+00  0.00000000000E+00  0.12291987631E+03  0.12291987633E+03  0.25500000000E-02 0.  1.
          2   -1    0    0  501    0  0.00000000000E+00 -0.00000000000E+00 -0.19763643219E+04  0.19763643219E+04  0.25500000000E-02 0. -1.
    8880022    1    1    2    0    0 -0.15535042011E+03 -0.43048759164E+03 -0.11406322729E+04  0.12385018993E+04  0.15294330000E+03 0.  0.
    8880022    1    1    2    0    0  0.15535042011E+03  0.43048759164E+03 -0.71281217264E+03  0.86078229888E+03  0.15294330000E+03 0. -1.
<mgrwt>
<rscale>  0 0.48254013E+03</rscale>
<asrwt>0</asrwt>
<pdfrwt beam="1">  1        2 0.30405603E+00 0.48254013E+03</pdfrwt>
<pdfrwt beam="2">  1       -2 0.18910752E-01 0.48254013E+03</pdfrwt>
<totfact> 0.17112682E+02</totfact>
</mgrwt>
</event>
<event>
 4    1  0.5410820E-008  0.6810214E+03  0.7818608E-02  0.9750250E-01
         -2   -1    0    0    0  501 -0.00000000000E+00  0.00000000000E+00  0.53850493799E+03  0.53850493799E+03  0.25500000000E-02 0.  1.
          2   -1    0    0  501    0  0.00000000000E+00 -0.00000000000E+00 -0.10426409609E+04  0.10426409609E+04  0.25500000000E-02 0. -1.
    8880022    1    1    2    0    0 -0.63120892217E+03  0.20487516446E+03  0.77675401956E+02  0.68543683701E+03  0.15294330000E+03 0.  0.
    8880022    1    1    2    0    0  0.63120892217E+03 -0.20487516446E+03 -0.58181142491E+03  0.89570906192E+03  0.15294330000E+03 0.  0.
<mgrwt>
<rscale>  0 0.68102143E+03</rscale>
<asrwt>0</asrwt>
<pdfrwt beam="1">  1        2 0.16040630E+00 0.68102143E+03</pdfrwt>
<pdfrwt beam="2">  1       -2 0.82846914E-01 0.68102143E+03</pdfrwt>
<totfact> 0.30940404E+01</totfact>
</mgrwt>
</event>
<event>
 4    1  0.5410820E-008  0.2922735E+03  0.7818608E-02  0.1089168E+00
          2   -1    0    0  501    0  0.00000000000E+00  0.00000000000E+00  0.13896930492E+04  0.13896930492E+04  0.25500000000E-02 0. -1.
         -2   -1    0    0    0  501 -0.00000000000E+00 -0.00000000000E+00 -0.11598635329E+03  0.11598635332E+03  0.25500000000E-02 0.  1.
    8880022    1    1    2    0    0  0.24898110715E+03 -0.63687651006E+01  0.12071722036E+03  0.31622215797E+03  0.15294330000E+03 0.  0.
    8880022    1    1    2    0    0 -0.24898110715E+03  0.63687651006E+01  0.11529894756E+04  0.11894572446E+04  0.15294330000E+03 0.  0.
<mgrwt>
<rscale>  0 0.29227351E+03</rscale>
<asrwt>0</asrwt>
<pdfrwt beam="1">  1        2 0.21379894E+00 0.29227351E+03</pdfrwt>
<pdfrwt beam="2">  1       -2 0.17844054E-01 0.29227351E+03</pdfrwt>
<totfact> 0.40125032E+02</totfact>
</mgrwt>
</event>
<event>
 4    1  0.5410820E-008  0.4600399E+03  0.7818608E-02  0.1024770E+00
          2   -1    0    0  501    0  0.00000000000E+00  0.00000000000E+00  0.31232756950E+04  0.31232756950E+04  0.25500000000E-02 0. -1.
         -2   -1    0    0    0  501 -0.00000000000E+00 -0.00000000000E+00 -0.15352198788E+03  0.15352198790E+03  0.25500000000E-02 0.  1.
    8880022    1    1    2    0    0 -0.30564812277E+03  0.30793554745E+03  0.27094334620E+04  0.27482114937E+04  0.15294330000E+03 0. -1.
    8880022    1    1    2    0    0  0.30564812277E+03 -0.30793554745E+03  0.26032024511E+03  0.52858618915E+03  0.15294330000E+03 0.  0.
<mgrwt>
<rscale>  0 0.46003992E+03</rscale>
<asrwt>0</asrwt>
<pdfrwt beam="1">  1        2 0.48050390E+00 0.46003992E+03</pdfrwt>
<pdfrwt beam="2">  1       -2 0.23618770E-01 0.46003992E+03</pdfrwt>
<totfact> 0.26063002E+01</totfact>
</mgrwt>
</event>
<event>
 4    1  0.5410820E-008  0.3394520E+03  0.7818608E-02  0.1067030E+00
         -2   -1    0    0    0  501 -0.00000000000E+00  0.00000000000E+00  0.58272860556E+03  0.58272860556E+03  0.25500000000E-02 0.  1.
          2   -1    0    0  501    0  0.00000000000E+00 -0.00000000000E+00 -0.56282758286E+03  0.56282758286E+03  0.25500000000E-02 0. -1.
    8880022    1    1    2    0    0 -0.66389558293E+02  0.29568302716E+03  0.47126632517E+03  0.58079224191E+03  0.15294330000E+03 0.  0.
    8880022    1    1    2    0    0  0.66389558293E+02 -0.29568302716E+03 -0.45136530247E+03  0.56476394652E+03  0.15294330000E+03 0. -1.
<mgrwt>
<rscale>  0 0.33945203E+03</rscale>
<asrwt>0</asrwt>
<pdfrwt beam="1">  1        2 0.86588859E-01 0.33945203E+03</pdfrwt>
<pdfrwt beam="2">  1       -2 0.89650555E-01 0.33945203E+03</pdfrwt>
<totfact> 0.60085446E+01</totfact>
</mgrwt>
</event>
<event>
 4    1  0.5410820E-008  0.6089820E+03  0.7818608E-02  0.9886944E-01
         -2   -1    0    0    0  501 -0.00000000000E+00  0.00000000000E+00  0.51983820349E+03  0.51983820350E+03  0.25500000000E-02 0.  1.
          2   -1    0    0  501    0  0.00000000000E+00 -0.00000000000E+00 -0.20131088869E+04  0.20131088869E+04  0.25500000000E-02 0. -1.
    8880022    1    1    2    0    0 -0.58655138959E+03  0.58522692283E+02  0.27097951577E+03  0.66655006498E+03  0.15294330000E+03 0.  0.
    8880022    1    1    2    0    0  0.58655138959E+03 -0.58522692283E+02 -0.17642501992E+04  0.18663970254E+04  0.15294330000E+03 0.  0.
<mgrwt>
<rscale>  0 0.60898201E+03</rscale>
<asrwt>0</asrwt>
<pdfrwt beam="1">  1        2 0.30970906E+00 0.60898201E+03</pdfrwt>
<pdfrwt beam="2">  1       -2 0.79975109E-01 0.60898201E+03</pdfrwt>
<totfact> 0.96421479E+00</totfact>
</mgrwt>
</event>
<event>
 4    1  0.5410820E-008  0.5520932E+03  0.7818608E-02  0.1001011E+00
          2   -1    0    0  501    0  0.00000000000E+00  0.00000000000E+00  0.24525282357E+04  0.24525282357E+04  0.25500000000E-02 0. -1.
         -2   -1    0    0    0  501 -0.00000000000E+00 -0.00000000000E+00 -0.21727853742E+03  0.21727853744E+03  0.25500000000E-02 0.  1.
    8880022    1    1    2    0    0 -0.10790224527E+03  0.51939617169E+03  0.19909441935E+04  0.20660749532E+04  0.15294330000E+03 0. -1.
    8880022    1    1    2    0    0  0.10790224527E+03 -0.51939617169E+03  0.24430550479E+03  0.60373181993E+03  0.15294330000E+03 0.  0.
<mgrwt>
<rscale>  0 0.55209323E+03</rscale>
<asrwt>0</asrwt>
<pdfrwt beam="1">  1        2 0.37731204E+00 0.55209323E+03</pdfrwt>
<pdfrwt beam="2">  1       -2 0.33427467E-01 0.55209323E+03</pdfrwt>
<totfact> 0.33384470E+01</totfact>
</mgrwt>
</event>
<event>
 4    1  0.5410820E-008  0.5968686E+03  0.7818608E-02  0.9911924E-01
          2   -1    0    0  501    0  0.00000000000E+00  0.00000000000E+00  0.12876426095E+04  0.12876426095E+04  0.25500000000E-02 0. -1.
         -2   -1    0    0    0  501 -0.00000000000E+00 -0.00000000000E+00 -0.61612631467E+03  0.61612631468E+03  0.25500000000E-02 0.  1.
    8880022    1    1    2    0    0 -0.14191631051E+03  0.55921392477E+03 -0.37078923592E+03  0.70266404728E+03  0.15294330000E+03 0.  0.
    8880022    1    1    2    0    0  0.14191631051E+03 -0.55921392477E+03  0.10423055307E+04  0.12011048769E+04  0.15294330000E+03 0.  0.
<mgrwt>
<rscale>  0 0.59686858E+03</rscale>
<asrwt>0</asrwt>
<pdfrwt beam="1">  1        2 0.19809886E+00 0.59686858E+03</pdfrwt>
<pdfrwt beam="2">  1       -2 0.94788665E-01 0.59686858E+03</pdfrwt>
<totfact> 0.16404847E+01</totfact>
</mgrwt>
</event>
<event>
 4    1  0.5410820E-008  0.7168452E+03  0.7818608E-02  0.9688851E-01
         -2   -1    0    0    0  501 -0.00000000000E+00  0.00000000000E+00  0.20429912704E+04  0.20429912704E+04  0.25500000000E-02 0.  1.
          2   -1    0    0  501    0  0.00000000000E+00 -0.00000000000E+00 -0.53039751105E+03  0.53039751106E+03  0.25500000000E-02 0. -1.
    8880022    1    1    2    0    0  0.44729653441E+03 -0.53888885811E+03 -0.17669126607E+03  0.73829997129E+03  0.15294330000E+03 0.  0.
    8880022    1    1    2    0    0 -0.44729653441E+03  0.53888885811E+03  0.16892850254E+04  0.18350888102E+04  0.15294330000E+03 0.  0.
<mgrwt>
<rscale>  0 0.71684520E+03</rscale>
<asrwt>0</asrwt>
<pdfrwt beam="1">  1        2 0.81599617E-01 0.71684520E+03</pdfrwt>
<pdfrwt beam="2">  1       -2 0.31430635E+00 0.71684520E+03</pdfrwt>
<totfact> 0.15683884E+00</totfact>
</mgrwt>
</event>
<event>
 4    1  0.5410820E-008  0.7304434E+03  0.7818608E-02  0.9666541E-01
         -2   -1    0    0    0  501 -0.00000000000E+00  0.00000000000E+00  0.46418361220E+03  0.46418361221E+03  0.25500000000E-02 0.  1.
          2   -1    0    0  501    0  0.00000000000E+00 -0.00000000000E+00 -0.21295615566E+04  0.21295615566E+04  0.25500000000E-02 0. -1.
    8880022    1    1    2    0    0 -0.44110083266E+03 -0.56177034806E+03  0.47131254383E+02  0.73196234649E+03  0.15294330000E+03 0.  0.
    8880022    1    1    2    0    0  0.44110083266E+03  0.56177034806E+03 -0.17125091988E+04  0.18617828223E+04  0.15294330000E+03 0.  0.
<mgrwt>
<rscale>  0 0.73044337E+03</rscale>
<asrwt>0</asrwt>
<pdfrwt beam="1">  1        2 0.32762485E+00 0.73044337E+03</pdfrwt>
<pdfrwt beam="2">  1       -2 0.71412865E-01 0.73044337E+03</pdfrwt>
<totfact> 0.10483695E+01</totfact>
</mgrwt>
</event>
<event>
 4    1  0.5410820E-008  0.4177944E+03  0.7818608E-02  0.1037787E+00
          2   -1    0    0  501    0  0.00000000000E+00  0.00000000000E+00  0.16152962434E+04  0.16152962434E+04  0.25500000000E-02 0. -1.
         -2   -1    0    0    0  501 -0.00000000000E+00 -0.00000000000E+00 -0.66799451109E+03  0.66799451109E+03  0.25500000000E-02 0.  1.
    8880022    1    1    2    0    0 -0.38652423521E+03  0.41946794047E+02 -0.57158092606E+03  0.70799500421E+03  0.15294330000E+03 0.  0.
    8880022    1    1    2    0    0  0.38652423521E+03 -0.41946794047E+02  0.15188826584E+04  0.15752957503E+04  0.15294330000E+03 0.  0.
<mgrwt>
<rscale>  0 0.41779441E+03</rscale>
<asrwt>0</asrwt>
<pdfrwt beam="1">  1        2 0.24850711E+00 0.41779441E+03</pdfrwt>
<pdfrwt beam="2">  1       -2 0.10276839E+00 0.41779441E+03</pdfrwt>
<totfact> 0.92581917E+00</totfact>
</mgrwt>
</event>
<event>
 4    1  0.5410820E-008  0.5488989E+03  0.7818608E-02  0.1001749E+00
         -2   -1    0    0    0  501 -0.00000000000E+00  0.00000000000E+00  0.51359353237E+03  0.51359353238E+03  0.25500000000E-02 0.  1.
          2   -1    0    0  501    0  0.00000000000E+00 -0.00000000000E+00 -0.80391055274E+03  0.80391055274E+03  0.25500000000E-02 0. -1.
    8880022    1    1    2    0    0  0.22698814871E+03 -0.47578858087E+03  0.19731519329E+03  0.58328666354E+03  0.15294330000E+03 0.  0.
    8880022    1    1    2    0    0 -0.22698814871E+03  0.47578858087E+03 -0.48763221366E+03  0.73421742158E+03  0.15294330000E+03 0.  0.
<mgrwt>
<rscale>  0 0.54889894E+03</rscale>
<asrwt>0</asrwt>
<pdfrwt beam="1">  1        2 0.12367855E+00 0.54889894E+03</pdfrwt>
<pdfrwt beam="2">  1       -2 0.79014389E-01 0.54889894E+03</pdfrwt>
<totfact> 0.50234255E+01</totfact>
</mgrwt>
</event>
<event>
 4    1  0.5410820E-008  0.7956297E+03  0.7818608E-02  0.9566365E-01
         -2   -1    0    0    0  501 -0.00000000000E+00  0.00000000000E+00  0.65159431604E+03  0.65159431604E+03  0.25500000000E-02 0.  1.
          2   -1    0    0  501    0  0.00000000000E+00 -0.00000000000E+00 -0.19003858758E+04  0.19003858758E+04  0.25500000000E-02 0. -1.
    8880022    1    1    2    0    0 -0.68433054686E+03 -0.37593447546E+03 -0.15164814860E+04  0.17125252634E+04  0.15294330000E+03 0.  0.
    8880022    1    1    2    0    0  0.68433054686E+03  0.37593447546E+03  0.26768992631E+03  0.83945492843E+03  0.15294330000E+03 0.  0.
<mgrwt>
<rscale>  0 0.79562974E+03</rscale>
<asrwt>0</asrwt>
<pdfrwt beam="1">  1        2 0.29236706E+00 0.79562974E+03</pdfrwt>
<pdfrwt beam="2">  1       -2 0.10024528E+00 0.79562974E+03</pdfrwt>
<totfact> 0.63968310E+00</totfact>
</mgrwt>
</event>
<event>
 4    1  0.5410820E-008  0.1530054E+03  0.7818608E-02  0.1196828E+00
          2   -1    0    0  501    0  0.00000000000E+00  0.00000000000E+00  0.10741475597E+04  0.10741475597E+04  0.25500000000E-02 0. -1.
         -2   -1    0    0    0  501 -0.00000000000E+00 -0.00000000000E+00 -0.64507508128E+02  0.64507508178E+02  0.25500000000E-02 0.  1.
    8880022    1    1    2    0    0 -0.16494158736E+01 -0.40352535371E+01  0.41547618454E+02  0.15854608623E+03  0.15294330000E+03 0.  0.
    8880022    1    1    2    0    0  0.16494158736E+01  0.40352535371E+01  0.96809243314E+03  0.98010898167E+03  0.15294330000E+03 0. -1.
<mgrwt>
<rscale>  0 0.15300541E+03</rscale>
<asrwt>0</asrwt>
<pdfrwt beam="1">  1        2 0.16525346E+00 0.15300541E+03</pdfrwt>
<pdfrwt beam="2">  1       -2 0.99242329E-02 0.15300541E+03</pdfrwt>
<totfact> 0.15885241E+03</totfact>
</mgrwt>
</event>
<event>
 4    1  0.5410820E-008  0.3382361E+03  0.7818608E-02  0.1067550E+00
         -2   -1    0    0    0  501 -0.00000000000E+00  0.00000000000E+00  0.58586746093E+03  0.58586746093E+03  0.25500000000E-02 0.  1.
          2   -1    0    0  501    0  0.00000000000E+00 -0.00000000000E+00 -0.71665302242E+03  0.71665302242E+03  0.25500000000E-02 0. -1.
    8880022    1    1    2    0    0  0.27581053668E+03  0.12223149409E+03 -0.62088453055E+03  0.70703694641E+03  0.15294330000E+03 0.  0.
    8880022    1    1    2    0    0 -0.27581053668E+03 -0.12223149409E+03  0.49009896906E+03  0.59548353695E+03  0.15294330000E+03 0.  0.
<mgrwt>
<rscale>  0 0.33823608E+03</rscale>
<asrwt>0</asrwt>
<pdfrwt beam="1">  1        2 0.11025431E+00 0.33823608E+03</pdfrwt>
<pdfrwt beam="2">  1       -2 0.90133456E-01 0.33823608E+03</pdfrwt>
<totfact> 0.44463876E+01</totfact>
</mgrwt>
</event>
<event>
 4    1  0.5410820E-008  0.3857710E+03  0.7818608E-02  0.1048821E+00
         -2   -1    0    0    0  501 -0.00000000000E+00  0.00000000000E+00  0.94883292171E+02  0.94883292205E+02  0.25500000000E-02 0.  1.
          2   -1    0    0  501    0  0.00000000000E+00 -0.00000000000E+00 -0.22298109507E+04  0.22298109507E+04  0.25500000000E-02 0. -1.
    8880022    1    1    2    0    0  0.20912341327E+02 -0.35353961749E+03 -0.17004914892E+04  0.17437002452E+04  0.15294330000E+03 0.  0.
    8880022    1    1    2    0    0 -0.20912341327E+02  0.35353961749E+03 -0.43443616929E+03  0.58099399770E+03  0.15294330000E+03 0.  0.
<mgrwt>
<rscale>  0 0.38577097E+03</rscale>
<asrwt>0</asrwt>
<pdfrwt beam="1">  1        2 0.34304780E+00 0.38577097E+03</pdfrwt>
<pdfrwt beam="2">  1       -2 0.14597431E-01 0.38577097E+03</pdfrwt>
<totfact> 0.19690411E+02</totfact>
</mgrwt>
</event>
<event>
 4    1  0.5410820E-008  0.2262334E+03  0.7818608E-02  0.1129319E+00
          2   -1    0    0  501    0  0.00000000000E+00  0.00000000000E+00  0.98885900939E+03  0.98885900939E+03  0.25500000000E-02 0. -1.
         -2   -1    0    0    0  501 -0.00000000000E+00 -0.00000000000E+00 -0.11065305809E+04  0.11065305809E+04  0.25500000000E-02 0.  1.
    8880022    1    1    2    0    0 -0.16440250607E+03 -0.27599167554E+02 -0.10817340766E+04  0.11051380744E+04  0.15294330000E+03 0.  0.
    8880022    1    1    2    0    0  0.16440250607E+03  0.27599167554E+02  0.96406250506E+03  0.99025151589E+03  0.15294330000E+03 0. -1.
<mgrwt>
<rscale>  0 0.22623340E+03</rscale>
<asrwt>0</asrwt>
<pdfrwt beam="1">  1        2 0.15213215E+00 0.22623340E+03</pdfrwt>
<pdfrwt beam="2">  1       -2 0.17023548E+00 0.22623340E+03</pdfrwt>
<totfact> 0.62693216E+00</totfact>
</mgrwt>
</event>
<event>
 4    1  0.5410820E-008  0.2832386E+03  0.7818608E-02  0.1093933E+00
          2   -1    0    0  501    0  0.00000000000E+00  0.00000000000E+00  0.23083894589E+04  0.23083894589E+04  0.25500000000E-02 0. -1.
         -2   -1    0    0    0  501 -0.00000000000E+00 -0.00000000000E+00 -0.21737197389E+03  0.21737197391E+03  0.25500000000E-02 0.  1.
    8880022    1    1    2    0    0 -0.67447698557E+02  0.22865537686E+03 -0.11202367485E+03  0.30458731121E+03  0.15294330000E+03 0.  0.
    8880022    1    1    2    0    0  0.67447698557E+02 -0.22865537686E+03  0.22030411598E+04  0.22211741216E+04  0.15294330000E+03 0.  0.
<mgrwt>
<rscale>  0 0.28323864E+03</rscale>
<asrwt>0</asrwt>
<pdfrwt beam="1">  1        2 0.35513682E+00 0.28323864E+03</pdfrwt>
<pdfrwt beam="2">  1       -2 0.33441844E-01 0.28323864E+03</pdfrwt>
<totfact> 0.42932242E+01</totfact>
</mgrwt>
</event>
<event>
 4    1  0.5410820E-008  0.3918907E+03  0.7818608E-02  0.1046624E+00
          2   -1    0    0  501    0  0.00000000000E+00  0.00000000000E+00  0.20495149318E+04  0.20495149318E+04  0.25500000000E-02 0. -1.
         -2   -1    0    0    0  501 -0.00000000000E+00 -0.00000000000E+00 -0.17046421393E+03  0.17046421395E+03  0.25500000000E-02 0.  1.
    8880022    1    1    2    0    0 -0.33342722784E+03  0.13788759384E+03  0.10857963432E+03  0.40665451529E+03  0.15294330000E+03 0.  0.
    8880022    1    1    2    0    0  0.33342722784E+03 -0.13788759384E+03  0.17704710836E+04  0.18133246305E+04  0.15294330000E+03 0.  0.
<mgrwt>
<rscale>  0 0.39189075E+03</rscale>
<asrwt>0</asrwt>
<pdfrwt beam="1">  1        2 0.31531000E+00 0.39189075E+03</pdfrwt>
<pdfrwt beam="2">  1       -2 0.26225263E-01 0.39189075E+03</pdfrwt>
<totfact> 0.89371297E+01</totfact>
</mgrwt>
</event>
<event>
 4    1  0.5410820E-008  0.8399095E+03  0.7818608E-02  0.9503981E-01
          2   -1    0    0  501    0  0.00000000000E+00  0.00000000000E+00  0.11860422846E+04  0.11860422846E+04  0.25500000000E-02 0. -1.
         -2   -1    0    0    0  501 -0.00000000000E+00 -0.00000000000E+00 -0.60709573427E+03  0.60709573427E+03  0.25500000000E-02 0.  1.
    8880022    1    1    2    0    0  0.79769202147E+03 -0.21387778172E+03  0.41711177231E+03  0.93777937184E+03  0.15294330000E+03 0.  0.
    8880022    1    1    2    0    0 -0.79769202147E+03  0.21387778172E+03  0.16183477800E+03  0.85535864701E+03  0.15294330000E+03 0.  0.
<mgrwt>
<rscale>  0 0.83990947E+03</rscale>
<asrwt>0</asrwt>
<pdfrwt beam="1">  1        2 0.18246804E+00 0.83990947E+03</pdfrwt>
<pdfrwt beam="2">  1       -2 0.93399346E-01 0.83990947E+03</pdfrwt>
<totfact> 0.18898860E+01</totfact>
</mgrwt>
</event>
<event>
 4    1  0.5410820E-008  0.4707193E+03  0.7818608E-02  0.1021717E+00
         -2   -1    0    0    0  501 -0.00000000000E+00  0.00000000000E+00  0.55358646663E+03  0.55358646663E+03  0.25500000000E-02 0.  1.
          2   -1    0    0  501    0  0.00000000000E+00 -0.00000000000E+00 -0.23867278950E+04  0.23867278950E+04  0.25500000000E-02 0. -1.
    8880022    1    1    2    0    0 -0.39853489222E+03  0.19838081731E+03 -0.22578013257E+04  0.23063485184E+04  0.15294330000E+03 0.  0.
    8880022    1    1    2    0    0  0.39853489222E+03 -0.19838081731E+03  0.42465989732E+03  0.63396584324E+03  0.15294330000E+03 0.  0.
<mgrwt>
<rscale>  0 0.47071930E+03</rscale>
<asrwt>0</asrwt>
<pdfrwt beam="1">  1        2 0.36718890E+00 0.47071930E+03</pdfrwt>
<pdfrwt beam="2">  1       -2 0.85167150E-01 0.47071930E+03</pdfrwt>
<totfact> 0.54052947E+00</totfact>
</mgrwt>
</event>
<event>
 4    1  0.5410820E-008  0.3526153E+03  0.7818608E-02  0.1061547E+00
         -2   -1    0    0    0  501 -0.00000000000E+00  0.00000000000E+00  0.51144020027E+03  0.51144020027E+03  0.25500000000E-02 0.  1.
          2   -1    0    0  501    0  0.00000000000E+00 -0.00000000000E+00 -0.24841483503E+03  0.24841483505E+03  0.25500000000E-02 0. -1.
    8880022    1    1    2    0    0 -0.15028145872E+03  0.27993103746E+03  0.18701889257E+03  0.39914110508E+03  0.15294330000E+03 0.  0.
    8880022    1    1    2    0    0  0.15028145872E+03 -0.27993103746E+03  0.76006472661E+02  0.36071393024E+03  0.15294330000E+03 0.  0.
<mgrwt>
<rscale>  0 0.35261531E+03</rscale>
<asrwt>0</asrwt>
<pdfrwt beam="1">  1        2 0.38217667E-01 0.35261531E+03</pdfrwt>
<pdfrwt beam="2">  1       -2 0.78683107E-01 0.35261531E+03</pdfrwt>
<totfact> 0.19898664E+02</totfact>
</mgrwt>
</event>
<event>
 4    1  0.5410820E-008  0.3005298E+03  0.7818608E-02  0.1084976E+00
          2   -1    0    0  501    0  0.00000000000E+00  0.00000000000E+00  0.31024392971E+04  0.31024392971E+04  0.25500000000E-02 0. -1.
         -2   -1    0    0    0  501 -0.00000000000E+00 -0.00000000000E+00 -0.22942462452E+03  0.22942462453E+03  0.25500000000E-02 0.  1.
    8880022    1    1    2    0    0 -0.25201942455E+03  0.58418404195E+02  0.29931589520E+04  0.30082085475E+04  0.15294330000E+03 0.  0.
    8880022    1    1    2    0    0  0.25201942455E+03 -0.58418404195E+02 -0.12014427943E+03  0.32365537412E+03  0.15294330000E+03 0.  1.
<mgrwt>
<rscale>  0 0.30052979E+03</rscale>
<asrwt>0</asrwt>
<pdfrwt beam="1">  1        2 0.47729833E+00 0.30052979E+03</pdfrwt>
<pdfrwt beam="2">  1       -2 0.35296098E-01 0.30052979E+03</pdfrwt>
<totfact> 0.13651948E+01</totfact>
</mgrwt>
</event>
<event>
 4    1  0.5410820E-008  0.8735744E+03  0.7818608E-02  0.9459231E-01
          2   -1    0    0  501    0  0.00000000000E+00  0.00000000000E+00  0.89952892480E+03  0.89952892481E+03  0.25500000000E-02 0. -1.
         -2   -1    0    0    0  501 -0.00000000000E+00 -0.00000000000E+00 -0.15947532957E+04  0.15947532957E+04  0.25500000000E-02 0.  1.
    8880022    1    1    2    0    0  0.42709486346E+03 -0.74654580166E+03  0.50558641551E+03  0.10093314287E+04  0.15294330000E+03 0.  0.
    8880022    1    1    2    0    0 -0.42709486346E+03  0.74654580166E+03 -0.12008107864E+04  0.14849507918E+04  0.15294330000E+03 0.  0.
<mgrwt>
<rscale>  0 0.87357444E+03</rscale>
<asrwt>0</asrwt>
<pdfrwt beam="1">  1        2 0.13838907E+00 0.87357444E+03</pdfrwt>
<pdfrwt beam="2">  1       -2 0.24534666E+00 0.87357444E+03</pdfrwt>
<totfact> 0.20401597E+00</totfact>
</mgrwt>
</event>
<event>
 4    1  0.5410820E-008  0.4616835E+03  0.7818608E-02  0.1024294E+00
         -2   -1    0    0    0  501 -0.00000000000E+00  0.00000000000E+00  0.29044521112E+03  0.29044521113E+03  0.25500000000E-02 0.  1.
          2   -1    0    0  501    0  0.00000000000E+00 -0.00000000000E+00 -0.12694980816E+04  0.12694980816E+04  0.25500000000E-02 0. -1.
    8880022    1    1    2    0    0 -0.67047690031E+01  0.43556294630E+03 -0.99615625335E+03  0.10979430624E+04  0.15294330000E+03 0.  0.
    8880022    1    1    2    0    0  0.67047690031E+01 -0.43556294630E+03  0.17103382878E+02  0.46200023035E+03  0.15294330000E+03 0.  0.
<mgrwt>
<rscale>  0 0.46168354E+03</rscale>
<asrwt>0</asrwt>
<pdfrwt beam="1">  1        2 0.19530739E+00 0.46168354E+03</pdfrwt>
<pdfrwt beam="2">  1       -2 0.44683879E-01 0.46168354E+03</pdfrwt>
<totfact> 0.85841852E+01</totfact>
</mgrwt>
</event>
<event>
 4    1  0.5410820E-008  0.7846971E+03  0.7818608E-02  0.9582435E-01
          2   -1    0    0  501    0  0.00000000000E+00  0.00000000000E+00  0.25397909988E+04  0.25397909988E+04  0.25500000000E-02 0. -1.
         -2   -1    0    0    0  501 -0.00000000000E+00 -0.00000000000E+00 -0.66339442984E+03  0.66339442985E+03  0.25500000000E-02 0.  1.
    8880022    1    1    2    0    0  0.56343073659E+03  0.52431255512E+03 -0.33760346549E+03  0.85423978093E+03  0.15294330000E+03 0.  0.
    8880022    1    1    2    0    0 -0.56343073659E+03 -0.52431255512E+03  0.22140000345E+04  0.23489456477E+04  0.15294330000E+03 0.  0.
<mgrwt>
<rscale>  0 0.78469708E+03</rscale>
<asrwt>0</asrwt>
<pdfrwt beam="1">  1        2 0.39073708E+00 0.78469708E+03</pdfrwt>
<pdfrwt beam="2">  1       -2 0.10206068E+00 0.78469708E+03</pdfrwt>
<totfact> 0.27134077E+00</totfact>
</mgrwt>
</event>
<event>
 4    1  0.5410820E-008  0.4050458E+03  0.7818608E-02  0.1042046E+00
         -2   -1    0    0    0  501 -0.00000000000E+00  0.00000000000E+00  0.49314175139E+03  0.49314175140E+03  0.25500000000E-02 0.  1.
          2   -1    0    0  501    0  0.00000000000E+00 -0.00000000000E+00 -0.37910206015E+03  0.37910206016E+03  0.25500000000E-02 0. -1.
    8880022    1    1    2    0    0 -0.16978511514E+03 -0.33443007013E+03  0.20962064841E+03  0.45607337830E+03  0.15294330000E+03 0.  0.
    8880022    1    1    2    0    0  0.16978511514E+03  0.33443007013E+03 -0.95580957175E+02  0.41617043326E+03  0.15294330000E+03 0.  0.
<mgrwt>
<rscale>  0 0.40504581E+03</rscale>
<asrwt>0</asrwt>
<pdfrwt beam="1">  1        2 0.58323394E-01 0.40504581E+03</pdfrwt>
<pdfrwt beam="2">  1       -2 0.75867961E-01 0.40504581E+03</pdfrwt>
<totfact> 0.13532755E+02</totfact>
</mgrwt>
</event>
<event>
 4    1  0.5410820E-008  0.1208989E+04  0.7818608E-02  0.9105025E-01
         -2   -1    0    0    0  501 -0.00000000000E+00  0.00000000000E+00  0.89233795900E+03  0.89233795901E+03  0.25500000000E-02 0.  1.
          2   -1    0    0  501    0  0.00000000000E+00 -0.00000000000E+00 -0.24162582290E+04  0.24162582290E+04  0.25500000000E-02 0. -1.
    8880022    1    1    2    0    0 -0.11915410357E+04 -0.13598826543E+03  0.17690328257E+03  0.12218630335E+04  0.15294330000E+03 0.  1.
    8880022    1    1    2    0    0  0.11915410357E+04  0.13598826543E+03 -0.17008235526E+04  0.20867331545E+04  0.15294330000E+03 0.  0.
<mgrwt>
<rscale>  0 0.12089890E+04</rscale>
<asrwt>0</asrwt>
<pdfrwt beam="1">  1        2 0.37173203E+00 0.12089890E+04</pdfrwt>
<pdfrwt beam="2">  1       -2 0.13728276E+00 0.12089890E+04</pdfrwt>
<totfact> 0.14363236E+00</totfact>
</mgrwt>
</event>
<event>
 4    1  0.5410820E-008  0.3142678E+03  0.7818608E-02  0.1078318E+00
          2   -1    0    0  501    0  0.00000000000E+00  0.00000000000E+00  0.26638798650E+04  0.26638798650E+04  0.25500000000E-02 0. -1.
         -2   -1    0    0    0  501 -0.00000000000E+00 -0.00000000000E+00 -0.39855316026E+02  0.39855316108E+02  0.25500000000E-02 0.  1.
    8880022    1    1    2    0    0  0.25961562526E+03  0.89287741759E+02  0.95497604366E+03  0.10053573846E+04  0.15294330000E+03 0. -1.
    8880022    1    1    2    0    0 -0.25961562526E+03 -0.89287741759E+02  0.16690485053E+04  0.16983777965E+04  0.15294330000E+03 0.  0.
<mgrwt>
<rscale>  0 0.31426776E+03</rscale>
<asrwt>0</asrwt>
<pdfrwt beam="1">  1        2 0.40982773E+00 0.31426776E+03</pdfrwt>
<pdfrwt beam="2">  1       -2 0.61315863E-02 0.31426776E+03</pdfrwt>
<totfact> 0.46169143E+02</totfact>
</mgrwt>
</event>
<event>
 4    1  0.5410820E-008  0.1046782E+04  0.7818608E-02  0.9258672E-01
         -2   -1    0    0    0  501 -0.00000000000E+00  0.00000000000E+00  0.64998678397E+03  0.64998678398E+03  0.25500000000E-02 0.  1.
          2   -1    0    0  501    0  0.00000000000E+00 -0.00000000000E+00 -0.23174945839E+04  0.23174945839E+04  0.25500000000E-02 0. -1.
    8880022    1    1    2    0    0  0.80537584639E+03 -0.65094670310E+03 -0.59115267555E+02  0.10484503479E+04  0.15294330000E+03 0.  0.
    8880022    1    1    2    0    0 -0.80537584639E+03  0.65094670310E+03 -0.16083925323E+04  0.19190310199E+04  0.15294330000E+03 0.  0.
<mgrwt>
<rscale>  0 0.10467825E+04</rscale>
<asrwt>0</asrwt>
<pdfrwt beam="1">  1        2 0.35653762E+00 0.10467825E+04</pdfrwt>
<pdfrwt beam="2">  1       -2 0.99997968E-01 0.10467825E+04</pdfrwt>
<totfact> 0.36572600E+00</totfact>
</mgrwt>
</event>
<event>
 4    1  0.5410820E-008  0.4615099E+03  0.7818608E-02  0.1024344E+00
          2   -1    0    0  501    0  0.00000000000E+00  0.00000000000E+00  0.10991209404E+04  0.10991209404E+04  0.25500000000E-02 0. -1.
         -2   -1    0    0    0  501 -0.00000000000E+00 -0.00000000000E+00 -0.22906696470E+03  0.22906696472E+03  0.25500000000E-02 0.  1.
    8880022    1    1    2    0    0 -0.28677983156E+03  0.32765389586E+03  0.69566303540E+03  0.83482840099E+03  0.15294330000E+03 0.  0.
    8880022    1    1    2    0    0  0.28677983156E+03 -0.32765389586E+03  0.17439094032E+03  0.49335950415E+03  0.15294330000E+03 0.  0.
<mgrwt>
<rscale>  0 0.46150991E+03</rscale>
<asrwt>0</asrwt>
<pdfrwt beam="1">  1        2 0.16909553E+00 0.46150991E+03</pdfrwt>
<pdfrwt beam="2">  1       -2 0.35241072E-01 0.46150991E+03</pdfrwt>
<totfact> 0.17087421E+02</totfact>
</mgrwt>
</event>
<event>
 4    1  0.5410820E-008  0.1207191E+04  0.7818608E-02  0.9106586E-01
          2   -1    0    0  501    0  0.00000000000E+00  0.00000000000E+00  0.13911420483E+04  0.13911420483E+04  0.25500000000E-02 0. -1.
         -2   -1    0    0    0  501 -0.00000000000E+00 -0.00000000000E+00 -0.15042912709E+04  0.15042912709E+04  0.25500000000E-02 0.  1.
    8880022    1    1    2    0    0  0.10504329622E+04  0.57489860003E+03  0.74113784325E+03  0.14165432447E+04  0.15294330000E+03 0.  0.
    8880022    1    1    2    0    0 -0.10504329622E+04 -0.57489860003E+03 -0.85428706588E+03  0.14788900745E+04  0.15294330000E+03 0.  0.
<mgrwt>
<rscale>  0 0.12071907E+04</rscale>
<asrwt>0</asrwt>
<pdfrwt beam="1">  1        2 0.21402185E+00 0.12071907E+04</pdfrwt>
<pdfrwt beam="2">  1       -2 0.23142943E+00 0.12071907E+04</pdfrwt>
<totfact> 0.11896308E+00</totfact>
</mgrwt>
</event>
<event>
 4    1  0.5410820E-008  0.3247742E+03  0.7818608E-02  0.1073473E+00
         -2   -1    0    0    0  501 -0.00000000000E+00  0.00000000000E+00  0.10339327546E+03  0.10339327549E+03  0.25500000000E-02 0.  1.
          2   -1    0    0  501    0  0.00000000000E+00 -0.00000000000E+00 -0.14095106532E+04  0.14095106532E+04  0.25500000000E-02 0. -1.
    8880022    1    1    2    0    0  0.22706662359E+03  0.17472089461E+03 -0.25548802766E+03  0.41322200795E+03  0.15294330000E+03 0.  0.
    8880022    1    1    2    0    0 -0.22706662359E+03 -0.17472089461E+03 -0.10506293501E+04  0.10996819207E+04  0.15294330000E+03 0.  0.
<mgrwt>
<rscale>  0 0.32477422E+03</rscale>
<asrwt>0</asrwt>
<pdfrwt beam="1">  1        2 0.21684778E+00 0.32477422E+03</pdfrwt>
<pdfrwt beam="2">  1       -2 0.15906659E-01 0.32477422E+03</pdfrwt>
<totfact> 0.47311494E+02</totfact>
</mgrwt>
</event>
<event>
 4    1  0.5410820E-008  0.9963594E+03  0.7818608E-02  0.9312547E-01
          2   -1    0    0  501    0  0.00000000000E+00  0.00000000000E+00  0.18394145382E+04  0.18394145382E+04  0.25500000000E-02 0. -1.
         -2   -1    0    0    0  501 -0.00000000000E+00 -0.00000000000E+00 -0.93066937172E+03  0.93066937173E+03  0.25500000000E-02 0.  1.
    8880022    1    1    2    0    0  0.82138481446E+03  0.54283272563E+03  0.13520836601E+04  0.16795422765E+04  0.15294330000E+03 0.  0.
    8880022    1    1    2    0    0 -0.82138481446E+03 -0.54283272563E+03 -0.44333849362E+03  0.10905416335E+04  0.15294330000E+03 0.  0.
<mgrwt>
<rscale>  0 0.99635939E+03</rscale>
<asrwt>0</asrwt>
<pdfrwt beam="1">  1        2 0.28298685E+00 0.99635939E+03</pdfrwt>
<pdfrwt beam="2">  1       -2 0.14317990E+00 0.99635939E+03</pdfrwt>
<totfact> 0.27691518E+00</totfact>
</mgrwt>
</event>
<event>
 4    1  0.5410820E-008  0.1771754E+03  0.7818608E-02  0.1170565E+00
          2   -1    0    0  501    0  0.00000000000E+00  0.00000000000E+00  0.33824930402E+03  0.33824930403E+03  0.25500000000E-02 0. -1.
         -2   -1    0    0    0  501 -0.00000000000E+00 -0.00000000000E+00 -0.22876175351E+03  0.22876175352E+03  0.25500000000E-02 0.  1.
    8880022    1    1    2    0    0 -0.12542757793E+02 -0.88555818326E+02 -0.16381627572E+03  0.24130246359E+03  0.15294330000E+03 0.  0.
    8880022    1    1    2    0    0  0.12542757793E+02  0.88555818326E+02  0.27330382622E+03  0.32570859395E+03  0.15294330000E+03 0. -1.
<mgrwt>
<rscale>  0 0.17717536E+03</rscale>
<asrwt>0</asrwt>
<pdfrwt beam="1">  1        2 0.52038355E-01 0.17717536E+03</pdfrwt>
<pdfrwt beam="2">  1       -2 0.35194116E-01 0.17717536E+03</pdfrwt>
<totfact> 0.72934069E+02</totfact>
</mgrwt>
</event>
<event>
 4    1  0.5410820E-008  0.5408048E+03  0.7818608E-02  0.1003645E+00
         -2   -1    0    0    0  501 -0.00000000000E+00  0.00000000000E+00  0.12219420410E+04  0.12219420410E+04  0.25500000000E-02 0.  1.
          2   -1    0    0  501    0  0.00000000000E+00 -0.00000000000E+00 -0.81106628440E+03  0.81106628440E+03  0.25500000000E-02 0. -1.
    8880022    1    1    2    0    0  0.42842076815E+03 -0.29246164213E+03 -0.64799995737E+03  0.84402237201E+03  0.15294330000E+03 0.  0.
    8880022    1    1    2    0    0 -0.42842076815E+03  0.29246164213E+03  0.10588757139E+04  0.11889859534E+04  0.15294330000E+03 0.  0.
<mgrwt>
<rscale>  0 0.54080479E+03</rscale>
<asrwt>0</asrwt>
<pdfrwt beam="1">  1        2 0.12477943E+00 0.54080479E+03</pdfrwt>
<pdfrwt beam="2">  1       -2 0.18799108E+00 0.54080479E+03</pdfrwt>
<totfact> 0.56965418E+00</totfact>
</mgrwt>
</event>
<event>
 4    1  0.5410820E-008  0.3412772E+03  0.7818608E-02  0.1066253E+00
         -2   -1    0    0    0  501 -0.00000000000E+00  0.00000000000E+00  0.70810117266E+02  0.70810117312E+02  0.25500000000E-02 0.  1.
          2   -1    0    0  501    0  0.00000000000E+00 -0.00000000000E+00 -0.23926883711E+04  0.23926883711E+04  0.25500000000E-02 0. -1.
    8880022    1    1    2    0    0 -0.30481462680E+03  0.12905308141E+02 -0.18495767619E+04  0.18807988608E+04  0.15294330000E+03 0.  0.
    8880022    1    1    2    0    0  0.30481462680E+03 -0.12905308141E+02 -0.47230149189E+03  0.58269962754E+03  0.15294330000E+03 0.  0.
<mgrwt>
<rscale>  0 0.34127724E+03</rscale>
<asrwt>0</asrwt>
<pdfrwt beam="1">  1        2 0.36810584E+00 0.34127724E+03</pdfrwt>
<pdfrwt beam="2">  1       -2 0.10893866E-01 0.34127724E+03</pdfrwt>
<totfact> 0.26181910E+02</totfact>
</mgrwt>
</event>
<event>
 4    1  0.5410820E-008  0.1068810E+04  0.7818608E-02  0.9236136E-01
         -2   -1    0    0    0  501 -0.00000000000E+00  0.00000000000E+00  0.74778752120E+03  0.74778752121E+03  0.25500000000E-02 0.  1.
          2   -1    0    0  501    0  0.00000000000E+00 -0.00000000000E+00 -0.16538893302E+04  0.16538893302E+04  0.25500000000E-02 0. -1.
    8880022    1    1    2    0    0  0.40714343915E+03  0.97631847532E+03 -0.12128310317E+03  0.10756694610E+04  0.15294330000E+03 0.  0.
    8880022    1    1    2    0    0 -0.40714343915E+03 -0.97631847532E+03 -0.78481870586E+03  0.13260073904E+04  0.15294330000E+03 0.  0.
<mgrwt>
<rscale>  0 0.10688102E+04</rscale>
<asrwt>0</asrwt>
<pdfrwt beam="1">  1        2 0.25444451E+00 0.10688102E+04</pdfrwt>
<pdfrwt beam="2">  1       -2 0.11504423E+00 0.10688102E+04</pdfrwt>
<totfact> 0.60570663E+00</totfact>
</mgrwt>
</event>
<event>
 4    1  0.5410820E-008  0.5595782E+03  0.7818608E-02  0.9993009E-01
          2   -1    0    0  501    0  0.00000000000E+00  0.00000000000E+00  0.79408431716E+03  0.79408431716E+03  0.25500000000E-02 0. -1.
         -2   -1    0    0    0  501 -0.00000000000E+00 -0.00000000000E+00 -0.55149618613E+03  0.55149618613E+03  0.25500000000E-02 0.  1.
    8880022    1    1    2    0    0 -0.43490063425E+02 -0.53651167242E+03  0.48045906063E+03  0.73754235283E+03  0.15294330000E+03 0.  0.
    8880022    1    1    2    0    0  0.43490063425E+02  0.53651167242E+03 -0.23787092960E+03  0.60803815046E+03  0.15294330000E+03 0.  0.
<mgrwt>
<rscale>  0 0.55957825E+03</rscale>
<asrwt>0</asrwt>
<pdfrwt beam="1">  1        2 0.12216682E+00 0.55957825E+03</pdfrwt>
<pdfrwt beam="2">  1       -2 0.84845568E-01 0.55957825E+03</pdfrwt>
<totfact> 0.43444427E+01</totfact>
</mgrwt>
</event>
<event>
 4    1  0.5410820E-008  0.3082010E+03  0.7818608E-02  0.1081211E+00
          2   -1    0    0  501    0  0.00000000000E+00  0.00000000000E+00  0.57815877146E+03  0.57815877147E+03  0.25500000000E-02 0. -1.
         -2   -1    0    0    0  501 -0.00000000000E+00 -0.00000000000E+00 -0.37626982060E+03  0.37626982061E+03  0.25500000000E-02 0.  1.
    8880022    1    1    2    0    0 -0.10342560649E+03  0.24677796958E+03  0.45912928706E+03  0.55298063040E+03  0.15294330000E+03 0.  0.
    8880022    1    1    2    0    0  0.10342560649E+03 -0.24677796958E+03 -0.25724033620E+03  0.40144796168E+03  0.15294330000E+03 0.  0.
<mgrwt>
<rscale>  0 0.30820103E+03</rscale>
<asrwt>0</asrwt>
<pdfrwt beam="1">  1        2 0.88947503E-01 0.30820103E+03</pdfrwt>
<pdfrwt beam="2">  1       -2 0.57887665E-01 0.30820103E+03</pdfrwt>
<totfact> 0.15106305E+02</totfact>
</mgrwt>
</event>
<event>
 4    1  0.5410820E-008  0.9565570E+03  0.7818608E-02  0.9357519E-01
         -2   -1    0    0    0  501 -0.00000000000E+00  0.00000000000E+00  0.83045928947E+03  0.83045928948E+03  0.25500000000E-02 0.  1.
          2   -1    0    0  501    0  0.00000000000E+00 -0.00000000000E+00 -0.23125069696E+04  0.23125069696E+04  0.25500000000E-02 0. -1.
    8880022    1    1    2    0    0 -0.56963079742E+03 -0.75308059697E+03 -0.18780944951E+04  0.21076622633E+04  0.15294330000E+03 0.  0.
    8880022    1    1    2    0    0  0.56963079742E+03  0.75308059697E+03  0.39604681496E+03  0.10353039957E+04  0.15294330000E+03 0.  0.
<mgrwt>
<rscale>  0 0.95655699E+03</rscale>
<asrwt>0</asrwt>
<pdfrwt beam="1">  1        2 0.35577030E+00 0.95655699E+03</pdfrwt>
<pdfrwt beam="2">  1       -2 0.12776297E+00 0.95655699E+03</pdfrwt>
<totfact> 0.20434982E+00</totfact>
</mgrwt>
</event>
<event>
 4    1  0.5410820E-008  0.4346406E+03  0.7818608E-02  0.1032404E+00
         -2   -1    0    0    0  501 -0.00000000000E+00  0.00000000000E+00  0.90246125705E+03  0.90246125705E+03  0.25500000000E-02 0.  1.
          2   -1    0    0  501    0  0.00000000000E+00 -0.00000000000E+00 -0.78002488251E+03  0.78002488252E+03  0.25500000000E-02 0. -1.
    8880022    1    1    2    0    0  0.34505988634E+03 -0.21553296923E+03  0.78078175386E+03  0.89360650522E+03  0.15294330000E+03 0.  0.
    8880022    1    1    2    0    0 -0.34505988634E+03  0.21553296923E+03 -0.65834537933E+03  0.78887963435E+03  0.15294330000E+03 0.  0.
<mgrwt>
<rscale>  0 0.43464059E+03</rscale>
<asrwt>0</asrwt>
<pdfrwt beam="1">  1        2 0.12000383E+00 0.43464059E+03</pdfrwt>
<pdfrwt beam="2">  1       -2 0.13884019E+00 0.43464059E+03</pdfrwt>
<totfact> 0.13861684E+01</totfact>
</mgrwt>
</event>
<event>
 4    1  0.5410820E-008  0.8669281E+03  0.7818608E-02  0.9467894E-01
         -2   -1    0    0    0  501 -0.00000000000E+00  0.00000000000E+00  0.13236016195E+04  0.13236016195E+04  0.25500000000E-02 0.  1.
          2   -1    0    0  501    0  0.00000000000E+00 -0.00000000000E+00 -0.16464843953E+04  0.16464843953E+04  0.25500000000E-02 0. -1.
    8880022    1    1    2    0    0  0.26376636380E+03  0.81154172353E+03 -0.13634397430E+04  0.16157141608E+04  0.15294330000E+03 0.  0.
    8880022    1    1    2    0    0 -0.26376636380E+03 -0.81154172353E+03  0.10405569673E+04  0.13543718540E+04  0.15294330000E+03 0.  1.
<mgrwt>
<rscale>  0 0.86692809E+03</rscale>
<asrwt>0</asrwt>
<pdfrwt beam="1">  1        2 0.25330529E+00 0.86692809E+03</pdfrwt>
<pdfrwt beam="2">  1       -2 0.20363102E+00 0.86692809E+03</pdfrwt>
<totfact> 0.13424877E+00</totfact>
</mgrwt>
</event>
<event>
 4    1  0.5410820E-008  0.7212042E+03  0.7818608E-02  0.9681642E-01
          2   -1    0    0  501    0  0.00000000000E+00  0.00000000000E+00  0.70070871163E+03  0.70070871163E+03  0.25500000000E-02 0. -1.
         -2   -1    0    0    0  501 -0.00000000000E+00 -0.00000000000E+00 -0.82809456807E+03  0.82809456808E+03  0.25500000000E-02 0.  1.
    8880022    1    1    2    0    0 -0.48876540792E+03 -0.50779149942E+03  0.18235158194E+03  0.74390025091E+03  0.15294330000E+03 0.  0.
    8880022    1    1    2    0    0  0.48876540792E+03  0.50779149942E+03 -0.30973743839E+03  0.78490302880E+03  0.15294330000E+03 0.  0.
<mgrwt>
<rscale>  0 0.72120419E+03</rscale>
<asrwt>0</asrwt>
<pdfrwt beam="1">  1        2 0.10780134E+00 0.72120419E+03</pdfrwt>
<pdfrwt beam="2">  1       -2 0.12739916E+00 0.72120419E+03</pdfrwt>
<totfact> 0.19018809E+01</totfact>
</mgrwt>
</event>
<event>
 4    1  0.5410820E-008  0.2977616E+03  0.7818608E-02  0.1086365E+00
          2   -1    0    0  501    0  0.00000000000E+00  0.00000000000E+00  0.32833889966E+04  0.32833889966E+04  0.25500000000E-02 0. -1.
         -2   -1    0    0    0  501 -0.00000000000E+00 -0.00000000000E+00 -0.27225478979E+02  0.27225479098E+02  0.25500000000E-02 0.  1.
    8880022    1    1    2    0    0 -0.24733768390E+03  0.63987629856E+02  0.17776512812E+04  0.18024167324E+04  0.15294330000E+03 0. -1.
    8880022    1    1    2    0    0  0.24733768390E+03 -0.63987629856E+02  0.14785122364E+04  0.15081977433E+04  0.15294330000E+03 0.  1.
<mgrwt>
<rscale>  0 0.29776165E+03</rscale>
<asrwt>0</asrwt>
<pdfrwt beam="1">  1        2 0.50513687E+00 0.29776165E+03</pdfrwt>
<pdfrwt beam="2">  1       -2 0.41885344E-02 0.29776165E+03</pdfrwt>
<totfact> 0.35613910E+02</totfact>
</mgrwt>
</event>
<event>
 4    1  0.5410820E-008  0.7591302E+03  0.7818608E-02  0.9621134E-01
          2   -1    0    0  501    0  0.00000000000E+00  0.00000000000E+00  0.25115713061E+04  0.25115713061E+04  0.25500000000E-02 0. -1.
         -2   -1    0    0    0  501 -0.00000000000E+00 -0.00000000000E+00 -0.31026658259E+03  0.31026658260E+03  0.25500000000E-02 0.  1.
    8880022    1    1    2    0    0 -0.29823612752E+02 -0.74296540276E+03  0.38056324999E+03  0.84918023872E+03  0.15294330000E+03 0.  0.
    8880022    1    1    2    0    0  0.29823612752E+02  0.74296540276E+03  0.18207414735E+04  0.19726576500E+04  0.15294330000E+03 0.  0.
<mgrwt>
<rscale>  0 0.75913022E+03</rscale>
<asrwt>0</asrwt>
<pdfrwt beam="1">  1        2 0.38639559E+00 0.75913022E+03</pdfrwt>
<pdfrwt beam="2">  1       -2 0.47733320E-01 0.75913022E+03</pdfrwt>
<totfact> 0.14909830E+01</totfact>
</mgrwt>
</event>
<event>
 4    1  0.5410820E-008  0.6643319E+03  0.7818608E-02  0.9780252E-01
         -2   -1    0    0    0  501 -0.00000000000E+00  0.00000000000E+00  0.27724947046E+03  0.27724947047E+03  0.25500000000E-02 0.  1.
          2   -1    0    0  501    0  0.00000000000E+00 -0.00000000000E+00 -0.42885716714E+04  0.42885716714E+04  0.25500000000E-02 0. -1.
    8880022    1    1    2    0    0 -0.62299699781E+03  0.17268452032E+03 -0.38159646945E+04  0.38733607378E+04  0.15294330000E+03 0.  0.
    8880022    1    1    2    0    0  0.62299699781E+03 -0.17268452032E+03 -0.19535750649E+03  0.69246040407E+03  0.15294330000E+03 0.  0.
<mgrwt>
<rscale>  0 0.66433189E+03</rscale>
<asrwt>0</asrwt>
<pdfrwt beam="1">  1        2 0.65978021E+00 0.66433189E+03</pdfrwt>
<pdfrwt beam="2">  1       -2 0.42653768E-01 0.66433189E+03</pdfrwt>
<totfact> 0.11672904E+00</totfact>
</mgrwt>
</event>
<event>
 4    1  0.5410820E-008  0.7012950E+03  0.7818608E-02  0.9715020E-01
         -2   -1    0    0    0  501 -0.00000000000E+00  0.00000000000E+00  0.14613084594E+04  0.14613084594E+04  0.25500000000E-02 0.  1.
          2   -1    0    0  501    0  0.00000000000E+00 -0.00000000000E+00 -0.65203614239E+03  0.65203614240E+03  0.25500000000E-02 0. -1.
    8880022    1    1    2    0    0 -0.67712223970E+03 -0.99642100272E+02  0.11396394408E+04  0.13381303313E+04  0.15294330000E+03 0.  0.
    8880022    1    1    2    0    0  0.67712223970E+03  0.99642100272E+02 -0.33036712376E+03  0.77521427046E+03  0.15294330000E+03 0.  0.
<mgrwt>
<rscale>  0 0.70129504E+03</rscale>
<asrwt>0</asrwt>
<pdfrwt beam="1">  1        2 0.10031325E+00 0.70129504E+03</pdfrwt>
<pdfrwt beam="2">  1       -2 0.22481669E+00 0.70129504E+03</pdfrwt>
<totfact> 0.42590854E+00</totfact>
</mgrwt>
</event>
<event>
 4    1  0.5410820E-008  0.4481542E+03  0.7818608E-02  0.1028274E+00
         -2   -1    0    0    0  501 -0.00000000000E+00  0.00000000000E+00  0.57830884362E+03  0.57830884363E+03  0.25500000000E-02 0.  1.
          2   -1    0    0  501    0  0.00000000000E+00 -0.00000000000E+00 -0.14204119539E+04  0.14204119539E+04  0.25500000000E-02 0. -1.
    8880022    1    1    2    0    0 -0.31954449348E+02 -0.42003509434E+03  0.44758688984E+03  0.63338475217E+03  0.15294330000E+03 0.  1.
    8880022    1    1    2    0    0  0.31954449348E+02  0.42003509434E+03 -0.12896900001E+04  0.13653360453E+04  0.15294330000E+03 0.  0.
<mgrwt>
<rscale>  0 0.44815424E+03</rscale>
<asrwt>0</asrwt>
<pdfrwt beam="1">  1        2 0.21852492E+00 0.44815424E+03</pdfrwt>
<pdfrwt beam="2">  1       -2 0.88970591E-01 0.44815424E+03</pdfrwt>
<totfact> 0.16412020E+01</totfact>
</mgrwt>
</event>
<event>
 4    1  0.5410820E-008  0.1251462E+04  0.7818608E-02  0.9068967E-01
          2   -1    0    0  501    0  0.00000000000E+00  0.00000000000E+00  0.41347349881E+04  0.41347349881E+04  0.25500000000E-02 0. -1.
         -2   -1    0    0    0  501 -0.00000000000E+00 -0.00000000000E+00 -0.57435710037E+03  0.57435710037E+03  0.25500000000E-02 0.  1.
    8880022    1    1    2    0    0 -0.34931753588E+03 -0.11919495798E+04  0.31541496494E+04  0.33933491135E+04  0.15294330000E+03 0.  0.
    8880022    1    1    2    0    0  0.34931753588E+03  0.11919495798E+04  0.40622823834E+03  0.13157429751E+04  0.15294330000E+03 0.  0.
<mgrwt>
<rscale>  0 0.12514624E+04</rscale>
<asrwt>0</asrwt>
<pdfrwt beam="1">  1        2 0.63611306E+00 0.12514624E+04</pdfrwt>
<pdfrwt beam="2">  1       -2 0.88362633E-01 0.12514624E+04</pdfrwt>
<totfact> 0.29478866E-01</totfact>
</mgrwt>
</event>
<event>
 4    1  0.6217610E-008  0.7384991E+03  0.7818608E-02  0.9653568E-01
          2   -1    0    0  501    0  0.00000000000E+00  0.00000000000E+00  0.27472531938E+04  0.27472531938E+04  0.25500000000E-02 0. -1.
         -2   -1    0    0    0  501 -0.00000000000E+00 -0.00000000000E+00 -0.92653898301E+03  0.92653898302E+03  0.25500000000E-02 0.  1.
    8880022    1    1    2    0    0 -0.34402756025E+03  0.63532222683E+03  0.25386199051E+04  0.26438555123E+04  0.15294330000E+03 0.  0.
    8880022    1    1    2    0    0  0.34402756025E+03 -0.63532222683E+03 -0.71790569430E+03  0.10299366646E+04  0.15294330000E+03 0.  1.
<mgrwt>
<rscale>  0 0.73849912E+03</rscale>
<asrwt>0</asrwt>
<pdfrwt beam="1">  1        2 0.42265433E+00 0.73849912E+03</pdfrwt>
<pdfrwt beam="2">  1       -2 0.14254446E+00 0.73849912E+03</pdfrwt>
<totfact> 0.90620911E-01</totfact>
</mgrwt>
</event>
<event>
 4    1  0.5410820E-008  0.3696296E+03  0.7818608E-02  0.1054835E+00
         -2   -1    0    0    0  501 -0.00000000000E+00  0.00000000000E+00  0.48086468959E+03  0.48086468960E+03  0.25500000000E-02 0.  1.
          2   -1    0    0  501    0  0.00000000000E+00 -0.00000000000E+00 -0.13548021699E+04  0.13548021699E+04  0.25500000000E-02 0. -1.
    8880022    1    1    2    0    0  0.30047934209E+03 -0.15148128240E+03 -0.12529027538E+04  0.13062891630E+04  0.15294330000E+03 0.  0.
    8880022    1    1    2    0    0 -0.30047934209E+03  0.15148128240E+03  0.37896527352E+03  0.52937769644E+03  0.15294330000E+03 0.  0.
<mgrwt>
<rscale>  0 0.36962963E+03</rscale>
<asrwt>0</asrwt>
<pdfrwt beam="1">  1        2 0.20843110E+00 0.36962963E+03</pdfrwt>
<pdfrwt beam="2">  1       -2 0.73979184E-01 0.36962963E+03</pdfrwt>
<totfact> 0.27425014E+01</totfact>
</mgrwt>
</event>
<event>
 4    1  0.5410820E-008  0.2135169E+03  0.7818608E-02  0.1138811E+00
          2   -1    0    0  501    0  0.00000000000E+00  0.00000000000E+00  0.10012415532E+04  0.10012415532E+04  0.25500000000E-02 0. -1.
         -2   -1    0    0    0  501 -0.00000000000E+00 -0.00000000000E+00 -0.25194508674E+03  0.25194508675E+03  0.25500000000E-02 0.  1.
    8880022    1    1    2    0    0  0.43726765425E+02  0.14242812844E+03  0.94180152465E+03  0.96570159295E+03  0.15294330000E+03 0. -1.
    8880022    1    1    2    0    0 -0.43726765425E+02 -0.14242812844E+03 -0.19250505821E+03  0.28748504698E+03  0.15294330000E+03 0.  0.
<mgrwt>
<rscale>  0 0.21351687E+03</rscale>
<asrwt>0</asrwt>
<pdfrwt beam="1">  1        2 0.15403716E+00 0.21351687E+03</pdfrwt>
<pdfrwt beam="2">  1       -2 0.38760782E-01 0.21351687E+03</pdfrwt>
<totfact> 0.16945150E+02</totfact>
</mgrwt>
</event>
<event>
 4    1  0.5410820E-008  0.1040009E+04  0.7818608E-02  0.9265721E-01
         -2   -1    0    0    0  501 -0.00000000000E+00  0.00000000000E+00  0.14132822581E+04  0.14132822581E+04  0.25500000000E-02 0.  1.
          2   -1    0    0  501    0  0.00000000000E+00 -0.00000000000E+00 -0.86792439464E+03  0.86792439465E+03  0.25500000000E-02 0. -1.
    8880022    1    1    2    0    0  0.29583512220E+03  0.98524513280E+03  0.66484442722E+03  0.12343565760E+04  0.15294330000E+03 0.  0.
    8880022    1    1    2    0    0 -0.29583512220E+03 -0.98524513280E+03 -0.11948656379E+03  0.10468500767E+04  0.15294330000E+03 0.  0.
<mgrwt>
<rscale>  0 0.10400087E+04</rscale>
<asrwt>0</asrwt>
<pdfrwt beam="1">  1        2 0.13352683E+00 0.10400087E+04</pdfrwt>
<pdfrwt beam="2">  1       -2 0.21742804E+00 0.10400087E+04</pdfrwt>
<totfact> 0.31319169E+00</totfact>
</mgrwt>
</event>
<event>
 4    1  0.5410820E-008  0.1615844E+03  0.7818608E-02  0.1186920E+00
          2   -1    0    0  501    0  0.00000000000E+00  0.00000000000E+00  0.16604186850E+04  0.16604186850E+04  0.25500000000E-02 0. -1.
         -2   -1    0    0    0  501 -0.00000000000E+00 -0.00000000000E+00 -0.36949046882E+03  0.36949046883E+03  0.25500000000E-02 0.  1.
    8880022    1    1    2    0    0 -0.46986415587E+02 -0.22586299670E+02 -0.34765860685E+03  0.38337452200E+03  0.15294330000E+03 0.  0.
    8880022    1    1    2    0    0  0.46986415587E+02  0.22586299670E+02  0.16385868230E+04  0.16465346318E+04  0.15294330000E+03 0. -1.
<mgrwt>
<rscale>  0 0.16158440E+03</rscale>
<asrwt>0</asrwt>
<pdfrwt beam="1">  1        2 0.25544902E+00 0.16158440E+03</pdfrwt>
<pdfrwt beam="2">  1       -2 0.56844689E-01 0.16158440E+03</pdfrwt>
<totfact> 0.35340370E+01</totfact>
</mgrwt>
</event>
<event>
 4    1  0.5410820E-008  0.5092853E+03  0.7818608E-02  0.1011383E+00
         -2   -1    0    0    0  501 -0.00000000000E+00  0.00000000000E+00  0.18736749846E+03  0.18736749848E+03  0.25500000000E-02 0.  1.
          2   -1    0    0  501    0  0.00000000000E+00 -0.00000000000E+00 -0.34945256660E+04  0.34945256660E+04  0.25500000000E-02 0. -1.
    8880022    1    1    2    0    0 -0.29268599521E+03 -0.38770450892E+03 -0.30841593584E+04  0.31259255396E+04  0.15294330000E+03 0.  0.
    8880022    1    1    2    0    0  0.29268599521E+03  0.38770450892E+03 -0.22299880913E+03  0.55596762488E+03  0.15294330000E+03 0.  0.
<mgrwt>
<rscale>  0 0.50928531E+03</rscale>
<asrwt>0</asrwt>
<pdfrwt beam="1">  1        2 0.53761929E+00 0.50928531E+03</pdfrwt>
<pdfrwt beam="2">  1       -2 0.28825772E-01 0.50928531E+03</pdfrwt>
<totfact> 0.10345373E+01</totfact>
</mgrwt>
</event>
<event>
 4    1  0.5410820E-008  0.2629554E+03  0.7818608E-02  0.1105380E+00
          2   -1    0    0  501    0  0.00000000000E+00  0.00000000000E+00  0.34188558028E+03  0.34188558029E+03  0.25500000000E-02 0. -1.
         -2   -1    0    0    0  501 -0.00000000000E+00 -0.00000000000E+00 -0.30000315311E+03  0.30000315313E+03  0.25500000000E-02 0.  1.
    8880022    1    1    2    0    0  0.12335038753E+03 -0.17475283666E+03 -0.16226392516E+03  0.30899046336E+03  0.15294330000E+03 0.  0.
    8880022    1    1    2    0    0 -0.12335038753E+03  0.17475283666E+03  0.20414635233E+03  0.33289827006E+03  0.15294330000E+03 0.  0.
<mgrwt>
<rscale>  0 0.26295537E+03</rscale>
<asrwt>0</asrwt>
<pdfrwt beam="1">  1        2 0.52597782E-01 0.26295537E+03</pdfrwt>
<pdfrwt beam="2">  1       -2 0.46154331E-01 0.26295537E+03</pdfrwt>
<totfact> 0.42954188E+02</totfact>
</mgrwt>
</event>
<event>
 4    1  0.5410820E-008  0.5795900E+03  0.7818608E-02  0.9948679E-01
         -2   -1    0    0    0  501 -0.00000000000E+00  0.00000000000E+00  0.26297983320E+03  0.26297983321E+03  0.25500000000E-02 0.  1.
          2   -1    0    0  501    0  0.00000000000E+00 -0.00000000000E+00 -0.14804059043E+04  0.14804059043E+04  0.25500000000E-02 0. -1.
    8880022    1    1    2    0    0  0.29080443640E+03  0.47745758620E+03 -0.28589997969E+03  0.64626884363E+03  0.15294330000E+03 0.  0.
    8880022    1    1    2    0    0 -0.29080443640E+03 -0.47745758620E+03 -0.93152609143E+03  0.10971168939E+04  0.15294330000E+03 0.  0.
<mgrwt>
<rscale>  0 0.57959004E+03</rscale>
<asrwt>0</asrwt>
<pdfrwt beam="1">  1        2 0.22775475E+00 0.57959004E+03</pdfrwt>
<pdfrwt beam="2">  1       -2 0.40458437E-01 0.57959004E+03</pdfrwt>
<totfact> 0.78206303E+01</totfact>
</mgrwt>
</event>
<event>
 4    1  0.5410820E-008  0.4001597E+03  0.7818608E-02  0.1043724E+00
          2   -1    0    0  501    0  0.00000000000E+00  0.00000000000E+00  0.89999102589E+03  0.89999102590E+03  0.25500000000E-02 0. -1.
         -2   -1    0    0    0  501 -0.00000000000E+00 -0.00000000000E+00 -0.33087417591E+03  0.33087417592E+03  0.25500000000E-02 0.  1.
    8880022    1    1    2    0    0  0.36319732211E+03  0.69453880794E+02 -0.13387613246E+03  0.42196043441E+03  0.15294330000E+03 0.  0.
    8880022    1    1    2    0    0 -0.36319732211E+03 -0.69453880794E+02  0.70299298244E+03  0.80890476740E+03  0.15294330000E+03 0.  0.
<mgrwt>
<rscale>  0 0.40015970E+03</rscale>
<asrwt>0</asrwt>
<pdfrwt beam="1">  1        2 0.13846016E+00 0.40015970E+03</pdfrwt>
<pdfrwt beam="2">  1       -2 0.50903720E-01 0.40015970E+03</pdfrwt>
<totfact> 0.11180045E+02</totfact>
</mgrwt>
</event>
<event>
 4    1  0.5410820E-008  0.1100371E+04  0.7818608E-02  0.9204831E-01
          2   -1    0    0  501    0  0.00000000000E+00  0.00000000000E+00  0.78827815288E+03  0.78827815289E+03  0.25500000000E-02 0. -1.
         -2   -1    0    0    0  501 -0.00000000000E+00 -0.00000000000E+00 -0.17007639005E+04  0.17007639005E+04  0.25500000000E-02 0.  1.
    8880022    1    1    2    0    0 -0.88452551797E+03 -0.63642634863E+03 -0.84356946608E+03  0.13865154115E+04  0.15294330000E+03 0.  0.
    8880022    1    1    2    0    0  0.88452551797E+03  0.63642634863E+03 -0.68916281506E+02  0.11025266419E+04  0.15294330000E+03 0.  0.
<mgrwt>
<rscale>  0 0.11003706E+04</rscale>
<asrwt>0</asrwt>
<pdfrwt beam="1">  1        2 0.12127356E+00 0.11003706E+04</pdfrwt>
<pdfrwt beam="2">  1       -2 0.26165598E+00 0.11003706E+04</pdfrwt>
<totfact> 0.18912138E+00</totfact>
</mgrwt>
</event>
<event>
 4    1  0.5410820E-008  0.5602283E+03  0.7818608E-02  0.9991538E-01
          2   -1    0    0  501    0  0.00000000000E+00  0.00000000000E+00  0.31200345202E+03  0.31200345203E+03  0.25500000000E-02 0. -1.
         -2   -1    0    0    0  501 -0.00000000000E+00 -0.00000000000E+00 -0.14092835260E+04  0.14092835260E+04  0.25500000000E-02 0.  1.
    8880022    1    1    2    0    0 -0.22861346992E+03  0.48805729909E+03 -0.10090698784E+04  0.11541567131E+04  0.15294330000E+03 0.  0.
    8880022    1    1    2    0    0  0.22861346992E+03 -0.48805729909E+03 -0.88210195597E+02  0.56713026497E+03  0.15294330000E+03 0.  0.
<mgrwt>
<rscale>  0 0.56022826E+03</rscale>
<asrwt>0</asrwt>
<pdfrwt beam="1">  1        2 0.48000532E-01 0.56022826E+03</pdfrwt>
<pdfrwt beam="2">  1       -2 0.21681285E+00 0.56022826E+03</pdfrwt>
<totfact> 0.11349830E+01</totfact>
</mgrwt>
</event>
<event>
 4    1  0.5410820E-008  0.4189857E+03  0.7818608E-02  0.1037397E+00
          2   -1    0    0  501    0  0.00000000000E+00  0.00000000000E+00  0.19750953345E+04  0.19750953345E+04  0.25500000000E-02 0. -1.
         -2   -1    0    0    0  501 -0.00000000000E+00 -0.00000000000E+00 -0.20024057371E+03  0.20024057373E+03  0.25500000000E-02 0.  1.
    8880022    1    1    2    0    0 -0.14248420249E+03  0.36311929667E+03  0.16985443804E+04  0.17494576407E+04  0.15294330000E+03 0.  0.
    8880022    1    1    2    0    0  0.14248420249E+03 -0.36311929667E+03  0.76310380437E+02  0.42587826752E+03  0.15294330000E+03 0.  0.
<mgrwt>
<rscale>  0 0.41898571E+03</rscale>
<asrwt>0</asrwt>
<pdfrwt beam="1">  1        2 0.30386082E+00 0.41898571E+03</pdfrwt>
<pdfrwt beam="2">  1       -2 0.30806242E-01 0.41898571E+03</pdfrwt>
<totfact> 0.72644989E+01</totfact>
</mgrwt>
</event>
<event>
 4    1  0.5410820E-008  0.3986238E+03  0.7818608E-02  0.1044257E+00
          2   -1    0    0  501    0  0.00000000000E+00  0.00000000000E+00  0.16773086851E+04  0.16773086851E+04  0.25500000000E-02 0. -1.
         -2   -1    0    0    0  501 -0.00000000000E+00 -0.00000000000E+00 -0.12568662638E+03  0.12568662641E+03  0.25500000000E-02 0.  1.
    8880022    1    1    2    0    0 -0.20996877695E+03  0.30236134670E+03  0.32845091386E+03  0.51650839984E+03  0.15294330000E+03 0.  0.
    8880022    1    1    2    0    0  0.20996877695E+03 -0.30236134670E+03  0.12231711448E+04  0.12864869117E+04  0.15294330000E+03 0. -1.
<mgrwt>
<rscale>  0 0.39862379E+03</rscale>
<asrwt>0</asrwt>
<pdfrwt beam="1">  1        2 0.25804748E+00 0.39862379E+03</pdfrwt>
<pdfrwt beam="2">  1       -2 0.19336405E-01 0.39862379E+03</pdfrwt>
<totfact> 0.24102568E+02</totfact>
</mgrwt>
</event>
<event>
 4    1  0.5410820E-008  0.2052616E+03  0.7818608E-02  0.1145374E+00
          2   -1    0    0  501    0  0.00000000000E+00  0.00000000000E+00  0.46707159097E+03  0.46707159097E+03  0.25500000000E-02 0. -1.
         -2   -1    0    0    0  501 -0.00000000000E+00 -0.00000000000E+00 -0.28029991787E+03  0.28029991788E+03  0.25500000000E-02 0.  1.
    8880022    1    1    2    0    0  0.13428923231E+03 -0.26590765123E+02  0.40112303780E+03  0.45059073578E+03  0.15294330000E+03 0.  0.
    8880022    1    1    2    0    0 -0.13428923231E+03  0.26590765123E+02 -0.21435136470E+03  0.29678077307E+03  0.15294330000E+03 0.  0.
<mgrwt>
<rscale>  0 0.20526159E+03</rscale>
<asrwt>0</asrwt>
<pdfrwt beam="1">  1        2 0.71857167E-01 0.20526159E+03</pdfrwt>
<pdfrwt beam="2">  1       -2 0.43123065E-01 0.20526159E+03</pdfrwt>
<totfact> 0.34974541E+02</totfact>
</mgrwt>
</event>
<event>
 4    1  0.5410820E-008  0.9950040E+03  0.7818608E-02  0.9314041E-01
         -2   -1    0    0    0  501 -0.00000000000E+00  0.00000000000E+00  0.11633096622E+04  0.11633096622E+04  0.25500000000E-02 0.  1.
          2   -1    0    0  501    0  0.00000000000E+00 -0.00000000000E+00 -0.13833597597E+04  0.13833597597E+04  0.25500000000E-02 0. -1.
    8880022    1    1    2    0    0  0.93698958601E+03 -0.29781165852E+03  0.67984899539E+03  0.12050840542E+04  0.15294330000E+03 0.  0.
    8880022    1    1    2    0    0 -0.93698958601E+03  0.29781165852E+03 -0.89989909291E+03  0.13415853676E+04  0.15294330000E+03 0.  0.
<mgrwt>
<rscale>  0 0.99500398E+03</rscale>
<asrwt>0</asrwt>
<pdfrwt beam="1">  1        2 0.21282458E+00 0.99500398E+03</pdfrwt>
<pdfrwt beam="2">  1       -2 0.17897072E+00 0.99500398E+03</pdfrwt>
<totfact> 0.27066569E+00</totfact>
</mgrwt>
</event>
<event>
 4    1  0.5410820E-008  0.9014275E+03  0.7818608E-02  0.9423799E-01
          2   -1    0    0  501    0  0.00000000000E+00  0.00000000000E+00  0.13102793708E+04  0.13102793708E+04  0.25500000000E-02 0. -1.
         -2   -1    0    0    0  501 -0.00000000000E+00 -0.00000000000E+00 -0.10534892222E+04  0.10534892222E+04  0.25500000000E-02 0.  1.
    8880022    1    1    2    0    0 -0.85994517705E+03  0.22287699640E+03 -0.62961196522E+03  0.10995375131E+04  0.15294330000E+03 0.  0.
    8880022    1    1    2    0    0  0.85994517705E+03 -0.22287699640E+03  0.88640211381E+03  0.12642310799E+04  0.15294330000E+03 0.  0.
<mgrwt>
<rscale>  0 0.90142749E+03</rscale>
<asrwt>0</asrwt>
<pdfrwt beam="1">  1        2 0.20158144E+00 0.90142749E+03</pdfrwt>
<pdfrwt beam="2">  1       -2 0.16207527E+00 0.90142749E+03</pdfrwt>
<totfact> 0.39773736E+00</totfact>
</mgrwt>
</event>
<event>
 4    1  0.5410820E-008  0.2337183E+03  0.7818608E-02  0.1124050E+00
         -2   -1    0    0    0  501 -0.00000000000E+00  0.00000000000E+00  0.95714937433E+03  0.95714937433E+03  0.25500000000E-02 0.  1.
          2   -1    0    0  501    0  0.00000000000E+00 -0.00000000000E+00 -0.18427293862E+03  0.18427293864E+03  0.25500000000E-02 0. -1.
    8880022    1    1    2    0    0 -0.15286527325E+03 -0.88683761194E+02 -0.87732377237E+02  0.24964219254E+03  0.15294330000E+03 0.  0.
    8880022    1    1    2    0    0  0.15286527325E+03  0.88683761194E+02  0.86060881294E+03  0.89178012043E+03  0.15294330000E+03 0.  1.
<mgrwt>
<rscale>  0 0.23371832E+03</rscale>
<asrwt>0</asrwt>
<pdfrwt beam="1">  1        2 0.28349682E-01 0.23371832E+03</pdfrwt>
<pdfrwt beam="2">  1       -2 0.14725375E+00 0.23371832E+03</pdfrwt>
<totfact> 0.62816599E+01</totfact>
</mgrwt>
</event>
<event>
 4    1  0.5410820E-008  0.6788153E+03  0.7818608E-02  0.9754163E-01
         -2   -1    0    0    0  501 -0.00000000000E+00  0.00000000000E+00  0.11689933143E+04  0.11689933143E+04  0.25500000000E-02 0.  1.
          2   -1    0    0  501    0  0.00000000000E+00 -0.00000000000E+00 -0.18639686529E+04  0.18639686529E+04  0.25500000000E-02 0. -1.
    8880022    1    1    2    0    0  0.63756070710E+03 -0.17582642596E+03 -0.16941092173E+04  0.18250469255E+04  0.15294330000E+03 0.  0.
    8880022    1    1    2    0    0 -0.63756070710E+03  0.17582642596E+03  0.99913387865E+03  0.12079150416E+04  0.15294330000E+03 0.  1.
<mgrwt>
<rscale>  0 0.67881532E+03</rscale>
<asrwt>0</asrwt>
<pdfrwt beam="1">  1        2 0.28676441E+00 0.67881532E+03</pdfrwt>
<pdfrwt beam="2">  1       -2 0.17984513E+00 0.67881532E+03</pdfrwt>
<totfact> 0.15212130E+00</totfact>
</mgrwt>
</event>
<event>
 4    1  0.5410820E-008  0.7708868E+03  0.7818608E-02  0.9603140E-01
         -2   -1    0    0    0  501 -0.00000000000E+00  0.00000000000E+00  0.61601009686E+03  0.61601009686E+03  0.25500000000E-02 0.  1.
          2   -1    0    0  501    0  0.00000000000E+00 -0.00000000000E+00 -0.10085763912E+04  0.10085763912E+04  0.25500000000E-02 0. -1.
    8880022    1    1    2    0    0  0.17948484353E+03 -0.73393457061E+03 -0.26864177167E+02  0.77135471738E+03  0.15294330000E+03 0.  0.
    8880022    1    1    2    0    0 -0.17948484353E+03  0.73393457061E+03 -0.36570211717E+03  0.85323177069E+03  0.15294330000E+03 0.  0.
<mgrwt>
<rscale>  0 0.77088677E+03</rscale>
<asrwt>0</asrwt>
<pdfrwt beam="1">  1        2 0.15516560E+00 0.77088677E+03</pdfrwt>
<pdfrwt beam="2">  1       -2 0.94770784E-01 0.77088677E+03</pdfrwt>
<totfact> 0.23645519E+01</totfact>
</mgrwt>
</event>
<event>
 4    1  0.5410820E-008  0.4720949E+03  0.7818608E-02  0.1021331E+00
          2   -1    0    0  501    0  0.00000000000E+00  0.00000000000E+00  0.13869228513E+04  0.13869228513E+04  0.25500000000E-02 0. -1.
         -2   -1    0    0    0  501 -0.00000000000E+00 -0.00000000000E+00 -0.74899839416E+03  0.74899839417E+03  0.25500000000E-02 0.  1.
    8880022    1    1    2    0    0 -0.13864172471E+03 -0.42457089992E+03 -0.62752536307E+03  0.78527811074E+03  0.15294330000E+03 0.  0.
    8880022    1    1    2    0    0  0.13864172471E+03  0.42457089992E+03  0.12654498202E+04  0.13506431347E+04  0.15294330000E+03 0.  0.
<mgrwt>
<rscale>  0 0.47209494E+03</rscale>
<asrwt>0</asrwt>
<pdfrwt beam="1">  1        2 0.21337275E+00 0.47209494E+03</pdfrwt>
<pdfrwt beam="2">  1       -2 0.11523052E+00 0.47209494E+03</pdfrwt>
<totfact> 0.92627889E+00</totfact>
</mgrwt>
</event>
<event>
 4    1  0.5410820E-008  0.1110748E+04  0.7818608E-02  0.9194779E-01
          2   -1    0    0  501    0  0.00000000000E+00  0.00000000000E+00  0.13088870217E+04  0.13088870218E+04  0.25500000000E-02 0. -1.
         -2   -1    0    0    0  501 -0.00000000000E+00 -0.00000000000E+00 -0.20673220409E+04  0.20673220409E+04  0.25500000000E-02 0.  1.
    8880022    1    1    2    0    0  0.96266381456E+02  0.10959480084E+04  0.86591989922E+03  0.14083956043E+04  0.15294330000E+03 0.  0.
    8880022    1    1    2    0    0 -0.96266381456E+02 -0.10959480084E+04 -0.16243549184E+04  0.19678134584E+04  0.15294330000E+03 0.  0.
<mgrwt>
<rscale>  0 0.11107479E+04</rscale>
<asrwt>0</asrwt>
<pdfrwt beam="1">  1        2 0.20136723E+00 0.11107479E+04</pdfrwt>
<pdfrwt beam="2">  1       -2 0.31804954E+00 0.11107479E+04</pdfrwt>
<totfact> 0.39812959E-01</totfact>
</mgrwt>
</event>
<event>
 4    1  0.5410820E-008  0.1364021E+04  0.7818608E-02  0.8980281E-01
          2   -1    0    0  501    0  0.00000000000E+00  0.00000000000E+00  0.20670256216E+04  0.20670256216E+04  0.25500000000E-02 0. -1.
         -2   -1    0    0    0  501 -0.00000000000E+00 -0.00000000000E+00 -0.14535353854E+04  0.14535353854E+04  0.25500000000E-02 0.  1.
    8880022    1    1    2    0    0 -0.56591045434E+03  0.12316281571E+04 -0.77942511067E+03  0.15710053201E+04  0.15294330000E+03 0.  0.
    8880022    1    1    2    0    0  0.56591045434E+03 -0.12316281571E+04  0.13929153469E+04  0.19495556869E+04  0.15294330000E+03 0.  0.
<mgrwt>
<rscale>  0 0.13640213E+04</rscale>
<asrwt>0</asrwt>
<pdfrwt beam="1">  1        2 0.31800394E+00 0.13640213E+04</pdfrwt>
<pdfrwt beam="2">  1       -2 0.22362083E+00 0.13640213E+04</pdfrwt>
<totfact> 0.54743907E-01</totfact>
</mgrwt>
</event>
<event>
 4    1  0.5410820E-008  0.5208101E+03  0.7818608E-02  0.1008486E+00
          2   -1    0    0  501    0  0.00000000000E+00  0.00000000000E+00  0.22621884725E+04  0.22621884725E+04  0.25500000000E-02 0. -1.
         -2   -1    0    0    0  501 -0.00000000000E+00 -0.00000000000E+00 -0.53251289758E+03  0.53251289758E+03  0.25500000000E-02 0.  1.
    8880022    1    1    2    0    0 -0.44712753856E+03  0.21892577301E+03 -0.36517653320E+03  0.63607946300E+03  0.15294330000E+03 0.  0.
    8880022    1    1    2    0    0  0.44712753856E+03 -0.21892577301E+03  0.20948521081E+04  0.21586219071E+04  0.15294330000E+03 0.  0.
<mgrwt>
<rscale>  0 0.52081012E+03</rscale>
<asrwt>0</asrwt>
<pdfrwt beam="1">  1        2 0.34802900E+00 0.52081012E+03</pdfrwt>
<pdfrwt beam="2">  1       -2 0.81925061E-01 0.52081012E+03</pdfrwt>
<totfact> 0.68146957E+00</totfact>
</mgrwt>
</event>
<event>
 4    1  0.5410820E-008  0.2253309E+03  0.7818608E-02  0.1129970E+00
          2   -1    0    0  501    0  0.00000000000E+00  0.00000000000E+00  0.20703580028E+04  0.20703580028E+04  0.25500000000E-02 0. -1.
         -2   -1    0    0    0  501 -0.00000000000E+00 -0.00000000000E+00 -0.10033207382E+03  0.10033207385E+03  0.25500000000E-02 0.  1.
    8880022    1    1    2    0    0  0.15628246014E+03 -0.54388893577E+02  0.41593358691E+02  0.22913755605E+03  0.15294330000E+03 0.  1.
    8880022    1    1    2    0    0 -0.15628246014E+03  0.54388893577E+02  0.19284325703E+04  0.19415525206E+04  0.15294330000E+03 0.  0.
<mgrwt>
<rscale>  0 0.22533089E+03</rscale>
<asrwt>0</asrwt>
<pdfrwt beam="1">  1        2 0.31851658E+00 0.22533089E+03</pdfrwt>
<pdfrwt beam="2">  1       -2 0.15435706E-01 0.22533089E+03</pdfrwt>
<totfact> 0.22640494E+02</totfact>
</mgrwt>
</event>
<event>
 4    1  0.5410820E-008  0.2880679E+03  0.7818608E-02  0.1091362E+00
          2   -1    0    0  501    0  0.00000000000E+00  0.00000000000E+00  0.85397118647E+03  0.85397118648E+03  0.25500000000E-02 0. -1.
         -2   -1    0    0    0  501 -0.00000000000E+00 -0.00000000000E+00 -0.16341942482E+03  0.16341942484E+03  0.25500000000E-02 0.  1.
    8880022    1    1    2    0    0 -0.13485854764E+03  0.20348128846E+03  0.21394152854E+02  0.28886125635E+03  0.15294330000E+03 0.  1.
    8880022    1    1    2    0    0  0.13485854764E+03 -0.20348128846E+03  0.66915760880E+03  0.72852935497E+03  0.15294330000E+03 0.  0.
<mgrwt>
<rscale>  0 0.28806790E+03</rscale>
<asrwt>0</asrwt>
<pdfrwt beam="1">  1        2 0.13138018E+00 0.28806790E+03</pdfrwt>
<pdfrwt beam="2">  1       -2 0.25141450E-01 0.28806790E+03</pdfrwt>
<totfact> 0.46065473E+02</totfact>
</mgrwt>
</event>
<event>
 4    1  0.5410820E-008  0.8667715E+03  0.7818608E-02  0.9468099E-01
          2   -1    0    0  501    0  0.00000000000E+00  0.00000000000E+00  0.33383336472E+04  0.33383336472E+04  0.25500000000E-02 0. -1.
         -2   -1    0    0    0  501 -0.00000000000E+00 -0.00000000000E+00 -0.64931995541E+03  0.64931995541E+03  0.25500000000E-02 0.  1.
    8880022    1    1    2    0    0 -0.34069431988E+03 -0.78219473567E+03  0.29561877389E+04  0.30806393533E+04  0.15294330000E+03 0.  0.
    8880022    1    1    2    0    0  0.34069431988E+03  0.78219473567E+03 -0.26717404711E+03  0.90701424938E+03  0.15294330000E+03 0.  0.
<mgrwt>
<rscale>  0 0.86677153E+03</rscale>
<asrwt>0</asrwt>
<pdfrwt beam="1">  1        2 0.51358981E+00 0.86677153E+03</pdfrwt>
<pdfrwt beam="2">  1       -2 0.99895375E-01 0.86677153E+03</pdfrwt>
<totfact> 0.91659913E-01</totfact>
</mgrwt>
</event>
<event>
 4    1  0.5410820E-008  0.4140770E+03  0.7818608E-02  0.1039011E+00
          2   -1    0    0  501    0  0.00000000000E+00  0.00000000000E+00  0.10001112709E+04  0.10001112709E+04  0.25500000000E-02 0. -1.
         -2   -1    0    0    0  501 -0.00000000000E+00 -0.00000000000E+00 -0.59093047966E+03  0.59093047966E+03  0.25500000000E-02 0.  1.
    8880022    1    1    2    0    0 -0.11041842945E+03  0.36861345427E+03  0.87485160361E+03  0.96789725156E+03  0.15294330000E+03 0.  0.
    8880022    1    1    2    0    0  0.11041842945E+03 -0.36861345427E+03 -0.46567081232E+03  0.62314449905E+03  0.15294330000E+03 0.  0.
<mgrwt>
<rscale>  0 0.41407700E+03</rscale>
<asrwt>0</asrwt>
<pdfrwt beam="1">  1        2 0.15386327E+00 0.41407700E+03</pdfrwt>
<pdfrwt beam="2">  1       -2 0.90912383E-01 0.41407700E+03</pdfrwt>
<totfact> 0.27620858E+01</totfact>
</mgrwt>
</event>
<event>
 4    1  0.5410820E-008  0.1016100E+04  0.7818608E-02  0.9291061E-01
          2   -1    0    0  501    0  0.00000000000E+00  0.00000000000E+00  0.19666243648E+04  0.19666243648E+04  0.25500000000E-02 0. -1.
         -2   -1    0    0    0  501 -0.00000000000E+00 -0.00000000000E+00 -0.60113566924E+03  0.60113566925E+03  0.25500000000E-02 0.  1.
    8880022    1    1    2    0    0 -0.84518776043E+03  0.54288533446E+03  0.11396854929E+04  0.15268731161E+04  0.15294330000E+03 0.  0.
    8880022    1    1    2    0    0  0.84518776043E+03 -0.54288533446E+03  0.22580320266E+03  0.10408869180E+04  0.15294330000E+03 0.  0.
<mgrwt>
<rscale>  0 0.10160996E+04</rscale>
<asrwt>0</asrwt>
<pdfrwt beam="1">  1        2 0.30255760E+00 0.10160996E+04</pdfrwt>
<pdfrwt beam="2">  1       -2 0.92482409E-01 0.10160996E+04</pdfrwt>
<totfact> 0.69107711E+00</totfact>
</mgrwt>
</event>
<event>
 4    1  0.5410820E-008  0.1235137E+04  0.7818608E-02  0.9082645E-01
          2   -1    0    0  501    0  0.00000000000E+00  0.00000000000E+00  0.16173323878E+04  0.16173323878E+04  0.25500000000E-02 0. -1.
         -2   -1    0    0    0  501 -0.00000000000E+00 -0.00000000000E+00 -0.10814571097E+04  0.10814571097E+04  0.25500000000E-02 0.  1.
    8880022    1    1    2    0    0  0.36028885138E+03  0.11714790356E+04 -0.21443858478E+03  0.12536134759E+04  0.15294330000E+03 0.  0.
    8880022    1    1    2    0    0 -0.36028885138E+03 -0.11714790356E+04  0.75031386294E+03  0.14451760216E+04  0.15294330000E+03 0.  0.
<mgrwt>
<rscale>  0 0.12351368E+04</rscale>
<asrwt>0</asrwt>
<pdfrwt beam="1">  1        2 0.24882037E+00 0.12351368E+04</pdfrwt>
<pdfrwt beam="2">  1       -2 0.16637802E+00 0.12351368E+04</pdfrwt>
<totfact> 0.23872582E+00</totfact>
</mgrwt>
</event>
<event>
 4    1  0.5410820E-008  0.5837342E+03  0.7818608E-02  0.9939739E-01
          2   -1    0    0  501    0  0.00000000000E+00  0.00000000000E+00  0.10481171289E+04  0.10481171289E+04  0.25500000000E-02 0. -1.
         -2   -1    0    0    0  501 -0.00000000000E+00 -0.00000000000E+00 -0.33464754029E+03  0.33464754030E+03  0.25500000000E-02 0.  1.
    8880022    1    1    2    0    0 -0.35223215817E+03  0.43964351769E+03  0.47349956309E+03  0.75162983253E+03  0.15294330000E+03 0.  0.
    8880022    1    1    2    0    0  0.35223215817E+03 -0.43964351769E+03  0.23997002553E+03  0.63113483667E+03  0.15294330000E+03 0.  0.
<mgrwt>
<rscale>  0 0.58373416E+03</rscale>
<asrwt>0</asrwt>
<pdfrwt beam="1">  1        2 0.16124879E+00 0.58373416E+03</pdfrwt>
<pdfrwt beam="2">  1       -2 0.51484238E-01 0.58373416E+03</pdfrwt>
<totfact> 0.86129928E+01</totfact>
</mgrwt>
</event>
<event>
 4    1  0.5410820E-008  0.5677548E+03  0.7818608E-02  0.9974659E-01
         -2   -1    0    0    0  501 -0.00000000000E+00  0.00000000000E+00  0.15294483673E+03  0.15294483675E+03  0.25500000000E-02 0.  1.
          2   -1    0    0  501    0  0.00000000000E+00 -0.00000000000E+00 -0.27797905508E+04  0.27797905508E+04  0.25500000000E-02 0. -1.
    8880022    1    1    2    0    0 -0.46023876413E+03  0.29518496851E+03 -0.59234001974E+03  0.82049511738E+03  0.15294330000E+03 0. -1.
    8880022    1    1    2    0    0  0.46023876413E+03 -0.29518496851E+03 -0.20345056943E+04  0.21122402701E+04  0.15294330000E+03 0.  0.
<mgrwt>
<rscale>  0 0.56775482E+03</rscale>
<asrwt>0</asrwt>
<pdfrwt beam="1">  1        2 0.42766005E+00 0.56775482E+03</pdfrwt>
<pdfrwt beam="2">  1       -2 0.23529977E-01 0.56775482E+03</pdfrwt>
<totfact> 0.41140914E+01</totfact>
</mgrwt>
</event>
<event>
 4    1  0.5410820E-008  0.7036953E+03  0.7818608E-02  0.9710934E-01
         -2   -1    0    0    0  501 -0.00000000000E+00  0.00000000000E+00  0.31272598989E+03  0.31272598990E+03  0.25500000000E-02 0.  1.
          2   -1    0    0  501    0  0.00000000000E+00 -0.00000000000E+00 -0.23625830608E+04  0.23625830608E+04  0.25500000000E-02 0. -1.
    8880022    1    1    2    0    0 -0.66688163238E+03  0.16451215731E+03 -0.17930949314E+04  0.19262337468E+04  0.15294330000E+03 0.  0.
    8880022    1    1    2    0    0  0.66688163238E+03 -0.16451215731E+03 -0.25676213950E+03  0.74907530383E+03  0.15294330000E+03 0.  0.
<mgrwt>
<rscale>  0 0.70369526E+03</rscale>
<asrwt>0</asrwt>
<pdfrwt beam="1">  1        2 0.36347431E+00 0.70369526E+03</pdfrwt>
<pdfrwt beam="2">  1       -2 0.48111692E-01 0.70369526E+03</pdfrwt>
<totfact> 0.17955407E+01</totfact>
</mgrwt>
</event>
<event>
 4    1  0.5410820E-008  0.4334601E+03  0.7818608E-02  0.1032773E+00
         -2   -1    0    0    0  501 -0.00000000000E+00  0.00000000000E+00  0.12284696608E+03  0.12284696611E+03  0.25500000000E-02 0.  1.
          2   -1    0    0  501    0  0.00000000000E+00 -0.00000000000E+00 -0.17356378181E+04  0.17356378181E+04  0.25500000000E-02 0. -1.
    8880022    1    1    2    0    0  0.39071123767E+03  0.10881500163E+03 -0.48611038819E+03  0.65129942295E+03  0.15294330000E+03 0.  0.
    8880022    1    1    2    0    0 -0.39071123767E+03 -0.10881500163E+03 -0.11266804638E+04  0.12071853612E+04  0.15294330000E+03 0.  0.
<mgrwt>
<rscale>  0 0.43346007E+03</rscale>
<asrwt>0</asrwt>
<pdfrwt beam="1">  1        2 0.26702119E+00 0.43346007E+03</pdfrwt>
<pdfrwt beam="2">  1       -2 0.18899534E-01 0.43346007E+03</pdfrwt>
<totfact> 0.23216629E+02</totfact>
</mgrwt>
</event>
<event>
 4    1  0.5410820E-008  0.1782687E+03  0.7818608E-02  0.1169489E+00
         -2   -1    0    0    0  501 -0.00000000000E+00  0.00000000000E+00  0.30691636325E+02  0.30691636431E+02  0.25500000000E-02 0.  1.
          2   -1    0    0  501    0  0.00000000000E+00 -0.00000000000E+00 -0.15354668243E+04  0.15354668243E+04  0.25500000000E-02 0. -1.
    8880022    1    1    2    0    0 -0.16234857790E+02  0.90135984854E+02 -0.11992531519E+04  0.12124305513E+04  0.15294330000E+03 0. -1.
    8880022    1    1    2    0    0  0.16234857790E+02 -0.90135984854E+02 -0.30552203612E+03  0.35372790948E+03  0.15294330000E+03 0.  0.
<mgrwt>
<rscale>  0 0.17826867E+03</rscale>
<asrwt>0</asrwt>
<pdfrwt beam="1">  1        2 0.23622561E+00 0.17826867E+03</pdfrwt>
<pdfrwt beam="2">  1       -2 0.47217914E-02 0.17826867E+03</pdfrwt>
<totfact> 0.27873156E+03</totfact>
</mgrwt>
</event>
<event>
 4    1  0.5410820E-008  0.6879019E+03  0.7818608E-02  0.9738148E-01
          2   -1    0    0  501    0  0.00000000000E+00  0.00000000000E+00  0.13085329964E+04  0.13085329964E+04  0.25500000000E-02 0. -1.
         -2   -1    0    0    0  501 -0.00000000000E+00 -0.00000000000E+00 -0.47441533284E+03  0.47441533285E+03  0.25500000000E-02 0.  1.
    8880022    1    1    2    0    0  0.65846235775E+03  0.12745481721E+03 -0.17600921872E+02  0.68812706128E+03  0.15294330000E+03 0.  0.
    8880022    1    1    2    0    0 -0.65846235775E+03 -0.12745481721E+03  0.85171858538E+03  0.10948212679E+04  0.15294330000E+03 0.  0.
<mgrwt>
<rscale>  0 0.68790193E+03</rscale>
<asrwt>0</asrwt>
<pdfrwt beam="1">  1        2 0.20131277E+00 0.68790193E+03</pdfrwt>
<pdfrwt beam="2">  1       -2 0.72986974E-01 0.68790193E+03</pdfrwt>
<totfact> 0.28480300E+01</totfact>
</mgrwt>
</event>
<event>
 4    1  0.5410820E-008  0.5134345E+03  0.7818608E-02  0.1010331E+00
         -2   -1    0    0    0  501 -0.00000000000E+00  0.00000000000E+00  0.10847561289E+04  0.10847561289E+04  0.25500000000E-02 0.  1.
          2   -1    0    0  501    0  0.00000000000E+00 -0.00000000000E+00 -0.15536433943E+04  0.15536433943E+04  0.25500000000E-02 0. -1.
    8880022    1    1    2    0    0  0.11195310923E+03 -0.47716859253E+03 -0.14460853553E+04  0.15345285505E+04  0.15294330000E+03 0.  0.
    8880022    1    1    2    0    0 -0.11195310923E+03  0.47716859253E+03  0.97719808994E+03  0.11038709727E+04  0.15294330000E+03 0.  0.
<mgrwt>
<rscale>  0 0.51343453E+03</rscale>
<asrwt>0</asrwt>
<pdfrwt beam="1">  1        2 0.23902206E+00 0.51343453E+03</pdfrwt>
<pdfrwt beam="2">  1       -2 0.16688556E+00 0.51343453E+03</pdfrwt>
<totfact> 0.28682222E+00</totfact>
</mgrwt>
</event>
<event>
 4    1  0.5410820E-008  0.3771746E+03  0.7818608E-02  0.1051983E+00
         -2   -1    0    0    0  501 -0.00000000000E+00  0.00000000000E+00  0.70031689544E+03  0.70031689545E+03  0.25500000000E-02 0.  1.
          2   -1    0    0  501    0  0.00000000000E+00 -0.00000000000E+00 -0.57977521790E+03  0.57977521790E+03  0.25500000000E-02 0. -1.
    8880022    1    1    2    0    0 -0.13919972465E+03  0.31542426394E+03 -0.45560270790E+03  0.59146809727E+03  0.15294330000E+03 0.  0.
    8880022    1    1    2    0    0  0.13919972465E+03 -0.31542426394E+03  0.57614438545E+03  0.68862401608E+03  0.15294330000E+03 0.  0.
<mgrwt>
<rscale>  0 0.37717460E+03</rscale>
<asrwt>0</asrwt>
<pdfrwt beam="1">  1        2 0.89196187E-01 0.37717460E+03</pdfrwt>
<pdfrwt beam="2">  1       -2 0.10774106E+00 0.37717460E+03</pdfrwt>
<totfact> 0.37600455E+01</totfact>
</mgrwt>
</event>
<event>
 4    1  0.5410820E-008  0.4252590E+03  0.7818608E-02  0.1035368E+00
         -2   -1    0    0    0  501 -0.00000000000E+00  0.00000000000E+00  0.11650040325E+03  0.11650040328E+03  0.25500000000E-02 0.  1.
          2   -1    0    0  501    0  0.00000000000E+00 -0.00000000000E+00 -0.21885497587E+04  0.21885497587E+04  0.25500000000E-02 0. -1.
    8880022    1    1    2    0    0  0.33419056162E+03  0.21393970882E+03 -0.16574390287E+04  0.17111251612E+04  0.15294330000E+03 0. -1.
    8880022    1    1    2    0    0 -0.33419056162E+03 -0.21393970882E+03 -0.41461032679E+03  0.59392500080E+03  0.15294330000E+03 0.  0.
<mgrwt>
<rscale>  0 0.42525896E+03</rscale>
<asrwt>0</asrwt>
<pdfrwt beam="1">  1        2 0.33669993E+00 0.42525896E+03</pdfrwt>
<pdfrwt beam="2">  1       -2 0.17923141E-01 0.42525896E+03</pdfrwt>
<totfact> 0.14556060E+02</totfact>
</mgrwt>
</event>
<event>
 4    1  0.5410820E-008  0.9407579E+03  0.7818608E-02  0.9376019E-01
          2   -1    0    0  501    0  0.00000000000E+00  0.00000000000E+00  0.27104993564E+04  0.27104993564E+04  0.25500000000E-02 0. -1.
         -2   -1    0    0    0  501 -0.00000000000E+00 -0.00000000000E+00 -0.54921973981E+03  0.54921973981E+03  0.25500000000E-02 0.  1.
    8880022    1    1    2    0    0  0.71789561394E+03 -0.58843838765E+03  0.21185012904E+04  0.23179890463E+04  0.15294330000E+03 0.  0.
    8880022    1    1    2    0    0 -0.71789561394E+03  0.58843838765E+03  0.42778326170E+02  0.94173004984E+03  0.15294330000E+03 0.  0.
<mgrwt>
<rscale>  0 0.94075794E+03</rscale>
<asrwt>0</asrwt>
<pdfrwt beam="1">  1        2 0.41699990E+00 0.94075794E+03</pdfrwt>
<pdfrwt beam="2">  1       -2 0.84495345E-01 0.94075794E+03</pdfrwt>
<totfact> 0.32706056E+00</totfact>
</mgrwt>
</event>
<event>
 4    1  0.5410820E-008  0.1122840E+04  0.7818608E-02  0.9183212E-01
         -2   -1    0    0    0  501 -0.00000000000E+00  0.00000000000E+00  0.11325629862E+04  0.11325629862E+04  0.25500000000E-02 0.  1.
          2   -1    0    0  501    0  0.00000000000E+00 -0.00000000000E+00 -0.21368437389E+04  0.21368437389E+04  0.25500000000E-02 0. -1.
    8880022    1    1    2    0    0 -0.33444102877E+03  0.10609085279E+04 -0.16335684365E+04  0.19822500337E+04  0.15294330000E+03 0.  0.
    8880022    1    1    2    0    0  0.33444102877E+03 -0.10609085279E+04  0.62928768378E+03  0.12871566915E+04  0.15294330000E+03 0.  0.
<mgrwt>
<rscale>  0 0.11228399E+04</rscale>
<asrwt>0</asrwt>
<pdfrwt beam="1">  1        2 0.32874519E+00 0.11228399E+04</pdfrwt>
<pdfrwt beam="2">  1       -2 0.17424046E+00 0.11228399E+04</pdfrwt>
<totfact> 0.10950274E+00</totfact>
</mgrwt>
</event>
<event>
 4    1  0.5410820E-008  0.8866160E+03  0.7818608E-02  0.9442468E-01
         -2   -1    0    0    0  501 -0.00000000000E+00  0.00000000000E+00  0.15482610355E+04  0.15482610355E+04  0.25500000000E-02 0.  1.
          2   -1    0    0  501    0  0.00000000000E+00 -0.00000000000E+00 -0.18005750667E+04  0.18005750667E+04  0.25500000000E-02 0. -1.
    8880022    1    1    2    0    0 -0.59150969274E+03  0.64250496697E+03  0.12926805210E+04  0.15675174422E+04  0.15294330000E+03 0.  0.
    8880022    1    1    2    0    0  0.59150969274E+03 -0.64250496697E+03 -0.15449945522E+04  0.17813186600E+04  0.15294330000E+03 0. -1.
<mgrwt>
<rscale>  0 0.88661604E+03</rscale>
<asrwt>0</asrwt>
<pdfrwt beam="1">  1        2 0.27701155E+00 0.88661604E+03</pdfrwt>
<pdfrwt beam="2">  1       -2 0.23819400E+00 0.88661604E+03</pdfrwt>
<totfact> 0.66762575E-01</totfact>
</mgrwt>
</event>
<event>
 4    1  0.5410820E-008  0.6123940E+03  0.7818608E-02  0.9880021E-01
          2   -1    0    0  501    0  0.00000000000E+00  0.00000000000E+00  0.40966766823E+03  0.40966766824E+03  0.25500000000E-02 0. -1.
         -2   -1    0    0    0  501 -0.00000000000E+00 -0.00000000000E+00 -0.13260624623E+04  0.13260624623E+04  0.25500000000E-02 0.  1.
    8880022    1    1    2    0    0  0.54144988391E+03 -0.24179910008E+03 -0.94113522695E+03  0.11228365642E+04  0.15294330000E+03 0.  0.
    8880022    1    1    2    0    0 -0.54144988391E+03  0.24179910008E+03  0.24740432870E+02  0.61289356631E+03  0.15294330000E+03 0. -1.
<mgrwt>
<rscale>  0 0.61239402E+03</rscale>
<asrwt>0</asrwt>
<pdfrwt beam="1">  1        2 0.63025796E-01 0.61239402E+03</pdfrwt>
<pdfrwt beam="2">  1       -2 0.20400961E+00 0.61239402E+03</pdfrwt>
<totfact> 0.10035321E+01</totfact>
</mgrwt>
</event>
<event>
 4    1  0.5410820E-008  0.3607810E+03  0.7818608E-02  0.1058275E+00
         -2   -1    0    0    0  501 -0.00000000000E+00  0.00000000000E+00  0.30905155956E+03  0.30905155957E+03  0.25500000000E-02 0.  1.
          2   -1    0    0  501    0  0.00000000000E+00 -0.00000000000E+00 -0.16485252365E+04  0.16485252365E+04  0.25500000000E-02 0. -1.
    8880022    1    1    2    0    0  0.31304601946E+03  0.93666696208E+02 -0.15142887376E+04  0.15566737919E+04  0.15294330000E+03 0.  0.
    8880022    1    1    2    0    0 -0.31304601946E+03 -0.93666696208E+02  0.17481506074E+03  0.40090300418E+03  0.15294330000E+03 0.  0.
<mgrwt>
<rscale>  0 0.36078098E+03</rscale>
<asrwt>0</asrwt>
<pdfrwt beam="1">  1        2 0.25361926E+00 0.36078098E+03</pdfrwt>
<pdfrwt beam="2">  1       -2 0.47546395E-01 0.36078098E+03</pdfrwt>
<totfact> 0.47850627E+01</totfact>
</mgrwt>
</event>
<event>
 4    1  0.5410820E-008  0.7930931E+03  0.7818608E-02  0.9570069E-01
         -2   -1    0    0    0  501 -0.00000000000E+00  0.00000000000E+00  0.48326872928E+03  0.48326872929E+03  0.25500000000E-02 0.  1.
          2   -1    0    0  501    0  0.00000000000E+00 -0.00000000000E+00 -0.15094174186E+04  0.15094174186E+04  0.25500000000E-02 0. -1.
    8880022    1    1    2    0    0 -0.76455859769E+03  0.14510388908E+03 -0.14333022755E+03  0.80594056547E+03  0.15294330000E+03 0.  0.
    8880022    1    1    2    0    0  0.76455859769E+03 -0.14510388908E+03 -0.88281846175E+03  0.11867455824E+04  0.15294330000E+03 0.  0.
<mgrwt>
<rscale>  0 0.79309308E+03</rscale>
<asrwt>0</asrwt>
<pdfrwt beam="1">  1        2 0.23221806E+00 0.79309308E+03</pdfrwt>
<pdfrwt beam="2">  1       -2 0.74349036E-01 0.79309308E+03</pdfrwt>
<totfact> 0.20799045E+01</totfact>
</mgrwt>
</event>
<event>
 4    1  0.5410820E-008  0.3627402E+03  0.7818608E-02  0.1057504E+00
          2   -1    0    0  501    0  0.00000000000E+00  0.00000000000E+00  0.22473283091E+04  0.22473283091E+04  0.25500000000E-02 0. -1.
         -2   -1    0    0    0  501 -0.00000000000E+00 -0.00000000000E+00 -0.16166325827E+03  0.16166325829E+03  0.25500000000E-02 0.  1.
    8880022    1    1    2    0    0  0.25232277252E+03  0.21100243745E+03  0.20047934840E+04  0.20373456694E+04  0.15294330000E+03 0.  0.
    8880022    1    1    2    0    0 -0.25232277252E+03 -0.21100243745E+03  0.80871566813E+02  0.37164589797E+03  0.15294330000E+03 0.  0.
<mgrwt>
<rscale>  0 0.36274021E+03</rscale>
<asrwt>0</asrwt>
<pdfrwt beam="1">  1        2 0.34574280E+00 0.36274021E+03</pdfrwt>
<pdfrwt beam="2">  1       -2 0.24871272E-01 0.36274021E+03</pdfrwt>
<totfact> 0.77458837E+01</totfact>
</mgrwt>
</event>
<event>
 4    1  0.5410820E-008  0.4157872E+03  0.7818608E-02  0.1038446E+00
          2   -1    0    0  501    0  0.00000000000E+00  0.00000000000E+00  0.95721454597E+03  0.95721454598E+03  0.25500000000E-02 0. -1.
         -2   -1    0    0    0  501 -0.00000000000E+00 -0.00000000000E+00 -0.23192741558E+03  0.23192741560E+03  0.25500000000E-02 0.  1.
    8880022    1    1    2    0    0 -0.59962095470E+02 -0.38195800735E+03  0.82954493685E+02  0.42398168983E+03  0.15294330000E+03 0.  0.
    8880022    1    1    2    0    0  0.59962095470E+02  0.38195800735E+03  0.64233263671E+03  0.76516027175E+03  0.15294330000E+03 0.  0.
<mgrwt>
<rscale>  0 0.41578724E+03</rscale>
<asrwt>0</asrwt>
<pdfrwt beam="1">  1        2 0.14726378E+00 0.41578724E+03</pdfrwt>
<pdfrwt beam="2">  1       -2 0.35681140E-01 0.41578724E+03</pdfrwt>
<totfact> 0.20527571E+02</totfact>
</mgrwt>
</event>
<event>
 4    1  0.5410820E-008  0.1271580E+04  0.7818608E-02  0.9052411E-01
         -2   -1    0    0    0  501 -0.00000000000E+00  0.00000000000E+00  0.13689485280E+04  0.13689485280E+04  0.25500000000E-02 0.  1.
          2   -1    0    0  501    0  0.00000000000E+00 -0.00000000000E+00 -0.13110661880E+04  0.13110661880E+04  0.25500000000E-02 0. -1.
    8880022    1    1    2    0    0 -0.51340658883E+03 -0.11532288536E+04 -0.39290046878E+03  0.13308965195E+04  0.15294330000E+03 0.  0.
    8880022    1    1    2    0    0  0.51340658883E+03  0.11532288536E+04  0.45078280881E+03  0.13491181965E+04  0.15294330000E+03 0.  0.
<mgrwt>
<rscale>  0 0.12715796E+04</rscale>
<asrwt>0</asrwt>
<pdfrwt beam="1">  1        2 0.20170249E+00 0.12715796E+04</pdfrwt>
<pdfrwt beam="2">  1       -2 0.21060747E+00 0.12715796E+04</pdfrwt>
<totfact> 0.17808842E+00</totfact>
</mgrwt>
</event>
<event>
 4    1  0.5410820E-008  0.1453698E+04  0.7818608E-02  0.8915841E-01
          2   -1    0    0  501    0  0.00000000000E+00  0.00000000000E+00  0.25562877231E+04  0.25562877231E+04  0.25500000000E-02 0. -1.
         -2   -1    0    0    0  501 -0.00000000000E+00 -0.00000000000E+00 -0.92118179342E+03  0.92118179343E+03  0.25500000000E-02 0.  1.
    8880022    1    1    2    0    0  0.73423719796E+03 -0.12452876815E+04  0.13744512015E+04  0.20005882712E+04  0.15294330000E+03 0.  0.
    8880022    1    1    2    0    0 -0.73423719796E+03  0.12452876815E+04  0.26065472819E+03  0.14768812454E+04  0.15294330000E+03 0.  0.
<mgrwt>
<rscale>  0 0.14536978E+04</rscale>
<asrwt>0</asrwt>
<pdfrwt beam="1">  1        2 0.39327503E+00 0.14536978E+04</pdfrwt>
<pdfrwt beam="2">  1       -2 0.14172028E+00 0.14536978E+04</pdfrwt>
<totfact> 0.10678860E+00</totfact>
</mgrwt>
</event>
<event>
 4    1  0.5410820E-008  0.2093329E+03  0.7818608E-02  0.1142095E+00
          2   -1    0    0  501    0  0.00000000000E+00  0.00000000000E+00  0.82532418258E+03  0.82532418258E+03  0.25500000000E-02 0. -1.
         -2   -1    0    0    0  501 -0.00000000000E+00 -0.00000000000E+00 -0.13208469272E+03  0.13208469274E+03  0.25500000000E-02 0.  1.
    8880022    1    1    2    0    0 -0.71430827109E+02  0.12379916480E+03  0.71681218632E+03  0.74675294424E+03  0.15294330000E+03 0. -1.
    8880022    1    1    2    0    0  0.71430827109E+02 -0.12379916480E+03 -0.23572696462E+02  0.21065593108E+03  0.15294330000E+03 0.  0.
<mgrwt>
<rscale>  0 0.20933287E+03</rscale>
<asrwt>0</asrwt>
<pdfrwt beam="1">  1        2 0.12697295E+00 0.20933287E+03</pdfrwt>
<pdfrwt beam="2">  1       -2 0.20320722E-01 0.20933287E+03</pdfrwt>
<totfact> 0.70138733E+02</totfact>
</mgrwt>
</event>
<event>
 4    1  0.5410820E-008  0.1192710E+04  0.7818608E-02  0.9119261E-01
          2   -1    0    0  501    0  0.00000000000E+00  0.00000000000E+00  0.11364596932E+04  0.11364596932E+04  0.25500000000E-02 0. -1.
         -2   -1    0    0    0  501 -0.00000000000E+00 -0.00000000000E+00 -0.13137601881E+04  0.13137601881E+04  0.25500000000E-02 0.  1.
    8880022    1    1    2    0    0  0.94855805906E+03 -0.70668534543E+03 -0.35482359049E+03  0.12443705245E+04  0.15294330000E+03 0.  0.
    8880022    1    1    2    0    0 -0.94855805906E+03  0.70668534543E+03  0.17752309564E+03  0.12058493568E+04  0.15294330000E+03 0.  0.
<mgrwt>
<rscale>  0 0.11927105E+04</rscale>
<asrwt>0</asrwt>
<pdfrwt beam="1">  1        2 0.17483995E+00 0.11927105E+04</pdfrwt>
<pdfrwt beam="2">  1       -2 0.20211695E+00 0.11927105E+04</pdfrwt>
<totfact> 0.25912491E+00</totfact>
</mgrwt>
</event>
<event>
 4    1  0.5410820E-008  0.6305922E+03  0.7818608E-02  0.9843894E-01
          2   -1    0    0  501    0  0.00000000000E+00  0.00000000000E+00  0.34320377253E+04  0.34320377253E+04  0.25500000000E-02 0. -1.
         -2   -1    0    0    0  501 -0.00000000000E+00 -0.00000000000E+00 -0.16825620753E+03  0.16825620755E+03  0.25500000000E-02 0.  1.
    8880022    1    1    2    0    0  0.25881267165E+03  0.55432021491E+03  0.62736872590E+03  0.88951563838E+03  0.15294330000E+03 0.  0.
    8880022    1    1    2    0    0 -0.25881267165E+03 -0.55432021491E+03  0.26364127919E+04  0.27107782945E+04  0.15294330000E+03 0.  0.
<mgrwt>
<rscale>  0 0.63059222E+03</rscale>
<asrwt>0</asrwt>
<pdfrwt beam="1">  1        2 0.52800577E+00 0.63059222E+03</pdfrwt>
<pdfrwt beam="2">  1       -2 0.25885572E-01 0.63059222E+03</pdfrwt>
<totfact> 0.13440861E+01</totfact>
</mgrwt>
</event>
<event>
 4    1  0.5410820E-008  0.1190144E+04  0.7818608E-02  0.9121527E-01
          2   -1    0    0  501    0  0.00000000000E+00  0.00000000000E+00  0.24735198475E+04  0.24735198475E+04  0.25500000000E-02 0. -1.
         -2   -1    0    0    0  501 -0.00000000000E+00 -0.00000000000E+00 -0.62661263798E+03  0.62661263798E+03  0.25500000000E-02 0.  1.
    8880022    1    1    2    0    0  0.12688438898E+03  0.11734361712E+04  0.13783636859E+04  0.18210794051E+04  0.15294330000E+03 0.  0.
    8880022    1    1    2    0    0 -0.12688438898E+03 -0.11734361712E+04  0.46854352365E+03  0.12790530804E+04  0.15294330000E+03 0.  0.
<mgrwt>
<rscale>  0 0.11901444E+04</rscale>
<asrwt>0</asrwt>
<pdfrwt beam="1">  1        2 0.38054151E+00 0.11901444E+04</pdfrwt>
<pdfrwt beam="2">  1       -2 0.96401945E-01 0.11901444E+04</pdfrwt>
<totfact> 0.31978924E+00</totfact>
</mgrwt>
</event>
<event>
 4    1  0.5410820E-008  0.5526736E+03  0.7818608E-02  0.1000877E+00
          2   -1    0    0  501    0  0.00000000000E+00  0.00000000000E+00  0.15108025334E+04  0.15108025334E+04  0.25500000000E-02 0. -1.
         -2   -1    0    0    0  501 -0.00000000000E+00 -0.00000000000E+00 -0.20287846292E+03  0.20287846293E+03  0.25500000000E-02 0.  1.
    8880022    1    1    2    0    0 -0.34150910781E+02 -0.52999072790E+03  0.70437868627E+03  0.89531974347E+03  0.15294330000E+03 0.  0.
    8880022    1    1    2    0    0  0.34150910781E+02  0.52999072790E+03  0.60354538419E+03  0.81836125285E+03  0.15294330000E+03 0.  0.
<mgrwt>
<rscale>  0 0.55267360E+03</rscale>
<asrwt>0</asrwt>
<pdfrwt beam="1">  1        2 0.23243116E+00 0.55267360E+03</pdfrwt>
<pdfrwt beam="2">  1       -2 0.31212071E-01 0.55267360E+03</pdfrwt>
<totfact> 0.12363451E+02</totfact>
</mgrwt>
</event>
<event>
 4    1  0.5410820E-008  0.4341179E+03  0.7818608E-02  0.1032567E+00
         -2   -1    0    0    0  501 -0.00000000000E+00  0.00000000000E+00  0.13769422149E+04  0.13769422149E+04  0.25500000000E-02 0.  1.
          2   -1    0    0  501    0  0.00000000000E+00 -0.00000000000E+00 -0.82761572146E+03  0.82761572147E+03  0.25500000000E-02 0. -1.
    8880022    1    1    2    0    0 -0.11760133405E+03 -0.38889150845E+03 -0.73235447329E+03  0.85135269229E+03  0.15294330000E+03 0. -1.
    8880022    1    1    2    0    0  0.11760133405E+03  0.38889150845E+03  0.12816809667E+04  0.13532052441E+04  0.15294330000E+03 0.  0.
<mgrwt>
<rscale>  0 0.43411788E+03</rscale>
<asrwt>0</asrwt>
<pdfrwt beam="1">  1        2 0.12732550E+00 0.43411788E+03</pdfrwt>
<pdfrwt beam="2">  1       -2 0.21183726E+00 0.43411788E+03</pdfrwt>
<totfact> 0.39830388E+00</totfact>
</mgrwt>
</event>
<event>
 4    1  0.5410820E-008  0.5913535E+03  0.7818608E-02  0.9923509E-01
         -2   -1    0    0    0  501 -0.00000000000E+00  0.00000000000E+00  0.25191463922E+03  0.25191463923E+03  0.25500000000E-02 0.  1.
          2   -1    0    0  501    0  0.00000000000E+00 -0.00000000000E+00 -0.16953349782E+04  0.16953349782E+04  0.25500000000E-02 0. -1.
    8880022    1    1    2    0    0  0.45975925475E+03  0.33901137156E+03 -0.30727779509E+03  0.66642222258E+03  0.15294330000E+03 0.  0.
    8880022    1    1    2    0    0 -0.45975925475E+03 -0.33901137156E+03 -0.11361425439E+04  0.12808273949E+04  0.15294330000E+03 0.  0.
<mgrwt>
<rscale>  0 0.59135348E+03</rscale>
<asrwt>0</asrwt>
<pdfrwt beam="1">  1        2 0.26082076E+00 0.59135348E+03</pdfrwt>
<pdfrwt beam="2">  1       -2 0.38756099E-01 0.59135348E+03</pdfrwt>
<totfact> 0.64732569E+01</totfact>
</mgrwt>
</event>
<event>
 4    1  0.5952448E-008  0.2440903E+03  0.7818608E-02  0.1117098E+00
          2   -1    0    0  501    0  0.00000000000E+00  0.00000000000E+00  0.12834548544E+04  0.12834548544E+04  0.25500000000E-02 0. -1.
         -2   -1    0    0    0  501 -0.00000000000E+00 -0.00000000000E+00 -0.11419147879E+04  0.11419147879E+04  0.25500000000E-02 0.  1.
    8880022    1    1    2    0    0 -0.80067435221E+02  0.17256188880E+03  0.12585498189E+04  0.12820014428E+04  0.15294330000E+03 0. -1.
    8880022    1    1    2    0    0  0.80067435221E+02 -0.17256188880E+03 -0.11170097524E+04  0.11433681995E+04  0.15294330000E+03 0.  0.
<mgrwt>
<rscale>  0 0.24409026E+03</rscale>
<asrwt>0</asrwt>
<pdfrwt beam="1">  1        2 0.19745459E+00 0.24409026E+03</pdfrwt>
<pdfrwt beam="2">  1       -2 0.17567920E+00 0.24409026E+03</pdfrwt>
<totfact> 0.38487229E+00</totfact>
</mgrwt>
</event>
<event>
 4    1  0.5410820E-008  0.3139854E+03  0.7818608E-02  0.1078451E+00
         -2   -1    0    0    0  501 -0.00000000000E+00  0.00000000000E+00  0.25500023700E+03  0.25500023701E+03  0.25500000000E-02 0.  1.
          2   -1    0    0  501    0  0.00000000000E+00 -0.00000000000E+00 -0.53451859310E+03  0.53451859310E+03  0.25500000000E-02 0. -1.
    8880022    1    1    2    0    0  0.17279806091E+03 -0.21292252321E+03 -0.34741350521E+03  0.46827659280E+03  0.15294330000E+03 0.  0.
    8880022    1    1    2    0    0 -0.17279806091E+03  0.21292252321E+03  0.67895149115E+02  0.32124223731E+03  0.15294330000E+03 0.  1.
<mgrwt>
<rscale>  0 0.31398539E+03</rscale>
<asrwt>0</asrwt>
<pdfrwt beam="1">  1        2 0.82233629E-01 0.31398539E+03</pdfrwt>
<pdfrwt beam="2">  1       -2 0.39230806E-01 0.31398539E+03</pdfrwt>
<totfact> 0.35841886E+02</totfact>
</mgrwt>
</event>
<event>
 4    1  0.5410820E-008  0.5333456E+03  0.7818608E-02  0.1005424E+00
         -2   -1    0    0    0  501 -0.00000000000E+00  0.00000000000E+00  0.17130556639E+04  0.17130556639E+04  0.25500000000E-02 0.  1.
          2   -1    0    0  501    0  0.00000000000E+00 -0.00000000000E+00 -0.56803073770E+03  0.56803073771E+03  0.25500000000E-02 0. -1.
    8880022    1    1    2    0    0 -0.26676443157E+03  0.43577820593E+03 -0.38694775213E+03  0.65892801019E+03  0.15294330000E+03 0.  0.
    8880022    1    1    2    0    0  0.26676443157E+03 -0.43577820593E+03  0.15319726784E+04  0.16221583915E+04  0.15294330000E+03 0.  0.
<mgrwt>
<rscale>  0 0.53334563E+03</rscale>
<asrwt>0</asrwt>
<pdfrwt beam="1">  1        2 0.87389344E-01 0.53334563E+03</pdfrwt>
<pdfrwt beam="2">  1       -2 0.26354702E+00 0.53334563E+03</pdfrwt>
<totfact> 0.30152672E+00</totfact>
</mgrwt>
</event>
<event>
 4    1  0.5410820E-008  0.2150440E+03  0.7818608E-02  0.1137633E+00
         -2   -1    0    0    0  501 -0.00000000000E+00  0.00000000000E+00  0.25348603983E+03  0.25348603984E+03  0.25500000000E-02 0.  1.
          2   -1    0    0  501    0  0.00000000000E+00 -0.00000000000E+00 -0.61242758220E+03  0.61242758221E+03  0.25500000000E-02 0. -1.
    8880022    1    1    2    0    0 -0.15094315786E+03  0.82732679276E+01 -0.54225571798E+03  0.58333969569E+03  0.15294330000E+03 0. -1.
    8880022    1    1    2    0    0  0.15094315786E+03 -0.82732679276E+01  0.18331417561E+03  0.28257392637E+03  0.15294330000E+03 0.  0.
<mgrwt>
<rscale>  0 0.21504403E+03</rscale>
<asrwt>0</asrwt>
<pdfrwt beam="1">  1        2 0.94219628E-01 0.21504403E+03</pdfrwt>
<pdfrwt beam="2">  1       -2 0.38997852E-01 0.21504403E+03</pdfrwt>
<totfact> 0.31199795E+02</totfact>
</mgrwt>
</event>
<event>
 4    1  0.5410820E-008  0.3678068E+03  0.7818608E-02  0.1055535E+00
         -2   -1    0    0    0  501 -0.00000000000E+00  0.00000000000E+00  0.30238350267E+03  0.30238350268E+03  0.25500000000E-02 0.  1.
          2   -1    0    0  501    0  0.00000000000E+00 -0.00000000000E+00 -0.19168514672E+04  0.19168514672E+04  0.25500000000E-02 0. -1.
    8880022    1    1    2    0    0 -0.33069016733E+03  0.50340977590E+02  0.16430201277E+03  0.40283620146E+03  0.15294330000E+03 0.  0.
    8880022    1    1    2    0    0  0.33069016733E+03 -0.50340977590E+02 -0.17787699773E+04  0.18163987684E+04  0.15294330000E+03 0.  0.
<mgrwt>
<rscale>  0 0.36780682E+03</rscale>
<asrwt>0</asrwt>
<pdfrwt beam="1">  1        2 0.29490022E+00 0.36780682E+03</pdfrwt>
<pdfrwt beam="2">  1       -2 0.46520540E-01 0.36780682E+03</pdfrwt>
<totfact> 0.35903156E+01</totfact>
</mgrwt>
</event>
<event>
 4    1  0.5410820E-008  0.1714279E+03  0.7818608E-02  0.1176367E+00
         -2   -1    0    0    0  501 -0.00000000000E+00  0.00000000000E+00  0.56563458608E+02  0.56563458665E+02  0.25500000000E-02 0.  1.
          2   -1    0    0  501    0  0.00000000000E+00 -0.00000000000E+00 -0.17906293443E+04  0.17906293443E+04  0.25500000000E-02 0. -1.
    8880022    1    1    2    0    0  0.35351626436E+02 -0.68892215260E+02 -0.88878563769E+02  0.19309823129E+03  0.15294330000E+03 0.  0.
    8880022    1    1    2    0    0 -0.35351626436E+02  0.68892215260E+02 -0.16451873219E+04  0.16540945716E+04  0.15294330000E+03 0. -1.
<mgrwt>
<rscale>  0 0.17142791E+03</rscale>
<asrwt>0</asrwt>
<pdfrwt beam="1">  1        2 0.27548139E+00 0.17142791E+03</pdfrwt>
<pdfrwt beam="2">  1       -2 0.87020719E-02 0.17142791E+03</pdfrwt>
<totfact> 0.80515849E+02</totfact>
</mgrwt>
</event>
<event>
 4    1  0.5410820E-008  0.9320601E+03  0.7818608E-02  0.9386369E-01
         -2   -1    0    0    0  501 -0.00000000000E+00  0.00000000000E+00  0.72671996987E+03  0.72671996988E+03  0.25500000000E-02 0.  1.
          2   -1    0    0  501    0  0.00000000000E+00 -0.00000000000E+00 -0.28622992912E+04  0.28622992912E+04  0.25500000000E-02 0. -1.
    8880022    1    1    2    0    0  0.63729823682E+03 -0.66271812596E+03 -0.24372210284E+04  0.26093643577E+04  0.15294330000E+03 0.  0.
    8880022    1    1    2    0    0 -0.63729823682E+03  0.66271812596E+03  0.30164170709E+03  0.97965490332E+03  0.15294330000E+03 0.  0.
<mgrwt>
<rscale>  0 0.93206009E+03</rscale>
<asrwt>0</asrwt>
<pdfrwt beam="1">  1        2 0.44035373E+00 0.93206009E+03</pdfrwt>
<pdfrwt beam="2">  1       -2 0.11180307E+00 0.93206009E+03</pdfrwt>
<totfact> 0.13741624E+00</totfact>
</mgrwt>
</event>
<event>
 4    1  0.5410820E-008  0.1714260E+03  0.7818608E-02  0.1176369E+00
         -2   -1    0    0    0  501 -0.00000000000E+00  0.00000000000E+00  0.33281162771E+03  0.33281162772E+03  0.25500000000E-02 0.  1.
          2   -1    0    0  501    0  0.00000000000E+00 -0.00000000000E+00 -0.94450028375E+03  0.94450028376E+03  0.25500000000E-02 0. -1.
    8880022    1    1    2    0    0 -0.14118695609E+02  0.76130789015E+02  0.30222611352E+03  0.34745864690E+03  0.15294330000E+03 0.  0.
    8880022    1    1    2    0    0  0.14118695609E+02 -0.76130789015E+02 -0.91391476956E+03  0.92985326457E+03  0.15294330000E+03 0. -1.
<mgrwt>
<rscale>  0 0.17142604E+03</rscale>
<asrwt>0</asrwt>
<pdfrwt beam="1">  1        2 0.14530774E+00 0.17142604E+03</pdfrwt>
<pdfrwt beam="2">  1       -2 0.51201789E-01 0.17142604E+03</pdfrwt>
<totfact> 0.10792860E+02</totfact>
</mgrwt>
</event>
<event>
 4    1  0.5410820E-008  0.4121518E+03  0.7818608E-02  0.1039651E+00
          2   -1    0    0  501    0  0.00000000000E+00  0.00000000000E+00  0.24466671099E+03  0.24466671100E+03  0.25500000000E-02 0. -1.
         -2   -1    0    0    0  501 -0.00000000000E+00 -0.00000000000E+00 -0.76178073188E+03  0.76178073188E+03  0.25500000000E-02 0.  1.
    8880022    1    1    2    0    0 -0.36642553007E+03 -0.11049798593E+03 -0.10876968370E+03  0.42626279580E+03  0.15294330000E+03 0. -1.
    8880022    1    1    2    0    0  0.36642553007E+03  0.11049798593E+03 -0.40834433719E+03  0.58018464708E+03  0.15294330000E+03 0.  1.
<mgrwt>
<rscale>  0 0.41215183E+03</rscale>
<asrwt>0</asrwt>
<pdfrwt beam="1">  1        2 0.37641033E-01 0.41215183E+03</pdfrwt>
<pdfrwt beam="2">  1       -2 0.11719703E+00 0.41215183E+03</pdfrwt>
<totfact> 0.79937951E+01</totfact>
</mgrwt>
</event>
<event>
 4    1  0.5410820E-008  0.3297853E+03  0.7818608E-02  0.1071232E+00
          2   -1    0    0  501    0  0.00000000000E+00  0.00000000000E+00  0.10487417155E+04  0.10487417155E+04  0.25500000000E-02 0. -1.
         -2   -1    0    0    0  501 -0.00000000000E+00 -0.00000000000E+00 -0.15685754988E+03  0.15685754991E+03  0.25500000000E-02 0.  1.
    8880022    1    1    2    0    0  0.10522382065E+03  0.27257045667E+03  0.79684564115E+03  0.86239279631E+03  0.15294330000E+03 0.  0.
    8880022    1    1    2    0    0 -0.10522382065E+03 -0.27257045667E+03  0.95038524457E+02  0.34320646910E+03  0.15294330000E+03 0.  0.
<mgrwt>
<rscale>  0 0.32978532E+03</rscale>
<asrwt>0</asrwt>
<pdfrwt beam="1">  1        2 0.16134488E+00 0.32978532E+03</pdfrwt>
<pdfrwt beam="2">  1       -2 0.24131931E-01 0.32978532E+03</pdfrwt>
<totfact> 0.37125821E+02</totfact>
</mgrwt>
</event>
<event>
 4    1  0.5410820E-008  0.4307678E+03  0.7818608E-02  0.1033618E+00
         -2   -1    0    0    0  501 -0.00000000000E+00  0.00000000000E+00  0.18552751855E+03  0.18552751857E+03  0.25500000000E-02 0.  1.
          2   -1    0    0  501    0  0.00000000000E+00 -0.00000000000E+00 -0.21142445036E+04  0.21142445036E+04  0.25500000000E-02 0. -1.
    8880022    1    1    2    0    0  0.33623401104E+03  0.22162118813E+03 -0.17990622206E+04  0.18499150758E+04  0.15294330000E+03 0. -1.
    8880022    1    1    2    0    0 -0.33623401104E+03 -0.22162118813E+03 -0.12965476445E+03  0.44985694634E+03  0.15294330000E+03 0.  0.
<mgrwt>
<rscale>  0 0.43076782E+03</rscale>
<asrwt>0</asrwt>
<pdfrwt beam="1">  1        2 0.32526837E+00 0.43076782E+03</pdfrwt>
<pdfrwt beam="2">  1       -2 0.28542697E-01 0.43076782E+03</pdfrwt>
<totfact> 0.70204139E+01</totfact>
</mgrwt>
</event>
<event>
 4    1  0.5410820E-008  0.2911269E+03  0.7818608E-02  0.1089762E+00
         -2   -1    0    0    0  501 -0.00000000000E+00  0.00000000000E+00  0.15509719863E+03  0.15509719866E+03  0.25500000000E-02 0.  1.
          2   -1    0    0  501    0  0.00000000000E+00 -0.00000000000E+00 -0.29221011046E+04  0.29221011046E+04  0.25500000000E-02 0. -1.
    8880022    1    1    2    0    0  0.21270639650E+03  0.12696152501E+03  0.37904351309E+01  0.29115161061E+03  0.15294330000E+03 0.  0.
    8880022    1    1    2    0    0 -0.21270639650E+03 -0.12696152501E+03 -0.27707943411E+04  0.27860466927E+04  0.15294330000E+03 0.  0.
<mgrwt>
<rscale>  0 0.29112694E+03</rscale>
<asrwt>0</asrwt>
<pdfrwt beam="1">  1        2 0.44955397E+00 0.29112694E+03</pdfrwt>
<pdfrwt beam="2">  1       -2 0.23861110E-01 0.29112694E+03</pdfrwt>
<totfact> 0.35769847E+01</totfact>
</mgrwt>
</event>
<event>
 4    1  0.5410820E-008  0.6730990E+03  0.7818608E-02  0.9764376E-01
         -2   -1    0    0    0  501 -0.00000000000E+00  0.00000000000E+00  0.52414759027E+03  0.52414759028E+03  0.25500000000E-02 0.  1.
          2   -1    0    0  501    0  0.00000000000E+00 -0.00000000000E+00 -0.92171732410E+03  0.92171732411E+03  0.25500000000E-02 0. -1.
    8880022    1    1    2    0    0  0.35640881194E+03  0.55013026798E+03 -0.37909539504E+03  0.77251247532E+03  0.15294330000E+03 0.  0.
    8880022    1    1    2    0    0 -0.35640881194E+03 -0.55013026798E+03 -0.18474338794E+02  0.67335243906E+03  0.15294330000E+03 0.  0.
<mgrwt>
<rscale>  0 0.67309896E+03</rscale>
<asrwt>0</asrwt>
<pdfrwt beam="1">  1        2 0.14180267E+00 0.67309896E+03</pdfrwt>
<pdfrwt beam="2">  1       -2 0.80638091E-01 0.67309896E+03</pdfrwt>
<totfact> 0.39353862E+01</totfact>
</mgrwt>
</event>
<event>
 4    1  0.5410820E-008  0.4580324E+03  0.7818608E-02  0.1025353E+00
          2   -1    0    0  501    0  0.00000000000E+00  0.00000000000E+00  0.79354029593E+03  0.79354029593E+03  0.25500000000E-02 0. -1.
         -2   -1    0    0    0  501 -0.00000000000E+00 -0.00000000000E+00 -0.49266205732E+03  0.49266205733E+03  0.25500000000E-02 0.  1.
    8880022    1    1    2    0    0 -0.32227779432E+03 -0.28729608875E+03  0.58820674916E+03  0.74550711070E+03  0.15294330000E+03 0. -1.
    8880022    1    1    2    0    0  0.32227779432E+03  0.28729608875E+03 -0.28732851056E+03  0.54069524256E+03  0.15294330000E+03 0.  0.
<mgrwt>
<rscale>  0 0.45803239E+03</rscale>
<asrwt>0</asrwt>
<pdfrwt beam="1">  1        2 0.12208312E+00 0.45803239E+03</pdfrwt>
<pdfrwt beam="2">  1       -2 0.75794163E-01 0.45803239E+03</pdfrwt>
<totfact> 0.56629616E+01</totfact>
</mgrwt>
</event>
<event>
 4    1  0.5410820E-008  0.5608506E+03  0.7818608E-02  0.9990132E-01
         -2   -1    0    0    0  501 -0.00000000000E+00  0.00000000000E+00  0.16290745505E+03  0.16290745507E+03  0.25500000000E-02 0.  1.
          2   -1    0    0  501    0  0.00000000000E+00 -0.00000000000E+00 -0.28082335057E+04  0.28082335057E+04  0.25500000000E-02 0. -1.
    8880022    1    1    2    0    0  0.34576334105E+03  0.41425773977E+03 -0.49230386236E+03  0.74626838931E+03  0.15294330000E+03 0.  0.
    8880022    1    1    2    0    0 -0.34576334105E+03 -0.41425773977E+03 -0.21530221883E+04  0.22248725715E+04  0.15294330000E+03 0.  0.
<mgrwt>
<rscale>  0 0.56085062E+03</rscale>
<asrwt>0</asrwt>
<pdfrwt beam="1">  1        2 0.43203589E+00 0.56085062E+03</pdfrwt>
<pdfrwt beam="2">  1       -2 0.25062687E-01 0.56085062E+03</pdfrwt>
<totfact> 0.35417046E+01</totfact>
</mgrwt>
</event>
<event>
 4    1  0.5410820E-008  0.5392540E+03  0.7818608E-02  0.1004012E+00
          2   -1    0    0  501    0  0.00000000000E+00  0.00000000000E+00  0.35789676362E+04  0.35789676362E+04  0.25500000000E-02 0. -1.
         -2   -1    0    0    0  501 -0.00000000000E+00 -0.00000000000E+00 -0.74848285939E+03  0.74848285939E+03  0.25500000000E-02 0.  1.
    8880022    1    1    2    0    0 -0.14442508039E+02  0.51690874948E+03 -0.62766911048E+03  0.82750432422E+03  0.15294330000E+03 0.  0.
    8880022    1    1    2    0    0  0.14442508039E+02 -0.51690874948E+03  0.34581538873E+04  0.34999461714E+04  0.15294330000E+03 0. -1.
<mgrwt>
<rscale>  0 0.53925402E+03</rscale>
<asrwt>0</asrwt>
<pdfrwt beam="1">  1        2 0.55061040E+00 0.53925402E+03</pdfrwt>
<pdfrwt beam="2">  1       -2 0.11515121E+00 0.53925402E+03</pdfrwt>
<totfact> 0.48949090E-01</totfact>
</mgrwt>
</event>
<event>
 4    1  0.5410820E-008  0.4845790E+03  0.7818608E-02  0.1017884E+00
          2   -1    0    0  501    0  0.00000000000E+00  0.00000000000E+00  0.18734380219E+04  0.18734380219E+04  0.25500000000E-02 0. -1.
         -2   -1    0    0    0  501 -0.00000000000E+00 -0.00000000000E+00 -0.34822093306E+03  0.34822093307E+03  0.25500000000E-02 0.  1.
    8880022    1    1    2    0    0 -0.11131960147E+03  0.44613125537E+03  0.16513109881E+04  0.17209429924E+04  0.15294330000E+03 0.  0.
    8880022    1    1    2    0    0  0.11131960147E+03 -0.44613125537E+03 -0.12609389928E+03  0.50071596253E+03  0.15294330000E+03 0.  0.
<mgrwt>
<rscale>  0 0.48457900E+03</rscale>
<asrwt>0</asrwt>
<pdfrwt beam="1">  1        2 0.28822123E+00 0.48457900E+03</pdfrwt>
<pdfrwt beam="2">  1       -2 0.53572452E-01 0.48457900E+03</pdfrwt>
<totfact> 0.27734965E+01</totfact>
</mgrwt>
</event>
<event>
 4    1  0.5410820E-008  0.5282186E+03  0.7818608E-02  0.1006665E+00
          2   -1    0    0  501    0  0.00000000000E+00  0.00000000000E+00  0.63607234146E+03  0.63607234146E+03  0.25500000000E-02 0. -1.
         -2   -1    0    0    0  501 -0.00000000000E+00 -0.00000000000E+00 -0.54013802714E+03  0.54013802714E+03  0.25500000000E-02 0.  1.
    8880022    1    1    2    0    0  0.45984736972E+03  0.21015152760E+03 -0.20695290753E+03  0.56731334105E+03  0.15294330000E+03 0.  0.
    8880022    1    1    2    0    0 -0.45984736972E+03 -0.21015152760E+03  0.30288722185E+03  0.60889702755E+03  0.15294330000E+03 0.  0.
<mgrwt>
<rscale>  0 0.52821863E+03</rscale>
<asrwt>0</asrwt>
<pdfrwt beam="1">  1        2 0.97857283E-01 0.52821863E+03</pdfrwt>
<pdfrwt beam="2">  1       -2 0.83098158E-01 0.52821863E+03</pdfrwt>
<totfact> 0.60386910E+01</totfact>
</mgrwt>
</event>
<event>
 4    1  0.5410820E-008  0.5680145E+03  0.7818608E-02  0.9974082E-01
         -2   -1    0    0    0  501 -0.00000000000E+00  0.00000000000E+00  0.52687466927E+03  0.52687466927E+03  0.25500000000E-02 0.  1.
          2   -1    0    0  501    0  0.00000000000E+00 -0.00000000000E+00 -0.11369759533E+04  0.11369759533E+04  0.25500000000E-02 0. -1.
    8880022    1    1    2    0    0 -0.55085326869E+02  0.54425585743E+03  0.26005115128E+03  0.62471360309E+03  0.15294330000E+03 0.  0.
    8880022    1    1    2    0    0  0.55085326869E+02 -0.54425585743E+03 -0.87015243534E+03  0.10391370195E+04  0.15294330000E+03 0.  0.
<mgrwt>
<rscale>  0 0.56801451E+03</rscale>
<asrwt>0</asrwt>
<pdfrwt beam="1">  1        2 0.17491938E+00 0.56801451E+03</pdfrwt>
<pdfrwt beam="2">  1       -2 0.81057642E-01 0.56801451E+03</pdfrwt>
<totfact> 0.28857281E+01</totfact>
</mgrwt>
</event>
<event>
 4    1  0.5410820E-008  0.1183320E+04  0.7818608E-02  0.9127583E-01
          2   -1    0    0  501    0  0.00000000000E+00  0.00000000000E+00  0.11856121592E+04  0.11856121592E+04  0.25500000000E-02 0. -1.
         -2   -1    0    0    0  501 -0.00000000000E+00 -0.00000000000E+00 -0.20970291372E+04  0.20970291372E+04  0.25500000000E-02 0.  1.
    8880022    1    1    2    0    0  0.17470946368E+03  0.11603150652E+04  0.62906289155E+03  0.13401366430E+04  0.15294330000E+03 0.  0.
    8880022    1    1    2    0    0 -0.17470946368E+03 -0.11603150652E+04 -0.15404798695E+04  0.19425046534E+04  0.15294330000E+03 0.  0.
<mgrwt>
<rscale>  0 0.11833199E+04</rscale>
<asrwt>0</asrwt>
<pdfrwt beam="1">  1        2 0.18240187E+00 0.11833199E+04</pdfrwt>
<pdfrwt beam="2">  1       -2 0.32261987E+00 0.11833199E+04</pdfrwt>
<totfact> 0.43720340E-01</totfact>
</mgrwt>
</event>
<event>
 4    1  0.5410820E-008  0.4873965E+03  0.7818608E-02  0.1017122E+00
         -2   -1    0    0    0  501 -0.00000000000E+00  0.00000000000E+00  0.18956715071E+04  0.18956715071E+04  0.25500000000E-02 0.  1.
          2   -1    0    0  501    0  0.00000000000E+00 -0.00000000000E+00 -0.50719702251E+03  0.50719702252E+03  0.25500000000E-02 0. -1.
    8880022    1    1    2    0    0 -0.83880496638E+02  0.45511288692E+03 -0.34826379656E+03  0.59903505954E+03  0.15294330000E+03 0.  0.
    8880022    1    1    2    0    0  0.83880496638E+02 -0.45511288692E+03  0.17367382811E+04  0.18038334700E+04  0.15294330000E+03 0.  1.
<mgrwt>
<rscale>  0 0.48739648E+03</rscale>
<asrwt>0</asrwt>
<pdfrwt beam="1">  1        2 0.78030310E-01 0.48739648E+03</pdfrwt>
<pdfrwt beam="2">  1       -2 0.29164178E+00 0.48739648E+03</pdfrwt>
<totfact> 0.23663627E+00</totfact>
</mgrwt>
</event>
<event>
 4    1  0.5410820E-008  0.3092885E+03  0.7818608E-02  0.1080687E+00
         -2   -1    0    0    0  501 -0.00000000000E+00  0.00000000000E+00  0.15653698484E+03  0.15653698486E+03  0.25500000000E-02 0.  1.
          2   -1    0    0  501    0  0.00000000000E+00 -0.00000000000E+00 -0.34879110309E+04  0.34879110309E+04  0.25500000000E-02 0. -1.
    8880022    1    1    2    0    0  0.19162414337E+03 -0.18854154463E+03 -0.33205990493E+04  0.33349718778E+04  0.15294330000E+03 0. -1.
    8880022    1    1    2    0    0 -0.19162414337E+03  0.18854154463E+03 -0.10774996702E+02  0.30947613792E+03  0.15294330000E+03 0.  0.
<mgrwt>
<rscale>  0 0.30928851E+03</rscale>
<asrwt>0</asrwt>
<pdfrwt beam="1">  1        2 0.53660164E+00 0.30928851E+03</pdfrwt>
<pdfrwt beam="2">  1       -2 0.24082616E-01 0.30928851E+03</pdfrwt>
<totfact> 0.15537286E+01</totfact>
</mgrwt>
</event>
<event>
 4    1  0.5410820E-008  0.1664270E+03  0.7818608E-02  0.1181626E+00
          2   -1    0    0  501    0  0.00000000000E+00  0.00000000000E+00  0.89276742291E+03  0.89276742292E+03  0.25500000000E-02 0. -1.
         -2   -1    0    0    0  501 -0.00000000000E+00 -0.00000000000E+00 -0.76968407980E+03  0.76968407980E+03  0.25500000000E-02 0.  1.
    8880022    1    1    2    0    0 -0.39206840415E+02  0.52622312073E+02  0.87584238331E+03  0.89151433947E+03  0.15294330000E+03 0. -1.
    8880022    1    1    2    0    0  0.39206840415E+02 -0.52622312073E+02 -0.75275904020E+03  0.77093716325E+03  0.15294330000E+03 0.  0.
<mgrwt>
<rscale>  0 0.16642697E+03</rscale>
<asrwt>0</asrwt>
<pdfrwt beam="1">  1        2 0.13734883E+00 0.16642697E+03</pdfrwt>
<pdfrwt beam="2">  1       -2 0.11841294E+00 0.16642697E+03</pdfrwt>
<totfact> 0.18614957E+01</totfact>
</mgrwt>
</event>
<event>
 4    1  0.5410820E-008  0.9995748E+03  0.7818608E-02  0.9309011E-01
          2   -1    0    0  501    0  0.00000000000E+00  0.00000000000E+00  0.27679993959E+04  0.27679993959E+04  0.25500000000E-02 0. -1.
         -2   -1    0    0    0  501 -0.00000000000E+00 -0.00000000000E+00 -0.43078237741E+03  0.43078237741E+03  0.25500000000E-02 0.  1.
    8880022    1    1    2    0    0 -0.66479273150E+03 -0.73062218034E+03  0.52472299118E+03  0.11289304747E+04  0.15294330000E+03 0.  0.
    8880022    1    1    2    0    0  0.66479273150E+03  0.73062218034E+03  0.18124940273E+04  0.20698512986E+04  0.15294330000E+03 0.  0.
<mgrwt>
<rscale>  0 0.99957481E+03</rscale>
<asrwt>0</asrwt>
<pdfrwt beam="1">  1        2 0.42584606E+00 0.99957481E+03</pdfrwt>
<pdfrwt beam="2">  1       -2 0.66274211E-01 0.99957481E+03</pdfrwt>
<totfact> 0.51474571E+00</totfact>
</mgrwt>
</event>
<event>
 4    1  0.5410820E-008  0.3911551E+03  0.7818608E-02  0.1046886E+00
          2   -1    0    0  501    0  0.00000000000E+00  0.00000000000E+00  0.11684841830E+04  0.11684841830E+04  0.25500000000E-02 0. -1.
         -2   -1    0    0    0  501 -0.00000000000E+00 -0.00000000000E+00 -0.25045542579E+03  0.25045542580E+03  0.25500000000E-02 0.  1.
    8880022    1    1    2    0    0  0.35458637306E+03  0.62282711309E+02 -0.31079381597E+02  0.39238783501E+03  0.15294330000E+03 0.  0.
    8880022    1    1    2    0    0 -0.35458637306E+03 -0.62282711309E+02  0.94910813878E+03  0.10265517738E+04  0.15294330000E+03 0.  0.
<mgrwt>
<rscale>  0 0.39115507E+03</rscale>
<asrwt>0</asrwt>
<pdfrwt beam="1">  1        2 0.17976680E+00 0.39115507E+03</pdfrwt>
<pdfrwt beam="2">  1       -2 0.38531604E-01 0.39115507E+03</pdfrwt>
<totfact> 0.13227513E+02</totfact>
</mgrwt>
</event>
<event>
 4    1  0.5410820E-008  0.3373940E+03  0.7818608E-02  0.1067911E+00
         -2   -1    0    0    0  501 -0.00000000000E+00  0.00000000000E+00  0.71761879454E+03  0.71761879454E+03  0.25500000000E-02 0.  1.
          2   -1    0    0  501    0  0.00000000000E+00 -0.00000000000E+00 -0.32749174893E+03  0.32749174894E+03  0.25500000000E-02 0. -1.
    8880022    1    1    2    0    0 -0.29153220586E+03 -0.73837912513E+02  0.57029542761E+03  0.66262477477E+03  0.15294330000E+03 0.  0.
    8880022    1    1    2    0    0  0.29153220586E+03  0.73837912513E+02 -0.18016838200E+03  0.38248576871E+03  0.15294330000E+03 0. -1.
<mgrwt>
<rscale>  0 0.33739401E+03</rscale>
<asrwt>0</asrwt>
<pdfrwt beam="1">  1        2 0.50383346E-01 0.33739401E+03</pdfrwt>
<pdfrwt beam="2">  1       -2 0.11040289E+00 0.33739401E+03</pdfrwt>
<totfact> 0.67571939E+01</totfact>
</mgrwt>
</event>
<event>
 4    1  0.5410820E-008  0.9438376E+03  0.7818608E-02  0.9372383E-01
          2   -1    0    0  501    0  0.00000000000E+00  0.00000000000E+00  0.10513161538E+04  0.10513161538E+04  0.25500000000E-02 0. -1.
         -2   -1    0    0    0  501 -0.00000000000E+00 -0.00000000000E+00 -0.13627971792E+04  0.13627971792E+04  0.25500000000E-02 0.  1.
    8880022    1    1    2    0    0  0.22521839093E+01 -0.93136069895E+03 -0.89808491550E+03  0.13028376692E+04  0.15294330000E+03 0.  0.
    8880022    1    1    2    0    0 -0.22521839093E+01  0.93136069895E+03  0.58660389016E+03  0.11112756638E+04  0.15294330000E+03 0.  0.
<mgrwt>
<rscale>  0 0.94383763E+03</rscale>
<asrwt>0</asrwt>
<pdfrwt beam="1">  1        2 0.16174095E+00 0.94383763E+03</pdfrwt>
<pdfrwt beam="2">  1       -2 0.20966110E+00 0.94383763E+03</pdfrwt>
<totfact> 0.26873170E+00</totfact>
</mgrwt>
</event>
<event>
 4    1  0.5410820E-008  0.2760385E+03  0.7818608E-02  0.1097872E+00
          2   -1    0    0  501    0  0.00000000000E+00  0.00000000000E+00  0.54796794536E+03  0.54796794537E+03  0.25500000000E-02 0. -1.
         -2   -1    0    0    0  501 -0.00000000000E+00 -0.00000000000E+00 -0.17938729858E+03  0.17938729860E+03  0.25500000000E-02 0.  1.
    8880022    1    1    2    0    0  0.13668677593E+03  0.18472236489E+03  0.11845096343E+02  0.27629257342E+03  0.15294330000E+03 0.  0.
    8880022    1    1    2    0    0 -0.13668677593E+03 -0.18472236489E+03  0.35673555044E+03  0.45106267055E+03  0.15294330000E+03 0.  0.
<mgrwt>
<rscale>  0 0.27603855E+03</rscale>
<asrwt>0</asrwt>
<pdfrwt beam="1">  1        2 0.84302760E-01 0.27603855E+03</pdfrwt>
<pdfrwt beam="2">  1       -2 0.27598046E-01 0.27603855E+03</pdfrwt>
<totfact> 0.67003965E+02</totfact>
</mgrwt>
</event>
<event>
 4    1  0.5410820E-008  0.6698428E+03  0.7818608E-02  0.9770242E-01
         -2   -1    0    0    0  501 -0.00000000000E+00  0.00000000000E+00  0.93368226546E+03  0.93368226547E+03  0.25500000000E-02 0.  1.
          2   -1    0    0  501    0  0.00000000000E+00 -0.00000000000E+00 -0.10377565711E+04  0.10377565711E+04  0.25500000000E-02 0. -1.
    8880022    1    1    2    0    0  0.64325293052E+03  0.10734724201E+03 -0.77432477640E+03  0.10238497328E+04  0.15294330000E+03 0.  0.
    8880022    1    1    2    0    0 -0.64325293052E+03 -0.10734724201E+03  0.67025047077E+03  0.94758910376E+03  0.15294330000E+03 0.  0.
<mgrwt>
<rscale>  0 0.66984283E+03</rscale>
<asrwt>0</asrwt>
<pdfrwt beam="1">  1        2 0.15965486E+00 0.66984283E+03</pdfrwt>
<pdfrwt beam="2">  1       -2 0.14364343E+00 0.66984283E+03</pdfrwt>
<totfact> 0.82387537E+00</totfact>
</mgrwt>
</event>
<event>
 4    1  0.5410820E-008  0.4533029E+03  0.7818608E-02  0.1026742E+00
         -2   -1    0    0    0  501 -0.00000000000E+00  0.00000000000E+00  0.37385010245E+03  0.37385010246E+03  0.25500000000E-02 0.  1.
          2   -1    0    0  501    0  0.00000000000E+00 -0.00000000000E+00 -0.75785245405E+03  0.75785245405E+03  0.25500000000E-02 0. -1.
    8880022    1    1    2    0    0  0.35555717547E+03 -0.23594692291E+03  0.10459245519E+03  0.46521295141E+03  0.15294330000E+03 0.  0.
    8880022    1    1    2    0    0 -0.35555717547E+03  0.23594692291E+03 -0.48859480680E+03  0.66648960510E+03  0.15294330000E+03 0.  0.
<mgrwt>
<rscale>  0 0.45330289E+03</rscale>
<asrwt>0</asrwt>
<pdfrwt beam="1">  1        2 0.11659268E+00 0.45330289E+03</pdfrwt>
<pdfrwt beam="2">  1       -2 0.57515401E-01 0.45330289E+03</pdfrwt>
<totfact> 0.10852067E+02</totfact>
</mgrwt>
</event>
<event>
 4    1  0.5410820E-008  0.8471051E+03  0.7818608E-02  0.9494231E-01
         -2   -1    0    0    0  501 -0.00000000000E+00  0.00000000000E+00  0.41454501646E+03  0.41454501647E+03  0.25500000000E-02 0.  1.
          2   -1    0    0  501    0  0.00000000000E+00 -0.00000000000E+00 -0.25636952176E+04  0.25636952176E+04  0.25500000000E-02 0. -1.
    8880022    1    1    2    0    0  0.51103954350E+03  0.65805312753E+03 -0.19232347494E+04  0.21015277509E+04  0.15294330000E+03 0.  0.
    8880022    1    1    2    0    0 -0.51103954350E+03 -0.65805312753E+03 -0.22591545171E+03  0.87671248309E+03  0.15294330000E+03 0.  0.
<mgrwt>
<rscale>  0 0.84710506E+03</rscale>
<asrwt>0</asrwt>
<pdfrwt beam="1">  1        2 0.39441464E+00 0.84710506E+03</pdfrwt>
<pdfrwt beam="2">  1       -2 0.63776158E-01 0.84710506E+03</pdfrwt>
<totfact> 0.75197216E+00</totfact>
</mgrwt>
</event>
<event>
 4    1  0.5410820E-008  0.1879865E+03  0.7818608E-02  0.1160290E+00
          2   -1    0    0  501    0  0.00000000000E+00  0.00000000000E+00  0.78464312893E+03  0.78464312894E+03  0.25500000000E-02 0. -1.
         -2   -1    0    0    0  501 -0.00000000000E+00 -0.00000000000E+00 -0.43679066939E+03  0.43679066940E+03  0.25500000000E-02 0.  1.
    8880022    1    1    2    0    0 -0.99598802306E+02  0.45026296627E+02  0.75230069786E+03  0.77543231930E+03  0.15294330000E+03 0.  0.
    8880022    1    1    2    0    0  0.99598802306E+02 -0.45026296627E+02 -0.40444823831E+03  0.44600147903E+03  0.15294330000E+03 0.  1.
<mgrwt>
<rscale>  0 0.18798655E+03</rscale>
<asrwt>0</asrwt>
<pdfrwt beam="1">  1        2 0.12071433E+00 0.18798655E+03</pdfrwt>
<pdfrwt beam="2">  1       -2 0.67198565E-01 0.18798655E+03</pdfrwt>
<totfact> 0.78166784E+01</totfact>
</mgrwt>
</event>
<event>
 4    1  0.5410820E-008  0.8551802E+03  0.7818608E-02  0.9483410E-01
         -2   -1    0    0    0  501 -0.00000000000E+00  0.00000000000E+00  0.42674057143E+03  0.42674057144E+03  0.25500000000E-02 0.  1.
          2   -1    0    0  501    0  0.00000000000E+00 -0.00000000000E+00 -0.30912673132E+04  0.30912673132E+04  0.25500000000E-02 0. -1.
    8880022    1    1    2    0    0 -0.79072333698E+03 -0.28757290969E+03 -0.25064702948E+04  0.26483441177E+04  0.15294330000E+03 0.  0.
    8880022    1    1    2    0    0  0.79072333698E+03  0.28757290969E+03 -0.15805644693E+03  0.86966376690E+03  0.15294330000E+03 0.  0.
<mgrwt>
<rscale>  0 0.85518023E+03</rscale>
<asrwt>0</asrwt>
<pdfrwt beam="1">  1        2 0.47557957E+00 0.85518023E+03</pdfrwt>
<pdfrwt beam="2">  1       -2 0.65652398E-01 0.85518023E+03</pdfrwt>
<totfact> 0.34165396E+00</totfact>
</mgrwt>
</event>
<event>
 4    1  0.5410820E-008  0.4204733E+03  0.7818608E-02  0.1036912E+00
          2   -1    0    0  501    0  0.00000000000E+00  0.00000000000E+00  0.21834122843E+04  0.21834122843E+04  0.25500000000E-02 0. -1.
         -2   -1    0    0    0  501 -0.00000000000E+00 -0.00000000000E+00 -0.42209312707E+03  0.42209312708E+03  0.25500000000E-02 0.  1.
    8880022    1    1    2    0    0  0.34113815711E+03  0.19243421757E+03 -0.29048740720E+03  0.51105846738E+03  0.15294330000E+03 0.  1.
    8880022    1    1    2    0    0 -0.34113815711E+03 -0.19243421757E+03  0.20518065645E+04  0.20944469440E+04  0.15294330000E+03 0.  0.
<mgrwt>
<rscale>  0 0.42047333E+03</rscale>
<asrwt>0</asrwt>
<pdfrwt beam="1">  1        2 0.33590958E+00 0.42047333E+03</pdfrwt>
<pdfrwt beam="2">  1       -2 0.64937404E-01 0.42047333E+03</pdfrwt>
<totfact> 0.12839734E+01</totfact>
</mgrwt>
</event>
<event>
 4    1  0.5410820E-008  0.3152340E+03  0.7818608E-02  0.1077864E+00
          2   -1    0    0  501    0  0.00000000000E+00  0.00000000000E+00  0.83493426978E+02  0.83493427017E+02  0.25500000000E-02 0. -1.
         -2   -1    0    0    0  501 -0.00000000000E+00 -0.00000000000E+00 -0.12192762139E+04  0.12192762139E+04  0.25500000000E-02 0.  1.
    8880022    1    1    2    0    0 -0.20122578683E+03  0.18838523524E+03 -0.66851075637E+03  0.73910696015E+03  0.15294330000E+03 0.  1.
    8880022    1    1    2    0    0  0.20122578683E+03 -0.18838523524E+03 -0.46727203057E+03  0.56366268079E+03  0.15294330000E+03 0. -1.
<mgrwt>
<rscale>  0 0.31523399E+03</rscale>
<asrwt>0</asrwt>
<pdfrwt beam="1">  1        2 0.12845144E-01 0.31523399E+03</pdfrwt>
<pdfrwt beam="2">  1       -2 0.18758094E+00 0.31523399E+03</pdfrwt>
<totfact> 0.81309735E+01</totfact>
</mgrwt>
</event>
<event>
 4    1  0.5410820E-008  0.2171065E+03  0.7818608E-02  0.1136059E+00
          2   -1    0    0  501    0  0.00000000000E+00  0.00000000000E+00  0.19771892080E+04  0.19771892080E+04  0.25500000000E-02 0. -1.
         -2   -1    0    0    0  501 -0.00000000000E+00 -0.00000000000E+00 -0.24890629156E+02  0.24890629286E+02  0.25500000000E-02 0.  1.
    8880022    1    1    2    0    0  0.10351181878E+03 -0.11414414272E+03  0.77043802071E+03  0.80044361370E+03  0.15294330000E+03 0.  0.
    8880022    1    1    2    0    0 -0.10351181878E+03  0.11414414272E+03  0.11818605581E+04  0.12016362236E+04  0.15294330000E+03 0.  0.
<mgrwt>
<rscale>  0 0.21710651E+03</rscale>
<asrwt>0</asrwt>
<pdfrwt beam="1">  1        2 0.30418291E+00 0.21710651E+03</pdfrwt>
<pdfrwt beam="2">  1       -2 0.38293281E-02 0.21710651E+03</pdfrwt>
<totfact> 0.22474324E+03</totfact>
</mgrwt>
</event>
<event>
 4    1  0.5410820E-008  0.1233877E+04  0.7818608E-02  0.9083710E-01
          2   -1    0    0  501    0  0.00000000000E+00  0.00000000000E+00  0.18288401187E+04  0.18288401187E+04  0.25500000000E-02 0. -1.
         -2   -1    0    0    0  501 -0.00000000000E+00 -0.00000000000E+00 -0.10956619574E+04  0.10956619574E+04  0.25500000000E-02 0.  1.
    8880022    1    1    2    0    0  0.11095295876E+04  0.51769287961E+03 -0.35008290909E+03  0.12825800246E+04  0.15294330000E+03 0.  0.
    8880022    1    1    2    0    0 -0.11095295876E+04 -0.51769287961E+03  0.10832610705E+04  0.16419220515E+04  0.15294330000E+03 0.  0.
<mgrwt>
<rscale>  0 0.12338774E+04</rscale>
<asrwt>0</asrwt>
<pdfrwt beam="1">  1        2 0.28136002E+00 0.12338774E+04</pdfrwt>
<pdfrwt beam="2">  1       -2 0.16856338E+00 0.12338774E+04</pdfrwt>
<totfact> 0.17562775E+00</totfact>
</mgrwt>
</event>
<event>
 4    1  0.5410820E-008  0.7701164E+03  0.7818608E-02  0.9604309E-01
          2   -1    0    0  501    0  0.00000000000E+00  0.00000000000E+00  0.24377492413E+04  0.24377492414E+04  0.25500000000E-02 0. -1.
         -2   -1    0    0    0  501 -0.00000000000E+00 -0.00000000000E+00 -0.24549948644E+03  0.24549948645E+03  0.25500000000E-02 0.  1.
    8880022    1    1    2    0    0  0.72899602355E+03 -0.19558238195E+03  0.96883932660E+03  0.12376303827E+04  0.15294330000E+03 0.  0.
    8880022    1    1    2    0    0 -0.72899602355E+03  0.19558238195E+03  0.12234104283E+04  0.14456183451E+04  0.15294330000E+03 0.  0.
<mgrwt>
<rscale>  0 0.77011644E+03</rscale>
<asrwt>0</asrwt>
<pdfrwt beam="1">  1        2 0.37503835E+00 0.77011644E+03</pdfrwt>
<pdfrwt beam="2">  1       -2 0.37769151E-01 0.77011644E+03</pdfrwt>
<totfact> 0.26011039E+01</totfact>
</mgrwt>
</event>
<event>
 4    1  0.5410820E-008  0.5225719E+03  0.7818608E-02  0.1008050E+00
         -2   -1    0    0    0  501 -0.00000000000E+00  0.00000000000E+00  0.26133508205E+03  0.26133508206E+03  0.25500000000E-02 0.  1.
          2   -1    0    0  501    0  0.00000000000E+00 -0.00000000000E+00 -0.15753314992E+04  0.15753314992E+04  0.25500000000E-02 0. -1.
    8880022    1    1    2    0    0  0.10908220208E+02  0.49957057000E+03 -0.11898539204E+04  0.12995513644E+04  0.15294330000E+03 0.  0.
    8880022    1    1    2    0    0 -0.10908220208E+02 -0.49957057000E+03 -0.12414249670E+03  0.53711521686E+03  0.15294330000E+03 0.  0.
<mgrwt>
<rscale>  0 0.52257191E+03</rscale>
<asrwt>0</asrwt>
<pdfrwt beam="1">  1        2 0.24235869E+00 0.52257191E+03</pdfrwt>
<pdfrwt beam="2">  1       -2 0.40205398E-01 0.52257191E+03</pdfrwt>
<totfact> 0.70748133E+01</totfact>
</mgrwt>
</event>
<event>
 4    1  0.5410820E-008  0.3125506E+03  0.7818608E-02  0.1079130E+00
          2   -1    0    0  501    0  0.00000000000E+00  0.00000000000E+00  0.48551689047E+03  0.48551689048E+03  0.25500000000E-02 0. -1.
         -2   -1    0    0    0  501 -0.00000000000E+00 -0.00000000000E+00 -0.51248969670E+03  0.51248969671E+03  0.25500000000E-02 0.  1.
    8880022    1    1    2    0    0  0.19050884856E+03 -0.19494263714E+03  0.37541586402E+03  0.48849255586E+03  0.15294330000E+03 0.  0.
    8880022    1    1    2    0    0 -0.19050884856E+03  0.19494263714E+03 -0.40238867025E+03  0.50951403132E+03  0.15294330000E+03 0.  1.
<mgrwt>
<rscale>  0 0.31255065E+03</rscale>
<asrwt>0</asrwt>
<pdfrwt beam="1">  1        2 0.74694906E-01 0.31255065E+03</pdfrwt>
<pdfrwt beam="2">  1       -2 0.78844569E-01 0.31255065E+03</pdfrwt>
<totfact> 0.95219024E+01</totfact>
</mgrwt>
</event>
<event>
 4    1  0.5410820E-008  0.2259893E+03  0.7818608E-02  0.1129495E+00
          2   -1    0    0  501    0  0.00000000000E+00  0.00000000000E+00  0.22120147018E+04  0.22120147018E+04  0.25500000000E-02 0. -1.
         -2   -1    0    0    0  501 -0.00000000000E+00 -0.00000000000E+00 -0.46146460427E+02  0.46146460497E+02  0.25500000000E-02 0.  1.
    8880022    1    1    2    0    0 -0.37302288031E+02 -0.16213594322E+03  0.28481058486E+03  0.36357701665E+03  0.15294330000E+03 0.  0.
    8880022    1    1    2    0    0  0.37302288031E+02  0.16213594322E+03  0.18810576565E+04  0.18945841457E+04  0.15294330000E+03 0.  0.
<mgrwt>
<rscale>  0 0.22598933E+03</rscale>
<asrwt>0</asrwt>
<pdfrwt beam="1">  1        2 0.34030986E+00 0.22598933E+03</pdfrwt>
<pdfrwt beam="2">  1       -2 0.70994575E-02 0.22598933E+03</pdfrwt>
<totfact> 0.65992194E+02</totfact>
</mgrwt>
</event>
<event>
 4    1  0.5410820E-008  0.4199879E+03  0.7818608E-02  0.1037070E+00
          2   -1    0    0  501    0  0.00000000000E+00  0.00000000000E+00  0.33934622594E+04  0.33934622594E+04  0.25500000000E-02 0. -1.
         -2   -1    0    0    0  501 -0.00000000000E+00 -0.00000000000E+00 -0.78169845101E+02  0.78169845143E+02  0.25500000000E-02 0.  1.
    8880022    1    1    2    0    0 -0.26937852087E+03  0.28360786799E+03  0.26623919418E+04  0.26953145855E+04  0.15294330000E+03 0.  0.
    8880022    1    1    2    0    0  0.26937852087E+03 -0.28360786799E+03  0.65290047250E+03  0.77631751900E+03  0.15294330000E+03 0.  0.
<mgrwt>
<rscale>  0 0.41998793E+03</rscale>
<asrwt>0</asrwt>
<pdfrwt beam="1">  1        2 0.52207104E+00 0.41998793E+03</pdfrwt>
<pdfrwt beam="2">  1       -2 0.12026132E-01 0.41998793E+03</pdfrwt>
<totfact> 0.55918711E+01</totfact>
</mgrwt>
</event>
<event>
 4    1  0.5410820E-008  0.6028025E+03  0.7818608E-02  0.9899609E-01
          2   -1    0    0  501    0  0.00000000000E+00  0.00000000000E+00  0.39665736231E+04  0.39665736231E+04  0.25500000000E-02 0. -1.
         -2   -1    0    0    0  501 -0.00000000000E+00 -0.00000000000E+00 -0.20098460694E+03  0.20098460696E+03  0.25500000000E-02 0.  1.
    8880022    1    1    2    0    0  0.57398589711E+03  0.10256401443E+03  0.34200003403E+04  0.34727184118E+04  0.15294330000E+03 0.  0.
    8880022    1    1    2    0    0 -0.57398589711E+03 -0.10256401443E+03  0.34558867588E+03  0.69483981827E+03  0.15294330000E+03 0.  0.
<mgrwt>
<rscale>  0 0.60280249E+03</rscale>
<asrwt>0</asrwt>
<pdfrwt beam="1">  1        2 0.61024203E+00 0.60280249E+03</pdfrwt>
<pdfrwt beam="2">  1       -2 0.30920712E-01 0.60280249E+03</pdfrwt>
<totfact> 0.40394911E+00</totfact>
</mgrwt>
</event>
<event>
 4    1  0.5410820E-008  0.7522034E+03  0.7818608E-02  0.9631900E-01
         -2   -1    0    0    0  501 -0.00000000000E+00  0.00000000000E+00  0.69933984216E+03  0.69933984217E+03  0.25500000000E-02 0.  1.
          2   -1    0    0  501    0  0.00000000000E+00 -0.00000000000E+00 -0.12192696133E+04  0.12192696133E+04  0.25500000000E-02 0. -1.
    8880022    1    1    2    0    0  0.73649050191E+03 -0.23270746725E+00 -0.81639170774E+03  0.11100925128E+04  0.15294330000E+03 0.  0.
    8880022    1    1    2    0    0 -0.73649050191E+03  0.23270746725E+00  0.29646193665E+03  0.80851694259E+03  0.15294330000E+03 0.  0.
<mgrwt>
<rscale>  0 0.75220341E+03</rscale>
<asrwt>0</asrwt>
<pdfrwt beam="1">  1        2 0.18757994E+00 0.75220341E+03</pdfrwt>
<pdfrwt beam="2">  1       -2 0.10759074E+00 0.75220341E+03</pdfrwt>
<totfact> 0.13035893E+01</totfact>
</mgrwt>
</event>
<event>
 4    1  0.5410820E-008  0.1064604E+04  0.7818608E-02  0.9240394E-01
         -2   -1    0    0    0  501 -0.00000000000E+00  0.00000000000E+00  0.24359215628E+04  0.24359215628E+04  0.25500000000E-02 0.  1.
          2   -1    0    0  501    0  0.00000000000E+00 -0.00000000000E+00 -0.50429338523E+03  0.50429338523E+03  0.25500000000E-02 0. -1.
    8880022    1    1    2    0    0 -0.40800645264E+03 -0.97135046493E+03  0.55691043913E+03  0.12014707160E+04  0.15294330000E+03 0.  0.
    8880022    1    1    2    0    0  0.40800645264E+03  0.97135046493E+03  0.13747177384E+04  0.17387442320E+04  0.15294330000E+03 0.  0.
<mgrwt>
<rscale>  0 0.10646045E+04</rscale>
<asrwt>0</asrwt>
<pdfrwt beam="1">  1        2 0.77583597E-01 0.10646045E+04</pdfrwt>
<pdfrwt beam="2">  1       -2 0.37475717E+00 0.10646045E+04</pdfrwt>
<totfact> 0.66571807E-01</totfact>
</mgrwt>
</event>
<event>
 4    1  0.5410820E-008  0.7190870E+03  0.7818608E-02  0.9685136E-01
          2   -1    0    0  501    0  0.00000000000E+00  0.00000000000E+00  0.16119683315E+04  0.16119683315E+04  0.25500000000E-02 0. -1.
         -2   -1    0    0    0  501 -0.00000000000E+00 -0.00000000000E+00 -0.43654650161E+03  0.43654650162E+03  0.25500000000E-02 0.  1.
    8880022    1    1    2    0    0 -0.56783904566E+03  0.41382763119E+03  0.11151672919E+04  0.13269077707E+04  0.15294330000E+03 0.  0.
    8880022    1    1    2    0    0  0.56783904566E+03 -0.41382763119E+03  0.60254537982E+02  0.72160706238E+03  0.15294330000E+03 0.  0.
<mgrwt>
<rscale>  0 0.71908702E+03</rscale>
<asrwt>0</asrwt>
<pdfrwt beam="1">  1        2 0.24799513E+00 0.71908702E+03</pdfrwt>
<pdfrwt beam="2">  1       -2 0.67161000E-01 0.71908702E+03</pdfrwt>
<totfact> 0.23003830E+01</totfact>
</mgrwt>
</event>
<event>
 4    1  0.5410820E-008  0.5361790E+03  0.7818608E-02  0.1004745E+00
          2   -1    0    0  501    0  0.00000000000E+00  0.00000000000E+00  0.35388690969E+04  0.35388690969E+04  0.25500000000E-02 0. -1.
         -2   -1    0    0    0  501 -0.00000000000E+00 -0.00000000000E+00 -0.19717603750E+03  0.19717603751E+03  0.25500000000E-02 0.  1.
    8880022    1    1    2    0    0 -0.34529877873E+03  0.38061141141E+03  0.31032634862E+04  0.31492431171E+04  0.15294330000E+03 0.  0.
    8880022    1    1    2    0    0  0.34529877873E+03 -0.38061141141E+03  0.23842957322E+03  0.58680201728E+03  0.15294330000E+03 0.  0.
<mgrwt>
<rscale>  0 0.53617902E+03</rscale>
<asrwt>0</asrwt>
<pdfrwt beam="1">  1        2 0.54444141E+00 0.53617902E+03</pdfrwt>
<pdfrwt beam="2">  1       -2 0.30334774E-01 0.53617902E+03</pdfrwt>
<totfact> 0.87211558E+00</totfact>
</mgrwt>
</event>
<event>
 4    1  0.5410820E-008  0.6221675E+03  0.7818608E-02  0.9860454E-01
          2   -1    0    0  501    0  0.00000000000E+00  0.00000000000E+00  0.24061445777E+04  0.24061445777E+04  0.25500000000E-02 0. -1.
         -2   -1    0    0    0  501 -0.00000000000E+00 -0.00000000000E+00 -0.28090872209E+03  0.28090872210E+03  0.25500000000E-02 0.  1.
    8880022    1    1    2    0    0 -0.56414004368E+03  0.21318243868E+03  0.19408562606E+04  0.20381401861E+04  0.15294330000E+03 0.  0.
    8880022    1    1    2    0    0  0.56414004368E+03 -0.21318243868E+03  0.18437959506E+03  0.64891311370E+03  0.15294330000E+03 0.  0.
<mgrwt>
<rscale>  0 0.62216750E+03</rscale>
<asrwt>0</asrwt>
<pdfrwt beam="1">  1        2 0.37017611E+00 0.62216750E+03</pdfrwt>
<pdfrwt beam="2">  1       -2 0.43216724E-01 0.62216750E+03</pdfrwt>
<totfact> 0.21327836E+01</totfact>
</mgrwt>
</event>
<event>
 4    1  0.5410820E-008  0.1072423E+04  0.7818608E-02  0.9232495E-01
          2   -1    0    0  501    0  0.00000000000E+00  0.00000000000E+00  0.20939700258E+04  0.20939700258E+04  0.25500000000E-02 0. -1.
         -2   -1    0    0    0  501 -0.00000000000E+00 -0.00000000000E+00 -0.77576914743E+03  0.77576914743E+03  0.25500000000E-02 0.  1.
    8880022    1    1    2    0    0 -0.90421301158E+03  0.55596616003E+03 -0.11626892417E+03  0.10787074011E+04  0.15294330000E+03 0.  0.
    8880022    1    1    2    0    0  0.90421301158E+03 -0.55596616003E+03  0.14344698025E+04  0.17910317721E+04  0.15294330000E+03 0.  0.
<mgrwt>
<rscale>  0 0.10724230E+04</rscale>
<asrwt>0</asrwt>
<pdfrwt beam="1">  1        2 0.32214923E+00 0.10724230E+04</pdfrwt>
<pdfrwt beam="2">  1       -2 0.11934910E+00 0.10724230E+04</pdfrwt>
<totfact> 0.31594561E+00</totfact>
</mgrwt>
</event>
<event>
 4    1  0.5410820E-008  0.1091808E+04  0.7818608E-02  0.9213213E-01
         -2   -1    0    0    0  501 -0.00000000000E+00  0.00000000000E+00  0.16589600989E+04  0.16589600989E+04  0.25500000000E-02 0.  1.
          2   -1    0    0  501    0  0.00000000000E+00 -0.00000000000E+00 -0.85149927656E+03  0.85149927657E+03  0.25500000000E-02 0. -1.
    8880022    1    1    2    0    0 -0.33917652962E+03  0.10264564979E+04 -0.92261402318E+02  0.10956995390E+04  0.15294330000E+03 0.  0.
    8880022    1    1    2    0    0  0.33917652962E+03 -0.10264564979E+04  0.89972222468E+03  0.14147598365E+04  0.15294330000E+03 0.  0.
<mgrwt>
<rscale>  0 0.10918083E+04</rscale>
<asrwt>0</asrwt>
<pdfrwt beam="1">  1        2 0.13099989E+00 0.10918083E+04</pdfrwt>
<pdfrwt beam="2">  1       -2 0.25522463E+00 0.10918083E+04</pdfrwt>
<totfact> 0.18658520E+00</totfact>
</mgrwt>
</event>
<event>
 4    1  0.5410820E-008  0.6160154E+03  0.7818608E-02  0.9872725E-01
          2   -1    0    0  501    0  0.00000000000E+00  0.00000000000E+00  0.43242402750E+03  0.43242402751E+03  0.25500000000E-02 0. -1.
         -2   -1    0    0    0  501 -0.00000000000E+00 -0.00000000000E+00 -0.94008247624E+03  0.94008247624E+03  0.25500000000E-02 0.  1.
    8880022    1    1    2    0    0 -0.34510416864E+03 -0.48681249294E+03 -0.76841026626E+02  0.62078940623E+03  0.15294330000E+03 0.  0.
    8880022    1    1    2    0    0  0.34510416864E+03  0.48681249294E+03 -0.43081742211E+03  0.75171709752E+03  0.15294330000E+03 0.  0.
<mgrwt>
<rscale>  0 0.61601538E+03</rscale>
<asrwt>0</asrwt>
<pdfrwt beam="1">  1        2 0.66526774E-01 0.61601538E+03</pdfrwt>
<pdfrwt beam="2">  1       -2 0.14462807E+00 0.61601538E+03</pdfrwt>
<totfact> 0.24607250E+01</totfact>
</mgrwt>
</event>
<event>
 4    1  0.5410820E-008  0.5484316E+03  0.7818608E-02  0.1001858E+00
          2   -1    0    0  501    0  0.00000000000E+00  0.00000000000E+00  0.68967412950E+03  0.68967412951E+03  0.25500000000E-02 0. -1.
         -2   -1    0    0    0  501 -0.00000000000E+00 -0.00000000000E+00 -0.51235428565E+03  0.51235428566E+03  0.25500000000E-02 0.  1.
    8880022    1    1    2    0    0 -0.51605699224E+03 -0.10521767542E+03 -0.14318039797E+03  0.56681377704E+03  0.15294330000E+03 0.  0.
    8880022    1    1    2    0    0  0.51605699224E+03  0.10521767542E+03  0.32050024182E+03  0.63521463813E+03  0.15294330000E+03 0.  0.
<mgrwt>
<rscale>  0 0.54843161E+03</rscale>
<asrwt>0</asrwt>
<pdfrwt beam="1">  1        2 0.10610371E+00 0.54843161E+03</pdfrwt>
<pdfrwt beam="2">  1       -2 0.78823736E-01 0.54843161E+03</pdfrwt>
<totfact> 0.61431540E+01</totfact>
</mgrwt>
</event>
<event>
 4    1  0.5410820E-008  0.4733355E+03  0.7818608E-02  0.1020983E+00
          2   -1    0    0  501    0  0.00000000000E+00  0.00000000000E+00  0.83603756509E+03  0.83603756510E+03  0.25500000000E-02 0. -1.
         -2   -1    0    0    0  501 -0.00000000000E+00 -0.00000000000E+00 -0.37857515319E+03  0.37857515320E+03  0.25500000000E-02 0.  1.
    8880022    1    1    2    0    0  0.32768440435E+03 -0.30541402480E+03 -0.99506025455E+02  0.48368160758E+03  0.15294330000E+03 0.  0.
    8880022    1    1    2    0    0 -0.32768440435E+03  0.30541402480E+03  0.55696843735E+03  0.73093111072E+03  0.15294330000E+03 0.  0.
<mgrwt>
<rscale>  0 0.47333545E+03</rscale>
<asrwt>0</asrwt>
<pdfrwt beam="1">  1        2 0.12862116E+00 0.47333545E+03</pdfrwt>
<pdfrwt beam="2">  1       -2 0.58242332E-01 0.47333545E+03</pdfrwt>
<totfact> 0.92841363E+01</totfact>
</mgrwt>
</event>
<event>
 4    1  0.5410820E-008  0.5171625E+03  0.7818608E-02  0.1009394E+00
         -2   -1    0    0    0  501 -0.00000000000E+00  0.00000000000E+00  0.34276998221E+03  0.34276998222E+03  0.25500000000E-02 0.  1.
          2   -1    0    0  501    0  0.00000000000E+00 -0.00000000000E+00 -0.16267478777E+04  0.16267478777E+04  0.25500000000E-02 0. -1.
    8880022    1    1    2    0    0 -0.22366804968E+03  0.44049750076E+03 -0.13523426417E+04  0.14478562492E+04  0.15294330000E+03 0.  0.
    8880022    1    1    2    0    0  0.22366804968E+03 -0.44049750076E+03  0.68364746213E+02  0.52166161078E+03  0.15294330000E+03 0.  0.
<mgrwt>
<rscale>  0 0.51716254E+03</rscale>
<asrwt>0</asrwt>
<pdfrwt beam="1">  1        2 0.25026890E+00 0.51716254E+03</pdfrwt>
<pdfrwt beam="2">  1       -2 0.52733844E-01 0.51716254E+03</pdfrwt>
<totfact> 0.38674286E+01</totfact>
</mgrwt>
</event>
<event>
 4    1  0.5410820E-008  0.1993746E+03  0.7818608E-02  0.1150268E+00
          2   -1    0    0  501    0  0.00000000000E+00  0.00000000000E+00  0.15862164498E+04  0.15862164498E+04  0.25500000000E-02 0. -1.
         -2   -1    0    0    0  501 -0.00000000000E+00 -0.00000000000E+00 -0.56605495787E+02  0.56605495845E+02  0.25500000000E-02 0.  1.
    8880022    1    1    2    0    0 -0.65051635801E+02 -0.11012206192E+03  0.15160654882E+03  0.25046912485E+03  0.15294330000E+03 0.  0.
    8880022    1    1    2    0    0  0.65051635801E+02  0.11012206192E+03  0.13780044052E+04  0.13923528208E+04  0.15294330000E+03 0. -1.
<mgrwt>
<rscale>  0 0.19937461E+03</rscale>
<asrwt>0</asrwt>
<pdfrwt beam="1">  1        2 0.24403328E+00 0.19937461E+03</pdfrwt>
<pdfrwt beam="2">  1       -2 0.87085386E-02 0.19937461E+03</pdfrwt>
<totfact> 0.10232406E+03</totfact>
</mgrwt>
</event>
<event>
 4    1  0.5410820E-008  0.4237786E+03  0.7818608E-02  0.1035843E+00
         -2   -1    0    0    0  501 -0.00000000000E+00  0.00000000000E+00  0.10938162064E+04  0.10938162064E+04  0.25500000000E-02 0.  1.
          2   -1    0    0  501    0  0.00000000000E+00 -0.00000000000E+00 -0.18766092581E+04  0.18766092581E+04  0.25500000000E-02 0. -1.
    8880022    1    1    2    0    0 -0.38369100035E+03 -0.94751557951E+02 -0.18101515507E+04  0.18590957294E+04  0.15294330000E+03 0.  0.
    8880022    1    1    2    0    0  0.38369100035E+03  0.94751557951E+02  0.10273584990E+04  0.11113297350E+04  0.15294330000E+03 0.  0.
<mgrwt>
<rscale>  0 0.42377859E+03</rscale>
<asrwt>0</asrwt>
<pdfrwt beam="1">  1        2 0.28870912E+00 0.42377859E+03</pdfrwt>
<pdfrwt beam="2">  1       -2 0.16827942E+00 0.42377859E+03</pdfrwt>
<totfact> 0.19279127E+00</totfact>
</mgrwt>
</event>
<event>
 4    1  0.5410820E-008  0.5019379E+03  0.7818608E-02  0.1013274E+00
          2   -1    0    0  501    0  0.00000000000E+00  0.00000000000E+00  0.11644259820E+04  0.11644259820E+04  0.25500000000E-02 0. -1.
         -2   -1    0    0    0  501 -0.00000000000E+00 -0.00000000000E+00 -0.51875549995E+03  0.51875549996E+03  0.25500000000E-02 0.  1.
    8880022    1    1    2    0    0  0.35200225336E+03 -0.32348790634E+03 -0.31970934726E+03  0.59510984839E+03  0.15294330000E+03 0.  0.
    8880022    1    1    2    0    0 -0.35200225336E+03  0.32348790634E+03  0.96537982927E+03  0.10880716335E+04  0.15294330000E+03 0. -1.
<mgrwt>
<rscale>  0 0.50193791E+03</rscale>
<asrwt>0</asrwt>
<pdfrwt beam="1">  1        2 0.17914246E+00 0.50193791E+03</pdfrwt>
<pdfrwt beam="2">  1       -2 0.79808538E-01 0.50193791E+03</pdfrwt>
<totfact> 0.29056528E+01</totfact>
</mgrwt>
</event>
<event>
 4    1  0.5410820E-008  0.6533475E+03  0.7818608E-02  0.9800518E-01
         -2   -1    0    0    0  501 -0.00000000000E+00  0.00000000000E+00  0.11339464613E+04  0.11339464613E+04  0.25500000000E-02 0.  1.
          2   -1    0    0  501    0  0.00000000000E+00 -0.00000000000E+00 -0.87687532257E+03  0.87687532257E+03  0.25500000000E-02 0. -1.
    8880022    1    1    2    0    0 -0.60553714514E+03  0.19182310181E+03  0.88807193041E+03  0.11025129220E+04  0.15294330000E+03 0.  0.
    8880022    1    1    2    0    0  0.60553714514E+03 -0.19182310181E+03 -0.63100079167E+03  0.90830886191E+03  0.15294330000E+03 0.  0.
<mgrwt>
<rscale>  0 0.65334753E+03</rscale>
<asrwt>0</asrwt>
<pdfrwt beam="1">  1        2 0.13490390E+00 0.65334753E+03</pdfrwt>
<pdfrwt beam="2">  1       -2 0.17445330E+00 0.65334753E+03</pdfrwt>
<totfact> 0.62255928E+00</totfact>
</mgrwt>
</event>
<event>
 4    1  0.5410820E-008  0.4523707E+03  0.7818608E-02  0.1027017E+00
         -2   -1    0    0    0  501 -0.00000000000E+00  0.00000000000E+00  0.27858545948E+03  0.27858545949E+03  0.25500000000E-02 0.  1.
          2   -1    0    0  501    0  0.00000000000E+00 -0.00000000000E+00 -0.20815257448E+04  0.20815257448E+04  0.25500000000E-02 0. -1.
    8880022    1    1    2    0    0  0.79865990768E+02 -0.41817344910E+03  0.47798137245E+02  0.45488891496E+03  0.15294330000E+03 0.  0.
    8880022    1    1    2    0    0 -0.79865990768E+02  0.41817344910E+03 -0.18507384225E+04  0.19052222893E+04  0.15294330000E+03 0.  0.
<mgrwt>
<rscale>  0 0.45237071E+03</rscale>
<asrwt>0</asrwt>
<pdfrwt beam="1">  1        2 0.32023472E+00 0.45237071E+03</pdfrwt>
<pdfrwt beam="2">  1       -2 0.42859303E-01 0.45237071E+03</pdfrwt>
<totfact> 0.33763215E+01</totfact>
</mgrwt>
</event>
<event>
 4    1  0.5410820E-008  0.2365971E+03  0.7818608E-02  0.1122081E+00
         -2   -1    0    0    0  501 -0.00000000000E+00  0.00000000000E+00  0.33197899163E+03  0.33197899164E+03  0.25500000000E-02 0.  1.
          2   -1    0    0  501    0  0.00000000000E+00 -0.00000000000E+00 -0.13418066257E+04  0.13418066257E+04  0.25500000000E-02 0. -1.
    8880022    1    1    2    0    0  0.21450932445E+02  0.17923831235E+03  0.27762969276E+03  0.36476898776E+03  0.15294330000E+03 0.  1.
    8880022    1    1    2    0    0 -0.21450932445E+02 -0.17923831235E+03 -0.12874573268E+04  0.13090166295E+04  0.15294330000E+03 0.  0.
<mgrwt>
<rscale>  0 0.23659706E+03</rscale>
<asrwt>0</asrwt>
<pdfrwt beam="1">  1        2 0.20643179E+00 0.23659706E+03</pdfrwt>
<pdfrwt beam="2">  1       -2 0.51073692E-01 0.23659706E+03</pdfrwt>
<totfact> 0.62743170E+01</totfact>
</mgrwt>
</event>
<event>
 4    1  0.5410820E-008  0.4776739E+03  0.7818608E-02  0.1019776E+00
         -2   -1    0    0    0  501 -0.00000000000E+00  0.00000000000E+00  0.11508604431E+04  0.11508604431E+04  0.25500000000E-02 0.  1.
          2   -1    0    0  501    0  0.00000000000E+00 -0.00000000000E+00 -0.82367265186E+03  0.82367265186E+03  0.25500000000E-02 0. -1.
    8880022    1    1    2    0    0  0.29154768639E+03  0.34609335604E+03 -0.69668567021E+03  0.84471488718E+03  0.15294330000E+03 0.  0.
    8880022    1    1    2    0    0 -0.29154768639E+03 -0.34609335604E+03  0.10238734614E+04  0.11298182078E+04  0.15294330000E+03 0.  0.
<mgrwt>
<rscale>  0 0.47767386E+03</rscale>
<asrwt>0</asrwt>
<pdfrwt beam="1">  1        2 0.12671887E+00 0.47767386E+03</pdfrwt>
<pdfrwt beam="2">  1       -2 0.17705545E+00 0.47767386E+03</pdfrwt>
<totfact> 0.66959833E+00</totfact>
</mgrwt>
</event>
<event>
 4    1  0.5410820E-008  0.9399525E+03  0.7818608E-02  0.9376972E-01
         -2   -1    0    0    0  501 -0.00000000000E+00  0.00000000000E+00  0.12791791792E+04  0.12791791792E+04  0.25500000000E-02 0.  1.
          2   -1    0    0  501    0  0.00000000000E+00 -0.00000000000E+00 -0.71664161907E+03  0.71664161908E+03  0.25500000000E-02 0. -1.
    8880022    1    1    2    0    0 -0.60933516086E+03  0.69916355247E+03  0.91353717424E+02  0.94438136685E+03  0.15294330000E+03 0.  0.
    8880022    1    1    2    0    0  0.60933516086E+03 -0.69916355247E+03  0.47118384274E+03  0.10514394315E+04  0.15294330000E+03 0.  0.
<mgrwt>
<rscale>  0 0.93995248E+03</rscale>
<asrwt>0</asrwt>
<pdfrwt beam="1">  1        2 0.11025256E+00 0.93995248E+03</pdfrwt>
<pdfrwt beam="2">  1       -2 0.19679679E+00 0.93995248E+03</pdfrwt>
<totfact> 0.55470857E+00</totfact>
</mgrwt>
</event>
<event>
 4    1  0.5410820E-008  0.7781132E+03  0.7818608E-02  0.9592249E-01
          2   -1    0    0  501    0  0.00000000000E+00  0.00000000000E+00  0.17289232053E+04  0.17289232053E+04  0.25500000000E-02 0. -1.
         -2   -1    0    0    0  501 -0.00000000000E+00 -0.00000000000E+00 -0.38710087473E+03  0.38710087474E+03  0.25500000000E-02 0.  1.
    8880022    1    1    2    0    0  0.68746633868E+03 -0.33084515303E+03  0.99759430179E+03  0.12651697618E+04  0.15294330000E+03 0.  1.
    8880022    1    1    2    0    0 -0.68746633868E+03  0.33084515303E+03  0.34422802876E+03  0.85085431826E+03  0.15294330000E+03 0.  0.
<mgrwt>
<rscale>  0 0.77811319E+03</rscale>
<asrwt>0</asrwt>
<pdfrwt beam="1">  1        2 0.26598818E+00 0.77811319E+03</pdfrwt>
<pdfrwt beam="2">  1       -2 0.59553982E-01 0.77811319E+03</pdfrwt>
<totfact> 0.25467316E+01</totfact>
</mgrwt>
</event>
<event>
 4    1  0.8089306E-008  0.1019471E+04  0.7818608E-02  0.9287443E-01
         -2   -1    0    0    0  501 -0.00000000000E+00  0.00000000000E+00  0.18081017354E+04  0.18081017354E+04  0.25500000000E-02 0.  1.
          2   -1    0    0  501    0  0.00000000000E+00 -0.00000000000E+00 -0.99308518585E+03  0.99308518585E+03  0.25500000000E-02 0. -1.
    8880022    1    1    2    0    0  0.37053205144E+03 -0.93735553322E+03  0.13164753324E+04  0.16650610652E+04  0.15294330000E+03 0.  0.
    8880022    1    1    2    0    0 -0.37053205144E+03  0.93735553322E+03 -0.50145878292E+03  0.11361258560E+04  0.15294330000E+03 0. -1.
<mgrwt>
<rscale>  0 0.10194710E+04</rscale>
<asrwt>0</asrwt>
<pdfrwt beam="1">  1        2 0.15278234E+00 0.10194710E+04</pdfrwt>
<pdfrwt beam="2">  1       -2 0.27816949E+00 0.10194710E+04</pdfrwt>
<totfact> 0.10974093E+00</totfact>
</mgrwt>
</event>
<event>
 4    1  0.5410820E-008  0.6728780E+03  0.7818608E-02  0.9764773E-01
         -2   -1    0    0    0  501 -0.00000000000E+00  0.00000000000E+00  0.32731753411E+03  0.32731753412E+03  0.25500000000E-02 0.  1.
          2   -1    0    0  501    0  0.00000000000E+00 -0.00000000000E+00 -0.35063136334E+04  0.35063136334E+04  0.25500000000E-02 0. -1.
    8880022    1    1    2    0    0 -0.20183723222E+03 -0.62340589087E+03 -0.30810403254E+04  0.31536604625E+04  0.15294330000E+03 0.  0.
    8880022    1    1    2    0    0  0.20183723222E+03  0.62340589087E+03 -0.97955773934E+02  0.67997070506E+03  0.15294330000E+03 0.  1.
<mgrwt>
<rscale>  0 0.67287802E+03</rscale>
<asrwt>0</asrwt>
<pdfrwt beam="1">  1        2 0.53943284E+00 0.67287802E+03</pdfrwt>
<pdfrwt beam="2">  1       -2 0.50356546E-01 0.67287802E+03</pdfrwt>
<totfact> 0.33177943E+00</totfact>
</mgrwt>
</event>
<event>
 4    1  0.5410820E-008  0.3644801E+03  0.7818608E-02  0.1056824E+00
          2   -1    0    0  501    0  0.00000000000E+00  0.00000000000E+00  0.21076511686E+04  0.21076511686E+04  0.25500000000E-02 0. -1.
         -2   -1    0    0    0  501 -0.00000000000E+00 -0.00000000000E+00 -0.14107513952E+03  0.14107513954E+03  0.25500000000E-02 0.  1.
    8880022    1    1    2    0    0 -0.33034972486E+03 -0.17975932103E+02  0.18195717779E+04  0.18557174307E+04  0.15294330000E+03 0.  0.
    8880022    1    1    2    0    0  0.33034972486E+03  0.17975932103E+02  0.14700425122E+03  0.39300887744E+03  0.15294330000E+03 0.  1.
<mgrwt>
<rscale>  0 0.36448008E+03</rscale>
<asrwt>0</asrwt>
<pdfrwt beam="1">  1        2 0.32425404E+00 0.36448008E+03</pdfrwt>
<pdfrwt beam="2">  1       -2 0.21703867E-01 0.36448008E+03</pdfrwt>
<totfact> 0.11700972E+02</totfact>
</mgrwt>
</event>
<event>
 4    1  0.5410820E-008  0.3024626E+03  0.7818608E-02  0.1084016E+00
          2   -1    0    0  501    0  0.00000000000E+00  0.00000000000E+00  0.16770964377E+04  0.16770964377E+04  0.25500000000E-02 0. -1.
         -2   -1    0    0    0  501 -0.00000000000E+00 -0.00000000000E+00 -0.21398980210E+03  0.21398980212E+03  0.25500000000E-02 0.  1.
    8880022    1    1    2    0    0  0.17345702887E+03 -0.19494782838E+03 -0.84624460329E+02  0.31407793452E+03  0.15294330000E+03 0.  1.
    8880022    1    1    2    0    0 -0.17345702887E+03  0.19494782838E+03  0.15477310959E+04  0.15770083053E+04  0.15294330000E+03 0.  0.
<mgrwt>
<rscale>  0 0.30246264E+03</rscale>
<asrwt>0</asrwt>
<pdfrwt beam="1">  1        2 0.25801485E+00 0.30246264E+03</pdfrwt>
<pdfrwt beam="2">  1       -2 0.32921507E-01 0.30246264E+03</pdfrwt>
<totfact> 0.94948857E+01</totfact>
</mgrwt>
</event>
<event>
 4    1  0.5410820E-008  0.7335443E+03  0.7818608E-02  0.9661526E-01
          2   -1    0    0  501    0  0.00000000000E+00  0.00000000000E+00  0.33408724257E+04  0.33408724257E+04  0.25500000000E-02 0. -1.
         -2   -1    0    0    0  501 -0.00000000000E+00 -0.00000000000E+00 -0.36174934101E+03  0.36174934102E+03  0.25500000000E-02 0.  1.
    8880022    1    1    2    0    0  0.15988912020E+03  0.69937907388E+03  0.11065264589E+03  0.74184316456E+03  0.15294330000E+03 0.  0.
    8880022    1    1    2    0    0 -0.15988912020E+03 -0.69937907388E+03  0.28684704388E+04  0.29607786021E+04  0.15294330000E+03 0.  0.
<mgrwt>
<rscale>  0 0.73354432E+03</rscale>
<asrwt>0</asrwt>
<pdfrwt beam="1">  1        2 0.51398035E+00 0.73354432E+03</pdfrwt>
<pdfrwt beam="2">  1       -2 0.55653747E-01 0.73354432E+03</pdfrwt>
<totfact> 0.34359743E+00</totfact>
</mgrwt>
</event>
<event>
 4    1  0.5410820E-008  0.2178513E+03  0.7818608E-02  0.1135495E+00
          2   -1    0    0  501    0  0.00000000000E+00  0.00000000000E+00  0.13972172353E+04  0.13972172353E+04  0.25500000000E-02 0. -1.
         -2   -1    0    0    0  501 -0.00000000000E+00 -0.00000000000E+00 -0.37314091179E+03  0.37314091180E+03  0.25500000000E-02 0.  1.
    8880022    1    1    2    0    0  0.12686504189E+03 -0.89290540816E+02  0.13559672636E+04  0.13733558944E+04  0.15294330000E+03 0. -1.
    8880022    1    1    2    0    0 -0.12686504189E+03  0.89290540816E+02 -0.33189094011E+03  0.39700225274E+03  0.15294330000E+03 0.  0.
<mgrwt>
<rscale>  0 0.21785131E+03</rscale>
<asrwt>0</asrwt>
<pdfrwt beam="1">  1        2 0.21495650E+00 0.21785131E+03</pdfrwt>
<pdfrwt beam="2">  1       -2 0.57406295E-01 0.21785131E+03</pdfrwt>
<totfact> 0.46468044E+01</totfact>
</mgrwt>
</event>
<event>
 4    1  0.5410820E-008  0.5850680E+03  0.7818608E-02  0.9936879E-01
         -2   -1    0    0    0  501 -0.00000000000E+00  0.00000000000E+00  0.23460790433E+03  0.23460790434E+03  0.25500000000E-02 0.  1.
          2   -1    0    0  501    0  0.00000000000E+00 -0.00000000000E+00 -0.23009917507E+04  0.23009917507E+04  0.25500000000E-02 0. -1.
    8880022    1    1    2    0    0 -0.64038222249E+01  0.56468746948E+03 -0.18000839976E+04  0.18927775882E+04  0.15294330000E+03 0.  0.
    8880022    1    1    2    0    0  0.64038222249E+01 -0.56468746948E+03 -0.26629984881E+03  0.64282206684E+03  0.15294330000E+03 0.  0.
<mgrwt>
<rscale>  0 0.58506803E+03</rscale>
<asrwt>0</asrwt>
<pdfrwt beam="1">  1        2 0.35399872E+00 0.58506803E+03</pdfrwt>
<pdfrwt beam="2">  1       -2 0.36093525E-01 0.58506803E+03</pdfrwt>
<totfact> 0.34819430E+01</totfact>
</mgrwt>
</event>
<event>
 4    1  0.5410820E-008  0.5569518E+03  0.7818608E-02  0.9998975E-01
          2   -1    0    0  501    0  0.00000000000E+00  0.00000000000E+00  0.16671748844E+04  0.16671748844E+04  0.25500000000E-02 0. -1.
         -2   -1    0    0    0  501 -0.00000000000E+00 -0.00000000000E+00 -0.32186857416E+03  0.32186857417E+03  0.25500000000E-02 0.  1.
    8880022    1    1    2    0    0 -0.40877246507E+03 -0.34598948298E+03  0.13186611148E+04  0.14314546585E+04  0.15294330000E+03 0.  0.
    8880022    1    1    2    0    0  0.40877246507E+03  0.34598948298E+03  0.26645195425E+02  0.55758880009E+03  0.15294330000E+03 0.  0.
<mgrwt>
<rscale>  0 0.55695180E+03</rscale>
<asrwt>0</asrwt>
<pdfrwt beam="1">  1        2 0.25648844E+00 0.55695180E+03</pdfrwt>
<pdfrwt beam="2">  1       -2 0.49518242E-01 0.55695180E+03</pdfrwt>
<totfact> 0.41522198E+01</totfact>
</mgrwt>
</event>
<event>
 4    1  0.5410820E-008  0.4345507E+03  0.7818608E-02  0.1032432E+00
          2   -1    0    0  501    0  0.00000000000E+00  0.00000000000E+00  0.22111746947E+04  0.22111746947E+04  0.25500000000E-02 0. -1.
         -2   -1    0    0    0  501 -0.00000000000E+00 -0.00000000000E+00 -0.33608296559E+03  0.33608296560E+03  0.25500000000E-02 0.  1.
    8880022    1    1    2    0    0  0.31181102486E+03  0.26118302257E+03  0.20375188890E+04  0.20833428817E+04  0.15294330000E+03 0.  0.
    8880022    1    1    2    0    0 -0.31181102486E+03 -0.26118302257E+03 -0.16242715993E+03  0.46391477860E+03  0.15294330000E+03 0.  1.
<mgrwt>
<rscale>  0 0.43455073E+03</rscale>
<asrwt>0</asrwt>
<pdfrwt beam="1">  1        2 0.34018072E+00 0.43455073E+03</pdfrwt>
<pdfrwt beam="2">  1       -2 0.51705073E-01 0.43455073E+03</pdfrwt>
<totfact> 0.19847704E+01</totfact>
</mgrwt>
</event>
<event>
 4    1  0.5410820E-008  0.4621161E+03  0.7818608E-02  0.1024169E+00
         -2   -1    0    0    0  501 -0.00000000000E+00  0.00000000000E+00  0.14334851193E+03  0.14334851195E+03  0.25500000000E-02 0.  1.
          2   -1    0    0  501    0  0.00000000000E+00 -0.00000000000E+00 -0.18188829555E+04  0.18188829555E+04  0.25500000000E-02 0. -1.
    8880022    1    1    2    0    0 -0.20381087546E+02 -0.43559647654E+03 -0.12551295784E+04  0.13374982582E+04  0.15294330000E+03 0.  0.
    8880022    1    1    2    0    0  0.20381087546E+02  0.43559647654E+03 -0.42040486525E+03  0.62473320933E+03  0.15294330000E+03 0.  0.
<mgrwt>
<rscale>  0 0.46211615E+03</rscale>
<asrwt>0</asrwt>
<pdfrwt beam="1">  1        2 0.27982813E+00 0.46211615E+03</pdfrwt>
<pdfrwt beam="2">  1       -2 0.22053619E-01 0.46211615E+03</pdfrwt>
<totfact> 0.15953534E+02</totfact>
</mgrwt>
</event>
<event>
 4    1  0.1128592E-007  0.9218800E+03  0.7818608E-02  0.9398636E-01
          2   -1    0    0  501    0  0.00000000000E+00  0.00000000000E+00  0.28764944718E+04  0.28764944718E+04  0.25500000000E-02 0. -1.
         -2   -1    0    0    0  501 -0.00000000000E+00 -0.00000000000E+00 -0.13934498194E+04  0.13934498195E+04  0.25500000000E-02 0.  1.
    8880022    1    1    2    0    0  0.23490635936E+03  0.87823122739E+03  0.26366894439E+04  0.27932049626E+04  0.15294330000E+03 0.  0.
    8880022    1    1    2    0    0 -0.23490635936E+03 -0.87823122739E+03 -0.11536447916E+04  0.14767393286E+04  0.15294330000E+03 0.  0.
<mgrwt>
<rscale>  0 0.92188000E+03</rscale>
<asrwt>0</asrwt>
<pdfrwt beam="1">  1        2 0.44253760E+00 0.92188000E+03</pdfrwt>
<pdfrwt beam="2">  1       -2 0.21437690E+00 0.92188000E+03</pdfrwt>
<totfact> 0.22999694E-01</totfact>
</mgrwt>
</event>
<event>
 4    1  0.5410820E-008  0.2832982E+03  0.7818608E-02  0.1093901E+00
          2   -1    0    0  501    0  0.00000000000E+00  0.00000000000E+00  0.83439541079E+03  0.83439541079E+03  0.25500000000E-02 0. -1.
         -2   -1    0    0    0  501 -0.00000000000E+00 -0.00000000000E+00 -0.63297023710E+03  0.63297023710E+03  0.25500000000E-02 0.  1.
    8880022    1    1    2    0    0 -0.13108133660E+03 -0.19920815545E+03  0.77635397254E+03  0.82642806687E+03  0.15294330000E+03 0.  0.
    8880022    1    1    2    0    0  0.13108133660E+03  0.19920815545E+03 -0.57492879885E+03  0.64093758103E+03  0.15294330000E+03 0.  1.
<mgrwt>
<rscale>  0 0.28329818E+03</rscale>
<asrwt>0</asrwt>
<pdfrwt beam="1">  1        2 0.12836853E+00 0.28329818E+03</pdfrwt>
<pdfrwt beam="2">  1       -2 0.97380036E-01 0.28329818E+03</pdfrwt>
<totfact> 0.31032053E+01</totfact>
</mgrwt>
</event>
<event>
 4    1  0.5410820E-008  0.7812536E+03  0.7818608E-02  0.9587555E-01
          2   -1    0    0  501    0  0.00000000000E+00  0.00000000000E+00  0.30228491102E+04  0.30228491102E+04  0.25500000000E-02 0. -1.
         -2   -1    0    0    0  501 -0.00000000000E+00 -0.00000000000E+00 -0.31006859920E+03  0.31006859921E+03  0.25500000000E-02 0.  1.
    8880022    1    1    2    0    0  0.64655865092E+03 -0.41100783784E+03  0.37218174650E+03  0.86537647142E+03  0.15294330000E+03 0.  0.
    8880022    1    1    2    0    0 -0.64655865092E+03  0.41100783784E+03  0.23405987645E+04  0.24675412380E+04  0.15294330000E+03 0.  0.
<mgrwt>
<rscale>  0 0.78125360E+03</rscale>
<asrwt>0</asrwt>
<pdfrwt beam="1">  1        2 0.46505371E+00 0.78125360E+03</pdfrwt>
<pdfrwt beam="2">  1       -2 0.47702862E-01 0.78125360E+03</pdfrwt>
<totfact> 0.74306051E+00</totfact>
</mgrwt>
</event>
<event>
 4    1  0.5410820E-008  0.7259102E+03  0.7818608E-02  0.9673920E-01
         -2   -1    0    0    0  501 -0.00000000000E+00  0.00000000000E+00  0.17291314699E+03  0.17291314700E+03  0.25500000000E-02 0.  1.
          2   -1    0    0  501    0  0.00000000000E+00 -0.00000000000E+00 -0.36692594743E+04  0.36692594743E+04  0.25500000000E-02 0. -1.
    8880022    1    1    2    0    0 -0.57046754713E+03 -0.42204345182E+03 -0.25390039069E+04  0.26407359561E+04  0.15294330000E+03 0.  0.
    8880022    1    1    2    0    0  0.57046754713E+03  0.42204345182E+03 -0.95734242040E+03  0.12014366652E+04  0.15294330000E+03 0.  0.
<mgrwt>
<rscale>  0 0.72591015E+03</rscale>
<asrwt>0</asrwt>
<pdfrwt beam="1">  1        2 0.56450140E+00 0.72591015E+03</pdfrwt>
<pdfrwt beam="2">  1       -2 0.26602025E-01 0.72591015E+03</pdfrwt>
<totfact> 0.85993931E+00</totfact>
</mgrwt>
</event>
<event>
 4    1  0.5410820E-008  0.5387904E+03  0.7818608E-02  0.1004122E+00
          2   -1    0    0  501    0  0.00000000000E+00  0.00000000000E+00  0.50704684655E+03  0.50704684656E+03  0.25500000000E-02 0. -1.
         -2   -1    0    0    0  501 -0.00000000000E+00 -0.00000000000E+00 -0.37402761725E+04  0.37402761725E+04  0.25500000000E-02 0.  1.
    8880022    1    1    2    0    0  0.35509503089E+03  0.37524781795E+03 -0.35709957556E+04  0.36114132615E+04  0.15294330000E+03 0.  0.
    8880022    1    1    2    0    0 -0.35509503089E+03 -0.37524781795E+03  0.33776642960E+03  0.63590975760E+03  0.15294330000E+03 0. -1.
<mgrwt>
<rscale>  0 0.53879037E+03</rscale>
<asrwt>0</asrwt>
<pdfrwt beam="1">  1        2 0.78007210E-01 0.53879037E+03</pdfrwt>
<pdfrwt beam="2">  1       -2 0.57542709E+00 0.53879037E+03</pdfrwt>
<totfact> 0.42057730E-02</totfact>
</mgrwt>
</event>
<event>
 4    1  0.5747204E-008  0.8195462E+03  0.7818608E-02  0.9532148E-01
         -2   -1    0    0    0  501 -0.00000000000E+00  0.00000000000E+00  0.59953627764E+03  0.59953627765E+03  0.25500000000E-02 0.  1.
          2   -1    0    0  501    0  0.00000000000E+00 -0.00000000000E+00 -0.25878317544E+04  0.25878317544E+04  0.25500000000E-02 0. -1.
    8880022    1    1    2    0    0 -0.78212283293E+02 -0.80134084022E+03 -0.21942798909E+04  0.23423322130E+04  0.15294330000E+03 0.  0.
    8880022    1    1    2    0    0  0.78212283293E+02  0.80134084022E+03  0.20598441420E+03  0.84503581899E+03  0.15294330000E+03 0.  0.
<mgrwt>
<rscale>  0 0.81954619E+03</rscale>
<asrwt>0</asrwt>
<pdfrwt beam="1">  1        2 0.39812796E+00 0.81954619E+03</pdfrwt>
<pdfrwt beam="2">  1       -2 0.92236352E-01 0.81954619E+03</pdfrwt>
<totfact> 0.32117266E+00</totfact>
</mgrwt>
</event>
<event>
 4    1  0.5410820E-008  0.8618326E+03  0.7818608E-02  0.9474592E-01
         -2   -1    0    0    0  501 -0.00000000000E+00  0.00000000000E+00  0.48595147625E+03  0.48595147626E+03  0.25500000000E-02 0.  1.
          2   -1    0    0  501    0  0.00000000000E+00 -0.00000000000E+00 -0.20320276218E+04  0.20320276218E+04  0.25500000000E-02 0. -1.
    8880022    1    1    2    0    0 -0.60075237942E+03  0.59871562715E+03 -0.14629733936E+03  0.87416153432E+03  0.15294330000E+03 0.  0.
    8880022    1    1    2    0    0  0.60075237942E+03 -0.59871562715E+03 -0.13997788062E+04  0.16438175637E+04  0.15294330000E+03 0.  0.
<mgrwt>
<rscale>  0 0.86183263E+03</rscale>
<asrwt>0</asrwt>
<pdfrwt beam="1">  1        2 0.31261963E+00 0.86183263E+03</pdfrwt>
<pdfrwt beam="2">  1       -2 0.74761767E-01 0.86183263E+03</pdfrwt>
<totfact> 0.10516884E+01</totfact>
</mgrwt>
</event>
<event>
 4    1  0.5410820E-008  0.4159206E+03  0.7818608E-02  0.1038402E+00
         -2   -1    0    0    0  501 -0.00000000000E+00  0.00000000000E+00  0.88135204801E+03  0.88135204801E+03  0.25500000000E-02 0.  1.
          2   -1    0    0  501    0  0.00000000000E+00 -0.00000000000E+00 -0.32582140445E+03  0.32582140446E+03  0.25500000000E-02 0. -1.
    8880022    1    1    2    0    0 -0.38665919582E+03  0.96421352346E+01  0.65835555716E+03  0.77873101719E+03  0.15294330000E+03 0.  0.
    8880022    1    1    2    0    0  0.38665919582E+03 -0.96421352346E+01 -0.10282491360E+03  0.42844243529E+03  0.15294330000E+03 0.  0.
<mgrwt>
<rscale>  0 0.41592061E+03</rscale>
<asrwt>0</asrwt>
<pdfrwt beam="1">  1        2 0.50126371E-01 0.41592061E+03</pdfrwt>
<pdfrwt beam="2">  1       -2 0.13559262E+00 0.41592061E+03</pdfrwt>
<totfact> 0.40625460E+01</totfact>
</mgrwt>
</event>
