<event>
 4    1  0.3875622E-001  0.2143538E+03  0.7546771E-02  0.1138164E+00
         21   -1    0    0  501  502  0.00000000000E+00  0.00000000000E+00  0.61821243077E+02  0.61821243077E+02  0.00000000000E+00 0.  1.
         21   -1    0    0  502  503 -0.00000000000E+00 -0.00000000000E+00 -0.74890179121E+03  0.74890179121E+03  0.00000000000E+00 0. -1.
          6    1    1    2  501    0 -0.12191700864E+03  0.33982271742E+02 -0.30827090251E+03  0.37547103899E+03  0.17300000000E+03 0.  1.
         -6    1    1    2    0  503  0.12191700864E+03 -0.33982271742E+02 -0.37880964562E+03  0.43525199529E+03  0.17300000000E+03 0. -1.
<mgrwt>
<rscale>  2 0.21435380E+03</rscale>
<asrwt>0</asrwt>
<pdfrwt beam="1">  1       21 0.95109608E-02 0.21435380E+03</pdfrwt>
<pdfrwt beam="2">  1       21 0.11521566E+00 0.21435380E+03</pdfrwt>
<totfact> 0.51159133E+04</totfact>
</mgrwt>
</event>
<event>
 4    1  0.3875622E-001  0.2044164E+03  0.7546771E-02  0.1146065E+00
         21   -1    0    0  501  502  0.00000000000E+00  0.00000000000E+00  0.12413919229E+03  0.12413919229E+03  0.00000000000E+00 0.  1.
         21   -1    0    0  502  503 -0.00000000000E+00 -0.00000000000E+00 -0.33875585858E+03  0.33875585858E+03  0.00000000000E+00 0.  1.
          6    1    1    2  501    0 -0.85238677698E+02 -0.67760239752E+02 -0.12574339761E+03  0.23999475892E+03  0.17300000000E+03 0.  1.
         -6    1    1    2    0  503  0.85238677698E+02  0.67760239752E+02 -0.88873268687E+02  0.22290029196E+03  0.17300000000E+03 0.  1.
<mgrwt>
<rscale>  2 0.20441644E+03</rscale>
<asrwt>0</asrwt>
<pdfrwt beam="1">  1       21 0.19098337E-01 0.20441644E+03</pdfrwt>
<pdfrwt beam="2">  1       21 0.52116286E-01 0.20441644E+03</pdfrwt>
<totfact> 0.87457899E+04</totfact>
</mgrwt>
</event>
<event>
 4    1  0.3875622E-001  0.1836507E+03  0.7546771E-02  0.1164316E+00
         21   -1    0    0  503  502  0.00000000000E+00  0.00000000000E+00  0.10378783594E+03  0.10378783594E+03  0.00000000000E+00 0.  1.
         21   -1    0    0  501  503 -0.00000000000E+00 -0.00000000000E+00 -0.36280236051E+03  0.36280236051E+03  0.00000000000E+00 0.  1.
          6    1    1    2  501    0 -0.10923800795E+02  0.60656791548E+02 -0.20484664164E+03  0.27511765188E+03  0.17300000000E+03 0.  1.
         -6    1    1    2    0  502  0.10923800795E+02 -0.60656791548E+02 -0.54167882938E+02  0.19147254458E+03  0.17300000000E+03 0.  1.
<mgrwt>
<rscale>  2 0.18365069E+03</rscale>
<asrwt>0</asrwt>
<pdfrwt beam="1">  1       21 0.15967359E-01 0.18365069E+03</pdfrwt>
<pdfrwt beam="2">  1       21 0.55815749E-01 0.18365069E+03</pdfrwt>
<totfact> 0.10617012E+05</totfact>
</mgrwt>
</event>
<event>
 4    1  0.3875622E-001  0.1906589E+03  0.7546771E-02  0.1157868E+00
         21   -1    0    0  503  502  0.00000000000E+00  0.00000000000E+00  0.18779923109E+03  0.18779923109E+03  0.00000000000E+00 0.  1.
         21   -1    0    0  501  503 -0.00000000000E+00 -0.00000000000E+00 -0.19457176681E+03  0.19457176681E+03  0.00000000000E+00 0.  1.
          6    1    1    2  501    0 -0.49753579178E+02  0.62820497904E+02  0.10385227971E+02  0.19094157891E+03  0.17300000000E+03 0. -1.
         -6    1    1    2    0  502  0.49753579178E+02 -0.62820497904E+02 -0.17157763690E+02  0.19142941898E+03  0.17300000000E+03 0. -1.
<mgrwt>
<rscale>  2 0.19065895E+03</rscale>
<asrwt>0</asrwt>
<pdfrwt beam="1">  1       21 0.28892189E-01 0.19065895E+03</pdfrwt>
<pdfrwt beam="2">  1       21 0.29934118E-01 0.19065895E+03</pdfrwt>
<totfact> 0.12278955E+05</totfact>
</mgrwt>
</event>
<event>
 4    1  0.3875622E-001  0.2590672E+03  0.7546771E-02  0.1107705E+00
         21   -1    0    0  501  502  0.00000000000E+00  0.00000000000E+00  0.19567327303E+04  0.19567327303E+04  0.00000000000E+00 0. -1.
         21   -1    0    0  502  503 -0.00000000000E+00 -0.00000000000E+00 -0.35346121021E+02  0.35346121021E+02  0.00000000000E+00 0. -1.
          6    1    1    2  501    0 -0.15158475378E+03 -0.11920105032E+03  0.78933398962E+03  0.83076108186E+03  0.17300000000E+03 0. -1.
         -6    1    1    2    0  503  0.15158475378E+03  0.11920105032E+03  0.11320526196E+04  0.11613177694E+04  0.17300000000E+03 0. -1.
<mgrwt>
<rscale>  2 0.25906723E+03</rscale>
<asrwt>0</asrwt>
<pdfrwt beam="1">  1       21 0.30103572E+00 0.25906723E+03</pdfrwt>
<pdfrwt beam="2">  1       21 0.54378663E-02 0.25906723E+03</pdfrwt>
<totfact> 0.73653455E+03</totfact>
</mgrwt>
</event>
<event>
 4    1  0.3875622E-001  0.2326435E+03  0.7546771E-02  0.1124793E+00
         21   -1    0    0  501  502  0.00000000000E+00  0.00000000000E+00  0.42809610756E+03  0.42809610756E+03  0.00000000000E+00 0.  1.
         21   -1    0    0  502  503 -0.00000000000E+00 -0.00000000000E+00 -0.14988126115E+03  0.14988126115E+03  0.00000000000E+00 0.  1.
          6    1    1    2  501    0 -0.15376548313E+03 -0.23455913879E+02  0.24789073439E+02  0.23396047072E+03  0.17300000000E+03 0.  1.
         -6    1    1    2    0  503  0.15376548313E+03  0.23455913879E+02  0.25342577297E+03  0.34401689799E+03  0.17300000000E+03 0.  1.
<mgrwt>
<rscale>  2 0.23264351E+03</rscale>
<asrwt>0</asrwt>
<pdfrwt beam="1">  1       21 0.65860939E-01 0.23264351E+03</pdfrwt>
<pdfrwt beam="2">  1       21 0.23058656E-01 0.23264351E+03</pdfrwt>
<totfact> 0.36665943E+04</totfact>
</mgrwt>
</event>
<event>
 4    1  0.3875622E-001  0.1914453E+03  0.7546771E-02  0.1157164E+00
         21   -1    0    0  501  502  0.00000000000E+00  0.00000000000E+00  0.11177579233E+03  0.11177579233E+03  0.00000000000E+00 0.  1.
         21   -1    0    0  502  503 -0.00000000000E+00 -0.00000000000E+00 -0.36501420793E+03  0.36501420793E+03  0.00000000000E+00 0.  1.
          6    1    1    2  501    0 -0.41768762766E+02 -0.70552544295E+02 -0.50602002626E+02  0.19801983163E+03  0.17300000000E+03 0.  1.
         -6    1    1    2    0  503  0.41768762766E+02  0.70552544295E+02 -0.20263641298E+03  0.27877016862E+03  0.17300000000E+03 0.  1.
<mgrwt>
<rscale>  2 0.19144527E+03</rscale>
<asrwt>0</asrwt>
<pdfrwt beam="1">  1       21 0.17196276E-01 0.19144527E+03</pdfrwt>
<pdfrwt beam="2">  1       21 0.56156032E-01 0.19144527E+03</pdfrwt>
<totfact> 0.91213328E+04</totfact>
</mgrwt>
</event>
<event>
 4    1  0.3875622E-001  0.1970873E+03  0.7546771E-02  0.1152220E+00
         21   -1    0    0  501  502  0.00000000000E+00  0.00000000000E+00  0.10937153629E+04  0.10937153629E+04  0.00000000000E+00 0.  1.
         21   -1    0    0  502  503 -0.00000000000E+00 -0.00000000000E+00 -0.42326039674E+02  0.42326039674E+02  0.00000000000E+00 0.  1.
          6    1    1    2  501    0  0.31246944536E+02  0.89095536199E+02  0.75355281512E+03  0.77890001367E+03  0.17300000000E+03 0.  1.
         -6    1    1    2    0  503 -0.31246944536E+02 -0.89095536199E+02  0.29783650813E+03  0.35714138893E+03  0.17300000000E+03 0.  1.
<mgrwt>
<rscale>  2 0.19708726E+03</rscale>
<asrwt>0</asrwt>
<pdfrwt beam="1">  1       21 0.16826388E+00 0.19708726E+03</pdfrwt>
<pdfrwt beam="2">  1       21 0.65116993E-02 0.19708726E+03</pdfrwt>
<totfact> 0.37502029E+04</totfact>
</mgrwt>
</event>
<event>
 4    1  0.3875622E-001  0.2182485E+03  0.7546771E-02  0.1135196E+00
         21   -1    0    0  503  502  0.00000000000E+00  0.00000000000E+00  0.80147268375E+03  0.80147268375E+03  0.00000000000E+00 0.  1.
         21   -1    0    0  501  503 -0.00000000000E+00 -0.00000000000E+00 -0.59701740605E+02  0.59701740605E+02  0.00000000000E+00 0.  1.
          6    1    1    2  501    0 -0.49088527347E+02 -0.12366778141E+03  0.39987650171E+03  0.45555858053E+03  0.17300000000E+03 0.  1.
         -6    1    1    2    0  502  0.49088527347E+02  0.12366778141E+03  0.34189444144E+03  0.40561584383E+03  0.17300000000E+03 0.  1.
<mgrwt>
<rscale>  2 0.21824849E+03</rscale>
<asrwt>0</asrwt>
<pdfrwt beam="1">  1       21 0.12330348E+00 0.21824849E+03</pdfrwt>
<pdfrwt beam="2">  1       21 0.91848837E-02 0.21824849E+03</pdfrwt>
<totfact> 0.45897039E+04</totfact>
</mgrwt>
</event>
<event>
 4    1  0.3875622E-001  0.2741475E+03  0.7546771E-02  0.1098929E+00
         21   -1    0    0  501  502  0.00000000000E+00  0.00000000000E+00  0.37716662264E+02  0.37716662264E+02  0.00000000000E+00 0. -1.
         21   -1    0    0  502  503 -0.00000000000E+00 -0.00000000000E+00 -0.20935785771E+04  0.20935785771E+04  0.00000000000E+00 0.  1.
          6    1    1    2  501    0 -0.20438302889E+03 -0.58782730823E+02 -0.12618872378E+04  0.12913234424E+04  0.17300000000E+03 0.  1.
         -6    1    1    2    0  503  0.20438302889E+03  0.58782730823E+02 -0.79397467709E+03  0.83997179703E+03  0.17300000000E+03 0. -1.
<mgrwt>
<rscale>  2 0.27414746E+03</rscale>
<asrwt>0</asrwt>
<pdfrwt beam="1">  1       21 0.58025629E-02 0.27414746E+03</pdfrwt>
<pdfrwt beam="2">  1       21 0.32208904E+00 0.27414746E+03</pdfrwt>
<totfact> 0.48928124E+03</totfact>
</mgrwt>
</event>
<event>
 4    1  0.3875622E-001  0.2004726E+03  0.7546771E-02  0.1149341E+00
         21   -1    0    0  501  502  0.00000000000E+00  0.00000000000E+00  0.74049990602E+02  0.74049990602E+02  0.00000000000E+00 0.  1.
         21   -1    0    0  502  503 -0.00000000000E+00 -0.00000000000E+00 -0.57225391312E+03  0.57225391312E+03  0.00000000000E+00 0.  1.
          6    1    1    2  501    0 -0.82448429692E+02  0.58843117156E+02 -0.17570315985E+03  0.26657242238E+03  0.17300000000E+03 0.  1.
         -6    1    1    2    0  503  0.82448429692E+02 -0.58843117156E+02 -0.32250076267E+03  0.37973148133E+03  0.17300000000E+03 0.  1.
<mgrwt>
<rscale>  2 0.20047258E+03</rscale>
<asrwt>0</asrwt>
<pdfrwt beam="1">  1       21 0.11392307E-01 0.20047258E+03</pdfrwt>
<pdfrwt beam="2">  1       21 0.88039061E-01 0.20047258E+03</pdfrwt>
<totfact> 0.70917785E+04</totfact>
</mgrwt>
</event>
<event>
 4    1  0.3875622E-001  0.1949715E+03  0.7546771E-02  0.1154052E+00
         21   -1    0    0  503  502  0.00000000000E+00  0.00000000000E+00  0.87709846878E+03  0.87709846878E+03  0.00000000000E+00 0.  1.
         21   -1    0    0  501  503 -0.00000000000E+00 -0.00000000000E+00 -0.52911291614E+02  0.52911291614E+02  0.00000000000E+00 0.  1.
          6    1    1    2  501    0  0.88386037096E+02 -0.16516515429E+02  0.21432503256E+03  0.28973972185E+03  0.17300000000E+03 0.  1.
         -6    1    1    2    0  502 -0.88386037096E+02  0.16516515429E+02  0.60986214461E+03  0.64027003855E+03  0.17300000000E+03 0.  1.
<mgrwt>
<rscale>  2 0.19497150E+03</rscale>
<asrwt>0</asrwt>
<pdfrwt beam="1">  1       21 0.13493822E+00 0.19497150E+03</pdfrwt>
<pdfrwt beam="2">  1       21 0.81401993E-02 0.19497150E+03</pdfrwt>
<totfact> 0.45731528E+04</totfact>
</mgrwt>
</event>
<event>
 4    1  0.3875622E-001  0.2275560E+03  0.7546771E-02  0.1128372E+00
         21   -1    0    0  503  502  0.00000000000E+00  0.00000000000E+00  0.24802256500E+03  0.24802256500E+03  0.00000000000E+00 0. -1.
         21   -1    0    0  501  503 -0.00000000000E+00 -0.00000000000E+00 -0.21388468187E+03  0.21388468187E+03  0.00000000000E+00 0. -1.
          6    1    1    2  501    0  0.11868751544E+03  0.88124917012E+02 -0.18616572262E+02  0.22831623701E+03  0.17300000000E+03 0. -1.
         -6    1    1    2    0  502 -0.11868751544E+03 -0.88124917012E+02  0.52754455396E+02  0.23359100985E+03  0.17300000000E+03 0. -1.
<mgrwt>
<rscale>  2 0.22755599E+03</rscale>
<asrwt>0</asrwt>
<pdfrwt beam="1">  1       21 0.38157318E-01 0.22755599E+03</pdfrwt>
<pdfrwt beam="2">  1       21 0.32905336E-01 0.22755599E+03</pdfrwt>
<totfact> 0.57973423E+04</totfact>
</mgrwt>
</event>
<event>
 4    1  0.3875622E-001  0.2113519E+03  0.7546771E-02  0.1140500E+00
         21   -1    0    0  503  502  0.00000000000E+00  0.00000000000E+00  0.60696267779E+02  0.60696267779E+02  0.00000000000E+00 0. -1.
         21   -1    0    0  501  503 -0.00000000000E+00 -0.00000000000E+00 -0.73761880468E+03  0.73761880468E+03  0.00000000000E+00 0. -1.
          6    1    1    2  501    0  0.46041701826E+00 -0.12141011009E+03 -0.35742760957E+03  0.41523983781E+03  0.17300000000E+03 0. -1.
         -6    1    1    2    0  502 -0.46041701826E+00  0.12141011009E+03 -0.31949492733E+03  0.38307523465E+03  0.17300000000E+03 0. -1.
<mgrwt>
<rscale>  2 0.21135190E+03</rscale>
<asrwt>0</asrwt>
<pdfrwt beam="1">  1       21 0.93378881E-02 0.21135190E+03</pdfrwt>
<pdfrwt beam="2">  1       21 0.11347981E+00 0.21135190E+03</pdfrwt>
<totfact> 0.54921444E+04</totfact>
</mgrwt>
</event>
<event>
 4    1  0.3875622E-001  0.1821323E+03  0.7546771E-02  0.1165755E+00
         21   -1    0    0  501  502  0.00000000000E+00  0.00000000000E+00  0.44103442619E+03  0.44103442619E+03  0.00000000000E+00 0.  1.
         21   -1    0    0  502  503 -0.00000000000E+00 -0.00000000000E+00 -0.78327482877E+02  0.78327482877E+02  0.00000000000E+00 0.  1.
          6    1    1    2  501    0  0.50453195011E+02 -0.26413028611E+02  0.23312286797E+03  0.29583516447E+03  0.17300000000E+03 0.  1.
         -6    1    1    2    0  503 -0.50453195011E+02  0.26413028611E+02  0.12958407534E+03  0.22352674460E+03  0.17300000000E+03 0.  1.
<mgrwt>
<rscale>  2 0.18213230E+03</rscale>
<asrwt>0</asrwt>
<pdfrwt beam="1">  1       21 0.67851449E-01 0.18213230E+03</pdfrwt>
<pdfrwt beam="2">  1       21 0.12050382E-01 0.18213230E+03</pdfrwt>
<totfact> 0.11602367E+05</totfact>
</mgrwt>
</event>
<event>
 4    1  0.3875622E-001  0.1911899E+03  0.7546771E-02  0.1157392E+00
         21   -1    0    0  503  502  0.00000000000E+00  0.00000000000E+00  0.31494454941E+02  0.31494454941E+02  0.00000000000E+00 0. -1.
         21   -1    0    0  501  503 -0.00000000000E+00 -0.00000000000E+00 -0.15831182783E+04  0.15831182783E+04  0.00000000000E+00 0. -1.
          6    1    1    2  501    0  0.78061190904E+02 -0.23044263742E+02 -0.11928599828E+04  0.12080846519E+04  0.17300000000E+03 0. -1.
         -6    1    1    2    0  502 -0.78061190904E+02  0.23044263742E+02 -0.35876384055E+03  0.40652808132E+03  0.17300000000E+03 0. -1.
<mgrwt>
<rscale>  2 0.19118993E+03</rscale>
<asrwt>0</asrwt>
<pdfrwt beam="1">  1       21 0.48453008E-02 0.19118993E+03</pdfrwt>
<pdfrwt beam="2">  1       21 0.24355666E+00 0.19118993E+03</pdfrwt>
<totfact> 0.20615489E+04</totfact>
</mgrwt>
</event>
<event>
 4    1  0.3875622E-001  0.3210121E+03  0.7546771E-02  0.1075184E+00
         21   -1    0    0  503  502  0.00000000000E+00  0.00000000000E+00  0.30047460476E+03  0.30047460476E+03  0.00000000000E+00 0. -1.
         21   -1    0    0  501  503 -0.00000000000E+00 -0.00000000000E+00 -0.34997710914E+03  0.34997710914E+03  0.00000000000E+00 0. -1.
          6    1    1    2  501    0  0.23566074610E+03  0.13260390917E+03  0.21321997970E+02  0.32171946098E+03  0.17300000000E+03 0. -1.
         -6    1    1    2    0  502 -0.23566074610E+03 -0.13260390917E+03 -0.70824502343E+02  0.32873225292E+03  0.17300000000E+03 0. -1.
<mgrwt>
<rscale>  2 0.32101212E+03</rscale>
<asrwt>0</asrwt>
<pdfrwt beam="1">  1       21 0.46226862E-01 0.32101212E+03</pdfrwt>
<pdfrwt beam="2">  1       21 0.53842632E-01 0.32101212E+03</pdfrwt>
<totfact> 0.13700256E+04</totfact>
</mgrwt>
</event>
<event>
 4    1  0.3875622E-001  0.1738212E+03  0.7546771E-02  0.1173921E+00
         21   -1    0    0  503  502  0.00000000000E+00  0.00000000000E+00  0.17035952884E+03  0.17035952884E+03  0.00000000000E+00 0.  1.
         21   -1    0    0  501  503 -0.00000000000E+00 -0.00000000000E+00 -0.24249501671E+03  0.24249501671E+03  0.00000000000E+00 0.  1.
          6    1    1    2  501    0 -0.11519455665E+02 -0.12333253201E+02  0.70922853001E+02  0.18773347616E+03  0.17300000000E+03 0.  1.
         -6    1    1    2    0  502  0.11519455665E+02  0.12333253201E+02 -0.14305834087E+03  0.22512106940E+03  0.17300000000E+03 0.  1.
<mgrwt>
<rscale>  2 0.17382119E+03</rscale>
<asrwt>0</asrwt>
<pdfrwt beam="1">  1       21 0.26209158E-01 0.17382119E+03</pdfrwt>
<pdfrwt beam="2">  1       21 0.37306925E-01 0.17382119E+03</pdfrwt>
<totfact> 0.96585186E+04</totfact>
</mgrwt>
</event>
<event>
 4    1  0.3875622E-001  0.1967752E+03  0.7546771E-02  0.1152489E+00
         21   -1    0    0  503  502  0.00000000000E+00  0.00000000000E+00  0.15657158898E+03  0.15657158898E+03  0.00000000000E+00 0. -1.
         21   -1    0    0  501  503 -0.00000000000E+00 -0.00000000000E+00 -0.40535470512E+03  0.40535470512E+03  0.00000000000E+00 0. -1.
          6    1    1    2  501    0 -0.10089938373E+02 -0.93218445005E+02 -0.29983314866E+03  0.35863686701E+03  0.17300000000E+03 0. -1.
         -6    1    1    2    0  502  0.10089938373E+02  0.93218445005E+02  0.51050032525E+02  0.20328942709E+03  0.17300000000E+03 0. -1.
<mgrwt>
<rscale>  2 0.19677522E+03</rscale>
<asrwt>0</asrwt>
<pdfrwt beam="1">  1       21 0.24087937E-01 0.19677522E+03</pdfrwt>
<pdfrwt beam="2">  1       21 0.62362261E-01 0.19677522E+03</pdfrwt>
<totfact> 0.38683099E+04</totfact>
</mgrwt>
</event>
<event>
 4    1  0.3875622E-001  0.2174916E+03  0.7546771E-02  0.1135767E+00
         21   -1    0    0  501  502  0.00000000000E+00  0.00000000000E+00  0.69820326604E+03  0.69820326604E+03  0.00000000000E+00 0.  1.
         21   -1    0    0  502  503 -0.00000000000E+00 -0.00000000000E+00 -0.10380831647E+03  0.10380831647E+03  0.00000000000E+00 0. -1.
          6    1    1    2  501    0  0.10997485836E+03 -0.72657721798E+02  0.53354059386E+03  0.57616679816E+03  0.17300000000E+03 0.  1.
         -6    1    1    2    0  503 -0.10997485836E+03  0.72657721798E+02  0.60854355709E+02  0.22584478435E+03  0.17300000000E+03 0. -1.
<mgrwt>
<rscale>  2 0.21749164E+03</rscale>
<asrwt>0</asrwt>
<pdfrwt beam="1">  1       21 0.10741588E+00 0.21749164E+03</pdfrwt>
<pdfrwt beam="2">  1       21 0.15970511E-01 0.21749164E+03</pdfrwt>
<totfact> 0.23847274E+04</totfact>
</mgrwt>
</event>
<event>
 4    1  0.3875622E-001  0.1969090E+03  0.7546771E-02  0.1152373E+00
         21   -1    0    0  501  502  0.00000000000E+00  0.00000000000E+00  0.15495387520E+03  0.15495387520E+03  0.00000000000E+00 0.  1.
         21   -1    0    0  502  503 -0.00000000000E+00 -0.00000000000E+00 -0.45147221528E+03  0.45147221528E+03  0.00000000000E+00 0.  1.
          6    1    1    2  501    0  0.69861027770E+02  0.62957009357E+02  0.54181887595E+02  0.20422738595E+03  0.17300000000E+03 0.  1.
         -6    1    1    2    0  503 -0.69861027770E+02 -0.62957009357E+02 -0.35070022768E+03  0.40219870453E+03  0.17300000000E+03 0.  1.
<mgrwt>
<rscale>  2 0.19690898E+03</rscale>
<asrwt>0</asrwt>
<pdfrwt beam="1">  1       21 0.23839058E-01 0.19690898E+03</pdfrwt>
<pdfrwt beam="2">  1       21 0.69457262E-01 0.19690898E+03</pdfrwt>
<totfact> 0.31184486E+04</totfact>
</mgrwt>
</event>
<event>
 4    1  0.3875622E-001  0.1793526E+03  0.7546771E-02  0.1168431E+00
         21   -1    0    0  501  502  0.00000000000E+00  0.00000000000E+00  0.21601073232E+04  0.21601073232E+04  0.00000000000E+00 0. -1.
         21   -1    0    0  502  503 -0.00000000000E+00 -0.00000000000E+00 -0.15482682140E+02  0.15482682140E+02  0.00000000000E+00 0. -1.
          6    1    1    2  501    0 -0.30592215041E+02 -0.36089981574E+02  0.85976181879E+03  0.87826975095E+03  0.17300000000E+03 0. -1.
         -6    1    1    2    0  503  0.30592215041E+02  0.36089981574E+02  0.12848628223E+04  0.12973202544E+04  0.17300000000E+03 0. -1.
<mgrwt>
<rscale>  2 0.17935264E+03</rscale>
<asrwt>0</asrwt>
<pdfrwt beam="1">  1       21 0.33232397E+00 0.17935264E+03</pdfrwt>
<pdfrwt beam="2">  1       21 0.23819528E-02 0.17935264E+03</pdfrwt>
<totfact> 0.20842654E+04</totfact>
</mgrwt>
</event>
<event>
 4    1  0.3875622E-001  0.1965635E+03  0.7546771E-02  0.1152671E+00
         21   -1    0    0  503  502  0.00000000000E+00  0.00000000000E+00  0.16284380487E+04  0.16284380487E+04  0.00000000000E+00 0.  1.
         21   -1    0    0  501  503 -0.00000000000E+00 -0.00000000000E+00 -0.24420817494E+02  0.24420817494E+02  0.00000000000E+00 0.  1.
          6    1    1    2  501    0 -0.92293984495E+02  0.13784674017E+02  0.94135410954E+03  0.96165729673E+03  0.17300000000E+03 0.  1.
         -6    1    1    2    0  502  0.92293984495E+02 -0.13784674017E+02  0.66266312170E+03  0.69120156950E+03  0.17300000000E+03 0.  1.
<mgrwt>
<rscale>  2 0.19656347E+03</rscale>
<asrwt>0</asrwt>
<pdfrwt beam="1">  1       21 0.25052885E+00 0.19656347E+03</pdfrwt>
<pdfrwt beam="2">  1       21 0.37570501E-02 0.19656347E+03</pdfrwt>
<totfact> 0.28637161E+04</totfact>
</mgrwt>
</event>
<event>
 4    1  0.3875622E-001  0.2009730E+03  0.7546771E-02  0.1148921E+00
         21   -1    0    0  501  502  0.00000000000E+00  0.00000000000E+00  0.22266305090E+03  0.22266305090E+03  0.00000000000E+00 0.  1.
         21   -1    0    0  502  503 -0.00000000000E+00 -0.00000000000E+00 -0.41221782308E+03  0.41221782308E+03  0.00000000000E+00 0. -1.
          6    1    1    2  501    0  0.21601429806E+02  0.99972594959E+02  0.14276301765E+03  0.24651860116E+03  0.17300000000E+03 0.  1.
         -6    1    1    2    0  503 -0.21601429806E+02 -0.99972594959E+02 -0.33231778982E+03  0.38836227281E+03  0.17300000000E+03 0. -1.
<mgrwt>
<rscale>  2 0.20097299E+03</rscale>
<asrwt>0</asrwt>
<pdfrwt beam="1">  1       21 0.34255854E-01 0.20097299E+03</pdfrwt>
<pdfrwt beam="2">  1       21 0.63418126E-01 0.20097299E+03</pdfrwt>
<totfact> 0.18785557E+04</totfact>
</mgrwt>
</event>
<event>
 4    1  0.3875622E-001  0.1916465E+03  0.7546771E-02  0.1156985E+00
         21   -1    0    0  501  502  0.00000000000E+00  0.00000000000E+00  0.16328118603E+03  0.16328118603E+03  0.00000000000E+00 0.  1.
         21   -1    0    0  502  503 -0.00000000000E+00 -0.00000000000E+00 -0.31638780365E+03  0.31638780365E+03  0.00000000000E+00 0. -1.
          6    1    1    2  501    0  0.39380201626E+02 -0.72447049010E+02  0.52387324268E+02  0.19867764578E+03  0.17300000000E+03 0.  1.
         -6    1    1    2    0  503 -0.39380201626E+02  0.72447049010E+02 -0.20549394189E+03  0.28099134390E+03  0.17300000000E+03 0. -1.
<mgrwt>
<rscale>  2 0.19164648E+03</rscale>
<asrwt>0</asrwt>
<pdfrwt beam="1">  1       21 0.25120183E-01 0.19164648E+03</pdfrwt>
<pdfrwt beam="2">  1       21 0.48675046E-01 0.19164648E+03</pdfrwt>
<totfact> 0.60506525E+04</totfact>
</mgrwt>
</event>
<event>
 4    1  0.3875622E-001  0.3617939E+03  0.7546771E-02  0.1057876E+00
         21   -1    0    0  501  502  0.00000000000E+00  0.00000000000E+00  0.15210435181E+04  0.15210435181E+04  0.00000000000E+00 0.  1.
         21   -1    0    0  502  503 -0.00000000000E+00 -0.00000000000E+00 -0.90683923055E+02  0.90683923055E+02  0.00000000000E+00 0. -1.
          6    1    1    2  501    0  0.18073174239E+02 -0.31723684044E+03  0.89723019455E+03  0.96742796868E+03  0.17300000000E+03 0.  1.
         -6    1    1    2    0  503 -0.18073174239E+02  0.31723684044E+03  0.53312940046E+03  0.64429947244E+03  0.17300000000E+03 0. -1.
<mgrwt>
<rscale>  2 0.36179394E+03</rscale>
<asrwt>0</asrwt>
<pdfrwt beam="1">  1       21 0.23400668E+00 0.36179394E+03</pdfrwt>
<pdfrwt beam="2">  1       21 0.13951374E-01 0.36179394E+03</pdfrwt>
<totfact> 0.32592754E+03</totfact>
</mgrwt>
</event>
<event>
 4    1  0.3875622E-001  0.1958285E+03  0.7546771E-02  0.1153307E+00
         21   -1    0    0  501  502  0.00000000000E+00  0.00000000000E+00  0.17983468073E+02  0.17983468073E+02  0.00000000000E+00 0. -1.
         21   -1    0    0  502  503 -0.00000000000E+00 -0.00000000000E+00 -0.23936525682E+04  0.23936525682E+04  0.00000000000E+00 0. -1.
          6    1    1    2  501    0 -0.91253914351E+02 -0.96193314989E+01 -0.78950576348E+03  0.81342987343E+03  0.17300000000E+03 0. -1.
         -6    1    1    2    0  503  0.91253914351E+02  0.96193314989E+01 -0.15861633366E+04  0.15982061628E+04  0.17300000000E+03 0. -1.
<mgrwt>
<rscale>  2 0.19582852E+03</rscale>
<asrwt>0</asrwt>
<pdfrwt beam="1">  1       21 0.27666870E-02 0.19582852E+03</pdfrwt>
<pdfrwt beam="2">  1       21 0.36825429E+00 0.19582852E+03</pdfrwt>
<totfact> 0.98102261E+03</totfact>
</mgrwt>
</event>
<event>
 4    1  0.3875622E-001  0.2640453E+03  0.7546771E-02  0.1104737E+00
         21   -1    0    0  503  502  0.00000000000E+00  0.00000000000E+00  0.34596832656E+03  0.34596832656E+03  0.00000000000E+00 0. -1.
         21   -1    0    0  501  503 -0.00000000000E+00 -0.00000000000E+00 -0.20180474596E+03  0.20180474596E+03  0.00000000000E+00 0. -1.
          6    1    1    2  501    0 -0.19293436756E+03  0.50668024199E+02  0.61813673575E+02  0.27118416086E+03  0.17300000000E+03 0. -1.
         -6    1    1    2    0  502  0.19293436756E+03 -0.50668024199E+02  0.82349907022E+02  0.27658891165E+03  0.17300000000E+03 0. -1.
<mgrwt>
<rscale>  2 0.26404530E+03</rscale>
<asrwt>0</asrwt>
<pdfrwt beam="1">  1       21 0.53225896E-01 0.26404530E+03</pdfrwt>
<pdfrwt beam="2">  1       21 0.31046884E-01 0.26404530E+03</pdfrwt>
<totfact> 0.32192186E+04</totfact>
</mgrwt>
</event>
<event>
 4    1  0.3875622E-001  0.1993841E+03  0.7546771E-02  0.1150260E+00
         21   -1    0    0  501  502  0.00000000000E+00  0.00000000000E+00  0.13041155845E+03  0.13041155845E+03  0.00000000000E+00 0. -1.
         21   -1    0    0  502  503 -0.00000000000E+00 -0.00000000000E+00 -0.32321706778E+03  0.32321706778E+03  0.00000000000E+00 0. -1.
          6    1    1    2  501    0 -0.65906491403E+02  0.74036060127E+02 -0.42312276231E+02  0.20382426874E+03  0.17300000000E+03 0.  1.
         -6    1    1    2    0  503  0.65906491403E+02 -0.74036060127E+02 -0.15049323310E+03  0.24980435748E+03  0.17300000000E+03 0.  1.
<mgrwt>
<rscale>  2 0.19938406E+03</rscale>
<asrwt>0</asrwt>
<pdfrwt beam="1">  1       21 0.20063317E-01 0.19938406E+03</pdfrwt>
<pdfrwt beam="2">  1       21 0.49725703E-01 0.19938406E+03</pdfrwt>
<totfact> 0.88197239E+04</totfact>
</mgrwt>
</event>
<event>
 4    1  0.3875622E-001  0.2161133E+03  0.7546771E-02  0.1136814E+00
         21   -1    0    0  501  502  0.00000000000E+00  0.00000000000E+00  0.13665188347E+03  0.13665188347E+03  0.00000000000E+00 0.  1.
         21   -1    0    0  502  503 -0.00000000000E+00 -0.00000000000E+00 -0.34696108474E+03  0.34696108474E+03  0.00000000000E+00 0. -1.
          6    1    1    2  501    0 -0.21219850351E+01  0.12950469446E+03 -0.75607768657E+02  0.22895742702E+03  0.17300000000E+03 0.  1.
         -6    1    1    2    0  503  0.21219850351E+01 -0.12950469446E+03 -0.13470143262E+03  0.25465554119E+03  0.17300000000E+03 0. -1.
<mgrwt>
<rscale>  2 0.21611332E+03</rscale>
<asrwt>0</asrwt>
<pdfrwt beam="1">  1       21 0.21023367E-01 0.21611332E+03</pdfrwt>
<pdfrwt beam="2">  1       21 0.53378627E-01 0.21611332E+03</pdfrwt>
<totfact> 0.69133909E+04</totfact>
</mgrwt>
</event>
<event>
 4    1  0.3875622E-001  0.2310199E+03  0.7546771E-02  0.1125924E+00
         21   -1    0    0  503  502  0.00000000000E+00  0.00000000000E+00  0.14359203408E+04  0.14359203408E+04  0.00000000000E+00 0.  1.
         21   -1    0    0  501  503 -0.00000000000E+00 -0.00000000000E+00 -0.41484601330E+02  0.41484601330E+02  0.00000000000E+00 0.  1.
          6    1    1    2  501    0 -0.11567804399E+03 -0.10029841532E+03  0.45893065077E+03  0.51379716250E+03  0.17300000000E+03 0.  1.
         -6    1    1    2    0  502  0.11567804399E+03  0.10029841532E+03  0.93550508867E+03  0.96360777960E+03  0.17300000000E+03 0.  1.
<mgrwt>
<rscale>  2 0.23101987E+03</rscale>
<asrwt>0</asrwt>
<pdfrwt beam="1">  1       21 0.22091078E+00 0.23101987E+03</pdfrwt>
<pdfrwt beam="2">  1       21 0.63822475E-02 0.23101987E+03</pdfrwt>
<totfact> 0.17098044E+04</totfact>
</mgrwt>
</event>
<event>
 4    1  0.3875622E-001  0.2754417E+03  0.7546771E-02  0.1098205E+00
         21   -1    0    0  501  502  0.00000000000E+00  0.00000000000E+00  0.68663103878E+03  0.68663103878E+03  0.00000000000E+00 0.  1.
         21   -1    0    0  502  503 -0.00000000000E+00 -0.00000000000E+00 -0.17820076410E+03  0.17820076410E+03  0.00000000000E+00 0. -1.
          6    1    1    2  501    0 -0.51507027086E+02 -0.20805327550E+03  0.52075680023E+03  0.58911440678E+03  0.17300000000E+03 0.  1.
         -6    1    1    2    0  503  0.51507027086E+02  0.20805327550E+03 -0.12326525556E+02  0.27571739611E+03  0.17300000000E+03 0. -1.
<mgrwt>
<rscale>  2 0.27544172E+03</rscale>
<asrwt>0</asrwt>
<pdfrwt beam="1">  1       21 0.10563554E+00 0.27544172E+03</pdfrwt>
<pdfrwt beam="2">  1       21 0.27415503E-01 0.27544172E+03</pdfrwt>
<totfact> 0.86788079E+03</totfact>
</mgrwt>
</event>
<event>
 4    1  0.3875622E-001  0.2084965E+03  0.7546771E-02  0.1142762E+00
         21   -1    0    0  501  502  0.00000000000E+00  0.00000000000E+00  0.65725075458E+02  0.65725075458E+02  0.00000000000E+00 0.  1.
         21   -1    0    0  502  503 -0.00000000000E+00 -0.00000000000E+00 -0.73161407411E+03  0.73161407411E+03  0.00000000000E+00 0. -1.
          6    1    1    2  501    0 -0.59602744887E+02  0.99946550133E+02 -0.20944275611E+03  0.29552845577E+03  0.17300000000E+03 0.  1.
         -6    1    1    2    0  503  0.59602744887E+02 -0.99946550133E+02 -0.45644624254E+03  0.50181069379E+03  0.17300000000E+03 0. -1.
<mgrwt>
<rscale>  2 0.20849652E+03</rscale>
<asrwt>0</asrwt>
<pdfrwt beam="1">  1       21 0.10111550E-01 0.20849652E+03</pdfrwt>
<pdfrwt beam="2">  1       21 0.11255602E+00 0.20849652E+03</pdfrwt>
<totfact> 0.48746306E+04</totfact>
</mgrwt>
</event>
<event>
 4    1  0.3875622E-001  0.2097991E+03  0.7546771E-02  0.1141725E+00
         21   -1    0    0  503  502  0.00000000000E+00  0.00000000000E+00  0.20691141851E+03  0.20691141851E+03  0.00000000000E+00 0.  1.
         21   -1    0    0  501  503 -0.00000000000E+00 -0.00000000000E+00 -0.21800770764E+03  0.21800770764E+03  0.00000000000E+00 0. -1.
          6    1    1    2  501    0  0.86850380562E+02 -0.80893045263E+02 -0.38614082550E+02  0.21332304317E+03  0.17300000000E+03 0.  1.
         -6    1    1    2    0  502 -0.86850380562E+02  0.80893045263E+02  0.27517793417E+02  0.21159608297E+03  0.17300000000E+03 0. -1.
<mgrwt>
<rscale>  2 0.20979913E+03</rscale>
<asrwt>0</asrwt>
<pdfrwt beam="1">  1       21 0.31832526E-01 0.20979913E+03</pdfrwt>
<pdfrwt beam="2">  1       21 0.33539647E-01 0.20979913E+03</pdfrwt>
<totfact> 0.80661120E+04</totfact>
</mgrwt>
</event>
<event>
 4    1  0.3875622E-001  0.2091059E+03  0.7546771E-02  0.1142276E+00
         21   -1    0    0  503  502  0.00000000000E+00  0.00000000000E+00  0.23997352734E+03  0.23997352734E+03  0.00000000000E+00 0. -1.
         21   -1    0    0  501  503 -0.00000000000E+00 -0.00000000000E+00 -0.21525374357E+03  0.21525374357E+03  0.00000000000E+00 0.  1.
          6    1    1    2  501    0  0.21053097966E+02  0.11555531709E+03 -0.76821878407E+02  0.22277088060E+03  0.17300000000E+03 0.  1.
         -6    1    1    2    0  502 -0.21053097966E+02 -0.11555531709E+03  0.10154166218E+03  0.23245639032E+03  0.17300000000E+03 0. -1.
<mgrwt>
<rscale>  2 0.20910587E+03</rscale>
<asrwt>0</asrwt>
<pdfrwt beam="1">  1       21 0.36919004E-01 0.20910587E+03</pdfrwt>
<pdfrwt beam="2">  1       21 0.33115961E-01 0.20910587E+03</pdfrwt>
<totfact> 0.61656885E+04</totfact>
</mgrwt>
</event>
<event>
 4    1  0.3875622E-001  0.2496191E+03  0.7546771E-02  0.1113546E+00
         21   -1    0    0  501  502  0.00000000000E+00  0.00000000000E+00  0.61422884010E+03  0.61422884010E+03  0.00000000000E+00 0. -1.
         21   -1    0    0  502  503 -0.00000000000E+00 -0.00000000000E+00 -0.11502449325E+03  0.11502449325E+03  0.00000000000E+00 0.  1.
          6    1    1    2  501    0  0.18008550616E+02 -0.17904300429E+03  0.37489156306E+03  0.45039248366E+03  0.17300000000E+03 0.  1.
         -6    1    1    2    0  503 -0.18008550616E+02  0.17904300429E+03  0.12431278379E+03  0.27886084970E+03  0.17300000000E+03 0.  1.
<mgrwt>
<rscale>  2 0.24961912E+03</rscale>
<asrwt>0</asrwt>
<pdfrwt beam="1">  1       21 0.94496743E-01 0.24961912E+03</pdfrwt>
<pdfrwt beam="2">  1       21 0.17696076E-01 0.24961912E+03</pdfrwt>
<totfact> 0.26364419E+04</totfact>
</mgrwt>
</event>
<event>
 4    1  0.3875622E-001  0.1760042E+03  0.7546771E-02  0.1171727E+00
         21   -1    0    0  501  502  0.00000000000E+00  0.00000000000E+00  0.16737252195E+04  0.16737252195E+04  0.00000000000E+00 0. -1.
         21   -1    0    0  502  503 -0.00000000000E+00 -0.00000000000E+00 -0.23000054935E+02  0.23000054935E+02  0.00000000000E+00 0. -1.
          6    1    1    2  501    0  0.27704228871E+02 -0.16761610232E+02  0.12002792344E+04  0.12131148818E+04  0.17300000000E+03 0. -1.
         -6    1    1    2    0  503 -0.27704228871E+02  0.16761610232E+02  0.45044593011E+03  0.48361039259E+03  0.17300000000E+03 0. -1.
<mgrwt>
<rscale>  2 0.17600419E+03</rscale>
<asrwt>0</asrwt>
<pdfrwt beam="1">  1       21 0.25749609E+00 0.17600419E+03</pdfrwt>
<pdfrwt beam="2">  1       21 0.35384713E-02 0.17600419E+03</pdfrwt>
<totfact> 0.29330210E+04</totfact>
</mgrwt>
</event>
<event>
 4    1  0.3875622E-001  0.2081638E+03  0.7546771E-02  0.1143028E+00
         21   -1    0    0  503  502  0.00000000000E+00  0.00000000000E+00  0.17605818160E+04  0.17605818160E+04  0.00000000000E+00 0. -1.
         21   -1    0    0  501  503 -0.00000000000E+00 -0.00000000000E+00 -0.24642347415E+02  0.24642347415E+02  0.00000000000E+00 0.  1.
          6    1    1    2  501    0 -0.82909464436E+02  0.80803273874E+02  0.89908567768E+03  0.92286900705E+03  0.17300000000E+03 0. -1.
         -6    1    1    2    0  502  0.82909464436E+02 -0.80803273874E+02  0.83685379093E+03  0.86235515639E+03  0.17300000000E+03 0.  1.
<mgrwt>
<rscale>  2 0.20816375E+03</rscale>
<asrwt>0</asrwt>
<pdfrwt beam="1">  1       21 0.27085864E+00 0.20816375E+03</pdfrwt>
<pdfrwt beam="2">  1       21 0.37911318E-02 0.20816375E+03</pdfrwt>
<totfact> 0.21245630E+04</totfact>
</mgrwt>
</event>
<event>
 4    1  0.3875622E-001  0.3089638E+03  0.7546771E-02  0.1080844E+00
         21   -1    0    0  501  502  0.00000000000E+00  0.00000000000E+00  0.41216326230E+03  0.41216326230E+03  0.00000000000E+00 0. -1.
         21   -1    0    0  502  503 -0.00000000000E+00 -0.00000000000E+00 -0.27903330816E+03  0.27903330816E+03  0.00000000000E+00 0. -1.
          6    1    1    2  501    0  0.25512369002E+03  0.21012236902E+02  0.20904943448E+03  0.37304192441E+03  0.17300000000E+03 0. -1.
         -6    1    1    2    0  503 -0.25512369002E+03 -0.21012236902E+02 -0.75919480343E+02  0.31815464605E+03  0.17300000000E+03 0. -1.
<mgrwt>
<rscale>  2 0.30896377E+03</rscale>
<asrwt>0</asrwt>
<pdfrwt beam="1">  1       21 0.63409733E-01 0.30896377E+03</pdfrwt>
<pdfrwt beam="2">  1       21 0.42928201E-01 0.30896377E+03</pdfrwt>
<totfact> 0.11269949E+04</totfact>
</mgrwt>
</event>
<event>
 4    1  0.3875622E-001  0.2059434E+03  0.7546771E-02  0.1144819E+00
         21   -1    0    0  503  502  0.00000000000E+00  0.00000000000E+00  0.89644290066E+02  0.89644290066E+02  0.00000000000E+00 0.  1.
         21   -1    0    0  501  503 -0.00000000000E+00 -0.00000000000E+00 -0.10275671612E+04  0.10275671612E+04  0.00000000000E+00 0.  1.
          6    1    1    2  501    0  0.62946000625E+02  0.92311867789E+02 -0.87928796686E+03  0.90308361108E+03  0.17300000000E+03 0.  1.
         -6    1    1    2    0  502 -0.62946000625E+02 -0.92311867789E+02 -0.58634904224E+02  0.21412784014E+03  0.17300000000E+03 0.  1.
<mgrwt>
<rscale>  2 0.20594339E+03</rscale>
<asrwt>0</asrwt>
<pdfrwt beam="1">  1       21 0.13791429E-01 0.20594339E+03</pdfrwt>
<pdfrwt beam="2">  1       21 0.15808726E+00 0.20594339E+03</pdfrwt>
<totfact> 0.11761192E+04</totfact>
</mgrwt>
</event>
<event>
 4    1  0.3875622E-001  0.1769812E+03  0.7546771E-02  0.1170757E+00
         21   -1    0    0  503  502  0.00000000000E+00  0.00000000000E+00  0.84585242906E+02  0.84585242906E+02  0.00000000000E+00 0. -1.
         21   -1    0    0  501  503 -0.00000000000E+00 -0.00000000000E+00 -0.37237142408E+03  0.37237142408E+03  0.00000000000E+00 0. -1.
          6    1    1    2  501    0  0.11625053138E+02  0.35471391993E+02 -0.12687394192E+03  0.21775986464E+03  0.17300000000E+03 0. -1.
         -6    1    1    2    0  502 -0.11625053138E+02 -0.35471391993E+02 -0.16091223926E+03  0.23919680235E+03  0.17300000000E+03 0. -1.
<mgrwt>
<rscale>  2 0.17698125E+03</rscale>
<asrwt>0</asrwt>
<pdfrwt beam="1">  1       21 0.13013114E-01 0.17698125E+03</pdfrwt>
<pdfrwt beam="2">  1       21 0.57287911E-01 0.17698125E+03</pdfrwt>
<totfact> 0.14591003E+05</totfact>
</mgrwt>
</event>
<event>
 4    1  0.3875622E-001  0.2076563E+03  0.7546771E-02  0.1143436E+00
         21   -1    0    0  501  502  0.00000000000E+00  0.00000000000E+00  0.42455751634E+02  0.42455751634E+02  0.00000000000E+00 0. -1.
         21   -1    0    0  502  503 -0.00000000000E+00 -0.00000000000E+00 -0.16264004195E+04  0.16264004195E+04  0.00000000000E+00 0.  1.
          6    1    1    2  501    0 -0.10786994748E+03  0.39448748997E+02 -0.28064483946E+03  0.34911696505E+03  0.17300000000E+03 0. -1.
         -6    1    1    2    0  503  0.10786994748E+03 -0.39448748997E+02 -0.13032998284E+04  0.13197392060E+04  0.17300000000E+03 0.  1.
<mgrwt>
<rscale>  2 0.20765628E+03</rscale>
<asrwt>0</asrwt>
<pdfrwt beam="1">  1       21 0.65316556E-02 0.20765628E+03</pdfrwt>
<pdfrwt beam="2">  1       21 0.25021539E+00 0.20765628E+03</pdfrwt>
<totfact> 0.11145353E+04</totfact>
</mgrwt>
</event>
<event>
 4    1  0.3875622E-001  0.1931077E+03  0.7546771E-02  0.1155688E+00
         21   -1    0    0  501  502  0.00000000000E+00  0.00000000000E+00  0.49236581615E+03  0.49236581615E+03  0.00000000000E+00 0.  1.
         21   -1    0    0  502  503 -0.00000000000E+00 -0.00000000000E+00 -0.76370867823E+02  0.76370867823E+02  0.00000000000E+00 0.  1.
          6    1    1    2  501    0 -0.62119810495E+02 -0.59183589651E+02  0.23389372709E+03  0.30330981473E+03  0.17300000000E+03 0.  1.
         -6    1    1    2    0  503  0.62119810495E+02  0.59183589651E+02  0.18210122124E+03  0.26542686925E+03  0.17300000000E+03 0.  1.
<mgrwt>
<rscale>  2 0.19310766E+03</rscale>
<asrwt>0</asrwt>
<pdfrwt beam="1">  1       21 0.75748585E-01 0.19310766E+03</pdfrwt>
<pdfrwt beam="2">  1       21 0.11749365E-01 0.19310766E+03</pdfrwt>
<totfact> 0.94749872E+04</totfact>
</mgrwt>
</event>
<event>
 4    1  0.3875622E-001  0.1921666E+03  0.7546771E-02  0.1156522E+00
         21   -1    0    0  501  502  0.00000000000E+00  0.00000000000E+00  0.60806443342E+03  0.60806443342E+03  0.00000000000E+00 0. -1.
         21   -1    0    0  502  503 -0.00000000000E+00 -0.00000000000E+00 -0.68716555071E+02  0.68716555071E+02  0.00000000000E+00 0. -1.
          6    1    1    2  501    0 -0.75182861398E+02 -0.36695439499E+02  0.38503397069E+03  0.43032450141E+03  0.17300000000E+03 0. -1.
         -6    1    1    2    0  503  0.75182861398E+02  0.36695439499E+02  0.15431390766E+03  0.24645648709E+03  0.17300000000E+03 0. -1.
<mgrwt>
<rscale>  2 0.19216664E+03</rscale>
<asrwt>0</asrwt>
<pdfrwt beam="1">  1       21 0.93548371E-01 0.19216664E+03</pdfrwt>
<pdfrwt beam="2">  1       21 0.10571778E-01 0.19216664E+03</pdfrwt>
<totfact> 0.70638546E+04</totfact>
</mgrwt>
</event>
<event>
 4    1  0.3875622E-001  0.1752731E+03  0.7546771E-02  0.1172458E+00
         21   -1    0    0  503  502  0.00000000000E+00  0.00000000000E+00  0.18363461458E+03  0.18363461458E+03  0.00000000000E+00 0. -1.
         21   -1    0    0  501  503 -0.00000000000E+00 -0.00000000000E+00 -0.17895433872E+03  0.17895433872E+03  0.00000000000E+00 0. -1.
          6    1    1    2  501    0  0.28050822998E+02  0.21922289057E+01 -0.43940671854E+02  0.18069708681E+03  0.17300000000E+03 0.  1.
         -6    1    1    2    0  502 -0.28050822998E+02 -0.21922289057E+01  0.48620947713E+02  0.18189186649E+03  0.17300000000E+03 0.  1.
<mgrwt>
<rscale>  2 0.17527309E+03</rscale>
<asrwt>0</asrwt>
<pdfrwt beam="1">  1       21 0.28251479E-01 0.17527309E+03</pdfrwt>
<pdfrwt beam="2">  1       21 0.27531437E-01 0.17527309E+03</pdfrwt>
<totfact> 0.15157289E+05</totfact>
</mgrwt>
</event>
<event>
 4    1  0.3875622E-001  0.2968291E+03  0.7546771E-02  0.1086837E+00
         21   -1    0    0  503  502  0.00000000000E+00  0.00000000000E+00  0.50371000398E+03  0.50371000398E+03  0.00000000000E+00 0.  1.
         21   -1    0    0  501  503 -0.00000000000E+00 -0.00000000000E+00 -0.18456984541E+03  0.18456984541E+03  0.00000000000E+00 0.  1.
          6    1    1    2  501    0 -0.20273084810E+03 -0.13068562937E+03  0.23827075162E+03  0.38063168756E+03  0.17300000000E+03 0.  1.
         -6    1    1    2    0  502  0.20273084810E+03  0.13068562937E+03  0.80869406946E+02  0.30764816183E+03  0.17300000000E+03 0.  1.
<mgrwt>
<rscale>  2 0.29682913E+03</rscale>
<asrwt>0</asrwt>
<pdfrwt beam="1">  1       21 0.77493846E-01 0.29682913E+03</pdfrwt>
<pdfrwt beam="2">  1       21 0.28395361E-01 0.29682913E+03</pdfrwt>
<totfact> 0.16597013E+04</totfact>
</mgrwt>
</event>
<event>
 4    1  0.3875622E-001  0.2162596E+03  0.7546771E-02  0.1136703E+00
         21   -1    0    0  501  502  0.00000000000E+00  0.00000000000E+00  0.52913583746E+02  0.52913583746E+02  0.00000000000E+00 0.  1.
         21   -1    0    0  502  503 -0.00000000000E+00 -0.00000000000E+00 -0.88697128976E+03  0.88697128976E+03  0.00000000000E+00 0.  1.
          6    1    1    2  501    0 -0.12756470318E+03 -0.23800700581E+02 -0.44485960057E+03  0.49463955672E+03  0.17300000000E+03 0.  1.
         -6    1    1    2    0  503  0.12756470318E+03  0.23800700581E+02 -0.38919810543E+03  0.44524531678E+03  0.17300000000E+03 0.  1.
<mgrwt>
<rscale>  2 0.21625963E+03</rscale>
<asrwt>0</asrwt>
<pdfrwt beam="1">  1       21 0.81405519E-02 0.21625963E+03</pdfrwt>
<pdfrwt beam="2">  1       21 0.13645711E+00 0.21625963E+03</pdfrwt>
<totfact> 0.43922301E+04</totfact>
</mgrwt>
</event>
<event>
 4    1  0.3875622E-001  0.1986010E+03  0.7546771E-02  0.1150925E+00
         21   -1    0    0  503  502  0.00000000000E+00  0.00000000000E+00  0.50937214551E+03  0.50937214551E+03  0.00000000000E+00 0. -1.
         21   -1    0    0  501  503 -0.00000000000E+00 -0.00000000000E+00 -0.84618570648E+02  0.84618570648E+02  0.00000000000E+00 0.  1.
          6    1    1    2  501    0  0.82369545880E+02 -0.52236187348E+02  0.12583244762E+03  0.23510883912E+03  0.17300000000E+03 0.  1.
         -6    1    1    2    0  502 -0.82369545880E+02  0.52236187348E+02  0.29892112724E+03  0.35888187704E+03  0.17300000000E+03 0. -1.
<mgrwt>
<rscale>  2 0.19860101E+03</rscale>
<asrwt>0</asrwt>
<pdfrwt beam="1">  1       21 0.78364944E-01 0.19860101E+03</pdfrwt>
<pdfrwt beam="2">  1       21 0.13018242E-01 0.19860101E+03</pdfrwt>
<totfact> 0.72862516E+04</totfact>
</mgrwt>
</event>
<event>
 4    1  0.3875622E-001  0.2013691E+03  0.7546771E-02  0.1148589E+00
         21   -1    0    0  501  502  0.00000000000E+00  0.00000000000E+00  0.35413130221E+03  0.35413130221E+03  0.00000000000E+00 0. -1.
         21   -1    0    0  502  503 -0.00000000000E+00 -0.00000000000E+00 -0.13183649173E+03  0.13183649173E+03  0.00000000000E+00 0.  1.
          6    1    1    2  501    0 -0.30741080844E+02 -0.98364048911E+02  0.19924994382E+03  0.28328438058E+03  0.17300000000E+03 0. -1.
         -6    1    1    2    0  503  0.30741080844E+02  0.98364048911E+02  0.23044866665E+02  0.20268341335E+03  0.17300000000E+03 0. -1.
<mgrwt>
<rscale>  2 0.20136906E+03</rscale>
<asrwt>0</asrwt>
<pdfrwt beam="1">  1       21 0.54481738E-01 0.20136906E+03</pdfrwt>
<pdfrwt beam="2">  1       21 0.20282537E-01 0.20136906E+03</pdfrwt>
<totfact> 0.71276349E+04</totfact>
</mgrwt>
</event>
<event>
 4    1  0.3875622E-001  0.1820848E+03  0.7546771E-02  0.1165801E+00
         21   -1    0    0  501  502  0.00000000000E+00  0.00000000000E+00  0.27119175055E+03  0.27119175055E+03  0.00000000000E+00 0. -1.
         21   -1    0    0  502  503 -0.00000000000E+00 -0.00000000000E+00 -0.12919769775E+03  0.12919769775E+03  0.00000000000E+00 0. -1.
          6    1    1    2  501    0  0.50418997583E+02 -0.26149213623E+02  0.11740084319E+03  0.21665136665E+03  0.17300000000E+03 0. -1.
         -6    1    1    2    0  503 -0.50418997583E+02  0.26149213623E+02  0.24593209610E+02  0.18373808165E+03  0.17300000000E+03 0. -1.
<mgrwt>
<rscale>  2 0.18208475E+03</rscale>
<asrwt>0</asrwt>
<pdfrwt beam="1">  1       21 0.41721808E-01 0.18208475E+03</pdfrwt>
<pdfrwt beam="2">  1       21 0.19876569E-01 0.18208475E+03</pdfrwt>
<totfact> 0.12961057E+05</totfact>
</mgrwt>
</event>
<event>
 4    1  0.3875622E-001  0.1965258E+03  0.7546771E-02  0.1152704E+00
         21   -1    0    0  501  502  0.00000000000E+00  0.00000000000E+00  0.41595452638E+03  0.41595452638E+03  0.00000000000E+00 0.  1.
         21   -1    0    0  502  503 -0.00000000000E+00 -0.00000000000E+00 -0.13557102218E+03  0.13557102218E+03  0.00000000000E+00 0. -1.
          6    1    1    2  501    0 -0.86734457281E+02  0.34212740659E+02  0.29498813297E+03  0.35445786251E+03  0.17300000000E+03 0.  1.
         -6    1    1    2    0  503  0.86734457281E+02 -0.34212740659E+02 -0.14604628769E+02  0.19706768605E+03  0.17300000000E+03 0. -1.
<mgrwt>
<rscale>  2 0.19652577E+03</rscale>
<asrwt>0</asrwt>
<pdfrwt beam="1">  1       21 0.63993004E-01 0.19652577E+03</pdfrwt>
<pdfrwt beam="2">  1       21 0.20857080E-01 0.19652577E+03</pdfrwt>
<totfact> 0.48023519E+04</totfact>
</mgrwt>
</event>
<event>
 4    1  0.3875622E-001  0.1735492E+03  0.7546771E-02  0.1174196E+00
         21   -1    0    0  503  502  0.00000000000E+00  0.00000000000E+00  0.36491120086E+03  0.36491120086E+03  0.00000000000E+00 0.  1.
         21   -1    0    0  501  503 -0.00000000000E+00 -0.00000000000E+00 -0.83847732660E+02  0.83847732660E+02  0.00000000000E+00 0.  1.
          6    1    1    2  501    0  0.12735658172E+02 -0.53029241295E+01  0.16856687569E+03  0.24193823504E+03  0.17300000000E+03 0. -1.
         -6    1    1    2    0  502 -0.12735658172E+02  0.53029241295E+01  0.11249659251E+03  0.20682069848E+03  0.17300000000E+03 0. -1.
<mgrwt>
<rscale>  2 0.17354918E+03</rscale>
<asrwt>0</asrwt>
<pdfrwt beam="1">  1       21 0.56140184E-01 0.17354918E+03</pdfrwt>
<pdfrwt beam="2">  1       21 0.12899651E-01 0.17354918E+03</pdfrwt>
<totfact> 0.15490476E+05</totfact>
</mgrwt>
</event>
<event>
 4    1  0.3875622E-001  0.1806580E+03  0.7546771E-02  0.1167168E+00
         21   -1    0    0  503  502  0.00000000000E+00  0.00000000000E+00  0.65891265488E+02  0.65891265488E+02  0.00000000000E+00 0. -1.
         21   -1    0    0  501  503 -0.00000000000E+00 -0.00000000000E+00 -0.63879213121E+03  0.63879213121E+03  0.00000000000E+00 0.  1.
          6    1    1    2  501    0 -0.14946555615E+02  0.49848864441E+02 -0.45343139355E+03  0.48809562329E+03  0.17300000000E+03 0.  1.
         -6    1    1    2    0  502  0.14946555615E+02 -0.49848864441E+02 -0.11946947217E+03  0.21658777341E+03  0.17300000000E+03 0. -1.
<mgrwt>
<rscale>  2 0.18065799E+03</rscale>
<asrwt>0</asrwt>
<pdfrwt beam="1">  1       21 0.10137118E-01 0.18065799E+03</pdfrwt>
<pdfrwt beam="2">  1       21 0.98275712E-01 0.18065799E+03</pdfrwt>
<totfact> 0.68135264E+04</totfact>
</mgrwt>
</event>
<event>
 4    1  0.3875622E-001  0.2162528E+03  0.7546771E-02  0.1136708E+00
         21   -1    0    0  501  502  0.00000000000E+00  0.00000000000E+00  0.34471870907E+02  0.34471870907E+02  0.00000000000E+00 0. -1.
         21   -1    0    0  502  503 -0.00000000000E+00 -0.00000000000E+00 -0.13773090536E+04  0.13773090536E+04  0.00000000000E+00 0. -1.
          6    1    1    2  501    0 -0.65595736093E+02 -0.11195305632E+03 -0.75793018132E+03  0.78817729425E+03  0.17300000000E+03 0. -1.
         -6    1    1    2    0  503  0.65595736093E+02  0.11195305632E+03 -0.58490700134E+03  0.62360363023E+03  0.17300000000E+03 0. -1.
<mgrwt>
<rscale>  2 0.21625283E+03</rscale>
<asrwt>0</asrwt>
<pdfrwt beam="1">  1       21 0.53033647E-02 0.21625283E+03</pdfrwt>
<pdfrwt beam="2">  1       21 0.21189370E+00 0.21625283E+03</pdfrwt>
<totfact> 0.27014405E+04</totfact>
</mgrwt>
</event>
<event>
 4    1  0.3875622E-001  0.2802746E+03  0.7546771E-02  0.1095539E+00
         21   -1    0    0  501  502  0.00000000000E+00  0.00000000000E+00  0.46941542837E+03  0.46941542837E+03  0.00000000000E+00 0.  1.
         21   -1    0    0  502  503 -0.00000000000E+00 -0.00000000000E+00 -0.17743530042E+03  0.17743530042E+03  0.00000000000E+00 0. -1.
          6    1    1    2  501    0 -0.15892855311E+03 -0.15286128589E+03  0.22312080902E+03  0.35824119408E+03  0.17300000000E+03 0.  1.
         -6    1    1    2    0  503  0.15892855311E+03  0.15286128589E+03  0.68859318933E+02  0.28860953471E+03  0.17300000000E+03 0. -1.
<mgrwt>
<rscale>  2 0.28027461E+03</rscale>
<asrwt>0</asrwt>
<pdfrwt beam="1">  1       21 0.72217758E-01 0.28027461E+03</pdfrwt>
<pdfrwt beam="2">  1       21 0.27297739E-01 0.28027461E+03</pdfrwt>
<totfact> 0.21160899E+04</totfact>
</mgrwt>
</event>
<event>
 4    1  0.3875622E-001  0.1955340E+03  0.7546771E-02  0.1153563E+00
         21   -1    0    0  501  502  0.00000000000E+00  0.00000000000E+00  0.42828097849E+02  0.42828097849E+02  0.00000000000E+00 0. -1.
         21   -1    0    0  502  503 -0.00000000000E+00 -0.00000000000E+00 -0.93539016263E+03  0.93539016263E+03  0.00000000000E+00 0. -1.
          6    1    1    2  501    0  0.63317649779E+02  0.65539490903E+02 -0.34181729410E+03  0.39379260047E+03  0.17300000000E+03 0.  1.
         -6    1    1    2    0  503 -0.63317649779E+02 -0.65539490903E+02 -0.55074477068E+03  0.58442566001E+03  0.17300000000E+03 0.  1.
<mgrwt>
<rscale>  2 0.19553401E+03</rscale>
<asrwt>0</asrwt>
<pdfrwt beam="1">  1       21 0.65889377E-02 0.19553401E+03</pdfrwt>
<pdfrwt beam="2">  1       21 0.14390619E+00 0.19553401E+03</pdfrwt>
<totfact> 0.55854251E+04</totfact>
</mgrwt>
</event>
<event>
 4    1  0.3875622E-001  0.2175107E+03  0.7546771E-02  0.1135753E+00
         21   -1    0    0  501  502  0.00000000000E+00  0.00000000000E+00  0.11268036700E+04  0.11268036700E+04  0.00000000000E+00 0.  1.
         21   -1    0    0  502  503 -0.00000000000E+00 -0.00000000000E+00 -0.44606751702E+02  0.44606751702E+02  0.00000000000E+00 0.  1.
          6    1    1    2  501    0  0.11087297470E+03 -0.71337751020E+02  0.68304493972E+03  0.71684118249E+03  0.17300000000E+03 0. -1.
         -6    1    1    2    0  503 -0.11087297470E+03  0.71337751020E+02  0.39915197863E+03  0.45456923926E+03  0.17300000000E+03 0. -1.
<mgrwt>
<rscale>  2 0.21751067E+03</rscale>
<asrwt>0</asrwt>
<pdfrwt beam="1">  1       21 0.17335439E+00 0.21751067E+03</pdfrwt>
<pdfrwt beam="2">  1       21 0.68625780E-02 0.21751067E+03</pdfrwt>
<totfact> 0.31145938E+04</totfact>
</mgrwt>
</event>
<event>
 4    1  0.3875622E-001  0.1849592E+03  0.7546771E-02  0.1163088E+00
         21   -1    0    0  503  502  0.00000000000E+00  0.00000000000E+00  0.15044983473E+03  0.15044983473E+03  0.00000000000E+00 0.  1.
         21   -1    0    0  501  503 -0.00000000000E+00 -0.00000000000E+00 -0.30944487485E+03  0.30944487485E+03  0.00000000000E+00 0.  1.
          6    1    1    2  501    0 -0.65373687567E+02  0.26785294882E+01 -0.19791196834E+03  0.27088565993E+03  0.17300000000E+03 0.  1.
         -6    1    1    2    0  502  0.65373687567E+02 -0.26785294882E+01  0.38916928211E+02  0.18900904964E+03  0.17300000000E+03 0.  1.
<mgrwt>
<rscale>  2 0.18495917E+03</rscale>
<asrwt>0</asrwt>
<pdfrwt beam="1">  1       21 0.23146128E-01 0.18495917E+03</pdfrwt>
<pdfrwt beam="2">  1       21 0.47606904E-01 0.18495917E+03</pdfrwt>
<totfact> 0.74227917E+04</totfact>
</mgrwt>
</event>
<event>
 4    1  0.3875622E-001  0.2171484E+03  0.7546771E-02  0.1136027E+00
         21   -1    0    0  501  502  0.00000000000E+00  0.00000000000E+00  0.93844088251E+03  0.93844088251E+03  0.00000000000E+00 0. -1.
         21   -1    0    0  502  503 -0.00000000000E+00 -0.00000000000E+00 -0.51756964766E+02  0.51756964766E+02  0.00000000000E+00 0. -1.
          6    1    1    2  501    0  0.12314153773E+03  0.45393686544E+02  0.35876454304E+03  0.41936311526E+03  0.17300000000E+03 0. -1.
         -6    1    1    2    0  503 -0.12314153773E+03 -0.45393686544E+02  0.52791937471E+03  0.57083473202E+03  0.17300000000E+03 0. -1.
<mgrwt>
<rscale>  2 0.21714839E+03</rscale>
<asrwt>0</asrwt>
<pdfrwt beam="1">  1       21 0.14437551E+00 0.21714839E+03</pdfrwt>
<pdfrwt beam="2">  1       21 0.79626107E-02 0.21714839E+03</pdfrwt>
<totfact> 0.39411211E+04</totfact>
</mgrwt>
</event>
<event>
 4    1  0.3875622E-001  0.1878850E+03  0.7546771E-02  0.1160383E+00
         21   -1    0    0  503  502  0.00000000000E+00  0.00000000000E+00  0.59915985786E+03  0.59915985786E+03  0.00000000000E+00 0.  1.
         21   -1    0    0  501  503 -0.00000000000E+00 -0.00000000000E+00 -0.11042611350E+03  0.11042611350E+03  0.00000000000E+00 0.  1.
          6    1    1    2  501    0  0.44982873306E+02  0.57864513240E+02  0.20516199578E+01  0.18789616794E+03  0.17300000000E+03 0.  1.
         -6    1    1    2    0  502 -0.44982873306E+02 -0.57864513240E+02  0.48668212440E+03  0.52168980342E+03  0.17300000000E+03 0.  1.
<mgrwt>
<rscale>  2 0.18788497E+03</rscale>
<asrwt>0</asrwt>
<pdfrwt beam="1">  1       21 0.92178438E-01 0.18788497E+03</pdfrwt>
<pdfrwt beam="2">  1       21 0.16988633E-01 0.18788497E+03</pdfrwt>
<totfact> 0.31125733E+04</totfact>
</mgrwt>
</event>
<event>
 4    1  0.3875622E-001  0.2377651E+03  0.7546771E-02  0.1121291E+00
         21   -1    0    0  503  502  0.00000000000E+00  0.00000000000E+00  0.42937186970E+03  0.42937186970E+03  0.00000000000E+00 0. -1.
         21   -1    0    0  501  503 -0.00000000000E+00 -0.00000000000E+00 -0.16763692393E+03  0.16763692393E+03  0.00000000000E+00 0.  1.
          6    1    1    2  501    0  0.11656362857E+03 -0.11408840121E+03 -0.74133148736E+01  0.23788064241E+03  0.17300000000E+03 0. -1.
         -6    1    1    2    0  502 -0.11656362857E+03  0.11408840121E+03  0.26914826064E+03  0.35912815123E+03  0.17300000000E+03 0.  1.
<mgrwt>
<rscale>  2 0.23776510E+03</rscale>
<asrwt>0</asrwt>
<pdfrwt beam="1">  1       21 0.66057210E-01 0.23776510E+03</pdfrwt>
<pdfrwt beam="2">  1       21 0.25790296E-01 0.23776510E+03</pdfrwt>
<totfact> 0.29333541E+04</totfact>
</mgrwt>
</event>
<event>
 4    1  0.3875622E-001  0.3061353E+03  0.7546771E-02  0.1082213E+00
         21   -1    0    0  501  502  0.00000000000E+00  0.00000000000E+00  0.30278101624E+04  0.30278101624E+04  0.00000000000E+00 0.  1.
         21   -1    0    0  502  503 -0.00000000000E+00 -0.00000000000E+00 -0.31188815556E+02  0.31188815556E+02  0.00000000000E+00 0. -1.
          6    1    1    2  501    0  0.19479315423E+03 -0.16076511544E+03  0.16314002013E+04  0.16598751194E+04  0.17300000000E+03 0. -1.
         -6    1    1    2    0  503 -0.19479315423E+03  0.16076511544E+03  0.13652211455E+04  0.13991238585E+04  0.17300000000E+03 0. -1.
<mgrwt>
<rscale>  2 0.30613526E+03</rscale>
<asrwt>0</asrwt>
<pdfrwt beam="1">  1       21 0.46581672E+00 0.30613526E+03</pdfrwt>
<pdfrwt beam="2">  1       21 0.47982817E-02 0.30613526E+03</pdfrwt>
<totfact> 0.81604548E+02</totfact>
</mgrwt>
</event>
<event>
 4    1  0.3875622E-001  0.2110682E+03  0.7546771E-02  0.1140723E+00
         21   -1    0    0  501  502  0.00000000000E+00  0.00000000000E+00  0.85459813726E+03  0.85459813726E+03  0.00000000000E+00 0.  1.
         21   -1    0    0  502  503 -0.00000000000E+00 -0.00000000000E+00 -0.53883315325E+02  0.53883315325E+02  0.00000000000E+00 0.  1.
          6    1    1    2  501    0 -0.65017098595E+02 -0.10194884123E+03  0.48230733676E+03  0.52646952089E+03  0.17300000000E+03 0.  1.
         -6    1    1    2    0  503  0.65017098595E+02  0.10194884123E+03  0.31840748518E+03  0.38201193169E+03  0.17300000000E+03 0.  1.
<mgrwt>
<rscale>  2 0.21106821E+03</rscale>
<asrwt>0</asrwt>
<pdfrwt beam="1">  1       21 0.13147663E+00 0.21106821E+03</pdfrwt>
<pdfrwt beam="2">  1       21 0.82897414E-02 0.21106821E+03</pdfrwt>
<totfact> 0.46908695E+04</totfact>
</mgrwt>
</event>
<event>
 4    1  0.3875622E-001  0.1800899E+03  0.7546771E-02  0.1167716E+00
         21   -1    0    0  503  502  0.00000000000E+00  0.00000000000E+00  0.25484672929E+03  0.25484672929E+03  0.00000000000E+00 0.  1.
         21   -1    0    0  501  503 -0.00000000000E+00 -0.00000000000E+00 -0.13289513982E+03  0.13289513982E+03  0.00000000000E+00 0.  1.
          6    1    1    2  501    0 -0.66775383245E+01  0.49585942156E+02  0.21061749151E+02  0.18131727015E+03  0.17300000000E+03 0.  1.
         -6    1    1    2    0  502  0.66775383245E+01 -0.49585942156E+02  0.10088984031E+03  0.20642459896E+03  0.17300000000E+03 0.  1.
<mgrwt>
<rscale>  2 0.18008985E+03</rscale>
<asrwt>0</asrwt>
<pdfrwt beam="1">  1       21 0.39207189E-01 0.18008985E+03</pdfrwt>
<pdfrwt beam="2">  1       21 0.20445406E-01 0.18008985E+03</pdfrwt>
<totfact> 0.13951067E+05</totfact>
</mgrwt>
</event>
<event>
 4    1  0.3875622E-001  0.1970946E+03  0.7546771E-02  0.1152214E+00
         21   -1    0    0  503  502  0.00000000000E+00  0.00000000000E+00  0.15569159720E+04  0.15569159720E+04  0.00000000000E+00 0.  1.
         21   -1    0    0  501  503 -0.00000000000E+00 -0.00000000000E+00 -0.30270990819E+02  0.30270990819E+02  0.00000000000E+00 0.  1.
          6    1    1    2  501    0  0.65399897495E+02 -0.68118677412E+02  0.43062591407E+03  0.47358735063E+03  0.17300000000E+03 0. -1.
         -6    1    1    2    0  502 -0.65399897495E+02  0.68118677412E+02  0.10960190671E+04  0.11135996122E+04  0.17300000000E+03 0. -1.
<mgrwt>
<rscale>  2 0.19709465E+03</rscale>
<asrwt>0</asrwt>
<pdfrwt beam="1">  1       21 0.23952547E+00 0.19709465E+03</pdfrwt>
<pdfrwt beam="2">  1       21 0.46570767E-02 0.19709465E+03</pdfrwt>
<totfact> 0.23177242E+04</totfact>
</mgrwt>
</event>
<event>
 4    1  0.3875622E-001  0.1797969E+03  0.7546771E-02  0.1168000E+00
         21   -1    0    0  503  502  0.00000000000E+00  0.00000000000E+00  0.37927468238E+02  0.37927468238E+02  0.00000000000E+00 0. -1.
         21   -1    0    0  501  503 -0.00000000000E+00 -0.00000000000E+00 -0.85334575054E+03  0.85334575054E+03  0.00000000000E+00 0. -1.
          6    1    1    2  501    0  0.10939849021E+02  0.47730930415E+02 -0.42304346267E+03  0.45966584964E+03  0.17300000000E+03 0. -1.
         -6    1    1    2    0  502 -0.10939849021E+02 -0.47730930415E+02 -0.39237481963E+03  0.43160736914E+03  0.17300000000E+03 0. -1.
<mgrwt>
<rscale>  2 0.17979689E+03</rscale>
<asrwt>0</asrwt>
<pdfrwt beam="1">  1       21 0.58349949E-02 0.17979689E+03</pdfrwt>
<pdfrwt beam="2">  1       21 0.13128397E+00 0.17979689E+03</pdfrwt>
<totfact> 0.87724685E+04</totfact>
</mgrwt>
</event>
<event>
 4    1  0.3875622E-001  0.1815802E+03  0.7546771E-02  0.1166282E+00
         21   -1    0    0  503  502  0.00000000000E+00  0.00000000000E+00  0.12591705959E+03  0.12591705959E+03  0.00000000000E+00 0. -1.
         21   -1    0    0  501  503 -0.00000000000E+00 -0.00000000000E+00 -0.28318909107E+03  0.28318909107E+03  0.00000000000E+00 0. -1.
          6    1    1    2  501    0 -0.38736255428E+02  0.39266884009E+02 -0.13478674745E+03  0.22613901245E+03  0.17300000000E+03 0. -1.
         -6    1    1    2    0  502  0.38736255428E+02 -0.39266884009E+02 -0.22485284033E+02  0.18296713820E+03  0.17300000000E+03 0. -1.
<mgrwt>
<rscale>  2 0.18158025E+03</rscale>
<asrwt>0</asrwt>
<pdfrwt beam="1">  1       21 0.19371855E-01 0.18158025E+03</pdfrwt>
<pdfrwt beam="2">  1       21 0.43567552E-01 0.18158025E+03</pdfrwt>
<totfact> 0.12452385E+05</totfact>
</mgrwt>
</event>
<event>
 4    1  0.3875622E-001  0.1999977E+03  0.7546771E-02  0.1149741E+00
         21   -1    0    0  503  502  0.00000000000E+00  0.00000000000E+00  0.43659498490E+02  0.43659498490E+02  0.00000000000E+00 0.  1.
         21   -1    0    0  501  503 -0.00000000000E+00 -0.00000000000E+00 -0.91658333632E+03  0.91658333632E+03  0.00000000000E+00 0. -1.
          6    1    1    2  501    0 -0.72341997937E+02  0.69546461145E+02 -0.44678334153E+03  0.48950426882E+03  0.17300000000E+03 0.  1.
         -6    1    1    2    0  502  0.72341997937E+02 -0.69546461145E+02 -0.42614049630E+03  0.47073856599E+03  0.17300000000E+03 0.  1.
<mgrwt>
<rscale>  2 0.19999769E+03</rscale>
<asrwt>0</asrwt>
<pdfrwt beam="1">  1       21 0.67168460E-02 0.19999769E+03</pdfrwt>
<pdfrwt beam="2">  1       21 0.14101282E+00 0.19999769E+03</pdfrwt>
<totfact> 0.56823011E+04</totfact>
</mgrwt>
</event>
<event>
 4    1  0.3875622E-001  0.2168818E+03  0.7546771E-02  0.1136229E+00
         21   -1    0    0  501  502  0.00000000000E+00  0.00000000000E+00  0.93089846402E+02  0.93089846402E+02  0.00000000000E+00 0. -1.
         21   -1    0    0  502  503 -0.00000000000E+00 -0.00000000000E+00 -0.58813401815E+03  0.58813401815E+03  0.00000000000E+00 0.  1.
          6    1    1    2  501    0 -0.12256942880E+03 -0.45666858241E+02 -0.11968931703E+03  0.24771608634E+03  0.17300000000E+03 0.  1.
         -6    1    1    2    0  503  0.12256942880E+03  0.45666858241E+02 -0.37535485472E+03  0.43350777822E+03  0.17300000000E+03 0.  1.
<mgrwt>
<rscale>  2 0.21688183E+03</rscale>
<asrwt>0</asrwt>
<pdfrwt beam="1">  1       21 0.14321514E-01 0.21688183E+03</pdfrwt>
<pdfrwt beam="2">  1       21 0.90482159E-01 0.21688183E+03</pdfrwt>
<totfact> 0.43734812E+04</totfact>
</mgrwt>
</event>
<event>
 4    1  0.3875622E-001  0.1757989E+03  0.7546771E-02  0.1171932E+00
         21   -1    0    0  503  502  0.00000000000E+00  0.00000000000E+00  0.75233947132E+02  0.75233947132E+02  0.00000000000E+00 0. -1.
         21   -1    0    0  501  503 -0.00000000000E+00 -0.00000000000E+00 -0.42559925075E+03  0.42559925075E+03  0.00000000000E+00 0. -1.
          6    1    1    2  501    0  0.18932444389E+02  0.24855850070E+02 -0.22189688100E+03  0.28309623192E+03  0.17300000000E+03 0. -1.
         -6    1    1    2    0  502 -0.18932444389E+02 -0.24855850070E+02 -0.12846842262E+03  0.21773696596E+03  0.17300000000E+03 0. -1.
<mgrwt>
<rscale>  2 0.17579889E+03</rscale>
<asrwt>0</asrwt>
<pdfrwt beam="1">  1       21 0.11574454E-01 0.17579889E+03</pdfrwt>
<pdfrwt beam="2">  1       21 0.65476807E-01 0.17579889E+03</pdfrwt>
<totfact> 0.13505839E+05</totfact>
</mgrwt>
</event>
<event>
 4    1  0.3875622E-001  0.2575025E+03  0.7546771E-02  0.1108653E+00
         21   -1    0    0  503  502  0.00000000000E+00  0.00000000000E+00  0.24120029006E+02  0.24120029006E+02  0.00000000000E+00 0.  1.
         21   -1    0    0  501  503 -0.00000000000E+00 -0.00000000000E+00 -0.27647702996E+04  0.27647702996E+04  0.00000000000E+00 0. -1.
          6    1    1    2  501    0 -0.18154250118E+03 -0.58488169389E+02 -0.14754207557E+04  0.14977229223E+04  0.17300000000E+03 0. -1.
         -6    1    1    2    0  502  0.18154250118E+03  0.58488169389E+02 -0.12652295149E+04  0.12911674063E+04  0.17300000000E+03 0.  1.
<mgrwt>
<rscale>  2 0.25750252E+03</rscale>
<asrwt>0</asrwt>
<pdfrwt beam="1">  1       21 0.37107743E-02 0.25750252E+03</pdfrwt>
<pdfrwt beam="2">  1       21 0.42534921E+00 0.25750252E+03</pdfrwt>
<totfact> 0.24664719E+03</totfact>
</mgrwt>
</event>
<event>
 4    1  0.3875622E-001  0.1823524E+03  0.7546771E-02  0.1165546E+00
         21   -1    0    0  501  502  0.00000000000E+00  0.00000000000E+00  0.56927097858E+02  0.56927097858E+02  0.00000000000E+00 0. -1.
         21   -1    0    0  502  503 -0.00000000000E+00 -0.00000000000E+00 -0.73874388892E+03  0.73874388892E+03  0.00000000000E+00 0. -1.
          6    1    1    2  501    0 -0.55694211415E+02  0.14884955208E+02 -0.52291667942E+03  0.55379983812E+03  0.17300000000E+03 0. -1.
         -6    1    1    2    0  503  0.55694211415E+02 -0.14884955208E+02 -0.15890011163E+03  0.24187114866E+03  0.17300000000E+03 0. -1.
<mgrwt>
<rscale>  2 0.18235243E+03</rscale>
<asrwt>0</asrwt>
<pdfrwt beam="1">  1       21 0.87580152E-02 0.18235243E+03</pdfrwt>
<pdfrwt beam="2">  1       21 0.11365290E+00 0.18235243E+03</pdfrwt>
<totfact> 0.62126561E+04</totfact>
</mgrwt>
</event>
<event>
 4    1  0.3875622E-001  0.1972301E+03  0.7546771E-02  0.1152097E+00
         21   -1    0    0  503  502  0.00000000000E+00  0.00000000000E+00  0.32472358016E+03  0.32472358016E+03  0.00000000000E+00 0. -1.
         21   -1    0    0  501  503 -0.00000000000E+00 -0.00000000000E+00 -0.14050207662E+03  0.14050207662E+03  0.00000000000E+00 0.  1.
          6    1    1    2  501    0 -0.40362387006E+02 -0.85683029157E+02  0.28070031455E+01  0.19725005206E+03  0.17300000000E+03 0. -1.
         -6    1    1    2    0  502  0.40362387006E+02  0.85683029157E+02  0.18141450040E+03  0.26797560472E+03  0.17300000000E+03 0.  1.
<mgrwt>
<rscale>  2 0.19723008E+03</rscale>
<asrwt>0</asrwt>
<pdfrwt beam="1">  1       21 0.49957474E-01 0.19723008E+03</pdfrwt>
<pdfrwt beam="2">  1       21 0.21615704E-01 0.19723008E+03</pdfrwt>
<totfact> 0.76018990E+04</totfact>
</mgrwt>
</event>
<event>
 4    1  0.3875622E-001  0.2040003E+03  0.7546771E-02  0.1146407E+00
         21   -1    0    0  503  502  0.00000000000E+00  0.00000000000E+00  0.69536291460E+02  0.69536291460E+02  0.00000000000E+00 0. -1.
         21   -1    0    0  501  503 -0.00000000000E+00 -0.00000000000E+00 -0.63355414166E+03  0.63355414166E+03  0.00000000000E+00 0.  1.
          6    1    1    2  501    0  0.38543824993E+02 -0.10100237347E+03 -0.36472321026E+03  0.41789846374E+03  0.17300000000E+03 0. -1.
         -6    1    1    2    0  502 -0.38543824993E+02  0.10100237347E+03 -0.19929463994E+03  0.28519196939E+03  0.17300000000E+03 0. -1.
<mgrwt>
<rscale>  2 0.20400026E+03</rscale>
<asrwt>0</asrwt>
<pdfrwt beam="1">  1       21 0.10697891E-01 0.20400026E+03</pdfrwt>
<pdfrwt beam="2">  1       21 0.97469864E-01 0.20400026E+03</pdfrwt>
<totfact> 0.62459768E+04</totfact>
</mgrwt>
</event>
<event>
 4    1  0.3875622E-001  0.1974840E+03  0.7546771E-02  0.1151879E+00
         21   -1    0    0  501  502  0.00000000000E+00  0.00000000000E+00  0.39005183725E+03  0.39005183725E+03  0.00000000000E+00 0.  1.
         21   -1    0    0  502  503 -0.00000000000E+00 -0.00000000000E+00 -0.10142197002E+03  0.10142197002E+03  0.00000000000E+00 0.  1.
          6    1    1    2  501    0  0.73411843060E+02 -0.60676325355E+02  0.11507997146E+03  0.22856796581E+03  0.17300000000E+03 0.  1.
         -6    1    1    2    0  503 -0.73411843060E+02  0.60676325355E+02  0.17354989576E+03  0.26290584147E+03  0.17300000000E+03 0.  1.
<mgrwt>
<rscale>  2 0.19748396E+03</rscale>
<asrwt>0</asrwt>
<pdfrwt beam="1">  1       21 0.60007974E-01 0.19748396E+03</pdfrwt>
<pdfrwt beam="2">  1       21 0.15603380E-01 0.19748396E+03</pdfrwt>
<totfact> 0.94379132E+04</totfact>
</mgrwt>
</event>
<event>
 4    1  0.3875622E-001  0.2098514E+03  0.7546771E-02  0.1141684E+00
         21   -1    0    0  503  502  0.00000000000E+00  0.00000000000E+00  0.48879887972E+03  0.48879887972E+03  0.00000000000E+00 0.  1.
         21   -1    0    0  501  503 -0.00000000000E+00 -0.00000000000E+00 -0.94637151655E+02  0.94637151655E+02  0.00000000000E+00 0.  1.
          6    1    1    2  501    0  0.36168765606E+02  0.11313889815E+03  0.13316096109E+03  0.24853456789E+03  0.17300000000E+03 0.  1.
         -6    1    1    2    0  502 -0.36168765606E+02 -0.11313889815E+03  0.26100076698E+03  0.33490146348E+03  0.17300000000E+03 0.  1.
<mgrwt>
<rscale>  2 0.20985135E+03</rscale>
<asrwt>0</asrwt>
<pdfrwt beam="1">  1       21 0.75199826E-01 0.20985135E+03</pdfrwt>
<pdfrwt beam="2">  1       21 0.14559562E-01 0.20985135E+03</pdfrwt>
<totfact> 0.64935533E+04</totfact>
</mgrwt>
</event>
<event>
 4    1  0.3875622E-001  0.2329514E+03  0.7546771E-02  0.1124580E+00
         21   -1    0    0  503  502  0.00000000000E+00  0.00000000000E+00  0.96688940638E+03  0.96688940638E+03  0.00000000000E+00 0.  1.
         21   -1    0    0  501  503 -0.00000000000E+00 -0.00000000000E+00 -0.57276420732E+02  0.57276420732E+02  0.00000000000E+00 0.  1.
          6    1    1    2  501    0 -0.15354639475E+03  0.27583442233E+02  0.38219037808E+03  0.44758890371E+03  0.17300000000E+03 0.  1.
         -6    1    1    2    0  502  0.15354639475E+03 -0.27583442233E+02  0.52742260756E+03  0.57657692340E+03  0.17300000000E+03 0.  1.
<mgrwt>
<rscale>  2 0.23295137E+03</rscale>
<asrwt>0</asrwt>
<pdfrwt beam="1">  1       21 0.14875220E+00 0.23295137E+03</pdfrwt>
<pdfrwt beam="2">  1       21 0.88117577E-02 0.23295137E+03</pdfrwt>
<totfact> 0.30244069E+04</totfact>
</mgrwt>
</event>
<event>
 4    1  0.3875622E-001  0.2149304E+03  0.7546771E-02  0.1137720E+00
         21   -1    0    0  501  502  0.00000000000E+00  0.00000000000E+00  0.15808603712E+03  0.15808603712E+03  0.00000000000E+00 0.  1.
         21   -1    0    0  502  503 -0.00000000000E+00 -0.00000000000E+00 -0.34597622199E+03  0.34597622199E+03  0.00000000000E+00 0.  1.
          6    1    1    2  501    0 -0.70707621840E+02  0.10614385219E+03  0.54045469208E+01  0.21499835876E+03  0.17300000000E+03 0.  1.
         -6    1    1    2    0  503  0.70707621840E+02 -0.10614385219E+03 -0.19329473179E+03  0.28906390034E+03  0.17300000000E+03 0.  1.
<mgrwt>
<rscale>  2 0.21493042E+03</rscale>
<asrwt>0</asrwt>
<pdfrwt beam="1">  1       21 0.24320929E-01 0.21493042E+03</pdfrwt>
<pdfrwt beam="2">  1       21 0.53227111E-01 0.21493042E+03</pdfrwt>
<totfact> 0.52796542E+04</totfact>
</mgrwt>
</event>
<event>
 4    1  0.3875622E-001  0.1895546E+03  0.7546771E-02  0.1158864E+00
         21   -1    0    0  501  502  0.00000000000E+00  0.00000000000E+00  0.10876096356E+03  0.10876096356E+03  0.00000000000E+00 0.  1.
         21   -1    0    0  502  503 -0.00000000000E+00 -0.00000000000E+00 -0.35696750840E+03  0.35696750840E+03  0.00000000000E+00 0. -1.
          6    1    1    2  501    0 -0.75466305400E+02  0.17515748473E+02 -0.60535270145E+02  0.19898613928E+03  0.17300000000E+03 0.  1.
         -6    1    1    2    0  503  0.75466305400E+02 -0.17515748473E+02 -0.18767127470E+03  0.26674233268E+03  0.17300000000E+03 0. -1.
<mgrwt>
<rscale>  2 0.18955465E+03</rscale>
<asrwt>0</asrwt>
<pdfrwt beam="1">  1       21 0.16732456E-01 0.18955465E+03</pdfrwt>
<pdfrwt beam="2">  1       21 0.54918078E-01 0.18955465E+03</pdfrwt>
<totfact> 0.10062544E+05</totfact>
</mgrwt>
</event>
<event>
 4    1  0.3875622E-001  0.1857685E+03  0.7546771E-02  0.1162334E+00
         21   -1    0    0  503  502  0.00000000000E+00  0.00000000000E+00  0.18333767603E+03  0.18333767603E+03  0.00000000000E+00 0. -1.
         21   -1    0    0  501  503 -0.00000000000E+00 -0.00000000000E+00 -0.18909898683E+03  0.18909898683E+03  0.00000000000E+00 0. -1.
          6    1    1    2  501    0 -0.66590530613E+02 -0.12110135426E+02  0.97309542373E+01  0.18602323946E+03  0.17300000000E+03 0. -1.
         -6    1    1    2    0  502  0.66590530613E+02  0.12110135426E+02 -0.15492265039E+02  0.18641342340E+03  0.17300000000E+03 0. -1.
<mgrwt>
<rscale>  2 0.18576855E+03</rscale>
<asrwt>0</asrwt>
<pdfrwt beam="1">  1       21 0.28205797E-01 0.18576855E+03</pdfrwt>
<pdfrwt beam="2">  1       21 0.29092151E-01 0.18576855E+03</pdfrwt>
<totfact> 0.13620118E+05</totfact>
</mgrwt>
</event>
<event>
 4    1  0.3875622E-001  0.6883116E+03  0.7546771E-02  0.9737432E-01
         21   -1    0    0  503  502  0.00000000000E+00  0.00000000000E+00  0.10234606417E+04  0.10234606417E+04  0.00000000000E+00 0.  1.
         21   -1    0    0  501  503 -0.00000000000E+00 -0.00000000000E+00 -0.52222755099E+03  0.52222755099E+03  0.00000000000E+00 0. -1.
          6    1    1    2  501    0 -0.51166583779E+03  0.42666366483E+03 -0.98453175334E+01  0.68838197443E+03  0.17300000000E+03 0. -1.
         -6    1    1    2    0  502  0.51166583779E+03 -0.42666366483E+03  0.51107840821E+03  0.85730621821E+03  0.17300000000E+03 0.  1.
<mgrwt>
<rscale>  2 0.68831157E+03</rscale>
<asrwt>0</asrwt>
<pdfrwt beam="1">  1       21 0.15745548E+00 0.68831157E+03</pdfrwt>
<pdfrwt beam="2">  1       21 0.80342700E-01 0.68831157E+03</pdfrwt>
<totfact> 0.26824309E+02</totfact>
</mgrwt>
</event>
<event>
 4    1  0.3875622E-001  0.1785251E+03  0.7546771E-02  0.1169238E+00
         21   -1    0    0  501  502  0.00000000000E+00  0.00000000000E+00  0.19123604688E+03  0.19123604688E+03  0.00000000000E+00 0. -1.
         21   -1    0    0  502  503 -0.00000000000E+00 -0.00000000000E+00 -0.49848977226E+03  0.49848977226E+03  0.00000000000E+00 0. -1.
          6    1    1    2  501    0 -0.29497082600E+02  0.32743720858E+02  0.12774237867E+03  0.21952071530E+03  0.17300000000E+03 0. -1.
         -6    1    1    2    0  503  0.29497082600E+02 -0.32743720858E+02 -0.43499610404E+03  0.47020510383E+03  0.17300000000E+03 0. -1.
<mgrwt>
<rscale>  2 0.17852515E+03</rscale>
<asrwt>0</asrwt>
<pdfrwt beam="1">  1       21 0.29420931E-01 0.17852515E+03</pdfrwt>
<pdfrwt beam="2">  1       21 0.76690732E-01 0.17852515E+03</pdfrwt>
<totfact> 0.16890935E+04</totfact>
</mgrwt>
</event>
<event>
 4    1  0.3875622E-001  0.1916950E+03  0.7546771E-02  0.1156941E+00
         21   -1    0    0  503  502  0.00000000000E+00  0.00000000000E+00  0.72809575239E+02  0.72809575239E+02  0.00000000000E+00 0.  1.
         21   -1    0    0  501  503 -0.00000000000E+00 -0.00000000000E+00 -0.69926484956E+03  0.69926484956E+03  0.00000000000E+00 0. -1.
          6    1    1    2  501    0 -0.41632727830E+02  0.71307021991E+02 -0.10959809861E+03  0.22081376458E+03  0.17300000000E+03 0.  1.
         -6    1    1    2    0  502  0.41632727830E+02 -0.71307021991E+02 -0.51685717571E+03  0.55126066021E+03  0.17300000000E+03 0. -1.
<mgrwt>
<rscale>  2 0.19169501E+03</rscale>
<asrwt>0</asrwt>
<pdfrwt beam="1">  1       21 0.11201472E-01 0.19169501E+03</pdfrwt>
<pdfrwt beam="2">  1       21 0.10757921E+00 0.19169501E+03</pdfrwt>
<totfact> 0.45754832E+04</totfact>
</mgrwt>
</event>
<event>
 4    1  0.3875622E-001  0.3338570E+03  0.7546771E-02  0.1069443E+00
         21   -1    0    0  503  502  0.00000000000E+00  0.00000000000E+00  0.13522272297E+03  0.13522272297E+03  0.00000000000E+00 0.  1.
         21   -1    0    0  501  503 -0.00000000000E+00 -0.00000000000E+00 -0.84655851600E+03  0.84655851600E+03  0.00000000000E+00 0.  1.
          6    1    1    2  501    0 -0.25428433836E+03 -0.12988828933E+03 -0.43531386114E+03  0.54859698335E+03  0.17300000000E+03 0.  1.
         -6    1    1    2    0  502  0.25428433836E+03  0.12988828933E+03 -0.27602193189E+03  0.43318425563E+03  0.17300000000E+03 0.  1.
<mgrwt>
<rscale>  2 0.33385699E+03</rscale>
<asrwt>0</asrwt>
<pdfrwt beam="1">  1       21 0.20803496E-01 0.33385699E+03</pdfrwt>
<pdfrwt beam="2">  1       21 0.13023977E+00 0.33385699E+03</pdfrwt>
<totfact> 0.85042491E+03</totfact>
</mgrwt>
</event>
<event>
 4    1  0.3875622E-001  0.1996402E+03  0.7546771E-02  0.1150043E+00
         21   -1    0    0  501  502  0.00000000000E+00  0.00000000000E+00  0.40098381362E+03  0.40098381362E+03  0.00000000000E+00 0.  1.
         21   -1    0    0  502  503 -0.00000000000E+00 -0.00000000000E+00 -0.11731826956E+03  0.11731826956E+03  0.00000000000E+00 0. -1.
          6    1    1    2  501    0  0.97535935989E+02 -0.20345294249E+02  0.24312276857E+03  0.31458682491E+03  0.17300000000E+03 0.  1.
         -6    1    1    2    0  503 -0.97535935989E+02  0.20345294249E+02  0.40542775486E+02  0.20371525827E+03  0.17300000000E+03 0. -1.
<mgrwt>
<rscale>  2 0.19964015E+03</rscale>
<asrwt>0</asrwt>
<pdfrwt beam="1">  1       21 0.61689817E-01 0.19964015E+03</pdfrwt>
<pdfrwt beam="2">  1       21 0.18048965E-01 0.19964015E+03</pdfrwt>
<totfact> 0.67968704E+04</totfact>
</mgrwt>
</event>
<event>
 4    1  0.3875622E-001  0.2288323E+03  0.7546771E-02  0.1127464E+00
         21   -1    0    0  503  502  0.00000000000E+00  0.00000000000E+00  0.98214758602E+03  0.98214758602E+03  0.00000000000E+00 0.  1.
         21   -1    0    0  501  503 -0.00000000000E+00 -0.00000000000E+00 -0.54960015598E+02  0.54960015598E+02  0.00000000000E+00 0.  1.
          6    1    1    2  501    0  0.12150462213E+03  0.87589153881E+02  0.37390950630E+03  0.43837489889E+03  0.17300000000E+03 0. -1.
         -6    1    1    2    0  502 -0.12150462213E+03 -0.87589153881E+02  0.55327806412E+03  0.59873270272E+03  0.17300000000E+03 0. -1.
<mgrwt>
<rscale>  2 0.22883233E+03</rscale>
<asrwt>0</asrwt>
<pdfrwt beam="1">  1       21 0.15109962E+00 0.22883233E+03</pdfrwt>
<pdfrwt beam="2">  1       21 0.84553877E-02 0.22883233E+03</pdfrwt>
<totfact> 0.31267282E+04</totfact>
</mgrwt>
</event>
<event>
 4    1  0.3875622E-001  0.2560120E+03  0.7546771E-02  0.1109563E+00
         21   -1    0    0  503  502  0.00000000000E+00  0.00000000000E+00  0.42264296078E+03  0.42264296078E+03  0.00000000000E+00 0. -1.
         21   -1    0    0  501  503 -0.00000000000E+00 -0.00000000000E+00 -0.43134673295E+03  0.43134673295E+03  0.00000000000E+00 0. -1.
          6    1    1    2  501    0 -0.74071238466E+02 -0.17357016879E+03 -0.34607639284E+03  0.43047766671E+03  0.17300000000E+03 0. -1.
         -6    1    1    2    0  502  0.74071238466E+02  0.17357016879E+03  0.33737262067E+03  0.42351202703E+03  0.17300000000E+03 0. -1.
<mgrwt>
<rscale>  2 0.25601202E+03</rscale>
<asrwt>0</asrwt>
<pdfrwt beam="1">  1       21 0.65021994E-01 0.25601202E+03</pdfrwt>
<pdfrwt beam="2">  1       21 0.66361036E-01 0.25601202E+03</pdfrwt>
<totfact> 0.43377416E+03</totfact>
</mgrwt>
</event>
<event>
 4    1  0.3875622E-001  0.2186211E+03  0.7546771E-02  0.1134915E+00
         21   -1    0    0  501  502  0.00000000000E+00  0.00000000000E+00  0.93596119370E+02  0.93596119370E+02  0.00000000000E+00 0.  1.
         21   -1    0    0  502  503 -0.00000000000E+00 -0.00000000000E+00 -0.74172944176E+03  0.74172944176E+03  0.00000000000E+00 0. -1.
          6    1    1    2  501    0 -0.12516152978E+03  0.46912477947E+02 -0.90946223219E+02  0.23678345517E+03  0.17300000000E+03 0.  1.
         -6    1    1    2    0  503  0.12516152978E+03 -0.46912477947E+02 -0.55718709917E+03  0.59854210596E+03  0.17300000000E+03 0. -1.
<mgrwt>
<rscale>  2 0.21862111E+03</rscale>
<asrwt>0</asrwt>
<pdfrwt beam="1">  1       21 0.14399403E-01 0.21862111E+03</pdfrwt>
<pdfrwt beam="2">  1       21 0.11411222E+00 0.21862111E+03</pdfrwt>
<totfact> 0.24859553E+04</totfact>
</mgrwt>
</event>
<event>
 4    1  0.3875622E-001  0.3561739E+03  0.7546771E-02  0.1060109E+00
         21   -1    0    0  503  502  0.00000000000E+00  0.00000000000E+00  0.14426062454E+03  0.14426062454E+03  0.00000000000E+00 0. -1.
         21   -1    0    0  501  503 -0.00000000000E+00 -0.00000000000E+00 -0.92531863564E+03  0.92531863564E+03  0.00000000000E+00 0.  1.
          6    1    1    2  501    0 -0.24516595314E+01 -0.31132753286E+03 -0.50968845497E+03  0.62180556807E+03  0.17300000000E+03 0.  1.
         -6    1    1    2    0  502  0.24516595314E+01  0.31132753286E+03 -0.27136955613E+03  0.44777369211E+03  0.17300000000E+03 0. -1.
<mgrwt>
<rscale>  2 0.35617389E+03</rscale>
<asrwt>0</asrwt>
<pdfrwt beam="1">  1       21 0.22193943E-01 0.35617389E+03</pdfrwt>
<pdfrwt beam="2">  1       21 0.14235671E+00 0.35617389E+03</pdfrwt>
<totfact> 0.59020013E+03</totfact>
</mgrwt>
</event>
<event>
 4    1  0.3875622E-001  0.3175329E+03  0.7546771E-02  0.1076790E+00
         21   -1    0    0  501  502  0.00000000000E+00  0.00000000000E+00  0.49606800757E+03  0.49606800757E+03  0.00000000000E+00 0.  1.
         21   -1    0    0  502  503 -0.00000000000E+00 -0.00000000000E+00 -0.20373614179E+03  0.20373614179E+03  0.00000000000E+00 0.  1.
          6    1    1    2  501    0  0.93865666505E+02 -0.24917342464E+03  0.16321055247E+03  0.35702218885E+03  0.17300000000E+03 0.  1.
         -6    1    1    2    0  503 -0.93865666505E+02  0.24917342464E+03  0.12912131331E+03  0.34278196050E+03  0.17300000000E+03 0.  1.
<mgrwt>
<rscale>  2 0.31753293E+03</rscale>
<asrwt>0</asrwt>
<pdfrwt beam="1">  1       21 0.76318155E-01 0.31753293E+03</pdfrwt>
<pdfrwt beam="2">  1       21 0.31344022E-01 0.31753293E+03</pdfrwt>
<totfact> 0.14025107E+04</totfact>
</mgrwt>
</event>
<event>
 4    1  0.3875622E-001  0.1843696E+03  0.7546771E-02  0.1163640E+00
         21   -1    0    0  501  502  0.00000000000E+00  0.00000000000E+00  0.72432010087E+02  0.72432010087E+02  0.00000000000E+00 0.  1.
         21   -1    0    0  502  503 -0.00000000000E+00 -0.00000000000E+00 -0.47471487526E+03  0.47471487526E+03  0.00000000000E+00 0.  1.
          6    1    1    2  501    0  0.62211615173E+02 -0.13887791241E+02 -0.17191640102E+03  0.25208610582E+03  0.17300000000E+03 0. -1.
         -6    1    1    2    0  503 -0.62211615173E+02  0.13887791241E+02 -0.23036646415E+03  0.29506077952E+03  0.17300000000E+03 0. -1.
<mgrwt>
<rscale>  2 0.18436962E+03</rscale>
<asrwt>0</asrwt>
<pdfrwt beam="1">  1       21 0.11143386E-01 0.18436962E+03</pdfrwt>
<pdfrwt beam="2">  1       21 0.73033059E-01 0.18436962E+03</pdfrwt>
<totfact> 0.11332264E+05</totfact>
</mgrwt>
</event>
<event>
 4    1  0.3875622E-001  0.1741017E+03  0.7546771E-02  0.1173637E+00
         21   -1    0    0  501  502  0.00000000000E+00  0.00000000000E+00  0.99728369681E+02  0.99728369681E+02  0.00000000000E+00 0.  1.
         21   -1    0    0  502  503 -0.00000000000E+00 -0.00000000000E+00 -0.32672363660E+03  0.32672363660E+03  0.00000000000E+00 0.  1.
          6    1    1    2  501    0 -0.14061951609E+02  0.13588634935E+02 -0.57190125814E+02  0.18325419497E+03  0.17300000000E+03 0.  1.
         -6    1    1    2    0  503  0.14061951609E+02 -0.13588634935E+02 -0.16980514111E+03  0.24319781132E+03  0.17300000000E+03 0.  1.
<mgrwt>
<rscale>  2 0.17410166E+03</rscale>
<asrwt>0</asrwt>
<pdfrwt beam="1">  1       21 0.15342826E-01 0.17410166E+03</pdfrwt>
<pdfrwt beam="2">  1       21 0.50265174E-01 0.17410166E+03</pdfrwt>
<totfact> 0.14275836E+05</totfact>
</mgrwt>
</event>
<event>
 4    1  0.3875622E-001  0.1865046E+03  0.7546771E-02  0.1161652E+00
         21   -1    0    0  503  502  0.00000000000E+00  0.00000000000E+00  0.14591567993E+03  0.14591567993E+03  0.00000000000E+00 0.  1.
         21   -1    0    0  501  503 -0.00000000000E+00 -0.00000000000E+00 -0.41289694345E+03  0.41289694345E+03  0.00000000000E+00 0.  1.
          6    1    1    2  501    0 -0.40940568356E+02  0.56381246290E+02 -0.31513799629E+03  0.36619111373E+03  0.17300000000E+03 0.  1.
         -6    1    1    2    0  502  0.40940568356E+02 -0.56381246290E+02  0.48156732758E+02  0.19262150965E+03  0.17300000000E+03 0.  1.
<mgrwt>
<rscale>  2 0.18650462E+03</rscale>
<asrwt>0</asrwt>
<pdfrwt beam="1">  1       21 0.22448567E-01 0.18650462E+03</pdfrwt>
<pdfrwt beam="2">  1       21 0.63522604E-01 0.18650462E+03</pdfrwt>
<totfact> 0.42702268E+04</totfact>
</mgrwt>
</event>
<event>
 4    1  0.3875622E-001  0.1824839E+03  0.7546771E-02  0.1165421E+00
         21   -1    0    0  503  502  0.00000000000E+00  0.00000000000E+00  0.19833641070E+03  0.19833641070E+03  0.00000000000E+00 0.  1.
         21   -1    0    0  501  503 -0.00000000000E+00 -0.00000000000E+00 -0.18185698577E+03  0.18185698577E+03  0.00000000000E+00 0.  1.
          6    1    1    2  501    0 -0.48601699963E+02  0.31768802428E+02  0.60905554482E+02  0.19237949115E+03  0.17300000000E+03 0.  1.
         -6    1    1    2    0  502  0.48601699963E+02 -0.31768802428E+02 -0.44426129557E+02  0.18781390533E+03  0.17300000000E+03 0.  1.
<mgrwt>
<rscale>  2 0.18248392E+03</rscale>
<asrwt>0</asrwt>
<pdfrwt beam="1">  1       21 0.30513294E-01 0.18248392E+03</pdfrwt>
<pdfrwt beam="2">  1       21 0.27977998E-01 0.18248392E+03</pdfrwt>
<totfact> 0.12623352E+05</totfact>
</mgrwt>
</event>
<event>
 4    1  0.3875622E-001  0.2634346E+03  0.7546771E-02  0.1105097E+00
         21   -1    0    0  503  502  0.00000000000E+00  0.00000000000E+00  0.82182701870E+02  0.82182701870E+02  0.00000000000E+00 0. -1.
         21   -1    0    0  501  503 -0.00000000000E+00 -0.00000000000E+00 -0.97459484077E+03  0.97459484077E+03  0.00000000000E+00 0. -1.
          6    1    1    2  501    0 -0.59482248043E+02 -0.18955376092E+03 -0.63930673036E+03  0.69145561072E+03  0.17300000000E+03 0. -1.
         -6    1    1    2    0  502  0.59482248043E+02  0.18955376092E+03 -0.25310540854E+03  0.36532193192E+03  0.17300000000E+03 0. -1.
<mgrwt>
<rscale>  2 0.26343456E+03</rscale>
<asrwt>0</asrwt>
<pdfrwt beam="1">  1       21 0.12643492E-01 0.26343456E+03</pdfrwt>
<pdfrwt beam="2">  1       21 0.14993767E+00 0.26343456E+03</pdfrwt>
<totfact> 0.15302328E+04</totfact>
</mgrwt>
</event>
<event>
 4    1  0.3875622E-001  0.2438598E+03  0.7546771E-02  0.1117248E+00
         21   -1    0    0  501  502  0.00000000000E+00  0.00000000000E+00  0.22673693784E+03  0.22673693784E+03  0.00000000000E+00 0. -1.
         21   -1    0    0  502  503 -0.00000000000E+00 -0.00000000000E+00 -0.27851110953E+03  0.27851110953E+03  0.00000000000E+00 0. -1.
          6    1    1    2  501    0  0.11362077896E+03  0.12895326495E+03  0.35106313106E+02  0.24637386057E+03  0.17300000000E+03 0. -1.
         -6    1    1    2    0  503 -0.11362077896E+03 -0.12895326495E+03 -0.86880484796E+02  0.25887418680E+03  0.17300000000E+03 0. -1.
<mgrwt>
<rscale>  2 0.24385985E+03</rscale>
<asrwt>0</asrwt>
<pdfrwt beam="1">  1       21 0.34882606E-01 0.24385985E+03</pdfrwt>
<pdfrwt beam="2">  1       21 0.42847863E-01 0.24385985E+03</pdfrwt>
<totfact> 0.40507038E+04</totfact>
</mgrwt>
</event>
<event>
 4    1  0.3875622E-001  0.1980535E+03  0.7546771E-02  0.1151392E+00
         21   -1    0    0  503  502  0.00000000000E+00  0.00000000000E+00  0.23343492331E+03  0.23343492331E+03  0.00000000000E+00 0.  1.
         21   -1    0    0  501  503 -0.00000000000E+00 -0.00000000000E+00 -0.17011639681E+03  0.17011639681E+03  0.00000000000E+00 0. -1.
          6    1    1    2  501    0 -0.41952849726E+02  0.86811039106E+02  0.93394445399E+01  0.19827360726E+03  0.17300000000E+03 0. -1.
         -6    1    1    2    0  502  0.41952849726E+02 -0.86811039106E+02  0.53979081954E+02  0.20527771287E+03  0.17300000000E+03 0.  1.
<mgrwt>
<rscale>  2 0.19805352E+03</rscale>
<asrwt>0</asrwt>
<pdfrwt beam="1">  1       21 0.35913065E-01 0.19805352E+03</pdfrwt>
<pdfrwt beam="2">  1       21 0.26171753E-01 0.19805352E+03</pdfrwt>
<totfact> 0.10352122E+05</totfact>
</mgrwt>
</event>
<event>
 4    1  0.3875622E-001  0.2411686E+03  0.7546771E-02  0.1119017E+00
         21   -1    0    0  503  502  0.00000000000E+00  0.00000000000E+00  0.29412105057E+03  0.29412105057E+03  0.00000000000E+00 0.  1.
         21   -1    0    0  501  503 -0.00000000000E+00 -0.00000000000E+00 -0.20631340681E+03  0.20631340681E+03  0.00000000000E+00 0. -1.
          6    1    1    2  501    0 -0.16246198584E+03 -0.42888383595E+02 -0.70747613004E+01  0.24127238246E+03  0.17300000000E+03 0. -1.
         -6    1    1    2    0  502  0.16246198584E+03  0.42888383595E+02  0.94882405056E+02  0.25916207492E+03  0.17300000000E+03 0.  1.
<mgrwt>
<rscale>  2 0.24116863E+03</rscale>
<asrwt>0</asrwt>
<pdfrwt beam="1">  1       21 0.45249392E-01 0.24116863E+03</pdfrwt>
<pdfrwt beam="2">  1       21 0.31740524E-01 0.24116863E+03</pdfrwt>
<totfact> 0.43710111E+04</totfact>
</mgrwt>
</event>
<event>
 4    1  0.3875622E-001  0.2554935E+03  0.7546771E-02  0.1109881E+00
         21   -1    0    0  503  502  0.00000000000E+00  0.00000000000E+00  0.12447861841E+03  0.12447861841E+03  0.00000000000E+00 0.  1.
         21   -1    0    0  501  503 -0.00000000000E+00 -0.00000000000E+00 -0.55922228920E+03  0.55922228920E+03  0.00000000000E+00 0.  1.
          6    1    1    2  501    0 -0.17694530798E+03 -0.63547439633E+02 -0.30267319840E+03  0.39609087862E+03  0.17300000000E+03 0.  1.
         -6    1    1    2    0  502  0.17694530798E+03  0.63547439633E+02 -0.13207047239E+03  0.28761002899E+03  0.17300000000E+03 0.  1.
<mgrwt>
<rscale>  2 0.25549348E+03</rscale>
<asrwt>0</asrwt>
<pdfrwt beam="1">  1       21 0.19150556E-01 0.25549348E+03</pdfrwt>
<pdfrwt beam="2">  1       21 0.86034201E-01 0.25549348E+03</pdfrwt>
<totfact> 0.28246162E+04</totfact>
</mgrwt>
</event>
<event>
 4    1  0.3875622E-001  0.2209547E+03  0.7546771E-02  0.1133173E+00
         21   -1    0    0  503  502  0.00000000000E+00  0.00000000000E+00  0.87340520958E+02  0.87340520958E+02  0.00000000000E+00 0. -1.
         21   -1    0    0  501  503 -0.00000000000E+00 -0.00000000000E+00 -0.57171474960E+03  0.57171474960E+03  0.00000000000E+00 0.  1.
          6    1    1    2  501    0  0.59697091203E+02 -0.12380725368E+03 -0.29138194371E+03  0.36568349140E+03  0.17300000000E+03 0.  1.
         -6    1    1    2    0  502 -0.59697091203E+02  0.12380725368E+03 -0.19299228493E+03  0.29337177916E+03  0.17300000000E+03 0. -1.
<mgrwt>
<rscale>  2 0.22095470E+03</rscale>
<asrwt>0</asrwt>
<pdfrwt beam="1">  1       21 0.13437003E-01 0.22095470E+03</pdfrwt>
<pdfrwt beam="2">  1       21 0.87956115E-01 0.22095470E+03</pdfrwt>
<totfact> 0.52330937E+04</totfact>
</mgrwt>
</event>
<event>
 4    1  0.3875622E-001  0.1740028E+03  0.7546771E-02  0.1173737E+00
         21   -1    0    0  501  502  0.00000000000E+00  0.00000000000E+00  0.34350634271E+02  0.34350634271E+02  0.00000000000E+00 0.  1.
         21   -1    0    0  502  503 -0.00000000000E+00 -0.00000000000E+00 -0.11676293996E+04  0.11676293996E+04  0.00000000000E+00 0.  1.
          6    1    1    2  501    0  0.18637412456E+02  0.78623238239E+00 -0.26908609735E+03  0.32044390943E+03  0.17300000000E+03 0.  1.
         -6    1    1    2    0  503 -0.18637412456E+02 -0.78623238239E+00 -0.86419266800E+03  0.88153612446E+03  0.17300000000E+03 0.  1.
<mgrwt>
<rscale>  2 0.17400279E+03</rscale>
<asrwt>0</asrwt>
<pdfrwt beam="1">  1       21 0.52847128E-02 0.17400279E+03</pdfrwt>
<pdfrwt beam="2">  1       21 0.17963530E+00 0.17400279E+03</pdfrwt>
<totfact> 0.45343281E+04</totfact>
</mgrwt>
</event>
<event>
 4    1  0.3875622E-001  0.2009379E+03  0.7546771E-02  0.1148950E+00
         21   -1    0    0  501  502  0.00000000000E+00  0.00000000000E+00  0.99388792651E+02  0.99388792651E+02  0.00000000000E+00 0.  1.
         21   -1    0    0  502  503 -0.00000000000E+00 -0.00000000000E+00 -0.40709380604E+03  0.40709380604E+03  0.00000000000E+00 0.  1.
          6    1    1    2  501    0  0.56450009480E+01 -0.10205479420E+03 -0.16542654782E+03  0.26027291404E+03  0.17300000000E+03 0.  1.
         -6    1    1    2    0  503 -0.56450009480E+01  0.10205479420E+03 -0.14227846557E+03  0.24620968466E+03  0.17300000000E+03 0.  1.
<mgrwt>
<rscale>  2 0.20093792E+03</rscale>
<asrwt>0</asrwt>
<pdfrwt beam="1">  1       21 0.15290583E-01 0.20093792E+03</pdfrwt>
<pdfrwt beam="2">  1       21 0.62629816E-01 0.20093792E+03</pdfrwt>
<totfact> 0.89175532E+04</totfact>
</mgrwt>
</event>
<event>
 4    1  0.3875622E-001  0.1898197E+03  0.7546771E-02  0.1158624E+00
         21   -1    0    0  501  502  0.00000000000E+00  0.00000000000E+00  0.42063231656E+02  0.42063231656E+02  0.00000000000E+00 0.  1.
         21   -1    0    0  502  503 -0.00000000000E+00 -0.00000000000E+00 -0.85882801836E+03  0.85882801836E+03  0.00000000000E+00 0.  1.
          6    1    1    2  501    0 -0.46970053013E+02 -0.62420554317E+02 -0.38545750581E+03  0.42966149498E+03  0.17300000000E+03 0.  1.
         -6    1    1    2    0  503  0.46970053013E+02  0.62420554317E+02 -0.43130728089E+03  0.47122975504E+03  0.17300000000E+03 0.  1.
<mgrwt>
<rscale>  2 0.18981968E+03</rscale>
<asrwt>0</asrwt>
<pdfrwt beam="1">  1       21 0.64712672E-02 0.18981968E+03</pdfrwt>
<pdfrwt beam="2">  1       21 0.13212737E+00 0.18981968E+03</pdfrwt>
<totfact> 0.71952539E+04</totfact>
</mgrwt>
</event>
<event>
 4    1  0.3875622E-001  0.1819194E+03  0.7546771E-02  0.1165958E+00
         21   -1    0    0  501  502  0.00000000000E+00  0.00000000000E+00  0.23024224175E+03  0.23024224175E+03  0.00000000000E+00 0. -1.
         21   -1    0    0  502  503 -0.00000000000E+00 -0.00000000000E+00 -0.15707191118E+03  0.15707191118E+03  0.00000000000E+00 0. -1.
          6    1    1    2  501    0  0.55197608699E+02  0.10904568089E+02  0.93007877010E+02  0.20431630086E+03  0.17300000000E+03 0. -1.
         -6    1    1    2    0  503 -0.55197608699E+02 -0.10904568089E+02 -0.19837546439E+02  0.18299785206E+03  0.17300000000E+03 0. -1.
<mgrwt>
<rscale>  2 0.18191945E+03</rscale>
<asrwt>0</asrwt>
<pdfrwt beam="1">  1       21 0.35421883E-01 0.18191945E+03</pdfrwt>
<pdfrwt beam="2">  1       21 0.24164909E-01 0.18191945E+03</pdfrwt>
<totfact> 0.12463865E+05</totfact>
</mgrwt>
</event>
<event>
 4    1  0.3875622E-001  0.2829105E+03  0.7546771E-02  0.1094110E+00
         21   -1    0    0  501  502  0.00000000000E+00  0.00000000000E+00  0.86923050300E+02  0.86923050300E+02  0.00000000000E+00 0.  1.
         21   -1    0    0  502  503 -0.00000000000E+00 -0.00000000000E+00 -0.92998077716E+03  0.92998077716E+03  0.00000000000E+00 0. -1.
          6    1    1    2  501    0 -0.22366555538E+03 -0.91139761984E+01 -0.47206025990E+03  0.55034465038E+03  0.17300000000E+03 0. -1.
         -6    1    1    2    0  503  0.22366555538E+03  0.91139761984E+01 -0.37099746696E+03  0.46655917708E+03  0.17300000000E+03 0.  1.
<mgrwt>
<rscale>  2 0.28291049E+03</rscale>
<asrwt>0</asrwt>
<pdfrwt beam="1">  1       21 0.13372778E-01 0.28291049E+03</pdfrwt>
<pdfrwt beam="2">  1       21 0.14307396E+00 0.28291049E+03</pdfrwt>
<totfact> 0.15493283E+04</totfact>
</mgrwt>
</event>
<event>
 4    1  0.3875622E-001  0.1820582E+03  0.7546771E-02  0.1165826E+00
         21   -1    0    0  501  502  0.00000000000E+00  0.00000000000E+00  0.59981369372E+03  0.59981369372E+03  0.00000000000E+00 0. -1.
         21   -1    0    0  502  503 -0.00000000000E+00 -0.00000000000E+00 -0.59927253709E+02  0.59927253709E+02  0.00000000000E+00 0. -1.
          6    1    1    2  501    0  0.14360643889E+02  0.54863205890E+02  0.36200961736E+03  0.40521125665E+03  0.17300000000E+03 0. -1.
         -6    1    1    2    0  503 -0.14360643889E+02 -0.54863205890E+02  0.17787682265E+03  0.25452969078E+03  0.17300000000E+03 0. -1.
<mgrwt>
<rscale>  2 0.18205823E+03</rscale>
<asrwt>0</asrwt>
<pdfrwt beam="1">  1       21 0.92279026E-01 0.18205823E+03</pdfrwt>
<pdfrwt beam="2">  1       21 0.92195779E-02 0.18205823E+03</pdfrwt>
<totfact> 0.93230712E+04</totfact>
</mgrwt>
</event>
<event>
 4    1  0.3875622E-001  0.2015754E+03  0.7546771E-02  0.1148417E+00
         21   -1    0    0  503  502  0.00000000000E+00  0.00000000000E+00  0.84752142955E+02  0.84752142955E+02  0.00000000000E+00 0.  1.
         21   -1    0    0  501  503 -0.00000000000E+00 -0.00000000000E+00 -0.47943533472E+03  0.47943533472E+03  0.00000000000E+00 0.  1.
          6    1    1    2  501    0 -0.10160661736E+03  0.19486912067E+02 -0.19632510656E+03  0.28138264321E+03  0.17300000000E+03 0.  1.
         -6    1    1    2    0  502  0.10160661736E+03 -0.19486912067E+02 -0.19835808521E+03  0.28280483447E+03  0.17300000000E+03 0.  1.
<mgrwt>
<rscale>  2 0.20157541E+03</rscale>
<asrwt>0</asrwt>
<pdfrwt beam="1">  1       21 0.13038791E-01 0.20157541E+03</pdfrwt>
<pdfrwt beam="2">  1       21 0.73759281E-01 0.20157541E+03</pdfrwt>
<totfact> 0.83105740E+04</totfact>
</mgrwt>
</event>
<event>
 4    1  0.3875622E-001  0.2377891E+03  0.7546771E-02  0.1121274E+00
         21   -1    0    0  503  502  0.00000000000E+00  0.00000000000E+00  0.19203111876E+03  0.19203111876E+03  0.00000000000E+00 0. -1.
         21   -1    0    0  501  503 -0.00000000000E+00 -0.00000000000E+00 -0.30174496912E+03  0.30174496912E+03  0.00000000000E+00 0.  1.
          6    1    1    2  501    0 -0.80567114521E+02  0.14185763913E+03 -0.16470443102E+02  0.23835881611E+03  0.17300000000E+03 0. -1.
         -6    1    1    2    0  502  0.80567114521E+02 -0.14185763913E+03 -0.93243407254E+02  0.25541727177E+03  0.17300000000E+03 0. -1.
<mgrwt>
<rscale>  2 0.23778909E+03</rscale>
<asrwt>0</asrwt>
<pdfrwt beam="1">  1       21 0.29543249E-01 0.23778909E+03</pdfrwt>
<pdfrwt beam="2">  1       21 0.46422303E-01 0.23778909E+03</pdfrwt>
<totfact> 0.47794303E+04</totfact>
</mgrwt>
</event>
<event>
 4    1  0.3875622E-001  0.1755820E+03  0.7546771E-02  0.1172149E+00
         21   -1    0    0  501  502  0.00000000000E+00  0.00000000000E+00  0.11193515751E+03  0.11193515751E+03  0.00000000000E+00 0.  1.
         21   -1    0    0  502  503 -0.00000000000E+00 -0.00000000000E+00 -0.27856642025E+03  0.27856642025E+03  0.00000000000E+00 0.  1.
          6    1    1    2  501    0  0.25452277242E+02  0.15881989178E+02 -0.10407020843E+03  0.20410699224E+03  0.17300000000E+03 0.  1.
         -6    1    1    2    0  503 -0.25452277242E+02 -0.15881989178E+02 -0.62561054312E+02  0.18639458553E+03  0.17300000000E+03 0.  1.
<mgrwt>
<rscale>  2 0.17558205E+03</rscale>
<asrwt>0</asrwt>
<pdfrwt beam="1">  1       21 0.17220794E-01 0.17558205E+03</pdfrwt>
<pdfrwt beam="2">  1       21 0.42856372E-01 0.17558205E+03</pdfrwt>
<totfact> 0.16039189E+05</totfact>
</mgrwt>
</event>
<event>
 4    1  0.3875622E-001  0.2157069E+03  0.7546771E-02  0.1137125E+00
         21   -1    0    0  501  502  0.00000000000E+00  0.00000000000E+00  0.88638677511E+03  0.88638677511E+03  0.00000000000E+00 0. -1.
         21   -1    0    0  502  503 -0.00000000000E+00 -0.00000000000E+00 -0.64109957123E+02  0.64109957123E+02  0.00000000000E+00 0. -1.
          6    1    1    2  501    0  0.41156355223E+02 -0.12209265249E+03  0.61343868836E+03  0.65025878367E+03  0.17300000000E+03 0. -1.
         -6    1    1    2    0  503 -0.41156355223E+02  0.12209265249E+03  0.20883812962E+03  0.30023794855E+03  0.17300000000E+03 0. -1.
<mgrwt>
<rscale>  2 0.21570689E+03</rscale>
<asrwt>0</asrwt>
<pdfrwt beam="1">  1       21 0.13636719E+00 0.21570689E+03</pdfrwt>
<pdfrwt beam="2">  1       21 0.98630709E-02 0.21570689E+03</pdfrwt>
<totfact> 0.31404262E+04</totfact>
</mgrwt>
</event>
<event>
 4    1  0.3875622E-001  0.3124374E+03  0.7546771E-02  0.1079183E+00
         21   -1    0    0  503  502  0.00000000000E+00  0.00000000000E+00  0.44394124951E+03  0.44394124951E+03  0.00000000000E+00 0. -1.
         21   -1    0    0  501  503 -0.00000000000E+00 -0.00000000000E+00 -0.22011621311E+03  0.22011621311E+03  0.00000000000E+00 0.  1.
          6    1    1    2  501    0  0.69541640562E+02  0.25070313594E+03  0.10120822578E+03  0.32842077752E+03  0.17300000000E+03 0.  1.
         -6    1    1    2    0  502 -0.69541640562E+02 -0.25070313594E+03  0.12261681062E+03  0.33563668510E+03  0.17300000000E+03 0. -1.
<mgrwt>
<rscale>  2 0.31243736E+03</rscale>
<asrwt>0</asrwt>
<pdfrwt beam="1">  1       21 0.68298653E-01 0.31243736E+03</pdfrwt>
<pdfrwt beam="2">  1       21 0.33864033E-01 0.31243736E+03</pdfrwt>
<totfact> 0.15460290E+04</totfact>
</mgrwt>
</event>
<event>
 4    1  0.3875622E-001  0.2071285E+03  0.7546771E-02  0.1143860E+00
         21   -1    0    0  501  502  0.00000000000E+00  0.00000000000E+00  0.13762308750E+03  0.13762308750E+03  0.00000000000E+00 0.  1.
         21   -1    0    0  502  503 -0.00000000000E+00 -0.00000000000E+00 -0.36440847406E+03  0.36440847406E+03  0.00000000000E+00 0.  1.
          6    1    1    2  501    0  0.11026086224E+03 -0.28561831281E+02 -0.17960764044E+02  0.20790580798E+03  0.17300000000E+03 0.  1.
         -6    1    1    2    0  503 -0.11026086224E+03  0.28561831281E+02 -0.20882462251E+03  0.29412575358E+03  0.17300000000E+03 0.  1.
<mgrwt>
<rscale>  2 0.20712855E+03</rscale>
<asrwt>0</asrwt>
<pdfrwt beam="1">  1       21 0.21172782E-01 0.20712855E+03</pdfrwt>
<pdfrwt beam="2">  1       21 0.56062843E-01 0.20712855E+03</pdfrwt>
<totfact> 0.61725254E+04</totfact>
</mgrwt>
</event>
<event>
 4    1  0.3875622E-001  0.2285347E+03  0.7546771E-02  0.1127675E+00
         21   -1    0    0  501  502  0.00000000000E+00  0.00000000000E+00  0.60830852866E+03  0.60830852866E+03  0.00000000000E+00 0.  1.
         21   -1    0    0  502  503 -0.00000000000E+00 -0.00000000000E+00 -0.87333364379E+02  0.87333364379E+02  0.00000000000E+00 0.  1.
          6    1    1    2  501    0  0.14544818540E+03  0.33822078459E+02  0.21527842403E+03  0.31396322632E+03  0.17300000000E+03 0.  1.
         -6    1    1    2    0  503 -0.14544818540E+03 -0.33822078459E+02  0.30569674025E+03  0.38167866672E+03  0.17300000000E+03 0.  1.
<mgrwt>
<rscale>  2 0.22853470E+03</rscale>
<asrwt>0</asrwt>
<pdfrwt beam="1">  1       21 0.93585925E-01 0.22853470E+03</pdfrwt>
<pdfrwt beam="2">  1       21 0.13435903E-01 0.22853470E+03</pdfrwt>
<totfact> 0.45140007E+04</totfact>
</mgrwt>
</event>
<event>
 4    1  0.3875622E-001  0.2085272E+03  0.7546771E-02  0.1142738E+00
         21   -1    0    0  503  502  0.00000000000E+00  0.00000000000E+00  0.14139848864E+04  0.14139848864E+04  0.00000000000E+00 0. -1.
         21   -1    0    0  501  503 -0.00000000000E+00 -0.00000000000E+00 -0.30914837928E+02  0.30914837928E+02  0.00000000000E+00 0. -1.
          6    1    1    2  501    0  0.24380449581E+02  0.11384273693E+03  0.74388658503E+03  0.77256121211E+03  0.17300000000E+03 0. -1.
         -6    1    1    2    0  502 -0.24380449581E+02 -0.11384273693E+03  0.63918346348E+03  0.67233851225E+03  0.17300000000E+03 0. -1.
<mgrwt>
<rscale>  2 0.20852716E+03</rscale>
<asrwt>0</asrwt>
<pdfrwt beam="1">  1       21 0.21753609E+00 0.20852716E+03</pdfrwt>
<pdfrwt beam="2">  1       21 0.47561300E-02 0.20852716E+03</pdfrwt>
<totfact> 0.30141297E+04</totfact>
</mgrwt>
</event>
<event>
 4    1  0.3875622E-001  0.2575367E+03  0.7546771E-02  0.1108632E+00
         21   -1    0    0  503  502  0.00000000000E+00  0.00000000000E+00  0.30647265436E+03  0.30647265436E+03  0.00000000000E+00 0. -1.
         21   -1    0    0  501  503 -0.00000000000E+00 -0.00000000000E+00 -0.21645517752E+03  0.21645517752E+03  0.00000000000E+00 0.  1.
          6    1    1    2  501    0  0.83267677004E+01 -0.19059598041E+03  0.41429691305E+02  0.26084781412E+03  0.17300000000E+03 0.  1.
         -6    1    1    2    0  502 -0.83267677004E+01  0.19059598041E+03  0.48587785531E+02  0.26208001776E+03  0.17300000000E+03 0. -1.
<mgrwt>
<rscale>  2 0.25753672E+03</rscale>
<asrwt>0</asrwt>
<pdfrwt beam="1">  1       21 0.47149639E-01 0.25753672E+03</pdfrwt>
<pdfrwt beam="2">  1       21 0.33300796E-01 0.25753672E+03</pdfrwt>
<totfact> 0.36250386E+04</totfact>
</mgrwt>
</event>
<event>
 4    1  0.3875622E-001  0.1883795E+03  0.7546771E-02  0.1159931E+00
         21   -1    0    0  503  502  0.00000000000E+00  0.00000000000E+00  0.91660852802E+02  0.91660852802E+02  0.00000000000E+00 0.  1.
         21   -1    0    0  501  503 -0.00000000000E+00 -0.00000000000E+00 -0.39282543068E+03  0.39282543068E+03  0.00000000000E+00 0.  1.
          6    1    1    2  501    0 -0.23276099051E+02  0.70824098784E+02 -0.17969033577E+03  0.26033717853E+03  0.17300000000E+03 0.  1.
         -6    1    1    2    0  502  0.23276099051E+02 -0.70824098784E+02 -0.12147424211E+03  0.22414910496E+03  0.17300000000E+03 0.  1.
<mgrwt>
<rscale>  2 0.18837948E+03</rscale>
<asrwt>0</asrwt>
<pdfrwt beam="1">  1       21 0.14101669E-01 0.18837948E+03</pdfrwt>
<pdfrwt beam="2">  1       21 0.60434682E-01 0.18837948E+03</pdfrwt>
<totfact> 0.11214209E+05</totfact>
</mgrwt>
</event>
<event>
 4    1  0.3875622E-001  0.3255277E+03  0.7546771E-02  0.1073133E+00
         21   -1    0    0  503  502  0.00000000000E+00  0.00000000000E+00  0.31836042291E+03  0.31836042291E+03  0.00000000000E+00 0.  1.
         21   -1    0    0  501  503 -0.00000000000E+00 -0.00000000000E+00 -0.33399925763E+03  0.33399925763E+03  0.00000000000E+00 0. -1.
          6    1    1    2  501    0 -0.27525286784E+03 -0.16586913437E+02  0.11261651718E+02  0.32572241518E+03  0.17300000000E+03 0. -1.
         -6    1    1    2    0  502  0.27525286784E+03  0.16586913437E+02 -0.26900486438E+02  0.32663726536E+03  0.17300000000E+03 0.  1.
<mgrwt>
<rscale>  2 0.32552767E+03</rscale>
<asrwt>0</asrwt>
<pdfrwt beam="1">  1       21 0.48978527E-01 0.32552767E+03</pdfrwt>
<pdfrwt beam="2">  1       21 0.51384501E-01 0.32552767E+03</pdfrwt>
<totfact> 0.13381176E+04</totfact>
</mgrwt>
</event>
<event>
 4    1  0.3875622E-001  0.2267656E+03  0.7546771E-02  0.1128937E+00
         21   -1    0    0  503  502  0.00000000000E+00  0.00000000000E+00  0.11559877286E+04  0.11559877286E+04  0.00000000000E+00 0. -1.
         21   -1    0    0  501  503 -0.00000000000E+00 -0.00000000000E+00 -0.44522672273E+02  0.44522672273E+02  0.00000000000E+00 0.  1.
          6    1    1    2  501    0  0.66017529376E+02 -0.13090203147E+03  0.57348290599E+03  0.61668898116E+03  0.17300000000E+03 0.  1.
         -6    1    1    2    0  502 -0.66017529376E+02  0.13090203147E+03  0.53798215034E+03  0.58382141971E+03  0.17300000000E+03 0. -1.
<mgrwt>
<rscale>  2 0.22676564E+03</rscale>
<asrwt>0</asrwt>
<pdfrwt beam="1">  1       21 0.17784424E+00 0.22676564E+03</pdfrwt>
<pdfrwt beam="2">  1       21 0.68496428E-02 0.22676564E+03</pdfrwt>
<totfact> 0.28916866E+04</totfact>
</mgrwt>
</event>
<event>
 4    1  0.3875622E-001  0.2172440E+03  0.7546771E-02  0.1135955E+00
         21   -1    0    0  501  502  0.00000000000E+00  0.00000000000E+00  0.11383883573E+03  0.11383883573E+03  0.00000000000E+00 0.  1.
         21   -1    0    0  502  503 -0.00000000000E+00 -0.00000000000E+00 -0.43488491201E+03  0.43488491201E+03  0.00000000000E+00 0.  1.
          6    1    1    2  501    0 -0.92819796100E+02 -0.93007736072E+02 -0.10123458532E+03  0.23967351707E+03  0.17300000000E+03 0.  1.
         -6    1    1    2    0  503  0.92819796100E+02  0.93007736072E+02 -0.21981149096E+03  0.30905023067E+03  0.17300000000E+03 0.  1.
<mgrwt>
<rscale>  2 0.21724400E+03</rscale>
<asrwt>0</asrwt>
<pdfrwt beam="1">  1       21 0.17513667E-01 0.21724400E+03</pdfrwt>
<pdfrwt beam="2">  1       21 0.66905370E-01 0.21724400E+03</pdfrwt>
<totfact> 0.59751150E+04</totfact>
</mgrwt>
</event>
<event>
 4    1  0.3875622E-001  0.2058528E+03  0.7546771E-02  0.1144893E+00
         21   -1    0    0  503  502  0.00000000000E+00  0.00000000000E+00  0.32389135771E+04  0.32389135771E+04  0.00000000000E+00 0. -1.
         21   -1    0    0  501  503 -0.00000000000E+00 -0.00000000000E+00 -0.14123038234E+02  0.14123038234E+02  0.00000000000E+00 0.  1.
          6    1    1    2  501    0 -0.11145410684E+03  0.49353426842E+01  0.11710521117E+04  0.11890073270E+04  0.17300000000E+03 0.  1.
         -6    1    1    2    0  502  0.11145410684E+03 -0.49353426842E+01  0.20537384272E+04  0.20640292883E+04  0.17300000000E+03 0.  1.
<mgrwt>
<rscale>  2 0.20585280E+03</rscale>
<asrwt>0</asrwt>
<pdfrwt beam="1">  1       21 0.49829381E+00 0.20585280E+03</pdfrwt>
<pdfrwt beam="2">  1       21 0.21727777E-02 0.20585280E+03</pdfrwt>
<totfact> 0.20530165E+03</totfact>
</mgrwt>
</event>
<event>
 4    1  0.3875622E-001  0.1914645E+03  0.7546771E-02  0.1157147E+00
         21   -1    0    0  501  502  0.00000000000E+00  0.00000000000E+00  0.11312127138E+03  0.11312127138E+03  0.00000000000E+00 0.  1.
         21   -1    0    0  502  503 -0.00000000000E+00 -0.00000000000E+00 -0.35578814537E+03  0.35578814537E+03  0.00000000000E+00 0.  1.
          6    1    1    2  501    0  0.56842404681E+02  0.59149001657E+02 -0.51325026131E+02  0.19822442250E+03  0.17300000000E+03 0.  1.
         -6    1    1    2    0  503 -0.56842404681E+02 -0.59149001657E+02 -0.19134184786E+03  0.27068499425E+03  0.17300000000E+03 0.  1.
<mgrwt>
<rscale>  2 0.19146452E+03</rscale>
<asrwt>0</asrwt>
<pdfrwt beam="1">  1       21 0.17403273E-01 0.19146452E+03</pdfrwt>
<pdfrwt beam="2">  1       21 0.54736638E-01 0.19146452E+03</pdfrwt>
<totfact> 0.94195388E+04</totfact>
</mgrwt>
</event>
<event>
 4    1  0.3875622E-001  0.1921392E+03  0.7546771E-02  0.1156546E+00
         21   -1    0    0  503  502  0.00000000000E+00  0.00000000000E+00  0.11585549535E+03  0.11585549535E+03  0.00000000000E+00 0.  1.
         21   -1    0    0  501  503 -0.00000000000E+00 -0.00000000000E+00 -0.36030791713E+03  0.36030791713E+03  0.00000000000E+00 0.  1.
          6    1    1    2  501    0  0.83355579824E+02  0.63488796182E+01 -0.20317923347E+03  0.27964130932E+03  0.17300000000E+03 0.  1.
         -6    1    1    2    0  502 -0.83355579824E+02 -0.63488796182E+01 -0.41273188309E+02  0.19652210317E+03  0.17300000000E+03 0.  1.
<mgrwt>
<rscale>  2 0.19213917E+03</rscale>
<asrwt>0</asrwt>
<pdfrwt beam="1">  1       21 0.17823922E-01 0.19213917E+03</pdfrwt>
<pdfrwt beam="2">  1       21 0.55431987E-01 0.19213917E+03</pdfrwt>
<totfact> 0.87736530E+04</totfact>
</mgrwt>
</event>
<event>
 4    1  0.3875622E-001  0.1764507E+03  0.7546771E-02  0.1171283E+00
         21   -1    0    0  501  502  0.00000000000E+00  0.00000000000E+00  0.18715339301E+03  0.18715339301E+03  0.00000000000E+00 0. -1.
         21   -1    0    0  502  503 -0.00000000000E+00 -0.00000000000E+00 -0.16721900948E+03  0.16721900948E+03  0.00000000000E+00 0. -1.
          6    1    1    2  501    0 -0.30686862340E+02 -0.16253473405E+02 -0.27314835193E+01  0.17647186722E+03  0.17300000000E+03 0. -1.
         -6    1    1    2    0  503  0.30686862340E+02  0.16253473405E+02  0.22665867047E+02  0.17790053526E+03  0.17300000000E+03 0. -1.
<mgrwt>
<rscale>  2 0.17645073E+03</rscale>
<asrwt>0</asrwt>
<pdfrwt beam="1">  1       21 0.28792830E-01 0.17645073E+03</pdfrwt>
<pdfrwt beam="2">  1       21 0.25726001E-01 0.17645073E+03</pdfrwt>
<totfact> 0.16634324E+05</totfact>
</mgrwt>
</event>
<event>
 4    1  0.3875622E-001  0.2843774E+03  0.7546771E-02  0.1093322E+00
         21   -1    0    0  503  502  0.00000000000E+00  0.00000000000E+00  0.33218373248E+03  0.33218373248E+03  0.00000000000E+00 0. -1.
         21   -1    0    0  501  503 -0.00000000000E+00 -0.00000000000E+00 -0.24367425254E+03  0.24367425254E+03  0.00000000000E+00 0.  1.
          6    1    1    2  501    0  0.14179883353E+03 -0.17559776162E+03  0.35540758313E+02  0.28658965190E+03  0.17300000000E+03 0. -1.
         -6    1    1    2    0  502 -0.14179883353E+03  0.17559776162E+03  0.52968721628E+02  0.28926833312E+03  0.17300000000E+03 0.  1.
<mgrwt>
<rscale>  2 0.28437736E+03</rscale>
<asrwt>0</asrwt>
<pdfrwt beam="1">  1       21 0.51105190E-01 0.28437736E+03</pdfrwt>
<pdfrwt beam="2">  1       21 0.37488346E-01 0.28437736E+03</pdfrwt>
<totfact> 0.23884008E+04</totfact>
</mgrwt>
</event>
<event>
 4    1  0.3875622E-001  0.3040353E+03  0.7546771E-02  0.1083241E+00
         21   -1    0    0  503  502  0.00000000000E+00  0.00000000000E+00  0.21429788955E+03  0.21429788955E+03  0.00000000000E+00 0. -1.
         21   -1    0    0  501  503 -0.00000000000E+00 -0.00000000000E+00 -0.44707037021E+03  0.44707037021E+03  0.00000000000E+00 0.  1.
          6    1    1    2  501    0  0.15824985704E+03 -0.19355994878E+03 -0.17839483247E+03  0.35250842157E+03  0.17300000000E+03 0.  1.
         -6    1    1    2    0  502 -0.15824985704E+03  0.19355994878E+03 -0.54377648187E+02  0.30885983819E+03  0.17300000000E+03 0. -1.
<mgrwt>
<rscale>  2 0.30403531E+03</rscale>
<asrwt>0</asrwt>
<pdfrwt beam="1">  1       21 0.32968907E-01 0.30403531E+03</pdfrwt>
<pdfrwt beam="2">  1       21 0.68780055E-01 0.30403531E+03</pdfrwt>
<totfact> 0.16111528E+04</totfact>
</mgrwt>
</event>
<event>
 4    1  0.3875622E-001  0.2665358E+03  0.7546771E-02  0.1103279E+00
         21   -1    0    0  501  502  0.00000000000E+00  0.00000000000E+00  0.59704587308E+03  0.59704587308E+03  0.00000000000E+00 0.  1.
         21   -1    0    0  502  503 -0.00000000000E+00 -0.00000000000E+00 -0.13927109001E+03  0.13927109001E+03  0.00000000000E+00 0. -1.
          6    1    1    2  501    0  0.85626254900E+02  0.18379461607E+03  0.36938566450E+03  0.45550750330E+03  0.17300000000E+03 0.  1.
         -6    1    1    2    0  503 -0.85626254900E+02 -0.18379461607E+03  0.88389118567E+02  0.28080945979E+03  0.17300000000E+03 0. -1.
<mgrwt>
<rscale>  2 0.26653577E+03</rscale>
<asrwt>0</asrwt>
<pdfrwt beam="1">  1       21 0.91853210E-01 0.26653577E+03</pdfrwt>
<pdfrwt beam="2">  1       21 0.21426322E-01 0.26653577E+03</pdfrwt>
<totfact> 0.19531398E+04</totfact>
</mgrwt>
</event>
<event>
 4    1  0.3875622E-001  0.1923464E+03  0.7546771E-02  0.1156362E+00
         21   -1    0    0  501  502  0.00000000000E+00  0.00000000000E+00  0.23246085601E+03  0.23246085601E+03  0.00000000000E+00 0. -1.
         21   -1    0    0  502  503 -0.00000000000E+00 -0.00000000000E+00 -0.15925986094E+03  0.15925986094E+03  0.00000000000E+00 0. -1.
          6    1    1    2  501    0 -0.81520158663E+02  0.20556980757E+02  0.41644947875E+02  0.19680301677E+03  0.17300000000E+03 0. -1.
         -6    1    1    2    0  503  0.81520158663E+02 -0.20556980757E+02  0.31556047197E+02  0.19491770017E+03  0.17300000000E+03 0. -1.
<mgrwt>
<rscale>  2 0.19234637E+03</rscale>
<asrwt>0</asrwt>
<pdfrwt beam="1">  1       21 0.35763208E-01 0.19234637E+03</pdfrwt>
<pdfrwt beam="2">  1       21 0.24501517E-01 0.19234637E+03</pdfrwt>
<totfact> 0.11868488E+05</totfact>
</mgrwt>
</event>
<event>
 4    1  0.3875622E-001  0.1765381E+03  0.7546771E-02  0.1171196E+00
         21   -1    0    0  503  502  0.00000000000E+00  0.00000000000E+00  0.16209544173E+04  0.16209544173E+04  0.00000000000E+00 0. -1.
         21   -1    0    0  501  503 -0.00000000000E+00 -0.00000000000E+00 -0.19414221572E+02  0.19414221572E+02  0.00000000000E+00 0.  1.
          6    1    1    2  501    0  0.23256236444E+02 -0.26378700955E+02  0.88136674925E+03  0.89887320300E+03  0.17300000000E+03 0. -1.
         -6    1    1    2    0  502 -0.23256236444E+02  0.26378700955E+02  0.72017344644E+03  0.74149543583E+03  0.17300000000E+03 0.  1.
<mgrwt>
<rscale>  2 0.17653807E+03</rscale>
<asrwt>0</asrwt>
<pdfrwt beam="1">  1       21 0.24937750E+00 0.17653807E+03</pdfrwt>
<pdfrwt beam="2">  1       21 0.29868046E-02 0.17653807E+03</pdfrwt>
<totfact> 0.43299443E+04</totfact>
</mgrwt>
</event>
<event>
 4    1  0.3875622E-001  0.2026837E+03  0.7546771E-02  0.1147494E+00
         21   -1    0    0  501  502  0.00000000000E+00  0.00000000000E+00  0.31264103209E+03  0.31264103209E+03  0.00000000000E+00 0. -1.
         21   -1    0    0  502  503 -0.00000000000E+00 -0.00000000000E+00 -0.13598159229E+03  0.13598159229E+03  0.00000000000E+00 0. -1.
          6    1    1    2  501    0  0.32571903009E+02  0.10045274803E+03  0.47151069491E+02  0.20809590771E+03  0.17300000000E+03 0. -1.
         -6    1    1    2    0  503 -0.32571903009E+02 -0.10045274803E+03  0.12950837031E+03  0.24052671667E+03  0.17300000000E+03 0. -1.
<mgrwt>
<rscale>  2 0.20268370E+03</rscale>
<asrwt>0</asrwt>
<pdfrwt beam="1">  1       21 0.48098620E-01 0.20268370E+03</pdfrwt>
<pdfrwt beam="2">  1       21 0.20920245E-01 0.20268370E+03</pdfrwt>
<totfact> 0.87270883E+04</totfact>
</mgrwt>
</event>
<event>
 4    1  0.3875622E-001  0.2322720E+03  0.7546771E-02  0.1125051E+00
         21   -1    0    0  501  502  0.00000000000E+00  0.00000000000E+00  0.19632666607E+03  0.19632666607E+03  0.00000000000E+00 0.  1.
         21   -1    0    0  502  503 -0.00000000000E+00 -0.00000000000E+00 -0.47156824429E+03  0.47156824429E+03  0.00000000000E+00 0.  1.
          6    1    1    2  501    0  0.13255423273E+03  0.80316046954E+02  0.78096482210E+02  0.24504969404E+03  0.17300000000E+03 0.  1.
         -6    1    1    2    0  503 -0.13255423273E+03 -0.80316046954E+02 -0.35333806044E+03  0.42284521632E+03  0.17300000000E+03 0.  1.
<mgrwt>
<rscale>  2 0.23227202E+03</rscale>
<asrwt>0</asrwt>
<pdfrwt beam="1">  1       21 0.30204103E-01 0.23227202E+03</pdfrwt>
<pdfrwt beam="2">  1       21 0.72548960E-01 0.23227202E+03</pdfrwt>
<totfact> 0.17589537E+04</totfact>
</mgrwt>
</event>
<event>
 4    1  0.3875622E-001  0.1928360E+03  0.7546771E-02  0.1155928E+00
         21   -1    0    0  503  502  0.00000000000E+00  0.00000000000E+00  0.44843039696E+03  0.44843039696E+03  0.00000000000E+00 0.  1.
         21   -1    0    0  501  503 -0.00000000000E+00 -0.00000000000E+00 -0.97273810260E+02  0.97273810260E+02  0.00000000000E+00 0.  1.
          6    1    1    2  501    0 -0.39928217913E+02  0.75249251530E+02  0.70781003198E+02  0.20541582913E+03  0.17300000000E+03 0.  1.
         -6    1    1    2    0  502  0.39928217913E+02 -0.75249251530E+02  0.28037558350E+03  0.34028837809E+03  0.17300000000E+03 0.  1.
<mgrwt>
<rscale>  2 0.19283597E+03</rscale>
<asrwt>0</asrwt>
<pdfrwt beam="1">  1       21 0.68989291E-01 0.19283597E+03</pdfrwt>
<pdfrwt beam="2">  1       21 0.14965202E-01 0.19283597E+03</pdfrwt>
<totfact> 0.75369108E+04</totfact>
</mgrwt>
</event>
<event>
 4    1  0.3875622E-001  0.2001417E+03  0.7546771E-02  0.1149619E+00
         21   -1    0    0  503  502  0.00000000000E+00  0.00000000000E+00  0.20084197993E+03  0.20084197993E+03  0.00000000000E+00 0.  1.
         21   -1    0    0  501  503 -0.00000000000E+00 -0.00000000000E+00 -0.31518186587E+03  0.31518186587E+03  0.00000000000E+00 0.  1.
          6    1    1    2  501    0 -0.56617894211E+02  0.83199349287E+02 -0.21351962215E+03  0.29265567944E+03  0.17300000000E+03 0.  1.
         -6    1    1    2    0  502  0.56617894211E+02 -0.83199349287E+02  0.99179736208E+02  0.22336816636E+03  0.17300000000E+03 0.  1.
<mgrwt>
<rscale>  2 0.20014174E+03</rscale>
<asrwt>0</asrwt>
<pdfrwt beam="1">  1       21 0.30898766E-01 0.20014174E+03</pdfrwt>
<pdfrwt beam="2">  1       21 0.48489518E-01 0.20014174E+03</pdfrwt>
<totfact> 0.40699702E+04</totfact>
</mgrwt>
</event>
<event>
 4    1  0.3875622E-001  0.2168482E+03  0.7546771E-02  0.1136255E+00
         21   -1    0    0  503  502  0.00000000000E+00  0.00000000000E+00  0.30808853675E+03  0.30808853675E+03  0.00000000000E+00 0. -1.
         21   -1    0    0  501  503 -0.00000000000E+00 -0.00000000000E+00 -0.15586225075E+03  0.15586225075E+03  0.00000000000E+00 0. -1.
          6    1    1    2  501    0  0.84505068068E+02  0.99764997794E+02  0.42700606642E+02  0.22101245015E+03  0.17300000000E+03 0. -1.
         -6    1    1    2    0  502 -0.84505068068E+02 -0.99764997794E+02  0.10952567935E+03  0.24293833735E+03  0.17300000000E+03 0. -1.
<mgrwt>
<rscale>  2 0.21684824E+03</rscale>
<asrwt>0</asrwt>
<pdfrwt beam="1">  1       21 0.47398236E-01 0.21684824E+03</pdfrwt>
<pdfrwt beam="2">  1       21 0.23978808E-01 0.21684824E+03</pdfrwt>
<totfact> 0.69085013E+04</totfact>
</mgrwt>
</event>
<event>
 4    1  0.3875622E-001  0.3372036E+03  0.7546771E-02  0.1067993E+00
         21   -1    0    0  501  502  0.00000000000E+00  0.00000000000E+00  0.12673377151E+03  0.12673377151E+03  0.00000000000E+00 0. -1.
         21   -1    0    0  502  503 -0.00000000000E+00 -0.00000000000E+00 -0.12060874734E+04  0.12060874734E+04  0.00000000000E+00 0. -1.
          6    1    1    2  501    0  0.16846829439E+02 -0.28895228282E+03 -0.20242931437E+03  0.39329869657E+03  0.17300000000E+03 0. -1.
         -6    1    1    2    0  503 -0.16846829439E+02  0.28895228282E+03 -0.87692438751E+03  0.93952254833E+03  0.17300000000E+03 0. -1.
<mgrwt>
<rscale>  2 0.33720355E+03</rscale>
<asrwt>0</asrwt>
<pdfrwt beam="1">  1       21 0.19497503E-01 0.33720355E+03</pdfrwt>
<pdfrwt beam="2">  1       21 0.18555192E+00 0.33720355E+03</pdfrwt>
<totfact> 0.36483877E+03</totfact>
</mgrwt>
</event>
<event>
 4    1  0.3875622E-001  0.1776665E+03  0.7546771E-02  0.1170081E+00
         21   -1    0    0  501  502  0.00000000000E+00  0.00000000000E+00  0.61063341466E+02  0.61063341466E+02  0.00000000000E+00 0.  1.
         21   -1    0    0  502  503 -0.00000000000E+00 -0.00000000000E+00 -0.53511368476E+03  0.53511368476E+03  0.00000000000E+00 0.  1.
          6    1    1    2  501    0 -0.28249327123E+02 -0.28954442962E+02 -0.18207354726E+03  0.25439371231E+03  0.17300000000E+03 0. -1.
         -6    1    1    2    0  503  0.28249327123E+02  0.28954442962E+02 -0.29197679604E+03  0.34178331392E+03  0.17300000000E+03 0. -1.
<mgrwt>
<rscale>  2 0.17766650E+03</rscale>
<asrwt>0</asrwt>
<pdfrwt beam="1">  1       21 0.93943605E-02 0.17766650E+03</pdfrwt>
<pdfrwt beam="2">  1       21 0.82325180E-01 0.17766650E+03</pdfrwt>
<totfact> 0.11742553E+05</totfact>
</mgrwt>
</event>
<event>
 4    1  0.3875622E-001  0.1812744E+03  0.7546771E-02  0.1166575E+00
         21   -1    0    0  503  502  0.00000000000E+00  0.00000000000E+00  0.21626036757E+03  0.21626036757E+03  0.00000000000E+00 0.  1.
         21   -1    0    0  501  503 -0.00000000000E+00 -0.00000000000E+00 -0.15762064573E+03  0.15762064573E+03  0.00000000000E+00 0.  1.
          6    1    1    2  501    0 -0.44676478128E+02 -0.30584632880E+02 -0.61431855542E+01  0.18137846122E+03  0.17300000000E+03 0.  1.
         -6    1    1    2    0  502  0.44676478128E+02  0.30584632880E+02  0.64782907389E+02  0.19250255208E+03  0.17300000000E+03 0.  1.
<mgrwt>
<rscale>  2 0.18127440E+03</rscale>
<asrwt>0</asrwt>
<pdfrwt beam="1">  1       21 0.33270826E-01 0.18127440E+03</pdfrwt>
<pdfrwt beam="2">  1       21 0.24249330E-01 0.18127440E+03</pdfrwt>
<totfact> 0.14017402E+05</totfact>
</mgrwt>
</event>
<event>
 4    1  0.3875622E-001  0.2929314E+03  0.7546771E-02  0.1088829E+00
         21   -1    0    0  503  502  0.00000000000E+00  0.00000000000E+00  0.36555866786E+02  0.36555866786E+02  0.00000000000E+00 0. -1.
         21   -1    0    0  501  503 -0.00000000000E+00 -0.00000000000E+00 -0.23570705011E+04  0.23570705011E+04  0.00000000000E+00 0.  1.
          6    1    1    2  501    0 -0.12421295642E+03  0.20112415121E+03 -0.12371827164E+04  0.12713889478E+04  0.17300000000E+03 0. -1.
         -6    1    1    2    0  502  0.12421295642E+03 -0.20112415121E+03 -0.10833319179E+04  0.11222374201E+04  0.17300000000E+03 0.  1.
<mgrwt>
<rscale>  2 0.29293136E+03</rscale>
<asrwt>0</asrwt>
<pdfrwt beam="1">  1       21 0.56239768E-02 0.29293136E+03</pdfrwt>
<pdfrwt beam="2">  1       21 0.36262640E+00 0.29293136E+03</pdfrwt>
<totfact> 0.29062096E+03</totfact>
</mgrwt>
</event>
<event>
 4    1  0.3875622E-001  0.1965303E+03  0.7546771E-02  0.1152700E+00
         21   -1    0    0  501  502  0.00000000000E+00  0.00000000000E+00  0.52152004187E+03  0.52152004187E+03  0.00000000000E+00 0.  1.
         21   -1    0    0  502  503 -0.00000000000E+00 -0.00000000000E+00 -0.13916598579E+03  0.13916598579E+03  0.00000000000E+00 0. -1.
          6    1    1    2  501    0 -0.89300263904E+01 -0.92819284802E+02  0.41712400620E+03  0.46110367766E+03  0.17300000000E+03 0.  1.
         -6    1    1    2    0  503  0.89300263904E+01  0.92819284802E+02 -0.34769950121E+02  0.19958235001E+03  0.17300000000E+03 0. -1.
<mgrwt>
<rscale>  2 0.19653032E+03</rscale>
<asrwt>0</asrwt>
<pdfrwt beam="1">  1       21 0.80233852E-01 0.19653032E+03</pdfrwt>
<pdfrwt beam="2">  1       21 0.21410152E-01 0.19653032E+03</pdfrwt>
<totfact> 0.27697563E+04</totfact>
</mgrwt>
</event>
<event>
 4    1  0.3875622E-001  0.2214752E+03  0.7546771E-02  0.1132788E+00
         21   -1    0    0  503  502  0.00000000000E+00  0.00000000000E+00  0.10042415708E+03  0.10042415708E+03  0.00000000000E+00 0.  1.
         21   -1    0    0  501  503 -0.00000000000E+00 -0.00000000000E+00 -0.97592633695E+03  0.97592633695E+03  0.00000000000E+00 0. -1.
          6    1    1    2  501    0 -0.13646715616E+03  0.22337776484E+02 -0.81811214518E+03  0.84756046573E+03  0.17300000000E+03 0. -1.
         -6    1    1    2    0  502  0.13646715616E+03 -0.22337776484E+02 -0.57390034694E+02  0.22879002831E+03  0.17300000000E+03 0.  1.
<mgrwt>
<rscale>  2 0.22147519E+03</rscale>
<asrwt>0</asrwt>
<pdfrwt beam="1">  1       21 0.15449871E-01 0.22147519E+03</pdfrwt>
<pdfrwt beam="2">  1       21 0.15014251E+00 0.22147519E+03</pdfrwt>
<totfact> 0.10855154E+04</totfact>
</mgrwt>
</event>
<event>
 4    1  0.3875622E-001  0.1820204E+03  0.7546771E-02  0.1165862E+00
         21   -1    0    0  503  502  0.00000000000E+00  0.00000000000E+00  0.16266635089E+03  0.16266635089E+03  0.00000000000E+00 0. -1.
         21   -1    0    0  501  503 -0.00000000000E+00 -0.00000000000E+00 -0.20400673780E+03  0.20400673780E+03  0.00000000000E+00 0. -1.
          6    1    1    2  501    0  0.39537544854E+02  0.40487197677E+02 -0.13301945593E+02  0.18250581466E+03  0.17300000000E+03 0. -1.
         -6    1    1    2    0  502 -0.39537544854E+02 -0.40487197677E+02 -0.28038441317E+02  0.18416727402E+03  0.17300000000E+03 0. -1.
<mgrwt>
<rscale>  2 0.18202041E+03</rscale>
<asrwt>0</asrwt>
<pdfrwt beam="1">  1       21 0.25025593E-01 0.18202041E+03</pdfrwt>
<pdfrwt beam="2">  1       21 0.31385652E-01 0.18202041E+03</pdfrwt>
<totfact> 0.14799260E+05</totfact>
</mgrwt>
</event>
<event>
 4    1  0.3875622E-001  0.2129880E+03  0.7546771E-02  0.1139221E+00
         21   -1    0    0  503  502  0.00000000000E+00  0.00000000000E+00  0.92621161359E+03  0.92621161359E+03  0.00000000000E+00 0.  1.
         21   -1    0    0  501  503 -0.00000000000E+00 -0.00000000000E+00 -0.48978536980E+02  0.48978536980E+02  0.00000000000E+00 0.  1.
          6    1    1    2  501    0 -0.11934712439E+03 -0.34513159789E+02  0.44038310800E+03  0.48918419446E+03  0.17300000000E+03 0.  1.
         -6    1    1    2    0  502  0.11934712439E+03  0.34513159789E+02  0.43684996861E+03  0.48600595611E+03  0.17300000000E+03 0.  1.
<mgrwt>
<rscale>  2 0.21298801E+03</rscale>
<asrwt>0</asrwt>
<pdfrwt beam="1">  1       21 0.14249408E+00 0.21298801E+03</pdfrwt>
<pdfrwt beam="2">  1       21 0.75351602E-02 0.21298801E+03</pdfrwt>
<totfact> 0.45000752E+04</totfact>
</mgrwt>
</event>
<event>
 4    1  0.3875622E-001  0.2568600E+03  0.7546771E-02  0.1109045E+00
         21   -1    0    0  503  502  0.00000000000E+00  0.00000000000E+00  0.16972834277E+04  0.16972834277E+04  0.00000000000E+00 0. -1.
         21   -1    0    0  501  503 -0.00000000000E+00 -0.00000000000E+00 -0.81614966353E+02  0.81614966353E+02  0.00000000000E+00 0.  1.
          6    1    1    2  501    0 -0.18883182441E+03 -0.19763265065E+02  0.16415744570E+03  0.30483554834E+03  0.17300000000E+03 0.  1.
         -6    1    1    2    0  502  0.18883182441E+03  0.19763265065E+02  0.14515110156E+04  0.14740628457E+04  0.17300000000E+03 0. -1.
<mgrwt>
<rscale>  2 0.25685997E+03</rscale>
<asrwt>0</asrwt>
<pdfrwt beam="1">  1       21 0.26112050E+00 0.25685997E+03</pdfrwt>
<pdfrwt beam="2">  1       21 0.12556150E-01 0.25685997E+03</pdfrwt>
<totfact> 0.29075127E+03</totfact>
</mgrwt>
</event>
<event>
 4    1  0.3875622E-001  0.1983699E+03  0.7546771E-02  0.1151122E+00
         21   -1    0    0  503  502  0.00000000000E+00  0.00000000000E+00  0.29629007748E+03  0.29629007748E+03  0.00000000000E+00 0. -1.
         21   -1    0    0  501  503 -0.00000000000E+00 -0.00000000000E+00 -0.14998473859E+03  0.14998473859E+03  0.00000000000E+00 0. -1.
          6    1    1    2  501    0 -0.76869071452E+02 -0.59268460493E+02  0.14865846505E+03  0.24789099174E+03  0.17300000000E+03 0.  1.
         -6    1    1    2    0  502  0.76869071452E+02  0.59268460493E+02 -0.23531261640E+01  0.19838382434E+03  0.17300000000E+03 0.  1.
<mgrwt>
<rscale>  2 0.19836987E+03</rscale>
<asrwt>0</asrwt>
<pdfrwt beam="1">  1       21 0.45583089E-01 0.19836987E+03</pdfrwt>
<pdfrwt beam="2">  1       21 0.23074575E-01 0.19836987E+03</pdfrwt>
<totfact> 0.81208115E+04</totfact>
</mgrwt>
</event>
<event>
 4    1  0.3875622E-001  0.2623219E+03  0.7546771E-02  0.1105756E+00
         21   -1    0    0  501  502  0.00000000000E+00  0.00000000000E+00  0.23451065634E+03  0.23451065634E+03  0.00000000000E+00 0. -1.
         21   -1    0    0  502  503 -0.00000000000E+00 -0.00000000000E+00 -0.38625211834E+03  0.38625211834E+03  0.00000000000E+00 0. -1.
          6    1    1    2  501    0 -0.18392907386E+03  0.71090678227E+02  0.76283036358E+02  0.27318837892E+03  0.17300000000E+03 0. -1.
         -6    1    1    2    0  503  0.18392907386E+03 -0.71090678227E+02 -0.22802449836E+03  0.34757439577E+03  0.17300000000E+03 0. -1.
<mgrwt>
<rscale>  2 0.26232192E+03</rscale>
<asrwt>0</asrwt>
<pdfrwt beam="1">  1       21 0.36078563E-01 0.26232192E+03</pdfrwt>
<pdfrwt beam="2">  1       21 0.59423403E-01 0.26232192E+03</pdfrwt>
<totfact> 0.18877534E+04</totfact>
</mgrwt>
</event>
<event>
 4    1  0.3875622E-001  0.2439683E+03  0.7546771E-02  0.1117177E+00
         21   -1    0    0  501  502  0.00000000000E+00  0.00000000000E+00  0.49072750432E+03  0.49072750432E+03  0.00000000000E+00 0. -1.
         21   -1    0    0  502  503 -0.00000000000E+00 -0.00000000000E+00 -0.12129910757E+03  0.12129910757E+03  0.00000000000E+00 0. -1.
          6    1    1    2  501    0 -0.55627598010E+01 -0.17193185593E+03  0.18731539822E+03  0.30758342899E+03  0.17300000000E+03 0. -1.
         -6    1    1    2    0  503  0.55627598010E+01  0.17193185593E+03  0.18211299853E+03  0.30444318290E+03  0.17300000000E+03 0. -1.
<mgrwt>
<rscale>  2 0.24396825E+03</rscale>
<asrwt>0</asrwt>
<pdfrwt beam="1">  1       21 0.75496538E-01 0.24396825E+03</pdfrwt>
<pdfrwt beam="2">  1       21 0.18661401E-01 0.24396825E+03</pdfrwt>
<totfact> 0.40135486E+04</totfact>
</mgrwt>
</event>
<event>
 4    1  0.3875622E-001  0.2506051E+03  0.7546771E-02  0.1112923E+00
         21   -1    0    0  503  502  0.00000000000E+00  0.00000000000E+00  0.96256517545E+02  0.96256517545E+02  0.00000000000E+00 0.  1.
         21   -1    0    0  501  503 -0.00000000000E+00 -0.00000000000E+00 -0.83714240138E+03  0.83714240138E+03  0.00000000000E+00 0. -1.
          6    1    1    2  501    0  0.21707933104E+02 -0.18000741063E+03 -0.58965176042E+03  0.64069657468E+03  0.17300000000E+03 0. -1.
         -6    1    1    2    0  502 -0.21707933104E+02  0.18000741063E+03 -0.15123412342E+03  0.29270234425E+03  0.17300000000E+03 0. -1.
<mgrwt>
<rscale>  2 0.25060507E+03</rscale>
<asrwt>0</asrwt>
<pdfrwt beam="1">  1       21 0.14808695E-01 0.25060507E+03</pdfrwt>
<pdfrwt beam="2">  1       21 0.12879114E+00 0.25060507E+03</pdfrwt>
<totfact> 0.17160978E+04</totfact>
</mgrwt>
</event>
<event>
 4    1  0.3875622E-001  0.1933672E+03  0.7546771E-02  0.1155459E+00
         21   -1    0    0  501  502  0.00000000000E+00  0.00000000000E+00  0.15679917641E+03  0.15679917641E+03  0.00000000000E+00 0. -1.
         21   -1    0    0  502  503 -0.00000000000E+00 -0.00000000000E+00 -0.26253909297E+03  0.26253909297E+03  0.00000000000E+00 0.  1.
          6    1    1    2  501    0  0.19092073604E+02  0.84245899164E+02 -0.11636299532E+03  0.22567947510E+03  0.17300000000E+03 0.  1.
         -6    1    1    2    0  503 -0.19092073604E+02 -0.84245899164E+02  0.10623078762E+02  0.19365879428E+03  0.17300000000E+03 0. -1.
<mgrwt>
<rscale>  2 0.19336721E+03</rscale>
<asrwt>0</asrwt>
<pdfrwt beam="1">  1       21 0.24122950E-01 0.19336721E+03</pdfrwt>
<pdfrwt beam="2">  1       21 0.40390630E-01 0.19336721E+03</pdfrwt>
<totfact> 0.95741171E+04</totfact>
</mgrwt>
</event>
<event>
 4    1  0.3875622E-001  0.1990385E+03  0.7546771E-02  0.1150553E+00
         21   -1    0    0  503  502  0.00000000000E+00  0.00000000000E+00  0.35226535987E+03  0.35226535987E+03  0.00000000000E+00 0.  1.
         21   -1    0    0  501  503 -0.00000000000E+00 -0.00000000000E+00 -0.11553299320E+03  0.11553299320E+03  0.00000000000E+00 0.  1.
          6    1    1    2  501    0 -0.19200988415E+02  0.96533049689E+02  0.80229135279E+02  0.21459967797E+03  0.17300000000E+03 0. -1.
         -6    1    1    2    0  502  0.19200988415E+02 -0.96533049689E+02  0.15650323138E+03  0.25319867510E+03  0.17300000000E+03 0. -1.
<mgrwt>
<rscale>  2 0.19903846E+03</rscale>
<asrwt>0</asrwt>
<pdfrwt beam="1">  1       21 0.54194670E-01 0.19903846E+03</pdfrwt>
<pdfrwt beam="2">  1       21 0.17774307E-01 0.19903846E+03</pdfrwt>
<totfact> 0.92232226E+04</totfact>
</mgrwt>
</event>
<event>
 4    1  0.3875622E-001  0.2107525E+03  0.7546771E-02  0.1140971E+00
         21   -1    0    0  503  502  0.00000000000E+00  0.00000000000E+00  0.33453338414E+02  0.33453338414E+02  0.00000000000E+00 0. -1.
         21   -1    0    0  501  503 -0.00000000000E+00 -0.00000000000E+00 -0.19474409299E+04  0.19474409299E+04  0.00000000000E+00 0. -1.
          6    1    1    2  501    0 -0.80698395823E+02  0.89305007064E+02 -0.15157183660E+04  0.15303002256E+04  0.17300000000E+03 0. -1.
         -6    1    1    2    0  502  0.80698395823E+02 -0.89305007064E+02 -0.39826922544E+03  0.45059404269E+03  0.17300000000E+03 0. -1.
<mgrwt>
<rscale>  2 0.21075250E+03</rscale>
<asrwt>0</asrwt>
<pdfrwt beam="1">  1       21 0.51466672E-02 0.21075250E+03</pdfrwt>
<pdfrwt beam="2">  1       21 0.29960631E+00 0.21075250E+03</pdfrwt>
<totfact> 0.86222951E+03</totfact>
</mgrwt>
</event>
<event>
 4    1  0.3875622E-001  0.1731270E+03  0.7546771E-02  0.1174626E+00
         21   -1    0    0  503  502  0.00000000000E+00  0.00000000000E+00  0.86470676356E+02  0.86470676356E+02  0.00000000000E+00 0.  1.
         21   -1    0    0  501  503 -0.00000000000E+00 -0.00000000000E+00 -0.41069248738E+03  0.41069248738E+03  0.00000000000E+00 0.  1.
          6    1    1    2  501    0 -0.23849800756E+01  0.61858914023E+01 -0.26029186020E+03  0.31260967015E+03  0.17300000000E+03 0.  1.
         -6    1    1    2    0  502  0.23849800756E+01 -0.61858914023E+01 -0.63929950818E+02  0.18455349358E+03  0.17300000000E+03 0.  1.
<mgrwt>
<rscale>  2 0.17312699E+03</rscale>
<asrwt>0</asrwt>
<pdfrwt beam="1">  1       21 0.13303181E-01 0.17312699E+03</pdfrwt>
<pdfrwt beam="2">  1       21 0.63183459E-01 0.17312699E+03</pdfrwt>
<totfact> 0.11384805E+05</totfact>
</mgrwt>
</event>
<event>
 4    1  0.3875622E-001  0.2472427E+03  0.7546771E-02  0.1115060E+00
         21   -1    0    0  501  502  0.00000000000E+00  0.00000000000E+00  0.70831661716E+02  0.70831661716E+02  0.00000000000E+00 0.  1.
         21   -1    0    0  502  503 -0.00000000000E+00 -0.00000000000E+00 -0.89625386223E+03  0.89625386223E+03  0.00000000000E+00 0. -1.
          6    1    1    2  501    0  0.79634585577E+02  0.15766511450E+03 -0.31959455552E+03  0.40406637508E+03  0.17300000000E+03 0.  1.
         -6    1    1    2    0  503 -0.79634585577E+02 -0.15766511450E+03 -0.50582764499E+03  0.56301914887E+03  0.17300000000E+03 0. -1.
<mgrwt>
<rscale>  2 0.24724271E+03</rscale>
<asrwt>0</asrwt>
<pdfrwt beam="1">  1       21 0.10897179E-01 0.24724271E+03</pdfrwt>
<pdfrwt beam="2">  1       21 0.13788521E+00 0.24724271E+03</pdfrwt>
<totfact> 0.25130708E+04</totfact>
</mgrwt>
</event>
<event>
 4    1  0.3875622E-001  0.2104513E+03  0.7546771E-02  0.1141209E+00
         21   -1    0    0  501  502  0.00000000000E+00  0.00000000000E+00  0.21307068931E+02  0.21307068931E+02  0.00000000000E+00 0.  1.
         21   -1    0    0  502  503 -0.00000000000E+00 -0.00000000000E+00 -0.20971869146E+04  0.20971869146E+04  0.00000000000E+00 0. -1.
          6    1    1    2  501    0 -0.11728014152E+03 -0.24619245736E+02 -0.11375509256E+04  0.11568542895E+04  0.17300000000E+03 0.  1.
         -6    1    1    2    0  503  0.11728014152E+03  0.24619245736E+02 -0.93832892009E+03  0.96163969402E+03  0.17300000000E+03 0.  1.
<mgrwt>
<rscale>  2 0.21045127E+03</rscale>
<asrwt>0</asrwt>
<pdfrwt beam="1">  1       21 0.32780090E-02 0.21045127E+03</pdfrwt>
<pdfrwt beam="2">  1       21 0.32264430E+00 0.21045127E+03</pdfrwt>
<totfact> 0.13544913E+04</totfact>
</mgrwt>
</event>
<event>
 4    1  0.3875622E-001  0.2143040E+03  0.7546771E-02  0.1138202E+00
         21   -1    0    0  501  502  0.00000000000E+00  0.00000000000E+00  0.70552926878E+02  0.70552926878E+02  0.00000000000E+00 0.  1.
         21   -1    0    0  502  503 -0.00000000000E+00 -0.00000000000E+00 -0.65101491346E+03  0.65101491346E+03  0.00000000000E+00 0.  1.
          6    1    1    2  501    0  0.90369021660E+02  0.88490992580E+02 -0.28654596432E+03  0.35781951527E+03  0.17300000000E+03 0.  1.
         -6    1    1    2    0  503 -0.90369021660E+02 -0.88490992580E+02 -0.29391602226E+03  0.36374832506E+03  0.17300000000E+03 0.  1.
<mgrwt>
<rscale>  2 0.21430403E+03</rscale>
<asrwt>0</asrwt>
<pdfrwt beam="1">  1       21 0.10854297E-01 0.21430403E+03</pdfrwt>
<pdfrwt beam="2">  1       21 0.10015614E+00 0.21430403E+03</pdfrwt>
<totfact> 0.56794241E+04</totfact>
</mgrwt>
</event>
<event>
 4    1  0.3875622E-001  0.2833939E+03  0.7546771E-02  0.1093850E+00
         21   -1    0    0  503  502  0.00000000000E+00  0.00000000000E+00  0.12291734991E+04  0.12291734991E+04  0.00000000000E+00 0. -1.
         21   -1    0    0  501  503 -0.00000000000E+00 -0.00000000000E+00 -0.78258273768E+02  0.78258273768E+02  0.00000000000E+00 0. -1.
          6    1    1    2  501    0  0.72924668575E+02 -0.21228546659E+03  0.30984147777E+03  0.41989744933E+03  0.17300000000E+03 0. -1.
         -6    1    1    2    0  502 -0.72924668575E+02  0.21228546659E+03  0.84107374758E+03  0.88753432355E+03  0.17300000000E+03 0. -1.
<mgrwt>
<rscale>  2 0.28339394E+03</rscale>
<asrwt>0</asrwt>
<pdfrwt beam="1">  1       21 0.18910360E+00 0.28339394E+03</pdfrwt>
<pdfrwt beam="2">  1       21 0.12039735E-01 0.28339394E+03</pdfrwt>
<totfact> 0.86527473E+03</totfact>
</mgrwt>
</event>
<event>
 4    1  0.3875622E-001  0.2296797E+03  0.7546771E-02  0.1126865E+00
         21   -1    0    0  503  502  0.00000000000E+00  0.00000000000E+00  0.15918779371E+03  0.15918779371E+03  0.00000000000E+00 0.  1.
         21   -1    0    0  501  503 -0.00000000000E+00 -0.00000000000E+00 -0.43609889853E+03  0.43609889853E+03  0.00000000000E+00 0.  1.
          6    1    1    2  501    0  0.11520375309E+03  0.97733542665E+02 -0.28430402985E+03  0.36548807296E+03  0.17300000000E+03 0.  1.
         -6    1    1    2    0  502 -0.11520375309E+03 -0.97733542665E+02  0.73929250244E+01  0.22979861929E+03  0.17300000000E+03 0.  1.
<mgrwt>
<rscale>  2 0.22967967E+03</rscale>
<asrwt>0</asrwt>
<pdfrwt beam="1">  1       21 0.24490430E-01 0.22967967E+03</pdfrwt>
<pdfrwt beam="2">  1       21 0.67092137E-01 0.22967967E+03</pdfrwt>
<totfact> 0.31427242E+04</totfact>
</mgrwt>
</event>
<event>
 4    1  0.3875622E-001  0.2729585E+03  0.7546771E-02  0.1099598E+00
         21   -1    0    0  501  502  0.00000000000E+00  0.00000000000E+00  0.16109192023E+03  0.16109192023E+03  0.00000000000E+00 0.  1.
         21   -1    0    0  502  503 -0.00000000000E+00 -0.00000000000E+00 -0.49108416487E+03  0.49108416487E+03  0.00000000000E+00 0. -1.
          6    1    1    2  501    0 -0.14360314911E+03 -0.15477552459E+03 -0.86335446711E+02  0.28628680865E+03  0.17300000000E+03 0.  1.
         -6    1    1    2    0  503  0.14360314911E+03  0.15477552459E+03 -0.24365679793E+03  0.36588927645E+03  0.17300000000E+03 0. -1.
<mgrwt>
<rscale>  2 0.27295847E+03</rscale>
<asrwt>0</asrwt>
<pdfrwt beam="1">  1       21 0.24783372E-01 0.27295847E+03</pdfrwt>
<pdfrwt beam="2">  1       21 0.75551410E-01 0.27295847E+03</pdfrwt>
<totfact> 0.23120427E+04</totfact>
</mgrwt>
</event>
<event>
 4    1  0.3875622E-001  0.1825493E+03  0.7546771E-02  0.1165358E+00
         21   -1    0    0  503  502  0.00000000000E+00  0.00000000000E+00  0.18436514083E+03  0.18436514083E+03  0.00000000000E+00 0.  1.
         21   -1    0    0  501  503 -0.00000000000E+00 -0.00000000000E+00 -0.31997310499E+03  0.31997310499E+03  0.00000000000E+00 0.  1.
          6    1    1    2  501    0 -0.56013632069E+02 -0.16054193962E+02 -0.23414087564E+03  0.29689428046E+03  0.17300000000E+03 0.  1.
         -6    1    1    2    0  502  0.56013632069E+02  0.16054193962E+02  0.98532911476E+02  0.20744396536E+03  0.17300000000E+03 0.  1.
<mgrwt>
<rscale>  2 0.18254935E+03</rscale>
<asrwt>0</asrwt>
<pdfrwt beam="1">  1       21 0.28363868E-01 0.18254935E+03</pdfrwt>
<pdfrwt beam="2">  1       21 0.49226632E-01 0.18254935E+03</pdfrwt>
<totfact> 0.46999035E+04</totfact>
</mgrwt>
</event>
<event>
 4    1  0.3875622E-001  0.2071617E+03  0.7546771E-02  0.1143834E+00
         21   -1    0    0  503  502  0.00000000000E+00  0.00000000000E+00  0.21070044638E+03  0.21070044638E+03  0.00000000000E+00 0.  1.
         21   -1    0    0  501  503 -0.00000000000E+00 -0.00000000000E+00 -0.23586196487E+03  0.23586196487E+03  0.00000000000E+00 0.  1.
          6    1    1    2  501    0  0.12213402798E+02  0.11330395721E+03 -0.95054158336E+02  0.22792816181E+03  0.17300000000E+03 0.  1.
         -6    1    1    2    0  502 -0.12213402798E+02 -0.11330395721E+03  0.69892639842E+02  0.21863424945E+03  0.17300000000E+03 0.  1.
<mgrwt>
<rscale>  2 0.20716166E+03</rscale>
<asrwt>0</asrwt>
<pdfrwt beam="1">  1       21 0.32415453E-01 0.20716166E+03</pdfrwt>
<pdfrwt beam="2">  1       21 0.36286456E-01 0.20716166E+03</pdfrwt>
<totfact> 0.66631928E+04</totfact>
</mgrwt>
</event>
<event>
 4    1  0.3875622E-001  0.1833891E+03  0.7546771E-02  0.1164563E+00
         21   -1    0    0  503  502  0.00000000000E+00  0.00000000000E+00  0.19641687615E+03  0.19641687615E+03  0.00000000000E+00 0.  1.
         21   -1    0    0  501  503 -0.00000000000E+00 -0.00000000000E+00 -0.17708562173E+03  0.17708562173E+03  0.00000000000E+00 0. -1.
          6    1    1    2  501    0  0.13557483325E+01 -0.60833608959E+02 -0.24306865052E+02  0.18499294506E+03  0.17300000000E+03 0. -1.
         -6    1    1    2    0  502 -0.13557483325E+01  0.60833608959E+02  0.43638119478E+02  0.18850955282E+03  0.17300000000E+03 0.  1.
<mgrwt>
<rscale>  2 0.18338911E+03</rscale>
<asrwt>0</asrwt>
<pdfrwt beam="1">  1       21 0.30217981E-01 0.18338911E+03</pdfrwt>
<pdfrwt beam="2">  1       21 0.27243942E-01 0.18338911E+03</pdfrwt>
<totfact> 0.13537544E+05</totfact>
</mgrwt>
</event>
<event>
 4    1  0.3875622E-001  0.2844334E+03  0.7546771E-02  0.1093292E+00
         21   -1    0    0  503  502  0.00000000000E+00  0.00000000000E+00  0.20462657105E+03  0.20462657105E+03  0.00000000000E+00 0.  1.
         21   -1    0    0  501  503 -0.00000000000E+00 -0.00000000000E+00 -0.40975069521E+03  0.40975069521E+03  0.00000000000E+00 0.  1.
          6    1    1    2  501    0 -0.29681769230E+02  0.22381326678E+03 -0.45005366695E+02  0.28797199316E+03  0.17300000000E+03 0.  1.
         -6    1    1    2    0  502  0.29681769230E+02 -0.22381326678E+03 -0.16011875747E+03  0.32640527310E+03  0.17300000000E+03 0.  1.
<mgrwt>
<rscale>  2 0.28443345E+03</rscale>
<asrwt>0</asrwt>
<pdfrwt beam="1">  1       21 0.31481011E-01 0.28443345E+03</pdfrwt>
<pdfrwt beam="2">  1       21 0.63038568E-01 0.28443345E+03</pdfrwt>
<totfact> 0.21573621E+04</totfact>
</mgrwt>
</event>
<event>
 4    1  0.3875622E-001  0.2328277E+03  0.7546771E-02  0.1124665E+00
         21   -1    0    0  503  502  0.00000000000E+00  0.00000000000E+00  0.50968749030E+03  0.50968749030E+03  0.00000000000E+00 0. -1.
         21   -1    0    0  501  503 -0.00000000000E+00 -0.00000000000E+00 -0.12204259773E+03  0.12204259773E+03  0.00000000000E+00 0.  1.
          6    1    1    2  501    0 -0.21380780119E+02  0.15434567640E+03  0.80582597024E+02  0.24637832803E+03  0.17300000000E+03 0. -1.
         -6    1    1    2    0  502  0.21380780119E+02 -0.15434567640E+03  0.30706229555E+03  0.38535175999E+03  0.17300000000E+03 0. -1.
<mgrwt>
<rscale>  2 0.23282767E+03</rscale>
<asrwt>0</asrwt>
<pdfrwt beam="1">  1       21 0.78413459E-01 0.23282767E+03</pdfrwt>
<pdfrwt beam="2">  1       21 0.18775785E-01 0.23282767E+03</pdfrwt>
<totfact> 0.36608957E+04</totfact>
</mgrwt>
</event>
<event>
 4    1  0.3875622E-001  0.2373709E+03  0.7546771E-02  0.1121557E+00
         21   -1    0    0  503  502  0.00000000000E+00  0.00000000000E+00  0.49018374017E+03  0.49018374017E+03  0.00000000000E+00 0. -1.
         21   -1    0    0  501  503 -0.00000000000E+00 -0.00000000000E+00 -0.11905046426E+03  0.11905046426E+03  0.00000000000E+00 0. -1.
          6    1    1    2  501    0  0.39885289778E+02 -0.15755991372E+03  0.24212337144E+03  0.33907033157E+03  0.17300000000E+03 0. -1.
         -6    1    1    2    0  502 -0.39885289778E+02  0.15755991372E+03  0.12900990447E+03  0.27016387287E+03  0.17300000000E+03 0. -1.
<mgrwt>
<rscale>  2 0.23737094E+03</rscale>
<asrwt>0</asrwt>
<pdfrwt beam="1">  1       21 0.75412882E-01 0.23737094E+03</pdfrwt>
<pdfrwt beam="2">  1       21 0.18315456E-01 0.23737094E+03</pdfrwt>
<totfact> 0.41782572E+04</totfact>
</mgrwt>
</event>
<event>
 4    1  0.3875622E-001  0.2424371E+03  0.7546771E-02  0.1118180E+00
         21   -1    0    0  501  502  0.00000000000E+00  0.00000000000E+00  0.59275086115E+03  0.59275086115E+03  0.00000000000E+00 0.  1.
         21   -1    0    0  502  503 -0.00000000000E+00 -0.00000000000E+00 -0.11270950135E+03  0.11270950135E+03  0.00000000000E+00 0.  1.
          6    1    1    2  501    0 -0.15217565136E+03 -0.75427419555E+02  0.36233103816E+03  0.43595814673E+03  0.17300000000E+03 0.  1.
         -6    1    1    2    0  503  0.15217565136E+03  0.75427419555E+02  0.11771032164E+03  0.26950221577E+03  0.17300000000E+03 0.  1.
<mgrwt>
<rscale>  2 0.24243705E+03</rscale>
<asrwt>0</asrwt>
<pdfrwt beam="1">  1       21 0.91192439E-01 0.24243705E+03</pdfrwt>
<pdfrwt beam="2">  1       21 0.17339924E-01 0.24243705E+03</pdfrwt>
<totfact> 0.29862371E+04</totfact>
</mgrwt>
</event>
<event>
 4    1  0.3875622E-001  0.2261835E+03  0.7546771E-02  0.1129355E+00
         21   -1    0    0  503  502  0.00000000000E+00  0.00000000000E+00  0.57432502635E+02  0.57432502635E+02  0.00000000000E+00 0.  1.
         21   -1    0    0  501  503 -0.00000000000E+00 -0.00000000000E+00 -0.11936710550E+04  0.11936710550E+04  0.00000000000E+00 0.  1.
          6    1    1    2  501    0  0.14530447721E+03  0.10797245959E+02 -0.88323752635E+03  0.91173872330E+03  0.17300000000E+03 0.  1.
         -6    1    1    2    0  502 -0.14530447721E+03 -0.10797245959E+02 -0.25300102603E+03  0.33936483435E+03  0.17300000000E+03 0.  1.
<mgrwt>
<rscale>  2 0.22618349E+03</rscale>
<asrwt>0</asrwt>
<pdfrwt beam="1">  1       21 0.88357702E-02 0.22618349E+03</pdfrwt>
<pdfrwt beam="2">  1       21 0.18364169E+00 0.22618349E+03</pdfrwt>
<totfact> 0.16935128E+04</totfact>
</mgrwt>
</event>
<event>
 4    1  0.3875622E-001  0.1839581E+03  0.7546771E-02  0.1164026E+00
         21   -1    0    0  501  502  0.00000000000E+00  0.00000000000E+00  0.43502557756E+02  0.43502557756E+02  0.00000000000E+00 0.  1.
         21   -1    0    0  502  503 -0.00000000000E+00 -0.00000000000E+00 -0.80983697875E+03  0.80983697875E+03  0.00000000000E+00 0.  1.
          6    1    1    2  501    0 -0.23396410143E+02 -0.58001599354E+02 -0.29843477353E+03  0.35057651317E+03  0.17300000000E+03 0.  1.
         -6    1    1    2    0  503  0.23396410143E+02  0.58001599354E+02 -0.46789964746E+03  0.50276302333E+03  0.17300000000E+03 0.  1.
<mgrwt>
<rscale>  2 0.18395809E+03</rscale>
<asrwt>0</asrwt>
<pdfrwt beam="1">  1       21 0.66927011E-02 0.18395809E+03</pdfrwt>
<pdfrwt beam="2">  1       21 0.12459031E+00 0.18395809E+03</pdfrwt>
<totfact> 0.78929381E+04</totfact>
</mgrwt>
</event>
<event>
 4    1  0.3875622E-001  0.2008377E+03  0.7546771E-02  0.1149034E+00
         21   -1    0    0  501  502  0.00000000000E+00  0.00000000000E+00  0.81868900940E+03  0.81868900940E+03  0.00000000000E+00 0.  1.
         21   -1    0    0  502  503 -0.00000000000E+00 -0.00000000000E+00 -0.49938846789E+02  0.49938846789E+02  0.00000000000E+00 0. -1.
          6    1    1    2  501    0 -0.40849714499E+02 -0.93477759351E+02  0.43468466036E+03  0.47883874595E+03  0.17300000000E+03 0.  1.
         -6    1    1    2    0  503  0.40849714499E+02  0.93477759351E+02  0.33406550224E+03  0.38978911024E+03  0.17300000000E+03 0. -1.
<mgrwt>
<rscale>  2 0.20083772E+03</rscale>
<asrwt>0</asrwt>
<pdfrwt beam="1">  1       21 0.12595215E+00 0.20083772E+03</pdfrwt>
<pdfrwt beam="2">  1       21 0.76829001E-02 0.20083772E+03</pdfrwt>
<totfact> 0.60003215E+04</totfact>
</mgrwt>
</event>
<event>
 4    1  0.3875622E-001  0.2076550E+03  0.7546771E-02  0.1143437E+00
         21   -1    0    0  501  502  0.00000000000E+00  0.00000000000E+00  0.69873882834E+02  0.69873882834E+02  0.00000000000E+00 0.  1.
         21   -1    0    0  502  503 -0.00000000000E+00 -0.00000000000E+00 -0.65883045178E+03  0.65883045178E+03  0.00000000000E+00 0. -1.
          6    1    1    2  501    0 -0.10588809886E+03  0.44489379310E+02 -0.20280238062E+03  0.29025747180E+03  0.17300000000E+03 0.  1.
         -6    1    1    2    0  503  0.10588809886E+03 -0.44489379310E+02 -0.38615418833E+03  0.43844686282E+03  0.17300000000E+03 0. -1.
<mgrwt>
<rscale>  2 0.20765499E+03</rscale>
<asrwt>0</asrwt>
<pdfrwt beam="1">  1       21 0.10749828E-01 0.20765499E+03</pdfrwt>
<pdfrwt beam="2">  1       21 0.10135853E+00 0.20765499E+03</pdfrwt>
<totfact> 0.56335439E+04</totfact>
</mgrwt>
</event>
<event>
 4    1  0.3875622E-001  0.2662160E+03  0.7546771E-02  0.1103465E+00
         21   -1    0    0  503  502  0.00000000000E+00  0.00000000000E+00  0.43799065670E+03  0.43799065670E+03  0.00000000000E+00 0.  1.
         21   -1    0    0  501  503 -0.00000000000E+00 -0.00000000000E+00 -0.46569686230E+03  0.46569686230E+03  0.00000000000E+00 0. -1.
          6    1    1    2  501    0  0.20217408416E+03  0.82228178212E+01 -0.37885327835E+03  0.46303432006E+03  0.17300000000E+03 0. -1.
         -6    1    1    2    0  502 -0.20217408416E+03 -0.82228178212E+01  0.35114707274E+03  0.44065319894E+03  0.17300000000E+03 0.  1.
<mgrwt>
<rscale>  2 0.26621603E+03</rscale>
<asrwt>0</asrwt>
<pdfrwt beam="1">  1       21 0.67383178E-01 0.26621603E+03</pdfrwt>
<pdfrwt beam="2">  1       21 0.71645671E-01 0.26621603E+03</pdfrwt>
<totfact> 0.33627249E+03</totfact>
</mgrwt>
</event>
<event>
 4    1  0.3875622E-001  0.2762028E+03  0.7546771E-02  0.1097781E+00
         21   -1    0    0  503  502  0.00000000000E+00  0.00000000000E+00  0.76285632613E+03  0.76285632613E+03  0.00000000000E+00 0.  1.
         21   -1    0    0  501  503 -0.00000000000E+00 -0.00000000000E+00 -0.13496641858E+03  0.13496641858E+03  0.00000000000E+00 0. -1.
          6    1    1    2  501    0  0.32557221330E+02  0.21283564356E+03  0.85461802234E+02  0.28912229847E+03  0.17300000000E+03 0. -1.
         -6    1    1    2    0  502 -0.32557221330E+02 -0.21283564356E+03  0.54242810531E+03  0.60870044624E+03  0.17300000000E+03 0.  1.
<mgrwt>
<rscale>  2 0.27620279E+03</rscale>
<asrwt>0</asrwt>
<pdfrwt beam="1">  1       21 0.11736251E+00 0.27620279E+03</pdfrwt>
<pdfrwt beam="2">  1       21 0.20764065E-01 0.27620279E+03</pdfrwt>
<totfact> 0.11415071E+04</totfact>
</mgrwt>
</event>
<event>
 4    1  0.3875622E-001  0.1737562E+03  0.7546771E-02  0.1173986E+00
         21   -1    0    0  501  502  0.00000000000E+00  0.00000000000E+00  0.58324970062E+02  0.58324970062E+02  0.00000000000E+00 0.  1.
         21   -1    0    0  502  503 -0.00000000000E+00 -0.00000000000E+00 -0.60289778502E+03  0.60289778502E+03  0.00000000000E+00 0.  1.
          6    1    1    2  501    0  0.11320871585E+02  0.11577586520E+02 -0.14795843171E+03  0.22821678325E+03  0.17300000000E+03 0.  1.
         -6    1    1    2    0  503 -0.11320871585E+02 -0.11577586520E+02 -0.39661438324E+03  0.43300597183E+03  0.17300000000E+03 0.  1.
<mgrwt>
<rscale>  2 0.17375616E+03</rscale>
<asrwt>0</asrwt>
<pdfrwt beam="1">  1       21 0.89730725E-02 0.17375616E+03</pdfrwt>
<pdfrwt beam="2">  1       21 0.92753503E-01 0.17375616E+03</pdfrwt>
<totfact> 0.96947365E+04</totfact>
</mgrwt>
</event>
<event>
 4    1  0.3875622E-001  0.1747843E+03  0.7546771E-02  0.1172948E+00
         21   -1    0    0  501  502  0.00000000000E+00  0.00000000000E+00  0.68570639424E+02  0.68570639424E+02  0.00000000000E+00 0. -1.
         21   -1    0    0  502  503 -0.00000000000E+00 -0.00000000000E+00 -0.51071205337E+03  0.51071205337E+03  0.00000000000E+00 0. -1.
          6    1    1    2  501    0  0.23099672167E+02  0.93251028619E+01 -0.32455435316E+03  0.36862593581E+03  0.17300000000E+03 0. -1.
         -6    1    1    2    0  503 -0.23099672167E+02 -0.93251028619E+01 -0.11758706079E+03  0.21065675698E+03  0.17300000000E+03 0. -1.
<mgrwt>
<rscale>  2 0.17478430E+03</rscale>
<asrwt>0</asrwt>
<pdfrwt beam="1">  1       21 0.10549329E-01 0.17478430E+03</pdfrwt>
<pdfrwt beam="2">  1       21 0.78571086E-01 0.17478430E+03</pdfrwt>
<totfact> 0.10647641E+05</totfact>
</mgrwt>
</event>
<event>
 4    1  0.3875622E-001  0.1822607E+03  0.7546771E-02  0.1165633E+00
         21   -1    0    0  501  502  0.00000000000E+00  0.00000000000E+00  0.52226337656E+02  0.52226337656E+02  0.00000000000E+00 0.  1.
         21   -1    0    0  502  503 -0.00000000000E+00 -0.00000000000E+00 -0.65816831781E+03  0.65816831781E+03  0.00000000000E+00 0.  1.
          6    1    1    2  501    0 -0.57036929950E+02 -0.60628506140E+01 -0.36807393593E+03  0.41072788054E+03  0.17300000000E+03 0.  1.
         -6    1    1    2    0  503  0.57036929950E+02  0.60628506140E+01 -0.23786804422E+03  0.29966677493E+03  0.17300000000E+03 0.  1.
<mgrwt>
<rscale>  2 0.18226072E+03</rscale>
<asrwt>0</asrwt>
<pdfrwt beam="1">  1       21 0.80348212E-02 0.18226072E+03</pdfrwt>
<pdfrwt beam="2">  1       21 0.10125666E+00 0.18226072E+03</pdfrwt>
<totfact> 0.95323692E+04</totfact>
</mgrwt>
</event>
<event>
 4    1  0.3875622E-001  0.1738491E+03  0.7546771E-02  0.1173892E+00
         21   -1    0    0  501  502  0.00000000000E+00  0.00000000000E+00  0.24869132125E+03  0.24869132125E+03  0.00000000000E+00 0.  1.
         21   -1    0    0  502  503 -0.00000000000E+00 -0.00000000000E+00 -0.12312540189E+03  0.12312540189E+03  0.00000000000E+00 0.  1.
          6    1    1    2  501    0 -0.10876126428E+02  0.13274947556E+02  0.41622341474E+02  0.17876222663E+03  0.17300000000E+03 0. -1.
         -6    1    1    2    0  503  0.10876126428E+02 -0.13274947556E+02  0.83943577885E+02  0.19305449652E+03  0.17300000000E+03 0. -1.
<mgrwt>
<rscale>  2 0.17384911E+03</rscale>
<asrwt>0</asrwt>
<pdfrwt beam="1">  1       21 0.38260203E-01 0.17384911E+03</pdfrwt>
<pdfrwt beam="2">  1       21 0.18942370E-01 0.17384911E+03</pdfrwt>
<totfact> 0.16924758E+05</totfact>
</mgrwt>
</event>
<event>
 4    1  0.3875622E-001  0.1750289E+03  0.7546771E-02  0.1172703E+00
         21   -1    0    0  503  502  0.00000000000E+00  0.00000000000E+00  0.17629581825E+03  0.17629581825E+03  0.00000000000E+00 0. -1.
         21   -1    0    0  501  503 -0.00000000000E+00 -0.00000000000E+00 -0.26598676098E+03  0.26598676098E+03  0.00000000000E+00 0. -1.
          6    1    1    2  501    0 -0.26513335671E+02  0.17752998223E+01 -0.17505485931E+03  0.24754658637E+03  0.17300000000E+03 0. -1.
         -6    1    1    2    0  502  0.26513335671E+02 -0.17752998223E+01  0.85363916576E+02  0.19473599285E+03  0.17300000000E+03 0. -1.
<mgrwt>
<rscale>  2 0.17502888E+03</rscale>
<asrwt>0</asrwt>
<pdfrwt beam="1">  1       21 0.27122434E-01 0.17502888E+03</pdfrwt>
<pdfrwt beam="2">  1       21 0.40921040E-01 0.17502888E+03</pdfrwt>
<totfact> 0.75078891E+04</totfact>
</mgrwt>
</event>
<event>
 4    1  0.3875622E-001  0.2288364E+03  0.7546771E-02  0.1127461E+00
         21   -1    0    0  501  502  0.00000000000E+00  0.00000000000E+00  0.20523833682E+03  0.20523833682E+03  0.00000000000E+00 0. -1.
         21   -1    0    0  502  503 -0.00000000000E+00 -0.00000000000E+00 -0.26748908078E+03  0.26748908078E+03  0.00000000000E+00 0. -1.
          6    1    1    2  501    0  0.86714790663E+01 -0.14953899380E+03  0.19644761297E+02  0.22967808311E+03  0.17300000000E+03 0. -1.
         -6    1    1    2    0  503 -0.86714790663E+01  0.14953899380E+03 -0.81895505256E+02  0.24304933449E+03  0.17300000000E+03 0. -1.
<mgrwt>
<rscale>  2 0.22883642E+03</rscale>
<asrwt>0</asrwt>
<pdfrwt beam="1">  1       21 0.31575129E-01 0.22883642E+03</pdfrwt>
<pdfrwt beam="2">  1       21 0.41152166E-01 0.22883642E+03</pdfrwt>
<totfact> 0.53936386E+04</totfact>
</mgrwt>
</event>
<event>
 4    1  0.3875622E-001  0.2233503E+03  0.7546771E-02  0.1131410E+00
         21   -1    0    0  503  502  0.00000000000E+00  0.00000000000E+00  0.38760749765E+03  0.38760749765E+03  0.00000000000E+00 0. -1.
         21   -1    0    0  501  503 -0.00000000000E+00 -0.00000000000E+00 -0.13983465091E+03  0.13983465091E+03  0.00000000000E+00 0.  1.
          6    1    1    2  501    0  0.22562425283E+02  0.13945347667E+03  0.49470967438E+02  0.22876344072E+03  0.17300000000E+03 0.  1.
         -6    1    1    2    0  502 -0.22562425283E+02 -0.13945347667E+03  0.19830187930E+03  0.29867870785E+03  0.17300000000E+03 0.  1.
<mgrwt>
<rscale>  2 0.22335025E+03</rscale>
<asrwt>0</asrwt>
<pdfrwt beam="1">  1       21 0.59631922E-01 0.22335025E+03</pdfrwt>
<pdfrwt beam="2">  1       21 0.21513023E-01 0.22335025E+03</pdfrwt>
<totfact> 0.52109548E+04</totfact>
</mgrwt>
</event>
<event>
 4    1  0.3875622E-001  0.1740523E+03  0.7546771E-02  0.1173687E+00
         21   -1    0    0  501  502  0.00000000000E+00  0.00000000000E+00  0.15831659606E+03  0.15831659606E+03  0.00000000000E+00 0.  1.
         21   -1    0    0  502  503 -0.00000000000E+00 -0.00000000000E+00 -0.20853871656E+03  0.20853871656E+03  0.00000000000E+00 0.  1.
          6    1    1    2  501    0 -0.62774478727E+01 -0.18049372313E+02  0.27547479502E+02  0.17621875558E+03  0.17300000000E+03 0.  1.
         -6    1    1    2    0  503  0.62774478727E+01  0.18049372313E+02 -0.77769600002E+02  0.19063655703E+03  0.17300000000E+03 0.  1.
<mgrwt>
<rscale>  2 0.17405225E+03</rscale>
<asrwt>0</asrwt>
<pdfrwt beam="1">  1       21 0.24356400E-01 0.17405225E+03</pdfrwt>
<pdfrwt beam="2">  1       21 0.32082879E-01 0.17405225E+03</pdfrwt>
<totfact> 0.14965928E+05</totfact>
</mgrwt>
</event>
<event>
 4    1  0.3875622E-001  0.2012306E+03  0.7546771E-02  0.1148705E+00
         21   -1    0    0  501  502  0.00000000000E+00  0.00000000000E+00  0.27145112079E+03  0.27145112079E+03  0.00000000000E+00 0.  1.
         21   -1    0    0  502  503 -0.00000000000E+00 -0.00000000000E+00 -0.15338305088E+03  0.15338305088E+03  0.00000000000E+00 0.  1.
          6    1    1    2  501    0  0.16527179013E+02  0.10144749910E+03  0.23850691127E+02  0.20263908356E+03  0.17300000000E+03 0.  1.
         -6    1    1    2    0  503 -0.16527179013E+02 -0.10144749910E+03  0.94217378781E+02  0.22219508812E+03  0.17300000000E+03 0.  1.
<mgrwt>
<rscale>  2 0.20123057E+03</rscale>
<asrwt>0</asrwt>
<pdfrwt beam="1">  1       21 0.41761711E-01 0.20123057E+03</pdfrwt>
<pdfrwt beam="2">  1       21 0.23597392E-01 0.20123057E+03</pdfrwt>
<totfact> 0.92989237E+04</totfact>
</mgrwt>
</event>
<event>
 4    1  0.3875622E-001  0.1965077E+03  0.7546771E-02  0.1152719E+00
         21   -1    0    0  501  502  0.00000000000E+00  0.00000000000E+00  0.16912832788E+04  0.16912832788E+04  0.00000000000E+00 0. -1.
         21   -1    0    0  502  503 -0.00000000000E+00 -0.00000000000E+00 -0.25701209712E+02  0.25701209712E+02  0.00000000000E+00 0. -1.
          6    1    1    2  501    0  0.93094181064E+02 -0.44424192244E+01  0.11196352049E+04  0.11367489844E+04  0.17300000000E+03 0. -1.
         -6    1    1    2    0  503 -0.93094181064E+02  0.44424192244E+01  0.54594686420E+03  0.58023550406E+03  0.17300000000E+03 0. -1.
<mgrwt>
<rscale>  2 0.19650766E+03</rscale>
<asrwt>0</asrwt>
<pdfrwt beam="1">  1       21 0.26019734E+00 0.19650766E+03</pdfrwt>
<pdfrwt beam="2">  1       21 0.39540336E-02 0.19650766E+03</pdfrwt>
<totfact> 0.23075441E+04</totfact>
</mgrwt>
</event>
<event>
 4    1  0.3875622E-001  0.1846116E+03  0.7546771E-02  0.1163413E+00
         21   -1    0    0  501  502  0.00000000000E+00  0.00000000000E+00  0.15748395437E+03  0.15748395437E+03  0.00000000000E+00 0. -1.
         21   -1    0    0  502  503 -0.00000000000E+00 -0.00000000000E+00 -0.46955519365E+03  0.46955519365E+03  0.00000000000E+00 0. -1.
          6    1    1    2  501    0 -0.12505879139E+02  0.63214332689E+02  0.74163836280E+02  0.19895156064E+03  0.17300000000E+03 0. -1.
         -6    1    1    2    0  503  0.12505879139E+02 -0.63214332689E+02 -0.38623507556E+03  0.42808758737E+03  0.17300000000E+03 0. -1.
<mgrwt>
<rscale>  2 0.18461162E+03</rscale>
<asrwt>0</asrwt>
<pdfrwt beam="1">  1       21 0.24228301E-01 0.18461162E+03</pdfrwt>
<pdfrwt beam="2">  1       21 0.72239260E-01 0.18461162E+03</pdfrwt>
<totfact> 0.27914100E+04</totfact>
</mgrwt>
</event>
<event>
 4    1  0.3875622E-001  0.2085231E+03  0.7546771E-02  0.1142741E+00
         21   -1    0    0  503  502  0.00000000000E+00  0.00000000000E+00  0.83755354709E+03  0.83755354709E+03  0.00000000000E+00 0.  1.
         21   -1    0    0  501  503 -0.00000000000E+00 -0.00000000000E+00 -0.52422874152E+02  0.52422874152E+02  0.00000000000E+00 0.  1.
          6    1    1    2  501    0 -0.67351698814E+02 -0.94955989628E+02  0.43634914203E+03  0.48361396283E+03  0.17300000000E+03 0.  1.
         -6    1    1    2    0  502  0.67351698814E+02  0.94955989628E+02  0.34878153091E+03  0.40636245841E+03  0.17300000000E+03 0.  1.
<mgrwt>
<rscale>  2 0.20852312E+03</rscale>
<asrwt>0</asrwt>
<pdfrwt beam="1">  1       21 0.12885438E+00 0.20852312E+03</pdfrwt>
<pdfrwt beam="2">  1       21 0.80650582E-02 0.20852312E+03</pdfrwt>
<totfact> 0.51858563E+04</totfact>
</mgrwt>
</event>
<event>
 4    1  0.3875622E-001  0.1735863E+03  0.7546771E-02  0.1174159E+00
         21   -1    0    0  501  502  0.00000000000E+00  0.00000000000E+00  0.13350587004E+03  0.13350587004E+03  0.00000000000E+00 0.  1.
         21   -1    0    0  502  503 -0.00000000000E+00 -0.00000000000E+00 -0.22585550382E+03  0.22585550382E+03  0.00000000000E+00 0.  1.
          6    1    1    2  501    0  0.95552511938E+01 -0.10577848369E+02 -0.41450882004E+02  0.17846671768E+03  0.17300000000E+03 0. -1.
         -6    1    1    2    0  503 -0.95552511938E+01  0.10577848369E+02 -0.50898751769E+02  0.18089465618E+03  0.17300000000E+03 0. -1.
<mgrwt>
<rscale>  2 0.17358627E+03</rscale>
<asrwt>0</asrwt>
<pdfrwt beam="1">  1       21 0.20539365E-01 0.17358627E+03</pdfrwt>
<pdfrwt beam="2">  1       21 0.34747000E-01 0.17358627E+03</pdfrwt>
<totfact> 0.17635295E+05</totfact>
</mgrwt>
</event>
<event>
 4    1  0.3875622E-001  0.2228180E+03  0.7546771E-02  0.1131799E+00
         21   -1    0    0  501  502  0.00000000000E+00  0.00000000000E+00  0.17710531655E+03  0.17710531655E+03  0.00000000000E+00 0.  1.
         21   -1    0    0  502  503 -0.00000000000E+00 -0.00000000000E+00 -0.28442896488E+03  0.28442896488E+03  0.00000000000E+00 0.  1.
          6    1    1    2  501    0 -0.66201502391E+02 -0.12383957980E+03 -0.25957982681E+02  0.22432498146E+03  0.17300000000E+03 0.  1.
         -6    1    1    2    0  503  0.66201502391E+02  0.12383957980E+03 -0.81365665646E+02  0.23720929996E+03  0.17300000000E+03 0.  1.
<mgrwt>
<rscale>  2 0.22281804E+03</rscale>
<asrwt>0</asrwt>
<pdfrwt beam="1">  1       21 0.27246972E-01 0.22281804E+03</pdfrwt>
<pdfrwt beam="2">  1       21 0.43758302E-01 0.22281804E+03</pdfrwt>
<totfact> 0.63591173E+04</totfact>
</mgrwt>
</event>
<event>
 4    1  0.3875622E-001  0.1893899E+03  0.7546771E-02  0.1159013E+00
         21   -1    0    0  503  502  0.00000000000E+00  0.00000000000E+00  0.42587438768E+03  0.42587438768E+03  0.00000000000E+00 0. -1.
         21   -1    0    0  501  503 -0.00000000000E+00 -0.00000000000E+00 -0.90610985261E+02  0.90610985261E+02  0.00000000000E+00 0. -1.
          6    1    1    2  501    0  0.64608469140E+02 -0.42015159321E+02  0.23619801935E+03  0.30275077579E+03  0.17300000000E+03 0.  1.
         -6    1    1    2    0  502 -0.64608469140E+02  0.42015159321E+02  0.99065383075E+02  0.21373459716E+03  0.17300000000E+03 0.  1.
<mgrwt>
<rscale>  2 0.18938988E+03</rscale>
<asrwt>0</asrwt>
<pdfrwt beam="1">  1       21 0.65519135E-01 0.18938988E+03</pdfrwt>
<pdfrwt beam="2">  1       21 0.13940152E-01 0.18938988E+03</pdfrwt>
<totfact> 0.96110276E+04</totfact>
</mgrwt>
</event>
<event>
 4    1  0.3875622E-001  0.2206511E+03  0.7546771E-02  0.1133399E+00
         21   -1    0    0  501  502  0.00000000000E+00  0.00000000000E+00  0.69410152756E+03  0.69410152756E+03  0.00000000000E+00 0. -1.
         21   -1    0    0  502  503 -0.00000000000E+00 -0.00000000000E+00 -0.82249961162E+02  0.82249961162E+02  0.00000000000E+00 0.  1.
          6    1    1    2  501    0 -0.53388104976E+02 -0.12612547463E+03  0.45484941011E+03  0.50554417313E+03  0.17300000000E+03 0. -1.
         -6    1    1    2    0  503  0.53388104976E+02  0.12612547463E+03  0.15700215629E+03  0.27080731560E+03  0.17300000000E+03 0.  1.
<mgrwt>
<rscale>  2 0.22065114E+03</rscale>
<asrwt>0</asrwt>
<pdfrwt beam="1">  1       21 0.10678485E+00 0.22065114E+03</pdfrwt>
<pdfrwt beam="2">  1       21 0.12653841E-01 0.22065114E+03</pdfrwt>
<totfact> 0.36876655E+04</totfact>
</mgrwt>
</event>
<event>
 4    1  0.3875622E-001  0.1874816E+03  0.7546771E-02  0.1160753E+00
         21   -1    0    0  501  502  0.00000000000E+00  0.00000000000E+00  0.56907997213E+02  0.56907997213E+02  0.00000000000E+00 0.  1.
         21   -1    0    0  502  503 -0.00000000000E+00 -0.00000000000E+00 -0.61800177311E+03  0.61800177311E+03  0.00000000000E+00 0. -1.
          6    1    1    2  501    0  0.61283030465E+02 -0.38271850556E+02 -0.27251998887E+03  0.33078163296E+03  0.17300000000E+03 0. -1.
         -6    1    1    2    0  503 -0.61283030465E+02  0.38271850556E+02 -0.28857378702E+03  0.34412813736E+03  0.17300000000E+03 0.  1.
<mgrwt>
<rscale>  2 0.18748158E+03</rscale>
<asrwt>0</asrwt>
<pdfrwt beam="1">  1       21 0.87550764E-02 0.18748158E+03</pdfrwt>
<pdfrwt beam="2">  1       21 0.95077197E-01 0.18748158E+03</pdfrwt>
<totfact> 0.94992143E+04</totfact>
</mgrwt>
</event>
<event>
 4    1  0.3875622E-001  0.1847342E+03  0.7546771E-02  0.1163298E+00
         21   -1    0    0  501  502  0.00000000000E+00  0.00000000000E+00  0.76667464207E+03  0.76667464207E+03  0.00000000000E+00 0.  1.
         21   -1    0    0  502  503 -0.00000000000E+00 -0.00000000000E+00 -0.46608598769E+02  0.46608598769E+02  0.00000000000E+00 0.  1.
          6    1    1    2  501    0 -0.64241392388E+02  0.84123107789E+01  0.44626506312E+03  0.48298988605E+03  0.17300000000E+03 0.  1.
         -6    1    1    2    0  503  0.64241392388E+02 -0.84123107789E+01  0.27380098019E+03  0.33029335479E+03  0.17300000000E+03 0.  1.
<mgrwt>
<rscale>  2 0.18473420E+03</rscale>
<asrwt>0</asrwt>
<pdfrwt beam="1">  1       21 0.11794993E+00 0.18473420E+03</pdfrwt>
<pdfrwt beam="2">  1       21 0.71705543E-02 0.18473420E+03</pdfrwt>
<totfact> 0.80250321E+04</totfact>
</mgrwt>
</event>
<event>
 4    1  0.3875622E-001  0.2527474E+03  0.7546771E-02  0.1111581E+00
         21   -1    0    0  503  502  0.00000000000E+00  0.00000000000E+00  0.37204237236E+03  0.37204237236E+03  0.00000000000E+00 0. -1.
         21   -1    0    0  501  503 -0.00000000000E+00 -0.00000000000E+00 -0.17171690192E+03  0.17171690192E+03  0.00000000000E+00 0.  1.
          6    1    1    2  501    0 -0.86880385401E+02  0.16249316052E+03  0.10250336690E+03  0.27274194545E+03  0.17300000000E+03 0.  1.
         -6    1    1    2    0  502  0.86880385401E+02 -0.16249316052E+03  0.97822103545E+02  0.27101732883E+03  0.17300000000E+03 0.  1.
<mgrwt>
<rscale>  2 0.25274736E+03</rscale>
<asrwt>0</asrwt>
<pdfrwt beam="1">  1       21 0.57237288E-01 0.25274736E+03</pdfrwt>
<pdfrwt beam="2">  1       21 0.26417985E-01 0.25274736E+03</pdfrwt>
<totfact> 0.37964957E+04</totfact>
</mgrwt>
</event>
<event>
 4    1  0.3875622E-001  0.1746533E+03  0.7546771E-02  0.1173080E+00
         21   -1    0    0  503  502  0.00000000000E+00  0.00000000000E+00  0.64870025726E+02  0.64870025726E+02  0.00000000000E+00 0.  1.
         21   -1    0    0  501  503 -0.00000000000E+00 -0.00000000000E+00 -0.81136103251E+03  0.81136103251E+03  0.00000000000E+00 0.  1.
          6    1    1    2  501    0 -0.12357759179E+02  0.20543908343E+02 -0.65732692617E+03  0.68013414431E+03  0.17300000000E+03 0.  1.
         -6    1    1    2    0  502  0.12357759179E+02 -0.20543908343E+02 -0.89164080616E+02  0.19609691393E+03  0.17300000000E+03 0.  1.
<mgrwt>
<rscale>  2 0.17465327E+03</rscale>
<asrwt>0</asrwt>
<pdfrwt beam="1">  1       21 0.99800041E-02 0.17465327E+03</pdfrwt>
<pdfrwt beam="2">  1       21 0.12482477E+00 0.17465327E+03</pdfrwt>
<totfact> 0.39378576E+04</totfact>
</mgrwt>
</event>
<event>
 4    1  0.3875622E-001  0.1881254E+03  0.7546771E-02  0.1160163E+00
         21   -1    0    0  503  502  0.00000000000E+00  0.00000000000E+00  0.17104725125E+03  0.17104725125E+03  0.00000000000E+00 0. -1.
         21   -1    0    0  501  503 -0.00000000000E+00 -0.00000000000E+00 -0.35350356932E+03  0.35350356932E+03  0.00000000000E+00 0. -1.
          6    1    1    2  501    0 -0.28368896072E+00 -0.73905933966E+02 -0.26012441852E+03  0.32102317777E+03  0.17300000000E+03 0.  1.
         -6    1    1    2    0  502  0.28368896072E+00  0.73905933966E+02  0.77668100453E+02  0.20352764280E+03  0.17300000000E+03 0.  1.
<mgrwt>
<rscale>  2 0.18812540E+03</rscale>
<asrwt>0</asrwt>
<pdfrwt beam="1">  1       21 0.26314962E-01 0.18812540E+03</pdfrwt>
<pdfrwt beam="2">  1       21 0.54385164E-01 0.18812540E+03</pdfrwt>
<totfact> 0.43956599E+04</totfact>
</mgrwt>
</event>
<event>
 4    1  0.3875622E-001  0.2033845E+03  0.7546771E-02  0.1146915E+00
         21   -1    0    0  501  502  0.00000000000E+00  0.00000000000E+00  0.68521675116E+03  0.68521675116E+03  0.00000000000E+00 0.  1.
         21   -1    0    0  502  503 -0.00000000000E+00 -0.00000000000E+00 -0.71202035266E+02  0.71202035266E+02  0.00000000000E+00 0.  1.
          6    1    1    2  501    0  0.33346573362E+02  0.10160835631E+03  0.45453679283E+03  0.49796480605E+03  0.17300000000E+03 0.  1.
         -6    1    1    2    0  503 -0.33346573362E+02 -0.10160835631E+03  0.15947792306E+03  0.25845398037E+03  0.17300000000E+03 0.  1.
<mgrwt>
<rscale>  2 0.20338449E+03</rscale>
<asrwt>0</asrwt>
<pdfrwt beam="1">  1       21 0.10541796E+00 0.20338449E+03</pdfrwt>
<pdfrwt beam="2">  1       21 0.10954160E-01 0.20338449E+03</pdfrwt>
<totfact> 0.49688035E+04</totfact>
</mgrwt>
</event>
<event>
 4    1  0.3875622E-001  0.1821954E+03  0.7546771E-02  0.1165695E+00
         21   -1    0    0  503  502  0.00000000000E+00  0.00000000000E+00  0.43465913668E+03  0.43465913668E+03  0.00000000000E+00 0.  1.
         21   -1    0    0  501  503 -0.00000000000E+00 -0.00000000000E+00 -0.76398719044E+02  0.76398719044E+02  0.00000000000E+00 0. -1.
          6    1    1    2  501    0  0.66830204071E+01 -0.56758220070E+02  0.17422377695E+03  0.25208943406E+03  0.17300000000E+03 0.  1.
         -6    1    1    2    0  502 -0.66830204071E+01  0.56758220070E+02  0.18403664068E+03  0.25896842167E+03  0.17300000000E+03 0.  1.
<mgrwt>
<rscale>  2 0.18219538E+03</rscale>
<asrwt>0</asrwt>
<pdfrwt beam="1">  1       21 0.66870635E-01 0.18219538E+03</pdfrwt>
<pdfrwt beam="2">  1       21 0.11753649E-01 0.18219538E+03</pdfrwt>
<totfact> 0.12522711E+05</totfact>
</mgrwt>
</event>
<event>
 4    1  0.3875622E-001  0.2028522E+03  0.7546771E-02  0.1147355E+00
         21   -1    0    0  503  502  0.00000000000E+00  0.00000000000E+00  0.45915845849E+02  0.45915845849E+02  0.00000000000E+00 0.  1.
         21   -1    0    0  501  503 -0.00000000000E+00 -0.00000000000E+00 -0.91227961267E+03  0.91227961267E+03  0.00000000000E+00 0.  1.
          6    1    1    2  501    0  0.38623239751E+02  0.98632006510E+02 -0.49682031652E+03  0.53663717190E+03  0.17300000000E+03 0.  1.
         -6    1    1    2    0  502 -0.38623239751E+02 -0.98632006510E+02 -0.36954345030E+03  0.42155828662E+03  0.17300000000E+03 0.  1.
<mgrwt>
<rscale>  2 0.20285223E+03</rscale>
<asrwt>0</asrwt>
<pdfrwt beam="1">  1       21 0.70639768E-02 0.20285223E+03</pdfrwt>
<pdfrwt beam="2">  1       21 0.14035070E+00 0.20285223E+03</pdfrwt>
<totfact> 0.52643960E+04</totfact>
</mgrwt>
</event>
<event>
 4    1  0.3875622E-001  0.2138448E+03  0.7546771E-02  0.1138557E+00
         21   -1    0    0  501  502  0.00000000000E+00  0.00000000000E+00  0.42114620201E+03  0.42114620201E+03  0.00000000000E+00 0. -1.
         21   -1    0    0  502  503 -0.00000000000E+00 -0.00000000000E+00 -0.19001630948E+03  0.19001630948E+03  0.00000000000E+00 0. -1.
          6    1    1    2  501    0 -0.12564145555E+03  0.38528472144E+01  0.31561119128E+03  0.38123489327E+03  0.17300000000E+03 0. -1.
         -6    1    1    2    0  503  0.12564145555E+03 -0.38528472144E+01 -0.84481298754E+02  0.22992761823E+03  0.17300000000E+03 0. -1.
<mgrwt>
<rscale>  2 0.21384485E+03</rscale>
<asrwt>0</asrwt>
<pdfrwt beam="1">  1       21 0.64791723E-01 0.21384485E+03</pdfrwt>
<pdfrwt beam="2">  1       21 0.29233278E-01 0.21384485E+03</pdfrwt>
<totfact> 0.24301468E+04</totfact>
</mgrwt>
</event>
<event>
 4    1  0.3875622E-001  0.1851027E+03  0.7546771E-02  0.1162954E+00
         21   -1    0    0  503  502  0.00000000000E+00  0.00000000000E+00  0.78866911417E+03  0.78866911417E+03  0.00000000000E+00 0. -1.
         21   -1    0    0  501  503 -0.00000000000E+00 -0.00000000000E+00 -0.44131425620E+02  0.44131425620E+02  0.00000000000E+00 0. -1.
          6    1    1    2  501    0  0.22651904079E+02  0.61813531660E+02  0.32030304009E+03  0.36994196700E+03  0.17300000000E+03 0. -1.
         -6    1    1    2    0  502 -0.22651904079E+02 -0.61813531660E+02  0.42423464846E+03  0.46285857280E+03  0.17300000000E+03 0. -1.
<mgrwt>
<rscale>  2 0.18510273E+03</rscale>
<asrwt>0</asrwt>
<pdfrwt beam="1">  1       21 0.12133370E+00 0.18510273E+03</pdfrwt>
<pdfrwt beam="2">  1       21 0.67894507E-02 0.18510273E+03</pdfrwt>
<totfact> 0.82209055E+04</totfact>
</mgrwt>
</event>
<event>
 4    1  0.3875622E-001  0.1970283E+03  0.7546771E-02  0.1152271E+00
         21   -1    0    0  503  502  0.00000000000E+00  0.00000000000E+00  0.10031603576E+03  0.10031603576E+03  0.00000000000E+00 0. -1.
         21   -1    0    0  501  503 -0.00000000000E+00 -0.00000000000E+00 -0.39090901694E+03  0.39090901694E+03  0.00000000000E+00 0. -1.
          6    1    1    2  501    0 -0.42515732857E+02 -0.84163803229E+02 -0.16992545588E+03  0.26018223204E+03  0.17300000000E+03 0.  1.
         -6    1    1    2    0  502  0.42515732857E+02  0.84163803229E+02 -0.12066752530E+03  0.23104282066E+03  0.17300000000E+03 0.  1.
<mgrwt>
<rscale>  2 0.19702826E+03</rscale>
<asrwt>0</asrwt>
<pdfrwt beam="1">  1       21 0.15433236E-01 0.19702826E+03</pdfrwt>
<pdfrwt beam="2">  1       21 0.60139849E-01 0.19702826E+03</pdfrwt>
<totfact> 0.95854022E+04</totfact>
</mgrwt>
</event>
<event>
 4    1  0.3875622E-001  0.3008242E+03  0.7546771E-02  0.1084829E+00
         21   -1    0    0  501  502  0.00000000000E+00  0.00000000000E+00  0.44965792937E+03  0.44965792937E+03  0.00000000000E+00 0. -1.
         21   -1    0    0  502  503 -0.00000000000E+00 -0.00000000000E+00 -0.23687180896E+03  0.23687180896E+03  0.00000000000E+00 0.  1.
          6    1    1    2  501    0  0.18856264146E+03  0.15814656575E+03  0.23950275025E+03  0.38452148626E+03  0.17300000000E+03 0. -1.
         -6    1    1    2    0  503 -0.18856264146E+03 -0.15814656575E+03 -0.26716629844E+02  0.30200825208E+03  0.17300000000E+03 0.  1.
<mgrwt>
<rscale>  2 0.30082421E+03</rscale>
<asrwt>0</asrwt>
<pdfrwt beam="1">  1       21 0.69178143E-01 0.30082421E+03</pdfrwt>
<pdfrwt beam="2">  1       21 0.36441817E-01 0.30082421E+03</pdfrwt>
<totfact> 0.13031312E+04</totfact>
</mgrwt>
</event>
<event>
 4    1  0.3875622E-001  0.1790480E+03  0.7546771E-02  0.1168728E+00
         21   -1    0    0  501  502  0.00000000000E+00  0.00000000000E+00  0.46759166816E+03  0.46759166816E+03  0.00000000000E+00 0. -1.
         21   -1    0    0  502  503 -0.00000000000E+00 -0.00000000000E+00 -0.78016224402E+02  0.78016224402E+02  0.00000000000E+00 0. -1.
          6    1    1    2  501    0 -0.27943336276E+02  0.36720019437E+02  0.99812152183E+02  0.20498940361E+03  0.17300000000E+03 0. -1.
         -6    1    1    2    0  503  0.27943336276E+02 -0.36720019437E+02  0.28976329158E+03  0.34061848895E+03  0.17300000000E+03 0. -1.
<mgrwt>
<rscale>  2 0.17904801E+03</rscale>
<asrwt>0</asrwt>
<pdfrwt beam="1">  1       21 0.71937178E-01 0.17904801E+03</pdfrwt>
<pdfrwt beam="2">  1       21 0.12002496E-01 0.17904801E+03</pdfrwt>
<totfact> 0.10286677E+05</totfact>
</mgrwt>
</event>
<event>
 4    1  0.3875622E-001  0.1783819E+03  0.7546771E-02  0.1169378E+00
         21   -1    0    0  503  502  0.00000000000E+00  0.00000000000E+00  0.36016381951E+03  0.36016381951E+03  0.00000000000E+00 0. -1.
         21   -1    0    0  501  503 -0.00000000000E+00 -0.00000000000E+00 -0.88352635428E+02  0.88352635428E+02  0.00000000000E+00 0. -1.
          6    1    1    2  501    0  0.38486355686E+02  0.20245613156E+02  0.13735988319E+03  0.22513956102E+03  0.17300000000E+03 0.  1.
         -6    1    1    2    0  502 -0.38486355686E+02 -0.20245613156E+02  0.13445130089E+03  0.22337689392E+03  0.17300000000E+03 0.  1.
<mgrwt>
<rscale>  2 0.17838185E+03</rscale>
<asrwt>0</asrwt>
<pdfrwt beam="1">  1       21 0.55409818E-01 0.17838185E+03</pdfrwt>
<pdfrwt beam="2">  1       21 0.13592713E-01 0.17838185E+03</pdfrwt>
<totfact> 0.14470557E+05</totfact>
</mgrwt>
</event>
<event>
 4    1  0.3875622E-001  0.1902980E+03  0.7546771E-02  0.1158193E+00
         21   -1    0    0  501  502  0.00000000000E+00  0.00000000000E+00  0.23787979900E+03  0.23787979900E+03  0.00000000000E+00 0. -1.
         21   -1    0    0  502  503 -0.00000000000E+00 -0.00000000000E+00 -0.16222182039E+03  0.16222182039E+03  0.00000000000E+00 0. -1.
          6    1    1    2  501    0  0.38430864366E+02  0.69335499005E+02  0.87468290759E+02  0.20943744805E+03  0.17300000000E+03 0.  1.
         -6    1    1    2    0  503 -0.38430864366E+02 -0.69335499005E+02 -0.11810312149E+02  0.19066417134E+03  0.17300000000E+03 0.  1.
<mgrwt>
<rscale>  2 0.19029804E+03</rscale>
<asrwt>0</asrwt>
<pdfrwt beam="1">  1       21 0.36596892E-01 0.19029804E+03</pdfrwt>
<pdfrwt beam="2">  1       21 0.24957203E-01 0.19029804E+03</pdfrwt>
<totfact> 0.10952161E+05</totfact>
</mgrwt>
</event>
<event>
 4    1  0.3875622E-001  0.1735182E+03  0.7546771E-02  0.1174228E+00
         21   -1    0    0  501  502  0.00000000000E+00  0.00000000000E+00  0.41772681441E+02  0.41772681441E+02  0.00000000000E+00 0. -1.
         21   -1    0    0  502  503 -0.00000000000E+00 -0.00000000000E+00 -0.13061566456E+04  0.13061566456E+04  0.00000000000E+00 0. -1.
          6    1    1    2  501    0  0.11104825872E+01  0.13354421133E+02 -0.18100121279E+03  0.25073893348E+03  0.17300000000E+03 0. -1.
         -6    1    1    2    0  503 -0.11104825872E+01 -0.13354421133E+02 -0.10833827513E+04  0.10971903935E+04  0.17300000000E+03 0. -1.
<mgrwt>
<rscale>  2 0.17351822E+03</rscale>
<asrwt>0</asrwt>
<pdfrwt beam="1">  1       21 0.64265660E-02 0.17351822E+03</pdfrwt>
<pdfrwt beam="2">  1       21 0.20094719E+00 0.17351822E+03</pdfrwt>
<totfact> 0.23547962E+04</totfact>
</mgrwt>
</event>
<event>
 4    1  0.3875622E-001  0.2315876E+03  0.7546771E-02  0.1125527E+00
         21   -1    0    0  503  502  0.00000000000E+00  0.00000000000E+00  0.11684114524E+03  0.11684114524E+03  0.00000000000E+00 0. -1.
         21   -1    0    0  501  503 -0.00000000000E+00 -0.00000000000E+00 -0.47258376742E+03  0.47258376742E+03  0.00000000000E+00 0.  1.
          6    1    1    2  501    0  0.17043219074E+00 -0.15396035159E+03 -0.12794897083E+03  0.26458223304E+03  0.17300000000E+03 0. -1.
         -6    1    1    2    0  502 -0.17043219074E+00  0.15396035159E+03 -0.22779365135E+03  0.32484267962E+03  0.17300000000E+03 0.  1.
<mgrwt>
<rscale>  2 0.23158761E+03</rscale>
<asrwt>0</asrwt>
<pdfrwt beam="1">  1       21 0.17975561E-01 0.23158761E+03</pdfrwt>
<pdfrwt beam="2">  1       21 0.72705195E-01 0.23158761E+03</pdfrwt>
<totfact> 0.47073397E+04</totfact>
</mgrwt>
</event>
<event>
 4    1  0.3875622E-001  0.1840255E+03  0.7546771E-02  0.1163963E+00
         21   -1    0    0  501  502  0.00000000000E+00  0.00000000000E+00  0.14948024215E+03  0.14948024215E+03  0.00000000000E+00 0. -1.
         21   -1    0    0  502  503 -0.00000000000E+00 -0.00000000000E+00 -0.23329703452E+03  0.23329703452E+03  0.00000000000E+00 0. -1.
          6    1    1    2  501    0  0.52472616059E+02 -0.34395070309E+02 -0.74445475540E+02  0.19851328703E+03  0.17300000000E+03 0.  1.
         -6    1    1    2    0  503 -0.52472616059E+02  0.34395070309E+02 -0.93713168324E+01  0.18426398964E+03  0.17300000000E+03 0.  1.
<mgrwt>
<rscale>  2 0.18402553E+03</rscale>
<asrwt>0</asrwt>
<pdfrwt beam="1">  1       21 0.22996960E-01 0.18402553E+03</pdfrwt>
<pdfrwt beam="2">  1       21 0.35891852E-01 0.18402553E+03</pdfrwt>
<totfact> 0.13327367E+05</totfact>
</mgrwt>
</event>
<event>
 4    1  0.3875622E-001  0.2153152E+03  0.7546771E-02  0.1137425E+00
         21   -1    0    0  501  502  0.00000000000E+00  0.00000000000E+00  0.26659711349E+03  0.26659711349E+03  0.00000000000E+00 0. -1.
         21   -1    0    0  502  503 -0.00000000000E+00 -0.00000000000E+00 -0.18317672430E+03  0.18317672430E+03  0.00000000000E+00 0.  1.
          6    1    1    2  501    0 -0.49703464038E+02 -0.11815744429E+03 -0.89050087692E+01  0.21549922311E+03  0.17300000000E+03 0.  1.
         -6    1    1    2    0  503  0.49703464038E+02  0.11815744429E+03  0.92325397957E+02  0.23427461469E+03  0.17300000000E+03 0. -1.
<mgrwt>
<rscale>  2 0.21531516E+03</rscale>
<asrwt>0</asrwt>
<pdfrwt beam="1">  1       21 0.41014941E-01 0.21531516E+03</pdfrwt>
<pdfrwt beam="2">  1       21 0.28181034E-01 0.21531516E+03</pdfrwt>
<totfact> 0.68209211E+04</totfact>
</mgrwt>
</event>
<event>
 4    1  0.3875622E-001  0.1860284E+03  0.7546771E-02  0.1162093E+00
         21   -1    0    0  503  502  0.00000000000E+00  0.00000000000E+00  0.51129535944E+03  0.51129535944E+03  0.00000000000E+00 0.  1.
         21   -1    0    0  501  503 -0.00000000000E+00 -0.00000000000E+00 -0.68199485820E+02  0.68199485820E+02  0.00000000000E+00 0.  1.
          6    1    1    2  501    0  0.51766311483E+02 -0.44696813021E+02  0.24673651297E+03  0.30900722148E+03  0.17300000000E+03 0.  1.
         -6    1    1    2    0  502 -0.51766311483E+02  0.44696813021E+02  0.19635936065E+03  0.27048762377E+03  0.17300000000E+03 0.  1.
<mgrwt>
<rscale>  2 0.18602837E+03</rscale>
<asrwt>0</asrwt>
<pdfrwt beam="1">  1       21 0.78660822E-01 0.18602837E+03</pdfrwt>
<pdfrwt beam="2">  1       21 0.10492229E-01 0.18602837E+03</pdfrwt>
<totfact> 0.10675746E+05</totfact>
</mgrwt>
</event>
<event>
 4    1  0.3875622E-001  0.2117916E+03  0.7546771E-02  0.1140155E+00
         21   -1    0    0  503  502  0.00000000000E+00  0.00000000000E+00  0.18271691887E+03  0.18271691887E+03  0.00000000000E+00 0.  1.
         21   -1    0    0  501  503 -0.00000000000E+00 -0.00000000000E+00 -0.25376876081E+03  0.25376876081E+03  0.00000000000E+00 0.  1.
          6    1    1    2  501    0  0.65255472860E+02 -0.10328793832E+03  0.38864004320E+01  0.21182723868E+03  0.17300000000E+03 0.  1.
         -6    1    1    2    0  502 -0.65255472860E+02  0.10328793832E+03 -0.74938242375E+02  0.22465844100E+03  0.17300000000E+03 0.  1.
<mgrwt>
<rscale>  2 0.21179158E+03</rscale>
<asrwt>0</asrwt>
<pdfrwt beam="1">  1       21 0.28110295E-01 0.21179158E+03</pdfrwt>
<pdfrwt beam="2">  1       21 0.39041348E-01 0.21179158E+03</pdfrwt>
<totfact> 0.75855059E+04</totfact>
</mgrwt>
</event>
<event>
 4    1  0.3875622E-001  0.3830143E+03  0.7546771E-02  0.1049825E+00
         21   -1    0    0  503  502  0.00000000000E+00  0.00000000000E+00  0.11824949245E+04  0.11824949245E+04  0.00000000000E+00 0. -1.
         21   -1    0    0  501  503 -0.00000000000E+00 -0.00000000000E+00 -0.12519992374E+03  0.12519992374E+03  0.00000000000E+00 0.  1.
          6    1    1    2  501    0 -0.33730860804E+03 -0.54716495837E+02  0.59104471078E+03  0.70429670034E+03  0.17300000000E+03 0. -1.
         -6    1    1    2    0  502  0.33730860804E+03  0.54716495837E+02  0.46625028999E+03  0.60339814790E+03  0.17300000000E+03 0.  1.
<mgrwt>
<rscale>  2 0.38301435E+03</rscale>
<asrwt>0</asrwt>
<pdfrwt beam="1">  1       21 0.18192229E+00 0.38301435E+03</pdfrwt>
<pdfrwt beam="2">  1       21 0.19261527E-01 0.38301435E+03</pdfrwt>
<totfact> 0.38670651E+03</totfact>
</mgrwt>
</event>
<event>
 4    1  0.3875622E-001  0.1946805E+03  0.7546771E-02  0.1154306E+00
         21   -1    0    0  503  502  0.00000000000E+00  0.00000000000E+00  0.36981237028E+02  0.36981237028E+02  0.00000000000E+00 0.  1.
         21   -1    0    0  501  503 -0.00000000000E+00 -0.00000000000E+00 -0.10828575290E+04  0.10828575290E+04  0.00000000000E+00 0.  1.
          6    1    1    2  501    0 -0.45625563448E+02  0.76745082341E+02 -0.39335342814E+03  0.43889340293E+03  0.17300000000E+03 0.  1.
         -6    1    1    2    0  502  0.45625563448E+02 -0.76745082341E+02 -0.65252286382E+03  0.68094536309E+03  0.17300000000E+03 0.  1.
<mgrwt>
<rscale>  2 0.19468051E+03</rscale>
<asrwt>0</asrwt>
<pdfrwt beam="1">  1       21 0.56894216E-02 0.19468051E+03</pdfrwt>
<pdfrwt beam="2">  1       21 0.16659345E+00 0.19468051E+03</pdfrwt>
<totfact> 0.48647005E+04</totfact>
</mgrwt>
</event>
<event>
 4    1  0.3875622E-001  0.1966536E+03  0.7546771E-02  0.1152593E+00
         21   -1    0    0  503  502  0.00000000000E+00  0.00000000000E+00  0.25572606570E+02  0.25572606570E+02  0.00000000000E+00 0.  1.
         21   -1    0    0  501  503 -0.00000000000E+00 -0.00000000000E+00 -0.18583219863E+04  0.18583219863E+04  0.00000000000E+00 0.  1.
          6    1    1    2  501    0 -0.41157843023E+02 -0.83962367994E+02 -0.13228533386E+04  0.13373905947E+04  0.17300000000E+03 0.  1.
         -6    1    1    2    0  502  0.41157843023E+02  0.83962367994E+02 -0.50989604110E+03  0.54650399816E+03  0.17300000000E+03 0.  1.
<mgrwt>
<rscale>  2 0.19665362E+03</rscale>
<asrwt>0</asrwt>
<pdfrwt beam="1">  1       21 0.39342471E-02 0.19665362E+03</pdfrwt>
<pdfrwt beam="2">  1       21 0.28589569E+00 0.19665362E+03</pdfrwt>
<totfact> 0.16514976E+04</totfact>
</mgrwt>
</event>
<event>
 4    1  0.3875622E-001  0.3121181E+03  0.7546771E-02  0.1079335E+00
         21   -1    0    0  501  502  0.00000000000E+00  0.00000000000E+00  0.12017699876E+03  0.12017699876E+03  0.00000000000E+00 0. -1.
         21   -1    0    0  502  503 -0.00000000000E+00 -0.00000000000E+00 -0.10069389928E+04  0.10069389928E+04  0.00000000000E+00 0.  1.
          6    1    1    2  501    0  0.13097644813E+03  0.22435206206E+03 -0.19454108145E+03  0.36778242221E+03  0.17300000000E+03 0. -1.
         -6    1    1    2    0  503 -0.13097644813E+03 -0.22435206206E+03 -0.69222091260E+03  0.75933356936E+03  0.17300000000E+03 0.  1.
<mgrwt>
<rscale>  2 0.31211805E+03</rscale>
<asrwt>0</asrwt>
<pdfrwt beam="1">  1       21 0.18488769E-01 0.31211805E+03</pdfrwt>
<pdfrwt beam="2">  1       21 0.15491370E+00 0.31211805E+03</pdfrwt>
<totfact> 0.67903987E+03</totfact>
</mgrwt>
</event>
<event>
 4    1  0.3875622E-001  0.2220263E+03  0.7546771E-02  0.1132381E+00
         21   -1    0    0  501  502  0.00000000000E+00  0.00000000000E+00  0.51608464008E+03  0.51608464008E+03  0.00000000000E+00 0. -1.
         21   -1    0    0  502  503 -0.00000000000E+00 -0.00000000000E+00 -0.13316264734E+03  0.13316264734E+03  0.00000000000E+00 0. -1.
          6    1    1    2  501    0 -0.14914937085E+02 -0.13836272523E+03  0.36405945213E+03  0.42642113429E+03  0.17300000000E+03 0. -1.
         -6    1    1    2    0  503  0.14914937085E+02  0.13836272523E+03  0.18862540604E+02  0.22282615313E+03  0.17300000000E+03 0. -1.
<mgrwt>
<rscale>  2 0.22202635E+03</rscale>
<asrwt>0</asrwt>
<pdfrwt beam="1">  1       21 0.79397636E-01 0.22202635E+03</pdfrwt>
<pdfrwt beam="2">  1       21 0.20486561E-01 0.22202635E+03</pdfrwt>
<totfact> 0.30389065E+04</totfact>
</mgrwt>
</event>
<event>
 4    1  0.3875622E-001  0.2010466E+03  0.7546771E-02  0.1148859E+00
         21   -1    0    0  501  502  0.00000000000E+00  0.00000000000E+00  0.12925560884E+03  0.12925560884E+03  0.00000000000E+00 0. -1.
         21   -1    0    0  502  503 -0.00000000000E+00 -0.00000000000E+00 -0.31590365654E+03  0.31590365654E+03  0.00000000000E+00 0. -1.
          6    1    1    2  501    0  0.66594641194E+02  0.77819597128E+02 -0.70950245112E+02  0.21319867076E+03  0.17300000000E+03 0. -1.
         -6    1    1    2    0  503 -0.66594641194E+02 -0.77819597128E+02 -0.11569780259E+03  0.23196059462E+03  0.17300000000E+03 0. -1.
<mgrwt>
<rscale>  2 0.20104660E+03</rscale>
<asrwt>0</asrwt>
<pdfrwt beam="1">  1       21 0.19885479E-01 0.20104660E+03</pdfrwt>
<pdfrwt beam="2">  1       21 0.48600562E-01 0.20104660E+03</pdfrwt>
<totfact> 0.93988165E+04</totfact>
</mgrwt>
</event>
<event>
 4    1  0.3875622E-001  0.2394825E+03  0.7546771E-02  0.1120138E+00
         21   -1    0    0  503  502  0.00000000000E+00  0.00000000000E+00  0.53030251709E+03  0.53030251709E+03  0.00000000000E+00 0.  1.
         21   -1    0    0  501  503 -0.00000000000E+00 -0.00000000000E+00 -0.10999614600E+03  0.10999614600E+03  0.00000000000E+00 0.  1.
          6    1    1    2  501    0  0.94487742953E+02  0.13599599712E+03  0.16866929547E+03  0.29291837777E+03  0.17300000000E+03 0.  1.
         -6    1    1    2    0  502 -0.94487742953E+02 -0.13599599712E+03  0.25163707562E+03  0.34738028532E+03  0.17300000000E+03 0.  1.
<mgrwt>
<rscale>  2 0.23948245E+03</rscale>
<asrwt>0</asrwt>
<pdfrwt beam="1">  1       21 0.81585001E-01 0.23948245E+03</pdfrwt>
<pdfrwt beam="2">  1       21 0.16922484E-01 0.23948245E+03</pdfrwt>
<totfact> 0.40451074E+04</totfact>
</mgrwt>
</event>
<event>
 4    1  0.3875622E-001  0.1757580E+03  0.7546771E-02  0.1171973E+00
         21   -1    0    0  501  502  0.00000000000E+00  0.00000000000E+00  0.75147414345E+02  0.75147414345E+02  0.00000000000E+00 0.  1.
         21   -1    0    0  502  503 -0.00000000000E+00 -0.00000000000E+00 -0.41111032931E+03  0.41111032931E+03  0.00000000000E+00 0.  1.
          6    1    1    2  501    0  0.22451989175E+02  0.21395713111E+02 -0.16558165017E+03  0.24147080823E+03  0.17300000000E+03 0.  1.
         -6    1    1    2    0  503 -0.22451989175E+02 -0.21395713111E+02 -0.17038126480E+03  0.24478693542E+03  0.17300000000E+03 0.  1.
<mgrwt>
<rscale>  2 0.17575798E+03</rscale>
<asrwt>0</asrwt>
<pdfrwt beam="1">  1       21 0.11561140E-01 0.17575798E+03</pdfrwt>
<pdfrwt beam="2">  1       21 0.63247744E-01 0.17575798E+03</pdfrwt>
<totfact> 0.14588807E+05</totfact>
</mgrwt>
</event>
<event>
 4    1  0.3875622E-001  0.2378542E+03  0.7546771E-02  0.1121231E+00
         21   -1    0    0  503  502  0.00000000000E+00  0.00000000000E+00  0.19331695193E+03  0.19331695193E+03  0.00000000000E+00 0. -1.
         21   -1    0    0  501  503 -0.00000000000E+00 -0.00000000000E+00 -0.29452601940E+03  0.29452601940E+03  0.00000000000E+00 0.  1.
          6    1    1    2  501    0  0.87131622082E+02  0.13803509461E+03 -0.70061122351E+02  0.24795799599E+03  0.17300000000E+03 0.  1.
         -6    1    1    2    0  502 -0.87131622082E+02 -0.13803509461E+03 -0.31147945114E+02  0.23988497534E+03  0.17300000000E+03 0. -1.
<mgrwt>
<rscale>  2 0.23785417E+03</rscale>
<asrwt>0</asrwt>
<pdfrwt beam="1">  1       21 0.29741070E-01 0.23785417E+03</pdfrwt>
<pdfrwt beam="2">  1       21 0.45311695E-01 0.23785417E+03</pdfrwt>
<totfact> 0.49597854E+04</totfact>
</mgrwt>
</event>
<event>
 4    1  0.3875622E-001  0.2063922E+03  0.7546771E-02  0.1144455E+00
         21   -1    0    0  503  502  0.00000000000E+00  0.00000000000E+00  0.22675790029E+03  0.22675790029E+03  0.00000000000E+00 0.  1.
         21   -1    0    0  501  503 -0.00000000000E+00 -0.00000000000E+00 -0.18858093544E+03  0.18858093544E+03  0.00000000000E+00 0.  1.
          6    1    1    2  501    0 -0.63119289579E+02  0.93191664826E+02  0.62087541092E+01  0.20648554365E+03  0.17300000000E+03 0. -1.
         -6    1    1    2    0  502  0.63119289579E+02 -0.93191664826E+02  0.31968210741E+02  0.20885329207E+03  0.17300000000E+03 0. -1.
<mgrwt>
<rscale>  2 0.20639218E+03</rscale>
<asrwt>0</asrwt>
<pdfrwt beam="1">  1       21 0.34885831E-01 0.20639218E+03</pdfrwt>
<pdfrwt beam="2">  1       21 0.29012452E-01 0.20639218E+03</pdfrwt>
<totfact> 0.89570147E+04</totfact>
</mgrwt>
</event>
<event>
 4    1  0.3875622E-001  0.1841473E+03  0.7546771E-02  0.1163849E+00
         21   -1    0    0  501  502  0.00000000000E+00  0.00000000000E+00  0.18267856896E+03  0.18267856896E+03  0.00000000000E+00 0.  1.
         21   -1    0    0  502  503 -0.00000000000E+00 -0.00000000000E+00 -0.18648263483E+03  0.18648263483E+03  0.00000000000E+00 0.  1.
          6    1    1    2  501    0 -0.43877001300E+02 -0.45343508307E+02 -0.14398931002E+02  0.18470937768E+03  0.17300000000E+03 0.  1.
         -6    1    1    2    0  503  0.43877001300E+02  0.45343508307E+02  0.10594865134E+02  0.18445182611E+03  0.17300000000E+03 0.  1.
<mgrwt>
<rscale>  2 0.18414729E+03</rscale>
<asrwt>0</asrwt>
<pdfrwt beam="1">  1       21 0.28104395E-01 0.18414729E+03</pdfrwt>
<pdfrwt beam="2">  1       21 0.28689636E-01 0.18414729E+03</pdfrwt>
<totfact> 0.14098273E+05</totfact>
</mgrwt>
</event>
<event>
 4    1  0.3875622E-001  0.2656734E+03  0.7546771E-02  0.1103782E+00
         21   -1    0    0  501  502  0.00000000000E+00  0.00000000000E+00  0.80486147849E+03  0.80486147849E+03  0.00000000000E+00 0. -1.
         21   -1    0    0  502  503 -0.00000000000E+00 -0.00000000000E+00 -0.87696457616E+02  0.87696457616E+02  0.00000000000E+00 0.  1.
          6    1    1    2  501    0  0.99123656087E+02  0.17557869068E+03  0.36036397291E+03  0.44771036261E+03  0.17300000000E+03 0.  1.
         -6    1    1    2    0  503 -0.99123656087E+02 -0.17557869068E+03  0.35680104796E+03  0.44484757349E+03  0.17300000000E+03 0. -1.
<mgrwt>
<rscale>  2 0.26567344E+03</rscale>
<asrwt>0</asrwt>
<pdfrwt beam="1">  1       21 0.12382484E+00 0.26567344E+03</pdfrwt>
<pdfrwt beam="2">  1       21 0.13491763E-01 0.26567344E+03</pdfrwt>
<totfact> 0.22300502E+04</totfact>
</mgrwt>
</event>
<event>
 4    1  0.3875622E-001  0.1801090E+03  0.7546771E-02  0.1167698E+00
         21   -1    0    0  501  502  0.00000000000E+00  0.00000000000E+00  0.33283409128E+02  0.33283409128E+02  0.00000000000E+00 0.  1.
         21   -1    0    0  502  503 -0.00000000000E+00 -0.00000000000E+00 -0.11736200797E+04  0.11736200797E+04  0.00000000000E+00 0.  1.
          6    1    1    2  501    0 -0.16641983576E+02 -0.47257658750E+02 -0.32169095557E+03  0.36867914617E+03  0.17300000000E+03 0.  1.
         -6    1    1    2    0  503  0.16641983576E+02  0.47257658750E+02 -0.81864571503E+03  0.83822434268E+03  0.17300000000E+03 0.  1.
<mgrwt>
<rscale>  2 0.18010897E+03</rscale>
<asrwt>0</asrwt>
<pdfrwt beam="1">  1       21 0.51205246E-02 0.18010897E+03</pdfrwt>
<pdfrwt beam="2">  1       21 0.18055693E+00 0.18010897E+03</pdfrwt>
<totfact> 0.46966258E+04</totfact>
</mgrwt>
</event>
<event>
 4    1  0.3875622E-001  0.1823300E+03  0.7546771E-02  0.1165567E+00
         21   -1    0    0  503  502  0.00000000000E+00  0.00000000000E+00  0.12972654533E+03  0.12972654533E+03  0.00000000000E+00 0.  1.
         21   -1    0    0  501  503 -0.00000000000E+00 -0.00000000000E+00 -0.27762242761E+03  0.27762242761E+03  0.00000000000E+00 0.  1.
          6    1    1    2  501    0 -0.32475008746E+02 -0.47545693586E+02 -0.13044110457E+03  0.22418541641E+03  0.17300000000E+03 0.  1.
         -6    1    1    2    0  502  0.32475008746E+02  0.47545693586E+02 -0.17454777712E+02  0.18316355652E+03  0.17300000000E+03 0.  1.
<mgrwt>
<rscale>  2 0.18232997E+03</rscale>
<asrwt>0</asrwt>
<pdfrwt beam="1">  1       21 0.19957930E-01 0.18232997E+03</pdfrwt>
<pdfrwt beam="2">  1       21 0.42711142E-01 0.18232997E+03</pdfrwt>
<totfact> 0.12263318E+05</totfact>
</mgrwt>
</event>
<event>
 4    1  0.3875622E-001  0.2280306E+03  0.7546771E-02  0.1128034E+00
         21   -1    0    0  503  502  0.00000000000E+00  0.00000000000E+00  0.17722179928E+03  0.17722179928E+03  0.00000000000E+00 0. -1.
         21   -1    0    0  501  503 -0.00000000000E+00 -0.00000000000E+00 -0.30625441257E+03  0.30625441257E+03  0.00000000000E+00 0. -1.
          6    1    1    2  501    0  0.14429322910E+03 -0.35333166904E+02 -0.11403006238E+03  0.25495259123E+03  0.17300000000E+03 0. -1.
         -6    1    1    2    0  502 -0.14429322910E+03  0.35333166904E+02 -0.15002550904E+02  0.22852362062E+03  0.17300000000E+03 0. -1.
<mgrwt>
<rscale>  2 0.22803063E+03</rscale>
<asrwt>0</asrwt>
<pdfrwt beam="1">  1       21 0.27264892E-01 0.22803063E+03</pdfrwt>
<pdfrwt beam="2">  1       21 0.47116064E-01 0.22803063E+03</pdfrwt>
<totfact> 0.54401491E+04</totfact>
</mgrwt>
</event>
<event>
 4    1  0.3875622E-001  0.2016562E+03  0.7546771E-02  0.1148349E+00
         21   -1    0    0  503  502  0.00000000000E+00  0.00000000000E+00  0.38695506958E+02  0.38695506958E+02  0.00000000000E+00 0.  1.
         21   -1    0    0  501  503 -0.00000000000E+00 -0.00000000000E+00 -0.11073544669E+04  0.11073544669E+04  0.00000000000E+00 0.  1.
          6    1    1    2  501    0  0.80532853897E+02  0.65197327416E+02 -0.66370945955E+03  0.69366813302E+03  0.17300000000E+03 0.  1.
         -6    1    1    2    0  502 -0.80532853897E+02 -0.65197327416E+02 -0.40494950037E+03  0.45238184082E+03  0.17300000000E+03 0.  1.
<mgrwt>
<rscale>  2 0.20165622E+03</rscale>
<asrwt>0</asrwt>
<pdfrwt beam="1">  1       21 0.59531557E-02 0.20165622E+03</pdfrwt>
<pdfrwt beam="2">  1       21 0.17036220E+00 0.20165622E+03</pdfrwt>
<totfact> 0.42157005E+04</totfact>
</mgrwt>
</event>
<event>
 4    1  0.3875622E-001  0.2406573E+03  0.7546771E-02  0.1119356E+00
         21   -1    0    0  501  502  0.00000000000E+00  0.00000000000E+00  0.23265930061E+03  0.23265930061E+03  0.00000000000E+00 0. -1.
         21   -1    0    0  502  503 -0.00000000000E+00 -0.00000000000E+00 -0.24903335194E+03  0.24903335194E+03  0.00000000000E+00 0. -1.
          6    1    1    2  501    0 -0.14460614133E+03  0.84118907872E+02 -0.32853442067E+01  0.24067970471E+03  0.17300000000E+03 0. -1.
         -6    1    1    2    0  503  0.14460614133E+03 -0.84118907872E+02 -0.13088707130E+02  0.24101294784E+03  0.17300000000E+03 0. -1.
<mgrwt>
<rscale>  2 0.24065728E+03</rscale>
<asrwt>0</asrwt>
<pdfrwt beam="1">  1       21 0.35793739E-01 0.24065728E+03</pdfrwt>
<pdfrwt beam="2">  1       21 0.38312823E-01 0.24065728E+03</pdfrwt>
<totfact> 0.48374205E+04</totfact>
</mgrwt>
</event>
<event>
 4    1  0.3875622E-001  0.1749110E+03  0.7546771E-02  0.1172821E+00
         21   -1    0    0  503  502  0.00000000000E+00  0.00000000000E+00  0.15265460651E+03  0.15265460651E+03  0.00000000000E+00 0.  1.
         21   -1    0    0  501  503 -0.00000000000E+00 -0.00000000000E+00 -0.30016311631E+03  0.30016311631E+03  0.00000000000E+00 0.  1.
          6    1    1    2  501    0 -0.23589122308E+02 -0.10411781750E+02 -0.20427306749E+03  0.26892626869E+03  0.17300000000E+03 0. -1.
         -6    1    1    2    0  502  0.23589122308E+02  0.10411781750E+02  0.56764557693E+02  0.18389145413E+03  0.17300000000E+03 0. -1.
<mgrwt>
<rscale>  2 0.17491098E+03</rscale>
<asrwt>0</asrwt>
<pdfrwt beam="1">  1       21 0.23485324E-01 0.17491098E+03</pdfrwt>
<pdfrwt beam="2">  1       21 0.46178941E-01 0.17491098E+03</pdfrwt>
<totfact> 0.77220294E+04</totfact>
</mgrwt>
</event>
<event>
 4    1  0.3875622E-001  0.1751001E+03  0.7546771E-02  0.1172631E+00
         21   -1    0    0  501  502  0.00000000000E+00  0.00000000000E+00  0.96831237621E+02  0.96831237621E+02  0.00000000000E+00 0.  1.
         21   -1    0    0  502  503 -0.00000000000E+00 -0.00000000000E+00 -0.34800359502E+03  0.34800359502E+03  0.00000000000E+00 0.  1.
          6    1    1    2  501    0 -0.26632185465E+02 -0.46670144734E+01 -0.58808404774E+02  0.18471189133E+03  0.17300000000E+03 0.  1.
         -6    1    1    2    0  503  0.26632185465E+02  0.46670144734E+01 -0.19236395263E+03  0.26012294131E+03  0.17300000000E+03 0.  1.
<mgrwt>
<rscale>  2 0.17510013E+03</rscale>
<asrwt>0</asrwt>
<pdfrwt beam="1">  1       21 0.14897113E-01 0.17510013E+03</pdfrwt>
<pdfrwt beam="2">  1       21 0.53539015E-01 0.17510013E+03</pdfrwt>
<totfact> 0.13195054E+05</totfact>
</mgrwt>
</event>
<event>
 4    1  0.3875622E-001  0.1877157E+03  0.7546771E-02  0.1160538E+00
         21   -1    0    0  501  502  0.00000000000E+00  0.00000000000E+00  0.33007013966E+03  0.33007013966E+03  0.00000000000E+00 0. -1.
         21   -1    0    0  502  503 -0.00000000000E+00 -0.00000000000E+00 -0.12862944960E+03  0.12862944960E+03  0.00000000000E+00 0. -1.
          6    1    1    2  501    0 -0.49587882818E+02 -0.53378049063E+02  0.19529626652E+03  0.27088338074E+03  0.17300000000E+03 0. -1.
         -6    1    1    2    0  503  0.49587882818E+02  0.53378049063E+02  0.61444235379E+01  0.18781620853E+03  0.17300000000E+03 0. -1.
<mgrwt>
<rscale>  2 0.18771567E+03</rscale>
<asrwt>0</asrwt>
<pdfrwt beam="1">  1       21 0.50780021E-01 0.18771567E+03</pdfrwt>
<pdfrwt beam="2">  1       21 0.19789146E-01 0.18771567E+03</pdfrwt>
<totfact> 0.87031838E+04</totfact>
</mgrwt>
</event>
<event>
 4    1  0.3875622E-001  0.1803924E+03  0.7546771E-02  0.1167424E+00
         21   -1    0    0  503  502  0.00000000000E+00  0.00000000000E+00  0.10535508019E+04  0.10535508019E+04  0.00000000000E+00 0. -1.
         21   -1    0    0  501  503 -0.00000000000E+00 -0.00000000000E+00 -0.38322770630E+02  0.38322770630E+02  0.00000000000E+00 0. -1.
          6    1    1    2  501    0 -0.18274403783E+02  0.47733147301E+02  0.26714104460E+03  0.32234414047E+03  0.17300000000E+03 0. -1.
         -6    1    1    2    0  502  0.18274403783E+02 -0.47733147301E+02  0.74808698669E+03  0.76952943208E+03  0.17300000000E+03 0. -1.
<mgrwt>
<rscale>  2 0.18039237E+03</rscale>
<asrwt>0</asrwt>
<pdfrwt beam="1">  1       21 0.16208472E+00 0.18039237E+03</pdfrwt>
<pdfrwt beam="2">  1       21 0.58958117E-02 0.18039237E+03</pdfrwt>
<totfact> 0.49734603E+04</totfact>
</mgrwt>
</event>
<event>
 4    1  0.3875622E-001  0.1929112E+03  0.7546771E-02  0.1155862E+00
         21   -1    0    0  501  502  0.00000000000E+00  0.00000000000E+00  0.77078930962E+02  0.77078930962E+02  0.00000000000E+00 0. -1.
         21   -1    0    0  502  503 -0.00000000000E+00 -0.00000000000E+00 -0.54882840318E+03  0.54882840318E+03  0.00000000000E+00 0. -1.
          6    1    1    2  501    0  0.78330888378E+02 -0.33911656729E+02 -0.34441318224E+03  0.39475963400E+03  0.17300000000E+03 0. -1.
         -6    1    1    2    0  503 -0.78330888378E+02  0.33911656729E+02 -0.12733628998E+03  0.23114770015E+03  0.17300000000E+03 0. -1.
<mgrwt>
<rscale>  2 0.19291119E+03</rscale>
<asrwt>0</asrwt>
<pdfrwt beam="1">  1       21 0.11858297E-01 0.19291119E+03</pdfrwt>
<pdfrwt beam="2">  1       21 0.84435138E-01 0.19291119E+03</pdfrwt>
<totfact> 0.72925212E+04</totfact>
</mgrwt>
</event>
<event>
 4    1  0.3875622E-001  0.3535253E+03  0.7546771E-02  0.1061177E+00
         21   -1    0    0  501  502  0.00000000000E+00  0.00000000000E+00  0.39002410901E+03  0.39002410901E+03  0.00000000000E+00 0.  1.
         21   -1    0    0  502  503 -0.00000000000E+00 -0.00000000000E+00 -0.32438603610E+03  0.32438603610E+03  0.00000000000E+00 0. -1.
          6    1    1    2  501    0  0.27769093456E+03  0.13393598553E+03  0.72206434387E+02  0.36082388020E+03  0.17300000000E+03 0.  1.
         -6    1    1    2    0  503 -0.27769093456E+03 -0.13393598553E+03 -0.65683614787E+01  0.35358626491E+03  0.17300000000E+03 0. -1.
<mgrwt>
<rscale>  2 0.35352525E+03</rscale>
<asrwt>0</asrwt>
<pdfrwt beam="1">  1       21 0.60003709E-01 0.35352525E+03</pdfrwt>
<pdfrwt beam="2">  1       21 0.49905544E-01 0.35352525E+03</pdfrwt>
<totfact> 0.91168082E+03</totfact>
</mgrwt>
</event>
<event>
 4    1  0.3875622E-001  0.2277043E+03  0.7546771E-02  0.1128266E+00
         21   -1    0    0  501  502  0.00000000000E+00  0.00000000000E+00  0.96815160952E+03  0.96815160952E+03  0.00000000000E+00 0.  1.
         21   -1    0    0  502  503 -0.00000000000E+00 -0.00000000000E+00 -0.56344824334E+02  0.56344824334E+02  0.00000000000E+00 0.  1.
          6    1    1    2  501    0  0.14644568109E+03  0.21769397972E+02  0.56988929329E+03  0.61369622029E+03  0.17300000000E+03 0.  1.
         -6    1    1    2    0  503 -0.14644568109E+03 -0.21769397972E+02  0.34191749190E+03  0.41080021356E+03  0.17300000000E+03 0.  1.
<mgrwt>
<rscale>  2 0.22770429E+03</rscale>
<asrwt>0</asrwt>
<pdfrwt beam="1">  1       21 0.14894639E+00 0.22770429E+03</pdfrwt>
<pdfrwt beam="2">  1       21 0.86684352E-02 0.22770429E+03</pdfrwt>
<totfact> 0.31111008E+04</totfact>
</mgrwt>
</event>
<event>
 4    1  0.3875622E-001  0.4587234E+03  0.7546771E-02  0.1025152E+00
         21   -1    0    0  503  502  0.00000000000E+00  0.00000000000E+00  0.79663792273E+03  0.79663792273E+03  0.00000000000E+00 0. -1.
         21   -1    0    0  501  503 -0.00000000000E+00 -0.00000000000E+00 -0.29134496371E+03  0.29134496371E+03  0.00000000000E+00 0.  1.
          6    1    1    2  501    0 -0.24833158314E+03  0.34471667304E+03  0.86427683665E+02  0.46679428485E+03  0.17300000000E+03 0.  1.
         -6    1    1    2    0  502  0.24833158314E+03 -0.34471667304E+03  0.41886527536E+03  0.62118860160E+03  0.17300000000E+03 0. -1.
<mgrwt>
<rscale>  2 0.45872340E+03</rscale>
<asrwt>0</asrwt>
<pdfrwt beam="1">  1       21 0.12255968E+00 0.45872340E+03</pdfrwt>
<pdfrwt beam="2">  1       21 0.44822302E-01 0.45872340E+03</pdfrwt>
<totfact> 0.20537916E+03</totfact>
</mgrwt>
</event>
<event>
 4    1  0.3875622E-001  0.1810133E+03  0.7546771E-02  0.1166826E+00
         21   -1    0    0  501  502  0.00000000000E+00  0.00000000000E+00  0.25200324877E+04  0.25200324877E+04  0.00000000000E+00 0. -1.
         21   -1    0    0  502  503 -0.00000000000E+00 -0.00000000000E+00 -0.14930240503E+02  0.14930240503E+02  0.00000000000E+00 0. -1.
          6    1    1    2  501    0  0.18711077851E+02 -0.49866766272E+02  0.17080357756E+04  0.17176006548E+04  0.17300000000E+03 0. -1.
         -6    1    1    2    0  503 -0.18711077851E+02  0.49866766272E+02  0.79706647163E+03  0.81736207338E+03  0.17300000000E+03 0. -1.
<mgrwt>
<rscale>  2 0.18101326E+03</rscale>
<asrwt>0</asrwt>
<pdfrwt beam="1">  1       21 0.38769697E+00 0.18101326E+03</pdfrwt>
<pdfrwt beam="2">  1       21 0.22969621E-02 0.18101326E+03</pdfrwt>
<totfact> 0.10347148E+04</totfact>
</mgrwt>
</event>
<event>
 4    1  0.3875622E-001  0.1852461E+03  0.7546771E-02  0.1162820E+00
         21   -1    0    0  503  502  0.00000000000E+00  0.00000000000E+00  0.60405256026E+02  0.60405256026E+02  0.00000000000E+00 0.  1.
         21   -1    0    0  501  503 -0.00000000000E+00 -0.00000000000E+00 -0.59577474131E+03  0.59577474131E+03  0.00000000000E+00 0.  1.
          6    1    1    2  501    0  0.49945895891E+02  0.43503261424E+02 -0.33839895050E+03  0.38578488302E+03  0.17300000000E+03 0.  1.
         -6    1    1    2    0  502 -0.49945895891E+02 -0.43503261424E+02 -0.19697053479E+03  0.27039511432E+03  0.17300000000E+03 0.  1.
<mgrwt>
<rscale>  2 0.18524612E+03</rscale>
<asrwt>0</asrwt>
<pdfrwt beam="1">  1       21 0.92931166E-02 0.18524612E+03</pdfrwt>
<pdfrwt beam="2">  1       21 0.91657649E-01 0.18524612E+03</pdfrwt>
<totfact> 0.93269987E+04</totfact>
</mgrwt>
</event>
<event>
 4    1  0.3875622E-001  0.2634971E+03  0.7546771E-02  0.1105060E+00
         21   -1    0    0  503  502  0.00000000000E+00  0.00000000000E+00  0.22919818265E+03  0.22919818265E+03  0.00000000000E+00 0. -1.
         21   -1    0    0  501  503 -0.00000000000E+00 -0.00000000000E+00 -0.57415450352E+03  0.57415450352E+03  0.00000000000E+00 0. -1.
          6    1    1    2  501    0 -0.50021428111E+02  0.19235275727E+03 -0.44855330140E+03  0.52022186680E+03  0.17300000000E+03 0. -1.
         -6    1    1    2    0  502  0.50021428111E+02 -0.19235275727E+03  0.10359698054E+03  0.28313081937E+03  0.17300000000E+03 0. -1.
<mgrwt>
<rscale>  2 0.26349711E+03</rscale>
<asrwt>0</asrwt>
<pdfrwt beam="1">  1       21 0.35261259E-01 0.26349711E+03</pdfrwt>
<pdfrwt beam="2">  1       21 0.88331462E-01 0.26349711E+03</pdfrwt>
<totfact> 0.81318674E+03</totfact>
</mgrwt>
</event>
<event>
 4    1  0.3875622E-001  0.2145172E+03  0.7546771E-02  0.1138038E+00
         21   -1    0    0  501  502  0.00000000000E+00  0.00000000000E+00  0.27237509044E+03  0.27237509044E+03  0.00000000000E+00 0. -1.
         21   -1    0    0  502  503 -0.00000000000E+00 -0.00000000000E+00 -0.17319927865E+03  0.17319927865E+03  0.00000000000E+00 0. -1.
          6    1    1    2  501    0 -0.11433027002E+03  0.54929074636E+02  0.84486211902E+02  0.23055483921E+03  0.17300000000E+03 0. -1.
         -6    1    1    2    0  503  0.11433027002E+03 -0.54929074636E+02  0.14689599892E+02  0.21501952987E+03  0.17300000000E+03 0. -1.
<mgrwt>
<rscale>  2 0.21451716E+03</rscale>
<asrwt>0</asrwt>
<pdfrwt beam="1">  1       21 0.41903860E-01 0.21451716E+03</pdfrwt>
<pdfrwt beam="2">  1       21 0.26646043E-01 0.21451716E+03</pdfrwt>
<totfact> 0.72789612E+04</totfact>
</mgrwt>
</event>
<event>
 4    1  0.3875622E-001  0.2013134E+03  0.7546771E-02  0.1148636E+00
         21   -1    0    0  501  502  0.00000000000E+00  0.00000000000E+00  0.18727114758E+02  0.18727114758E+02  0.00000000000E+00 0.  1.
         21   -1    0    0  502  503 -0.00000000000E+00 -0.00000000000E+00 -0.21769532001E+04  0.21769532001E+04  0.00000000000E+00 0.  1.
          6    1    1    2  501    0  0.27157067936E+02  0.99300413168E+02 -0.11635172761E+04  0.11808046113E+04  0.17300000000E+03 0.  1.
         -6    1    1    2    0  503 -0.27157067936E+02 -0.99300413168E+02 -0.99470880924E+03  0.10148757035E+04  0.17300000000E+03 0.  1.
<mgrwt>
<rscale>  2 0.20131338E+03</rscale>
<asrwt>0</asrwt>
<pdfrwt beam="1">  1       21 0.28810948E-02 0.20131338E+03</pdfrwt>
<pdfrwt beam="2">  1       21 0.33491585E+00 0.20131338E+03</pdfrwt>
<totfact> 0.14366586E+04</totfact>
</mgrwt>
</event>
<event>
 4    1  0.3875622E-001  0.2034984E+03  0.7546771E-02  0.1146821E+00
         21   -1    0    0  503  502  0.00000000000E+00  0.00000000000E+00  0.31423439236E+03  0.31423439236E+03  0.00000000000E+00 0.  1.
         21   -1    0    0  501  503 -0.00000000000E+00 -0.00000000000E+00 -0.14511399257E+03  0.14511399257E+03  0.00000000000E+00 0.  1.
          6    1    1    2  501    0 -0.10132229526E+03 -0.34876961005E+02  0.14954586736E+02  0.20404717491E+03  0.17300000000E+03 0.  1.
         -6    1    1    2    0  502  0.10132229526E+03  0.34876961005E+02  0.15416581305E+03  0.25530121002E+03  0.17300000000E+03 0.  1.
<mgrwt>
<rscale>  2 0.20349843E+03</rscale>
<asrwt>0</asrwt>
<pdfrwt beam="1">  1       21 0.48343753E-01 0.20349843E+03</pdfrwt>
<pdfrwt beam="2">  1       21 0.22325230E-01 0.20349843E+03</pdfrwt>
<totfact> 0.76374575E+04</totfact>
</mgrwt>
</event>
<event>
 4    1  0.3875622E-001  0.1845143E+03  0.7546771E-02  0.1163504E+00
         21   -1    0    0  503  502  0.00000000000E+00  0.00000000000E+00  0.15566037300E+04  0.15566037300E+04  0.00000000000E+00 0. -1.
         21   -1    0    0  501  503 -0.00000000000E+00 -0.00000000000E+00 -0.21907359681E+02  0.21907359681E+02  0.00000000000E+00 0. -1.
          6    1    1    2  501    0  0.87287555950E+01 -0.63563569797E+02  0.79920568104E+03  0.82022877247E+03  0.17300000000E+03 0. -1.
         -6    1    1    2    0  502 -0.87287555950E+01  0.63563569797E+02  0.73549068929E+03  0.75828231722E+03  0.17300000000E+03 0. -1.
<mgrwt>
<rscale>  2 0.18451428E+03</rscale>
<asrwt>0</asrwt>
<pdfrwt beam="1">  1       21 0.23947741E+00 0.18451428E+03</pdfrwt>
<pdfrwt beam="2">  1       21 0.33703642E-02 0.18451428E+03</pdfrwt>
<totfact> 0.40278694E+04</totfact>
</mgrwt>
</event>
<event>
 4    1  0.3875622E-001  0.2349315E+03  0.7546771E-02  0.1123216E+00
         21   -1    0    0  503  502  0.00000000000E+00  0.00000000000E+00  0.15863095902E+03  0.15863095902E+03  0.00000000000E+00 0. -1.
         21   -1    0    0  501  503 -0.00000000000E+00 -0.00000000000E+00 -0.35500909912E+03  0.35500909912E+03  0.00000000000E+00 0.  1.
          6    1    1    2  501    0  0.94648724695E+02 -0.12769266518E+03 -0.13444964290E+03  0.27068340234E+03  0.17300000000E+03 0. -1.
         -6    1    1    2    0  502 -0.94648724695E+02  0.12769266518E+03 -0.61928497196E+02  0.24295665579E+03  0.17300000000E+03 0. -1.
<mgrwt>
<rscale>  2 0.23493147E+03</rscale>
<asrwt>0</asrwt>
<pdfrwt beam="1">  1       21 0.24404763E-01 0.23493147E+03</pdfrwt>
<pdfrwt beam="2">  1       21 0.54616784E-01 0.23493147E+03</pdfrwt>
<totfact> 0.49231591E+04</totfact>
</mgrwt>
</event>
<event>
 4    1  0.3875622E-001  0.2235563E+03  0.7546771E-02  0.1131259E+00
         21   -1    0    0  501  502  0.00000000000E+00  0.00000000000E+00  0.12787037379E+04  0.12787037379E+04  0.00000000000E+00 0.  1.
         21   -1    0    0  502  503 -0.00000000000E+00 -0.00000000000E+00 -0.39240106204E+02  0.39240106204E+02  0.00000000000E+00 0. -1.
          6    1    1    2  501    0 -0.14097792832E+03  0.13176677294E+02  0.66123859999E+03  0.69800708250E+03  0.17300000000E+03 0. -1.
         -6    1    1    2    0  503  0.14097792832E+03 -0.13176677294E+02  0.57822503167E+03  0.61993676157E+03  0.17300000000E+03 0.  1.
<mgrwt>
<rscale>  2 0.22355626E+03</rscale>
<asrwt>0</asrwt>
<pdfrwt beam="1">  1       21 0.19672362E+00 0.22355626E+03</pdfrwt>
<pdfrwt beam="2">  1       21 0.60369404E-02 0.22355626E+03</pdfrwt>
<totfact> 0.26923625E+04</totfact>
</mgrwt>
</event>
<event>
 4    1  0.3875622E-001  0.2251299E+03  0.7546771E-02  0.1130115E+00
         21   -1    0    0  501  502  0.00000000000E+00  0.00000000000E+00  0.49348783617E+03  0.49348783617E+03  0.00000000000E+00 0. -1.
         21   -1    0    0  502  503 -0.00000000000E+00 -0.00000000000E+00 -0.13215054085E+03  0.13215054085E+03  0.00000000000E+00 0. -1.
          6    1    1    2  501    0  0.53080238050E+02 -0.13392899706E+03  0.33005754025E+02  0.22753651954E+03  0.17300000000E+03 0. -1.
         -6    1    1    2    0  503 -0.53080238050E+02  0.13392899706E+03  0.32833154130E+03  0.39810185749E+03  0.17300000000E+03 0. -1.
<mgrwt>
<rscale>  2 0.22512994E+03</rscale>
<asrwt>0</asrwt>
<pdfrwt beam="1">  1       21 0.75921205E-01 0.22512994E+03</pdfrwt>
<pdfrwt beam="2">  1       21 0.20330853E-01 0.22512994E+03</pdfrwt>
<totfact> 0.34051912E+04</totfact>
</mgrwt>
</event>
<event>
 4    1  0.3875622E-001  0.2038590E+03  0.7546771E-02  0.1146523E+00
         21   -1    0    0  501  502  0.00000000000E+00  0.00000000000E+00  0.22696954795E+03  0.22696954795E+03  0.00000000000E+00 0.  1.
         21   -1    0    0  502  503 -0.00000000000E+00 -0.00000000000E+00 -0.20498771933E+03  0.20498771933E+03  0.00000000000E+00 0.  1.
          6    1    1    2  501    0 -0.53453081386E+02 -0.93660393629E+02  0.81562624657E+02  0.21956995010E+03  0.17300000000E+03 0.  1.
         -6    1    1    2    0  503  0.53453081386E+02  0.93660393629E+02 -0.59580796031E+02  0.21238731718E+03  0.17300000000E+03 0.  1.
<mgrwt>
<rscale>  2 0.20385902E+03</rscale>
<asrwt>0</asrwt>
<pdfrwt beam="1">  1       21 0.34918392E-01 0.20385902E+03</pdfrwt>
<pdfrwt beam="2">  1       21 0.31536572E-01 0.20385902E+03</pdfrwt>
<totfact> 0.76038440E+04</totfact>
</mgrwt>
</event>
<event>
 4    1  0.3875622E-001  0.1749492E+03  0.7546771E-02  0.1172783E+00
         21   -1    0    0  503  502  0.00000000000E+00  0.00000000000E+00  0.21949465055E+02  0.21949465055E+02  0.00000000000E+00 0. -1.
         21   -1    0    0  501  503 -0.00000000000E+00 -0.00000000000E+00 -0.14806806462E+04  0.14806806462E+04  0.00000000000E+00 0. -1.
          6    1    1    2  501    0 -0.17645976114E+02 -0.19153461002E+02 -0.91068516804E+03  0.92733743094E+03  0.17300000000E+03 0. -1.
         -6    1    1    2    0  502  0.17645976114E+02  0.19153461002E+02 -0.54804601315E+03  0.57529268035E+03  0.17300000000E+03 0. -1.
<mgrwt>
<rscale>  2 0.17494924E+03</rscale>
<asrwt>0</asrwt>
<pdfrwt beam="1">  1       21 0.33768393E-02 0.17494924E+03</pdfrwt>
<pdfrwt beam="2">  1       21 0.22779712E+00 0.17494924E+03</pdfrwt>
<totfact> 0.47504968E+04</totfact>
</mgrwt>
</event>
<event>
 4    1  0.3875622E-001  0.1899352E+03  0.7546771E-02  0.1158520E+00
         21   -1    0    0  503  502  0.00000000000E+00  0.00000000000E+00  0.30621612333E+02  0.30621612333E+02  0.00000000000E+00 0.  1.
         21   -1    0    0  501  503 -0.00000000000E+00 -0.00000000000E+00 -0.11801214769E+04  0.11801214769E+04  0.00000000000E+00 0.  1.
          6    1    1    2  501    0  0.38699207263E+01  0.78303377699E+02 -0.59978992202E+03  0.62914493227E+03  0.17300000000E+03 0.  1.
         -6    1    1    2    0  502 -0.38699207263E+01 -0.78303377699E+02 -0.54970994254E+03  0.58159815695E+03  0.17300000000E+03 0.  1.
<mgrwt>
<rscale>  2 0.18993524E+03</rscale>
<asrwt>0</asrwt>
<pdfrwt beam="1">  1       21 0.47110174E-02 0.18993524E+03</pdfrwt>
<pdfrwt beam="2">  1       21 0.18155715E+00 0.18993524E+03</pdfrwt>
<totfact> 0.52921629E+04</totfact>
</mgrwt>
</event>
<event>
 4    1  0.3875622E-001  0.2256427E+03  0.7546771E-02  0.1129745E+00
         21   -1    0    0  503  502  0.00000000000E+00  0.00000000000E+00  0.42082003309E+02  0.42082003309E+02  0.00000000000E+00 0. -1.
         21   -1    0    0  501  503 -0.00000000000E+00 -0.00000000000E+00 -0.12671348484E+04  0.12671348484E+04  0.00000000000E+00 0. -1.
          6    1    1    2  501    0 -0.13399111779E+03 -0.55063761452E+02 -0.47339201327E+03  0.52441837849E+03  0.17300000000E+03 0. -1.
         -6    1    1    2    0  502  0.13399111779E+03  0.55063761452E+02 -0.75166083186E+03  0.78479847325E+03  0.17300000000E+03 0. -1.
<mgrwt>
<rscale>  2 0.22564272E+03</rscale>
<asrwt>0</asrwt>
<pdfrwt beam="1">  1       21 0.64741555E-02 0.22564272E+03</pdfrwt>
<pdfrwt beam="2">  1       21 0.19494379E+00 0.22564272E+03</pdfrwt>
<totfact> 0.24484767E+04</totfact>
</mgrwt>
</event>
<event>
 4    1  0.3875622E-001  0.1774210E+03  0.7546771E-02  0.1170323E+00
         21   -1    0    0  501  502  0.00000000000E+00  0.00000000000E+00  0.29152092020E+02  0.29152092020E+02  0.00000000000E+00 0.  1.
         21   -1    0    0  502  503 -0.00000000000E+00 -0.00000000000E+00 -0.10815541234E+04  0.10815541234E+04  0.00000000000E+00 0.  1.
          6    1    1    2  501    0  0.85629501198E+00 -0.39350880223E+02 -0.54861089275E+03  0.57658662546E+03  0.17300000000E+03 0.  1.
         -6    1    1    2    0  503 -0.85629501198E+00  0.39350880223E+02 -0.50379113861E+03  0.53411958994E+03  0.17300000000E+03 0.  1.
<mgrwt>
<rscale>  2 0.17742104E+03</rscale>
<asrwt>0</asrwt>
<pdfrwt beam="1">  1       21 0.44849382E-02 0.17742104E+03</pdfrwt>
<pdfrwt beam="2">  1       21 0.16639291E+00 0.17742104E+03</pdfrwt>
<totfact> 0.73767721E+04</totfact>
</mgrwt>
</event>
<event>
 4    1  0.3875622E-001  0.1771074E+03  0.7546771E-02  0.1170632E+00
         21   -1    0    0  503  502  0.00000000000E+00  0.00000000000E+00  0.12111711751E+04  0.12111711751E+04  0.00000000000E+00 0. -1.
         21   -1    0    0  501  503 -0.00000000000E+00 -0.00000000000E+00 -0.35193093332E+02  0.35193093332E+02  0.00000000000E+00 0. -1.
          6    1    1    2  501    0 -0.11197692074E+02 -0.36230493748E+02  0.26772312413E+03  0.32100266071E+03  0.17300000000E+03 0. -1.
         -6    1    1    2    0  502  0.11197692074E+02  0.36230493748E+02  0.90825495766E+03  0.92536160775E+03  0.17300000000E+03 0. -1.
<mgrwt>
<rscale>  2 0.17710742E+03</rscale>
<asrwt>0</asrwt>
<pdfrwt beam="1">  1       21 0.18633399E+00 0.17710742E+03</pdfrwt>
<pdfrwt beam="2">  1       21 0.54143230E-02 0.17710742E+03</pdfrwt>
<totfact> 0.39156956E+04</totfact>
</mgrwt>
</event>
<event>
 4    1  0.3875622E-001  0.2173089E+03  0.7546771E-02  0.1135905E+00
         21   -1    0    0  503  502  0.00000000000E+00  0.00000000000E+00  0.29283448277E+03  0.29283448277E+03  0.00000000000E+00 0. -1.
         21   -1    0    0  501  503 -0.00000000000E+00 -0.00000000000E+00 -0.20310993006E+03  0.20310993006E+03  0.00000000000E+00 0. -1.
          6    1    1    2  501    0  0.11543441979E+03  0.63000252275E+02 -0.67694930553E+02  0.22760874474E+03  0.17300000000E+03 0. -1.
         -6    1    1    2    0  502 -0.11543441979E+03 -0.63000252275E+02  0.15741948327E+03  0.26833566809E+03  0.17300000000E+03 0. -1.
<mgrwt>
<rscale>  2 0.21730885E+03</rscale>
<asrwt>0</asrwt>
<pdfrwt beam="1">  1       21 0.45051459E-01 0.21730885E+03</pdfrwt>
<pdfrwt beam="2">  1       21 0.31247681E-01 0.21730885E+03</pdfrwt>
<totfact> 0.45968525E+04</totfact>
</mgrwt>
</event>
<event>
 4    1  0.3875622E-001  0.2056199E+03  0.7546771E-02  0.1145082E+00
         21   -1    0    0  503  502  0.00000000000E+00  0.00000000000E+00  0.96828750672E+03  0.96828750672E+03  0.00000000000E+00 0.  1.
         21   -1    0    0  501  503 -0.00000000000E+00 -0.00000000000E+00 -0.60807195808E+02  0.60807195808E+02  0.00000000000E+00 0.  1.
          6    1    1    2  501    0 -0.33640946822E+01 -0.11108210303E+03  0.18053395840E+03  0.27362759525E+03  0.17300000000E+03 0.  1.
         -6    1    1    2    0  502  0.33640946822E+01  0.11108210303E+03  0.72694635252E+03  0.75546710728E+03  0.17300000000E+03 0.  1.
<mgrwt>
<rscale>  2 0.20561992E+03</rscale>
<asrwt>0</asrwt>
<pdfrwt beam="1">  1       21 0.14896730E+00 0.20561992E+03</pdfrwt>
<pdfrwt beam="2">  1       21 0.93549539E-02 0.20561992E+03</pdfrwt>
<totfact> 0.27552531E+04</totfact>
</mgrwt>
</event>
<event>
 4    1  0.3875622E-001  0.2104500E+03  0.7546771E-02  0.1141210E+00
         21   -1    0    0  503  502  0.00000000000E+00  0.00000000000E+00  0.10260484609E+03  0.10260484609E+03  0.00000000000E+00 0.  1.
         21   -1    0    0  501  503 -0.00000000000E+00 -0.00000000000E+00 -0.44120299521E+03  0.44120299521E+03  0.00000000000E+00 0. -1.
          6    1    1    2  501    0  0.30917226006E+01 -0.11979413422E+03 -0.12928546099E+03  0.24698972400E+03  0.17300000000E+03 0. -1.
         -6    1    1    2    0  502 -0.30917226006E+01  0.11979413422E+03 -0.20931268813E+03  0.29681811730E+03  0.17300000000E+03 0. -1.
<mgrwt>
<rscale>  2 0.21044998E+03</rscale>
<asrwt>0</asrwt>
<pdfrwt beam="1">  1       21 0.15785361E-01 0.21044998E+03</pdfrwt>
<pdfrwt beam="2">  1       21 0.67877383E-01 0.21044998E+03</pdfrwt>
<totfact> 0.70298708E+04</totfact>
</mgrwt>
</event>
<event>
 4    1  0.3875622E-001  0.2459391E+03  0.7546771E-02  0.1115898E+00
         21   -1    0    0  503  502  0.00000000000E+00  0.00000000000E+00  0.27397417255E+03  0.27397417255E+03  0.00000000000E+00 0.  1.
         21   -1    0    0  501  503 -0.00000000000E+00 -0.00000000000E+00 -0.31149933048E+03  0.31149933048E+03  0.00000000000E+00 0. -1.
          6    1    1    2  501    0 -0.11420619102E+01 -0.17480193176E+03 -0.17674765560E+03  0.30286259824E+03  0.17300000000E+03 0. -1.
         -6    1    1    2    0  502  0.11420619102E+01  0.17480193176E+03  0.13922249767E+03  0.28261090479E+03  0.17300000000E+03 0.  1.
<mgrwt>
<rscale>  2 0.24593906E+03</rscale>
<asrwt>0</asrwt>
<pdfrwt beam="1">  1       21 0.42149873E-01 0.24593906E+03</pdfrwt>
<pdfrwt beam="2">  1       21 0.47922974E-01 0.24593906E+03</pdfrwt>
<totfact> 0.21904618E+04</totfact>
</mgrwt>
</event>
<event>
 4    1  0.3875622E-001  0.1962098E+03  0.7546771E-02  0.1152977E+00
         21   -1    0    0  501  502  0.00000000000E+00  0.00000000000E+00  0.13113698986E+02  0.13113698986E+02  0.00000000000E+00 0.  1.
         21   -1    0    0  502  503 -0.00000000000E+00 -0.00000000000E+00 -0.31094015183E+04  0.31094015183E+04  0.00000000000E+00 0.  1.
          6    1    1    2  501    0  0.87182400669E+02 -0.31121027586E+02 -0.11791667113E+04  0.11953796143E+04  0.17300000000E+03 0.  1.
         -6    1    1    2    0  503 -0.87182400669E+02  0.31121027586E+02 -0.19171211080E+04  0.19271356030E+04  0.17300000000E+03 0.  1.
<mgrwt>
<rscale>  2 0.19620981E+03</rscale>
<asrwt>0</asrwt>
<pdfrwt beam="1">  1       21 0.20174906E-02 0.19620981E+03</pdfrwt>
<pdfrwt beam="2">  1       21 0.47836983E+00 0.19620981E+03</pdfrwt>
<totfact> 0.32322327E+03</totfact>
</mgrwt>
</event>
<event>
 4    1  0.3875622E-001  0.2035839E+03  0.7546771E-02  0.1146750E+00
         21   -1    0    0  503  502  0.00000000000E+00  0.00000000000E+00  0.22986045663E+03  0.22986045663E+03  0.00000000000E+00 0. -1.
         21   -1    0    0  501  503 -0.00000000000E+00 -0.00000000000E+00 -0.18350100727E+03  0.18350100727E+03  0.00000000000E+00 0. -1.
          6    1    1    2  501    0 -0.10698916893E+03  0.84102073025E+01 -0.40700714032E+01  0.20362460396E+03  0.17300000000E+03 0. -1.
         -6    1    1    2    0  502  0.10698916893E+03 -0.84102073025E+01  0.50429520758E+02  0.20973685995E+03  0.17300000000E+03 0. -1.
<mgrwt>
<rscale>  2 0.20358392E+03</rscale>
<asrwt>0</asrwt>
<pdfrwt beam="1">  1       21 0.35363147E-01 0.20358392E+03</pdfrwt>
<pdfrwt beam="2">  1       21 0.28230924E-01 0.20358392E+03</pdfrwt>
<totfact> 0.92034361E+04</totfact>
</mgrwt>
</event>
<event>
 4    1  0.3875622E-001  0.1766482E+03  0.7546771E-02  0.1171087E+00
         21   -1    0    0  501  502  0.00000000000E+00  0.00000000000E+00  0.77483599424E+02  0.77483599424E+02  0.00000000000E+00 0. -1.
         21   -1    0    0  502  503 -0.00000000000E+00 -0.00000000000E+00 -0.42264419157E+03  0.42264419157E+03  0.00000000000E+00 0. -1.
          6    1    1    2  501    0 -0.29769348300E+02  0.19732602055E+02 -0.22686761510E+03  0.28753000619E+03  0.17300000000E+03 0.  1.
         -6    1    1    2    0  503  0.29769348300E+02 -0.19732602055E+02 -0.11829297704E+03  0.21259778480E+03  0.17300000000E+03 0.  1.
<mgrwt>
<rscale>  2 0.17664821E+03</rscale>
<asrwt>0</asrwt>
<pdfrwt beam="1">  1       21 0.11920554E-01 0.17664821E+03</pdfrwt>
<pdfrwt beam="2">  1       21 0.65022183E-01 0.17664821E+03</pdfrwt>
<totfact> 0.13006290E+05</totfact>
</mgrwt>
</event>
<event>
 4    1  0.3875622E-001  0.2250589E+03  0.7546771E-02  0.1130167E+00
         21   -1    0    0  501  502  0.00000000000E+00  0.00000000000E+00  0.77589206110E+03  0.77589206110E+03  0.00000000000E+00 0.  1.
         21   -1    0    0  502  503 -0.00000000000E+00 -0.00000000000E+00 -0.12452319997E+03  0.12452319997E+03  0.00000000000E+00 0. -1.
          6    1    1    2  501    0 -0.48094309159E+02  0.13568136081E+03  0.63621260834E+03  0.67484663239E+03  0.17300000000E+03 0.  1.
         -6    1    1    2    0  503  0.48094309159E+02 -0.13568136081E+03  0.15156252801E+02  0.22556862868E+03  0.17300000000E+03 0. -1.
<mgrwt>
<rscale>  2 0.22505887E+03</rscale>
<asrwt>0</asrwt>
<pdfrwt beam="1">  1       21 0.11936801E+00 0.22505887E+03</pdfrwt>
<pdfrwt beam="2">  1       21 0.19157416E-01 0.22505887E+03</pdfrwt>
<totfact> 0.13099736E+04</totfact>
</mgrwt>
</event>
<event>
 4    1  0.3875622E-001  0.1771896E+03  0.7546771E-02  0.1170551E+00
         21   -1    0    0  501  502  0.00000000000E+00  0.00000000000E+00  0.19709845700E+03  0.19709845700E+03  0.00000000000E+00 0.  1.
         21   -1    0    0  502  503 -0.00000000000E+00 -0.00000000000E+00 -0.17267926452E+03  0.17267926452E+03  0.00000000000E+00 0.  1.
          6    1    1    2  501    0  0.15066808722E+02 -0.35215884321E+02  0.63689755311E+02  0.18828848123E+03  0.17300000000E+03 0.  1.
         -6    1    1    2    0  503 -0.15066808722E+02  0.35215884321E+02 -0.39270562836E+02  0.18148924028E+03  0.17300000000E+03 0.  1.
<mgrwt>
<rscale>  2 0.17718964E+03</rscale>
<asrwt>0</asrwt>
<pdfrwt beam="1">  1       21 0.30322839E-01 0.17718964E+03</pdfrwt>
<pdfrwt beam="2">  1       21 0.26566041E-01 0.17718964E+03</pdfrwt>
<totfact> 0.14142846E+05</totfact>
</mgrwt>
</event>
<event>
 4    1  0.3875622E-001  0.2420355E+03  0.7546771E-02  0.1118444E+00
         21   -1    0    0  501  502  0.00000000000E+00  0.00000000000E+00  0.24081459417E+03  0.24081459417E+03  0.00000000000E+00 0.  1.
         21   -1    0    0  502  503 -0.00000000000E+00 -0.00000000000E+00 -0.34348177186E+03  0.34348177186E+03  0.00000000000E+00 0.  1.
          6    1    1    2  501    0 -0.16815517674E+03 -0.19391396906E+02  0.10647356903E+03  0.26441976220E+03  0.17300000000E+03 0.  1.
         -6    1    1    2    0  503  0.16815517674E+03  0.19391396906E+02 -0.20914074672E+03  0.31987660383E+03  0.17300000000E+03 0.  1.
<mgrwt>
<rscale>  2 0.24203551E+03</rscale>
<asrwt>0</asrwt>
<pdfrwt beam="1">  1       21 0.37048399E-01 0.24203551E+03</pdfrwt>
<pdfrwt beam="2">  1       21 0.52843349E-01 0.24203551E+03</pdfrwt>
<totfact> 0.23220806E+04</totfact>
</mgrwt>
</event>
<event>
 4    1  0.3875622E-001  0.2064218E+03  0.7546771E-02  0.1144431E+00
         21   -1    0    0  503  502  0.00000000000E+00  0.00000000000E+00  0.79202407324E+02  0.79202407324E+02  0.00000000000E+00 0.  1.
         21   -1    0    0  501  503 -0.00000000000E+00 -0.00000000000E+00 -0.53859492998E+03  0.53859492998E+03  0.00000000000E+00 0. -1.
          6    1    1    2  501    0 -0.60672810239E+01 -0.11244624873E+03 -0.21932965672E+03  0.30119008793E+03  0.17300000000E+03 0.  1.
         -6    1    1    2    0  502  0.60672810239E+01  0.11244624873E+03 -0.24006286593E+03  0.31660724937E+03  0.17300000000E+03 0. -1.
<mgrwt>
<rscale>  2 0.20642183E+03</rscale>
<asrwt>0</asrwt>
<pdfrwt beam="1">  1       21 0.12184986E-01 0.20642183E+03</pdfrwt>
<pdfrwt beam="2">  1       21 0.82860755E-01 0.20642183E+03</pdfrwt>
<totfact> 0.72059302E+04</totfact>
</mgrwt>
</event>
<event>
 4    1  0.3875622E-001  0.1982077E+03  0.7546771E-02  0.1151260E+00
         21   -1    0    0  501  502  0.00000000000E+00  0.00000000000E+00  0.22981625866E+03  0.22981625866E+03  0.00000000000E+00 0. -1.
         21   -1    0    0  502  503 -0.00000000000E+00 -0.00000000000E+00 -0.21214082024E+03  0.21214082024E+03  0.00000000000E+00 0.  1.
          6    1    1    2  501    0 -0.39210422017E+02  0.88429807152E+02  0.10621476172E+03  0.22487299437E+03  0.17300000000E+03 0. -1.
         -6    1    1    2    0  503  0.39210422017E+02 -0.88429807152E+02 -0.88539323299E+02  0.21708408453E+03  0.17300000000E+03 0.  1.
<mgrwt>
<rscale>  2 0.19820769E+03</rscale>
<asrwt>0</asrwt>
<pdfrwt beam="1">  1       21 0.35356348E-01 0.19820769E+03</pdfrwt>
<pdfrwt beam="2">  1       21 0.32637049E-01 0.19820769E+03</pdfrwt>
<totfact> 0.69513835E+04</totfact>
</mgrwt>
</event>
<event>
 4    1  0.3875622E-001  0.1761666E+03  0.7546771E-02  0.1171565E+00
         21   -1    0    0  501  502  0.00000000000E+00  0.00000000000E+00  0.64898391654E+03  0.64898391654E+03  0.00000000000E+00 0.  1.
         21   -1    0    0  502  503 -0.00000000000E+00 -0.00000000000E+00 -0.66928454426E+02  0.66928454426E+02  0.00000000000E+00 0.  1.
          6    1    1    2  501    0  0.32527917093E+02 -0.68996611072E+01  0.48229149766E+03  0.51345862485E+03  0.17300000000E+03 0.  1.
         -6    1    1    2    0  503 -0.32527917093E+02  0.68996611072E+01  0.99763964452E+02  0.20245374612E+03  0.17300000000E+03 0.  1.
<mgrwt>
<rscale>  2 0.17616660E+03</rscale>
<asrwt>0</asrwt>
<pdfrwt beam="1">  1       21 0.99843675E-01 0.17616660E+03</pdfrwt>
<pdfrwt beam="2">  1       21 0.10296686E-01 0.17616660E+03</pdfrwt>
<totfact> 0.63991098E+04</totfact>
</mgrwt>
</event>
<event>
 4    1  0.3875622E-001  0.2048175E+03  0.7546771E-02  0.1145737E+00
         21   -1    0    0  503  502  0.00000000000E+00  0.00000000000E+00  0.13992103821E+03  0.13992103821E+03  0.00000000000E+00 0.  1.
         21   -1    0    0  501  503 -0.00000000000E+00 -0.00000000000E+00 -0.30143137862E+03  0.30143137862E+03  0.00000000000E+00 0. -1.
          6    1    1    2  501    0  0.82129911659E+02 -0.72635179159E+02 -0.64587114457E+02  0.21475960280E+03  0.17300000000E+03 0. -1.
         -6    1    1    2    0  502 -0.82129911659E+02  0.72635179159E+02 -0.96923225954E+02  0.22659281403E+03  0.17300000000E+03 0.  1.
<mgrwt>
<rscale>  2 0.20481746E+03</rscale>
<asrwt>0</asrwt>
<pdfrwt beam="1">  1       21 0.21526314E-01 0.20481746E+03</pdfrwt>
<pdfrwt beam="2">  1       21 0.46374058E-01 0.20481746E+03</pdfrwt>
<totfact> 0.89123304E+04</totfact>
</mgrwt>
</event>
<event>
 4    1  0.3875622E-001  0.2622863E+03  0.7546771E-02  0.1105777E+00
         21   -1    0    0  501  502  0.00000000000E+00  0.00000000000E+00  0.87804268304E+02  0.87804268304E+02  0.00000000000E+00 0. -1.
         21   -1    0    0  502  503 -0.00000000000E+00 -0.00000000000E+00 -0.78365469872E+03  0.78365469872E+03  0.00000000000E+00 0.  1.
          6    1    1    2  501    0 -0.16780506608E+03  0.10347242714E+03 -0.35417238875E+03  0.44071778309E+03  0.17300000000E+03 0.  1.
         -6    1    1    2    0  503  0.16780506608E+03 -0.10347242714E+03 -0.34167804166E+03  0.43074118393E+03  0.17300000000E+03 0. -1.
<mgrwt>
<rscale>  2 0.26228626E+03</rscale>
<asrwt>0</asrwt>
<pdfrwt beam="1">  1       21 0.13508349E-01 0.26228626E+03</pdfrwt>
<pdfrwt beam="2">  1       21 0.12056226E+00 0.26228626E+03</pdfrwt>
<totfact> 0.23835503E+04</totfact>
</mgrwt>
</event>
<event>
 4    1  0.3875622E-001  0.2199880E+03  0.7546771E-02  0.1133892E+00
         21   -1    0    0  501  502  0.00000000000E+00  0.00000000000E+00  0.37521409673E+03  0.37521409673E+03  0.00000000000E+00 0.  1.
         21   -1    0    0  502  503 -0.00000000000E+00 -0.00000000000E+00 -0.29433694953E+03  0.29433694953E+03  0.00000000000E+00 0. -1.
          6    1    1    2  501    0 -0.12402941424E+03 -0.55519649501E+02  0.29136354648E+03  0.36508552874E+03  0.17300000000E+03 0.  1.
         -6    1    1    2    0  503  0.12402941424E+03  0.55519649501E+02 -0.21048639927E+03  0.30446551752E+03  0.17300000000E+03 0. -1.
<mgrwt>
<rscale>  2 0.21998802E+03</rscale>
<asrwt>0</asrwt>
<pdfrwt beam="1">  1       21 0.57725246E-01 0.21998802E+03</pdfrwt>
<pdfrwt beam="2">  1       21 0.45282607E-01 0.21998802E+03</pdfrwt>
<totfact> 0.12940707E+04</totfact>
</mgrwt>
</event>
<event>
 4    1  0.3875622E-001  0.1872093E+03  0.7546771E-02  0.1161003E+00
         21   -1    0    0  503  502  0.00000000000E+00  0.00000000000E+00  0.20310388286E+03  0.20310388286E+03  0.00000000000E+00 0. -1.
         21   -1    0    0  501  503 -0.00000000000E+00 -0.00000000000E+00 -0.21653092466E+03  0.21653092466E+03  0.00000000000E+00 0. -1.
          6    1    1    2  501    0 -0.71487507425E+02 -0.28033060771E+01  0.87838593015E+02  0.20679202273E+03  0.17300000000E+03 0. -1.
         -6    1    1    2    0  502  0.71487507425E+02  0.28033060771E+01 -0.10126563482E+03  0.21284278479E+03  0.17300000000E+03 0. -1.
<mgrwt>
<rscale>  2 0.18720930E+03</rscale>
<asrwt>0</asrwt>
<pdfrwt beam="1">  1       21 0.31246751E-01 0.18720930E+03</pdfrwt>
<pdfrwt beam="2">  1       21 0.33312450E-01 0.18720930E+03</pdfrwt>
<totfact> 0.85586048E+04</totfact>
</mgrwt>
</event>
<event>
 4    1  0.3875622E-001  0.2172723E+03  0.7546771E-02  0.1135933E+00
         21   -1    0    0  501  502  0.00000000000E+00  0.00000000000E+00  0.29650687581E+03  0.29650687581E+03  0.00000000000E+00 0.  1.
         21   -1    0    0  502  503 -0.00000000000E+00 -0.00000000000E+00 -0.16877084231E+03  0.16877084231E+03  0.00000000000E+00 0. -1.
          6    1    1    2  501    0  0.19390010705E+02  0.13000881691E+03  0.85010692151E+01  0.21743857332E+03  0.17300000000E+03 0.  1.
         -6    1    1    2    0  503 -0.19390010705E+02 -0.13000881691E+03  0.11923496429E+03  0.24783914481E+03  0.17300000000E+03 0.  1.
<mgrwt>
<rscale>  2 0.21727233E+03</rscale>
<asrwt>0</asrwt>
<pdfrwt beam="1">  1       21 0.45616442E-01 0.21727233E+03</pdfrwt>
<pdfrwt beam="2">  1       21 0.25964745E-01 0.21727233E+03</pdfrwt>
<totfact> 0.64208513E+04</totfact>
</mgrwt>
</event>
<event>
 4    1  0.3875622E-001  0.4047097E+03  0.7546771E-02  0.1042161E+00
         21   -1    0    0  503  502  0.00000000000E+00  0.00000000000E+00  0.11615306115E+04  0.11615306115E+04  0.00000000000E+00 0.  1.
         21   -1    0    0  501  503 -0.00000000000E+00 -0.00000000000E+00 -0.22530997055E+03  0.22530997055E+03  0.00000000000E+00 0. -1.
          6    1    1    2  501    0  0.36051764198E+03 -0.62353316833E+02  0.43965113447E+02  0.40709069936E+03  0.17300000000E+03 0. -1.
         -6    1    1    2    0  502 -0.36051764198E+03  0.62353316833E+02  0.89225552750E+03  0.97974988271E+03  0.17300000000E+03 0.  1.
<mgrwt>
<rscale>  2 0.40470966E+03</rscale>
<asrwt>0</asrwt>
<pdfrwt beam="1">  1       21 0.17869701E+00 0.40470966E+03</pdfrwt>
<pdfrwt beam="2">  1       21 0.34663073E-01 0.40470966E+03</pdfrwt>
<totfact> 0.12821488E+03</totfact>
</mgrwt>
</event>
<event>
 4    1  0.3875622E-001  0.1777119E+03  0.7546771E-02  0.1170036E+00
         21   -1    0    0  503  502  0.00000000000E+00  0.00000000000E+00  0.32898309105E+02  0.32898309105E+02  0.00000000000E+00 0. -1.
         21   -1    0    0  501  503 -0.00000000000E+00 -0.00000000000E+00 -0.11151696638E+04  0.11151696638E+04  0.00000000000E+00 0. -1.
          6    1    1    2  501    0 -0.27305996087E+02 -0.30114928149E+02 -0.75528007370E+03  0.77590561027E+03  0.17300000000E+03 0.  1.
         -6    1    1    2    0  502  0.27305996087E+02  0.30114928149E+02 -0.32699128104E+03  0.37216236268E+03  0.17300000000E+03 0.  1.
<mgrwt>
<rscale>  2 0.17771192E+03</rscale>
<asrwt>0</asrwt>
<pdfrwt beam="1">  1       21 0.50612787E-02 0.17771192E+03</pdfrwt>
<pdfrwt beam="2">  1       21 0.17156455E+00 0.17771192E+03</pdfrwt>
<totfact> 0.55307796E+04</totfact>
</mgrwt>
</event>
<event>
 4    1  0.3875622E-001  0.2410731E+03  0.7546771E-02  0.1119080E+00
         21   -1    0    0  501  502  0.00000000000E+00  0.00000000000E+00  0.11925337509E+04  0.11925337509E+04  0.00000000000E+00 0.  1.
         21   -1    0    0  502  503 -0.00000000000E+00 -0.00000000000E+00 -0.48739015095E+02  0.48739015095E+02  0.00000000000E+00 0. -1.
          6    1    1    2  501    0  0.91834878758E+02 -0.14054741380E+03  0.56523388819E+03  0.61449619107E+03  0.17300000000E+03 0.  1.
         -6    1    1    2    0  503 -0.91834878758E+02  0.14054741380E+03  0.57856084761E+03  0.62677657492E+03  0.17300000000E+03 0. -1.
<mgrwt>
<rscale>  2 0.24107306E+03</rscale>
<asrwt>0</asrwt>
<pdfrwt beam="1">  1       21 0.18346671E+00 0.24107306E+03</pdfrwt>
<pdfrwt beam="2">  1       21 0.74983109E-02 0.24107306E+03</pdfrwt>
<totfact> 0.22422573E+04</totfact>
</mgrwt>
</event>
<event>
 4    1  0.3875622E-001  0.1926530E+03  0.7546771E-02  0.1156090E+00
         21   -1    0    0  503  502  0.00000000000E+00  0.00000000000E+00  0.11006923598E+03  0.11006923598E+03  0.00000000000E+00 0. -1.
         21   -1    0    0  501  503 -0.00000000000E+00 -0.00000000000E+00 -0.56626242096E+03  0.56626242096E+03  0.00000000000E+00 0. -1.
          6    1    1    2  501    0 -0.16615679939E+02  0.83126943897E+02 -0.44317622957E+03  0.48323942314E+03  0.17300000000E+03 0. -1.
         -6    1    1    2    0  502  0.16615679939E+02 -0.83126943897E+02 -0.13016955408E+02  0.19309223379E+03  0.17300000000E+03 0. -1.
<mgrwt>
<rscale>  2 0.19265298E+03</rscale>
<asrwt>0</asrwt>
<pdfrwt beam="1">  1       21 0.16933729E-01 0.19265298E+03</pdfrwt>
<pdfrwt beam="2">  1       21 0.87117296E-01 0.19265298E+03</pdfrwt>
<totfact> 0.35587955E+04</totfact>
</mgrwt>
</event>
<event>
 4    1  0.3875622E-001  0.2720971E+03  0.7546771E-02  0.1100085E+00
         21   -1    0    0  501  502  0.00000000000E+00  0.00000000000E+00  0.16457395139E+03  0.16457395139E+03  0.00000000000E+00 0.  1.
         21   -1    0    0  502  503 -0.00000000000E+00 -0.00000000000E+00 -0.47083883297E+03  0.47083883297E+03  0.00000000000E+00 0.  1.
          6    1    1    2  501    0 -0.19522126498E+03  0.77437009276E+02 -0.22017956311E+03  0.35002267458E+03  0.17300000000E+03 0.  1.
         -6    1    1    2    0  503  0.19522126498E+03 -0.77437009276E+02 -0.86085318460E+02  0.28539010978E+03  0.17300000000E+03 0.  1.
<mgrwt>
<rscale>  2 0.27209710E+03</rscale>
<asrwt>0</asrwt>
<pdfrwt beam="1">  1       21 0.25319070E-01 0.27209710E+03</pdfrwt>
<pdfrwt beam="2">  1       21 0.72436742E-01 0.27209710E+03</pdfrwt>
<totfact> 0.24398883E+04</totfact>
</mgrwt>
</event>
<event>
 4    1  0.3875622E-001  0.2496590E+03  0.7546771E-02  0.1113520E+00
         21   -1    0    0  501  502  0.00000000000E+00  0.00000000000E+00  0.26654080068E+03  0.26654080068E+03  0.00000000000E+00 0.  1.
         21   -1    0    0  502  503 -0.00000000000E+00 -0.00000000000E+00 -0.25826361926E+03  0.25826361926E+03  0.00000000000E+00 0.  1.
          6    1    1    2  501    0 -0.17582811013E+03  0.38537126530E+02  0.84821778333E+02  0.26367474000E+03  0.17300000000E+03 0.  1.
         -6    1    1    2    0  503  0.17582811013E+03 -0.38537126530E+02 -0.76544596915E+02  0.26112967995E+03  0.17300000000E+03 0.  1.
<mgrwt>
<rscale>  2 0.24965904E+03</rscale>
<asrwt>0</asrwt>
<pdfrwt beam="1">  1       21 0.41006277E-01 0.24965904E+03</pdfrwt>
<pdfrwt beam="2">  1       21 0.39732864E-01 0.24965904E+03</pdfrwt>
<totfact> 0.34017629E+04</totfact>
</mgrwt>
</event>
<event>
 4    1  0.3875622E-001  0.1851441E+03  0.7546771E-02  0.1162915E+00
         21   -1    0    0  503  502  0.00000000000E+00  0.00000000000E+00  0.73767836812E+02  0.73767836812E+02  0.00000000000E+00 0. -1.
         21   -1    0    0  501  503 -0.00000000000E+00 -0.00000000000E+00 -0.65067319950E+03  0.65067319950E+03  0.00000000000E+00 0. -1.
          6    1    1    2  501    0 -0.61900796695E+02 -0.22751313294E+02 -0.48211352629E+03  0.51644146147E+03  0.17300000000E+03 0. -1.
         -6    1    1    2    0  502  0.61900796695E+02  0.22751313294E+02 -0.94791836392E+02  0.20799957484E+03  0.17300000000E+03 0. -1.
<mgrwt>
<rscale>  2 0.18514408E+03</rscale>
<asrwt>0</asrwt>
<pdfrwt beam="1">  1       21 0.11348898E-01 0.18514408E+03</pdfrwt>
<pdfrwt beam="2">  1       21 0.10010357E+00 0.18514408E+03</pdfrwt>
<totfact> 0.53286095E+04</totfact>
</mgrwt>
</event>
<event>
 4    1  0.3875622E-001  0.2261643E+03  0.7546771E-02  0.1129369E+00
         21   -1    0    0  501  502  0.00000000000E+00  0.00000000000E+00  0.10125907530E+03  0.10125907530E+03  0.00000000000E+00 0. -1.
         21   -1    0    0  502  503 -0.00000000000E+00 -0.00000000000E+00 -0.54444455802E+03  0.54444455802E+03  0.00000000000E+00 0. -1.
          6    1    1    2  501    0 -0.16054585627E+02 -0.14478788908E+03 -0.13485003791E+03  0.26331504945E+03  0.17300000000E+03 0. -1.
         -6    1    1    2    0  503  0.16054585627E+02  0.14478788908E+03 -0.30833544481E+03  0.38238858386E+03  0.17300000000E+03 0. -1.
<mgrwt>
<rscale>  2 0.22616428E+03</rscale>
<asrwt>0</asrwt>
<pdfrwt beam="1">  1       21 0.15578319E-01 0.22616428E+03</pdfrwt>
<pdfrwt beam="2">  1       21 0.83760702E-01 0.22616428E+03</pdfrwt>
<totfact> 0.44623923E+04</totfact>
</mgrwt>
</event>
<event>
 4    1  0.3875622E-001  0.2368457E+03  0.7546771E-02  0.1121912E+00
         21   -1    0    0  501  502  0.00000000000E+00  0.00000000000E+00  0.88064398626E+03  0.88064398626E+03  0.00000000000E+00 0. -1.
         21   -1    0    0  502  503 -0.00000000000E+00 -0.00000000000E+00 -0.64644615494E+02  0.64644615494E+02  0.00000000000E+00 0. -1.
          6    1    1    2  501    0  0.96773020941E+01 -0.16147209972E+03  0.35082664756E+03  0.42329094699E+03  0.17300000000E+03 0. -1.
         -6    1    1    2    0  503 -0.96773020941E+01  0.16147209972E+03  0.46517272320E+03  0.52199765476E+03  0.17300000000E+03 0. -1.
<mgrwt>
<rscale>  2 0.23684571E+03</rscale>
<asrwt>0</asrwt>
<pdfrwt beam="1">  1       21 0.13548368E+00 0.23684571E+03</pdfrwt>
<pdfrwt beam="2">  1       21 0.99453261E-02 0.23684571E+03</pdfrwt>
<totfact> 0.31108226E+04</totfact>
</mgrwt>
</event>
<event>
 4    1  0.3875622E-001  0.2018865E+03  0.7546771E-02  0.1148157E+00
         21   -1    0    0  501  502  0.00000000000E+00  0.00000000000E+00  0.10066227309E+04  0.10066227309E+04  0.00000000000E+00 0. -1.
         21   -1    0    0  502  503 -0.00000000000E+00 -0.00000000000E+00 -0.42853144958E+02  0.42853144958E+02  0.00000000000E+00 0. -1.
          6    1    1    2  501    0 -0.33467498361E+02  0.98534682338E+02  0.35866058097E+03  0.41157693013E+03  0.17300000000E+03 0. -1.
         -6    1    1    2    0  503  0.33467498361E+02 -0.98534682338E+02  0.60510900500E+03  0.63789894576E+03  0.17300000000E+03 0. -1.
<mgrwt>
<rscale>  2 0.20188650E+03</rscale>
<asrwt>0</asrwt>
<pdfrwt beam="1">  1       21 0.15486502E+00 0.20188650E+03</pdfrwt>
<pdfrwt beam="2">  1       21 0.65927923E-02 0.20188650E+03</pdfrwt>
<totfact> 0.45829639E+04</totfact>
</mgrwt>
</event>
<event>
 4    1  0.3875622E-001  0.1907459E+03  0.7546771E-02  0.1157790E+00
         21   -1    0    0  503  502  0.00000000000E+00  0.00000000000E+00  0.24503715324E+03  0.24503715324E+03  0.00000000000E+00 0. -1.
         21   -1    0    0  501  503 -0.00000000000E+00 -0.00000000000E+00 -0.14989416660E+03  0.14989416660E+03  0.00000000000E+00 0.  1.
          6    1    1    2  501    0 -0.80146106723E+02 -0.56216608259E+01  0.66727025574E+02  0.20208042319E+03  0.17300000000E+03 0. -1.
         -6    1    1    2    0  502  0.80146106723E+02  0.56216608259E+01  0.28415961065E+02  0.19285089664E+03  0.17300000000E+03 0. -1.
<mgrwt>
<rscale>  2 0.19074591E+03</rscale>
<asrwt>0</asrwt>
<pdfrwt beam="1">  1       21 0.37698023E-01 0.19074591E+03</pdfrwt>
<pdfrwt beam="2">  1       21 0.23060641E-01 0.19074591E+03</pdfrwt>
<totfact> 0.11993142E+05</totfact>
</mgrwt>
</event>
<event>
 4    1  0.3875622E-001  0.3037917E+03  0.7546771E-02  0.1083360E+00
         21   -1    0    0  503  502  0.00000000000E+00  0.00000000000E+00  0.28450407774E+03  0.28450407774E+03  0.00000000000E+00 0. -1.
         21   -1    0    0  501  503 -0.00000000000E+00 -0.00000000000E+00 -0.34556463128E+03  0.34556463128E+03  0.00000000000E+00 0.  1.
          6    1    1    2  501    0  0.67742290879E+02  0.24035680885E+03 -0.10851909714E+03  0.32259232474E+03  0.17300000000E+03 0.  1.
         -6    1    1    2    0  502 -0.67742290879E+02 -0.24035680885E+03  0.47458543597E+02  0.30747638429E+03  0.17300000000E+03 0. -1.
<mgrwt>
<rscale>  2 0.30379173E+03</rscale>
<asrwt>0</asrwt>
<pdfrwt beam="1">  1       21 0.43769858E-01 0.30379173E+03</pdfrwt>
<pdfrwt beam="2">  1       21 0.53163789E-01 0.30379173E+03</pdfrwt>
<totfact> 0.15877227E+04</totfact>
</mgrwt>
</event>
<event>
 4    1  0.3875622E-001  0.3108492E+03  0.7546771E-02  0.1079940E+00
         21   -1    0    0  501  502  0.00000000000E+00  0.00000000000E+00  0.40655767831E+03  0.40655767831E+03  0.00000000000E+00 0.  1.
         21   -1    0    0  502  503 -0.00000000000E+00 -0.00000000000E+00 -0.25921253747E+03  0.25921253747E+03  0.00000000000E+00 0. -1.
          6    1    1    2  501    0 -0.79593273926E+02  0.24568909997E+03  0.16963438175E+03  0.35412292579E+03  0.17300000000E+03 0.  1.
         -6    1    1    2    0  503  0.79593273926E+02 -0.24568909997E+03 -0.22289240914E+02  0.31164728999E+03  0.17300000000E+03 0. -1.
<mgrwt>
<rscale>  2 0.31084920E+03</rscale>
<asrwt>0</asrwt>
<pdfrwt beam="1">  1       21 0.62547335E-01 0.31084920E+03</pdfrwt>
<pdfrwt beam="2">  1       21 0.39878852E-01 0.31084920E+03</pdfrwt>
<totfact> 0.13499271E+04</totfact>
</mgrwt>
</event>
<event>
 4    1  0.3875622E-001  0.2054899E+03  0.7546771E-02  0.1145188E+00
         21   -1    0    0  501  502  0.00000000000E+00  0.00000000000E+00  0.98693679857E+02  0.98693679857E+02  0.00000000000E+00 0. -1.
         21   -1    0    0  502  503 -0.00000000000E+00 -0.00000000000E+00 -0.45209082192E+03  0.45209082192E+03  0.00000000000E+00 0. -1.
          6    1    1    2  501    0 -0.57419797474E+02  0.94868676932E+02 -0.11292924781E+03  0.23447625469E+03  0.17300000000E+03 0. -1.
         -6    1    1    2    0  503  0.57419797474E+02 -0.94868676932E+02 -0.24046789426E+03  0.31630824708E+03  0.17300000000E+03 0. -1.
<mgrwt>
<rscale>  2 0.20548990E+03</rscale>
<asrwt>0</asrwt>
<pdfrwt beam="1">  1       21 0.15183643E-01 0.20548990E+03</pdfrwt>
<pdfrwt beam="2">  1       21 0.69552433E-01 0.20548990E+03</pdfrwt>
<totfact> 0.71688616E+04</totfact>
</mgrwt>
</event>
<event>
 4    1  0.3875622E-001  0.1976745E+03  0.7546771E-02  0.1151716E+00
         21   -1    0    0  501  502  0.00000000000E+00  0.00000000000E+00  0.42738648489E+03  0.42738648489E+03  0.00000000000E+00 0.  1.
         21   -1    0    0  502  503 -0.00000000000E+00 -0.00000000000E+00 -0.92549557016E+02  0.92549557016E+02  0.00000000000E+00 0. -1.
          6    1    1    2  501    0  0.31934099568E+02  0.90146689481E+02  0.19603313141E+03  0.27839576317E+03  0.17300000000E+03 0. -1.
         -6    1    1    2    0  503 -0.31934099568E+02 -0.90146689481E+02  0.13880379646E+03  0.24154027874E+03  0.17300000000E+03 0. -1.
<mgrwt>
<rscale>  2 0.19767451E+03</rscale>
<asrwt>0</asrwt>
<pdfrwt beam="1">  1       21 0.65751766E-01 0.19767451E+03</pdfrwt>
<pdfrwt beam="2">  1       21 0.14238394E-01 0.19767451E+03</pdfrwt>
<totfact> 0.91471130E+04</totfact>
</mgrwt>
</event>
<event>
 4    1  0.3875622E-001  0.2013320E+03  0.7546771E-02  0.1148620E+00
         21   -1    0    0  503  502  0.00000000000E+00  0.00000000000E+00  0.29955856802E+03  0.29955856802E+03  0.00000000000E+00 0. -1.
         21   -1    0    0  501  503 -0.00000000000E+00 -0.00000000000E+00 -0.13532857682E+03  0.13532857682E+03  0.00000000000E+00 0. -1.
          6    1    1    2  501    0  0.27220914059E+01 -0.10294745979E+03  0.79889782431E+02  0.21660324696E+03  0.17300000000E+03 0. -1.
         -6    1    1    2    0  502 -0.27220914059E+01  0.10294745979E+03  0.84340208762E+02  0.21828389788E+03  0.17300000000E+03 0. -1.
<mgrwt>
<rscale>  2 0.20133204E+03</rscale>
<asrwt>0</asrwt>
<pdfrwt beam="1">  1       21 0.46085934E-01 0.20133204E+03</pdfrwt>
<pdfrwt beam="2">  1       21 0.20819781E-01 0.20133204E+03</pdfrwt>
<totfact> 0.96261832E+04</totfact>
</mgrwt>
</event>
<event>
 4    1  0.3875622E-001  0.2115539E+03  0.7546771E-02  0.1140341E+00
         21   -1    0    0  503  502  0.00000000000E+00  0.00000000000E+00  0.40116477823E+03  0.40116477823E+03  0.00000000000E+00 0.  1.
         21   -1    0    0  501  503 -0.00000000000E+00 -0.00000000000E+00 -0.13420839399E+03  0.13420839399E+03  0.00000000000E+00 0.  1.
          6    1    1    2  501    0 -0.10053240364E+02 -0.12134650745E+03  0.23519595808E+02  0.21285726179E+03  0.17300000000E+03 0.  1.
         -6    1    1    2    0  502  0.10053240364E+02  0.12134650745E+03  0.24343678843E+03  0.32251591042E+03  0.17300000000E+03 0.  1.
<mgrwt>
<rscale>  2 0.21155388E+03</rscale>
<asrwt>0</asrwt>
<pdfrwt beam="1">  1       21 0.61717657E-01 0.21155388E+03</pdfrwt>
<pdfrwt beam="2">  1       21 0.20647445E-01 0.21155388E+03</pdfrwt>
<totfact> 0.52552072E+04</totfact>
</mgrwt>
</event>
<event>
 4    1  0.3875622E-001  0.2381594E+03  0.7546771E-02  0.1121025E+00
         21   -1    0    0  503  502  0.00000000000E+00  0.00000000000E+00  0.20635515304E+03  0.20635515304E+03  0.00000000000E+00 0.  1.
         21   -1    0    0  501  503 -0.00000000000E+00 -0.00000000000E+00 -0.43293462485E+03  0.43293462485E+03  0.00000000000E+00 0. -1.
          6    1    1    2  501    0 -0.82123530066E+02 -0.14158611376E+03 -0.30643328104E+03  0.38809954590E+03  0.17300000000E+03 0. -1.
         -6    1    1    2    0  502  0.82123530066E+02  0.14158611376E+03  0.79853809230E+02  0.25119023199E+03  0.17300000000E+03 0.  1.
<mgrwt>
<rscale>  2 0.23815940E+03</rscale>
<asrwt>0</asrwt>
<pdfrwt beam="1">  1       21 0.31746947E-01 0.23815940E+03</pdfrwt>
<pdfrwt beam="2">  1       21 0.66605326E-01 0.23815940E+03</pdfrwt>
<totfact> 0.19212073E+04</totfact>
</mgrwt>
</event>
<event>
 4    1  0.3875622E-001  0.1759250E+03  0.7546771E-02  0.1171806E+00
         21   -1    0    0  501  502  0.00000000000E+00  0.00000000000E+00  0.48886811768E+03  0.48886811768E+03  0.00000000000E+00 0.  1.
         21   -1    0    0  502  503 -0.00000000000E+00 -0.00000000000E+00 -0.68010577502E+02  0.68010577502E+02  0.00000000000E+00 0.  1.
          6    1    1    2  501    0  0.31830738004E+02 -0.27193024302E+01  0.28364028651E+03  0.33376848656E+03  0.17300000000E+03 0.  1.
         -6    1    1    2    0  503 -0.31830738004E+02  0.27193024302E+01  0.13721725366E+03  0.22311020862E+03  0.17300000000E+03 0.  1.
<mgrwt>
<rscale>  2 0.17592496E+03</rscale>
<asrwt>0</asrwt>
<pdfrwt beam="1">  1       21 0.75210477E-01 0.17592496E+03</pdfrwt>
<pdfrwt beam="2">  1       21 0.10463166E-01 0.17592496E+03</pdfrwt>
<totfact> 0.11907719E+05</totfact>
</mgrwt>
</event>
<event>
 4    1  0.3875622E-001  0.1738612E+03  0.7546771E-02  0.1173880E+00
         21   -1    0    0  501  502  0.00000000000E+00  0.00000000000E+00  0.14538104522E+03  0.14538104522E+03  0.00000000000E+00 0. -1.
         21   -1    0    0  502  503 -0.00000000000E+00 -0.00000000000E+00 -0.29276367657E+03  0.29276367657E+03  0.00000000000E+00 0. -1.
          6    1    1    2  501    0  0.12609151059E+01  0.17237656334E+02  0.44242126746E+02  0.17940204147E+03  0.17300000000E+03 0. -1.
         -6    1    1    2    0  503 -0.12609151059E+01 -0.17237656334E+02 -0.19162475810E+03  0.25874268032E+03  0.17300000000E+03 0. -1.
<mgrwt>
<rscale>  2 0.17386123E+03</rscale>
<asrwt>0</asrwt>
<pdfrwt beam="1">  1       21 0.22366315E-01 0.17386123E+03</pdfrwt>
<pdfrwt beam="2">  1       21 0.45040565E-01 0.17386123E+03</pdfrwt>
<totfact> 0.89165296E+04</totfact>
</mgrwt>
</event>
<event>
 4    1  0.3875622E-001  0.3334933E+03  0.7546771E-02  0.1069602E+00
         21   -1    0    0  501  502  0.00000000000E+00  0.00000000000E+00  0.31137452047E+03  0.31137452047E+03  0.00000000000E+00 0. -1.
         21   -1    0    0  502  503 -0.00000000000E+00 -0.00000000000E+00 -0.40236713583E+03  0.40236713583E+03  0.00000000000E+00 0.  1.
          6    1    1    2  501    0  0.23832214193E+03 -0.15649710425E+03 -0.16508530364E+03  0.37211684247E+03  0.17300000000E+03 0.  1.
         -6    1    1    2    0  503 -0.23832214193E+03  0.15649710425E+03  0.74092688276E+02  0.34162481383E+03  0.17300000000E+03 0.  1.
<mgrwt>
<rscale>  2 0.33349331E+03</rscale>
<asrwt>0</asrwt>
<pdfrwt beam="1">  1       21 0.47903773E-01 0.33349331E+03</pdfrwt>
<pdfrwt beam="2">  1       21 0.61902636E-01 0.33349331E+03</pdfrwt>
<totfact> 0.93583530E+03</totfact>
</mgrwt>
</event>
<event>
 4    1  0.3875622E-001  0.2137316E+03  0.7546771E-02  0.1138645E+00
         21   -1    0    0  501  502  0.00000000000E+00  0.00000000000E+00  0.30534792115E+03  0.30534792115E+03  0.00000000000E+00 0.  1.
         21   -1    0    0  502  503 -0.00000000000E+00 -0.00000000000E+00 -0.14961014213E+03  0.14961014213E+03  0.00000000000E+00 0. -1.
          6    1    1    2  501    0 -0.94317324865E+02  0.82803559896E+02  0.79358368265E+02  0.22798889867E+03  0.17300000000E+03 0. -1.
         -6    1    1    2    0  503  0.94317324865E+02 -0.82803559896E+02  0.76379410755E+02  0.22696916462E+03  0.17300000000E+03 0. -1.
<mgrwt>
<rscale>  2 0.21373158E+03</rscale>
<asrwt>0</asrwt>
<pdfrwt beam="1">  1       21 0.46976603E-01 0.21373158E+03</pdfrwt>
<pdfrwt beam="2">  1       21 0.23016945E-01 0.21373158E+03</pdfrwt>
<totfact> 0.76175100E+04</totfact>
</mgrwt>
</event>
<event>
 4    1  0.3875622E-001  0.2198610E+03  0.7546771E-02  0.1133987E+00
         21   -1    0    0  503  502  0.00000000000E+00  0.00000000000E+00  0.69186806041E+02  0.69186806041E+02  0.00000000000E+00 0.  1.
         21   -1    0    0  501  503 -0.00000000000E+00 -0.00000000000E+00 -0.69892744424E+03  0.69892744424E+03  0.00000000000E+00 0.  1.
          6    1    1    2  501    0 -0.13562679091E+03  0.39003819939E+01 -0.30751880012E+03  0.37802996154E+03  0.17300000000E+03 0.  1.
         -6    1    1    2    0  502  0.13562679091E+03 -0.39003819939E+01 -0.32222183807E+03  0.39008428874E+03  0.17300000000E+03 0.  1.
<mgrwt>
<rscale>  2 0.21986095E+03</rscale>
<asrwt>0</asrwt>
<pdfrwt beam="1">  1       21 0.10644123E-01 0.21986095E+03</pdfrwt>
<pdfrwt beam="2">  1       21 0.10752731E+00 0.21986095E+03</pdfrwt>
<totfact> 0.49444749E+04</totfact>
</mgrwt>
</event>
<event>
 4    1  0.3875622E-001  0.2245992E+03  0.7546771E-02  0.1130500E+00
         21   -1    0    0  501  502  0.00000000000E+00  0.00000000000E+00  0.38627265045E+03  0.38627265045E+03  0.00000000000E+00 0.  1.
         21   -1    0    0  502  503 -0.00000000000E+00 -0.00000000000E+00 -0.14284244780E+03  0.14284244780E+03  0.00000000000E+00 0.  1.
          6    1    1    2  501    0 -0.56427808156E+02  0.13164990495E+03  0.44244589016E+02  0.22891565841E+03  0.17300000000E+03 0.  1.
         -6    1    1    2    0  503  0.56427808156E+02 -0.13164990495E+03  0.19918561363E+03  0.30019943985E+03  0.17300000000E+03 0.  1.
<mgrwt>
<rscale>  2 0.22459919E+03</rscale>
<asrwt>0</asrwt>
<pdfrwt beam="1">  1       21 0.59426561E-01 0.22459919E+03</pdfrwt>
<pdfrwt beam="2">  1       21 0.21975761E-01 0.22459919E+03</pdfrwt>
<totfact> 0.50401045E+04</totfact>
</mgrwt>
</event>
<event>
 4    1  0.3875622E-001  0.2084380E+03  0.7546771E-02  0.1142809E+00
         21   -1    0    0  501  502  0.00000000000E+00  0.00000000000E+00  0.13477794077E+03  0.13477794077E+03  0.00000000000E+00 0.  1.
         21   -1    0    0  502  503 -0.00000000000E+00 -0.00000000000E+00 -0.53467781315E+03  0.53467781315E+03  0.00000000000E+00 0. -1.
          6    1    1    2  501    0  0.87665287816E+02 -0.76368957060E+02  0.10982585906E+02  0.20872718434E+03  0.17300000000E+03 0.  1.
         -6    1    1    2    0  503 -0.87665287816E+02  0.76368957060E+02 -0.41088245829E+03  0.46072856957E+03  0.17300000000E+03 0. -1.
<mgrwt>
<rscale>  2 0.20843805E+03</rscale>
<asrwt>0</asrwt>
<pdfrwt beam="1">  1       21 0.20735068E-01 0.20843805E+03</pdfrwt>
<pdfrwt beam="2">  1       21 0.82258124E-01 0.20843805E+03</pdfrwt>
<totfact> 0.27611807E+04</totfact>
</mgrwt>
</event>
<event>
 4    1  0.3875622E-001  0.2049039E+03  0.7546771E-02  0.1145666E+00
         21   -1    0    0  501  502  0.00000000000E+00  0.00000000000E+00  0.52411284458E+03  0.52411284458E+03  0.00000000000E+00 0. -1.
         21   -1    0    0  502  503 -0.00000000000E+00 -0.00000000000E+00 -0.12279176017E+03  0.12279176017E+03  0.00000000000E+00 0.  1.
          6    1    1    2  501    0 -0.10591259559E+03 -0.28967805321E+02  0.39136338413E+03  0.44175888229E+03  0.17300000000E+03 0. -1.
         -6    1    1    2    0  503  0.10591259559E+03  0.28967805321E+02  0.99577002791E+01  0.20514572246E+03  0.17300000000E+03 0.  1.
<mgrwt>
<rscale>  2 0.20490391E+03</rscale>
<asrwt>0</asrwt>
<pdfrwt beam="1">  1       21 0.80632744E-01 0.20490391E+03</pdfrwt>
<pdfrwt beam="2">  1       21 0.18891040E-01 0.20490391E+03</pdfrwt>
<totfact> 0.34453505E+04</totfact>
</mgrwt>
</event>
<event>
 4    1  0.3875622E-001  0.2300426E+03  0.7546771E-02  0.1126610E+00
         21   -1    0    0  501  502  0.00000000000E+00  0.00000000000E+00  0.47067649614E+03  0.47067649614E+03  0.00000000000E+00 0.  1.
         21   -1    0    0  502  503 -0.00000000000E+00 -0.00000000000E+00 -0.14673526957E+03  0.14673526957E+03  0.00000000000E+00 0.  1.
          6    1    1    2  501    0  0.14575429575E+03 -0.41788687597E+02  0.31122893586E+03  0.38701816450E+03  0.17300000000E+03 0.  1.
         -6    1    1    2    0  503 -0.14575429575E+03  0.41788687597E+02  0.12712290717E+02  0.23039360121E+03  0.17300000000E+03 0.  1.
<mgrwt>
<rscale>  2 0.23004262E+03</rscale>
<asrwt>0</asrwt>
<pdfrwt beam="1">  1       21 0.72411768E-01 0.23004262E+03</pdfrwt>
<pdfrwt beam="2">  1       21 0.22574657E-01 0.23004262E+03</pdfrwt>
<totfact> 0.30994174E+04</totfact>
</mgrwt>
</event>
<event>
 4    1  0.3875622E-001  0.2330666E+03  0.7546771E-02  0.1124500E+00
         21   -1    0    0  501  502  0.00000000000E+00  0.00000000000E+00  0.59249313694E+03  0.59249313694E+03  0.00000000000E+00 0.  1.
         21   -1    0    0  502  503 -0.00000000000E+00 -0.00000000000E+00 -0.13518464594E+03  0.13518464594E+03  0.00000000000E+00 0. -1.
          6    1    1    2  501    0  0.14215428998E+03  0.64677572840E+02  0.43505489827E+03  0.49355120819E+03  0.17300000000E+03 0.  1.
         -6    1    1    2    0  503 -0.14215428998E+03 -0.64677572840E+02  0.22253592727E+02  0.23412657470E+03  0.17300000000E+03 0. -1.
<mgrwt>
<rscale>  2 0.23306658E+03</rscale>
<asrwt>0</asrwt>
<pdfrwt beam="1">  1       21 0.91152789E-01 0.23306658E+03</pdfrwt>
<pdfrwt beam="2">  1       21 0.20797638E-01 0.23306658E+03</pdfrwt>
<totfact> 0.21383208E+04</totfact>
</mgrwt>
</event>
<event>
 4    1  0.3875622E-001  0.2249202E+03  0.7546771E-02  0.1130267E+00
         21   -1    0    0  503  502  0.00000000000E+00  0.00000000000E+00  0.41735568821E+02  0.41735568821E+02  0.00000000000E+00 0.  1.
         21   -1    0    0  501  503 -0.00000000000E+00 -0.00000000000E+00 -0.14516253985E+04  0.14516253985E+04  0.00000000000E+00 0.  1.
          6    1    1    2  501    0 -0.19893284218E+02  0.14235297908E+03 -0.10082308236E+04  0.10330142821E+04  0.17300000000E+03 0.  1.
         -6    1    1    2    0  502  0.19893284218E+02 -0.14235297908E+03 -0.40165900610E+03  0.46034668522E+03  0.17300000000E+03 0.  1.
<mgrwt>
<rscale>  2 0.22492024E+03</rscale>
<asrwt>0</asrwt>
<pdfrwt beam="1">  1       21 0.64208565E-02 0.22492024E+03</pdfrwt>
<pdfrwt beam="2">  1       21 0.22332699E+00 0.22492024E+03</pdfrwt>
<totfact> 0.16424091E+04</totfact>
</mgrwt>
</event>
<event>
 4    1  0.3875622E-001  0.1939068E+03  0.7546771E-02  0.1154984E+00
         21   -1    0    0  503  502  0.00000000000E+00  0.00000000000E+00  0.23635783277E+03  0.23635783277E+03  0.00000000000E+00 0.  1.
         21   -1    0    0  501  503 -0.00000000000E+00 -0.00000000000E+00 -0.16009906753E+03  0.16009906753E+03  0.00000000000E+00 0.  1.
          6    1    1    2  501    0  0.20762924238E+01 -0.87558867042E+02  0.22316282179E+02  0.19518678910E+03  0.17300000000E+03 0.  1.
         -6    1    1    2    0  502 -0.20762924238E+01  0.87558867042E+02  0.53942483061E+02  0.20127011121E+03  0.17300000000E+03 0.  1.
<mgrwt>
<rscale>  2 0.19390685E+03</rscale>
<asrwt>0</asrwt>
<pdfrwt beam="1">  1       21 0.36362744E-01 0.19390685E+03</pdfrwt>
<pdfrwt beam="2">  1       21 0.24630626E-01 0.19390685E+03</pdfrwt>
<totfact> 0.11360769E+05</totfact>
</mgrwt>
</event>
<event>
 4    1  0.3875622E-001  0.2144582E+03  0.7546771E-02  0.1138083E+00
         21   -1    0    0  503  502  0.00000000000E+00  0.00000000000E+00  0.10171160532E+03  0.10171160532E+03  0.00000000000E+00 0.  1.
         21   -1    0    0  501  503 -0.00000000000E+00 -0.00000000000E+00 -0.59229293904E+03  0.59229293904E+03  0.00000000000E+00 0. -1.
          6    1    1    2  501    0 -0.63984192830E+01  0.12657959438E+03 -0.41406149268E+03  0.46630382070E+03  0.17300000000E+03 0. -1.
         -6    1    1    2    0  502  0.63984192830E+01 -0.12657959438E+03 -0.76519841042E+02  0.22770072366E+03  0.17300000000E+03 0.  1.
<mgrwt>
<rscale>  2 0.21445823E+03</rscale>
<asrwt>0</asrwt>
<pdfrwt beam="1">  1       21 0.15647940E-01 0.21445823E+03</pdfrwt>
<pdfrwt beam="2">  1       21 0.91121989E-01 0.21445823E+03</pdfrwt>
<totfact> 0.36644834E+04</totfact>
</mgrwt>
</event>
<event>
 4    1  0.3875622E-001  0.1921439E+03  0.7546771E-02  0.1156542E+00
         21   -1    0    0  503  502  0.00000000000E+00  0.00000000000E+00  0.35270240523E+03  0.35270240523E+03  0.00000000000E+00 0. -1.
         21   -1    0    0  501  503 -0.00000000000E+00 -0.00000000000E+00 -0.10467960022E+03  0.10467960022E+03  0.00000000000E+00 0. -1.
          6    1    1    2  501    0 -0.76687160664E+01 -0.83255337449E+02  0.12256037706E+03  0.22790416066E+03  0.17300000000E+03 0. -1.
         -6    1    1    2    0  502  0.76687160664E+01  0.83255337449E+02  0.12546242795E+03  0.22947784479E+03  0.17300000000E+03 0. -1.
<mgrwt>
<rscale>  2 0.19214385E+03</rscale>
<asrwt>0</asrwt>
<pdfrwt beam="1">  1       21 0.54261908E-01 0.19214385E+03</pdfrwt>
<pdfrwt beam="2">  1       21 0.16104554E-01 0.19214385E+03</pdfrwt>
<totfact> 0.11061023E+05</totfact>
</mgrwt>
</event>
<event>
 4    1  0.3875622E-001  0.2200096E+03  0.7546771E-02  0.1133876E+00
         21   -1    0    0  501  502  0.00000000000E+00  0.00000000000E+00  0.56611211136E+02  0.56611211136E+02  0.00000000000E+00 0.  1.
         21   -1    0    0  502  503 -0.00000000000E+00 -0.00000000000E+00 -0.15125001228E+04  0.15125001228E+04  0.00000000000E+00 0.  1.
          6    1    1    2  501    0 -0.84676032194E+02 -0.10632596470E+03 -0.21067800169E+03  0.30461362674E+03  0.17300000000E+03 0.  1.
         -6    1    1    2    0  503  0.84676032194E+02  0.10632596470E+03 -0.12452109100E+04  0.12644977072E+04  0.17300000000E+03 0.  1.
<mgrwt>
<rscale>  2 0.22000964E+03</rscale>
<asrwt>0</asrwt>
<pdfrwt beam="1">  1       21 0.87094158E-02 0.22000964E+03</pdfrwt>
<pdfrwt beam="2">  1       21 0.23269236E+00 0.22000964E+03</pdfrwt>
<totfact> 0.85066701E+03</totfact>
</mgrwt>
</event>
<event>
 4    1  0.3875622E-001  0.1888305E+03  0.7546771E-02  0.1159520E+00
         21   -1    0    0  501  502  0.00000000000E+00  0.00000000000E+00  0.19925659487E+02  0.19925659487E+02  0.00000000000E+00 0. -1.
         21   -1    0    0  502  503 -0.00000000000E+00 -0.00000000000E+00 -0.18705353750E+04  0.18705353750E+04  0.00000000000E+00 0. -1.
          6    1    1    2  501    0  0.71720171404E+02  0.24169829557E+02 -0.72856487303E+03  0.75263785306E+03  0.17300000000E+03 0. -1.
         -6    1    1    2    0  503 -0.71720171404E+02 -0.24169829557E+02 -0.11220448425E+04  0.11378231814E+04  0.17300000000E+03 0. -1.
<mgrwt>
<rscale>  2 0.18883052E+03</rscale>
<asrwt>0</asrwt>
<pdfrwt beam="1">  1       21 0.30654857E-02 0.18883052E+03</pdfrwt>
<pdfrwt beam="2">  1       21 0.28777471E+00 0.18883052E+03</pdfrwt>
<totfact> 0.24595363E+04</totfact>
</mgrwt>
</event>
<event>
 4    1  0.3875622E-001  0.1991255E+03  0.7546771E-02  0.1150479E+00
         21   -1    0    0  501  502  0.00000000000E+00  0.00000000000E+00  0.37485487353E+02  0.37485487353E+02  0.00000000000E+00 0.  1.
         21   -1    0    0  502  503 -0.00000000000E+00 -0.00000000000E+00 -0.10683580876E+04  0.10683580876E+04  0.00000000000E+00 0.  1.
          6    1    1    2  501    0  0.98369299417E+02 -0.67414402407E+01 -0.57048482748E+03  0.60423828451E+03  0.17300000000E+03 0.  1.
         -6    1    1    2    0  503 -0.98369299417E+02  0.67414402407E+01 -0.46038777275E+03  0.50160529042E+03  0.17300000000E+03 0.  1.
<mgrwt>
<rscale>  2 0.19912550E+03</rscale>
<asrwt>0</asrwt>
<pdfrwt beam="1">  1       21 0.57669979E-02 0.19912550E+03</pdfrwt>
<pdfrwt beam="2">  1       21 0.16436279E+00 0.19912550E+03</pdfrwt>
<totfact> 0.49184077E+04</totfact>
</mgrwt>
</event>
<event>
 4    1  0.3875622E-001  0.1838911E+03  0.7546771E-02  0.1164089E+00
         21   -1    0    0  501  502  0.00000000000E+00  0.00000000000E+00  0.30651475536E+03  0.30651475536E+03  0.00000000000E+00 0.  1.
         21   -1    0    0  502  503 -0.00000000000E+00 -0.00000000000E+00 -0.11242444737E+03  0.11242444737E+03  0.00000000000E+00 0.  1.
          6    1    1    2  501    0 -0.61196037210E+02 -0.11915298478E+02  0.12567691541E+03  0.22273440770E+03  0.17300000000E+03 0.  1.
         -6    1    1    2    0  503  0.61196037210E+02  0.11915298478E+02  0.68413392575E+02  0.19620479503E+03  0.17300000000E+03 0.  1.
<mgrwt>
<rscale>  2 0.18389108E+03</rscale>
<asrwt>0</asrwt>
<pdfrwt beam="1">  1       21 0.47156116E-01 0.18389108E+03</pdfrwt>
<pdfrwt beam="2">  1       21 0.17296069E-01 0.18389108E+03</pdfrwt>
<totfact> 0.13043125E+05</totfact>
</mgrwt>
</event>
<event>
 4    1  0.3875622E-001  0.2519153E+03  0.7546771E-02  0.1112100E+00
         21   -1    0    0  503  502  0.00000000000E+00  0.00000000000E+00  0.10589531551E+04  0.10589531551E+04  0.00000000000E+00 0.  1.
         21   -1    0    0  501  503 -0.00000000000E+00 -0.00000000000E+00 -0.76528606167E+02  0.76528606167E+02  0.00000000000E+00 0. -1.
          6    1    1    2  501    0  0.16941172144E+03 -0.69512365197E+02  0.22679133372E+03  0.33896254856E+03  0.17300000000E+03 0. -1.
         -6    1    1    2    0  502 -0.16941172144E+03  0.69512365197E+02  0.75563321516E+03  0.79651921266E+03  0.17300000000E+03 0.  1.
<mgrwt>
<rscale>  2 0.25191526E+03</rscale>
<asrwt>0</asrwt>
<pdfrwt beam="1">  1       21 0.16291586E+00 0.25191526E+03</pdfrwt>
<pdfrwt beam="2">  1       21 0.11773633E-01 0.25191526E+03</pdfrwt>
<totfact> 0.13992794E+04</totfact>
</mgrwt>
</event>
<event>
 4    1  0.3875622E-001  0.3110398E+03  0.7546771E-02  0.1079849E+00
         21   -1    0    0  503  502  0.00000000000E+00  0.00000000000E+00  0.24474413812E+03  0.24474413812E+03  0.00000000000E+00 0. -1.
         21   -1    0    0  501  503 -0.00000000000E+00 -0.00000000000E+00 -0.50959504455E+03  0.50959504455E+03  0.00000000000E+00 0.  1.
          6    1    1    2  501    0  0.11761819571E+03  0.23017968373E+03 -0.31105382298E+03  0.43988658488E+03  0.17300000000E+03 0.  1.
         -6    1    1    2    0  502 -0.11761819571E+03 -0.23017968373E+03  0.46202916544E+02  0.31445259780E+03  0.17300000000E+03 0. -1.
<mgrwt>
<rscale>  2 0.31103975E+03</rscale>
<asrwt>0</asrwt>
<pdfrwt beam="1">  1       21 0.37652945E-01 0.31103975E+03</pdfrwt>
<pdfrwt beam="2">  1       21 0.78399236E-01 0.31103975E+03</pdfrwt>
<totfact> 0.91612263E+03</totfact>
</mgrwt>
</event>
<event>
 4    1  0.3875622E-001  0.2109013E+03  0.7546771E-02  0.1140854E+00
         21   -1    0    0  501  502  0.00000000000E+00  0.00000000000E+00  0.18769583098E+03  0.18769583098E+03  0.00000000000E+00 0.  1.
         21   -1    0    0  502  503 -0.00000000000E+00 -0.00000000000E+00 -0.23792026426E+03  0.23792026426E+03  0.00000000000E+00 0.  1.
          6    1    1    2  501    0  0.10296070040E+03 -0.62844508749E+02 -0.38521445265E+02  0.21439039123E+03  0.17300000000E+03 0.  1.
         -6    1    1    2    0  503 -0.10296070040E+03  0.62844508749E+02 -0.11702988018E+02  0.21122570401E+03  0.17300000000E+03 0.  1.
<mgrwt>
<rscale>  2 0.21090125E+03</rscale>
<asrwt>0</asrwt>
<pdfrwt beam="1">  1       21 0.28876282E-01 0.21090125E+03</pdfrwt>
<pdfrwt beam="2">  1       21 0.36603118E-01 0.21090125E+03</pdfrwt>
<totfact> 0.81983663E+04</totfact>
</mgrwt>
</event>
<event>
 4    1  0.3875622E-001  0.2059672E+03  0.7546771E-02  0.1144800E+00
         21   -1    0    0  503  502  0.00000000000E+00  0.00000000000E+00  0.25755765278E+02  0.25755765278E+02  0.00000000000E+00 0.  1.
         21   -1    0    0  501  503 -0.00000000000E+00 -0.00000000000E+00 -0.25544768344E+04  0.25544768344E+04  0.00000000000E+00 0. -1.
          6    1    1    2  501    0 -0.79375933336E+02  0.78695339632E+02 -0.20332609620E+04  0.20436664686E+04  0.17300000000E+03 0. -1.
         -6    1    1    2    0  502  0.79375933336E+02 -0.78695339632E+02 -0.49546010709E+03  0.53656613105E+03  0.17300000000E+03 0.  1.
<mgrwt>
<rscale>  2 0.20596722E+03</rscale>
<asrwt>0</asrwt>
<pdfrwt beam="1">  1       21 0.39624257E-02 0.20596722E+03</pdfrwt>
<pdfrwt beam="2">  1       21 0.39299641E+00 0.20596722E+03</pdfrwt>
<totfact> 0.37653390E+03</totfact>
</mgrwt>
</event>
<event>
 4    1  0.3875622E-001  0.1823762E+03  0.7546771E-02  0.1165523E+00
         21   -1    0    0  503  502  0.00000000000E+00  0.00000000000E+00  0.24819293325E+03  0.24819293325E+03  0.00000000000E+00 0.  1.
         21   -1    0    0  501  503 -0.00000000000E+00 -0.00000000000E+00 -0.17554418144E+03  0.17554418144E+03  0.00000000000E+00 0.  1.
          6    1    1    2  501    0  0.57724019597E+02  0.26874472458E-01 -0.66728657123E+02  0.19420035232E+03  0.17300000000E+03 0.  1.
         -6    1    1    2    0  502 -0.57724019597E+02 -0.26874472458E-01  0.13937740893E+03  0.22953676237E+03  0.17300000000E+03 0.  1.
<mgrwt>
<rscale>  2 0.18237616E+03</rscale>
<asrwt>0</asrwt>
<pdfrwt beam="1">  1       21 0.38183528E-01 0.18237616E+03</pdfrwt>
<pdfrwt beam="2">  1       21 0.27006797E-01 0.18237616E+03</pdfrwt>
<totfact> 0.86753046E+04</totfact>
</mgrwt>
</event>
<event>
 4    1  0.3875622E-001  0.1815581E+03  0.7546771E-02  0.1166304E+00
         21   -1    0    0  503  502  0.00000000000E+00  0.00000000000E+00  0.22419112738E+03  0.22419112738E+03  0.00000000000E+00 0. -1.
         21   -1    0    0  501  503 -0.00000000000E+00 -0.00000000000E+00 -0.20138461870E+03  0.20138461870E+03  0.00000000000E+00 0. -1.
          6    1    1    2  501    0 -0.41419428440E+02 -0.36314880483E+02 -0.99142665692E+02  0.20686374201E+03  0.17300000000E+03 0. -1.
         -6    1    1    2    0  502  0.41419428440E+02  0.36314880483E+02  0.12194917437E+03  0.21871200407E+03  0.17300000000E+03 0. -1.
<mgrwt>
<rscale>  2 0.18155809E+03</rscale>
<asrwt>0</asrwt>
<pdfrwt beam="1">  1       21 0.34490943E-01 0.18155809E+03</pdfrwt>
<pdfrwt beam="2">  1       21 0.30982249E-01 0.18155809E+03</pdfrwt>
<totfact> 0.81429092E+04</totfact>
</mgrwt>
</event>
<event>
 4    1  0.3875622E-001  0.2531413E+03  0.7546771E-02  0.1111336E+00
         21   -1    0    0  503  502  0.00000000000E+00  0.00000000000E+00  0.12282268687E+03  0.12282268687E+03  0.00000000000E+00 0.  1.
         21   -1    0    0  501  503 -0.00000000000E+00 -0.00000000000E+00 -0.52527630490E+03  0.52527630490E+03  0.00000000000E+00 0. -1.
          6    1    1    2  501    0 -0.64727182346E+02  0.17309503578E+03 -0.17460753474E+03  0.30751957781E+03  0.17300000000E+03 0. -1.
         -6    1    1    2    0  502  0.64727182346E+02 -0.17309503578E+03 -0.22784608330E+03  0.34057941397E+03  0.17300000000E+03 0.  1.
<mgrwt>
<rscale>  2 0.25314126E+03</rscale>
<asrwt>0</asrwt>
<pdfrwt beam="1">  1       21 0.18895798E-01 0.25314126E+03</pdfrwt>
<pdfrwt beam="2">  1       21 0.80811741E-01 0.25314126E+03</pdfrwt>
<totfact> 0.33476968E+04</totfact>
</mgrwt>
</event>
<event>
 4    1  0.3875622E-001  0.2068107E+03  0.7546771E-02  0.1144117E+00
         21   -1    0    0  501  502  0.00000000000E+00  0.00000000000E+00  0.81899686940E+03  0.81899686940E+03  0.00000000000E+00 0. -1.
         21   -1    0    0  502  503 -0.00000000000E+00 -0.00000000000E+00 -0.93966834872E+02  0.93966834872E+02  0.00000000000E+00 0. -1.
          6    1    1    2  501    0  0.73228894437E+01 -0.11308417204E+03  0.66676547366E+03  0.69810232168E+03  0.17300000000E+03 0. -1.
         -6    1    1    2    0  503 -0.73228894437E+01  0.11308417204E+03  0.58264560867E+02  0.21486138259E+03  0.17300000000E+03 0. -1.
<mgrwt>
<rscale>  2 0.20681067E+03</rscale>
<asrwt>0</asrwt>
<pdfrwt beam="1">  1       21 0.12599951E+00 0.20681067E+03</pdfrwt>
<pdfrwt beam="2">  1       21 0.14456437E-01 0.20681067E+03</pdfrwt>
<totfact> 0.19438482E+04</totfact>
</mgrwt>
</event>
<event>
 4    1  0.3875622E-001  0.2337120E+03  0.7546771E-02  0.1124054E+00
         21   -1    0    0  501  502  0.00000000000E+00  0.00000000000E+00  0.85873314019E+03  0.85873314019E+03  0.00000000000E+00 0.  1.
         21   -1    0    0  502  503 -0.00000000000E+00 -0.00000000000E+00 -0.63938735807E+02  0.63938735807E+02  0.00000000000E+00 0.  1.
          6    1    1    2  501    0  0.27052796584E+02 -0.15479156417E+03  0.43063642487E+03  0.48996837915E+03  0.17300000000E+03 0.  1.
         -6    1    1    2    0  503 -0.27052796584E+02  0.15479156417E+03  0.36415797951E+03  0.43270349685E+03  0.17300000000E+03 0.  1.
<mgrwt>
<rscale>  2 0.23371196E+03</rscale>
<asrwt>0</asrwt>
<pdfrwt beam="1">  1       21 0.13211278E+00 0.23371196E+03</pdfrwt>
<pdfrwt beam="2">  1       21 0.98367292E-02 0.23371196E+03</pdfrwt>
<totfact> 0.33884187E+04</totfact>
</mgrwt>
</event>
<event>
 4    1  0.3875622E-001  0.2165176E+03  0.7546771E-02  0.1136506E+00
         21   -1    0    0  501  502  0.00000000000E+00  0.00000000000E+00  0.14378262563E+03  0.14378262563E+03  0.00000000000E+00 0. -1.
         21   -1    0    0  502  503 -0.00000000000E+00 -0.00000000000E+00 -0.32656232475E+03  0.32656232475E+03  0.00000000000E+00 0.  1.
          6    1    1    2  501    0  0.56019004144E+02  0.11752769818E+03 -0.82047441849E+02  0.23154194302E+03  0.17300000000E+03 0. -1.
         -6    1    1    2    0  503 -0.56019004144E+02 -0.11752769818E+03 -0.10073225727E+03  0.23880300735E+03  0.17300000000E+03 0.  1.
<mgrwt>
<rscale>  2 0.21651764E+03</rscale>
<asrwt>0</asrwt>
<pdfrwt beam="1">  1       21 0.22120404E-01 0.21651764E+03</pdfrwt>
<pdfrwt beam="2">  1       21 0.50240357E-01 0.21651764E+03</pdfrwt>
<totfact> 0.71328594E+04</totfact>
</mgrwt>
</event>
<event>
 4    1  0.3875622E-001  0.3175195E+03  0.7546771E-02  0.1076797E+00
         21   -1    0    0  503  502  0.00000000000E+00  0.00000000000E+00  0.65425769941E+03  0.65425769941E+03  0.00000000000E+00 0.  1.
         21   -1    0    0  501  503 -0.00000000000E+00 -0.00000000000E+00 -0.15433520579E+03  0.15433520579E+03  0.00000000000E+00 0.  1.
          6    1    1    2  501    0 -0.18616130917E+03  0.19035121980E+03  0.23405091914E+03  0.39445969713E+03  0.17300000000E+03 0.  1.
         -6    1    1    2    0  502  0.18616130917E+03 -0.19035121980E+03  0.26587157448E+03  0.41413320807E+03  0.17300000000E+03 0.  1.
<mgrwt>
<rscale>  2 0.31751948E+03</rscale>
<asrwt>0</asrwt>
<pdfrwt beam="1">  1       21 0.10065503E+00 0.31751948E+03</pdfrwt>
<pdfrwt beam="2">  1       21 0.23743878E-01 0.31751948E+03</pdfrwt>
<totfact> 0.12631203E+04</totfact>
</mgrwt>
</event>
<event>
 4    1  0.3875622E-001  0.2983969E+03  0.7546771E-02  0.1086045E+00
         21   -1    0    0  501  502  0.00000000000E+00  0.00000000000E+00  0.52370717094E+02  0.52370717094E+02  0.00000000000E+00 0.  1.
         21   -1    0    0  502  503 -0.00000000000E+00 -0.00000000000E+00 -0.26784703457E+04  0.26784703457E+04  0.00000000000E+00 0. -1.
          6    1    1    2  501    0  0.66317633679E+02  0.23390950107E+03 -0.48786259208E+03  0.57188337270E+03  0.17300000000E+03 0.  1.
         -6    1    1    2    0  503 -0.66317633679E+02 -0.23390950107E+03 -0.21382370366E+04  0.21589576901E+04  0.17300000000E+03 0. -1.
<mgrwt>
<rscale>  2 0.29839686E+03</rscale>
<asrwt>0</asrwt>
<pdfrwt beam="1">  1       21 0.80570313E-02 0.29839686E+03</pdfrwt>
<pdfrwt beam="2">  1       21 0.41207247E+00 0.29839686E+03</pdfrwt>
<totfact> 0.76008883E+02</totfact>
</mgrwt>
</event>
<event>
 4    1  0.3875622E-001  0.1761720E+03  0.7546771E-02  0.1171560E+00
         21   -1    0    0  503  502  0.00000000000E+00  0.00000000000E+00  0.18821148575E+03  0.18821148575E+03  0.00000000000E+00 0.  1.
         21   -1    0    0  501  503 -0.00000000000E+00 -0.00000000000E+00 -0.20656357041E+03  0.20656357041E+03  0.00000000000E+00 0.  1.
          6    1    1    2  501    0  0.36468775691E+01 -0.33079706685E+02 -0.97821694661E+02  0.20150843818E+03  0.17300000000E+03 0.  1.
         -6    1    1    2    0  502 -0.36468775691E+01  0.33079706685E+02  0.79469609999E+02  0.19326661798E+03  0.17300000000E+03 0.  1.
<mgrwt>
<rscale>  2 0.17617198E+03</rscale>
<asrwt>0</asrwt>
<pdfrwt beam="1">  1       21 0.28955613E-01 0.17617198E+03</pdfrwt>
<pdfrwt beam="2">  1       21 0.31779011E-01 0.17617198E+03</pdfrwt>
<totfact> 0.10935303E+05</totfact>
</mgrwt>
</event>
<event>
 4    1  0.3875622E-001  0.2254199E+03  0.7546771E-02  0.1129906E+00
         21   -1    0    0  501  502  0.00000000000E+00  0.00000000000E+00  0.63076339763E+03  0.63076339763E+03  0.00000000000E+00 0. -1.
         21   -1    0    0  502  503 -0.00000000000E+00 -0.00000000000E+00 -0.80697291366E+02  0.80697291366E+02  0.00000000000E+00 0. -1.
          6    1    1    2  501    0  0.11019060505E+03 -0.93504791774E+02  0.28972141659E+03  0.36708665837E+03  0.17300000000E+03 0. -1.
         -6    1    1    2    0  503 -0.11019060505E+03  0.93504791774E+02  0.26034468968E+03  0.34437403063E+03  0.17300000000E+03 0. -1.
<mgrwt>
<rscale>  2 0.22541986E+03</rscale>
<asrwt>0</asrwt>
<pdfrwt beam="1">  1       21 0.97040520E-01 0.22541986E+03</pdfrwt>
<pdfrwt beam="2">  1       21 0.12414968E-01 0.22541986E+03</pdfrwt>
<totfact> 0.47876196E+04</totfact>
</mgrwt>
</event>
<event>
 4    1  0.3875622E-001  0.2030321E+03  0.7546771E-02  0.1147206E+00
         21   -1    0    0  503  502  0.00000000000E+00  0.00000000000E+00  0.96170791317E+03  0.96170791317E+03  0.00000000000E+00 0. -1.
         21   -1    0    0  501  503 -0.00000000000E+00 -0.00000000000E+00 -0.53214330573E+02  0.53214330573E+02  0.00000000000E+00 0. -1.
          6    1    1    2  501    0 -0.82791741482E+02 -0.66622535056E+02  0.23043706095E+03  0.30712094310E+03  0.17300000000E+03 0. -1.
         -6    1    1    2    0  502  0.82791741482E+02  0.66622535056E+02  0.67805652165E+03  0.70780130064E+03  0.17300000000E+03 0. -1.
<mgrwt>
<rscale>  2 0.20303210E+03</rscale>
<asrwt>0</asrwt>
<pdfrwt beam="1">  1       21 0.14795505E+00 0.20303210E+03</pdfrwt>
<pdfrwt beam="2">  1       21 0.81868208E-02 0.20303210E+03</pdfrwt>
<totfact> 0.35496838E+04</totfact>
</mgrwt>
</event>
<event>
 4    1  0.3875622E-001  0.3908643E+03  0.7546771E-02  0.1046990E+00
         21   -1    0    0  503  502  0.00000000000E+00  0.00000000000E+00  0.13198680411E+04  0.13198680411E+04  0.00000000000E+00 0.  1.
         21   -1    0    0  501  503 -0.00000000000E+00 -0.00000000000E+00 -0.12229944374E+03  0.12229944374E+03  0.00000000000E+00 0. -1.
          6    1    1    2  501    0 -0.26768468847E+03 -0.22625383092E+03  0.43191686598E+03  0.58251786888E+03  0.17300000000E+03 0.  1.
         -6    1    1    2    0  502  0.26768468847E+03  0.22625383092E+03  0.76565173134E+03  0.85964961592E+03  0.17300000000E+03 0.  1.
<mgrwt>
<rscale>  2 0.39086428E+03</rscale>
<asrwt>0</asrwt>
<pdfrwt beam="1">  1       21 0.20305661E+00 0.39086428E+03</pdfrwt>
<pdfrwt beam="2">  1       21 0.18815300E-01 0.39086428E+03</pdfrwt>
<totfact> 0.28981025E+03</totfact>
</mgrwt>
</event>
<event>
 4    1  0.3875622E-001  0.2400466E+03  0.7546771E-02  0.1119762E+00
         21   -1    0    0  503  502  0.00000000000E+00  0.00000000000E+00  0.12770260671E+03  0.12770260671E+03  0.00000000000E+00 0.  1.
         21   -1    0    0  501  503 -0.00000000000E+00 -0.00000000000E+00 -0.45366096452E+03  0.45366096452E+03  0.00000000000E+00 0. -1.
          6    1    1    2  501    0 -0.15641209818E+03 -0.56820821129E+02 -0.18428842031E+03  0.30262943022E+03  0.17300000000E+03 0. -1.
         -6    1    1    2    0  502  0.15641209818E+03  0.56820821129E+02 -0.14166993750E+03  0.27873414101E+03  0.17300000000E+03 0. -1.
<mgrwt>
<rscale>  2 0.24004656E+03</rscale>
<asrwt>0</asrwt>
<pdfrwt beam="1">  1       21 0.19646555E-01 0.24004656E+03</pdfrwt>
<pdfrwt beam="2">  1       21 0.69793994E-01 0.24004656E+03</pdfrwt>
<totfact> 0.43514311E+04</totfact>
</mgrwt>
</event>
<event>
 4    1  0.3875622E-001  0.1772443E+03  0.7546771E-02  0.1170497E+00
         21   -1    0    0  503  502  0.00000000000E+00  0.00000000000E+00  0.53305735820E+03  0.53305735820E+03  0.00000000000E+00 0. -1.
         21   -1    0    0  501  503 -0.00000000000E+00 -0.00000000000E+00 -0.59675277433E+02  0.59675277433E+02  0.00000000000E+00 0.  1.
          6    1    1    2  501    0 -0.21847439761E+02  0.31768344918E+02  0.20367406559E+03  0.26999752472E+03  0.17300000000E+03 0.  1.
         -6    1    1    2    0  502  0.21847439761E+02 -0.31768344918E+02  0.26970801518E+03  0.32273511091E+03  0.17300000000E+03 0. -1.
<mgrwt>
<rscale>  2 0.17724429E+03</rscale>
<asrwt>0</asrwt>
<pdfrwt beam="1">  1       21 0.82008821E-01 0.17724429E+03</pdfrwt>
<pdfrwt beam="2">  1       21 0.91808123E-02 0.17724429E+03</pdfrwt>
<totfact> 0.12335151E+05</totfact>
</mgrwt>
</event>
<event>
 4    1  0.3875622E-001  0.2128304E+03  0.7546771E-02  0.1139344E+00
         21   -1    0    0  503  502  0.00000000000E+00  0.00000000000E+00  0.37804306068E+03  0.37804306068E+03  0.00000000000E+00 0. -1.
         21   -1    0    0  501  503 -0.00000000000E+00 -0.00000000000E+00 -0.12701555795E+03  0.12701555795E+03  0.00000000000E+00 0.  1.
          6    1    1    2  501    0  0.10943335364E+03 -0.58242005721E+02  0.65404424801E+02  0.22265338287E+03  0.17300000000E+03 0.  1.
         -6    1    1    2    0  502 -0.10943335364E+03  0.58242005721E+02  0.18562307793E+03  0.28240523575E+03  0.17300000000E+03 0. -1.
<mgrwt>
<rscale>  2 0.21283043E+03</rscale>
<asrwt>0</asrwt>
<pdfrwt beam="1">  1       21 0.58160470E-01 0.21283043E+03</pdfrwt>
<pdfrwt beam="2">  1       21 0.19540855E-01 0.21283043E+03</pdfrwt>
<totfact> 0.66165369E+04</totfact>
</mgrwt>
</event>
<event>
 4    1  0.3875622E-001  0.2063537E+03  0.7546771E-02  0.1144486E+00
         21   -1    0    0  503  502  0.00000000000E+00  0.00000000000E+00  0.47684893622E+03  0.47684893622E+03  0.00000000000E+00 0. -1.
         21   -1    0    0  501  503 -0.00000000000E+00 -0.00000000000E+00 -0.92248965694E+02  0.92248965694E+02  0.00000000000E+00 0. -1.
          6    1    1    2  501    0  0.48923501907E+02 -0.10128837631E+03  0.14141035244E+03  0.25015741443E+03  0.17300000000E+03 0. -1.
         -6    1    1    2    0  502 -0.48923501907E+02  0.10128837631E+03  0.24318961808E+03  0.31894048748E+03  0.17300000000E+03 0. -1.
<mgrwt>
<rscale>  2 0.20635369E+03</rscale>
<asrwt>0</asrwt>
<pdfrwt beam="1">  1       21 0.73361374E-01 0.20635369E+03</pdfrwt>
<pdfrwt beam="2">  1       21 0.14192149E-01 0.20635369E+03</pdfrwt>
<totfact> 0.72002451E+04</totfact>
</mgrwt>
</event>
<event>
 4    1  0.3875622E-001  0.2964264E+03  0.7546771E-02  0.1087041E+00
         21   -1    0    0  501  502  0.00000000000E+00  0.00000000000E+00  0.30081101890E+03  0.30081101890E+03  0.00000000000E+00 0. -1.
         21   -1    0    0  502  503 -0.00000000000E+00 -0.00000000000E+00 -0.35830642230E+03  0.35830642230E+03  0.00000000000E+00 0. -1.
          6    1    1    2  501    0  0.14218523763E+03 -0.19422407332E+03 -0.17040425362E+03  0.34191554821E+03  0.17300000000E+03 0. -1.
         -6    1    1    2    0  503 -0.14218523763E+03  0.19422407332E+03  0.11290885021E+03  0.31720189299E+03  0.17300000000E+03 0. -1.
<mgrwt>
<rscale>  2 0.29642644E+03</rscale>
<asrwt>0</asrwt>
<pdfrwt beam="1">  1       21 0.46278619E-01 0.29642644E+03</pdfrwt>
<pdfrwt beam="2">  1       21 0.55124065E-01 0.29642644E+03</pdfrwt>
<totfact> 0.13131850E+04</totfact>
</mgrwt>
</event>
<event>
 4    1  0.3875622E-001  0.2445765E+03  0.7546771E-02  0.1116781E+00
         21   -1    0    0  503  502  0.00000000000E+00  0.00000000000E+00  0.90775028805E+03  0.90775028805E+03  0.00000000000E+00 0.  1.
         21   -1    0    0  501  503 -0.00000000000E+00 -0.00000000000E+00 -0.10570133467E+03  0.10570133467E+03  0.00000000000E+00 0.  1.
          6    1    1    2  501    0 -0.17192331869E+03  0.18194166439E+02  0.90067595015E+02  0.26063351065E+03  0.17300000000E+03 0.  1.
         -6    1    1    2    0  502  0.17192331869E+03 -0.18194166439E+02  0.71198135836E+03  0.75281811207E+03  0.17300000000E+03 0.  1.
<mgrwt>
<rscale>  2 0.24457648E+03</rscale>
<asrwt>0</asrwt>
<pdfrwt beam="1">  1       21 0.13965389E+00 0.24457648E+03</pdfrwt>
<pdfrwt beam="2">  1       21 0.16261744E-01 0.24457648E+03</pdfrwt>
<totfact> 0.11777127E+04</totfact>
</mgrwt>
</event>
<event>
 4    1  0.3875622E-001  0.1815712E+03  0.7546771E-02  0.1166291E+00
         21   -1    0    0  503  502  0.00000000000E+00  0.00000000000E+00  0.13166405601E+03  0.13166405601E+03  0.00000000000E+00 0.  1.
         21   -1    0    0  501  503 -0.00000000000E+00 -0.00000000000E+00 -0.25172593919E+03  0.25172593919E+03  0.00000000000E+00 0. -1.
          6    1    1    2  501    0 -0.55055984036E+02 -0.28166978835E+01 -0.73966820246E+02  0.19605913818E+03  0.17300000000E+03 0. -1.
         -6    1    1    2    0  502  0.55055984036E+02  0.28166978835E+01 -0.46095062939E+02  0.18733085702E+03  0.17300000000E+03 0.  1.
<mgrwt>
<rscale>  2 0.18157118E+03</rscale>
<asrwt>0</asrwt>
<pdfrwt beam="1">  1       21 0.20256009E-01 0.18157118E+03</pdfrwt>
<pdfrwt beam="2">  1       21 0.38727067E-01 0.18157118E+03</pdfrwt>
<totfact> 0.14544297E+05</totfact>
</mgrwt>
</event>
<event>
 4    1  0.3875622E-001  0.1851148E+03  0.7546771E-02  0.1162943E+00
         21   -1    0    0  503  502  0.00000000000E+00  0.00000000000E+00  0.68294763871E+03  0.68294763871E+03  0.00000000000E+00 0.  1.
         21   -1    0    0  501  503 -0.00000000000E+00 -0.00000000000E+00 -0.50238669150E+02  0.50238669150E+02  0.00000000000E+00 0.  1.
          6    1    1    2  501    0  0.64775941558E+02 -0.11940852728E+02  0.30339558666E+03  0.35541016949E+03  0.17300000000E+03 0.  1.
         -6    1    1    2    0  502 -0.64775941558E+02  0.11940852728E+02  0.32931338290E+03  0.37777613837E+03  0.17300000000E+03 0.  1.
<mgrwt>
<rscale>  2 0.18511485E+03</rscale>
<asrwt>0</asrwt>
<pdfrwt beam="1">  1       21 0.10506886E+00 0.18511485E+03</pdfrwt>
<pdfrwt beam="2">  1       21 0.77290265E-02 0.18511485E+03</pdfrwt>
<totfact> 0.93239749E+04</totfact>
</mgrwt>
</event>
<event>
 4    1  0.3875622E-001  0.2019079E+03  0.7546771E-02  0.1148139E+00
         21   -1    0    0  501  502  0.00000000000E+00  0.00000000000E+00  0.71663590521E+02  0.71663590521E+02  0.00000000000E+00 0.  1.
         21   -1    0    0  502  503 -0.00000000000E+00 -0.00000000000E+00 -0.57947160721E+03  0.57947160721E+03  0.00000000000E+00 0. -1.
          6    1    1    2  501    0 -0.10194395756E+03  0.21100423816E+02 -0.20985412358E+03  0.29121392747E+03  0.17300000000E+03 0. -1.
         -6    1    1    2    0  503  0.10194395756E+03 -0.21100423816E+02 -0.29795389310E+03  0.35992127026E+03  0.17300000000E+03 0. -1.
<mgrwt>
<rscale>  2 0.20190790E+03</rscale>
<asrwt>0</asrwt>
<pdfrwt beam="1">  1       21 0.11025168E-01 0.20190790E+03</pdfrwt>
<pdfrwt beam="2">  1       21 0.89149477E-01 0.20190790E+03</pdfrwt>
<totfact> 0.72987275E+04</totfact>
</mgrwt>
</event>
<event>
 4    1  0.3875622E-001  0.1973782E+03  0.7546771E-02  0.1151970E+00
         21   -1    0    0  501  502  0.00000000000E+00  0.00000000000E+00  0.11404878026E+04  0.11404878026E+04  0.00000000000E+00 0.  1.
         21   -1    0    0  502  503 -0.00000000000E+00 -0.00000000000E+00 -0.34235985029E+02  0.34235985029E+02  0.00000000000E+00 0. -1.
          6    1    1    2  501    0  0.13481613532E+02 -0.94060677651E+02  0.58094018848E+03  0.61355494259E+03  0.17300000000E+03 0. -1.
         -6    1    1    2    0  503 -0.13481613532E+02  0.94060677651E+02  0.52531162905E+03  0.56116884500E+03  0.17300000000E+03 0.  1.
<mgrwt>
<rscale>  2 0.19737823E+03</rscale>
<asrwt>0</asrwt>
<pdfrwt beam="1">  1       21 0.17545963E+00 0.19737823E+03</pdfrwt>
<pdfrwt beam="2">  1       21 0.52670755E-02 0.19737823E+03</pdfrwt>
<totfact> 0.47998360E+04</totfact>
</mgrwt>
</event>
<event>
 4    1  0.3875622E-001  0.1910416E+03  0.7546771E-02  0.1157525E+00
         21   -1    0    0  501  502  0.00000000000E+00  0.00000000000E+00  0.99251318468E+02  0.99251318468E+02  0.00000000000E+00 0. -1.
         21   -1    0    0  502  503 -0.00000000000E+00 -0.00000000000E+00 -0.39787080099E+03  0.39787080099E+03  0.00000000000E+00 0.  1.
          6    1    1    2  501    0  0.75581534977E+02 -0.29246257017E+02 -0.80887747207E+02  0.20746021215E+03  0.17300000000E+03 0. -1.
         -6    1    1    2    0  503 -0.75581534977E+02  0.29246257017E+02 -0.21773173531E+03  0.28966190730E+03  0.17300000000E+03 0.  1.
<mgrwt>
<rscale>  2 0.19104165E+03</rscale>
<asrwt>0</asrwt>
<pdfrwt beam="1">  1       21 0.15269434E-01 0.19104165E+03</pdfrwt>
<pdfrwt beam="2">  1       21 0.61210891E-01 0.19104165E+03</pdfrwt>
<totfact> 0.94327385E+04</totfact>
</mgrwt>
</event>
<event>
 4    1  0.3875622E-001  0.2470977E+03  0.7546771E-02  0.1115153E+00
         21   -1    0    0  501  502  0.00000000000E+00  0.00000000000E+00  0.11752518163E+04  0.11752518163E+04  0.00000000000E+00 0.  1.
         21   -1    0    0  502  503 -0.00000000000E+00 -0.00000000000E+00 -0.51955181244E+02  0.51955181244E+02  0.00000000000E+00 0. -1.
          6    1    1    2  501    0 -0.17464973660E+03  0.25015083948E+02  0.56604586323E+03  0.61762869445E+03  0.17300000000E+03 0. -1.
         -6    1    1    2    0  503  0.17464973660E+03 -0.25015083948E+02  0.55725077187E+03  0.60957830315E+03  0.17300000000E+03 0.  1.
<mgrwt>
<rscale>  2 0.24709772E+03</rscale>
<asrwt>0</asrwt>
<pdfrwt beam="1">  1       21 0.18080795E+00 0.24709772E+03</pdfrwt>
<pdfrwt beam="2">  1       21 0.79931057E-02 0.24709772E+03</pdfrwt>
<totfact> 0.20837597E+04</totfact>
</mgrwt>
</event>
<event>
 4    1  0.3875622E-001  0.3126449E+03  0.7546771E-02  0.1079085E+00
         21   -1    0    0  503  502  0.00000000000E+00  0.00000000000E+00  0.12090945974E+03  0.12090945974E+03  0.00000000000E+00 0. -1.
         21   -1    0    0  501  503 -0.00000000000E+00 -0.00000000000E+00 -0.10037312488E+04  0.10037312488E+04  0.00000000000E+00 0. -1.
          6    1    1    2  501    0 -0.64132052170E+02  0.25239834909E+03 -0.68945418231E+03  0.75702966669E+03  0.17300000000E+03 0.  1.
         -6    1    1    2    0  502  0.64132052170E+02 -0.25239834909E+03 -0.19336760673E+03  0.36761104183E+03  0.17300000000E+03 0.  1.
<mgrwt>
<rscale>  2 0.31264492E+03</rscale>
<asrwt>0</asrwt>
<pdfrwt beam="1">  1       21 0.18601455E-01 0.31264492E+03</pdfrwt>
<pdfrwt beam="2">  1       21 0.15442019E+00 0.31264492E+03</pdfrwt>
<totfact> 0.67698900E+03</totfact>
</mgrwt>
</event>
<event>
 4    1  0.3875622E-001  0.1814934E+03  0.7546771E-02  0.1166366E+00
         21   -1    0    0  503  502  0.00000000000E+00  0.00000000000E+00  0.13265269120E+03  0.13265269120E+03  0.00000000000E+00 0.  1.
         21   -1    0    0  501  503 -0.00000000000E+00 -0.00000000000E+00 -0.24854399933E+03  0.24854399933E+03  0.00000000000E+00 0.  1.
          6    1    1    2  501    0  0.39371099591E+02 -0.38219989036E+02 -0.63712181812E+02  0.19235148337E+03  0.17300000000E+03 0.  1.
         -6    1    1    2    0  502 -0.39371099591E+02  0.38219989036E+02 -0.52179126314E+02  0.18884520716E+03  0.17300000000E+03 0.  1.
<mgrwt>
<rscale>  2 0.18149339E+03</rscale>
<asrwt>0</asrwt>
<pdfrwt beam="1">  1       21 0.20408106E-01 0.18149339E+03</pdfrwt>
<pdfrwt beam="2">  1       21 0.38237538E-01 0.18149339E+03</pdfrwt>
<totfact> 0.14713498E+05</totfact>
</mgrwt>
</event>
<event>
 4    1  0.3875622E-001  0.2790967E+03  0.7546771E-02  0.1096183E+00
         21   -1    0    0  503  502  0.00000000000E+00  0.00000000000E+00  0.44961832633E+03  0.44961832633E+03  0.00000000000E+00 0. -1.
         21   -1    0    0  501  503 -0.00000000000E+00 -0.00000000000E+00 -0.24959690555E+03  0.24959690555E+03  0.00000000000E+00 0.  1.
          6    1    1    2  501    0  0.70979488073E+02 -0.20719040663E+03 -0.93349008370E+02  0.29429405310E+03  0.17300000000E+03 0.  1.
         -6    1    1    2    0  502 -0.70979488073E+02  0.20719040663E+03  0.29337042915E+03  0.40492117878E+03  0.17300000000E+03 0. -1.
<mgrwt>
<rscale>  2 0.27909667E+03</rscale>
<asrwt>0</asrwt>
<pdfrwt beam="1">  1       21 0.69172050E-01 0.27909667E+03</pdfrwt>
<pdfrwt beam="2">  1       21 0.38399524E-01 0.27909667E+03</pdfrwt>
<totfact> 0.11841105E+04</totfact>
</mgrwt>
</event>
<event>
 4    1  0.3875622E-001  0.1765428E+03  0.7546771E-02  0.1171191E+00
         21   -1    0    0  503  502  0.00000000000E+00  0.00000000000E+00  0.16114708600E+03  0.16114708600E+03  0.00000000000E+00 0. -1.
         21   -1    0    0  501  503 -0.00000000000E+00 -0.00000000000E+00 -0.35168321811E+03  0.35168321811E+03  0.00000000000E+00 0. -1.
          6    1    1    2  501    0  0.20326286409E+02 -0.28726540492E+02 -0.26728543861E+03  0.32032620520E+03  0.17300000000E+03 0. -1.
         -6    1    1    2    0  502 -0.20326286409E+02  0.28726540492E+02  0.76749306495E+02  0.19250409891E+03  0.17300000000E+03 0. -1.
<mgrwt>
<rscale>  2 0.17654283E+03</rscale>
<asrwt>0</asrwt>
<pdfrwt beam="1">  1       21 0.24791859E-01 0.17654283E+03</pdfrwt>
<pdfrwt beam="2">  1       21 0.54105110E-01 0.17654283E+03</pdfrwt>
<totfact> 0.50080573E+04</totfact>
</mgrwt>
</event>
<event>
 4    1  0.3875622E-001  0.1920368E+03  0.7546771E-02  0.1156637E+00
         21   -1    0    0  503  502  0.00000000000E+00  0.00000000000E+00  0.20222464020E+03  0.20222464020E+03  0.00000000000E+00 0.  1.
         21   -1    0    0  501  503 -0.00000000000E+00 -0.00000000000E+00 -0.18753044894E+03  0.18753044894E+03  0.00000000000E+00 0.  1.
          6    1    1    2  501    0 -0.65209418148E+02 -0.51931506978E+02 -0.25004342703E+02  0.19365786012E+03  0.17300000000E+03 0. -1.
         -6    1    1    2    0  502  0.65209418148E+02  0.51931506978E+02  0.39698533957E+02  0.19609722902E+03  0.17300000000E+03 0. -1.
<mgrwt>
<rscale>  2 0.19203684E+03</rscale>
<asrwt>0</asrwt>
<pdfrwt beam="1">  1       21 0.31111483E-01 0.19203684E+03</pdfrwt>
<pdfrwt beam="2">  1       21 0.28850838E-01 0.19203684E+03</pdfrwt>
<totfact> 0.11414418E+05</totfact>
</mgrwt>
</event>
<event>
 4    1  0.3875622E-001  0.1983477E+03  0.7546771E-02  0.1151141E+00
         21   -1    0    0  503  502  0.00000000000E+00  0.00000000000E+00  0.71631860904E+03  0.71631860904E+03  0.00000000000E+00 0.  1.
         21   -1    0    0  501  503 -0.00000000000E+00 -0.00000000000E+00 -0.55041643403E+02  0.55041643403E+02  0.00000000000E+00 0. -1.
          6    1    1    2  501    0 -0.68493705259E+02  0.68712638578E+02  0.31267416464E+03  0.37027955331E+03  0.17300000000E+03 0.  1.
         -6    1    1    2    0  502  0.68493705259E+02 -0.68712638578E+02  0.34860280099E+03  0.40108069914E+03  0.17300000000E+03 0.  1.
<mgrwt>
<rscale>  2 0.19834771E+03</rscale>
<asrwt>0</asrwt>
<pdfrwt beam="1">  1       21 0.11020286E+00 0.19834771E+03</pdfrwt>
<pdfrwt beam="2">  1       21 0.84679457E-02 0.19834771E+03</pdfrwt>
<totfact> 0.70468066E+04</totfact>
</mgrwt>
</event>
<event>
 4    1  0.3875622E-001  0.1982994E+03  0.7546771E-02  0.1151182E+00
         21   -1    0    0  501  502  0.00000000000E+00  0.00000000000E+00  0.24313406512E+02  0.24313406512E+02  0.00000000000E+00 0.  1.
         21   -1    0    0  502  503 -0.00000000000E+00 -0.00000000000E+00 -0.16867400662E+04  0.16867400662E+04  0.00000000000E+00 0. -1.
          6    1    1    2  501    0  0.92815028489E+02 -0.27910941885E+02 -0.65765708848E+03  0.68690282880E+03  0.17300000000E+03 0.  1.
         -6    1    1    2    0  503 -0.92815028489E+02  0.27910941885E+02 -0.10047695712E+04  0.10241506439E+04  0.17300000000E+03 0.  1.
<mgrwt>
<rscale>  2 0.19829940E+03</rscale>
<asrwt>0</asrwt>
<pdfrwt beam="1">  1       21 0.37405233E-02 0.19829940E+03</pdfrwt>
<pdfrwt beam="2">  1       21 0.25949853E+00 0.19829940E+03</pdfrwt>
<totfact> 0.25522207E+04</totfact>
</mgrwt>
</event>
<event>
 4    1  0.3875622E-001  0.2203762E+03  0.7546771E-02  0.1133603E+00
         21   -1    0    0  503  502  0.00000000000E+00  0.00000000000E+00  0.82096225247E+03  0.82096225247E+03  0.00000000000E+00 0.  1.
         21   -1    0    0  501  503 -0.00000000000E+00 -0.00000000000E+00 -0.59350757310E+02  0.59350757310E+02  0.00000000000E+00 0. -1.
          6    1    1    2  501    0  0.96246879458E+02  0.96815344281E+02  0.40595419225E+03  0.46191393019E+03  0.17300000000E+03 0. -1.
         -6    1    1    2    0  502 -0.96246879458E+02 -0.96815344281E+02  0.35565730291E+03  0.41839907960E+03  0.17300000000E+03 0.  1.
<mgrwt>
<rscale>  2 0.22037621E+03</rscale>
<asrwt>0</asrwt>
<pdfrwt beam="1">  1       21 0.12630188E+00 0.22037621E+03</pdfrwt>
<pdfrwt beam="2">  1       21 0.91308863E-02 0.22037621E+03</pdfrwt>
<totfact> 0.43612106E+04</totfact>
</mgrwt>
</event>
<event>
 4    1  0.3875622E-001  0.1751356E+03  0.7546771E-02  0.1172596E+00
         21   -1    0    0  501  502  0.00000000000E+00  0.00000000000E+00  0.34161612674E+02  0.34161612674E+02  0.00000000000E+00 0. -1.
         21   -1    0    0  502  503 -0.00000000000E+00 -0.00000000000E+00 -0.89895325086E+03  0.89895325086E+03  0.00000000000E+00 0. -1.
          6    1    1    2  501    0  0.27226848566E+02  0.14727895286E+01 -0.44863893791E+03  0.48161121976E+03  0.17300000000E+03 0. -1.
         -6    1    1    2    0  503 -0.27226848566E+02 -0.14727895286E+01 -0.41615270027E+03  0.45150364377E+03  0.17300000000E+03 0. -1.
<mgrwt>
<rscale>  2 0.17513558E+03</rscale>
<asrwt>0</asrwt>
<pdfrwt beam="1">  1       21 0.52556337E-02 0.17513558E+03</pdfrwt>
<pdfrwt beam="2">  1       21 0.13830047E+00 0.17513558E+03</pdfrwt>
<totfact> 0.92030955E+04</totfact>
</mgrwt>
</event>
<event>
 4    1  0.3875622E-001  0.1745735E+03  0.7546771E-02  0.1173161E+00
         21   -1    0    0  503  502  0.00000000000E+00  0.00000000000E+00  0.38168436473E+03  0.38168436473E+03  0.00000000000E+00 0. -1.
         21   -1    0    0  501  503 -0.00000000000E+00 -0.00000000000E+00 -0.92811766967E+02  0.92811766967E+02  0.00000000000E+00 0. -1.
          6    1    1    2  501    0  0.22243070574E+02  0.72220642245E+01  0.55760974879E+02  0.18326264955E+03  0.17300000000E+03 0. -1.
         -6    1    1    2    0  502 -0.22243070574E+02 -0.72220642245E+01  0.23311162288E+03  0.29123348214E+03  0.17300000000E+03 0. -1.
<mgrwt>
<rscale>  2 0.17457352E+03</rscale>
<asrwt>0</asrwt>
<pdfrwt beam="1">  1       21 0.58720671E-01 0.17457352E+03</pdfrwt>
<pdfrwt beam="2">  1       21 0.14278734E-01 0.17457352E+03</pdfrwt>
<totfact> 0.11719942E+05</totfact>
</mgrwt>
</event>
<event>
 4    1  0.3875622E-001  0.1768634E+03  0.7546771E-02  0.1170874E+00
         21   -1    0    0  503  502  0.00000000000E+00  0.00000000000E+00  0.83555402636E+02  0.83555402636E+02  0.00000000000E+00 0.  1.
         21   -1    0    0  501  503 -0.00000000000E+00 -0.00000000000E+00 -0.41461842609E+03  0.41461842609E+03  0.00000000000E+00 0.  1.
          6    1    1    2  501    0 -0.33833930278E+02 -0.14384585123E+02 -0.24313836834E+03  0.30066080105E+03  0.17300000000E+03 0.  1.
         -6    1    1    2    0  502  0.33833930278E+02  0.14384585123E+02 -0.87924655120E+02  0.19751302768E+03  0.17300000000E+03 0.  1.
<mgrwt>
<rscale>  2 0.17686337E+03</rscale>
<asrwt>0</asrwt>
<pdfrwt beam="1">  1       21 0.12854677E-01 0.17686337E+03</pdfrwt>
<pdfrwt beam="2">  1       21 0.63787450E-01 0.17686337E+03</pdfrwt>
<totfact> 0.11845135E+05</totfact>
</mgrwt>
</event>
<event>
 4    1  0.3875622E-001  0.1856508E+03  0.7546771E-02  0.1162444E+00
         21   -1    0    0  503  502  0.00000000000E+00  0.00000000000E+00  0.40409996031E+03  0.40409996031E+03  0.00000000000E+00 0. -1.
         21   -1    0    0  501  503 -0.00000000000E+00 -0.00000000000E+00 -0.93587322958E+02  0.93587322958E+02  0.00000000000E+00 0. -1.
          6    1    1    2  501    0  0.43123257103E+02 -0.51745715085E+02  0.22934493665E+03  0.29506835530E+03  0.17300000000E+03 0. -1.
         -6    1    1    2    0  502 -0.43123257103E+02  0.51745715085E+02  0.81167700699E+02  0.20261892796E+03  0.17300000000E+03 0. -1.
<mgrwt>
<rscale>  2 0.18565084E+03</rscale>
<asrwt>0</asrwt>
<pdfrwt beam="1">  1       21 0.62169224E-01 0.18565084E+03</pdfrwt>
<pdfrwt beam="2">  1       21 0.14398050E-01 0.18565084E+03</pdfrwt>
<totfact> 0.10171257E+05</totfact>
</mgrwt>
</event>
<event>
 4    1  0.3875622E-001  0.1783500E+03  0.7546771E-02  0.1169410E+00
         21   -1    0    0  501  502  0.00000000000E+00  0.00000000000E+00  0.13287653606E+04  0.13287653606E+04  0.00000000000E+00 0. -1.
         21   -1    0    0  502  503 -0.00000000000E+00 -0.00000000000E+00 -0.27001400317E+02  0.27001400317E+02  0.00000000000E+00 0. -1.
          6    1    1    2  501    0 -0.24375591502E+02  0.35854402312E+02  0.87919210805E+03  0.89709947636E+03  0.17300000000E+03 0. -1.
         -6    1    1    2    0  503  0.24375591502E+02 -0.35854402312E+02  0.42257185226E+03  0.45866728459E+03  0.17300000000E+03 0. -1.
<mgrwt>
<rscale>  2 0.17834996E+03</rscale>
<asrwt>0</asrwt>
<pdfrwt beam="1">  1       21 0.20442539E+00 0.17834996E+03</pdfrwt>
<pdfrwt beam="2">  1       21 0.41540626E-02 0.17834996E+03</pdfrwt>
<totfact> 0.46724388E+04</totfact>
</mgrwt>
</event>
<event>
 4    1  0.3875622E-001  0.1779183E+03  0.7546771E-02  0.1169833E+00
         21   -1    0    0  501  502  0.00000000000E+00  0.00000000000E+00  0.73931623761E+02  0.73931623761E+02  0.00000000000E+00 0. -1.
         21   -1    0    0  502  503 -0.00000000000E+00 -0.00000000000E+00 -0.47146371422E+03  0.47146371422E+03  0.00000000000E+00 0. -1.
          6    1    1    2  501    0  0.36535575490E+02  0.19775800177E+02 -0.28140693830E+03  0.33293362022E+03  0.17300000000E+03 0.  1.
         -6    1    1    2    0  503 -0.36535575490E+02 -0.19775800177E+02 -0.11612515215E+03  0.21246171776E+03  0.17300000000E+03 0.  1.
<mgrwt>
<rscale>  2 0.17791833E+03</rscale>
<asrwt>0</asrwt>
<pdfrwt beam="1">  1       21 0.11374096E-01 0.17791833E+03</pdfrwt>
<pdfrwt beam="2">  1       21 0.72532881E-01 0.17791833E+03</pdfrwt>
<totfact> 0.11121640E+05</totfact>
</mgrwt>
</event>
<event>
 4    1  0.3875622E-001  0.2825138E+03  0.7546771E-02  0.1094324E+00
         21   -1    0    0  501  502  0.00000000000E+00  0.00000000000E+00  0.66034872932E+03  0.66034872932E+03  0.00000000000E+00 0. -1.
         21   -1    0    0  502  503 -0.00000000000E+00 -0.00000000000E+00 -0.25536354350E+03  0.25536354350E+03  0.00000000000E+00 0.  1.
          6    1    1    2  501    0 -0.20858792949E+03  0.79850559516E+02  0.53477394472E+03  0.60481171296E+03  0.17300000000E+03 0. -1.
         -6    1    1    2    0  503  0.20858792949E+03 -0.79850559516E+02 -0.12978875890E+03  0.31090055986E+03  0.17300000000E+03 0.  1.
<mgrwt>
<rscale>  2 0.28251378E+03</rscale>
<asrwt>0</asrwt>
<pdfrwt beam="1">  1       21 0.10159211E+00 0.28251378E+03</pdfrwt>
<pdfrwt beam="2">  1       21 0.39286699E-01 0.28251378E+03</pdfrwt>
<totfact> 0.46479671E+03</totfact>
</mgrwt>
</event>
<event>
 4    1  0.3875622E-001  0.1948160E+03  0.7546771E-02  0.1154188E+00
         21   -1    0    0  503  502  0.00000000000E+00  0.00000000000E+00  0.48147301859E+03  0.48147301859E+03  0.00000000000E+00 0.  1.
         21   -1    0    0  501  503 -0.00000000000E+00 -0.00000000000E+00 -0.82940296158E+02  0.82940296158E+02  0.00000000000E+00 0.  1.
          6    1    1    2  501    0 -0.77827139672E+02 -0.44353198662E+02  0.26210950937E+03  0.32658025783E+03  0.17300000000E+03 0.  1.
         -6    1    1    2    0  502  0.77827139672E+02  0.44353198662E+02  0.13642321306E+03  0.23783305692E+03  0.17300000000E+03 0.  1.
<mgrwt>
<rscale>  2 0.19481599E+03</rscale>
<asrwt>0</asrwt>
<pdfrwt beam="1">  1       21 0.74072771E-01 0.19481599E+03</pdfrwt>
<pdfrwt beam="2">  1       21 0.12760046E-01 0.19481599E+03</pdfrwt>
<totfact> 0.85846151E+04</totfact>
</mgrwt>
</event>
<event>
 4    1  0.3875622E-001  0.2193174E+03  0.7546771E-02  0.1134393E+00
         21   -1    0    0  501  502  0.00000000000E+00  0.00000000000E+00  0.18437257495E+03  0.18437257495E+03  0.00000000000E+00 0.  1.
         21   -1    0    0  502  503 -0.00000000000E+00 -0.00000000000E+00 -0.27286320619E+03  0.27286320619E+03  0.00000000000E+00 0.  1.
          6    1    1    2  501    0  0.70704278919E+02  0.11476951391E+03  0.36534214551E+01  0.21934786042E+03  0.17300000000E+03 0.  1.
         -6    1    1    2    0  503 -0.70704278919E+02 -0.11476951391E+03 -0.92144052694E+02  0.23788792073E+03  0.17300000000E+03 0.  1.
<mgrwt>
<rscale>  2 0.21931743E+03</rscale>
<asrwt>0</asrwt>
<pdfrwt beam="1">  1       21 0.28365011E-01 0.21931743E+03</pdfrwt>
<pdfrwt beam="2">  1       21 0.41978955E-01 0.21931743E+03</pdfrwt>
<totfact> 0.64131714E+04</totfact>
</mgrwt>
</event>
<event>
 4    1  0.3875622E-001  0.1756024E+03  0.7546771E-02  0.1172128E+00
         21   -1    0    0  501  502  0.00000000000E+00  0.00000000000E+00  0.31835338648E+02  0.31835338648E+02  0.00000000000E+00 0. -1.
         21   -1    0    0  502  503 -0.00000000000E+00 -0.00000000000E+00 -0.96915741447E+03  0.96915741447E+03  0.00000000000E+00 0. -1.
          6    1    1    2  501    0 -0.29139614578E+02  0.76214129773E+01 -0.45682622361E+03  0.48941434557E+03  0.17300000000E+03 0. -1.
         -6    1    1    2    0  503  0.29139614578E+02 -0.76214129773E+01 -0.48049585221E+03  0.51157840754E+03  0.17300000000E+03 0. -1.
<mgrwt>
<rscale>  2 0.17560240E+03</rscale>
<asrwt>0</asrwt>
<pdfrwt beam="1">  1       21 0.48977447E-02 0.17560240E+03</pdfrwt>
<pdfrwt beam="2">  1       21 0.14910113E+00 0.17560240E+03</pdfrwt>
<totfact> 0.85315943E+04</totfact>
</mgrwt>
</event>
<event>
 4    1  0.3875622E-001  0.1876542E+03  0.7546771E-02  0.1160594E+00
         21   -1    0    0  503  502  0.00000000000E+00  0.00000000000E+00  0.19709288504E+03  0.19709288504E+03  0.00000000000E+00 0.  1.
         21   -1    0    0  501  503 -0.00000000000E+00 -0.00000000000E+00 -0.22578206769E+03  0.22578206769E+03  0.00000000000E+00 0. -1.
          6    1    1    2  501    0 -0.33050201312E+00 -0.72697858823E+02 -0.11093076661E+03  0.21799018989E+03  0.17300000000E+03 0.  1.
         -6    1    1    2    0  502  0.33050201312E+00  0.72697858823E+02  0.82241583956E+02  0.20488476283E+03  0.17300000000E+03 0.  1.
<mgrwt>
<rscale>  2 0.18765417E+03</rscale>
<asrwt>0</asrwt>
<pdfrwt beam="1">  1       21 0.30321982E-01 0.18765417E+03</pdfrwt>
<pdfrwt beam="2">  1       21 0.34735703E-01 0.18765417E+03</pdfrwt>
<totfact> 0.83541047E+04</totfact>
</mgrwt>
</event>
<event>
 4    1  0.3875622E-001  0.1974762E+03  0.7546771E-02  0.1151886E+00
         21   -1    0    0  503  502  0.00000000000E+00  0.00000000000E+00  0.20751345809E+03  0.20751345809E+03  0.00000000000E+00 0.  1.
         21   -1    0    0  501  503 -0.00000000000E+00 -0.00000000000E+00 -0.31139936451E+03  0.31139936451E+03  0.00000000000E+00 0.  1.
          6    1    1    2  501    0  0.16964187962E+02 -0.93701954093E+02 -0.21532149659E+03  0.29216465695E+03  0.17300000000E+03 0.  1.
         -6    1    1    2    0  502 -0.16964187962E+02  0.93701954093E+02  0.11143559017E+03  0.22674816566E+03  0.17300000000E+03 0.  1.
<mgrwt>
<rscale>  2 0.19747618E+03</rscale>
<asrwt>0</asrwt>
<pdfrwt beam="1">  1       21 0.31925148E-01 0.19747618E+03</pdfrwt>
<pdfrwt beam="2">  1       21 0.47907594E-01 0.19747618E+03</pdfrwt>
<totfact> 0.39196866E+04</totfact>
</mgrwt>
</event>
<event>
 4    1  0.3875622E-001  0.1861190E+03  0.7546771E-02  0.1162009E+00
         21   -1    0    0  503  502  0.00000000000E+00  0.00000000000E+00  0.10769881105E+04  0.10769881105E+04  0.00000000000E+00 0. -1.
         21   -1    0    0  501  503 -0.00000000000E+00 -0.00000000000E+00 -0.32598496372E+02  0.32598496372E+02  0.00000000000E+00 0.  1.
          6    1    1    2  501    0 -0.53188551957E+02  0.43384818723E+02  0.45814516590E+03  0.49450708548E+03  0.17300000000E+03 0.  1.
         -6    1    1    2    0  502  0.53188551957E+02 -0.43384818723E+02  0.58624444826E+03  0.61507952142E+03  0.17300000000E+03 0. -1.
<mgrwt>
<rscale>  2 0.18611895E+03</rscale>
<asrwt>0</asrwt>
<pdfrwt beam="1">  1       21 0.16569045E+00 0.18611895E+03</pdfrwt>
<pdfrwt beam="2">  1       21 0.50151541E-02 0.18611895E+03</pdfrwt>
<totfact> 0.61489318E+04</totfact>
</mgrwt>
</event>
<event>
 4    1  0.3875622E-001  0.2129252E+03  0.7546771E-02  0.1139270E+00
         21   -1    0    0  503  502  0.00000000000E+00  0.00000000000E+00  0.23431266455E+03  0.23431266455E+03  0.00000000000E+00 0.  1.
         21   -1    0    0  501  503 -0.00000000000E+00 -0.00000000000E+00 -0.25114797072E+03  0.25114797072E+03  0.00000000000E+00 0. -1.
          6    1    1    2  501    0 -0.76850700289E+02  0.97478671738E+02 -0.12472025770E+03  0.24676357969E+03  0.17300000000E+03 0. -1.
         -6    1    1    2    0  502  0.76850700289E+02 -0.97478671738E+02  0.10788495153E+03  0.23869705559E+03  0.17300000000E+03 0. -1.
<mgrwt>
<rscale>  2 0.21292515E+03</rscale>
<asrwt>0</asrwt>
<pdfrwt beam="1">  1       21 0.36048102E-01 0.21292515E+03</pdfrwt>
<pdfrwt beam="2">  1       21 0.38638149E-01 0.21292515E+03</pdfrwt>
<totfact> 0.47461895E+04</totfact>
</mgrwt>
</event>
<event>
 4    1  0.3875622E-001  0.2051021E+03  0.7546771E-02  0.1145504E+00
         21   -1    0    0  503  502  0.00000000000E+00  0.00000000000E+00  0.76303451256E+02  0.76303451256E+02  0.00000000000E+00 0. -1.
         21   -1    0    0  501  503 -0.00000000000E+00 -0.00000000000E+00 -0.56843945350E+03  0.56843945350E+03  0.00000000000E+00 0.  1.
          6    1    1    2  501    0  0.20642036668E+02  0.10822096179E+03 -0.30202878738E+03  0.36508664541E+03  0.17300000000E+03 0.  1.
         -6    1    1    2    0  502 -0.20642036668E+02 -0.10822096179E+03 -0.19010721486E+03  0.27965625935E+03  0.17300000000E+03 0. -1.
<mgrwt>
<rscale>  2 0.20510210E+03</rscale>
<asrwt>0</asrwt>
<pdfrwt beam="1">  1       21 0.11738993E-01 0.20510210E+03</pdfrwt>
<pdfrwt beam="2">  1       21 0.87452223E-01 0.20510210E+03</pdfrwt>
<totfact> 0.68118160E+04</totfact>
</mgrwt>
</event>
<event>
 4    1  0.3875622E-001  0.1947223E+03  0.7546771E-02  0.1154270E+00
         21   -1    0    0  501  502  0.00000000000E+00  0.00000000000E+00  0.24159322288E+03  0.24159322288E+03  0.00000000000E+00 0. -1.
         21   -1    0    0  502  503 -0.00000000000E+00 -0.00000000000E+00 -0.21537156983E+03  0.21537156983E+03  0.00000000000E+00 0. -1.
          6    1    1    2  501    0  0.50687770263E+02 -0.73610735728E+02  0.13211567177E+03  0.23531115825E+03  0.17300000000E+03 0. -1.
         -6    1    1    2    0  503 -0.50687770263E+02  0.73610735728E+02 -0.10589401872E+03  0.22165363446E+03  0.17300000000E+03 0. -1.
<mgrwt>
<rscale>  2 0.19472234E+03</rscale>
<asrwt>0</asrwt>
<pdfrwt beam="1">  1       21 0.37168188E-01 0.19472234E+03</pdfrwt>
<pdfrwt beam="2">  1       21 0.33134087E-01 0.19472234E+03</pdfrwt>
<totfact> 0.61171932E+04</totfact>
</mgrwt>
</event>
<event>
 4    1  0.3875622E-001  0.2140899E+03  0.7546771E-02  0.1138368E+00
         21   -1    0    0  503  502  0.00000000000E+00  0.00000000000E+00  0.18733231572E+03  0.18733231572E+03  0.00000000000E+00 0.  1.
         21   -1    0    0  501  503 -0.00000000000E+00 -0.00000000000E+00 -0.35228074839E+03  0.35228074839E+03  0.00000000000E+00 0. -1.
          6    1    1    2  501    0  0.10383059095E+02  0.12568882146E+03 -0.23159460079E+03  0.31538951611E+03  0.17300000000E+03 0.  1.
         -6    1    1    2    0  502 -0.10383059095E+02 -0.12568882146E+03  0.66646168112E+02  0.22422354800E+03  0.17300000000E+03 0.  1.
<mgrwt>
<rscale>  2 0.21408991E+03</rscale>
<asrwt>0</asrwt>
<pdfrwt beam="1">  1       21 0.28820357E-01 0.21408991E+03</pdfrwt>
<pdfrwt beam="2">  1       21 0.54197038E-01 0.21408991E+03</pdfrwt>
<totfact> 0.36660486E+04</totfact>
</mgrwt>
</event>
<event>
 4    1  0.3875622E-001  0.2898229E+03  0.7546771E-02  0.1090442E+00
         21   -1    0    0  501  502  0.00000000000E+00  0.00000000000E+00  0.33873838824E+02  0.33873838824E+02  0.00000000000E+00 0. -1.
         21   -1    0    0  502  503 -0.00000000000E+00 -0.00000000000E+00 -0.25877778671E+04  0.25877778671E+04  0.00000000000E+00 0.  1.
          6    1    1    2  501    0 -0.56817014856E+02 -0.22547761296E+03 -0.10090795970E+04  0.10498756880E+04  0.17300000000E+03 0. -1.
         -6    1    1    2    0  503  0.56817014856E+02  0.22547761296E+03 -0.15448244312E+04  0.15717760179E+04  0.17300000000E+03 0.  1.
<mgrwt>
<rscale>  2 0.28982292E+03</rscale>
<asrwt>0</asrwt>
<pdfrwt beam="1">  1       21 0.52113613E-02 0.28982292E+03</pdfrwt>
<pdfrwt beam="2">  1       21 0.39811956E+00 0.28982292E+03</pdfrwt>
<totfact> 0.20022992E+03</totfact>
</mgrwt>
</event>
<event>
 4    1  0.3875622E-001  0.2105344E+03  0.7546771E-02  0.1141144E+00
         21   -1    0    0  503  502  0.00000000000E+00  0.00000000000E+00  0.29910766655E+02  0.29910766655E+02  0.00000000000E+00 0. -1.
         21   -1    0    0  501  503 -0.00000000000E+00 -0.00000000000E+00 -0.14831382140E+04  0.14831382140E+04  0.00000000000E+00 0. -1.
          6    1    1    2  501    0 -0.11136510918E+03 -0.44649089687E+02 -0.70474401136E+03  0.73551944250E+03  0.17300000000E+03 0. -1.
         -6    1    1    2    0  502  0.11136510918E+03  0.44649089687E+02 -0.74848343596E+03  0.77752953813E+03  0.17300000000E+03 0. -1.
<mgrwt>
<rscale>  2 0.21053439E+03</rscale>
<asrwt>0</asrwt>
<pdfrwt beam="1">  1       21 0.46016572E-02 0.21053439E+03</pdfrwt>
<pdfrwt beam="2">  1       21 0.22817507E+00 0.21053439E+03</pdfrwt>
<totfact> 0.27389110E+04</totfact>
</mgrwt>
</event>
<event>
 4    1  0.3875622E-001  0.2386008E+03  0.7546771E-02  0.1120728E+00
         21   -1    0    0  503  502  0.00000000000E+00  0.00000000000E+00  0.92374292243E+03  0.92374292243E+03  0.00000000000E+00 0.  1.
         21   -1    0    0  501  503 -0.00000000000E+00 -0.00000000000E+00 -0.11436450409E+03  0.11436450409E+03  0.00000000000E+00 0.  1.
          6    1    1    2  501    0 -0.14200972165E+03  0.82671540603E+02  0.75715242971E+03  0.79385776212E+03  0.17300000000E+03 0.  1.
         -6    1    1    2    0  502  0.14200972165E+03 -0.82671540603E+02  0.52225988634E+02  0.24424966440E+03  0.17300000000E+03 0.  1.
<mgrwt>
<rscale>  2 0.23860081E+03</rscale>
<asrwt>0</asrwt>
<pdfrwt beam="1">  1       21 0.14211429E+00 0.23860081E+03</pdfrwt>
<pdfrwt beam="2">  1       21 0.17594540E-01 0.23860081E+03</pdfrwt>
<totfact> 0.97623543E+03</totfact>
</mgrwt>
</event>
<event>
 4    1  0.3875622E-001  0.1731596E+03  0.7546771E-02  0.1174592E+00
         21   -1    0    0  503  502  0.00000000000E+00  0.00000000000E+00  0.84820650475E+03  0.84820650475E+03  0.00000000000E+00 0. -1.
         21   -1    0    0  501  503 -0.00000000000E+00 -0.00000000000E+00 -0.55059058266E+02  0.55059058266E+02  0.00000000000E+00 0. -1.
          6    1    1    2  501    0  0.73546147506E+01 -0.10800995985E+01  0.12636338262E+03  0.21436408617E+03  0.17300000000E+03 0. -1.
         -6    1    1    2    0  502 -0.73546147506E+01  0.10800995985E+01  0.66678406387E+03  0.68890147684E+03  0.17300000000E+03 0. -1.
<mgrwt>
<rscale>  2 0.17315963E+03</rscale>
<asrwt>0</asrwt>
<pdfrwt beam="1">  1       21 0.13049330E+00 0.17315963E+03</pdfrwt>
<pdfrwt beam="2">  1       21 0.84706250E-02 0.17315963E+03</pdfrwt>
<totfact> 0.47003479E+04</totfact>
</mgrwt>
</event>
<event>
 4    1  0.3875622E-001  0.2519403E+03  0.7546771E-02  0.1112085E+00
         21   -1    0    0  503  502  0.00000000000E+00  0.00000000000E+00  0.21039969452E+04  0.21039969452E+04  0.00000000000E+00 0.  1.
         21   -1    0    0  501  503 -0.00000000000E+00 -0.00000000000E+00 -0.63256201874E+02  0.63256201874E+02  0.00000000000E+00 0.  1.
          6    1    1    2  501    0 -0.92175041095E+02  0.15826778600E+03  0.23664671312E+03  0.34565242241E+03  0.17300000000E+03 0.  1.
         -6    1    1    2    0  502  0.92175041095E+02 -0.15826778600E+03  0.18040940302E+04  0.18216007247E+04  0.17300000000E+03 0.  1.
<mgrwt>
<rscale>  2 0.25194033E+03</rscale>
<asrwt>0</asrwt>
<pdfrwt beam="1">  1       21 0.32369178E+00 0.25194033E+03</pdfrwt>
<pdfrwt beam="2">  1       21 0.97317250E-02 0.25194033E+03</pdfrwt>
<totfact> 0.19805768E+03</totfact>
</mgrwt>
</event>
<event>
 4    1  0.3875622E-001  0.1912996E+03  0.7546771E-02  0.1157294E+00
         21   -1    0    0  501  502  0.00000000000E+00  0.00000000000E+00  0.16494192800E+03  0.16494192800E+03  0.00000000000E+00 0. -1.
         21   -1    0    0  502  503 -0.00000000000E+00 -0.00000000000E+00 -0.38583894265E+03  0.38583894265E+03  0.00000000000E+00 0.  1.
          6    1    1    2  501    0  0.20846287138E+02 -0.78942719998E+02  0.69077670272E+02  0.20338939318E+03  0.17300000000E+03 0. -1.
         -6    1    1    2    0  503 -0.20846287138E+02  0.78942719998E+02 -0.28997468492E+03  0.34739147747E+03  0.17300000000E+03 0.  1.
<mgrwt>
<rscale>  2 0.19129956E+03</rscale>
<asrwt>0</asrwt>
<pdfrwt beam="1">  1       21 0.25375681E-01 0.19129956E+03</pdfrwt>
<pdfrwt beam="2">  1       21 0.59359837E-01 0.19129956E+03</pdfrwt>
<totfact> 0.39061856E+04</totfact>
</mgrwt>
</event>
<event>
 4    1  0.3875622E-001  0.2414690E+03  0.7546771E-02  0.1118818E+00
         21   -1    0    0  501  502  0.00000000000E+00  0.00000000000E+00  0.45422493026E+02  0.45422493026E+02  0.00000000000E+00 0. -1.
         21   -1    0    0  502  503 -0.00000000000E+00 -0.00000000000E+00 -0.12883409875E+04  0.12883409875E+04  0.00000000000E+00 0. -1.
          6    1    1    2  501    0  0.56740723081E+02  0.15861511262E+03 -0.58128284816E+03  0.62944182668E+03  0.17300000000E+03 0. -1.
         -6    1    1    2    0  503 -0.56740723081E+02 -0.15861511262E+03 -0.66163564634E+03  0.70432165387E+03  0.17300000000E+03 0. -1.
<mgrwt>
<rscale>  2 0.24146897E+03</rscale>
<asrwt>0</asrwt>
<pdfrwt beam="1">  1       21 0.69880767E-02 0.24146897E+03</pdfrwt>
<pdfrwt beam="2">  1       21 0.19820628E+00 0.24146897E+03</pdfrwt>
<totfact> 0.20220420E+04</totfact>
</mgrwt>
</event>
<event>
 4    1  0.3875622E-001  0.2032250E+03  0.7546771E-02  0.1147046E+00
         21   -1    0    0  501  502  0.00000000000E+00  0.00000000000E+00  0.24088356768E+03  0.24088356768E+03  0.00000000000E+00 0.  1.
         21   -1    0    0  502  503 -0.00000000000E+00 -0.00000000000E+00 -0.17150724912E+03  0.17150724912E+03  0.00000000000E+00 0.  1.
          6    1    1    2  501    0 -0.21006401735E+02  0.10454721165E+03  0.31046031778E+02  0.20558269496E+03  0.17300000000E+03 0.  1.
         -6    1    1    2    0  503  0.21006401735E+02 -0.10454721165E+03  0.38330286781E+02  0.20680812185E+03  0.17300000000E+03 0.  1.
<mgrwt>
<rscale>  2 0.20322497E+03</rscale>
<asrwt>0</asrwt>
<pdfrwt beam="1">  1       21 0.37059010E-01 0.20322497E+03</pdfrwt>
<pdfrwt beam="2">  1       21 0.26385731E-01 0.20322497E+03</pdfrwt>
<totfact> 0.95516723E+04</totfact>
</mgrwt>
</event>
<event>
 4    1  0.3875622E-001  0.1775795E+03  0.7546771E-02  0.1170166E+00
         21   -1    0    0  503  502  0.00000000000E+00  0.00000000000E+00  0.23457643547E+03  0.23457643547E+03  0.00000000000E+00 0.  1.
         21   -1    0    0  501  503 -0.00000000000E+00 -0.00000000000E+00 -0.13868660687E+03  0.13868660687E+03  0.00000000000E+00 0.  1.
          6    1    1    2  501    0 -0.38418359654E+02 -0.11379653658E+02  0.15254386811E+02  0.17823345139E+03  0.17300000000E+03 0.  1.
         -6    1    1    2    0  502  0.38418359654E+02  0.11379653658E+02  0.80635441781E+02  0.19502959095E+03  0.17300000000E+03 0.  1.
<mgrwt>
<rscale>  2 0.17757947E+03</rscale>
<asrwt>0</asrwt>
<pdfrwt beam="1">  1       21 0.36088682E-01 0.17757947E+03</pdfrwt>
<pdfrwt beam="2">  1       21 0.21336401E-01 0.17757947E+03</pdfrwt>
<totfact> 0.15214184E+05</totfact>
</mgrwt>
</event>
<event>
 4    1  0.3875622E-001  0.1763863E+03  0.7546771E-02  0.1171347E+00
         21   -1    0    0  501  502  0.00000000000E+00  0.00000000000E+00  0.39941113807E+03  0.39941113807E+03  0.00000000000E+00 0.  1.
         21   -1    0    0  502  503 -0.00000000000E+00 -0.00000000000E+00 -0.88769513082E+02  0.88769513082E+02  0.00000000000E+00 0.  1.
          6    1    1    2  501    0  0.11487268979E+02  0.32421943696E+02  0.24075330926E+03  0.29845317171E+03  0.17300000000E+03 0.  1.
         -6    1    1    2    0  503 -0.11487268979E+02 -0.32421943696E+02  0.69888315727E+02  0.18972747945E+03  0.17300000000E+03 0.  1.
<mgrwt>
<rscale>  2 0.17638634E+03</rscale>
<asrwt>0</asrwt>
<pdfrwt beam="1">  1       21 0.61447866E-01 0.17638634E+03</pdfrwt>
<pdfrwt beam="2">  1       21 0.13656848E-01 0.17638634E+03</pdfrwt>
<totfact> 0.11516648E+05</totfact>
</mgrwt>
</event>
<event>
 4    1  0.3875622E-001  0.2538128E+03  0.7546771E-02  0.1110919E+00
         21   -1    0    0  503  502  0.00000000000E+00  0.00000000000E+00  0.12998503897E+03  0.12998503897E+03  0.00000000000E+00 0. -1.
         21   -1    0    0  501  503 -0.00000000000E+00 -0.00000000000E+00 -0.68454159852E+03  0.68454159852E+03  0.00000000000E+00 0. -1.
          6    1    1    2  501    0  0.52849564191E+02 -0.17804170984E+03 -0.49124003222E+03  0.55293552619E+03  0.17300000000E+03 0. -1.
         -6    1    1    2    0  502 -0.52849564191E+02  0.17804170984E+03 -0.63316527340E+02  0.26159111130E+03  0.17300000000E+03 0. -1.
<mgrwt>
<rscale>  2 0.25381278E+03</rscale>
<asrwt>0</asrwt>
<pdfrwt beam="1">  1       21 0.19997698E-01 0.25381278E+03</pdfrwt>
<pdfrwt beam="2">  1       21 0.10531409E+00 0.25381278E+03</pdfrwt>
<totfact> 0.16158885E+04</totfact>
</mgrwt>
</event>
<event>
 4    1  0.3875622E-001  0.2073921E+03  0.7546771E-02  0.1143648E+00
         21   -1    0    0  501  502  0.00000000000E+00  0.00000000000E+00  0.33927042902E+02  0.33927042902E+02  0.00000000000E+00 0. -1.
         21   -1    0    0  502  503 -0.00000000000E+00 -0.00000000000E+00 -0.13865507063E+04  0.13865507063E+04  0.00000000000E+00 0. -1.
          6    1    1    2  501    0 -0.48559341667E+02  0.10355909089E+03 -0.46842840361E+03  0.51228572524E+03  0.17300000000E+03 0. -1.
         -6    1    1    2    0  503  0.48559341667E+02 -0.10355909089E+03 -0.88419525980E+03  0.90819202398E+03  0.17300000000E+03 0. -1.
<mgrwt>
<rscale>  2 0.20739213E+03</rscale>
<asrwt>0</asrwt>
<pdfrwt beam="1">  1       21 0.52195450E-02 0.20739213E+03</pdfrwt>
<pdfrwt beam="2">  1       21 0.21331549E+00 0.20739213E+03</pdfrwt>
<totfact> 0.27365888E+04</totfact>
</mgrwt>
</event>
<event>
 4    1  0.3875622E-001  0.1926538E+03  0.7546771E-02  0.1156089E+00
         21   -1    0    0  503  502  0.00000000000E+00  0.00000000000E+00  0.75319275963E+02  0.75319275963E+02  0.00000000000E+00 0.  1.
         21   -1    0    0  501  503 -0.00000000000E+00 -0.00000000000E+00 -0.49321551467E+03  0.49321551467E+03  0.00000000000E+00 0.  1.
          6    1    1    2  501    0  0.84545831392E+02  0.62043934599E+01 -0.20045721699E+03  0.27802623608E+03  0.17300000000E+03 0.  1.
         -6    1    1    2    0  502 -0.84545831392E+02 -0.62043934599E+01 -0.21743902171E+03  0.29050855455E+03  0.17300000000E+03 0.  1.
<mgrwt>
<rscale>  2 0.19265381E+03</rscale>
<asrwt>0</asrwt>
<pdfrwt beam="1">  1       21 0.11587581E-01 0.19265381E+03</pdfrwt>
<pdfrwt beam="2">  1       21 0.75879307E-01 0.19265381E+03</pdfrwt>
<totfact> 0.96767745E+04</totfact>
</mgrwt>
</event>
<event>
 4    1  0.3875622E-001  0.1887569E+03  0.7546771E-02  0.1159587E+00
         21   -1    0    0  501  502  0.00000000000E+00  0.00000000000E+00  0.12986919773E+03  0.12986919773E+03  0.00000000000E+00 0.  1.
         21   -1    0    0  502  503 -0.00000000000E+00 -0.00000000000E+00 -0.37653358441E+03  0.37653358441E+03  0.00000000000E+00 0.  1.
          6    1    1    2  501    0 -0.47705805581E+02  0.58517615408E+02  0.85731255729E+01  0.18895145853E+03  0.17300000000E+03 0.  1.
         -6    1    1    2    0  503  0.47705805581E+02 -0.58517615408E+02 -0.25523751226E+03  0.31745132361E+03  0.17300000000E+03 0.  1.
<mgrwt>
<rscale>  2 0.18875687E+03</rscale>
<asrwt>0</asrwt>
<pdfrwt beam="1">  1       21 0.19979877E-01 0.18875687E+03</pdfrwt>
<pdfrwt beam="2">  1       21 0.57928243E-01 0.18875687E+03</pdfrwt>
<totfact> 0.64718863E+04</totfact>
</mgrwt>
</event>
<event>
 4    1  0.3875622E-001  0.1798243E+03  0.7546771E-02  0.1167973E+00
         21   -1    0    0  501  502  0.00000000000E+00  0.00000000000E+00  0.14035545331E+03  0.14035545331E+03  0.00000000000E+00 0.  1.
         21   -1    0    0  502  503 -0.00000000000E+00 -0.00000000000E+00 -0.25548560469E+03  0.25548560469E+03  0.00000000000E+00 0.  1.
          6    1    1    2  501    0 -0.21903866172E+02  0.43908894195E+02  0.44631491561E+01  0.17987965433E+03  0.17300000000E+03 0. -1.
         -6    1    1    2    0  503  0.21903866172E+02 -0.43908894195E+02 -0.11959330053E+03  0.21596140367E+03  0.17300000000E+03 0. -1.
<mgrwt>
<rscale>  2 0.17982428E+03</rscale>
<asrwt>0</asrwt>
<pdfrwt beam="1">  1       21 0.21593147E-01 0.17982428E+03</pdfrwt>
<pdfrwt beam="2">  1       21 0.39305477E-01 0.17982428E+03</pdfrwt>
<totfact> 0.12532071E+05</totfact>
</mgrwt>
</event>
<event>
 4    1  0.3875622E-001  0.2812142E+03  0.7546771E-02  0.1095028E+00
         21   -1    0    0  503  502  0.00000000000E+00  0.00000000000E+00  0.67046424821E+03  0.67046424821E+03  0.00000000000E+00 0. -1.
         21   -1    0    0  501  503 -0.00000000000E+00 -0.00000000000E+00 -0.13785096130E+03  0.13785096130E+03  0.00000000000E+00 0. -1.
          6    1    1    2  501    0  0.44742598217E+02 -0.21714167239E+03  0.11274580455E+03  0.30297363322E+03  0.17300000000E+03 0. -1.
         -6    1    1    2    0  502 -0.44742598217E+02  0.21714167239E+03  0.41986748237E+03  0.50534157630E+03  0.17300000000E+03 0. -1.
<mgrwt>
<rscale>  2 0.28121416E+03</rscale>
<asrwt>0</asrwt>
<pdfrwt beam="1">  1       21 0.10314834E+00 0.28121416E+03</pdfrwt>
<pdfrwt beam="2">  1       21 0.21207841E-01 0.28121416E+03</pdfrwt>
<totfact> 0.15006193E+04</totfact>
</mgrwt>
</event>
<event>
 4    1  0.3875622E-001  0.2309089E+03  0.7546771E-02  0.1126002E+00
         21   -1    0    0  501  502  0.00000000000E+00  0.00000000000E+00  0.42866944976E+03  0.42866944976E+03  0.00000000000E+00 0. -1.
         21   -1    0    0  502  503 -0.00000000000E+00 -0.00000000000E+00 -0.12517631473E+03  0.12517631473E+03  0.00000000000E+00 0. -1.
          6    1    1    2  501    0  0.54737577720E+02 -0.14280664876E+03  0.12969291012E+03  0.26483804915E+03  0.17300000000E+03 0. -1.
         -6    1    1    2    0  503 -0.54737577720E+02  0.14280664876E+03  0.17380022491E+03  0.28900771533E+03  0.17300000000E+03 0. -1.
<mgrwt>
<rscale>  2 0.23090895E+03</rscale>
<asrwt>0</asrwt>
<pdfrwt beam="1">  1       21 0.65949145E-01 0.23090895E+03</pdfrwt>
<pdfrwt beam="2">  1       21 0.19257895E-01 0.23090895E+03</pdfrwt>
<totfact> 0.51382921E+04</totfact>
</mgrwt>
</event>
<event>
 4    1  0.3875622E-001  0.1765291E+03  0.7546771E-02  0.1171205E+00
         21   -1    0    0  503  502  0.00000000000E+00  0.00000000000E+00  0.89700278351E+02  0.89700278351E+02  0.00000000000E+00 0. -1.
         21   -1    0    0  501  503 -0.00000000000E+00 -0.00000000000E+00 -0.36731044849E+03  0.36731044849E+03  0.00000000000E+00 0. -1.
          6    1    1    2  501    0  0.34257110167E+02  0.77439048876E+01 -0.19199659678E+03  0.26081643130E+03  0.17300000000E+03 0. -1.
         -6    1    1    2    0  502 -0.34257110167E+02 -0.77439048876E+01 -0.85613573355E+02  0.19619429554E+03  0.17300000000E+03 0. -1.
<mgrwt>
<rscale>  2 0.17652908E+03</rscale>
<asrwt>0</asrwt>
<pdfrwt beam="1">  1       21 0.13800043E-01 0.17652908E+03</pdfrwt>
<pdfrwt beam="2">  1       21 0.56509300E-01 0.17652908E+03</pdfrwt>
<totfact> 0.13515756E+05</totfact>
</mgrwt>
</event>
<event>
 4    1  0.3875622E-001  0.2222913E+03  0.7546771E-02  0.1132186E+00
         21   -1    0    0  503  502  0.00000000000E+00  0.00000000000E+00  0.82720968099E+02  0.82720968099E+02  0.00000000000E+00 0. -1.
         21   -1    0    0  501  503 -0.00000000000E+00 -0.00000000000E+00 -0.59816528447E+03  0.59816528447E+03  0.00000000000E+00 0.  1.
          6    1    1    2  501    0  0.13927930125E+03 -0.92568340803E+01 -0.24515746586E+03  0.33093140649E+03  0.17300000000E+03 0.  1.
         -6    1    1    2    0  502 -0.13927930125E+03  0.92568340803E+01 -0.27028685051E+03  0.34995484608E+03  0.17300000000E+03 0. -1.
<mgrwt>
<rscale>  2 0.22229128E+03</rscale>
<asrwt>0</asrwt>
<pdfrwt beam="1">  1       21 0.12726303E-01 0.22229128E+03</pdfrwt>
<pdfrwt beam="2">  1       21 0.92025429E-01 0.22229128E+03</pdfrwt>
<totfact> 0.51939638E+04</totfact>
</mgrwt>
</event>
<event>
 4    1  0.3875622E-001  0.3022884E+03  0.7546771E-02  0.1084102E+00
         21   -1    0    0  501  502  0.00000000000E+00  0.00000000000E+00  0.37962068263E+03  0.37962068263E+03  0.00000000000E+00 0. -1.
         21   -1    0    0  502  503 -0.00000000000E+00 -0.00000000000E+00 -0.25304161083E+03  0.25304161083E+03  0.00000000000E+00 0.  1.
          6    1    1    2  501    0  0.22440181680E+03 -0.10532392441E+03  0.13312318014E+03  0.33030302076E+03  0.17300000000E+03 0. -1.
         -6    1    1    2    0  503 -0.22440181680E+03  0.10532392441E+03 -0.65441083374E+01  0.30235927270E+03  0.17300000000E+03 0. -1.
<mgrwt>
<rscale>  2 0.30228845E+03</rscale>
<asrwt>0</asrwt>
<pdfrwt beam="1">  1       21 0.58403182E-01 0.30228845E+03</pdfrwt>
<pdfrwt beam="2">  1       21 0.38929478E-01 0.30228845E+03</pdfrwt>
<totfact> 0.16516638E+04</totfact>
</mgrwt>
</event>
<event>
 4    1  0.3875622E-001  0.1821317E+03  0.7546771E-02  0.1165756E+00
         21   -1    0    0  501  502  0.00000000000E+00  0.00000000000E+00  0.23778958857E+04  0.23778958857E+04  0.00000000000E+00 0.  1.
         21   -1    0    0  502  503 -0.00000000000E+00 -0.00000000000E+00 -0.14313059519E+02  0.14313059519E+02  0.00000000000E+00 0.  1.
          6    1    1    2  501    0  0.55023328235E+02 -0.14676501370E+02  0.99132798167E+03  0.10079202020E+04  0.17300000000E+03 0.  1.
         -6    1    1    2    0  503 -0.55023328235E+02  0.14676501370E+02  0.13722548445E+04  0.13842887432E+04  0.17300000000E+03 0.  1.
<mgrwt>
<rscale>  2 0.18213173E+03</rscale>
<asrwt>0</asrwt>
<pdfrwt beam="1">  1       21 0.36582982E+00 0.18213173E+03</pdfrwt>
<pdfrwt beam="2">  1       21 0.22020110E-02 0.18213173E+03</pdfrwt>
<totfact> 0.15005430E+04</totfact>
</mgrwt>
</event>
<event>
 4    1  0.3875622E-001  0.1928856E+03  0.7546771E-02  0.1155884E+00
         21   -1    0    0  503  502  0.00000000000E+00  0.00000000000E+00  0.86873669603E+02  0.86873669603E+02  0.00000000000E+00 0.  1.
         21   -1    0    0  501  503 -0.00000000000E+00 -0.00000000000E+00 -0.71572430180E+03  0.71572430180E+03  0.00000000000E+00 0.  1.
          6    1    1    2  501    0 -0.83369612873E+02 -0.18037793063E+02 -0.56874748211E+03  0.60056519441E+03  0.17300000000E+03 0.  1.
         -6    1    1    2    0  502  0.83369612873E+02  0.18037793063E+02 -0.60103150087E+02  0.20203277699E+03  0.17300000000E+03 0.  1.
<mgrwt>
<rscale>  2 0.19288560E+03</rscale>
<asrwt>0</asrwt>
<pdfrwt beam="1">  1       21 0.13365180E-01 0.19288560E+03</pdfrwt>
<pdfrwt beam="2">  1       21 0.11011143E+00 0.19288560E+03</pdfrwt>
<totfact> 0.31501287E+04</totfact>
</mgrwt>
</event>
<event>
 4    1  0.3875622E-001  0.1802100E+03  0.7546771E-02  0.1167600E+00
         21   -1    0    0  503  502  0.00000000000E+00  0.00000000000E+00  0.34589185875E+02  0.34589185875E+02  0.00000000000E+00 0. -1.
         21   -1    0    0  501  503 -0.00000000000E+00 -0.00000000000E+00 -0.96350948683E+03  0.96350948683E+03  0.00000000000E+00 0. -1.
          6    1    1    2  501    0 -0.19593466972E+01 -0.50426131290E+02 -0.54422393565E+03  0.57328468137E+03  0.17300000000E+03 0. -1.
         -6    1    1    2    0  502  0.19593466972E+01  0.50426131290E+02 -0.38469636530E+03  0.42481399133E+03  0.17300000000E+03 0. -1.
<mgrwt>
<rscale>  2 0.18020997E+03</rscale>
<asrwt>0</asrwt>
<pdfrwt beam="1">  1       21 0.53214129E-02 0.18020997E+03</pdfrwt>
<pdfrwt beam="2">  1       21 0.14823224E+00 0.18020997E+03</pdfrwt>
<totfact> 0.75092852E+04</totfact>
</mgrwt>
</event>
<event>
 4    1  0.3875622E-001  0.2251060E+03  0.7546771E-02  0.1130133E+00
         21   -1    0    0  503  502  0.00000000000E+00  0.00000000000E+00  0.66496341877E+02  0.66496341877E+02  0.00000000000E+00 0. -1.
         21   -1    0    0  501  503 -0.00000000000E+00 -0.00000000000E+00 -0.86355066294E+03  0.86355066294E+03  0.00000000000E+00 0. -1.
          6    1    1    2  501    0  0.22069843210E+02  0.14232576911E+03 -0.55796532546E+03  0.60166270198E+03  0.17300000000E+03 0. -1.
         -6    1    1    2    0  502 -0.22069843210E+02 -0.14232576911E+03 -0.23908899560E+03  0.32838430284E+03  0.17300000000E+03 0. -1.
<mgrwt>
<rscale>  2 0.22510598E+03</rscale>
<asrwt>0</asrwt>
<pdfrwt beam="1">  1       21 0.10230207E-01 0.22510598E+03</pdfrwt>
<pdfrwt beam="2">  1       21 0.13285394E+00 0.22510598E+03</pdfrwt>
<totfact> 0.31300699E+04</totfact>
</mgrwt>
</event>
<event>
 4    1  0.3875622E-001  0.2443394E+03  0.7546771E-02  0.1116935E+00
         21   -1    0    0  501  502  0.00000000000E+00  0.00000000000E+00  0.12174099966E+03  0.12174099966E+03  0.00000000000E+00 0. -1.
         21   -1    0    0  502  503 -0.00000000000E+00 -0.00000000000E+00 -0.49178190996E+03  0.49178190996E+03  0.00000000000E+00 0. -1.
          6    1    1    2  501    0 -0.16858620858E+03 -0.36762140811E+02 -0.16875814828E+03  0.29695298842E+03  0.17300000000E+03 0. -1.
         -6    1    1    2    0  503  0.16858620858E+03  0.36762140811E+02 -0.20128276202E+03  0.31656992119E+03  0.17300000000E+03 0. -1.
<mgrwt>
<rscale>  2 0.24433945E+03</rscale>
<asrwt>0</asrwt>
<pdfrwt beam="1">  1       21 0.18729385E-01 0.24433945E+03</pdfrwt>
<pdfrwt beam="2">  1       21 0.75658754E-01 0.24433945E+03</pdfrwt>
<totfact> 0.39665752E+04</totfact>
</mgrwt>
</event>
<event>
 4    1  0.3875622E-001  0.2054512E+03  0.7546771E-02  0.1145220E+00
         21   -1    0    0  501  502  0.00000000000E+00  0.00000000000E+00  0.25629703447E+03  0.25629703447E+03  0.00000000000E+00 0.  1.
         21   -1    0    0  502  503 -0.00000000000E+00 -0.00000000000E+00 -0.17542398150E+03  0.17542398150E+03  0.00000000000E+00 0. -1.
          6    1    1    2  501    0  0.58253143188E+02  0.94274846088E+02  0.93826591828E+02  0.22586191496E+03  0.17300000000E+03 0.  1.
         -6    1    1    2    0  503 -0.58253143188E+02 -0.94274846088E+02 -0.12953538860E+02  0.20585910100E+03  0.17300000000E+03 0.  1.
<mgrwt>
<rscale>  2 0.20545115E+03</rscale>
<asrwt>0</asrwt>
<pdfrwt beam="1">  1       21 0.39430313E-01 0.20545115E+03</pdfrwt>
<pdfrwt beam="2">  1       21 0.26988305E-01 0.20545115E+03</pdfrwt>
<totfact> 0.80660497E+04</totfact>
</mgrwt>
</event>
<event>
 4    1  0.3875622E-001  0.1993347E+03  0.7546771E-02  0.1150302E+00
         21   -1    0    0  501  502  0.00000000000E+00  0.00000000000E+00  0.33504374300E+02  0.33504374300E+02  0.00000000000E+00 0. -1.
         21   -1    0    0  502  503 -0.00000000000E+00 -0.00000000000E+00 -0.13080521804E+04  0.13080521804E+04  0.00000000000E+00 0. -1.
          6    1    1    2  501    0  0.81824614605E+01  0.98683217811E+02 -0.43232865437E+03  0.47606973811E+03  0.17300000000E+03 0. -1.
         -6    1    1    2    0  503 -0.81824614605E+01 -0.98683217811E+02 -0.84221915176E+03  0.86548681662E+03  0.17300000000E+03 0. -1.
<mgrwt>
<rscale>  2 0.19933472E+03</rscale>
<asrwt>0</asrwt>
<pdfrwt beam="1">  1       21 0.51545189E-02 0.19933472E+03</pdfrwt>
<pdfrwt beam="2">  1       21 0.20123881E+00 0.19933472E+03</pdfrwt>
<totfact> 0.33519825E+04</totfact>
</mgrwt>
</event>
<event>
 4    1  0.3875622E-001  0.1869526E+03  0.7546771E-02  0.1161239E+00
         21   -1    0    0  501  502  0.00000000000E+00  0.00000000000E+00  0.81883421798E+02  0.81883421798E+02  0.00000000000E+00 0.  1.
         21   -1    0    0  502  503 -0.00000000000E+00 -0.00000000000E+00 -0.44038102944E+03  0.44038102944E+03  0.00000000000E+00 0.  1.
          6    1    1    2  501    0 -0.31969114288E+01 -0.70795967771E+02 -0.22503544710E+03  0.29256151788E+03  0.17300000000E+03 0.  1.
         -6    1    1    2    0  503  0.31969114288E+01  0.70795967771E+02 -0.13346216055E+03  0.22970293336E+03  0.17300000000E+03 0.  1.
<mgrwt>
<rscale>  2 0.18695264E+03</rscale>
<asrwt>0</asrwt>
<pdfrwt beam="1">  1       21 0.12597449E-01 0.18695264E+03</pdfrwt>
<pdfrwt beam="2">  1       21 0.67750929E-01 0.18695264E+03</pdfrwt>
<totfact> 0.10731340E+05</totfact>
</mgrwt>
</event>
<event>
 4    1  0.3875622E-001  0.2317758E+03  0.7546771E-02  0.1125396E+00
         21   -1    0    0  501  502  0.00000000000E+00  0.00000000000E+00  0.70309369071E+03  0.70309369071E+03  0.00000000000E+00 0. -1.
         21   -1    0    0  502  503 -0.00000000000E+00 -0.00000000000E+00 -0.80027325514E+02  0.80027325514E+02  0.00000000000E+00 0. -1.
          6    1    1    2  501    0 -0.15141094054E+03 -0.29423240702E+02  0.39483657302E+03  0.45783831142E+03  0.17300000000E+03 0. -1.
         -6    1    1    2    0  503  0.15141094054E+03  0.29423240702E+02  0.22822979218E+03  0.32528270481E+03  0.17300000000E+03 0. -1.
<mgrwt>
<rscale>  2 0.23177575E+03</rscale>
<asrwt>0</asrwt>
<pdfrwt beam="1">  1       21 0.10816826E+00 0.23177575E+03</pdfrwt>
<pdfrwt beam="2">  1       21 0.12311897E-01 0.23177575E+03</pdfrwt>
<totfact> 0.37344706E+04</totfact>
</mgrwt>
</event>
<event>
 4    1  0.3875622E-001  0.1809574E+03  0.7546771E-02  0.1166880E+00
         21   -1    0    0  503  502  0.00000000000E+00  0.00000000000E+00  0.75482700750E+03  0.75482700750E+03  0.00000000000E+00 0. -1.
         21   -1    0    0  501  503 -0.00000000000E+00 -0.00000000000E+00 -0.60594618951E+02  0.60594618951E+02  0.00000000000E+00 0. -1.
          6    1    1    2  501    0 -0.70352540070E+01 -0.52603245809E+02  0.12981413518E+03  0.22270452613E+03  0.17300000000E+03 0. -1.
         -6    1    1    2    0  502  0.70352540070E+01  0.52603245809E+02  0.56441825338E+03  0.59271710032E+03  0.17300000000E+03 0. -1.
<mgrwt>
<rscale>  2 0.18095744E+03</rscale>
<asrwt>0</asrwt>
<pdfrwt beam="1">  1       21 0.11612723E+00 0.18095744E+03</pdfrwt>
<pdfrwt beam="2">  1       21 0.93222496E-02 0.18095744E+03</pdfrwt>
<totfact> 0.52882652E+04</totfact>
</mgrwt>
</event>
<event>
 4    1  0.3875622E-001  0.2905710E+03  0.7546771E-02  0.1090051E+00
         21   -1    0    0  503  502  0.00000000000E+00  0.00000000000E+00  0.18879489589E+03  0.18879489589E+03  0.00000000000E+00 0.  1.
         21   -1    0    0  501  503 -0.00000000000E+00 -0.00000000000E+00 -0.44837018919E+03  0.44837018919E+03  0.00000000000E+00 0.  1.
          6    1    1    2  501    0 -0.10227785760E+03  0.20986119537E+03 -0.11360104115E+03  0.31198826585E+03  0.17300000000E+03 0.  1.
         -6    1    1    2    0  502  0.10227785760E+03 -0.20986119537E+03 -0.14597425216E+03  0.32517681924E+03  0.17300000000E+03 0.  1.
<mgrwt>
<rscale>  2 0.29057096E+03</rscale>
<asrwt>0</asrwt>
<pdfrwt beam="1">  1       21 0.29045369E-01 0.29057096E+03</pdfrwt>
<pdfrwt beam="2">  1       21 0.68980029E-01 0.29057096E+03</pdfrwt>
<totfact> 0.20676296E+04</totfact>
</mgrwt>
</event>
<event>
 4    1  0.3875622E-001  0.1857173E+03  0.7546771E-02  0.1162382E+00
         21   -1    0    0  503  502  0.00000000000E+00  0.00000000000E+00  0.38138715134E+03  0.38138715134E+03  0.00000000000E+00 0.  1.
         21   -1    0    0  501  503 -0.00000000000E+00 -0.00000000000E+00 -0.14024350579E+03  0.14024350579E+03  0.00000000000E+00 0.  1.
          6    1    1    2  501    0  0.52395571652E+02  0.42621795303E+02 -0.34860589649E+02  0.18896077390E+03  0.17300000000E+03 0.  1.
         -6    1    1    2    0  502 -0.52395571652E+02 -0.42621795303E+02  0.27600423519E+03  0.33266988323E+03  0.17300000000E+03 0.  1.
<mgrwt>
<rscale>  2 0.18571729E+03</rscale>
<asrwt>0</asrwt>
<pdfrwt beam="1">  1       21 0.58674946E-01 0.18571729E+03</pdfrwt>
<pdfrwt beam="2">  1       21 0.21575924E-01 0.18571729E+03</pdfrwt>
<totfact> 0.54603115E+04</totfact>
</mgrwt>
</event>
<event>
 4    1  0.3875622E-001  0.1802600E+03  0.7546771E-02  0.1167552E+00
         21   -1    0    0  501  502  0.00000000000E+00  0.00000000000E+00  0.15021598049E+04  0.15021598049E+04  0.00000000000E+00 0.  1.
         21   -1    0    0  502  503 -0.00000000000E+00 -0.00000000000E+00 -0.21711843831E+02  0.21711843831E+02  0.00000000000E+00 0.  1.
          6    1    1    2  501    0 -0.49333537711E+02 -0.11439437961E+02  0.69381464071E+03  0.71684894807E+03  0.17300000000E+03 0.  1.
         -6    1    1    2    0  503  0.49333537711E+02  0.11439437961E+02  0.78663332032E+03  0.80702270062E+03  0.17300000000E+03 0.  1.
<mgrwt>
<rscale>  2 0.18025998E+03</rscale>
<asrwt>0</asrwt>
<pdfrwt beam="1">  1       21 0.23110143E+00 0.18025998E+03</pdfrwt>
<pdfrwt beam="2">  1       21 0.33402849E-02 0.18025998E+03</pdfrwt>
<totfact> 0.46021669E+04</totfact>
</mgrwt>
</event>
<event>
 4    1  0.3875622E-001  0.2034191E+03  0.7546771E-02  0.1146886E+00
         21   -1    0    0  503  502  0.00000000000E+00  0.00000000000E+00  0.75248137519E+02  0.75248137519E+02  0.00000000000E+00 0.  1.
         21   -1    0    0  501  503 -0.00000000000E+00 -0.00000000000E+00 -0.54998692929E+03  0.54998692929E+03  0.00000000000E+00 0.  1.
          6    1    1    2  501    0  0.26003858951E+02 -0.10379854376E+03 -0.23355734957E+03  0.30972306001E+03  0.17300000000E+03 0.  1.
         -6    1    1    2    0  502 -0.26003858951E+02  0.10379854376E+03 -0.24118144220E+03  0.31551200679E+03  0.17300000000E+03 0.  1.
<mgrwt>
<rscale>  2 0.20341912E+03</rscale>
<asrwt>0</asrwt>
<pdfrwt beam="1">  1       21 0.11576637E-01 0.20341912E+03</pdfrwt>
<pdfrwt beam="2">  1       21 0.84613371E-01 0.20341912E+03</pdfrwt>
<totfact> 0.75392569E+04</totfact>
</mgrwt>
</event>
<event>
 4    1  0.3875622E-001  0.1818282E+03  0.7546771E-02  0.1166045E+00
         21   -1    0    0  501  502  0.00000000000E+00  0.00000000000E+00  0.21504260571E+03  0.21504260571E+03  0.00000000000E+00 0. -1.
         21   -1    0    0  502  503 -0.00000000000E+00 -0.00000000000E+00 -0.15806883726E+03  0.15806883726E+03  0.00000000000E+00 0. -1.
          6    1    1    2  501    0  0.28566207539E+02 -0.48129792935E+02 -0.23713833385E+01  0.18184369288E+03  0.17300000000E+03 0. -1.
         -6    1    1    2    0  503 -0.28566207539E+02  0.48129792935E+02  0.59345151788E+02  0.19126775008E+03  0.17300000000E+03 0. -1.
<mgrwt>
<rscale>  2 0.18182823E+03</rscale>
<asrwt>0</asrwt>
<pdfrwt beam="1">  1       21 0.33083478E-01 0.18182823E+03</pdfrwt>
<pdfrwt beam="2">  1       21 0.24318283E-01 0.18182823E+03</pdfrwt>
<totfact> 0.14095251E+05</totfact>
</mgrwt>
</event>
<event>
 4    1  0.3875622E-001  0.2082707E+03  0.7546771E-02  0.1142943E+00
         21   -1    0    0  501  502  0.00000000000E+00  0.00000000000E+00  0.20912154284E+03  0.20912154284E+03  0.00000000000E+00 0.  1.
         21   -1    0    0  502  503 -0.00000000000E+00 -0.00000000000E+00 -0.29422609291E+03  0.29422609291E+03  0.00000000000E+00 0. -1.
          6    1    1    2  501    0 -0.11120330147E+03 -0.32886378407E+02 -0.17925091800E+03  0.27478642570E+03  0.17300000000E+03 0. -1.
         -6    1    1    2    0  503  0.11120330147E+03  0.32886378407E+02  0.94146367938E+02  0.22856121005E+03  0.17300000000E+03 0.  1.
<mgrwt>
<rscale>  2 0.20827071E+03</rscale>
<asrwt>0</asrwt>
<pdfrwt beam="1">  1       21 0.32172545E-01 0.20827071E+03</pdfrwt>
<pdfrwt beam="2">  1       21 0.45265553E-01 0.20827071E+03</pdfrwt>
<totfact> 0.43169940E+04</totfact>
</mgrwt>
</event>
<event>
 4    1  0.3875622E-001  0.1735145E+03  0.7546771E-02  0.1174232E+00
         21   -1    0    0  503  502  0.00000000000E+00  0.00000000000E+00  0.50369257768E+02  0.50369257768E+02  0.00000000000E+00 0.  1.
         21   -1    0    0  501  503 -0.00000000000E+00 -0.00000000000E+00 -0.59798348782E+03  0.59798348782E+03  0.00000000000E+00 0.  1.
          6    1    1    2  501    0 -0.13344840442E+02  0.44190777837E+00 -0.26714931268E+03  0.31855303376E+03  0.17300000000E+03 0. -1.
         -6    1    1    2    0  502  0.13344840442E+02 -0.44190777837E+00 -0.28046491737E+03  0.32979971183E+03  0.17300000000E+03 0. -1.
<mgrwt>
<rscale>  2 0.17351450E+03</rscale>
<asrwt>0</asrwt>
<pdfrwt beam="1">  1       21 0.77491166E-02 0.17351450E+03</pdfrwt>
<pdfrwt beam="2">  1       21 0.91997460E-01 0.17351450E+03</pdfrwt>
<totfact> 0.12755846E+05</totfact>
</mgrwt>
</event>
<event>
 4    1  0.3875622E-001  0.2207352E+03  0.7546771E-02  0.1133336E+00
         21   -1    0    0  501  502  0.00000000000E+00  0.00000000000E+00  0.22699628051E+03  0.22699628051E+03  0.00000000000E+00 0. -1.
         21   -1    0    0  502  503 -0.00000000000E+00 -0.00000000000E+00 -0.21777160373E+03  0.21777160373E+03  0.00000000000E+00 0.  1.
          6    1    1    2  501    0 -0.13091451246E+03  0.40699330393E+02 -0.22026059217E+02  0.22183145032E+03  0.17300000000E+03 0. -1.
         -6    1    1    2    0  503  0.13091451246E+03 -0.40699330393E+02  0.31250736001E+02  0.22293643392E+03  0.17300000000E+03 0. -1.
<mgrwt>
<rscale>  2 0.22073524E+03</rscale>
<asrwt>0</asrwt>
<pdfrwt beam="1">  1       21 0.34922505E-01 0.22073524E+03</pdfrwt>
<pdfrwt beam="2">  1       21 0.33503324E-01 0.22073524E+03</pdfrwt>
<totfact> 0.66992389E+04</totfact>
</mgrwt>
</event>
<event>
 4    1  0.3875622E-001  0.1797238E+03  0.7546771E-02  0.1168071E+00
         21   -1    0    0  501  502  0.00000000000E+00  0.00000000000E+00  0.58284792979E+02  0.58284792979E+02  0.00000000000E+00 0. -1.
         21   -1    0    0  502  503 -0.00000000000E+00 -0.00000000000E+00 -0.55662794836E+03  0.55662794836E+03  0.00000000000E+00 0.  1.
          6    1    1    2  501    0 -0.67375431946E+01 -0.48231127296E+02 -0.26953444581E+03  0.32395903076E+03  0.17300000000E+03 0.  1.
         -6    1    1    2    0  503  0.67375431946E+01  0.48231127296E+02 -0.22880870957E+03  0.29095371058E+03  0.17300000000E+03 0. -1.
<mgrwt>
<rscale>  2 0.17972378E+03</rscale>
<asrwt>0</asrwt>
<pdfrwt beam="1">  1       21 0.89668913E-02 0.17972378E+03</pdfrwt>
<pdfrwt beam="2">  1       21 0.85635068E-01 0.17972378E+03</pdfrwt>
<totfact> 0.11638648E+05</totfact>
</mgrwt>
</event>
<event>
 4    1  0.3875622E-001  0.1826694E+03  0.7546771E-02  0.1165244E+00
         21   -1    0    0  501  502  0.00000000000E+00  0.00000000000E+00  0.23121659651E+03  0.23121659651E+03  0.00000000000E+00 0.  1.
         21   -1    0    0  502  503 -0.00000000000E+00 -0.00000000000E+00 -0.24991216668E+03  0.24991216668E+03  0.00000000000E+00 0.  1.
          6    1    1    2  501    0  0.41366152717E+02  0.41568806907E+02  0.14702560750E+03  0.23448806699E+03  0.17300000000E+03 0.  1.
         -6    1    1    2    0  503 -0.41366152717E+02 -0.41568806907E+02 -0.16572117767E+03  0.24664069621E+03  0.17300000000E+03 0.  1.
<mgrwt>
<rscale>  2 0.18266944E+03</rscale>
<asrwt>0</asrwt>
<pdfrwt beam="1">  1       21 0.35571784E-01 0.18266944E+03</pdfrwt>
<pdfrwt beam="2">  1       21 0.38448026E-01 0.18266944E+03</pdfrwt>
<totfact> 0.49940747E+04</totfact>
</mgrwt>
</event>
<event>
 4    1  0.3875622E-001  0.2217221E+03  0.7546771E-02  0.1132606E+00
         21   -1    0    0  501  502  0.00000000000E+00  0.00000000000E+00  0.88223741981E+03  0.88223741981E+03  0.00000000000E+00 0.  1.
         21   -1    0    0  502  503 -0.00000000000E+00 -0.00000000000E+00 -0.56712328339E+02  0.56712328339E+02  0.00000000000E+00 0.  1.
          6    1    1    2  501    0 -0.13424242269E+03 -0.34794423844E+02  0.47477836525E+03  0.52399921383E+03  0.17300000000E+03 0.  1.
         -6    1    1    2    0  503  0.13424242269E+03  0.34794423844E+02  0.35074672622E+03  0.41495053433E+03  0.17300000000E+03 0.  1.
<mgrwt>
<rscale>  2 0.22172208E+03</rscale>
<asrwt>0</asrwt>
<pdfrwt beam="1">  1       21 0.13572882E+00 0.22172208E+03</pdfrwt>
<pdfrwt beam="2">  1       21 0.87249742E-02 0.22172208E+03</pdfrwt>
<totfact> 0.39323073E+04</totfact>
</mgrwt>
</event>
<event>
 4    1  0.3875622E-001  0.1926227E+03  0.7546771E-02  0.1156117E+00
         21   -1    0    0  501  502  0.00000000000E+00  0.00000000000E+00  0.10722775560E+03  0.10722775560E+03  0.00000000000E+00 0. -1.
         21   -1    0    0  502  503 -0.00000000000E+00 -0.00000000000E+00 -0.34720012149E+03  0.34720012149E+03  0.00000000000E+00 0. -1.
          6    1    1    2  501    0 -0.73972678399E+02 -0.41261928318E+02 -0.10676858948E+03  0.22023404727E+03  0.17300000000E+03 0. -1.
         -6    1    1    2    0  503  0.73972678399E+02  0.41261928318E+02 -0.13320377641E+03  0.23419382982E+03  0.17300000000E+03 0. -1.
<mgrwt>
<rscale>  2 0.19262270E+03</rscale>
<asrwt>0</asrwt>
<pdfrwt beam="1">  1       21 0.16496578E-01 0.19262270E+03</pdfrwt>
<pdfrwt beam="2">  1       21 0.53415403E-01 0.19262270E+03</pdfrwt>
<totfact> 0.10938862E+05</totfact>
</mgrwt>
</event>
<event>
 4    1  0.3875622E-001  0.1733310E+03  0.7546771E-02  0.1174418E+00
         21   -1    0    0  501  502  0.00000000000E+00  0.00000000000E+00  0.17373137703E+02  0.17373137703E+02  0.00000000000E+00 0. -1.
         21   -1    0    0  502  503 -0.00000000000E+00 -0.00000000000E+00 -0.19312766680E+04  0.19312766680E+04  0.00000000000E+00 0. -1.
          6    1    1    2  501    0  0.51274362254E+01 -0.94001196439E+01 -0.64187638470E+03  0.66486761546E+03  0.17300000000E+03 0.  1.
         -6    1    1    2    0  503 -0.51274362254E+01  0.94001196439E+01 -0.12720271456E+04  0.12837821902E+04  0.17300000000E+03 0.  1.
<mgrwt>
<rscale>  2 0.17333105E+03</rscale>
<asrwt>0</asrwt>
<pdfrwt beam="1">  1       21 0.26727914E-02 0.17333105E+03</pdfrwt>
<pdfrwt beam="2">  1       21 0.29711938E+00 0.17333105E+03</pdfrwt>
<totfact> 0.27680487E+04</totfact>
</mgrwt>
</event>
<event>
 4    1  0.3875622E-001  0.2442117E+03  0.7546771E-02  0.1117018E+00
         21   -1    0    0  503  502  0.00000000000E+00  0.00000000000E+00  0.33998396772E+03  0.33998396772E+03  0.00000000000E+00 0.  1.
         21   -1    0    0  501  503 -0.00000000000E+00 -0.00000000000E+00 -0.18779216530E+03  0.18779216530E+03  0.00000000000E+00 0.  1.
          6    1    1    2  501    0  0.17048111343E+03 -0.25427703328E+02  0.83574387244E+01  0.24435471126E+03  0.17300000000E+03 0.  1.
         -6    1    1    2    0  502 -0.17048111343E+03  0.25427703328E+02  0.14383436370E+03  0.28342142176E+03  0.17300000000E+03 0.  1.
<mgrwt>
<rscale>  2 0.24421175E+03</rscale>
<asrwt>0</asrwt>
<pdfrwt beam="1">  1       21 0.52305226E-01 0.24421175E+03</pdfrwt>
<pdfrwt beam="2">  1       21 0.28891102E-01 0.24421175E+03</pdfrwt>
<totfact> 0.38789431E+04</totfact>
</mgrwt>
</event>
<event>
 4    1  0.3875622E-001  0.1880751E+03  0.7546771E-02  0.1160209E+00
         21   -1    0    0  501  502  0.00000000000E+00  0.00000000000E+00  0.13110696954E+03  0.13110696954E+03  0.00000000000E+00 0. -1.
         21   -1    0    0  502  503 -0.00000000000E+00 -0.00000000000E+00 -0.31322910882E+03  0.31322910882E+03  0.00000000000E+00 0. -1.
          6    1    1    2  501    0 -0.43335450202E+02  0.59709997197E+02 -0.17378988851E+03  0.25607649318E+03  0.17300000000E+03 0. -1.
         -6    1    1    2    0  503  0.43335450202E+02 -0.59709997197E+02 -0.83322507675E+01  0.18825958518E+03  0.17300000000E+03 0. -1.
<mgrwt>
<rscale>  2 0.18807510E+03</rscale>
<asrwt>0</asrwt>
<pdfrwt beam="1">  1       21 0.20170303E-01 0.18807510E+03</pdfrwt>
<pdfrwt beam="2">  1       21 0.48189093E-01 0.18807510E+03</pdfrwt>
<totfact> 0.93642336E+04</totfact>
</mgrwt>
</event>
<event>
 4    1  0.3875622E-001  0.1760789E+03  0.7546771E-02  0.1171653E+00
         21   -1    0    0  501  502  0.00000000000E+00  0.00000000000E+00  0.65776040436E+03  0.65776040436E+03  0.00000000000E+00 0.  1.
         21   -1    0    0  502  503 -0.00000000000E+00 -0.00000000000E+00 -0.47689652087E+02  0.47689652087E+02  0.00000000000E+00 0.  1.
          6    1    1    2  501    0  0.30664970644E+02  0.11595351467E+02  0.34306150671E+03  0.38560989353E+03  0.17300000000E+03 0.  1.
         -6    1    1    2    0  503 -0.30664970644E+02 -0.11595351467E+02  0.26700924557E+03  0.31984016293E+03  0.17300000000E+03 0.  1.
<mgrwt>
<rscale>  2 0.17607894E+03</rscale>
<asrwt>0</asrwt>
<pdfrwt beam="1">  1       21 0.10119390E+00 0.17607894E+03</pdfrwt>
<pdfrwt beam="2">  1       21 0.73368700E-02 0.17607894E+03</pdfrwt>
<totfact> 0.11204146E+05</totfact>
</mgrwt>
</event>
<event>
 4    1  0.3875622E-001  0.2040404E+03  0.7546771E-02  0.1146374E+00
         21   -1    0    0  503  502  0.00000000000E+00  0.00000000000E+00  0.25803335473E+03  0.25803335473E+03  0.00000000000E+00 0. -1.
         21   -1    0    0  501  503 -0.00000000000E+00 -0.00000000000E+00 -0.16523576954E+03  0.16523576954E+03  0.00000000000E+00 0. -1.
          6    1    1    2  501    0 -0.66414652344E+02 -0.85396561632E+02  0.13924966544E+02  0.20451499573E+03  0.17300000000E+03 0. -1.
         -6    1    1    2    0  502  0.66414652344E+02  0.85396561632E+02  0.78872618647E+02  0.21875412855E+03  0.17300000000E+03 0. -1.
<mgrwt>
<rscale>  2 0.20404039E+03</rscale>
<asrwt>0</asrwt>
<pdfrwt beam="1">  1       21 0.39697439E-01 0.20404039E+03</pdfrwt>
<pdfrwt beam="2">  1       21 0.25420887E-01 0.20404039E+03</pdfrwt>
<totfact> 0.89313228E+04</totfact>
</mgrwt>
</event>
<event>
 4    1  0.3875622E-001  0.2516748E+03  0.7546771E-02  0.1112251E+00
         21   -1    0    0  501  502  0.00000000000E+00  0.00000000000E+00  0.77530034008E+02  0.77530034008E+02  0.00000000000E+00 0. -1.
         21   -1    0    0  502  503 -0.00000000000E+00 -0.00000000000E+00 -0.85688264472E+03  0.85688264472E+03  0.00000000000E+00 0. -1.
          6    1    1    2  501    0 -0.18079575243E+03 -0.26908722258E+02 -0.28885084490E+03  0.38311224730E+03  0.17300000000E+03 0.  1.
         -6    1    1    2    0  503  0.18079575243E+03  0.26908722258E+02 -0.49050176581E+03  0.55130043143E+03  0.17300000000E+03 0.  1.
<mgrwt>
<rscale>  2 0.25167476E+03</rscale>
<asrwt>0</asrwt>
<pdfrwt beam="1">  1       21 0.11927698E-01 0.25167476E+03</pdfrwt>
<pdfrwt beam="2">  1       21 0.13182810E+00 0.25167476E+03</pdfrwt>
<totfact> 0.23933573E+04</totfact>
</mgrwt>
</event>
<event>
 4    1  0.3875622E-001  0.3029101E+03  0.7546771E-02  0.1083795E+00
         21   -1    0    0  501  502  0.00000000000E+00  0.00000000000E+00  0.62448161826E+03  0.62448161826E+03  0.00000000000E+00 0. -1.
         21   -1    0    0  502  503 -0.00000000000E+00 -0.00000000000E+00 -0.24491852045E+03  0.24491852045E+03  0.00000000000E+00 0. -1.
          6    1    1    2  501    0 -0.63054806078E+02  0.24051944934E+03  0.46474091571E+03  0.55474195155E+03  0.17300000000E+03 0. -1.
         -6    1    1    2    0  503  0.63054806078E+02 -0.24051944934E+03 -0.85177817909E+02  0.31465818716E+03  0.17300000000E+03 0. -1.
<mgrwt>
<rscale>  2 0.30291008E+03</rscale>
<asrwt>0</asrwt>
<pdfrwt beam="1">  1       21 0.96074094E-01 0.30291008E+03</pdfrwt>
<pdfrwt beam="2">  1       21 0.37679773E-01 0.30291008E+03</pdfrwt>
<totfact> 0.57210767E+03</totfact>
</mgrwt>
</event>
<event>
 4    1  0.3875622E-001  0.1897955E+03  0.7546771E-02  0.1158646E+00
         21   -1    0    0  501  502  0.00000000000E+00  0.00000000000E+00  0.72789353460E+03  0.72789353460E+03  0.00000000000E+00 0. -1.
         21   -1    0    0  502  503 -0.00000000000E+00 -0.00000000000E+00 -0.49765392341E+02  0.49765392341E+02  0.00000000000E+00 0. -1.
          6    1    1    2  501    0 -0.72164074199E+02  0.29760044547E+02  0.36807086678E+03  0.41412374580E+03  0.17300000000E+03 0. -1.
         -6    1    1    2    0  503  0.72164074199E+02 -0.29760044547E+02  0.31005727548E+03  0.36353518115E+03  0.17300000000E+03 0. -1.
<mgrwt>
<rscale>  2 0.18979545E+03</rscale>
<asrwt>0</asrwt>
<pdfrwt beam="1">  1       21 0.11198361E+00 0.18979545E+03</pdfrwt>
<pdfrwt beam="2">  1       21 0.76562148E-02 0.18979545E+03</pdfrwt>
<totfact> 0.81112227E+04</totfact>
</mgrwt>
</event>
<event>
 4    1  0.3875622E-001  0.1923453E+03  0.7546771E-02  0.1156363E+00
         21   -1    0    0  501  502  0.00000000000E+00  0.00000000000E+00  0.13707347058E+03  0.13707347058E+03  0.00000000000E+00 0.  1.
         21   -1    0    0  502  503 -0.00000000000E+00 -0.00000000000E+00 -0.27157022599E+03  0.27157022599E+03  0.00000000000E+00 0. -1.
          6    1    1    2  501    0 -0.44616726061E+02  0.71253436823E+02 -0.83251896556E+02  0.20958908078E+03  0.17300000000E+03 0. -1.
         -6    1    1    2    0  503  0.44616726061E+02 -0.71253436823E+02 -0.51244858853E+02  0.19905461578E+03  0.17300000000E+03 0.  1.
<mgrwt>
<rscale>  2 0.19234527E+03</rscale>
<asrwt>0</asrwt>
<pdfrwt beam="1">  1       21 0.21088227E-01 0.19234527E+03</pdfrwt>
<pdfrwt beam="2">  1       21 0.41780034E-01 0.19234527E+03</pdfrwt>
<totfact> 0.11529474E+05</totfact>
</mgrwt>
</event>
<event>
 4    1  0.3875622E-001  0.2339098E+03  0.7546771E-02  0.1123918E+00
         21   -1    0    0  503  502  0.00000000000E+00  0.00000000000E+00  0.18627762512E+03  0.18627762512E+03  0.00000000000E+00 0.  1.
         21   -1    0    0  501  503 -0.00000000000E+00 -0.00000000000E+00 -0.36472699697E+03  0.36472699697E+03  0.00000000000E+00 0.  1.
          6    1    1    2  501    0  0.15731352186E+03 -0.61044666565E+01  0.32334058635E+02  0.23613407213E+03  0.17300000000E+03 0.  1.
         -6    1    1    2    0  502 -0.15731352186E+03  0.61044666565E+01 -0.21078343049E+03  0.31487054997E+03  0.17300000000E+03 0.  1.
<mgrwt>
<rscale>  2 0.23390983E+03</rscale>
<asrwt>0</asrwt>
<pdfrwt beam="1">  1       21 0.28658096E-01 0.23390983E+03</pdfrwt>
<pdfrwt beam="2">  1       21 0.56111846E-01 0.23390983E+03</pdfrwt>
<totfact> 0.34104134E+04</totfact>
</mgrwt>
</event>
<event>
 4    1  0.3875622E-001  0.2102013E+03  0.7546771E-02  0.1141407E+00
         21   -1    0    0  501  502  0.00000000000E+00  0.00000000000E+00  0.40419238111E+02  0.40419238111E+02  0.00000000000E+00 0. -1.
         21   -1    0    0  502  503 -0.00000000000E+00 -0.00000000000E+00 -0.11689675979E+04  0.11689675979E+04  0.00000000000E+00 0. -1.
          6    1    1    2  501    0  0.59470864645E+02  0.10353156340E+03 -0.41028177558E+03  0.46099425565E+03  0.17300000000E+03 0. -1.
         -6    1    1    2    0  503 -0.59470864645E+02 -0.10353156340E+03 -0.71826658417E+03  0.74839258033E+03  0.17300000000E+03 0. -1.
<mgrwt>
<rscale>  2 0.21020126E+03</rscale>
<asrwt>0</asrwt>
<pdfrwt beam="1">  1       21 0.62183458E-02 0.21020126E+03</pdfrwt>
<pdfrwt beam="2">  1       21 0.17984113E+00 0.21020126E+03</pdfrwt>
<totfact> 0.33445475E+04</totfact>
</mgrwt>
</event>
<event>
 4    1  0.3875622E-001  0.1956968E+03  0.7546771E-02  0.1153421E+00
         21   -1    0    0  503  502  0.00000000000E+00  0.00000000000E+00  0.47442889079E+03  0.47442889079E+03  0.00000000000E+00 0. -1.
         21   -1    0    0  501  503 -0.00000000000E+00 -0.00000000000E+00 -0.85289921622E+02  0.85289921622E+02  0.00000000000E+00 0. -1.
          6    1    1    2  501    0  0.44013643268E+02  0.80193793570E+02  0.12980891647E+03  0.23483526165E+03  0.17300000000E+03 0. -1.
         -6    1    1    2    0  502 -0.44013643268E+02 -0.80193793570E+02  0.25933005270E+03  0.32488355076E+03  0.17300000000E+03 0. -1.
<mgrwt>
<rscale>  2 0.19569682E+03</rscale>
<asrwt>0</asrwt>
<pdfrwt beam="1">  1       21 0.72989058E-01 0.19569682E+03</pdfrwt>
<pdfrwt beam="2">  1       21 0.13121527E-01 0.19569682E+03</pdfrwt>
<totfact> 0.84324580E+04</totfact>
</mgrwt>
</event>
<event>
 4    1  0.3875622E-001  0.2128825E+03  0.7546771E-02  0.1139303E+00
         21   -1    0    0  503  502  0.00000000000E+00  0.00000000000E+00  0.46422702983E+03  0.46422702983E+03  0.00000000000E+00 0.  1.
         21   -1    0    0  501  503 -0.00000000000E+00 -0.00000000000E+00 -0.10495244868E+03  0.10495244868E+03  0.00000000000E+00 0. -1.
          6    1    1    2  501    0 -0.48421220464E+02  0.11421625702E+03  0.25484730415E+03  0.33206342224E+03  0.17300000000E+03 0. -1.
         -6    1    1    2    0  502  0.48421220464E+02 -0.11421625702E+03  0.10442727700E+03  0.23711605627E+03  0.17300000000E+03 0.  1.
<mgrwt>
<rscale>  2 0.21288252E+03</rscale>
<asrwt>0</asrwt>
<pdfrwt beam="1">  1       21 0.71419542E-01 0.21288252E+03</pdfrwt>
<pdfrwt beam="2">  1       21 0.16146531E-01 0.21288252E+03</pdfrwt>
<totfact> 0.60210925E+04</totfact>
</mgrwt>
</event>
<event>
 4    1  0.3875622E-001  0.1752525E+03  0.7546771E-02  0.1172478E+00
         21   -1    0    0  503  502  0.00000000000E+00  0.00000000000E+00  0.10887377022E+03  0.10887377022E+03  0.00000000000E+00 0.  1.
         21   -1    0    0  501  503 -0.00000000000E+00 -0.00000000000E+00 -0.32541243378E+03  0.32541243378E+03  0.00000000000E+00 0.  1.
          6    1    1    2  501    0  0.22442911261E+02  0.16755708324E+02 -0.18748817022E+03  0.25664226464E+03  0.17300000000E+03 0.  1.
         -6    1    1    2    0  502 -0.22442911261E+02 -0.16755708324E+02 -0.29050493330E+02  0.17764393936E+03  0.17300000000E+03 0.  1.
<mgrwt>
<rscale>  2 0.17525250E+03</rscale>
<asrwt>0</asrwt>
<pdfrwt beam="1">  1       21 0.16749811E-01 0.17525250E+03</pdfrwt>
<pdfrwt beam="2">  1       21 0.50063452E-01 0.17525250E+03</pdfrwt>
<totfact> 0.12259184E+05</totfact>
</mgrwt>
</event>
<event>
 4    1  0.3875622E-001  0.1792656E+03  0.7546771E-02  0.1168516E+00
         21   -1    0    0  501  502  0.00000000000E+00  0.00000000000E+00  0.85681485063E+03  0.85681485063E+03  0.00000000000E+00 0. -1.
         21   -1    0    0  502  503 -0.00000000000E+00 -0.00000000000E+00 -0.37511788067E+02  0.37511788067E+02  0.00000000000E+00 0. -1.
          6    1    1    2  501    0 -0.36623439101E+02 -0.29425681021E+02  0.41494855116E+03  0.45201598102E+03  0.17300000000E+03 0. -1.
         -6    1    1    2    0  503  0.36623439101E+02  0.29425681021E+02  0.40435451140E+03  0.44231065767E+03  0.17300000000E+03 0. -1.
<mgrwt>
<rscale>  2 0.17926558E+03</rscale>
<asrwt>0</asrwt>
<pdfrwt beam="1">  1       21 0.13181765E+00 0.17926558E+03</pdfrwt>
<pdfrwt beam="2">  1       21 0.57710450E-02 0.17926558E+03</pdfrwt>
<totfact> 0.88501275E+04</totfact>
</mgrwt>
</event>
<event>
 4    1  0.3875622E-001  0.2490992E+03  0.7546771E-02  0.1113875E+00
         21   -1    0    0  501  502  0.00000000000E+00  0.00000000000E+00  0.21194259414E+03  0.21194259414E+03  0.00000000000E+00 0.  1.
         21   -1    0    0  502  503 -0.00000000000E+00 -0.00000000000E+00 -0.34379459596E+03  0.34379459596E+03  0.00000000000E+00 0.  1.
          6    1    1    2  501    0  0.17674204777E+02 -0.17835087443E+03  0.41122393676E+02  0.25247071748E+03  0.17300000000E+03 0.  1.
         -6    1    1    2    0  503 -0.17674204777E+02  0.17835087443E+03 -0.17297439550E+03  0.30326647263E+03  0.17300000000E+03 0.  1.
<mgrwt>
<rscale>  2 0.24909920E+03</rscale>
<asrwt>0</asrwt>
<pdfrwt beam="1">  1       21 0.32606553E-01 0.24909920E+03</pdfrwt>
<pdfrwt beam="2">  1       21 0.52891476E-01 0.24909920E+03</pdfrwt>
<totfact> 0.29803727E+04</totfact>
</mgrwt>
</event>
<event>
 4    1  0.3875622E-001  0.1791229E+03  0.7546771E-02  0.1168655E+00
         21   -1    0    0  503  502  0.00000000000E+00  0.00000000000E+00  0.15118026986E+04  0.15118026986E+04  0.00000000000E+00 0.  1.
         21   -1    0    0  501  503 -0.00000000000E+00 -0.00000000000E+00 -0.23264202968E+02  0.23264202968E+02  0.00000000000E+00 0.  1.
          6    1    1    2  501    0 -0.45100322837E+02 -0.11043525286E+02  0.97161959517E+03  0.98799273089E+03  0.17300000000E+03 0.  1.
         -6    1    1    2    0  502  0.45100322837E+02  0.11043525286E+02  0.51691890049E+03  0.54707417071E+03  0.17300000000E+03 0.  1.
<mgrwt>
<rscale>  2 0.17912286E+03</rscale>
<asrwt>0</asrwt>
<pdfrwt beam="1">  1       21 0.23258495E+00 0.17912286E+03</pdfrwt>
<pdfrwt beam="2">  1       21 0.35791093E-02 0.17912286E+03</pdfrwt>
<totfact> 0.40232698E+04</totfact>
</mgrwt>
</event>
<event>
 4    1  0.3875622E-001  0.1815133E+03  0.7546771E-02  0.1166346E+00
         21   -1    0    0  503  502  0.00000000000E+00  0.00000000000E+00  0.74455973829E+02  0.74455973829E+02  0.00000000000E+00 0.  1.
         21   -1    0    0  501  503 -0.00000000000E+00 -0.00000000000E+00 -0.45966693317E+03  0.45966693317E+03  0.00000000000E+00 0.  1.
          6    1    1    2  501    0  0.54235411632E+02 -0.87522245929E+01 -0.24420940904E+03  0.30427835410E+03  0.17300000000E+03 0.  1.
         -6    1    1    2    0  502 -0.54235411632E+02  0.87522245929E+01 -0.14100155030E+03  0.22984455290E+03  0.17300000000E+03 0.  1.
<mgrwt>
<rscale>  2 0.18151331E+03</rscale>
<asrwt>0</asrwt>
<pdfrwt beam="1">  1       21 0.11454765E-01 0.18151331E+03</pdfrwt>
<pdfrwt beam="2">  1       21 0.70717990E-01 0.18151331E+03</pdfrwt>
<totfact> 0.11599277E+05</totfact>
</mgrwt>
</event>
<event>
 4    1  0.3875622E-001  0.1875373E+03  0.7546771E-02  0.1160702E+00
         21   -1    0    0  503  502  0.00000000000E+00  0.00000000000E+00  0.64034838425E+02  0.64034838425E+02  0.00000000000E+00 0. -1.
         21   -1    0    0  501  503 -0.00000000000E+00 -0.00000000000E+00 -0.62624577266E+03  0.62624577266E+03  0.00000000000E+00 0. -1.
          6    1    1    2  501    0  0.31623312262E+02 -0.65124403673E+02 -0.40213655334E+03  0.44371615855E+03  0.17300000000E+03 0. -1.
         -6    1    1    2    0  502 -0.31623312262E+02  0.65124403673E+02 -0.16007438090E+03  0.24656445253E+03  0.17300000000E+03 0. -1.
<mgrwt>
<rscale>  2 0.18753725E+03</rscale>
<asrwt>0</asrwt>
<pdfrwt beam="1">  1       21 0.98515139E-02 0.18753725E+03</pdfrwt>
<pdfrwt beam="2">  1       21 0.96345501E-01 0.18753725E+03</pdfrwt>
<totfact> 0.74846326E+04</totfact>
</mgrwt>
</event>
<event>
 4    1  0.3875622E-001  0.2753290E+03  0.7546771E-02  0.1098268E+00
         21   -1    0    0  503  502  0.00000000000E+00  0.00000000000E+00  0.13925456562E+03  0.13925456562E+03  0.00000000000E+00 0. -1.
         21   -1    0    0  501  503 -0.00000000000E+00 -0.00000000000E+00 -0.55251847625E+03  0.55251847625E+03  0.00000000000E+00 0.  1.
          6    1    1    2  501    0  0.11561083107E+03 -0.18030854564E+03 -0.16462772052E+03  0.32079327028E+03  0.17300000000E+03 0. -1.
         -6    1    1    2    0  502 -0.11561083107E+03  0.18030854564E+03 -0.24863619011E+03  0.37097977159E+03  0.17300000000E+03 0.  1.
<mgrwt>
<rscale>  2 0.27532896E+03</rscale>
<asrwt>0</asrwt>
<pdfrwt beam="1">  1       21 0.21423779E-01 0.27532896E+03</pdfrwt>
<pdfrwt beam="2">  1       21 0.85002842E-01 0.27532896E+03</pdfrwt>
<totfact> 0.23306661E+04</totfact>
</mgrwt>
</event>
<event>
 4    1  0.3875622E-001  0.2189135E+03  0.7546771E-02  0.1134696E+00
         21   -1    0    0  501  502  0.00000000000E+00  0.00000000000E+00  0.15993023195E+04  0.15993023195E+04  0.00000000000E+00 0. -1.
         21   -1    0    0  502  503 -0.00000000000E+00 -0.00000000000E+00 -0.37882019253E+02  0.37882019253E+02  0.00000000000E+00 0.  1.
          6    1    1    2  501    0  0.13255954353E+03 -0.20544573999E+02  0.11549340892E+04  0.11754981338E+04  0.17300000000E+03 0. -1.
         -6    1    1    2    0  503 -0.13255954353E+03  0.20544573999E+02  0.40648621107E+03  0.46168620501E+03  0.17300000000E+03 0.  1.
<mgrwt>
<rscale>  2 0.21891348E+03</rscale>
<asrwt>0</asrwt>
<pdfrwt beam="1">  1       21 0.24604646E+00 0.21891348E+03</pdfrwt>
<pdfrwt beam="2">  1       21 0.58280042E-02 0.21891348E+03</pdfrwt>
<totfact> 0.14212279E+04</totfact>
</mgrwt>
</event>
<event>
 4    1  0.3875622E-001  0.1730103E+03  0.7546771E-02  0.1174744E+00
         21   -1    0    0  503  502  0.00000000000E+00  0.00000000000E+00  0.44602464771E+03  0.44602464771E+03  0.00000000000E+00 0. -1.
         21   -1    0    0  501  503 -0.00000000000E+00 -0.00000000000E+00 -0.72029223546E+02  0.72029223546E+02  0.00000000000E+00 0. -1.
          6    1    1    2  501    0 -0.12308773657E+01  0.14274948846E+01  0.11930299082E+03  0.21015650459E+03  0.17300000000E+03 0. -1.
         -6    1    1    2    0  502  0.12308773657E+01 -0.14274948846E+01  0.25469243335E+03  0.30789736667E+03  0.17300000000E+03 0. -1.
<mgrwt>
<rscale>  2 0.17301027E+03</rscale>
<asrwt>0</asrwt>
<pdfrwt beam="1">  1       21 0.68619175E-01 0.17301027E+03</pdfrwt>
<pdfrwt beam="2">  1       21 0.11081419E-01 0.17301027E+03</pdfrwt>
<totfact> 0.13186925E+05</totfact>
</mgrwt>
</event>
<event>
 4    1  0.3875622E-001  0.1908410E+03  0.7546771E-02  0.1157705E+00
         21   -1    0    0  501  502  0.00000000000E+00  0.00000000000E+00  0.21908597636E+03  0.21908597636E+03  0.00000000000E+00 0.  1.
         21   -1    0    0  502  503 -0.00000000000E+00 -0.00000000000E+00 -0.18894800795E+03  0.18894800795E+03  0.00000000000E+00 0.  1.
          6    1    1    2  501    0  0.41166065587E+02 -0.69257886258E+02  0.85799827150E+02  0.20924127247E+03  0.17300000000E+03 0.  1.
         -6    1    1    2    0  503 -0.41166065587E+02  0.69257886258E+02 -0.55661858737E+02  0.19879271185E+03  0.17300000000E+03 0.  1.
<mgrwt>
<rscale>  2 0.19084103E+03</rscale>
<asrwt>0</asrwt>
<pdfrwt beam="1">  1       21 0.33705535E-01 0.19084103E+03</pdfrwt>
<pdfrwt beam="2">  1       21 0.29068924E-01 0.19084103E+03</pdfrwt>
<totfact> 0.96140904E+04</totfact>
</mgrwt>
</event>
<event>
 4    1  0.3875622E-001  0.2348322E+03  0.7546771E-02  0.1123284E+00
         21   -1    0    0  501  502  0.00000000000E+00  0.00000000000E+00  0.43175270599E+03  0.43175270599E+03  0.00000000000E+00 0.  1.
         21   -1    0    0  502  503 -0.00000000000E+00 -0.00000000000E+00 -0.13667516737E+03  0.13667516737E+03  0.00000000000E+00 0. -1.
          6    1    1    2  501    0  0.14696398928E+03  0.60156161929E+02  0.22026389302E+03  0.32196639659E+03  0.17300000000E+03 0.  1.
         -6    1    1    2    0  503 -0.14696398928E+03 -0.60156161929E+02  0.74813645599E+02  0.24646147677E+03  0.17300000000E+03 0. -1.
<mgrwt>
<rscale>  2 0.23483223E+03</rscale>
<asrwt>0</asrwt>
<pdfrwt beam="1">  1       21 0.66423493E-01 0.23483223E+03</pdfrwt>
<pdfrwt beam="2">  1       21 0.21026949E-01 0.23483223E+03</pdfrwt>
<totfact> 0.42814757E+04</totfact>
</mgrwt>
</event>
<event>
 4    1  0.3875622E-001  0.1876607E+03  0.7546771E-02  0.1160588E+00
         21   -1    0    0  503  502  0.00000000000E+00  0.00000000000E+00  0.28156438739E+03  0.28156438739E+03  0.00000000000E+00 0.  1.
         21   -1    0    0  501  503 -0.00000000000E+00 -0.00000000000E+00 -0.17142930975E+03  0.17142930975E+03  0.00000000000E+00 0.  1.
          6    1    1    2  501    0  0.72493254203E+02  0.56799613458E+01 -0.62711194407E+02  0.19786163794E+03  0.17300000000E+03 0.  1.
         -6    1    1    2    0  502 -0.72493254203E+02 -0.56799613458E+01  0.17284627205E+03  0.25513205919E+03  0.17300000000E+03 0.  1.
<mgrwt>
<rscale>  2 0.18766069E+03</rscale>
<asrwt>0</asrwt>
<pdfrwt beam="1">  1       21 0.43317598E-01 0.18766069E+03</pdfrwt>
<pdfrwt beam="2">  1       21 0.26373740E-01 0.18766069E+03</pdfrwt>
<totfact> 0.70195517E+04</totfact>
</mgrwt>
</event>
<event>
 4    1  0.3875622E-001  0.2367258E+03  0.7546771E-02  0.1121993E+00
         21   -1    0    0  503  502  0.00000000000E+00  0.00000000000E+00  0.31602531824E+03  0.31602531824E+03  0.00000000000E+00 0. -1.
         21   -1    0    0  501  503 -0.00000000000E+00 -0.00000000000E+00 -0.25820088430E+03  0.25820088430E+03  0.00000000000E+00 0. -1.
          6    1    1    2  501    0 -0.15713362928E+03 -0.37671540556E+02 -0.13177607674E+03  0.27093183057E+03  0.17300000000E+03 0. -1.
         -6    1    1    2    0  502  0.15713362928E+03  0.37671540556E+02  0.18960051068E+03  0.30329437197E+03  0.17300000000E+03 0. -1.
<mgrwt>
<rscale>  2 0.23672584E+03</rscale>
<asrwt>0</asrwt>
<pdfrwt beam="1">  1       21 0.48619280E-01 0.23672584E+03</pdfrwt>
<pdfrwt beam="2">  1       21 0.39723213E-01 0.23672584E+03</pdfrwt>
<totfact> 0.24092604E+04</totfact>
</mgrwt>
</event>
<event>
 4    1  0.3875622E-001  0.2327157E+03  0.7546771E-02  0.1124743E+00
         21   -1    0    0  501  502  0.00000000000E+00  0.00000000000E+00  0.16561401669E+03  0.16561401669E+03  0.00000000000E+00 0.  1.
         21   -1    0    0  502  503 -0.00000000000E+00 -0.00000000000E+00 -0.33310530934E+03  0.33310530934E+03  0.00000000000E+00 0.  1.
          6    1    1    2  501    0  0.14140338301E+03 -0.65058919000E+02 -0.49999964982E+02  0.23802641905E+03  0.17300000000E+03 0.  1.
         -6    1    1    2    0  503 -0.14140338301E+03  0.65058919000E+02 -0.11749132767E+03  0.26069290698E+03  0.17300000000E+03 0.  1.
<mgrwt>
<rscale>  2 0.23271566E+03</rscale>
<asrwt>0</asrwt>
<pdfrwt beam="1">  1       21 0.25479080E-01 0.23271566E+03</pdfrwt>
<pdfrwt beam="2">  1       21 0.51246971E-01 0.23271566E+03</pdfrwt>
<totfact> 0.51906467E+04</totfact>
</mgrwt>
</event>
<event>
 4    1  0.3875622E-001  0.2278562E+03  0.7546771E-02  0.1128158E+00
         21   -1    0    0  501  502  0.00000000000E+00  0.00000000000E+00  0.11278017112E+03  0.11278017112E+03  0.00000000000E+00 0. -1.
         21   -1    0    0  502  503 -0.00000000000E+00 -0.00000000000E+00 -0.60121205789E+03  0.60121205789E+03  0.00000000000E+00 0. -1.
          6    1    1    2  501    0 -0.89301765843E+01  0.14801926185E+03 -0.41701657316E+03  0.47520655743E+03  0.17300000000E+03 0. -1.
         -6    1    1    2    0  503  0.89301765843E+01 -0.14801926185E+03 -0.71415313607E+02  0.23878567158E+03  0.17300000000E+03 0. -1.
<mgrwt>
<rscale>  2 0.22785620E+03</rscale>
<asrwt>0</asrwt>
<pdfrwt beam="1">  1       21 0.17350796E-01 0.22785620E+03</pdfrwt>
<pdfrwt beam="2">  1       21 0.92494163E-01 0.22785620E+03</pdfrwt>
<totfact> 0.29061077E+04</totfact>
</mgrwt>
</event>
<event>
 4    1  0.3875622E-001  0.1773798E+03  0.7546771E-02  0.1170363E+00
         21   -1    0    0  503  502  0.00000000000E+00  0.00000000000E+00  0.49953363859E+02  0.49953363859E+02  0.00000000000E+00 0. -1.
         21   -1    0    0  501  503 -0.00000000000E+00 -0.00000000000E+00 -0.67876575631E+03  0.67876575631E+03  0.00000000000E+00 0. -1.
          6    1    1    2  501    0  0.38914753949E+02  0.44983422216E+01 -0.41220940299E+03  0.44875403627E+03  0.17300000000E+03 0. -1.
         -6    1    1    2    0  502 -0.38914753949E+02 -0.44983422216E+01 -0.21660298946E+03  0.27996508390E+03  0.17300000000E+03 0. -1.
<mgrwt>
<rscale>  2 0.17737980E+03</rscale>
<asrwt>0</asrwt>
<pdfrwt beam="1">  1       21 0.76851331E-02 0.17737980E+03</pdfrwt>
<pdfrwt beam="2">  1       21 0.10442550E+00 0.17737980E+03</pdfrwt>
<totfact> 0.95878385E+04</totfact>
</mgrwt>
</event>
<event>
 4    1  0.3875622E-001  0.1985956E+03  0.7546771E-02  0.1150929E+00
         21   -1    0    0  503  502  0.00000000000E+00  0.00000000000E+00  0.15404580505E+03  0.15404580505E+03  0.00000000000E+00 0.  1.
         21   -1    0    0  501  503 -0.00000000000E+00 -0.00000000000E+00 -0.25609585934E+03  0.25609585934E+03  0.00000000000E+00 0.  1.
          6    1    1    2  501    0 -0.97230381982E+02  0.75810537737E+01 -0.47715759277E+02  0.20424743142E+03  0.17300000000E+03 0. -1.
         -6    1    1    2    0  502  0.97230381982E+02 -0.75810537737E+01 -0.54334295015E+02  0.20589423297E+03  0.17300000000E+03 0. -1.
<mgrwt>
<rscale>  2 0.19859562E+03</rscale>
<asrwt>0</asrwt>
<pdfrwt beam="1">  1       21 0.23699355E-01 0.19859562E+03</pdfrwt>
<pdfrwt beam="2">  1       21 0.39399363E-01 0.19859562E+03</pdfrwt>
<totfact> 0.10389332E+05</totfact>
</mgrwt>
</event>
<event>
 4    1  0.3875622E-001  0.3396013E+03  0.7546771E-02  0.1066966E+00
         21   -1    0    0  503  502  0.00000000000E+00  0.00000000000E+00  0.41247067208E+03  0.41247067208E+03  0.00000000000E+00 0. -1.
         21   -1    0    0  501  503 -0.00000000000E+00 -0.00000000000E+00 -0.36333715161E+03  0.36333715161E+03  0.00000000000E+00 0.  1.
          6    1    1    2  501    0  0.28849566177E+03 -0.46586454448E+02  0.21078157737E+03  0.39969728290E+03  0.17300000000E+03 0. -1.
         -6    1    1    2    0  502 -0.28849566177E+03  0.46586454448E+02 -0.16164805689E+03  0.37611054079E+03  0.17300000000E+03 0.  1.
<mgrwt>
<rscale>  2 0.33960130E+03</rscale>
<asrwt>0</asrwt>
<pdfrwt beam="1">  1       21 0.63457026E-01 0.33960130E+03</pdfrwt>
<pdfrwt beam="2">  1       21 0.55898024E-01 0.33960130E+03</pdfrwt>
<totfact> 0.63686701E+03</totfact>
</mgrwt>
</event>
<event>
 4    1  0.3875622E-001  0.2213811E+03  0.7546771E-02  0.1132858E+00
         21   -1    0    0  503  502  0.00000000000E+00  0.00000000000E+00  0.72722653841E+02  0.72722653841E+02  0.00000000000E+00 0.  1.
         21   -1    0    0  501  503 -0.00000000000E+00 -0.00000000000E+00 -0.10052723146E+04  0.10052723146E+04  0.00000000000E+00 0.  1.
          6    1    1    2  501    0 -0.33670628732E+02  0.13396597767E+03 -0.77572219292E+03  0.80669356945E+03  0.17300000000E+03 0.  1.
         -6    1    1    2    0  502  0.33670628732E+02 -0.13396597767E+03 -0.15682746779E+03  0.27130139894E+03  0.17300000000E+03 0.  1.
<mgrwt>
<rscale>  2 0.22138111E+03</rscale>
<asrwt>0</asrwt>
<pdfrwt beam="1">  1       21 0.11188101E-01 0.22138111E+03</pdfrwt>
<pdfrwt beam="2">  1       21 0.15465728E+00 0.22138111E+03</pdfrwt>
<totfact> 0.17983528E+04</totfact>
</mgrwt>
</event>
<event>
 4    1  0.3875622E-001  0.2500091E+03  0.7546771E-02  0.1113299E+00
         21   -1    0    0  503  502  0.00000000000E+00  0.00000000000E+00  0.81464733788E+02  0.81464733788E+02  0.00000000000E+00 0.  1.
         21   -1    0    0  501  503 -0.00000000000E+00 -0.00000000000E+00 -0.79066644576E+03  0.79066644576E+03  0.00000000000E+00 0. -1.
          6    1    1    2  501    0  0.77974344913E+02 -0.16277460634E+03 -0.42962996907E+03  0.49707794284E+03  0.17300000000E+03 0. -1.
         -6    1    1    2    0  502 -0.77974344913E+02  0.16277460634E+03 -0.27957174290E+03  0.37505323670E+03  0.17300000000E+03 0.  1.
<mgrwt>
<rscale>  2 0.25000914E+03</rscale>
<asrwt>0</asrwt>
<pdfrwt beam="1">  1       21 0.12533036E-01 0.25000914E+03</pdfrwt>
<pdfrwt beam="2">  1       21 0.12164100E+00 0.25000914E+03</pdfrwt>
<totfact> 0.26856504E+04</totfact>
</mgrwt>
</event>
<event>
 4    1  0.3875622E-001  0.2482970E+03  0.7546771E-02  0.1114386E+00
         21   -1    0    0  501  502  0.00000000000E+00  0.00000000000E+00  0.87103332586E+03  0.87103332586E+03  0.00000000000E+00 0.  1.
         21   -1    0    0  502  503 -0.00000000000E+00 -0.00000000000E+00 -0.73766699185E+02  0.73766699185E+02  0.00000000000E+00 0.  1.
          6    1    1    2  501    0  0.11461503232E+03 -0.13632975987E+03  0.49369444686E+03  0.55261706083E+03  0.17300000000E+03 0.  1.
         -6    1    1    2    0  503 -0.11461503232E+03  0.13632975987E+03  0.30357217981E+03  0.39218296421E+03  0.17300000000E+03 0.  1.
<mgrwt>
<rscale>  2 0.24829702E+03</rscale>
<asrwt>0</asrwt>
<pdfrwt beam="1">  1       21 0.13400512E+00 0.24829702E+03</pdfrwt>
<pdfrwt beam="2">  1       21 0.11348724E-01 0.24829702E+03</pdfrwt>
<totfact> 0.25139163E+04</totfact>
</mgrwt>
</event>
<event>
 4    1  0.3875622E-001  0.1827931E+03  0.7546771E-02  0.1165127E+00
         21   -1    0    0  501  502  0.00000000000E+00  0.00000000000E+00  0.28899303980E+03  0.28899303980E+03  0.00000000000E+00 0.  1.
         21   -1    0    0  502  503 -0.00000000000E+00 -0.00000000000E+00 -0.28803592797E+03  0.28803592797E+03  0.00000000000E+00 0.  1.
          6    1    1    2  501    0  0.35784436533E+02  0.46944681986E+02  0.22369859627E+03  0.28888473660E+03  0.17300000000E+03 0.  1.
         -6    1    1    2    0  503 -0.35784436533E+02 -0.46944681986E+02 -0.22274148445E+03  0.28814423117E+03  0.17300000000E+03 0.  1.
<mgrwt>
<rscale>  2 0.18279313E+03</rscale>
<asrwt>0</asrwt>
<pdfrwt beam="1">  1       21 0.44460468E-01 0.18279313E+03</pdfrwt>
<pdfrwt beam="2">  1       21 0.44313219E-01 0.18279313E+03</pdfrwt>
<totfact> 0.23888812E+04</totfact>
</mgrwt>
</event>
<event>
 4    1  0.3875622E-001  0.2255330E+03  0.7546771E-02  0.1129824E+00
         21   -1    0    0  501  502  0.00000000000E+00  0.00000000000E+00  0.33316714138E+03  0.33316714138E+03  0.00000000000E+00 0. -1.
         21   -1    0    0  502  503 -0.00000000000E+00 -0.00000000000E+00 -0.22464357143E+03  0.22464357143E+03  0.00000000000E+00 0. -1.
          6    1    1    2  501    0 -0.99389786687E+02  0.10515603062E+03  0.21212898993E+03  0.30961884445E+03  0.17300000000E+03 0. -1.
         -6    1    1    2    0  503  0.99389786687E+02 -0.10515603062E+03 -0.10360541997E+03  0.24819186836E+03  0.17300000000E+03 0. -1.
<mgrwt>
<rscale>  2 0.22553297E+03</rscale>
<asrwt>0</asrwt>
<pdfrwt beam="1">  1       21 0.51256484E-01 0.22553297E+03</pdfrwt>
<pdfrwt beam="2">  1       21 0.34560549E-01 0.22553297E+03</pdfrwt>
<totfact> 0.28685523E+04</totfact>
</mgrwt>
</event>
<event>
 4    1  0.3875622E-001  0.2251205E+03  0.7546771E-02  0.1130122E+00
         21   -1    0    0  503  502  0.00000000000E+00  0.00000000000E+00  0.43047462459E+03  0.43047462459E+03  0.00000000000E+00 0. -1.
         21   -1    0    0  501  503 -0.00000000000E+00 -0.00000000000E+00 -0.17910853562E+03  0.17910853562E+03  0.00000000000E+00 0. -1.
          6    1    1    2  501    0  0.12085529067E+03 -0.78385192168E+02 -0.52742695269E+02  0.23121641710E+03  0.17300000000E+03 0. -1.
         -6    1    1    2    0  502 -0.12085529067E+03  0.78385192168E+02  0.30410878424E+03  0.37836674310E+03  0.17300000000E+03 0. -1.
<mgrwt>
<rscale>  2 0.22512050E+03</rscale>
<asrwt>0</asrwt>
<pdfrwt beam="1">  1       21 0.66226865E-01 0.22512050E+03</pdfrwt>
<pdfrwt beam="2">  1       21 0.27555159E-01 0.22512050E+03</pdfrwt>
<totfact> 0.25829469E+04</totfact>
</mgrwt>
</event>
<event>
 4    1  0.3875622E-001  0.2164697E+03  0.7546771E-02  0.1136543E+00
         21   -1    0    0  501  502  0.00000000000E+00  0.00000000000E+00  0.32497380738E+03  0.32497380738E+03  0.00000000000E+00 0.  1.
         21   -1    0    0  502  503 -0.00000000000E+00 -0.00000000000E+00 -0.15423857229E+03  0.15423857229E+03  0.00000000000E+00 0.  1.
          6    1    1    2  501    0  0.11853379752E+03  0.53664576841E+02  0.24220556355E+02  0.21782053005E+03  0.17300000000E+03 0.  1.
         -6    1    1    2    0  503 -0.11853379752E+03 -0.53664576841E+02  0.14651467874E+03  0.26139184962E+03  0.17300000000E+03 0.  1.
<mgrwt>
<rscale>  2 0.21646974E+03</rscale>
<asrwt>0</asrwt>
<pdfrwt beam="1">  1       21 0.49995970E-01 0.21646974E+03</pdfrwt>
<pdfrwt beam="2">  1       21 0.23729011E-01 0.21646974E+03</pdfrwt>
<totfact> 0.63073835E+04</totfact>
</mgrwt>
</event>
<event>
 4    1  0.3875622E-001  0.1939065E+03  0.7546771E-02  0.1154984E+00
         21   -1    0    0  503  502  0.00000000000E+00  0.00000000000E+00  0.39820628870E+02  0.39820628870E+02  0.00000000000E+00 0.  1.
         21   -1    0    0  501  503 -0.00000000000E+00 -0.00000000000E+00 -0.14478928195E+04  0.14478928195E+04  0.00000000000E+00 0.  1.
          6    1    1    2  501    0 -0.84963815666E+02  0.21257551875E+02 -0.11427608130E+04  0.11590953409E+04  0.17300000000E+03 0.  1.
         -6    1    1    2    0  502  0.84963815666E+02 -0.21257551875E+02 -0.26531137765E+03  0.32861810753E+03  0.17300000000E+03 0.  1.
<mgrwt>
<rscale>  2 0.19390651E+03</rscale>
<asrwt>0</asrwt>
<pdfrwt beam="1">  1       21 0.61262508E-02 0.19390651E+03</pdfrwt>
<pdfrwt beam="2">  1       21 0.22275273E+00 0.19390651E+03</pdfrwt>
<totfact> 0.18393792E+04</totfact>
</mgrwt>
</event>
<event>
 4    1  0.3875622E-001  0.1744625E+03  0.7546771E-02  0.1173272E+00
         21   -1    0    0  501  502  0.00000000000E+00  0.00000000000E+00  0.34823114258E+02  0.34823114258E+02  0.00000000000E+00 0.  1.
         21   -1    0    0  502  503 -0.00000000000E+00 -0.00000000000E+00 -0.97314505975E+03  0.97314505975E+03  0.00000000000E+00 0.  1.
          6    1    1    2  501    0  0.16801102194E+02  0.15029599526E+02 -0.62998561541E+03  0.65369644448E+03  0.17300000000E+03 0.  1.
         -6    1    1    2    0  503 -0.16801102194E+02 -0.15029599526E+02 -0.30833633008E+03  0.35427172953E+03  0.17300000000E+03 0.  1.
<mgrwt>
<rscale>  2 0.17446251E+03</rscale>
<asrwt>0</asrwt>
<pdfrwt beam="1">  1       21 0.53574026E-02 0.17446251E+03</pdfrwt>
<pdfrwt beam="2">  1       21 0.14971461E+00 0.17446251E+03</pdfrwt>
<totfact> 0.72549412E+04</totfact>
</mgrwt>
</event>
<event>
 4    1  0.3875622E-001  0.2044128E+03  0.7546771E-02  0.1146068E+00
         21   -1    0    0  503  502  0.00000000000E+00  0.00000000000E+00  0.18958952821E+03  0.18958952821E+03  0.00000000000E+00 0. -1.
         21   -1    0    0  501  503 -0.00000000000E+00 -0.00000000000E+00 -0.22645982383E+03  0.22645982383E+03  0.00000000000E+00 0. -1.
          6    1    1    2  501    0  0.60868989674E+02  0.90280554070E+02 -0.52477771698E+02  0.21104153352E+03  0.17300000000E+03 0. -1.
         -6    1    1    2    0  502 -0.60868989674E+02 -0.90280554070E+02  0.15607476076E+02  0.20500781853E+03  0.17300000000E+03 0. -1.
<mgrwt>
<rscale>  2 0.20441285E+03</rscale>
<asrwt>0</asrwt>
<pdfrwt beam="1">  1       21 0.29167620E-01 0.20441285E+03</pdfrwt>
<pdfrwt beam="2">  1       21 0.34839973E-01 0.20441285E+03</pdfrwt>
<totfact> 0.88949756E+04</totfact>
</mgrwt>
</event>
<event>
 4    1  0.3875622E-001  0.2023565E+03  0.7546771E-02  0.1147766E+00
         21   -1    0    0  503  502  0.00000000000E+00  0.00000000000E+00  0.37153772762E+03  0.37153772762E+03  0.00000000000E+00 0. -1.
         21   -1    0    0  501  503 -0.00000000000E+00 -0.00000000000E+00 -0.11287837433E+03  0.11287837433E+03  0.00000000000E+00 0. -1.
          6    1    1    2  501    0  0.14432531751E+02 -0.10397523852E+03  0.92108262690E+02  0.22233326394E+03  0.17300000000E+03 0. -1.
         -6    1    1    2    0  502 -0.14432531751E+02  0.10397523852E+03  0.16655109060E+03  0.26208283801E+03  0.17300000000E+03 0. -1.
<mgrwt>
<rscale>  2 0.20235649E+03</rscale>
<asrwt>0</asrwt>
<pdfrwt beam="1">  1       21 0.57159650E-01 0.20235649E+03</pdfrwt>
<pdfrwt beam="2">  1       21 0.17365904E-01 0.20235649E+03</pdfrwt>
<totfact> 0.85868220E+04</totfact>
</mgrwt>
</event>
<event>
 4    1  0.3875622E-001  0.2382191E+03  0.7546771E-02  0.1120985E+00
         21   -1    0    0  503  502  0.00000000000E+00  0.00000000000E+00  0.15494138001E+03  0.15494138001E+03  0.00000000000E+00 0.  1.
         21   -1    0    0  501  503 -0.00000000000E+00 -0.00000000000E+00 -0.70362796188E+03  0.70362796188E+03  0.00000000000E+00 0.  1.
          6    1    1    2  501    0 -0.15320789523E+03  0.57850477021E+02 -0.57159735607E+03  0.61925105920E+03  0.17300000000E+03 0.  1.
         -6    1    1    2    0  502  0.15320789523E+03 -0.57850477021E+02  0.22910774199E+02  0.23931828268E+03  0.17300000000E+03 0.  1.
<mgrwt>
<rscale>  2 0.23821909E+03</rscale>
<asrwt>0</asrwt>
<pdfrwt beam="1">  1       21 0.23837135E-01 0.23821909E+03</pdfrwt>
<pdfrwt beam="2">  1       21 0.10825046E+00 0.23821909E+03</pdfrwt>
<totfact> 0.10930288E+04</totfact>
</mgrwt>
</event>
<event>
 4    1  0.3875622E-001  0.1866165E+03  0.7546771E-02  0.1161549E+00
         21   -1    0    0  503  502  0.00000000000E+00  0.00000000000E+00  0.72265822729E+02  0.72265822729E+02  0.00000000000E+00 0. -1.
         21   -1    0    0  501  503 -0.00000000000E+00 -0.00000000000E+00 -0.11360024559E+04  0.11360024559E+04  0.00000000000E+00 0. -1.
          6    1    1    2  501    0 -0.45220573056E+02 -0.53402570930E+02 -0.99028751536E+03  0.10077177670E+04  0.17300000000E+03 0. -1.
         -6    1    1    2    0  502  0.45220573056E+02  0.53402570930E+02 -0.73449117789E+02  0.20055051163E+03  0.17300000000E+03 0. -1.
<mgrwt>
<rscale>  2 0.18661654E+03</rscale>
<asrwt>0</asrwt>
<pdfrwt beam="1">  1       21 0.11117820E-01 0.18661654E+03</pdfrwt>
<pdfrwt beam="2">  1       21 0.17476959E+00 0.18661654E+03</pdfrwt>
<totfact> 0.13352678E+04</totfact>
</mgrwt>
</event>
<event>
 4    1  0.3875622E-001  0.1817965E+03  0.7546771E-02  0.1166076E+00
         21   -1    0    0  501  502  0.00000000000E+00  0.00000000000E+00  0.16415270043E+03  0.16415270043E+03  0.00000000000E+00 0.  1.
         21   -1    0    0  502  503 -0.00000000000E+00 -0.00000000000E+00 -0.21990802100E+03  0.21990802100E+03  0.00000000000E+00 0.  1.
          6    1    1    2  501    0 -0.26234717324E+02  0.49322541934E+02 -0.83682261695E+02  0.20013169279E+03  0.17300000000E+03 0.  1.
         -6    1    1    2    0  503  0.26234717324E+02 -0.49322541934E+02  0.27926941134E+02  0.18392902864E+03  0.17300000000E+03 0.  1.
<mgrwt>
<rscale>  2 0.18179652E+03</rscale>
<asrwt>0</asrwt>
<pdfrwt beam="1">  1       21 0.25254262E-01 0.18179652E+03</pdfrwt>
<pdfrwt beam="2">  1       21 0.33832003E-01 0.18179652E+03</pdfrwt>
<totfact> 0.12551195E+05</totfact>
</mgrwt>
</event>
<event>
 4    1  0.3875622E-001  0.1747210E+03  0.7546771E-02  0.1173012E+00
         21   -1    0    0  501  502  0.00000000000E+00  0.00000000000E+00  0.99889374391E+02  0.99889374391E+02  0.00000000000E+00 0. -1.
         21   -1    0    0  502  503 -0.00000000000E+00 -0.00000000000E+00 -0.32623314758E+03  0.32623314758E+03  0.00000000000E+00 0. -1.
          6    1    1    2  501    0  0.24457122384E+02 -0.51270515308E+00 -0.59605232136E+02  0.18460822679E+03  0.17300000000E+03 0. -1.
         -6    1    1    2    0  503 -0.24457122384E+02  0.51270515308E+00 -0.16673854105E+03  0.24151429517E+03  0.17300000000E+03 0. -1.
<mgrwt>
<rscale>  2 0.17472096E+03</rscale>
<asrwt>0</asrwt>
<pdfrwt beam="1">  1       21 0.15367596E-01 0.17472096E+03</pdfrwt>
<pdfrwt beam="2">  1       21 0.50189715E-01 0.17472096E+03</pdfrwt>
<totfact> 0.14275480E+05</totfact>
</mgrwt>
</event>
<event>
 4    1  0.3875622E-001  0.3361410E+03  0.7546771E-02  0.1068452E+00
         21   -1    0    0  501  502  0.00000000000E+00  0.00000000000E+00  0.64634057427E+03  0.64634057427E+03  0.00000000000E+00 0.  1.
         21   -1    0    0  502  503 -0.00000000000E+00 -0.00000000000E+00 -0.18999813303E+03  0.18999813303E+03  0.00000000000E+00 0. -1.
          6    1    1    2  501    0 -0.55445989012E+02  0.28282060621E+03  0.34637794403E+03  0.48266803613E+03  0.17300000000E+03 0.  1.
         -6    1    1    2    0  503  0.55445989012E+02 -0.28282060621E+03  0.10996449721E+03  0.35367067116E+03  0.17300000000E+03 0. -1.
<mgrwt>
<rscale>  2 0.33614097E+03</rscale>
<asrwt>0</asrwt>
<pdfrwt beam="1">  1       21 0.99437010E-01 0.33614097E+03</pdfrwt>
<pdfrwt beam="2">  1       21 0.29230482E-01 0.33614097E+03</pdfrwt>
<totfact> 0.86148275E+03</totfact>
</mgrwt>
</event>
<event>
 4    1  0.3875622E-001  0.4562893E+03  0.7546771E-02  0.1025863E+00
         21   -1    0    0  501  502  0.00000000000E+00  0.00000000000E+00  0.26242121534E+03  0.26242121534E+03  0.00000000000E+00 0.  1.
         21   -1    0    0  502  503 -0.00000000000E+00 -0.00000000000E+00 -0.92913978824E+03  0.92913978824E+03  0.00000000000E+00 0.  1.
          6    1    1    2  501    0 -0.41669275756E+03 -0.68103254759E+02 -0.10562399606E+03  0.46835492530E+03  0.17300000000E+03 0.  1.
         -6    1    1    2    0  503  0.41669275756E+03  0.68103254759E+02 -0.56109457684E+03  0.72320607828E+03  0.17300000000E+03 0.  1.
<mgrwt>
<rscale>  2 0.45628928E+03</rscale>
<asrwt>0</asrwt>
<pdfrwt beam="1">  1       21 0.40372494E-01 0.45628928E+03</pdfrwt>
<pdfrwt beam="2">  1       21 0.14294458E+00 0.45628928E+03</pdfrwt>
<totfact> 0.17089703E+03</totfact>
</mgrwt>
</event>
<event>
 4    1  0.3875622E-001  0.1797060E+03  0.7546771E-02  0.1168088E+00
         21   -1    0    0  501  502  0.00000000000E+00  0.00000000000E+00  0.20715933540E+03  0.20715933540E+03  0.00000000000E+00 0. -1.
         21   -1    0    0  502  503 -0.00000000000E+00 -0.00000000000E+00 -0.16661395512E+03  0.16661395512E+03  0.00000000000E+00 0. -1.
          6    1    1    2  501    0 -0.17539707876E+02  0.45360962225E+02  0.67683956608E+02  0.19202962331E+03  0.17300000000E+03 0. -1.
         -6    1    1    2    0  503  0.17539707876E+02 -0.45360962225E+02 -0.27138576326E+02  0.18174366721E+03  0.17300000000E+03 0. -1.
<mgrwt>
<rscale>  2 0.17970603E+03</rscale>
<asrwt>0</asrwt>
<pdfrwt beam="1">  1       21 0.31870667E-01 0.17970603E+03</pdfrwt>
<pdfrwt beam="2">  1       21 0.25632916E-01 0.17970603E+03</pdfrwt>
<totfact> 0.13729602E+05</totfact>
</mgrwt>
</event>
<event>
 4    1  0.3875622E-001  0.1799430E+03  0.7546771E-02  0.1167858E+00
         21   -1    0    0  503  502  0.00000000000E+00  0.00000000000E+00  0.67132651327E+03  0.67132651327E+03  0.00000000000E+00 0. -1.
         21   -1    0    0  501  503 -0.00000000000E+00 -0.00000000000E+00 -0.49279717066E+02  0.49279717066E+02  0.00000000000E+00 0.  1.
          6    1    1    2  501    0  0.48520842238E+02 -0.98094906189E+01  0.25849043624E+03  0.31495524105E+03  0.17300000000E+03 0.  1.
         -6    1    1    2    0  502 -0.48520842238E+02  0.98094906189E+01  0.36355635996E+03  0.40565098928E+03  0.17300000000E+03 0. -1.
<mgrwt>
<rscale>  2 0.17994304E+03</rscale>
<asrwt>0</asrwt>
<pdfrwt beam="1">  1       21 0.10328100E+00 0.17994304E+03</pdfrwt>
<pdfrwt beam="2">  1       21 0.75814954E-02 0.17994304E+03</pdfrwt>
<totfact> 0.10067066E+05</totfact>
</mgrwt>
</event>
<event>
 4    1  0.3875622E-001  0.3363543E+03  0.7546771E-02  0.1068359E+00
         21   -1    0    0  501  502  0.00000000000E+00  0.00000000000E+00  0.17923766233E+03  0.17923766233E+03  0.00000000000E+00 0. -1.
         21   -1    0    0  502  503 -0.00000000000E+00 -0.00000000000E+00 -0.76445802650E+03  0.76445802650E+03  0.00000000000E+00 0.  1.
          6    1    1    2  501    0 -0.19034950337E+03 -0.21673091398E+03 -0.95605201905E+02  0.34967781905E+03  0.17300000000E+03 0. -1.
         -6    1    1    2    0  503  0.19034950337E+03  0.21673091398E+03 -0.48961516226E+03  0.59401786978E+03  0.17300000000E+03 0.  1.
<mgrwt>
<rscale>  2 0.33635431E+03</rscale>
<asrwt>0</asrwt>
<pdfrwt beam="1">  1       21 0.27575024E-01 0.33635431E+03</pdfrwt>
<pdfrwt beam="2">  1       21 0.11760893E+00 0.33635431E+03</pdfrwt>
<totfact> 0.63984761E+03</totfact>
</mgrwt>
</event>
<event>
 4    1  0.3875622E-001  0.2102002E+03  0.7546771E-02  0.1141408E+00
         21   -1    0    0  503  502  0.00000000000E+00  0.00000000000E+00  0.19195192692E+03  0.19195192692E+03  0.00000000000E+00 0. -1.
         21   -1    0    0  501  503 -0.00000000000E+00 -0.00000000000E+00 -0.23129569982E+03  0.23129569982E+03  0.00000000000E+00 0.  1.
          6    1    1    2  501    0  0.60468975369E+02  0.10294960654E+03 -0.49954410578E+01  0.21025953700E+03  0.17300000000E+03 0.  1.
         -6    1    1    2    0  502 -0.60468975369E+02 -0.10294960654E+03 -0.34348331847E+02  0.21298808974E+03  0.17300000000E+03 0. -1.
<mgrwt>
<rscale>  2 0.21020019E+03</rscale>
<asrwt>0</asrwt>
<pdfrwt beam="1">  1       21 0.29531066E-01 0.21020019E+03</pdfrwt>
<pdfrwt beam="2">  1       21 0.35583954E-01 0.21020019E+03</pdfrwt>
<totfact> 0.83057367E+04</totfact>
</mgrwt>
</event>
<event>
 4    1  0.3875622E-001  0.1758255E+03  0.7546771E-02  0.1171905E+00
         21   -1    0    0  501  502  0.00000000000E+00  0.00000000000E+00  0.37077391618E+03  0.37077391618E+03  0.00000000000E+00 0.  1.
         21   -1    0    0  502  503 -0.00000000000E+00 -0.00000000000E+00 -0.95955242065E+02  0.95955242065E+02  0.00000000000E+00 0.  1.
          6    1    1    2  501    0 -0.12142689006E+01  0.31370985183E+02  0.52923717965E+02  0.18361789968E+03  0.17300000000E+03 0.  1.
         -6    1    1    2    0  503  0.12142689006E+01 -0.31370985183E+02  0.22189495615E+03  0.28311125856E+03  0.17300000000E+03 0.  1.
<mgrwt>
<rscale>  2 0.17582552E+03</rscale>
<asrwt>0</asrwt>
<pdfrwt beam="1">  1       21 0.57042140E-01 0.17582552E+03</pdfrwt>
<pdfrwt beam="2">  1       21 0.14762345E-01 0.17582552E+03</pdfrwt>
<totfact> 0.11730710E+05</totfact>
</mgrwt>
</event>
<event>
 4    1  0.3875622E-001  0.2343984E+03  0.7546771E-02  0.1123582E+00
         21   -1    0    0  501  502  0.00000000000E+00  0.00000000000E+00  0.77034834642E+03  0.77034834642E+03  0.00000000000E+00 0.  1.
         21   -1    0    0  502  503 -0.00000000000E+00 -0.00000000000E+00 -0.71480591563E+02  0.71480591563E+02  0.00000000000E+00 0. -1.
          6    1    1    2  501    0 -0.67036746415E+02 -0.14324693758E+03  0.32959352657E+03  0.40444344877E+03  0.17300000000E+03 0.  1.
         -6    1    1    2    0  503  0.67036746415E+02  0.14324693758E+03  0.36927422829E+03  0.43738548921E+03  0.17300000000E+03 0. -1.
<mgrwt>
<rscale>  2 0.23439840E+03</rscale>
<asrwt>0</asrwt>
<pdfrwt beam="1">  1       21 0.11851512E+00 0.23439840E+03</pdfrwt>
<pdfrwt beam="2">  1       21 0.10997015E-01 0.23439840E+03</pdfrwt>
<totfact> 0.36521213E+04</totfact>
</mgrwt>
</event>
<event>
 4    1  0.3875622E-001  0.2992251E+03  0.7546771E-02  0.1085629E+00
         21   -1    0    0  503  502  0.00000000000E+00  0.00000000000E+00  0.32365022980E+03  0.32365022980E+03  0.00000000000E+00 0.  1.
         21   -1    0    0  501  503 -0.00000000000E+00 -0.00000000000E+00 -0.40607010740E+03  0.40607010740E+03  0.00000000000E+00 0. -1.
          6    1    1    2  501    0  0.21307984757E+03  0.11917892966E+03 -0.24719618029E+03  0.38812574028E+03  0.17300000000E+03 0.  1.
         -6    1    1    2    0  502 -0.21307984757E+03 -0.11917892966E+03  0.16477630270E+03  0.34159459692E+03  0.17300000000E+03 0. -1.
<mgrwt>
<rscale>  2 0.29922506E+03</rscale>
<asrwt>0</asrwt>
<pdfrwt beam="1">  1       21 0.49792343E-01 0.29922506E+03</pdfrwt>
<pdfrwt beam="2">  1       21 0.62472324E-01 0.29922506E+03</pdfrwt>
<totfact> 0.85838287E+03</totfact>
</mgrwt>
</event>
<event>
 4    1  0.3875622E-001  0.1918172E+03  0.7546771E-02  0.1156832E+00
         21   -1    0    0  503  502  0.00000000000E+00  0.00000000000E+00  0.60393760258E+02  0.60393760258E+02  0.00000000000E+00 0.  1.
         21   -1    0    0  501  503 -0.00000000000E+00 -0.00000000000E+00 -0.75328382436E+03  0.75328382436E+03  0.00000000000E+00 0.  1.
          6    1    1    2  501    0  0.44095352233E+02 -0.70145829956E+02 -0.52435560696E+03  0.55833918016E+03  0.17300000000E+03 0.  1.
         -6    1    1    2    0  502 -0.44095352233E+02  0.70145829956E+02 -0.16853445714E+03  0.25533840446E+03  0.17300000000E+03 0.  1.
<mgrwt>
<rscale>  2 0.19181720E+03</rscale>
<asrwt>0</asrwt>
<pdfrwt beam="1">  1       21 0.92913475E-02 0.19181720E+03</pdfrwt>
<pdfrwt beam="2">  1       21 0.11588982E+00 0.19181720E+03</pdfrwt>
<totfact> 0.53166844E+04</totfact>
</mgrwt>
</event>
<event>
 4    1  0.3875622E-001  0.2119568E+03  0.7546771E-02  0.1140026E+00
         21   -1    0    0  503  502  0.00000000000E+00  0.00000000000E+00  0.16490770666E+03  0.16490770666E+03  0.00000000000E+00 0. -1.
         21   -1    0    0  501  503 -0.00000000000E+00 -0.00000000000E+00 -0.28470087181E+03  0.28470087181E+03  0.00000000000E+00 0.  1.
          6    1    1    2  501    0  0.56300477203E+02  0.10875176584E+03 -0.10656900852E+03  0.23723963388E+03  0.17300000000E+03 0. -1.
         -6    1    1    2    0  502 -0.56300477203E+02 -0.10875176584E+03 -0.13224156630E+02  0.21236894459E+03  0.17300000000E+03 0. -1.
<mgrwt>
<rscale>  2 0.21195681E+03</rscale>
<asrwt>0</asrwt>
<pdfrwt beam="1">  1       21 0.25370417E-01 0.21195681E+03</pdfrwt>
<pdfrwt beam="2">  1       21 0.43800134E-01 0.21195681E+03</pdfrwt>
<totfact> 0.73143051E+04</totfact>
</mgrwt>
</event>
<event>
 4    1  0.3875622E-001  0.1993279E+03  0.7546771E-02  0.1150307E+00
         21   -1    0    0  501  502  0.00000000000E+00  0.00000000000E+00  0.19578165781E+04  0.19578165781E+04  0.00000000000E+00 0.  1.
         21   -1    0    0  502  503 -0.00000000000E+00 -0.00000000000E+00 -0.32885217894E+02  0.32885217894E+02  0.00000000000E+00 0.  1.
          6    1    1    2  501    0  0.49842670042E+02  0.85547092635E+02  0.15783691519E+04  0.15909056466E+04  0.17300000000E+03 0.  1.
         -6    1    1    2    0  503 -0.49842670042E+02 -0.85547092635E+02  0.34656220827E+03  0.39979614933E+03  0.17300000000E+03 0.  1.
<mgrwt>
<rscale>  2 0.19932786E+03</rscale>
<asrwt>0</asrwt>
<pdfrwt beam="1">  1       21 0.30120246E+00 0.19932786E+03</pdfrwt>
<pdfrwt beam="2">  1       21 0.50592658E-02 0.19932786E+03</pdfrwt>
<totfact> 0.87945426E+03</totfact>
</mgrwt>
</event>
<event>
 4    1  0.3875622E-001  0.1763427E+03  0.7546771E-02  0.1171390E+00
         21   -1    0    0  501  502  0.00000000000E+00  0.00000000000E+00  0.65977516652E+02  0.65977516652E+02  0.00000000000E+00 0. -1.
         21   -1    0    0  502  503 -0.00000000000E+00 -0.00000000000E+00 -0.53727947964E+03  0.53727947964E+03  0.00000000000E+00 0. -1.
          6    1    1    2  501    0  0.25676786796E+02  0.22548511955E+02 -0.12996913441E+03  0.21906325267E+03  0.17300000000E+03 0. -1.
         -6    1    1    2    0  503 -0.25676786796E+02 -0.22548511955E+02 -0.34133282858E+03  0.38419374362E+03  0.17300000000E+03 0. -1.
<mgrwt>
<rscale>  2 0.17634266E+03</rscale>
<asrwt>0</asrwt>
<pdfrwt beam="1">  1       21 0.10150387E-01 0.17634266E+03</pdfrwt>
<pdfrwt beam="2">  1       21 0.82658383E-01 0.17634266E+03</pdfrwt>
<totfact> 0.10158740E+05</totfact>
</mgrwt>
</event>
<event>
 4    1  0.3875622E-001  0.2253183E+03  0.7546771E-02  0.1129979E+00
         21   -1    0    0  503  502  0.00000000000E+00  0.00000000000E+00  0.74676966136E+02  0.74676966136E+02  0.00000000000E+00 0. -1.
         21   -1    0    0  501  503 -0.00000000000E+00 -0.00000000000E+00 -0.68039379739E+03  0.68039379739E+03  0.00000000000E+00 0. -1.
          6    1    1    2  501    0 -0.12933409677E+03  0.64124944296E+02 -0.31363865760E+03  0.38618327852E+03  0.17300000000E+03 0. -1.
         -6    1    1    2    0  502  0.12933409677E+03 -0.64124944296E+02 -0.29207817365E+03  0.36888748500E+03  0.17300000000E+03 0. -1.
<mgrwt>
<rscale>  2 0.22531826E+03</rscale>
<asrwt>0</asrwt>
<pdfrwt beam="1">  1       21 0.11488764E-01 0.22531826E+03</pdfrwt>
<pdfrwt beam="2">  1       21 0.10467597E+00 0.22531826E+03</pdfrwt>
<totfact> 0.45920011E+04</totfact>
</mgrwt>
</event>
<event>
 4    1  0.3875622E-001  0.3038255E+03  0.7546771E-02  0.1083344E+00
         21   -1    0    0  503  502  0.00000000000E+00  0.00000000000E+00  0.95378685085E+02  0.95378685085E+02  0.00000000000E+00 0.  1.
         21   -1    0    0  501  503 -0.00000000000E+00 -0.00000000000E+00 -0.18372997185E+04  0.18372997185E+04  0.00000000000E+00 0. -1.
          6    1    1    2  501    0  0.16520458739E+03 -0.18731897394E+03 -0.15357250938E+04  0.15654908232E+04  0.17300000000E+03 0. -1.
         -6    1    1    2    0  502 -0.16520458739E+03  0.18731897394E+03 -0.20619593959E+03  0.36718758040E+03  0.17300000000E+03 0.  1.
<mgrwt>
<rscale>  2 0.30382553E+03</rscale>
<asrwt>0</asrwt>
<pdfrwt beam="1">  1       21 0.14673645E-01 0.30382553E+03</pdfrwt>
<pdfrwt beam="2">  1       21 0.28266148E+00 0.30382553E+03</pdfrwt>
<totfact> 0.15716179E+03</totfact>
</mgrwt>
</event>
<event>
 4    1  0.3875622E-001  0.2234599E+03  0.7546771E-02  0.1131330E+00
         21   -1    0    0  501  502  0.00000000000E+00  0.00000000000E+00  0.69673431799E+03  0.69673431799E+03  0.00000000000E+00 0. -1.
         21   -1    0    0  502  503 -0.00000000000E+00 -0.00000000000E+00 -0.72238480771E+02  0.72238480771E+02  0.00000000000E+00 0. -1.
          6    1    1    2  501    0 -0.14083099380E+03  0.13113977484E+02  0.27811408250E+03  0.35676573281E+03  0.17300000000E+03 0. -1.
         -6    1    1    2    0  503  0.14083099380E+03 -0.13113977484E+02  0.34638175471E+03  0.41220706595E+03  0.17300000000E+03 0. -1.
<mgrwt>
<rscale>  2 0.22345994E+03</rscale>
<asrwt>0</asrwt>
<pdfrwt beam="1">  1       21 0.10718989E+00 0.22345994E+03</pdfrwt>
<pdfrwt beam="2">  1       21 0.11113613E-01 0.22345994E+03</pdfrwt>
<totfact> 0.46053297E+04</totfact>
</mgrwt>
</event>
<event>
 4    1  0.3875622E-001  0.1875143E+03  0.7546771E-02  0.1160723E+00
         21   -1    0    0  503  502  0.00000000000E+00  0.00000000000E+00  0.12420195736E+04  0.12420195736E+04  0.00000000000E+00 0.  1.
         21   -1    0    0  501  503 -0.00000000000E+00 -0.00000000000E+00 -0.28536519104E+02  0.28536519104E+02  0.00000000000E+00 0.  1.
          6    1    1    2  501    0  0.38323525822E+02  0.61350837738E+02  0.66333703515E+03  0.68933129925E+03  0.17300000000E+03 0. -1.
         -6    1    1    2    0  502 -0.38323525822E+02 -0.61350837738E+02  0.55014601930E+03  0.58122479341E+03  0.17300000000E+03 0. -1.
<mgrwt>
<rscale>  2 0.18751431E+03</rscale>
<asrwt>0</asrwt>
<pdfrwt beam="1">  1       21 0.19107989E+00 0.18751431E+03</pdfrwt>
<pdfrwt beam="2">  1       21 0.43902347E-02 0.18751431E+03</pdfrwt>
<totfact> 0.51585962E+04</totfact>
</mgrwt>
</event>
<event>
 4    1  0.3875622E-001  0.1878813E+03  0.7546771E-02  0.1160386E+00
         21   -1    0    0  503  502  0.00000000000E+00  0.00000000000E+00  0.77315982987E+03  0.77315982987E+03  0.00000000000E+00 0. -1.
         21   -1    0    0  501  503 -0.00000000000E+00 -0.00000000000E+00 -0.49010148823E+02  0.49010148823E+02  0.00000000000E+00 0. -1.
          6    1    1    2  501    0 -0.57980806737E+02  0.44817302793E+02  0.25453200120E+03  0.31636356335E+03  0.17300000000E+03 0. -1.
         -6    1    1    2    0  502  0.57980806737E+02 -0.44817302793E+02  0.46961767985E+03  0.50580641535E+03  0.17300000000E+03 0. -1.
<mgrwt>
<rscale>  2 0.18788125E+03</rscale>
<asrwt>0</asrwt>
<pdfrwt beam="1">  1       21 0.11894766E+00 0.18788125E+03</pdfrwt>
<pdfrwt beam="2">  1       21 0.75400235E-02 0.18788125E+03</pdfrwt>
<totfact> 0.71952858E+04</totfact>
</mgrwt>
</event>
<event>
 4    1  0.3875622E-001  0.1873945E+03  0.7546771E-02  0.1160832E+00
         21   -1    0    0  503  502  0.00000000000E+00  0.00000000000E+00  0.11037863504E+03  0.11037863504E+03  0.00000000000E+00 0. -1.
         21   -1    0    0  501  503 -0.00000000000E+00 -0.00000000000E+00 -0.70451015920E+03  0.70451015920E+03  0.00000000000E+00 0. -1.
          6    1    1    2  501    0  0.58581449096E+02  0.41903786175E+02 -0.59879830814E+03  0.62743615397E+03  0.17300000000E+03 0. -1.
         -6    1    1    2    0  502 -0.58581449096E+02 -0.41903786175E+02  0.46667839726E+01  0.18745264028E+03  0.17300000000E+03 0. -1.
<mgrwt>
<rscale>  2 0.18739454E+03</rscale>
<asrwt>0</asrwt>
<pdfrwt beam="1">  1       21 0.16981329E-01 0.18739454E+03</pdfrwt>
<pdfrwt beam="2">  1       21 0.10838617E+00 0.18739454E+03</pdfrwt>
<totfact> 0.21227093E+04</totfact>
</mgrwt>
</event>
<event>
 4    1  0.3875622E-001  0.2322261E+03  0.7546771E-02  0.1125083E+00
         21   -1    0    0  503  502  0.00000000000E+00  0.00000000000E+00  0.49689953580E+03  0.49689953580E+03  0.00000000000E+00 0. -1.
         21   -1    0    0  501  503 -0.00000000000E+00 -0.00000000000E+00 -0.13218651081E+03  0.13218651081E+03  0.00000000000E+00 0. -1.
          6    1    1    2  501    0  0.35852190934E+02  0.15071358441E+03  0.49294716720E+02  0.23740036482E+03  0.17300000000E+03 0. -1.
         -6    1    1    2    0  502 -0.35852190934E+02 -0.15071358441E+03  0.31541830827E+03  0.39168568178E+03  0.17300000000E+03 0. -1.
<mgrwt>
<rscale>  2 0.23222611E+03</rscale>
<asrwt>0</asrwt>
<pdfrwt beam="1">  1       21 0.76446081E-01 0.23222611E+03</pdfrwt>
<pdfrwt beam="2">  1       21 0.20336387E-01 0.23222611E+03</pdfrwt>
<totfact> 0.33396592E+04</totfact>
</mgrwt>
</event>
<event>
 4    1  0.3875622E-001  0.2474618E+03  0.7546771E-02  0.1114919E+00
         21   -1    0    0  501  502  0.00000000000E+00  0.00000000000E+00  0.14012382341E+03  0.14012382341E+03  0.00000000000E+00 0. -1.
         21   -1    0    0  502  503 -0.00000000000E+00 -0.00000000000E+00 -0.47350884365E+03  0.47350884365E+03  0.00000000000E+00 0. -1.
          6    1    1    2  501    0  0.11711130635E+03 -0.13263970234E+03 -0.81524600828E+02  0.26054483156E+03  0.17300000000E+03 0. -1.
         -6    1    1    2    0  503 -0.11711130635E+03  0.13263970234E+03 -0.25186041942E+03  0.35308783550E+03  0.17300000000E+03 0. -1.
<mgrwt>
<rscale>  2 0.24746181E+03</rscale>
<asrwt>0</asrwt>
<pdfrwt beam="1">  1       21 0.21557511E-01 0.24746181E+03</pdfrwt>
<pdfrwt beam="2">  1       21 0.72847515E-01 0.24746181E+03</pdfrwt>
<totfact> 0.33106590E+04</totfact>
</mgrwt>
</event>
<event>
 4    1  0.3875622E-001  0.1830128E+03  0.7546771E-02  0.1164919E+00
         21   -1    0    0  501  502  0.00000000000E+00  0.00000000000E+00  0.61013100834E+03  0.61013100834E+03  0.00000000000E+00 0.  1.
         21   -1    0    0  502  503 -0.00000000000E+00 -0.00000000000E+00 -0.54952681957E+02  0.54952681957E+02  0.00000000000E+00 0.  1.
          6    1    1    2  501    0 -0.59466680286E+02  0.53274231558E+01  0.26689607506E+03  0.32361579440E+03  0.17300000000E+03 0.  1.
         -6    1    1    2    0  503  0.59466680286E+02 -0.53274231558E+01  0.28828225132E+03  0.34146789590E+03  0.17300000000E+03 0.  1.
<mgrwt>
<rscale>  2 0.18301275E+03</rscale>
<asrwt>0</asrwt>
<pdfrwt beam="1">  1       21 0.93866304E-01 0.18301275E+03</pdfrwt>
<pdfrwt beam="2">  1       21 0.84542592E-02 0.18301275E+03</pdfrwt>
<totfact> 0.10423151E+05</totfact>
</mgrwt>
</event>
<event>
 4    1  0.3875622E-001  0.1776533E+03  0.7546771E-02  0.1170094E+00
         21   -1    0    0  503  502  0.00000000000E+00  0.00000000000E+00  0.43601156513E+02  0.43601156513E+02  0.00000000000E+00 0. -1.
         21   -1    0    0  501  503 -0.00000000000E+00 -0.00000000000E+00 -0.74596494063E+03  0.74596494063E+03  0.00000000000E+00 0.  1.
          6    1    1    2  501    0  0.27047905333E+02  0.30001524366E+02 -0.28320741243E+03  0.33431589718E+03  0.17300000000E+03 0. -1.
         -6    1    1    2    0  502 -0.27047905333E+02 -0.30001524366E+02 -0.41915637168E+03  0.45525019997E+03  0.17300000000E+03 0.  1.
<mgrwt>
<rscale>  2 0.17765326E+03</rscale>
<asrwt>0</asrwt>
<pdfrwt beam="1">  1       21 0.67078699E-02 0.17765326E+03</pdfrwt>
<pdfrwt beam="2">  1       21 0.11476384E+00 0.17765326E+03</pdfrwt>
<totfact> 0.96553136E+04</totfact>
</mgrwt>
</event>
<event>
 4    1  0.3875622E-001  0.1749819E+03  0.7546771E-02  0.1172750E+00
         21   -1    0    0  501  502  0.00000000000E+00  0.00000000000E+00  0.42317723794E+03  0.42317723794E+03  0.00000000000E+00 0.  1.
         21   -1    0    0  502  503 -0.00000000000E+00 -0.00000000000E+00 -0.73346952253E+02  0.73346952253E+02  0.00000000000E+00 0.  1.
          6    1    1    2  501    0  0.14906104838E+02 -0.21620994857E+02  0.14603261270E+03  0.22791266606E+03  0.17300000000E+03 0.  1.
         -6    1    1    2    0  503 -0.14906104838E+02  0.21620994857E+02  0.20379767298E+03  0.26861152413E+03  0.17300000000E+03 0.  1.
<mgrwt>
<rscale>  2 0.17498188E+03</rscale>
<asrwt>0</asrwt>
<pdfrwt beam="1">  1       21 0.65104189E-01 0.17498188E+03</pdfrwt>
<pdfrwt beam="2">  1       21 0.11284147E-01 0.17498188E+03</pdfrwt>
<totfact> 0.14310569E+05</totfact>
</mgrwt>
</event>
<event>
 4    1  0.3875622E-001  0.2351790E+03  0.7546771E-02  0.1123047E+00
         21   -1    0    0  501  502  0.00000000000E+00  0.00000000000E+00  0.48213982329E+03  0.48213982329E+03  0.00000000000E+00 0. -1.
         21   -1    0    0  502  503 -0.00000000000E+00 -0.00000000000E+00 -0.14525520618E+03  0.14525520618E+03  0.00000000000E+00 0.  1.
          6    1    1    2  501    0 -0.19655926334E+02  0.15809426560E+03  0.31228045973E+03  0.39093252332E+03  0.17300000000E+03 0. -1.
         -6    1    1    2    0  503  0.19655926334E+02 -0.15809426560E+03  0.24604157372E+02  0.23646250615E+03  0.17300000000E+03 0.  1.
<mgrwt>
<rscale>  2 0.23517898E+03</rscale>
<asrwt>0</asrwt>
<pdfrwt beam="1">  1       21 0.74175357E-01 0.23517898E+03</pdfrwt>
<pdfrwt beam="2">  1       21 0.22346955E-01 0.23517898E+03</pdfrwt>
<totfact> 0.29868214E+04</totfact>
</mgrwt>
</event>
<event>
 4    1  0.3875622E-001  0.1883150E+03  0.7546771E-02  0.1159990E+00
         21   -1    0    0  501  502  0.00000000000E+00  0.00000000000E+00  0.93324500667E+02  0.93324500667E+02  0.00000000000E+00 0.  1.
         21   -1    0    0  502  503 -0.00000000000E+00 -0.00000000000E+00 -0.39811681073E+03  0.39811681073E+03  0.00000000000E+00 0.  1.
          6    1    1    2  501    0  0.52537658414E+02 -0.52662590061E+02 -0.99966814580E+02  0.21320393514E+03  0.17300000000E+03 0.  1.
         -6    1    1    2    0  503 -0.52537658414E+02  0.52662590061E+02 -0.20482549548E+03  0.27823737625E+03  0.17300000000E+03 0.  1.
<mgrwt>
<rscale>  2 0.18831504E+03</rscale>
<asrwt>0</asrwt>
<pdfrwt beam="1">  1       21 0.14357615E-01 0.18831504E+03</pdfrwt>
<pdfrwt beam="2">  1       21 0.61248741E-01 0.18831504E+03</pdfrwt>
<totfact> 0.10546854E+05</totfact>
</mgrwt>
</event>
<event>
 4    1  0.3875622E-001  0.2511375E+03  0.7546771E-02  0.1112588E+00
         21   -1    0    0  501  502  0.00000000000E+00  0.00000000000E+00  0.34905325125E+03  0.34905325125E+03  0.00000000000E+00 0. -1.
         21   -1    0    0  502  503 -0.00000000000E+00 -0.00000000000E+00 -0.20550850784E+03  0.20550850784E+03  0.00000000000E+00 0. -1.
          6    1    1    2  501    0  0.18125099800E+03  0.17002855550E+02  0.16813378151E+03  0.30222341050E+03  0.17300000000E+03 0. -1.
         -6    1    1    2    0  503 -0.18125099800E+03 -0.17002855550E+02 -0.24589038092E+02  0.25233834858E+03  0.17300000000E+03 0. -1.
<mgrwt>
<rscale>  2 0.25113746E+03</rscale>
<asrwt>0</asrwt>
<pdfrwt beam="1">  1       21 0.53700500E-01 0.25113746E+03</pdfrwt>
<pdfrwt beam="2">  1       21 0.31616693E-01 0.25113746E+03</pdfrwt>
<totfact> 0.30646144E+04</totfact>
</mgrwt>
</event>
<event>
 4    1  0.3875622E-001  0.2199286E+03  0.7546771E-02  0.1133936E+00
         21   -1    0    0  501  502  0.00000000000E+00  0.00000000000E+00  0.57552251285E+03  0.57552251285E+03  0.00000000000E+00 0. -1.
         21   -1    0    0  502  503 -0.00000000000E+00 -0.00000000000E+00 -0.10993867868E+03  0.10993867868E+03  0.00000000000E+00 0.  1.
          6    1    1    2  501    0 -0.82244501775E+02 -0.10805300610E+03  0.39912999595E+03  0.45571193079E+03  0.17300000000E+03 0. -1.
         -6    1    1    2    0  503  0.82244501775E+02  0.10805300610E+03  0.66453838216E+02  0.22974926074E+03  0.17300000000E+03 0.  1.
<mgrwt>
<rscale>  2 0.21992865E+03</rscale>
<asrwt>0</asrwt>
<pdfrwt beam="1">  1       21 0.88541923E-01 0.21992865E+03</pdfrwt>
<pdfrwt beam="2">  1       21 0.16913643E-01 0.21992865E+03</pdfrwt>
<totfact> 0.33858591E+04</totfact>
</mgrwt>
</event>
<event>
 4    1  0.3875622E-001  0.2420920E+03  0.7546771E-02  0.1118407E+00
         21   -1    0    0  503  502  0.00000000000E+00  0.00000000000E+00  0.39282152882E+02  0.39282152882E+02  0.00000000000E+00 0. -1.
         21   -1    0    0  501  503 -0.00000000000E+00 -0.00000000000E+00 -0.16808299742E+04  0.16808299742E+04  0.00000000000E+00 0.  1.
          6    1    1    2  501    0 -0.21255525769E+01 -0.16933706140E+03 -0.53249528086E+03  0.58494425587E+03  0.17300000000E+03 0. -1.
         -6    1    1    2    0  502  0.21255525769E+01  0.16933706140E+03 -0.11090525405E+04  0.11351678713E+04  0.17300000000E+03 0.  1.
<mgrwt>
<rscale>  2 0.24209205E+03</rscale>
<asrwt>0</asrwt>
<pdfrwt beam="1">  1       21 0.60434082E-02 0.24209205E+03</pdfrwt>
<pdfrwt beam="2">  1       21 0.25858922E+00 0.24209205E+03</pdfrwt>
<totfact> 0.11045232E+04</totfact>
</mgrwt>
</event>
<event>
 4    1  0.3875622E-001  0.1962738E+03  0.7546771E-02  0.1152921E+00
         21   -1    0    0  501  502  0.00000000000E+00  0.00000000000E+00  0.11171907531E+03  0.11171907531E+03  0.00000000000E+00 0.  1.
         21   -1    0    0  502  503 -0.00000000000E+00 -0.00000000000E+00 -0.35044123224E+03  0.35044123224E+03  0.00000000000E+00 0.  1.
          6    1    1    2  501    0  0.38403722600E+01 -0.92626502616E+02 -0.14861718826E+03  0.24619197000E+03  0.17300000000E+03 0.  1.
         -6    1    1    2    0  503 -0.38403722600E+01  0.92626502616E+02 -0.90104968672E+02  0.21596833755E+03  0.17300000000E+03 0.  1.
<mgrwt>
<rscale>  2 0.19627383E+03</rscale>
<asrwt>0</asrwt>
<pdfrwt beam="1">  1       21 0.17187550E-01 0.19627383E+03</pdfrwt>
<pdfrwt beam="2">  1       21 0.53914035E-01 0.19627383E+03</pdfrwt>
<totfact> 0.99323108E+04</totfact>
</mgrwt>
</event>
<event>
 4    1  0.3875622E-001  0.2145120E+03  0.7546771E-02  0.1138042E+00
         21   -1    0    0  501  502  0.00000000000E+00  0.00000000000E+00  0.24089833847E+03  0.24089833847E+03  0.00000000000E+00 0. -1.
         21   -1    0    0  502  503 -0.00000000000E+00 -0.00000000000E+00 -0.51811785162E+03  0.51811785162E+03  0.00000000000E+00 0. -1.
          6    1    1    2  501    0  0.11753607934E+03  0.47662083700E+02  0.16293262306E+03  0.26937417067E+03  0.17300000000E+03 0. -1.
         -6    1    1    2    0  503 -0.11753607934E+03 -0.47662083700E+02 -0.44015213621E+03  0.48964201942E+03  0.17300000000E+03 0. -1.
<mgrwt>
<rscale>  2 0.21451201E+03</rscale>
<asrwt>0</asrwt>
<pdfrwt beam="1">  1       21 0.37061283E-01 0.21451201E+03</pdfrwt>
<pdfrwt beam="2">  1       21 0.79710438E-01 0.21451201E+03</pdfrwt>
<totfact> 0.95921191E+03</totfact>
</mgrwt>
</event>
<event>
 4    1  0.3875622E-001  0.1920520E+03  0.7546771E-02  0.1156623E+00
         21   -1    0    0  503  502  0.00000000000E+00  0.00000000000E+00  0.60485573247E+03  0.60485573247E+03  0.00000000000E+00 0.  1.
         21   -1    0    0  501  503 -0.00000000000E+00 -0.00000000000E+00 -0.87899031387E+02  0.87899031387E+02  0.00000000000E+00 0. -1.
          6    1    1    2  501    0 -0.81635973274E+02  0.17045579587E+02  0.66793064425E+02  0.20333543068E+03  0.17300000000E+03 0. -1.
         -6    1    1    2    0  502  0.81635973274E+02 -0.17045579587E+02  0.45016363666E+03  0.48941933318E+03  0.17300000000E+03 0.  1.
<mgrwt>
<rscale>  2 0.19205203E+03</rscale>
<asrwt>0</asrwt>
<pdfrwt beam="1">  1       21 0.93054726E-01 0.19205203E+03</pdfrwt>
<pdfrwt beam="2">  1       21 0.13522928E-01 0.19205203E+03</pdfrwt>
<totfact> 0.46042167E+04</totfact>
</mgrwt>
</event>
<event>
 4    1  0.3875622E-001  0.2211343E+03  0.7546771E-02  0.1133040E+00
         21   -1    0    0  503  502  0.00000000000E+00  0.00000000000E+00  0.56724952400E+02  0.56724952400E+02  0.00000000000E+00 0.  1.
         21   -1    0    0  501  503 -0.00000000000E+00 -0.00000000000E+00 -0.86326871583E+03  0.86326871583E+03  0.00000000000E+00 0. -1.
          6    1    1    2  501    0  0.28883310016E+00  0.13773637900E+03 -0.38606955945E+03  0.44491583278E+03  0.17300000000E+03 0.  1.
         -6    1    1    2    0  502 -0.28883310016E+00 -0.13773637900E+03 -0.42047420398E+03  0.47507783545E+03  0.17300000000E+03 0. -1.
<mgrwt>
<rscale>  2 0.22113433E+03</rscale>
<asrwt>0</asrwt>
<pdfrwt beam="1">  1       21 0.87269156E-02 0.22113433E+03</pdfrwt>
<pdfrwt beam="2">  1       21 0.13281057E+00 0.22113433E+03</pdfrwt>
<totfact> 0.41563879E+04</totfact>
</mgrwt>
</event>
<event>
 4    1  0.3875622E-001  0.1834355E+03  0.7546771E-02  0.1164519E+00
         21   -1    0    0  503  502  0.00000000000E+00  0.00000000000E+00  0.77939269160E+02  0.77939269160E+02  0.00000000000E+00 0. -1.
         21   -1    0    0  501  503 -0.00000000000E+00 -0.00000000000E+00 -0.64989134020E+03  0.64989134020E+03  0.00000000000E+00 0. -1.
          6    1    1    2  501    0  0.31690950539E+02 -0.52108269849E+02 -0.49682454467E+03  0.52960666189E+03  0.17300000000E+03 0. -1.
         -6    1    1    2    0  502 -0.31690950539E+02  0.52108269849E+02 -0.75127526375E+02  0.19822394747E+03  0.17300000000E+03 0. -1.
<mgrwt>
<rscale>  2 0.18343551E+03</rscale>
<asrwt>0</asrwt>
<pdfrwt beam="1">  1       21 0.11990657E-01 0.18343551E+03</pdfrwt>
<pdfrwt beam="2">  1       21 0.99983284E-01 0.18343551E+03</pdfrwt>
<totfact> 0.48485852E+04</totfact>
</mgrwt>
</event>
<event>
 4    1  0.3875622E-001  0.1985048E+03  0.7546771E-02  0.1151007E+00
         21   -1    0    0  501  502  0.00000000000E+00  0.00000000000E+00  0.60445787203E+02  0.60445787203E+02  0.00000000000E+00 0.  1.
         21   -1    0    0  502  503 -0.00000000000E+00 -0.00000000000E+00 -0.68465319210E+03  0.68465319210E+03  0.00000000000E+00 0.  1.
          6    1    1    2  501    0  0.91004194002E+02  0.34545480364E+02 -0.23060974935E+03  0.30427785006E+03  0.17300000000E+03 0.  1.
         -6    1    1    2    0  503 -0.91004194002E+02 -0.34545480364E+02 -0.39359765554E+03  0.44082112924E+03  0.17300000000E+03 0.  1.
<mgrwt>
<rscale>  2 0.19850479E+03</rscale>
<asrwt>0</asrwt>
<pdfrwt beam="1">  1       21 0.92993518E-02 0.19850479E+03</pdfrwt>
<pdfrwt beam="2">  1       21 0.10533126E+00 0.19850479E+03</pdfrwt>
<totfact> 0.66685446E+04</totfact>
</mgrwt>
</event>
<event>
 4    1  0.3875622E-001  0.2877912E+03  0.7546771E-02  0.1091508E+00
         21   -1    0    0  501  502  0.00000000000E+00  0.00000000000E+00  0.50589904152E+03  0.50589904152E+03  0.00000000000E+00 0. -1.
         21   -1    0    0  502  503 -0.00000000000E+00 -0.00000000000E+00 -0.16450503383E+03  0.16450503383E+03  0.00000000000E+00 0. -1.
          6    1    1    2  501    0  0.20975479884E+03 -0.94327511384E+02  0.14748184644E+03  0.32338003969E+03  0.17300000000E+03 0. -1.
         -6    1    1    2    0  503 -0.20975479884E+03  0.94327511384E+02  0.19391216125E+03  0.34702403565E+03  0.17300000000E+03 0. -1.
<mgrwt>
<rscale>  2 0.28779117E+03</rscale>
<asrwt>0</asrwt>
<pdfrwt beam="1">  1       21 0.77830621E-01 0.28779117E+03</pdfrwt>
<pdfrwt beam="2">  1       21 0.25308467E-01 0.28779117E+03</pdfrwt>
<totfact> 0.20629612E+04</totfact>
</mgrwt>
</event>
<event>
 4    1  0.3875622E-001  0.1792543E+03  0.7546771E-02  0.1168527E+00
         21   -1    0    0  503  502  0.00000000000E+00  0.00000000000E+00  0.18546533965E+03  0.18546533965E+03  0.00000000000E+00 0. -1.
         21   -1    0    0  501  503 -0.00000000000E+00 -0.00000000000E+00 -0.21022978556E+03  0.21022978556E+03  0.00000000000E+00 0. -1.
          6    1    1    2  501    0  0.34354080437E+02 -0.31983073828E+02 -0.95359249319E+02  0.20304065180E+03  0.17300000000E+03 0. -1.
         -6    1    1    2    0  502 -0.34354080437E+02  0.31983073828E+02  0.70594803416E+02  0.19265447341E+03  0.17300000000E+03 0. -1.
<mgrwt>
<rscale>  2 0.17925434E+03</rscale>
<asrwt>0</asrwt>
<pdfrwt beam="1">  1       21 0.28533129E-01 0.17925434E+03</pdfrwt>
<pdfrwt beam="2">  1       21 0.32343044E-01 0.17925434E+03</pdfrwt>
<totfact> 0.10856966E+05</totfact>
</mgrwt>
</event>
<event>
 4    1  0.3875622E-001  0.2387488E+03  0.7546771E-02  0.1120629E+00
         21   -1    0    0  503  502  0.00000000000E+00  0.00000000000E+00  0.66078032883E+02  0.66078032883E+02  0.00000000000E+00 0.  1.
         21   -1    0    0  501  503 -0.00000000000E+00 -0.00000000000E+00 -0.86443800940E+03  0.86443800940E+03  0.00000000000E+00 0.  1.
          6    1    1    2  501    0 -0.14122248072E+03  0.84428534255E+02 -0.42045131835E+03  0.48350830144E+03  0.17300000000E+03 0.  1.
         -6    1    1    2    0  502  0.14122248072E+03 -0.84428534255E+02 -0.37790865817E+03  0.44700774084E+03  0.17300000000E+03 0.  1.
<mgrwt>
<rscale>  2 0.23874875E+03</rscale>
<asrwt>0</asrwt>
<pdfrwt beam="1">  1       21 0.10165852E-01 0.23874875E+03</pdfrwt>
<pdfrwt beam="2">  1       21 0.13299046E+00 0.23874875E+03</pdfrwt>
<totfact> 0.31346875E+04</totfact>
</mgrwt>
</event>
<event>
 4    1  0.3875622E-001  0.1798385E+03  0.7546771E-02  0.1167959E+00
         21   -1    0    0  501  502  0.00000000000E+00  0.00000000000E+00  0.41217957038E+02  0.41217957038E+02  0.00000000000E+00 0.  1.
         21   -1    0    0  502  503 -0.00000000000E+00 -0.00000000000E+00 -0.99697794772E+03  0.99697794772E+03  0.00000000000E+00 0.  1.
          6    1    1    2  501    0  0.31940097411E+02  0.37319328410E+02 -0.23832547979E+03  0.29856479433E+03  0.17300000000E+03 0.  1.
         -6    1    1    2    0  503 -0.31940097411E+02 -0.37319328410E+02 -0.71743451089E+03  0.73963111043E+03  0.17300000000E+03 0.  1.
<mgrwt>
<rscale>  2 0.17983854E+03</rscale>
<asrwt>0</asrwt>
<pdfrwt beam="1">  1       21 0.63412249E-02 0.17983854E+03</pdfrwt>
<pdfrwt beam="2">  1       21 0.15338120E+00 0.17983854E+03</pdfrwt>
<totfact> 0.50908183E+04</totfact>
</mgrwt>
</event>
<event>
 4    1  0.3875622E-001  0.2068692E+03  0.7546771E-02  0.1144069E+00
         21   -1    0    0  503  502  0.00000000000E+00  0.00000000000E+00  0.22417415731E+03  0.22417415731E+03  0.00000000000E+00 0.  1.
         21   -1    0    0  501  503 -0.00000000000E+00 -0.00000000000E+00 -0.22061050032E+03  0.22061050032E+03  0.00000000000E+00 0.  1.
          6    1    1    2  501    0 -0.13173207391E+02 -0.11266032144E+03 -0.79831400574E+02  0.22173843586E+03  0.17300000000E+03 0.  1.
         -6    1    1    2    0  502  0.13173207391E+02  0.11266032144E+03  0.83395057564E+02  0.22304622177E+03  0.17300000000E+03 0.  1.
<mgrwt>
<rscale>  2 0.20686924E+03</rscale>
<asrwt>0</asrwt>
<pdfrwt beam="1">  1       21 0.34488332E-01 0.20686924E+03</pdfrwt>
<pdfrwt beam="2">  1       21 0.33940077E-01 0.20686924E+03</pdfrwt>
<totfact> 0.67336830E+04</totfact>
</mgrwt>
</event>
<event>
 4    1  0.3875622E-001  0.2553351E+03  0.7546771E-02  0.1109979E+00
         21   -1    0    0  501  502  0.00000000000E+00  0.00000000000E+00  0.22741751990E+03  0.22741751990E+03  0.00000000000E+00 0.  1.
         21   -1    0    0  502  503 -0.00000000000E+00 -0.00000000000E+00 -0.28675063556E+03  0.28675063556E+03  0.00000000000E+00 0.  1.
          6    1    1    2  501    0 -0.18335270175E+03  0.40605351291E+02 -0.25625765145E+02  0.25661778510E+03  0.17300000000E+03 0.  1.
         -6    1    1    2    0  503  0.18335270175E+03 -0.40605351291E+02 -0.33707350510E+02  0.25755037035E+03  0.17300000000E+03 0.  1.
<mgrwt>
<rscale>  2 0.25533509E+03</rscale>
<asrwt>0</asrwt>
<pdfrwt beam="1">  1       21 0.34987311E-01 0.25533509E+03</pdfrwt>
<pdfrwt beam="2">  1       21 0.44115482E-01 0.25533509E+03</pdfrwt>
<totfact> 0.37740878E+04</totfact>
</mgrwt>
</event>
<event>
 4    1  0.3875622E-001  0.2937026E+03  0.7546771E-02  0.1088432E+00
         21   -1    0    0  503  502  0.00000000000E+00  0.00000000000E+00  0.46755409527E+02  0.46755409527E+02  0.00000000000E+00 0. -1.
         21   -1    0    0  501  503 -0.00000000000E+00 -0.00000000000E+00 -0.24383190634E+04  0.24383190634E+04  0.00000000000E+00 0.  1.
          6    1    1    2  501    0  0.95614994001E+02  0.21723251414E+03 -0.18087362241E+04  0.18324267845E+04  0.17300000000E+03 0. -1.
         -6    1    1    2    0  502 -0.95614994001E+02 -0.21723251414E+03 -0.58282742977E+03  0.65264768840E+03  0.17300000000E+03 0. -1.
<mgrwt>
<rscale>  2 0.29370256E+03</rscale>
<asrwt>0</asrwt>
<pdfrwt beam="1">  1       21 0.71931408E-02 0.29370256E+03</pdfrwt>
<pdfrwt beam="2">  1       21 0.37512596E+00 0.29370256E+03</pdfrwt>
<totfact> 0.15893674E+03</totfact>
</mgrwt>
</event>
<event>
 4    1  0.3875622E-001  0.2071871E+03  0.7546771E-02  0.1143813E+00
         21   -1    0    0  501  502  0.00000000000E+00  0.00000000000E+00  0.73445235519E+02  0.73445235519E+02  0.00000000000E+00 0. -1.
         21   -1    0    0  502  503 -0.00000000000E+00 -0.00000000000E+00 -0.87098380616E+03  0.87098380616E+03  0.00000000000E+00 0. -1.
          6    1    1    2  501    0  0.10087719940E+03 -0.53115663484E+02 -0.12793251326E+03  0.24350197333E+03  0.17300000000E+03 0. -1.
         -6    1    1    2    0  503 -0.10087719940E+03  0.53115663484E+02 -0.66960605738E+03  0.70092706835E+03  0.17300000000E+03 0. -1.
<mgrwt>
<rscale>  2 0.20718707E+03</rscale>
<asrwt>0</asrwt>
<pdfrwt beam="1">  1       21 0.11299268E-01 0.20718707E+03</pdfrwt>
<pdfrwt beam="2">  1       21 0.13399750E+00 0.20718707E+03</pdfrwt>
<totfact> 0.25923115E+04</totfact>
</mgrwt>
</event>
<event>
 4    1  0.3875622E-001  0.1744886E+03  0.7546771E-02  0.1173246E+00
         21   -1    0    0  501  502  0.00000000000E+00  0.00000000000E+00  0.58262303757E+03  0.58262303757E+03  0.00000000000E+00 0. -1.
         21   -1    0    0  502  503 -0.00000000000E+00 -0.00000000000E+00 -0.70807926571E+02  0.70807926571E+02  0.00000000000E+00 0. -1.
          6    1    1    2  501    0  0.13707223103E+02  0.18149028081E+02  0.42313544320E+03  0.45770064287E+03  0.17300000000E+03 0. -1.
         -6    1    1    2    0  503 -0.13707223103E+02 -0.18149028081E+02  0.88679667793E+02  0.19573032127E+03  0.17300000000E+03 0. -1.
<mgrwt>
<rscale>  2 0.17448861E+03</rscale>
<asrwt>0</asrwt>
<pdfrwt beam="1">  1       21 0.89634310E-01 0.17448861E+03</pdfrwt>
<pdfrwt beam="2">  1       21 0.10893528E-01 0.17448861E+03</pdfrwt>
<totfact> 0.74547883E+04</totfact>
</mgrwt>
</event>
<event>
 4    1  0.3875622E-001  0.1750216E+03  0.7546771E-02  0.1172710E+00
         21   -1    0    0  503  502  0.00000000000E+00  0.00000000000E+00  0.25396168688E+03  0.25396168688E+03  0.00000000000E+00 0. -1.
         21   -1    0    0  501  503 -0.00000000000E+00 -0.00000000000E+00 -0.12969800670E+03  0.12969800670E+03  0.00000000000E+00 0. -1.
          6    1    1    2  501    0 -0.52571224573E+01  0.25998557807E+02  0.11288612195E+03  0.20826866993E+03  0.17300000000E+03 0.  1.
         -6    1    1    2    0  502  0.52571224573E+01 -0.25998557807E+02  0.11377558228E+02  0.17539102365E+03  0.17300000000E+03 0.  1.
<mgrwt>
<rscale>  2 0.17502161E+03</rscale>
<asrwt>0</asrwt>
<pdfrwt beam="1">  1       21 0.39071029E-01 0.17502161E+03</pdfrwt>
<pdfrwt beam="2">  1       21 0.19953540E-01 0.17502161E+03</pdfrwt>
<totfact> 0.14727195E+05</totfact>
</mgrwt>
</event>
<event>
 4    1  0.3875622E-001  0.2041543E+03  0.7546771E-02  0.1146281E+00
         21   -1    0    0  503  502  0.00000000000E+00  0.00000000000E+00  0.33270275841E+03  0.33270275841E+03  0.00000000000E+00 0.  1.
         21   -1    0    0  501  503 -0.00000000000E+00 -0.00000000000E+00 -0.15406917949E+03  0.15406917949E+03  0.00000000000E+00 0.  1.
          6    1    1    2  501    0  0.10497064132E+03 -0.27039926442E+02 -0.15903095932E+02  0.20477280489E+03  0.17300000000E+03 0.  1.
         -6    1    1    2    0  502 -0.10497064132E+03  0.27039926442E+02  0.19453667485E+03  0.28199913302E+03  0.17300000000E+03 0.  1.
<mgrwt>
<rscale>  2 0.20415434E+03</rscale>
<asrwt>0</asrwt>
<pdfrwt beam="1">  1       21 0.51185040E-01 0.20415434E+03</pdfrwt>
<pdfrwt beam="2">  1       21 0.23702951E-01 0.20415434E+03</pdfrwt>
<totfact> 0.60502059E+04</totfact>
</mgrwt>
</event>
<event>
 4    1  0.3875622E-001  0.2298746E+03  0.7546771E-02  0.1126728E+00
         21   -1    0    0  501  502  0.00000000000E+00  0.00000000000E+00  0.25560410122E+03  0.25560410122E+03  0.00000000000E+00 0. -1.
         21   -1    0    0  502  503 -0.00000000000E+00 -0.00000000000E+00 -0.20939370478E+03  0.20939370478E+03  0.00000000000E+00 0. -1.
          6    1    1    2  501    0  0.10122741706E+03 -0.11254488077E+03  0.49303054537E+02  0.23510238480E+03  0.17300000000E+03 0. -1.
         -6    1    1    2    0  503 -0.10122741706E+03  0.11254488077E+03 -0.30926580994E+01  0.22989542119E+03  0.17300000000E+03 0. -1.
<mgrwt>
<rscale>  2 0.22987462E+03</rscale>
<asrwt>0</asrwt>
<pdfrwt beam="1">  1       21 0.39323708E-01 0.22987462E+03</pdfrwt>
<pdfrwt beam="2">  1       21 0.32214416E-01 0.22987462E+03</pdfrwt>
<totfact> 0.56835358E+04</totfact>
</mgrwt>
</event>
<event>
 4    1  0.3875622E-001  0.1966131E+03  0.7546771E-02  0.1152628E+00
         21   -1    0    0  501  502  0.00000000000E+00  0.00000000000E+00  0.33985504163E+03  0.33985504163E+03  0.00000000000E+00 0.  1.
         21   -1    0    0  502  503 -0.00000000000E+00 -0.00000000000E+00 -0.11444553720E+03  0.11444553720E+03  0.00000000000E+00 0.  1.
          6    1    1    2  501    0 -0.44912431926E+02 -0.81918101096E+02  0.94928931501E+02  0.21833049229E+03  0.17300000000E+03 0.  1.
         -6    1    1    2    0  503  0.44912431926E+02  0.81918101096E+02  0.13048057292E+03  0.23597008654E+03  0.17300000000E+03 0.  1.
<mgrwt>
<rscale>  2 0.19661308E+03</rscale>
<asrwt>0</asrwt>
<pdfrwt beam="1">  1       21 0.52285391E-01 0.19661308E+03</pdfrwt>
<pdfrwt beam="2">  1       21 0.17607006E-01 0.19661308E+03</pdfrwt>
<totfact> 0.10132578E+05</totfact>
</mgrwt>
</event>
<event>
 4    1  0.3875622E-001  0.2102409E+03  0.7546771E-02  0.1141375E+00
         21   -1    0    0  501  502  0.00000000000E+00  0.00000000000E+00  0.13306425740E+03  0.13306425740E+03  0.00000000000E+00 0. -1.
         21   -1    0    0  502  503 -0.00000000000E+00 -0.00000000000E+00 -0.55829622608E+03  0.55829622608E+03  0.00000000000E+00 0.  1.
          6    1    1    2  501    0  0.41368232345E+02  0.11207547153E+03 -0.43260874308E+03  0.48099019383E+03  0.17300000000E+03 0.  1.
         -6    1    1    2    0  503 -0.41368232345E+02 -0.11207547153E+03  0.73767743986E+01  0.21037028965E+03  0.17300000000E+03 0. -1.
<mgrwt>
<rscale>  2 0.21024091E+03</rscale>
<asrwt>0</asrwt>
<pdfrwt beam="1">  1       21 0.20471424E-01 0.21024091E+03</pdfrwt>
<pdfrwt beam="2">  1       21 0.85891727E-01 0.21024091E+03</pdfrwt>
<totfact> 0.25594264E+04</totfact>
</mgrwt>
</event>
<event>
 4    1  0.3875622E-001  0.3597806E+03  0.7546771E-02  0.1058671E+00
         21   -1    0    0  503  502  0.00000000000E+00  0.00000000000E+00  0.44828462429E+03  0.44828462429E+03  0.00000000000E+00 0. -1.
         21   -1    0    0  501  503 -0.00000000000E+00 -0.00000000000E+00 -0.30165825561E+03  0.30165825561E+03  0.00000000000E+00 0.  1.
          6    1    1    2  501    0  0.29817013204E+03 -0.10299361593E+03  0.15088020122E+03  0.39013708832E+03  0.17300000000E+03 0. -1.
         -6    1    1    2    0  502 -0.29817013204E+03  0.10299361593E+03 -0.42538325358E+01  0.35980579158E+03  0.17300000000E+03 0.  1.
<mgrwt>
<rscale>  2 0.35978065E+03</rscale>
<asrwt>0</asrwt>
<pdfrwt beam="1">  1       21 0.68966866E-01 0.35978065E+03</pdfrwt>
<pdfrwt beam="2">  1       21 0.46408962E-01 0.35978065E+03</pdfrwt>
<totfact> 0.77942495E+03</totfact>
</mgrwt>
</event>
<event>
 4    1  0.3875622E-001  0.2054198E+03  0.7546771E-02  0.1145245E+00
         21   -1    0    0  501  502  0.00000000000E+00  0.00000000000E+00  0.83461218455E+03  0.83461218455E+03  0.00000000000E+00 0. -1.
         21   -1    0    0  502  503 -0.00000000000E+00 -0.00000000000E+00 -0.59414918851E+02  0.59414918851E+02  0.00000000000E+00 0.  1.
          6    1    1    2  501    0  0.92757163495E+02  0.60534384711E+02  0.56017664796E+03  0.59665331645E+03  0.17300000000E+03 0. -1.
         -6    1    1    2    0  503 -0.92757163495E+02 -0.60534384711E+02  0.21502061774E+03  0.29737378695E+03  0.17300000000E+03 0.  1.
<mgrwt>
<rscale>  2 0.20541982E+03</rscale>
<asrwt>0</asrwt>
<pdfrwt beam="1">  1       21 0.12840187E+00 0.20541982E+03</pdfrwt>
<pdfrwt beam="2">  1       21 0.91407574E-02 0.20541982E+03</pdfrwt>
<totfact> 0.42088525E+04</totfact>
</mgrwt>
</event>
<event>
 4    1  0.3875622E-001  0.2653278E+03  0.7546771E-02  0.1103984E+00
         21   -1    0    0  501  502  0.00000000000E+00  0.00000000000E+00  0.23140985034E+03  0.23140985034E+03  0.00000000000E+00 0. -1.
         21   -1    0    0  502  503 -0.00000000000E+00 -0.00000000000E+00 -0.35029258474E+03  0.35029258474E+03  0.00000000000E+00 0. -1.
          6    1    1    2  501    0  0.20117095456E+03  0.30829093518E+00 -0.16492621413E+03  0.31240919338E+03  0.17300000000E+03 0. -1.
         -6    1    1    2    0  503 -0.20117095456E+03 -0.30829093518E+00  0.46043479735E+02  0.26929324170E+03  0.17300000000E+03 0. -1.
<mgrwt>
<rscale>  2 0.26532781E+03</rscale>
<asrwt>0</asrwt>
<pdfrwt beam="1">  1       21 0.35601515E-01 0.26532781E+03</pdfrwt>
<pdfrwt beam="2">  1       21 0.53891167E-01 0.26532781E+03</pdfrwt>
<totfact> 0.23871979E+04</totfact>
</mgrwt>
</event>
<event>
 4    1  0.3875622E-001  0.1954231E+03  0.7546771E-02  0.1153659E+00
         21   -1    0    0  503  502  0.00000000000E+00  0.00000000000E+00  0.74368397218E+03  0.74368397218E+03  0.00000000000E+00 0.  1.
         21   -1    0    0  501  503 -0.00000000000E+00 -0.00000000000E+00 -0.23662836863E+03  0.23662836863E+03  0.00000000000E+00 0.  1.
          6    1    1    2  501    0  0.27859573700E+02 -0.86516102202E+02 -0.18019299338E+03  0.26581893584E+03  0.17300000000E+03 0.  1.
         -6    1    1    2    0  502 -0.27859573700E+02  0.86516102202E+02  0.68724859692E+03  0.71449340498E+03  0.17300000000E+03 0.  1.
<mgrwt>
<rscale>  2 0.19542311E+03</rscale>
<asrwt>0</asrwt>
<pdfrwt beam="1">  1       21 0.11441292E+00 0.19542311E+03</pdfrwt>
<pdfrwt beam="2">  1       21 0.36404365E-01 0.19542311E+03</pdfrwt>
<totfact> 0.43099725E+03</totfact>
</mgrwt>
</event>
<event>
 4    1  0.3875622E-001  0.1782412E+03  0.7546771E-02  0.1169516E+00
         21   -1    0    0  503  502  0.00000000000E+00  0.00000000000E+00  0.22551194652E+03  0.22551194652E+03  0.00000000000E+00 0.  1.
         21   -1    0    0  501  503 -0.00000000000E+00 -0.00000000000E+00 -0.15544136278E+03  0.15544136278E+03  0.00000000000E+00 0.  1.
          6    1    1    2  501    0 -0.21143149811E+02  0.37334926057E+02 -0.23265206364E+02  0.17975316218E+03  0.17300000000E+03 0.  1.
         -6    1    1    2    0  502  0.21143149811E+02 -0.37334926057E+02  0.93335790099E+02  0.20120014712E+03  0.17300000000E+03 0.  1.
<mgrwt>
<rscale>  2 0.17824121E+03</rscale>
<asrwt>0</asrwt>
<pdfrwt beam="1">  1       21 0.34694146E-01 0.17824121E+03</pdfrwt>
<pdfrwt beam="2">  1       21 0.23914056E-01 0.17824121E+03</pdfrwt>
<totfact> 0.13264129E+05</totfact>
</mgrwt>
</event>
<event>
 4    1  0.3875622E-001  0.1858133E+03  0.7546771E-02  0.1162293E+00
         21   -1    0    0  501  502  0.00000000000E+00  0.00000000000E+00  0.23144970201E+03  0.23144970201E+03  0.00000000000E+00 0. -1.
         21   -1    0    0  502  503 -0.00000000000E+00 -0.00000000000E+00 -0.15697917031E+03  0.15697917031E+03  0.00000000000E+00 0. -1.
          6    1    1    2  501    0  0.43352576667E+02  0.52135907882E+02  0.80537779118E+02  0.20251649972E+03  0.17300000000E+03 0. -1.
         -6    1    1    2    0  503 -0.43352576667E+02 -0.52135907882E+02 -0.60672474143E+01  0.18591237260E+03  0.17300000000E+03 0. -1.
<mgrwt>
<rscale>  2 0.18581334E+03</rscale>
<asrwt>0</asrwt>
<pdfrwt beam="1">  1       21 0.35607647E-01 0.18581334E+03</pdfrwt>
<pdfrwt beam="2">  1       21 0.24150641E-01 0.18581334E+03</pdfrwt>
<totfact> 0.12332295E+05</totfact>
</mgrwt>
</event>
<event>
 4    1  0.3875622E-001  0.2336879E+03  0.7546771E-02  0.1124071E+00
         21   -1    0    0  501  502  0.00000000000E+00  0.00000000000E+00  0.20341482323E+02  0.20341482323E+02  0.00000000000E+00 0. -1.
         21   -1    0    0  502  503 -0.00000000000E+00 -0.00000000000E+00 -0.26847557467E+04  0.26847557467E+04  0.00000000000E+00 0.  1.
          6    1    1    2  501    0  0.42373518143E+02  0.15127960996E+03 -0.13401347194E+04  0.13603569758E+04  0.17300000000E+03 0. -1.
         -6    1    1    2    0  503 -0.42373518143E+02 -0.15127960996E+03 -0.13242795449E+04  0.13447402532E+04  0.17300000000E+03 0. -1.
<mgrwt>
<rscale>  2 0.23368790E+03</rscale>
<asrwt>0</asrwt>
<pdfrwt beam="1">  1       21 0.31294580E-02 0.23368790E+03</pdfrwt>
<pdfrwt beam="2">  1       21 0.41303945E+00 0.23368790E+03</pdfrwt>
<totfact> 0.40390186E+03</totfact>
</mgrwt>
</event>
<event>
 4    1  0.3875622E-001  0.1924394E+03  0.7546771E-02  0.1156279E+00
         21   -1    0    0  503  502  0.00000000000E+00  0.00000000000E+00  0.20141795192E+03  0.20141795192E+03  0.00000000000E+00 0. -1.
         21   -1    0    0  501  503 -0.00000000000E+00 -0.00000000000E+00 -0.19581840858E+03  0.19581840858E+03  0.00000000000E+00 0.  1.
          6    1    1    2  501    0  0.11674564758E+02 -0.83472408593E+02  0.51880144532E+02  0.19931002949E+03  0.17300000000E+03 0.  1.
         -6    1    1    2    0  502 -0.11674564758E+02  0.83472408593E+02 -0.46280601196E+02  0.19792633101E+03  0.17300000000E+03 0.  1.
<mgrwt>
<rscale>  2 0.19243944E+03</rscale>
<asrwt>0</asrwt>
<pdfrwt beam="1">  1       21 0.30987377E-01 0.19243944E+03</pdfrwt>
<pdfrwt beam="2">  1       21 0.30125909E-01 0.19243944E+03</pdfrwt>
<totfact> 0.10574477E+05</totfact>
</mgrwt>
</event>
<event>
 4    1  0.3875622E-001  0.2010965E+03  0.7546771E-02  0.1148817E+00
         21   -1    0    0  503  502  0.00000000000E+00  0.00000000000E+00  0.16080420400E+04  0.16080420400E+04  0.00000000000E+00 0. -1.
         21   -1    0    0  501  503 -0.00000000000E+00 -0.00000000000E+00 -0.28010711193E+02  0.28010711193E+02  0.00000000000E+00 0.  1.
          6    1    1    2  501    0 -0.10187881134E+03  0.11468008276E+02  0.52852399262E+03  0.56548865434E+03  0.17300000000E+03 0.  1.
         -6    1    1    2    0  502  0.10187881134E+03 -0.11468008276E+02  0.10515073361E+04  0.10705640968E+04  0.17300000000E+03 0. -1.
<mgrwt>
<rscale>  2 0.20109651E+03</rscale>
<asrwt>0</asrwt>
<pdfrwt beam="1">  1       21 0.24739101E+00 0.20109651E+03</pdfrwt>
<pdfrwt beam="2">  1       21 0.43093414E-02 0.20109651E+03</pdfrwt>
<totfact> 0.23651053E+04</totfact>
</mgrwt>
</event>
<event>
 4    1  0.3875622E-001  0.1837193E+03  0.7546771E-02  0.1164251E+00
         21   -1    0    0  501  502  0.00000000000E+00  0.00000000000E+00  0.26323232130E+02  0.26323232130E+02  0.00000000000E+00 0.  1.
         21   -1    0    0  502  503 -0.00000000000E+00 -0.00000000000E+00 -0.15709626433E+04  0.15709626433E+04  0.00000000000E+00 0.  1.
          6    1    1    2  501    0  0.59213800245E+02 -0.17819164672E+02 -0.42994047022E+03  0.46754850518E+03  0.17300000000E+03 0.  1.
         -6    1    1    2    0  503 -0.59213800245E+02  0.17819164672E+02 -0.11146989410E+04  0.11297373703E+04  0.17300000000E+03 0.  1.
<mgrwt>
<rscale>  2 0.18371934E+03</rscale>
<asrwt>0</asrwt>
<pdfrwt beam="1">  1       21 0.40497257E-02 0.18371934E+03</pdfrwt>
<pdfrwt beam="2">  1       21 0.24168670E+00 0.18371934E+03</pdfrwt>
<totfact> 0.28786362E+04</totfact>
</mgrwt>
</event>
<event>
 4    1  0.3875622E-001  0.1855204E+03  0.7546771E-02  0.1162565E+00
         21   -1    0    0  503  502  0.00000000000E+00  0.00000000000E+00  0.67332192019E+03  0.67332192019E+03  0.00000000000E+00 0.  1.
         21   -1    0    0  501  503 -0.00000000000E+00 -0.00000000000E+00 -0.91515574487E+02  0.91515574487E+02  0.00000000000E+00 0.  1.
          6    1    1    2  501    0 -0.55621234281E+02 -0.37350871799E+02  0.36818901681E+02  0.18913868152E+03  0.17300000000E+03 0.  1.
         -6    1    1    2    0  502  0.55621234281E+02  0.37350871799E+02  0.54498744402E+03  0.57569881316E+03  0.17300000000E+03 0.  1.
<mgrwt>
<rscale>  2 0.18552037E+03</rscale>
<asrwt>0</asrwt>
<pdfrwt beam="1">  1       21 0.10358798E+00 0.18552037E+03</pdfrwt>
<pdfrwt beam="2">  1       21 0.14079320E-01 0.18552037E+03</pdfrwt>
<totfact> 0.33347245E+04</totfact>
</mgrwt>
</event>
<event>
 4    1  0.3875622E-001  0.2695063E+03  0.7546771E-02  0.1101562E+00
         21   -1    0    0  501  502  0.00000000000E+00  0.00000000000E+00  0.57282645394E+03  0.57282645394E+03  0.00000000000E+00 0.  1.
         21   -1    0    0  502  503 -0.00000000000E+00 -0.00000000000E+00 -0.14024294730E+03  0.14024294730E+03  0.00000000000E+00 0.  1.
          6    1    1    2  501    0 -0.11069807989E+03 -0.17450101563E+03  0.32668156229E+03  0.42350267117E+03  0.17300000000E+03 0.  1.
         -6    1    1    2    0  503  0.11069807989E+03  0.17450101563E+03  0.10590194434E+03  0.28956673007E+03  0.17300000000E+03 0.  1.
<mgrwt>
<rscale>  2 0.26950634E+03</rscale>
<asrwt>0</asrwt>
<pdfrwt beam="1">  1       21 0.88127145E-01 0.26950634E+03</pdfrwt>
<pdfrwt beam="2">  1       21 0.21575838E-01 0.26950634E+03</pdfrwt>
<totfact> 0.21204681E+04</totfact>
</mgrwt>
</event>
<event>
 4    1  0.3875622E-001  0.2390322E+03  0.7546771E-02  0.1120439E+00
         21   -1    0    0  503  502  0.00000000000E+00  0.00000000000E+00  0.55244889466E+03  0.55244889466E+03  0.00000000000E+00 0. -1.
         21   -1    0    0  501  503 -0.00000000000E+00 -0.00000000000E+00 -0.12914172051E+03  0.12914172051E+03  0.00000000000E+00 0.  1.
          6    1    1    2  501    0 -0.16386477367E+03 -0.18860325730E+02  0.59571499757E+02  0.24634353963E+03  0.17300000000E+03 0. -1.
         -6    1    1    2    0  502  0.16386477367E+03  0.18860325730E+02  0.36373567439E+03  0.43524707554E+03  0.17300000000E+03 0.  1.
<mgrwt>
<rscale>  2 0.23903217E+03</rscale>
<asrwt>0</asrwt>
<pdfrwt beam="1">  1       21 0.84992136E-01 0.23903217E+03</pdfrwt>
<pdfrwt beam="2">  1       21 0.19867957E-01 0.23903217E+03</pdfrwt>
<totfact> 0.27323736E+04</totfact>
</mgrwt>
</event>
<event>
 4    1  0.3875622E-001  0.1913255E+03  0.7546771E-02  0.1157271E+00
         21   -1    0    0  501  502  0.00000000000E+00  0.00000000000E+00  0.76024949995E+02  0.76024949995E+02  0.00000000000E+00 0. -1.
         21   -1    0    0  502  503 -0.00000000000E+00 -0.00000000000E+00 -0.90599499163E+03  0.90599499163E+03  0.00000000000E+00 0. -1.
          6    1    1    2  501    0 -0.71916621899E+02  0.38787391799E+02 -0.78885876600E+02  0.20695034137E+03  0.17300000000E+03 0. -1.
         -6    1    1    2    0  503  0.71916621899E+02 -0.38787391799E+02 -0.75108416504E+03  0.77506960026E+03  0.17300000000E+03 0. -1.
<mgrwt>
<rscale>  2 0.19132554E+03</rscale>
<asrwt>0</asrwt>
<pdfrwt beam="1">  1       21 0.11696146E-01 0.19132554E+03</pdfrwt>
<pdfrwt beam="2">  1       21 0.13938384E+00 0.19132554E+03</pdfrwt>
<totfact> 0.22254654E+04</totfact>
</mgrwt>
</event>
<event>
 4    1  0.3875622E-001  0.1954233E+03  0.7546771E-02  0.1153659E+00
         21   -1    0    0  501  502  0.00000000000E+00  0.00000000000E+00  0.73588245292E+03  0.73588245292E+03  0.00000000000E+00 0. -1.
         21   -1    0    0  502  503 -0.00000000000E+00 -0.00000000000E+00 -0.54484566129E+02  0.54484566129E+02  0.00000000000E+00 0.  1.
          6    1    1    2  501    0 -0.58374112383E+02  0.69668654462E+02  0.42681592057E+03  0.46942740489E+03  0.17300000000E+03 0. -1.
         -6    1    1    2    0  503  0.58374112383E+02 -0.69668654462E+02  0.25458196622E+03  0.32093961416E+03  0.17300000000E+03 0.  1.
<mgrwt>
<rscale>  2 0.19542328E+03</rscale>
<asrwt>0</asrwt>
<pdfrwt beam="1">  1       21 0.11321268E+00 0.19542328E+03</pdfrwt>
<pdfrwt beam="2">  1       21 0.83822414E-02 0.19542328E+03</pdfrwt>
<totfact> 0.67286849E+04</totfact>
</mgrwt>
</event>
<event>
 4    1  0.3875622E-001  0.1996684E+03  0.7546771E-02  0.1150019E+00
         21   -1    0    0  501  502  0.00000000000E+00  0.00000000000E+00  0.63562662059E+03  0.63562662059E+03  0.00000000000E+00 0.  1.
         21   -1    0    0  502  503 -0.00000000000E+00 -0.00000000000E+00 -0.85980729376E+02  0.85980729376E+02  0.00000000000E+00 0. -1.
          6    1    1    2  501    0  0.11619977565E+02 -0.99012342526E+02  0.46248128256E+03  0.50374239902E+03  0.17300000000E+03 0.  1.
         -6    1    1    2    0  503 -0.11619977565E+02  0.99012342526E+02  0.87164608661E+02  0.21786495095E+03  0.17300000000E+03 0. -1.
<mgrwt>
<rscale>  2 0.19966839E+03</rscale>
<asrwt>0</asrwt>
<pdfrwt beam="1">  1       21 0.97788708E-01 0.19966839E+03</pdfrwt>
<pdfrwt beam="2">  1       21 0.13227805E-01 0.19966839E+03</pdfrwt>
<totfact> 0.42479586E+04</totfact>
</mgrwt>
</event>
<event>
 4    1  0.3875622E-001  0.3170597E+03  0.7546771E-02  0.1077011E+00
         21   -1    0    0  503  502  0.00000000000E+00  0.00000000000E+00  0.77424281105E+02  0.77424281105E+02  0.00000000000E+00 0.  1.
         21   -1    0    0  501  503 -0.00000000000E+00 -0.00000000000E+00 -0.15346997713E+04  0.15346997713E+04  0.00000000000E+00 0. -1.
          6    1    1    2  501    0  0.21987167637E+03 -0.14917881751E+03 -0.10449369110E+04  0.10919798632E+04  0.17300000000E+03 0. -1.
         -6    1    1    2    0  502 -0.21987167637E+03  0.14917881751E+03 -0.41233857917E+03  0.52014418918E+03  0.17300000000E+03 0.  1.
<mgrwt>
<rscale>  2 0.31705973E+03</rscale>
<asrwt>0</asrwt>
<pdfrwt beam="1">  1       21 0.11911428E-01 0.31705973E+03</pdfrwt>
<pdfrwt beam="2">  1       21 0.23610765E+00 0.31705973E+03</pdfrwt>
<totfact> 0.43303553E+03</totfact>
</mgrwt>
</event>
<event>
 4    1  0.3875622E-001  0.1820005E+03  0.7546771E-02  0.1165881E+00
         21   -1    0    0  501  502  0.00000000000E+00  0.00000000000E+00  0.14331782129E+02  0.14331782129E+02  0.00000000000E+00 0. -1.
         21   -1    0    0  502  503 -0.00000000000E+00 -0.00000000000E+00 -0.25854573874E+04  0.25854573874E+04  0.00000000000E+00 0. -1.
          6    1    1    2  501    0  0.11926076023E+02 -0.55253414247E+02 -0.86222419312E+03  0.88122342813E+03  0.17300000000E+03 0. -1.
         -6    1    1    2    0  503 -0.11926076023E+02  0.55253414247E+02 -0.17089014121E+04  0.17185657414E+04  0.17300000000E+03 0. -1.
<mgrwt>
<rscale>  2 0.18200047E+03</rscale>
<asrwt>0</asrwt>
<pdfrwt beam="1">  1       21 0.22048886E-02 0.18200047E+03</pdfrwt>
<pdfrwt beam="2">  1       21 0.39776285E+00 0.18200047E+03</pdfrwt>
<totfact> 0.95795368E+03</totfact>
</mgrwt>
</event>
<event>
 4    1  0.3875622E-001  0.2401865E+03  0.7546771E-02  0.1119669E+00
         21   -1    0    0  501  502  0.00000000000E+00  0.00000000000E+00  0.40334348820E+03  0.40334348820E+03  0.00000000000E+00 0.  1.
         21   -1    0    0  502  503 -0.00000000000E+00 -0.00000000000E+00 -0.16384460640E+03  0.16384460640E+03  0.00000000000E+00 0. -1.
          6    1    1    2  501    0  0.15922290403E+03  0.49077907093E+02  0.22083330129E+03  0.32627736834E+03  0.17300000000E+03 0. -1.
         -6    1    1    2    0  503 -0.15922290403E+03 -0.49077907093E+02  0.18665580509E+02  0.24091072626E+03  0.17300000000E+03 0.  1.
<mgrwt>
<rscale>  2 0.24018654E+03</rscale>
<asrwt>0</asrwt>
<pdfrwt beam="1">  1       21 0.62052844E-01 0.24018654E+03</pdfrwt>
<pdfrwt beam="2">  1       21 0.25206863E-01 0.24018654E+03</pdfrwt>
<totfact> 0.35097637E+04</totfact>
</mgrwt>
</event>
<event>
 4    1  0.3875622E-001  0.1762871E+03  0.7546771E-02  0.1171446E+00
         21   -1    0    0  501  502  0.00000000000E+00  0.00000000000E+00  0.75928051287E+03  0.75928051287E+03  0.00000000000E+00 0. -1.
         21   -1    0    0  502  503 -0.00000000000E+00 -0.00000000000E+00 -0.45410736547E+02  0.45410736547E+02  0.00000000000E+00 0. -1.
          6    1    1    2  501    0 -0.26618391312E+02 -0.20967062315E+02  0.48332327080E+03  0.51446918329E+03  0.17300000000E+03 0. -1.
         -6    1    1    2    0  503  0.26618391312E+02  0.20967062315E+02  0.23054650552E+03  0.29022206612E+03  0.17300000000E+03 0. -1.
<mgrwt>
<rscale>  2 0.17628714E+03</rscale>
<asrwt>0</asrwt>
<pdfrwt beam="1">  1       21 0.11681238E+00 0.17628714E+03</pdfrwt>
<pdfrwt beam="2">  1       21 0.69862677E-02 0.17628714E+03</pdfrwt>
<totfact> 0.86283464E+04</totfact>
</mgrwt>
</event>
<event>
 4    1  0.3875622E-001  0.2264587E+03  0.7546771E-02  0.1129157E+00
         21   -1    0    0  501  502  0.00000000000E+00  0.00000000000E+00  0.20770565156E+03  0.20770565156E+03  0.00000000000E+00 0. -1.
         21   -1    0    0  502  503 -0.00000000000E+00 -0.00000000000E+00 -0.28408257009E+03  0.28408257009E+03  0.00000000000E+00 0. -1.
          6    1    1    2  501    0  0.13107317670E+03  0.64609186344E+02  0.50765941552E+02  0.23207909305E+03  0.17300000000E+03 0. -1.
         -6    1    1    2    0  503 -0.13107317670E+03 -0.64609186344E+02 -0.12714286008E+03  0.25970912860E+03  0.17300000000E+03 0. -1.
<mgrwt>
<rscale>  2 0.22645866E+03</rscale>
<asrwt>0</asrwt>
<pdfrwt beam="1">  1       21 0.31954716E-01 0.22645866E+03</pdfrwt>
<pdfrwt beam="2">  1       21 0.43705011E-01 0.22645866E+03</pdfrwt>
<totfact> 0.46627981E+04</totfact>
</mgrwt>
</event>
<event>
 4    1  0.3875622E-001  0.1850386E+03  0.7546771E-02  0.1163014E+00
         21   -1    0    0  503  502  0.00000000000E+00  0.00000000000E+00  0.14342806989E+04  0.14342806989E+04  0.00000000000E+00 0. -1.
         21   -1    0    0  501  503 -0.00000000000E+00 -0.00000000000E+00 -0.24925717450E+02  0.24925717450E+02  0.00000000000E+00 0.  1.
          6    1    1    2  501    0  0.65112111784E+02 -0.84077464247E+01  0.55467221637E+03  0.58472262220E+03  0.17300000000E+03 0.  1.
         -6    1    1    2    0  502 -0.65112111784E+02  0.84077464247E+01  0.85468276503E+03  0.87448379410E+03  0.17300000000E+03 0. -1.
<mgrwt>
<rscale>  2 0.18503858E+03</rscale>
<asrwt>0</asrwt>
<pdfrwt beam="1">  1       21 0.22065850E+00 0.18503858E+03</pdfrwt>
<pdfrwt beam="2">  1       21 0.38347269E-02 0.18503858E+03</pdfrwt>
<totfact> 0.42145676E+04</totfact>
</mgrwt>
</event>
<event>
 4    1  0.3875622E-001  0.2566367E+03  0.7546771E-02  0.1109181E+00
         21   -1    0    0  503  502  0.00000000000E+00  0.00000000000E+00  0.19780036270E+03  0.19780036270E+03  0.00000000000E+00 0. -1.
         21   -1    0    0  501  503 -0.00000000000E+00 -0.00000000000E+00 -0.35242603155E+03  0.35242603155E+03  0.00000000000E+00 0.  1.
          6    1    1    2  501    0  0.87880564406E+02  0.16795947936E+03 -0.14194664853E+03  0.29327671462E+03  0.17300000000E+03 0. -1.
         -6    1    1    2    0  502 -0.87880564406E+02 -0.16795947936E+03 -0.12679020316E+02  0.25694967963E+03  0.17300000000E+03 0. -1.
<mgrwt>
<rscale>  2 0.25663667E+03</rscale>
<asrwt>0</asrwt>
<pdfrwt beam="1">  1       21 0.30430825E-01 0.25663667E+03</pdfrwt>
<pdfrwt beam="2">  1       21 0.54219390E-01 0.25663667E+03</pdfrwt>
<totfact> 0.32297953E+04</totfact>
</mgrwt>
</event>
<event>
 4    1  0.3875622E-001  0.2622731E+03  0.7546771E-02  0.1105785E+00
         21   -1    0    0  501  502  0.00000000000E+00  0.00000000000E+00  0.69201467297E+02  0.69201467297E+02  0.00000000000E+00 0. -1.
         21   -1    0    0  502  503 -0.00000000000E+00 -0.00000000000E+00 -0.10269828105E+04  0.10269828105E+04  0.00000000000E+00 0. -1.
          6    1    1    2  501    0 -0.17763774743E+03  0.85457699298E+02 -0.38068707428E+03  0.46228761200E+03  0.17300000000E+03 0. -1.
         -6    1    1    2    0  503  0.17763774743E+03 -0.85457699298E+02 -0.57709426887E+03  0.63389666575E+03  0.17300000000E+03 0. -1.
<mgrwt>
<rscale>  2 0.26227312E+03</rscale>
<asrwt>0</asrwt>
<pdfrwt beam="1">  1       21 0.10646381E-01 0.26227312E+03</pdfrwt>
<pdfrwt beam="2">  1       21 0.15799734E+00 0.26227312E+03</pdfrwt>
<totfact> 0.18117342E+04</totfact>
</mgrwt>
</event>
<event>
 4    1  0.3875622E-001  0.2493762E+03  0.7546771E-02  0.1113700E+00
         21   -1    0    0  503  502  0.00000000000E+00  0.00000000000E+00  0.13385020621E+03  0.13385020621E+03  0.00000000000E+00 0. -1.
         21   -1    0    0  501  503 -0.00000000000E+00 -0.00000000000E+00 -0.49107137780E+03  0.49107137780E+03  0.00000000000E+00 0.  1.
          6    1    1    2  501    0  0.61290434658E+02  0.16882825807E+03 -0.25113892840E+03  0.35391984892E+03  0.17300000000E+03 0.  1.
         -6    1    1    2    0  502 -0.61290434658E+02 -0.16882825807E+03 -0.10608224319E+03  0.27100173509E+03  0.17300000000E+03 0.  1.
<mgrwt>
<rscale>  2 0.24937622E+03</rscale>
<asrwt>0</asrwt>
<pdfrwt beam="1">  1       21 0.20592339E-01 0.24937622E+03</pdfrwt>
<pdfrwt beam="2">  1       21 0.75549443E-01 0.24937622E+03</pdfrwt>
<totfact> 0.33237838E+04</totfact>
</mgrwt>
</event>
<event>
 4    1  0.3875622E-001  0.2190618E+03  0.7546771E-02  0.1134584E+00
         21   -1    0    0  503  502  0.00000000000E+00  0.00000000000E+00  0.17372542618E+03  0.17372542618E+03  0.00000000000E+00 0. -1.
         21   -1    0    0  501  503 -0.00000000000E+00 -0.00000000000E+00 -0.27625172041E+03  0.27625172041E+03  0.00000000000E+00 0. -1.
          6    1    1    2  501    0 -0.11724654113E+03  0.65668157465E+02 -0.53288617014E+02  0.22545007211E+03  0.17300000000E+03 0. -1.
         -6    1    1    2    0  502  0.11724654113E+03 -0.65668157465E+02 -0.49237677220E+02  0.22452707447E+03  0.17300000000E+03 0. -1.
<mgrwt>
<rscale>  2 0.21906177E+03</rscale>
<asrwt>0</asrwt>
<pdfrwt beam="1">  1       21 0.26726989E-01 0.21906177E+03</pdfrwt>
<pdfrwt beam="2">  1       21 0.42500264E-01 0.21906177E+03</pdfrwt>
<totfact> 0.70175139E+04</totfact>
</mgrwt>
</event>
<event>
 4    1  0.3875622E-001  0.3066715E+03  0.7546771E-02  0.1081952E+00
         21   -1    0    0  501  502  0.00000000000E+00  0.00000000000E+00  0.12946561742E+03  0.12946561742E+03  0.00000000000E+00 0.  1.
         21   -1    0    0  502  503 -0.00000000000E+00 -0.00000000000E+00 -0.18054958470E+04  0.18054958470E+04  0.00000000000E+00 0. -1.
          6    1    1    2  501    0  0.21651771205E+03  0.13129548949E+03 -0.90072132690E+02  0.31962542809E+03  0.17300000000E+03 0.  1.
         -6    1    1    2    0  503 -0.21651771205E+03 -0.13129548949E+03 -0.15859580969E+04  0.16153360363E+04  0.17300000000E+03 0. -1.
<mgrwt>
<rscale>  2 0.30667153E+03</rscale>
<asrwt>0</asrwt>
<pdfrwt beam="1">  1       21 0.19917787E-01 0.30667153E+03</pdfrwt>
<pdfrwt beam="2">  1       21 0.27776860E+00 0.30667153E+03</pdfrwt>
<totfact> 0.94922343E+02</totfact>
</mgrwt>
</event>
<event>
 4    1  0.3875622E-001  0.2085608E+03  0.7546771E-02  0.1142711E+00
         21   -1    0    0  503  502  0.00000000000E+00  0.00000000000E+00  0.77278289094E+03  0.77278289094E+03  0.00000000000E+00 0.  1.
         21   -1    0    0  501  503 -0.00000000000E+00 -0.00000000000E+00 -0.67064059273E+02  0.67064059273E+02  0.00000000000E+00 0.  1.
          6    1    1    2  501    0 -0.34634173699E+01  0.11643286805E+03  0.18452382049E+03  0.27847198845E+03  0.17300000000E+03 0.  1.
         -6    1    1    2    0  502  0.34634173699E+01 -0.11643286805E+03  0.52119501118E+03  0.56137496176E+03  0.17300000000E+03 0.  1.
<mgrwt>
<rscale>  2 0.20856080E+03</rscale>
<asrwt>0</asrwt>
<pdfrwt beam="1">  1       21 0.11888967E+00 0.20856080E+03</pdfrwt>
<pdfrwt beam="2">  1       21 0.10317548E-01 0.20856080E+03</pdfrwt>
<totfact> 0.41132320E+04</totfact>
</mgrwt>
</event>
<event>
 4    1  0.3875622E-001  0.1955656E+03  0.7546771E-02  0.1153535E+00
         21   -1    0    0  503  502  0.00000000000E+00  0.00000000000E+00  0.11789975761E+03  0.11789975761E+03  0.00000000000E+00 0. -1.
         21   -1    0    0  501  503 -0.00000000000E+00 -0.00000000000E+00 -0.50310597804E+03  0.50310597804E+03  0.00000000000E+00 0. -1.
          6    1    1    2  501    0 -0.66506427487E+02 -0.62400422420E+02 -0.37766342156E+03  0.42529469500E+03  0.17300000000E+03 0. -1.
         -6    1    1    2    0  502  0.66506427487E+02  0.62400422420E+02 -0.75427988762E+01  0.19571104064E+03  0.17300000000E+03 0. -1.
<mgrwt>
<rscale>  2 0.19556564E+03</rscale>
<asrwt>0</asrwt>
<pdfrwt beam="1">  1       21 0.18138425E-01 0.19556564E+03</pdfrwt>
<pdfrwt beam="2">  1       21 0.77400918E-01 0.19556564E+03</pdfrwt>
<totfact> 0.40950810E+04</totfact>
</mgrwt>
</event>
<event>
 4    1  0.3875622E-001  0.1979541E+03  0.7546771E-02  0.1151477E+00
         21   -1    0    0  501  502  0.00000000000E+00  0.00000000000E+00  0.52596359996E+03  0.52596359996E+03  0.00000000000E+00 0.  1.
         21   -1    0    0  502  503 -0.00000000000E+00 -0.00000000000E+00 -0.13995750179E+03  0.13995750179E+03  0.00000000000E+00 0. -1.
          6    1    1    2  501    0  0.37394542332E+02  0.88647982761E+02  0.42070395744E+03  0.46494906866E+03  0.17300000000E+03 0.  1.
         -6    1    1    2    0  503 -0.37394542332E+02 -0.88647982761E+02 -0.34697859281E+02  0.20097203309E+03  0.17300000000E+03 0. -1.
<mgrwt>
<rscale>  2 0.19795408E+03</rscale>
<asrwt>0</asrwt>
<pdfrwt beam="1">  1       21 0.80917476E-01 0.19795408E+03</pdfrwt>
<pdfrwt beam="2">  1       21 0.21531924E-01 0.19795408E+03</pdfrwt>
<totfact> 0.26859768E+04</totfact>
</mgrwt>
</event>
<event>
 4    1  0.3875622E-001  0.2834253E+03  0.7546771E-02  0.1093833E+00
         21   -1    0    0  501  502  0.00000000000E+00  0.00000000000E+00  0.30881138432E+03  0.30881138432E+03  0.00000000000E+00 0.  1.
         21   -1    0    0  502  503 -0.00000000000E+00 -0.00000000000E+00 -0.26078374113E+03  0.26078374113E+03  0.00000000000E+00 0. -1.
          6    1    1    2  501    0 -0.86120375800E+02 -0.20732621718E+03  0.97112685000E+01  0.28359158696E+03  0.17300000000E+03 0.  1.
         -6    1    1    2    0  503  0.86120375800E+02  0.20732621718E+03  0.38316374696E+02  0.28600353849E+03  0.17300000000E+03 0. -1.
<mgrwt>
<rscale>  2 0.28342526E+03</rscale>
<asrwt>0</asrwt>
<pdfrwt beam="1">  1       21 0.47509444E-01 0.28342526E+03</pdfrwt>
<pdfrwt beam="2">  1       21 0.40120576E-01 0.28342526E+03</pdfrwt>
<totfact> 0.24266262E+04</totfact>
</mgrwt>
</event>
<event>
 4    1  0.3875622E-001  0.2175952E+03  0.7546771E-02  0.1135689E+00
         21   -1    0    0  501  502  0.00000000000E+00  0.00000000000E+00  0.15079456545E+03  0.15079456545E+03  0.00000000000E+00 0. -1.
         21   -1    0    0  502  503 -0.00000000000E+00 -0.00000000000E+00 -0.35880496581E+03  0.35880496581E+03  0.00000000000E+00 0.  1.
          6    1    1    2  501    0 -0.40831442190E+02  0.12550483709E+03 -0.13953596449E+02  0.21804213734E+03  0.17300000000E+03 0. -1.
         -6    1    1    2    0  503  0.40831442190E+02 -0.12550483709E+03 -0.19405680390E+03  0.29155739391E+03  0.17300000000E+03 0.  1.
<mgrwt>
<rscale>  2 0.21759520E+03</rscale>
<asrwt>0</asrwt>
<pdfrwt beam="1">  1       21 0.23199164E-01 0.21759520E+03</pdfrwt>
<pdfrwt beam="2">  1       21 0.55200764E-01 0.21759520E+03</pdfrwt>
<totfact> 0.53415351E+04</totfact>
</mgrwt>
</event>
<event>
 4    1  0.3875622E-001  0.1993193E+03  0.7546771E-02  0.1150315E+00
         21   -1    0    0  501  502  0.00000000000E+00  0.00000000000E+00  0.35257996494E+02  0.35257996494E+02  0.00000000000E+00 0. -1.
         21   -1    0    0  502  503 -0.00000000000E+00 -0.00000000000E+00 -0.11695889351E+04  0.11695889351E+04  0.00000000000E+00 0. -1.
          6    1    1    2  501    0  0.29181389918E+02  0.94591978974E+02 -0.45191969030E+03  0.49392266853E+03  0.17300000000E+03 0. -1.
         -6    1    1    2    0  503 -0.29181389918E+02 -0.94591978974E+02 -0.68241124834E+03  0.71092426310E+03  0.17300000000E+03 0. -1.
<mgrwt>
<rscale>  2 0.19931933E+03</rscale>
<asrwt>0</asrwt>
<pdfrwt beam="1">  1       21 0.54243072E-02 0.19931933E+03</pdfrwt>
<pdfrwt beam="2">  1       21 0.17993676E+00 0.19931933E+03</pdfrwt>
<totfact> 0.42481502E+04</totfact>
</mgrwt>
</event>
<event>
 4    1  0.3875622E-001  0.2035580E+03  0.7546771E-02  0.1146771E+00
         21   -1    0    0  501  502  0.00000000000E+00  0.00000000000E+00  0.26698640293E+03  0.26698640293E+03  0.00000000000E+00 0. -1.
         21   -1    0    0  502  503 -0.00000000000E+00 -0.00000000000E+00 -0.16258769818E+03  0.16258769818E+03  0.00000000000E+00 0.  1.
          6    1    1    2  501    0 -0.85692713055E+02 -0.64526113072E+02  0.97988872604E+02  0.22591520421E+03  0.17300000000E+03 0. -1.
         -6    1    1    2    0  503  0.85692713055E+02  0.64526113072E+02  0.64098321490E+01  0.20365889690E+03  0.17300000000E+03 0.  1.
<mgrwt>
<rscale>  2 0.20355800E+03</rscale>
<asrwt>0</asrwt>
<pdfrwt beam="1">  1       21 0.41074831E-01 0.20355800E+03</pdfrwt>
<pdfrwt beam="2">  1       21 0.25013492E-01 0.20355800E+03</pdfrwt>
<totfact> 0.85983603E+04</totfact>
</mgrwt>
</event>
<event>
 4    1  0.3875622E-001  0.1945782E+03  0.7546771E-02  0.1154396E+00
         21   -1    0    0  503  502  0.00000000000E+00  0.00000000000E+00  0.30723071667E+02  0.30723071667E+02  0.00000000000E+00 0. -1.
         21   -1    0    0  501  503 -0.00000000000E+00 -0.00000000000E+00 -0.15495775684E+04  0.15495775684E+04  0.00000000000E+00 0. -1.
          6    1    1    2  501    0  0.46805226838E+02  0.75768987899E+02 -0.11169541814E+04  0.11337756886E+04  0.17300000000E+03 0. -1.
         -6    1    1    2    0  502 -0.46805226838E+02 -0.75768987899E+02 -0.40190031531E+03  0.44652495141E+03  0.17300000000E+03 0. -1.
<mgrwt>
<rscale>  2 0.19457818E+03</rscale>
<asrwt>0</asrwt>
<pdfrwt beam="1">  1       21 0.47266259E-02 0.19457818E+03</pdfrwt>
<pdfrwt beam="2">  1       21 0.23839657E+00 0.19457818E+03</pdfrwt>
<totfact> 0.23004511E+04</totfact>
</mgrwt>
</event>
<event>
 4    1  0.3875622E-001  0.2079075E+03  0.7546771E-02  0.1143234E+00
         21   -1    0    0  501  502  0.00000000000E+00  0.00000000000E+00  0.42756384976E+03  0.42756384976E+03  0.00000000000E+00 0.  1.
         21   -1    0    0  502  503 -0.00000000000E+00 -0.00000000000E+00 -0.12350589389E+03  0.12350589389E+03  0.00000000000E+00 0. -1.
          6    1    1    2  501    0  0.11011462754E+03 -0.34224007088E+02  0.26939459041E+03  0.34029246127E+03  0.17300000000E+03 0.  1.
         -6    1    1    2    0  503 -0.11011462754E+03  0.34224007088E+02  0.34663365460E+02  0.21077728237E+03  0.17300000000E+03 0. -1.
<mgrwt>
<rscale>  2 0.20790746E+03</rscale>
<asrwt>0</asrwt>
<pdfrwt beam="1">  1       21 0.65779053E-01 0.20790746E+03</pdfrwt>
<pdfrwt beam="2">  1       21 0.19000907E-01 0.20790746E+03</pdfrwt>
<totfact> 0.53537114E+04</totfact>
</mgrwt>
</event>
<event>
 4    1  0.3875622E-001  0.2387710E+03  0.7546771E-02  0.1120614E+00
         21   -1    0    0  501  502  0.00000000000E+00  0.00000000000E+00  0.51343806475E+03  0.51343806475E+03  0.00000000000E+00 0. -1.
         21   -1    0    0  502  503 -0.00000000000E+00 -0.00000000000E+00 -0.11920994862E+03  0.11920994862E+03  0.00000000000E+00 0. -1.
          6    1    1    2  501    0 -0.12216459482E+03 -0.11026519629E+03  0.11429799093E+03  0.26471802446E+03  0.17300000000E+03 0. -1.
         -6    1    1    2    0  503  0.12216459482E+03  0.11026519629E+03  0.27993012520E+03  0.36792998891E+03  0.17300000000E+03 0. -1.
<mgrwt>
<rscale>  2 0.23877102E+03</rscale>
<asrwt>0</asrwt>
<pdfrwt beam="1">  1       21 0.78990470E-01 0.23877102E+03</pdfrwt>
<pdfrwt beam="2">  1       21 0.18339992E-01 0.23877102E+03</pdfrwt>
<totfact> 0.37514648E+04</totfact>
</mgrwt>
</event>
<event>
 4    1  0.3875622E-001  0.2360061E+03  0.7546771E-02  0.1122482E+00
         21   -1    0    0  501  502  0.00000000000E+00  0.00000000000E+00  0.60153257856E+02  0.60153257856E+02  0.00000000000E+00 0. -1.
         21   -1    0    0  502  503 -0.00000000000E+00 -0.00000000000E+00 -0.98368278036E+03  0.98368278036E+03  0.00000000000E+00 0. -1.
          6    1    1    2  501    0 -0.55262771031E+02  0.15071790070E+03 -0.33532341882E+03  0.41004957586E+03  0.17300000000E+03 0. -1.
         -6    1    1    2    0  503  0.55262771031E+02 -0.15071790070E+03 -0.58820610368E+03  0.63378646235E+03  0.17300000000E+03 0. -1.
<mgrwt>
<rscale>  2 0.23600606E+03</rscale>
<asrwt>0</asrwt>
<pdfrwt beam="1">  1       21 0.92543476E-02 0.23600606E+03</pdfrwt>
<pdfrwt beam="2">  1       21 0.15133581E+00 0.23600606E+03</pdfrwt>
<totfact> 0.26459513E+04</totfact>
</mgrwt>
</event>
<event>
 4    1  0.3875622E-001  0.2302990E+03  0.7546771E-02  0.1126429E+00
         21   -1    0    0  503  502  0.00000000000E+00  0.00000000000E+00  0.95984875923E+02  0.95984875923E+02  0.00000000000E+00 0. -1.
         21   -1    0    0  501  503 -0.00000000000E+00 -0.00000000000E+00 -0.64184718113E+03  0.64184718113E+03  0.00000000000E+00 0.  1.
          6    1    1    2  501    0  0.11651892119E+02 -0.15156807472E+03 -0.41052533071E+03  0.47071084013E+03  0.17300000000E+03 0.  1.
         -6    1    1    2    0  502 -0.11651892119E+02  0.15156807472E+03 -0.13533697450E+03  0.26712121692E+03  0.17300000000E+03 0.  1.
<mgrwt>
<rscale>  2 0.23029904E+03</rscale>
<asrwt>0</asrwt>
<pdfrwt beam="1">  1       21 0.14766904E-01 0.23029904E+03</pdfrwt>
<pdfrwt beam="2">  1       21 0.98745720E-01 0.23029904E+03</pdfrwt>
<totfact> 0.33463786E+04</totfact>
</mgrwt>
</event>
<event>
 4    1  0.3875622E-001  0.1993103E+03  0.7546771E-02  0.1150322E+00
         21   -1    0    0  503  502  0.00000000000E+00  0.00000000000E+00  0.32947627243E+03  0.32947627243E+03  0.00000000000E+00 0. -1.
         21   -1    0    0  501  503 -0.00000000000E+00 -0.00000000000E+00 -0.12057349072E+03  0.12057349072E+03  0.00000000000E+00 0. -1.
          6    1    1    2  501    0  0.96596795551E+02  0.21556045869E+02  0.10306854199E+03  0.22438299484E+03  0.17300000000E+03 0. -1.
         -6    1    1    2    0  502 -0.96596795551E+02 -0.21556045869E+02  0.10583423972E+03  0.22566676831E+03  0.17300000000E+03 0. -1.
<mgrwt>
<rscale>  2 0.19931032E+03</rscale>
<asrwt>0</asrwt>
<pdfrwt beam="1">  1       21 0.50688657E-01 0.19931032E+03</pdfrwt>
<pdfrwt beam="2">  1       21 0.18549768E-01 0.19931032E+03</pdfrwt>
<totfact> 0.98070255E+04</totfact>
</mgrwt>
</event>
<event>
 4    1  0.3875622E-001  0.1914649E+03  0.7546771E-02  0.1157147E+00
         21   -1    0    0  501  502  0.00000000000E+00  0.00000000000E+00  0.17140116055E+03  0.17140116055E+03  0.00000000000E+00 0. -1.
         21   -1    0    0  502  503 -0.00000000000E+00 -0.00000000000E+00 -0.26477295711E+03  0.26477295711E+03  0.00000000000E+00 0.  1.
          6    1    1    2  501    0  0.69353173381E+02 -0.43817301707E+02  0.48930728191E+02  0.19761840691E+03  0.17300000000E+03 0. -1.
         -6    1    1    2    0  503 -0.69353173381E+02  0.43817301707E+02 -0.14230252475E+03  0.23855571076E+03  0.17300000000E+03 0. -1.
<mgrwt>
<rscale>  2 0.19146493E+03</rscale>
<asrwt>0</asrwt>
<pdfrwt beam="1">  1       21 0.26369409E-01 0.19146493E+03</pdfrwt>
<pdfrwt beam="2">  1       21 0.40734301E-01 0.19146493E+03</pdfrwt>
<totfact> 0.79446879E+04</totfact>
</mgrwt>
</event>
<event>
 4    1  0.3875622E-001  0.2916029E+03  0.7546771E-02  0.1089515E+00
         21   -1    0    0  503  502  0.00000000000E+00  0.00000000000E+00  0.11179371111E+03  0.11179371111E+03  0.00000000000E+00 0. -1.
         21   -1    0    0  501  503 -0.00000000000E+00 -0.00000000000E+00 -0.76068873690E+03  0.76068873690E+03  0.00000000000E+00 0.  1.
          6    1    1    2  501    0 -0.22879485168E+03  0.52499304031E+02 -0.32022805287E+03  0.43310306733E+03  0.17300000000E+03 0.  1.
         -6    1    1    2    0  502  0.22879485168E+03 -0.52499304031E+02 -0.32866697292E+03  0.43937938068E+03  0.17300000000E+03 0.  1.
<mgrwt>
<rscale>  2 0.29160292E+03</rscale>
<asrwt>0</asrwt>
<pdfrwt beam="1">  1       21 0.17199032E-01 0.29160292E+03</pdfrwt>
<pdfrwt beam="2">  1       21 0.11702904E+00 0.29160292E+03</pdfrwt>
<totfact> 0.16244837E+04</totfact>
</mgrwt>
</event>
<event>
 4    1  0.3875622E-001  0.1825984E+03  0.7546771E-02  0.1165312E+00
         21   -1    0    0  503  502  0.00000000000E+00  0.00000000000E+00  0.22922364892E+03  0.22922364892E+03  0.00000000000E+00 0. -1.
         21   -1    0    0  501  503 -0.00000000000E+00 -0.00000000000E+00 -0.15205139944E+03  0.15205139944E+03  0.00000000000E+00 0.  1.
          6    1    1    2  501    0 -0.48108802841E+02  0.33147114510E+02  0.78287015955E+02  0.19867321153E+03  0.17300000000E+03 0. -1.
         -6    1    1    2    0  502  0.48108802841E+02 -0.33147114510E+02 -0.11147664782E+01  0.18260183683E+03  0.17300000000E+03 0.  1.
<mgrwt>
<rscale>  2 0.18259843E+03</rscale>
<asrwt>0</asrwt>
<pdfrwt beam="1">  1       21 0.35265177E-01 0.18259843E+03</pdfrwt>
<pdfrwt beam="2">  1       21 0.23392523E-01 0.18259843E+03</pdfrwt>
<totfact> 0.13370035E+05</totfact>
</mgrwt>
</event>
<event>
 4    1  0.3875622E-001  0.1846500E+03  0.7546771E-02  0.1163377E+00
         21   -1    0    0  503  502  0.00000000000E+00  0.00000000000E+00  0.10239250577E+03  0.10239250577E+03  0.00000000000E+00 0.  1.
         21   -1    0    0  501  503 -0.00000000000E+00 -0.00000000000E+00 -0.44332975357E+03  0.44332975357E+03  0.00000000000E+00 0.  1.
          6    1    1    2  501    0 -0.60814213002E+02 -0.21638926535E+02 -0.30659602754E+03  0.35790604319E+03  0.17300000000E+03 0.  1.
         -6    1    1    2    0  502  0.60814213002E+02  0.21638926535E+02 -0.34341220257E+02  0.18781621616E+03  0.17300000000E+03 0.  1.
<mgrwt>
<rscale>  2 0.18464997E+03</rscale>
<asrwt>0</asrwt>
<pdfrwt beam="1">  1       21 0.15752693E-01 0.18464997E+03</pdfrwt>
<pdfrwt beam="2">  1       21 0.68204577E-01 0.18464997E+03</pdfrwt>
<totfact> 0.70627897E+04</totfact>
</mgrwt>
</event>
<event>
 4    1  0.3875622E-001  0.2050263E+03  0.7546771E-02  0.1145566E+00
         21   -1    0    0  503  502  0.00000000000E+00  0.00000000000E+00  0.20724301123E+04  0.20724301123E+04  0.00000000000E+00 0. -1.
         21   -1    0    0  501  503 -0.00000000000E+00 -0.00000000000E+00 -0.23272656159E+02  0.23272656159E+02  0.00000000000E+00 0. -1.
          6    1    1    2  501    0  0.57437300780E+02  0.93849668472E+02  0.14001243193E+04  0.14150561520E+04  0.17300000000E+03 0. -1.
         -6    1    1    2    0  502 -0.57437300780E+02 -0.93849668472E+02  0.64903313687E+03  0.68064661649E+03  0.17300000000E+03 0. -1.
<mgrwt>
<rscale>  2 0.20502635E+03</rscale>
<asrwt>0</asrwt>
<pdfrwt beam="1">  1       21 0.31883526E+00 0.20502635E+03</pdfrwt>
<pdfrwt beam="2">  1       21 0.35804103E-02 0.20502635E+03</pdfrwt>
<totfact> 0.12372162E+04</totfact>
</mgrwt>
</event>
<event>
 4    1  0.3875622E-001  0.1735565E+03  0.7546771E-02  0.1174189E+00
         21   -1    0    0  501  502  0.00000000000E+00  0.00000000000E+00  0.41162929920E+02  0.41162929920E+02  0.00000000000E+00 0.  1.
         21   -1    0    0  502  503 -0.00000000000E+00 -0.00000000000E+00 -0.10262213972E+04  0.10262213972E+04  0.00000000000E+00 0.  1.
          6    1    1    2  501    0 -0.12595663344E+02  0.58488098045E+01 -0.20665435680E+03  0.26986641602E+03  0.17300000000E+03 0.  1.
         -6    1    1    2    0  503  0.12595663344E+02 -0.58488098045E+01 -0.77840411045E+03  0.79751791107E+03  0.17300000000E+03 0.  1.
<mgrwt>
<rscale>  2 0.17355650E+03</rscale>
<asrwt>0</asrwt>
<pdfrwt beam="1">  1       21 0.63327583E-02 0.17355650E+03</pdfrwt>
<pdfrwt beam="2">  1       21 0.15788022E+00 0.17355650E+03</pdfrwt>
<totfact> 0.47426782E+04</totfact>
</mgrwt>
</event>
<event>
 4    1  0.3875622E-001  0.2099814E+03  0.7546771E-02  0.1141581E+00
         21   -1    0    0  503  502  0.00000000000E+00  0.00000000000E+00  0.39993268407E+02  0.39993268407E+02  0.00000000000E+00 0.  1.
         21   -1    0    0  501  503 -0.00000000000E+00 -0.00000000000E+00 -0.11915539032E+04  0.11915539032E+04  0.00000000000E+00 0.  1.
          6    1    1    2  501    0  0.10409103109E+03 -0.57691009442E+02 -0.74413067533E+03  0.77318992317E+03  0.17300000000E+03 0.  1.
         -6    1    1    2    0  502 -0.10409103109E+03  0.57691009442E+02 -0.40742995942E+03  0.45835724840E+03  0.17300000000E+03 0.  1.
<mgrwt>
<rscale>  2 0.20998142E+03</rscale>
<asrwt>0</asrwt>
<pdfrwt beam="1">  1       21 0.61528106E-02 0.20998142E+03</pdfrwt>
<pdfrwt beam="2">  1       21 0.18331598E+00 0.20998142E+03</pdfrwt>
<totfact> 0.32262166E+04</totfact>
</mgrwt>
</event>
<event>
 4    1  0.3875622E-001  0.2476954E+03  0.7546771E-02  0.1114770E+00
         21   -1    0    0  501  502  0.00000000000E+00  0.00000000000E+00  0.59634335364E+03  0.59634335364E+03  0.00000000000E+00 0.  1.
         21   -1    0    0  502  503 -0.00000000000E+00 -0.00000000000E+00 -0.12697610431E+03  0.12697610431E+03  0.00000000000E+00 0.  1.
          6    1    1    2  501    0  0.15664105982E+03 -0.82991489003E+02  0.39222490316E+03  0.46388940873E+03  0.17300000000E+03 0.  1.
         -6    1    1    2    0  503 -0.15664105982E+03  0.82991489003E+02  0.77142346175E+02  0.25943004923E+03  0.17300000000E+03 0.  1.
<mgrwt>
<rscale>  2 0.24769540E+03</rscale>
<asrwt>0</asrwt>
<pdfrwt beam="1">  1       21 0.91745130E-01 0.24769540E+03</pdfrwt>
<pdfrwt beam="2">  1       21 0.19534786E-01 0.24769540E+03</pdfrwt>
<totfact> 0.23520531E+04</totfact>
</mgrwt>
</event>
<event>
 4    1  0.3875622E-001  0.2673253E+03  0.7546771E-02  0.1102820E+00
         21   -1    0    0  503  502  0.00000000000E+00  0.00000000000E+00  0.52145829537E+03  0.52145829537E+03  0.00000000000E+00 0.  1.
         21   -1    0    0  501  503 -0.00000000000E+00 -0.00000000000E+00 -0.21471455123E+03  0.21471455123E+03  0.00000000000E+00 0.  1.
          6    1    1    2  501    0 -0.19906281852E+03 -0.43678644341E+02 -0.68012379077E+02  0.27584146425E+03  0.17300000000E+03 0.  1.
         -6    1    1    2    0  502  0.19906281852E+03  0.43678644341E+02  0.37475612321E+03  0.46033138235E+03  0.17300000000E+03 0.  1.
<mgrwt>
<rscale>  2 0.26732533E+03</rscale>
<asrwt>0</asrwt>
<pdfrwt beam="1">  1       21 0.80224352E-01 0.26732533E+03</pdfrwt>
<pdfrwt beam="2">  1       21 0.33033008E-01 0.26732533E+03</pdfrwt>
<totfact> 0.11538646E+04</totfact>
</mgrwt>
</event>
<event>
 4    1  0.3875622E-001  0.2094262E+03  0.7546771E-02  0.1142021E+00
         21   -1    0    0  501  502  0.00000000000E+00  0.00000000000E+00  0.94145848931E+02  0.94145848931E+02  0.00000000000E+00 0. -1.
         21   -1    0    0  502  503 -0.00000000000E+00 -0.00000000000E+00 -0.66200174853E+03  0.66200174853E+03  0.00000000000E+00 0. -1.
          6    1    1    2  501    0  0.10078840835E+03 -0.61416984357E+02 -0.78137412497E+02  0.22352808427E+03  0.17300000000E+03 0. -1.
         -6    1    1    2    0  503 -0.10078840835E+03  0.61416984357E+02 -0.48971848710E+03  0.53261951319E+03  0.17300000000E+03 0. -1.
<mgrwt>
<rscale>  2 0.20942624E+03</rscale>
<asrwt>0</asrwt>
<pdfrwt beam="1">  1       21 0.14483977E-01 0.20942624E+03</pdfrwt>
<pdfrwt beam="2">  1       21 0.10184642E+00 0.20942624E+03</pdfrwt>
<totfact> 0.32550861E+04</totfact>
</mgrwt>
</event>
<event>
 4    1  0.3875622E-001  0.1842144E+03  0.7546771E-02  0.1163786E+00
         21   -1    0    0  501  502  0.00000000000E+00  0.00000000000E+00  0.37055133305E+03  0.37055133305E+03  0.00000000000E+00 0. -1.
         21   -1    0    0  502  503 -0.00000000000E+00 -0.00000000000E+00 -0.96597156611E+02  0.96597156611E+02  0.00000000000E+00 0. -1.
          6    1    1    2  501    0  0.51310148027E+02  0.37056772261E+02  0.19021116950E+03  0.26479279571E+03  0.17300000000E+03 0. -1.
         -6    1    1    2    0  503 -0.51310148027E+02 -0.37056772261E+02  0.83743006942E+02  0.20235569395E+03  0.17300000000E+03 0. -1.
<mgrwt>
<rscale>  2 0.18421437E+03</rscale>
<asrwt>0</asrwt>
<pdfrwt beam="1">  1       21 0.57007897E-01 0.18421437E+03</pdfrwt>
<pdfrwt beam="2">  1       21 0.14861101E-01 0.18421437E+03</pdfrwt>
<totfact> 0.11568531E+05</totfact>
</mgrwt>
</event>
<event>
 4    1  0.3875622E-001  0.2024307E+03  0.7546771E-02  0.1147704E+00
         21   -1    0    0  503  502  0.00000000000E+00  0.00000000000E+00  0.19521310968E+03  0.19521310968E+03  0.00000000000E+00 0. -1.
         21   -1    0    0  501  503 -0.00000000000E+00 -0.00000000000E+00 -0.23840265259E+03  0.23840265259E+03  0.00000000000E+00 0. -1.
          6    1    1    2  501    0 -0.56709958077E+01 -0.10496207495E+03  0.53350872116E+02  0.20934305082E+03  0.17300000000E+03 0. -1.
         -6    1    1    2    0  502  0.56709958077E+01  0.10496207495E+03 -0.96540415023E+02  0.22427271146E+03  0.17300000000E+03 0. -1.
<mgrwt>
<rscale>  2 0.20243072E+03</rscale>
<asrwt>0</asrwt>
<pdfrwt beam="1">  1       21 0.30032786E-01 0.20243072E+03</pdfrwt>
<pdfrwt beam="2">  1       21 0.36677331E-01 0.20243072E+03</pdfrwt>
<totfact> 0.75909591E+04</totfact>
</mgrwt>
</event>
<event>
 4    1  0.3875622E-001  0.1908316E+03  0.7546771E-02  0.1157713E+00
         21   -1    0    0  501  502  0.00000000000E+00  0.00000000000E+00  0.17032714184E+03  0.17032714184E+03  0.00000000000E+00 0.  1.
         21   -1    0    0  502  503 -0.00000000000E+00 -0.00000000000E+00 -0.21962701605E+03  0.21962701605E+03  0.00000000000E+00 0.  1.
          6    1    1    2  501    0  0.34533002087E+02  0.72767858608E+02  0.70968944456E+01  0.19096349230E+03  0.17300000000E+03 0.  1.
         -6    1    1    2    0  503 -0.34533002087E+02 -0.72767858608E+02 -0.56396768661E+02  0.19899066560E+03  0.17300000000E+03 0.  1.
<mgrwt>
<rscale>  2 0.19083157E+03</rscale>
<asrwt>0</asrwt>
<pdfrwt beam="1">  1       21 0.26204175E-01 0.19083157E+03</pdfrwt>
<pdfrwt beam="2">  1       21 0.33788772E-01 0.19083157E+03</pdfrwt>
<totfact> 0.11688305E+05</totfact>
</mgrwt>
</event>
<event>
 4    1  0.3875622E-001  0.2423764E+03  0.7546771E-02  0.1118220E+00
         21   -1    0    0  503  502  0.00000000000E+00  0.00000000000E+00  0.42126536354E+02  0.42126536354E+02  0.00000000000E+00 0. -1.
         21   -1    0    0  501  503 -0.00000000000E+00 -0.00000000000E+00 -0.14116696324E+04  0.14116696324E+04  0.00000000000E+00 0. -1.
          6    1    1    2  501    0  0.16389550233E+03 -0.44222004768E+02 -0.76488901467E+03  0.80237243606E+03  0.17300000000E+03 0. -1.
         -6    1    1    2    0  502 -0.16389550233E+03  0.44222004768E+02 -0.60465408137E+03  0.65142373269E+03  0.17300000000E+03 0. -1.
<mgrwt>
<rscale>  2 0.24237640E+03</rscale>
<asrwt>0</asrwt>
<pdfrwt beam="1">  1       21 0.64810064E-02 0.24237640E+03</pdfrwt>
<pdfrwt beam="2">  1       21 0.21717991E+00 0.24237640E+03</pdfrwt>
<totfact> 0.17429029E+04</totfact>
</mgrwt>
</event>
<event>
 4    1  0.3875622E-001  0.1925512E+03  0.7546771E-02  0.1156180E+00
         21   -1    0    0  503  502  0.00000000000E+00  0.00000000000E+00  0.16949480000E+04  0.16949480000E+04  0.00000000000E+00 0. -1.
         21   -1    0    0  501  503 -0.00000000000E+00 -0.00000000000E+00 -0.23421334990E+02  0.23421334990E+02  0.00000000000E+00 0. -1.
          6    1    1    2  501    0  0.48778989587E+02  0.69047549725E+02  0.61495365660E+03  0.64439425332E+03  0.17300000000E+03 0. -1.
         -6    1    1    2    0  502 -0.48778989587E+02 -0.69047549725E+02  0.10565730085E+04  0.10739750817E+04  0.17300000000E+03 0. -1.
<mgrwt>
<rscale>  2 0.19255117E+03</rscale>
<asrwt>0</asrwt>
<pdfrwt beam="1">  1       21 0.26076113E+00 0.19255117E+03</pdfrwt>
<pdfrwt beam="2">  1       21 0.36032836E-02 0.19255117E+03</pdfrwt>
<totfact> 0.26842971E+04</totfact>
</mgrwt>
</event>
<event>
 4    1  0.3875622E-001  0.2269649E+03  0.7546771E-02  0.1128794E+00
         21   -1    0    0  501  502  0.00000000000E+00  0.00000000000E+00  0.11542229393E+03  0.11542229393E+03  0.00000000000E+00 0. -1.
         21   -1    0    0  502  503 -0.00000000000E+00 -0.00000000000E+00 -0.64061731368E+03  0.64061731368E+03  0.00000000000E+00 0. -1.
          6    1    1    2  501    0  0.30120676399E+02  0.14379425990E+03 -0.54402534655E+02  0.23339383047E+03  0.17300000000E+03 0. -1.
         -6    1    1    2    0  503 -0.30120676399E+02 -0.14379425990E+03 -0.47079248510E+03  0.52264577713E+03  0.17300000000E+03 0. -1.
<mgrwt>
<rscale>  2 0.22696485E+03</rscale>
<asrwt>0</asrwt>
<pdfrwt beam="1">  1       21 0.17757276E-01 0.22696485E+03</pdfrwt>
<pdfrwt beam="2">  1       21 0.98556510E-01 0.22696485E+03</pdfrwt>
<totfact> 0.23985742E+04</totfact>
</mgrwt>
</event>
<event>
 4    1  0.3875622E-001  0.2210943E+03  0.7546771E-02  0.1133070E+00
         21   -1    0    0  503  502  0.00000000000E+00  0.00000000000E+00  0.12285592056E+04  0.12285592056E+04  0.00000000000E+00 0.  1.
         21   -1    0    0  501  503 -0.00000000000E+00 -0.00000000000E+00 -0.44487017635E+02  0.44487017635E+02  0.00000000000E+00 0.  1.
          6    1    1    2  501    0  0.76741648157E+02 -0.11429956663E+03  0.38517797945E+03  0.44412244634E+03  0.17300000000E+03 0.  1.
         -6    1    1    2    0  502 -0.76741648157E+02  0.11429956663E+03  0.79889420852E+03  0.82892377690E+03  0.17300000000E+03 0.  1.
<mgrwt>
<rscale>  2 0.22109426E+03</rscale>
<asrwt>0</asrwt>
<pdfrwt beam="1">  1       21 0.18900908E+00 0.22109426E+03</pdfrwt>
<pdfrwt beam="2">  1       21 0.68441575E-02 0.22109426E+03</pdfrwt>
<totfact> 0.24415834E+04</totfact>
</mgrwt>
</event>
<event>
 4    1  0.3875622E-001  0.2141980E+03  0.7546771E-02  0.1138284E+00
         21   -1    0    0  501  502  0.00000000000E+00  0.00000000000E+00  0.91580857221E+03  0.91580857221E+03  0.00000000000E+00 0.  1.
         21   -1    0    0  502  503 -0.00000000000E+00 -0.00000000000E+00 -0.85855180544E+02  0.85855180544E+02  0.00000000000E+00 0.  1.
          6    1    1    2  501    0  0.46446425950E+02 -0.11745012232E+03  0.73818775049E+03  0.76863642685E+03  0.17300000000E+03 0.  1.
         -6    1    1    2    0  503 -0.46446425950E+02  0.11745012232E+03  0.91765641180E+02  0.23302732590E+03  0.17300000000E+03 0.  1.
<mgrwt>
<rscale>  2 0.21419804E+03</rscale>
<asrwt>0</asrwt>
<pdfrwt beam="1">  1       21 0.14089362E+00 0.21419804E+03</pdfrwt>
<pdfrwt beam="2">  1       21 0.13208490E-01 0.21419804E+03</pdfrwt>
<totfact> 0.17138521E+04</totfact>
</mgrwt>
</event>
<event>
 4    1  0.3875622E-001  0.1924149E+03  0.7546771E-02  0.1156301E+00
         21   -1    0    0  503  502  0.00000000000E+00  0.00000000000E+00  0.42097620249E+03  0.42097620249E+03  0.00000000000E+00 0.  1.
         21   -1    0    0  501  503 -0.00000000000E+00 -0.00000000000E+00 -0.97796238672E+02  0.97796238672E+02  0.00000000000E+00 0. -1.
          6    1    1    2  501    0 -0.58243623271E+02  0.60845451121E+02  0.24390757845E+03  0.31066766069E+03  0.17300000000E+03 0.  1.
         -6    1    1    2    0  502  0.58243623271E+02 -0.60845451121E+02  0.79272385372E+02  0.20810478047E+03  0.17300000000E+03 0. -1.
<mgrwt>
<rscale>  2 0.19241489E+03</rscale>
<asrwt>0</asrwt>
<pdfrwt beam="1">  1       21 0.64765568E-01 0.19241489E+03</pdfrwt>
<pdfrwt beam="2">  1       21 0.15045575E-01 0.19241489E+03</pdfrwt>
<totfact> 0.85710994E+04</totfact>
</mgrwt>
</event>
<event>
 4    1  0.3875622E-001  0.2132259E+03  0.7546771E-02  0.1139037E+00
         21   -1    0    0  503  502  0.00000000000E+00  0.00000000000E+00  0.28869218872E+02  0.28869218872E+02  0.00000000000E+00 0. -1.
         21   -1    0    0  501  503 -0.00000000000E+00 -0.00000000000E+00 -0.16327880464E+04  0.16327880464E+04  0.00000000000E+00 0. -1.
          6    1    1    2  501    0  0.11520048101E+03 -0.47593207162E+02 -0.95843760954E+03  0.98186960212E+03  0.17300000000E+03 0. -1.
         -6    1    1    2    0  502 -0.11520048101E+03  0.47593207162E+02 -0.64548121797E+03  0.67978766313E+03  0.17300000000E+03 0. -1.
<mgrwt>
<rscale>  2 0.21322585E+03</rscale>
<asrwt>0</asrwt>
<pdfrwt beam="1">  1       21 0.44414175E-02 0.21322585E+03</pdfrwt>
<pdfrwt beam="2">  1       21 0.25119821E+00 0.21322585E+03</pdfrwt>
<totfact> 0.21130130E+04</totfact>
</mgrwt>
</event>
<event>
 4    1  0.3875622E-001  0.1856975E+03  0.7546771E-02  0.1162400E+00
         21   -1    0    0  503  502  0.00000000000E+00  0.00000000000E+00  0.31948680845E+03  0.31948680845E+03  0.00000000000E+00 0.  1.
         21   -1    0    0  501  503 -0.00000000000E+00 -0.00000000000E+00 -0.11038289099E+03  0.11038289099E+03  0.00000000000E+00 0. -1.
          6    1    1    2  501    0 -0.59681288896E+02 -0.31507475940E+02  0.13656421088E+03  0.23050674822E+03  0.17300000000E+03 0.  1.
         -6    1    1    2    0  502  0.59681288896E+02  0.31507475940E+02  0.72539706590E+02  0.19936295121E+03  0.17300000000E+03 0. -1.
<mgrwt>
<rscale>  2 0.18569754E+03</rscale>
<asrwt>0</asrwt>
<pdfrwt beam="1">  1       21 0.49151816E-01 0.18569754E+03</pdfrwt>
<pdfrwt beam="2">  1       21 0.16981983E-01 0.18569754E+03</pdfrwt>
<totfact> 0.12372640E+05</totfact>
</mgrwt>
</event>
<event>
 4    1  0.3875622E-001  0.1736794E+03  0.7546771E-02  0.1174064E+00
         21   -1    0    0  503  502  0.00000000000E+00  0.00000000000E+00  0.12567534816E+04  0.12567534816E+04  0.00000000000E+00 0.  1.
         21   -1    0    0  501  503 -0.00000000000E+00 -0.00000000000E+00 -0.26287673079E+02  0.26287673079E+02  0.00000000000E+00 0.  1.
          6    1    1    2  501    0 -0.58812811361E+01 -0.14175451412E+02  0.42606544686E+03  0.46010465972E+03  0.17300000000E+03 0.  1.
         -6    1    1    2    0  502  0.58812811361E+01  0.14175451412E+02  0.80440036162E+03  0.82293649491E+03  0.17300000000E+03 0.  1.
<mgrwt>
<rscale>  2 0.17367940E+03</rscale>
<asrwt>0</asrwt>
<pdfrwt beam="1">  1       21 0.19334664E+00 0.17367940E+03</pdfrwt>
<pdfrwt beam="2">  1       21 0.40442584E-02 0.17367940E+03</pdfrwt>
<totfact> 0.57733160E+04</totfact>
</mgrwt>
</event>
<event>
 4    1  0.3875622E-001  0.2430873E+03  0.7546771E-02  0.1117753E+00
         21   -1    0    0  503  502  0.00000000000E+00  0.00000000000E+00  0.82409630523E+02  0.82409630523E+02  0.00000000000E+00 0. -1.
         21   -1    0    0  501  503 -0.00000000000E+00 -0.00000000000E+00 -0.76643524435E+03  0.76643524435E+03  0.00000000000E+00 0. -1.
          6    1    1    2  501    0 -0.13043398523E+03  0.11022435585E+03 -0.44975359374E+03  0.51124331605E+03  0.17300000000E+03 0. -1.
         -6    1    1    2    0  502  0.13043398523E+03 -0.11022435585E+03 -0.23427202009E+03  0.33760155882E+03  0.17300000000E+03 0. -1.
<mgrwt>
<rscale>  2 0.24308730E+03</rscale>
<asrwt>0</asrwt>
<pdfrwt beam="1">  1       21 0.12678405E-01 0.24308730E+03</pdfrwt>
<pdfrwt beam="2">  1       21 0.11791311E+00 0.24308730E+03</pdfrwt>
<totfact> 0.28524559E+04</totfact>
</mgrwt>
</event>
<event>
 4    1  0.3875622E-001  0.1768075E+03  0.7546771E-02  0.1170929E+00
         21   -1    0    0  503  502  0.00000000000E+00  0.00000000000E+00  0.15931809318E+03  0.15931809318E+03  0.00000000000E+00 0.  1.
         21   -1    0    0  501  503 -0.00000000000E+00 -0.00000000000E+00 -0.25834260657E+03  0.25834260657E+03  0.00000000000E+00 0.  1.
          6    1    1    2  501    0 -0.32773822593E+02  0.16055466348E+02 -0.15191964444E+03  0.23311044553E+03  0.17300000000E+03 0.  1.
         -6    1    1    2    0  502  0.32773822593E+02 -0.16055466348E+02  0.52895131051E+02  0.18455025423E+03  0.17300000000E+03 0.  1.
<mgrwt>
<rscale>  2 0.17680753E+03</rscale>
<asrwt>0</asrwt>
<pdfrwt beam="1">  1       21 0.24510476E-01 0.17680753E+03</pdfrwt>
<pdfrwt beam="2">  1       21 0.39745016E-01 0.17680753E+03</pdfrwt>
<totfact> 0.96559609E+04</totfact>
</mgrwt>
</event>
<event>
 4    1  0.3875622E-001  0.1870268E+03  0.7546771E-02  0.1161171E+00
         21   -1    0    0  503  502  0.00000000000E+00  0.00000000000E+00  0.12693742741E+03  0.12693742741E+03  0.00000000000E+00 0.  1.
         21   -1    0    0  501  503 -0.00000000000E+00 -0.00000000000E+00 -0.30198762267E+03  0.30198762267E+03  0.00000000000E+00 0.  1.
          6    1    1    2  501    0  0.58852764799E+02 -0.39829450115E+02 -0.24083249686E+02  0.18857103684E+03  0.17300000000E+03 0.  1.
         -6    1    1    2    0  502 -0.58852764799E+02  0.39829450115E+02 -0.15096694557E+03  0.24035401323E+03  0.17300000000E+03 0.  1.
<mgrwt>
<rscale>  2 0.18702682E+03</rscale>
<asrwt>0</asrwt>
<pdfrwt beam="1">  1       21 0.19528835E-01 0.18702682E+03</pdfrwt>
<pdfrwt beam="2">  1       21 0.46459634E-01 0.18702682E+03</pdfrwt>
<totfact> 0.10730772E+05</totfact>
</mgrwt>
</event>
<event>
 4    1  0.3875622E-001  0.1786937E+03  0.7546771E-02  0.1169073E+00
         21   -1    0    0  503  502  0.00000000000E+00  0.00000000000E+00  0.12360177800E+03  0.12360177800E+03  0.00000000000E+00 0. -1.
         21   -1    0    0  501  503 -0.00000000000E+00 -0.00000000000E+00 -0.27948704512E+03  0.27948704512E+03  0.00000000000E+00 0. -1.
          6    1    1    2  501    0  0.41473846614E+02 -0.16803492887E+02 -0.13337992093E+03  0.22298349857E+03  0.17300000000E+03 0. -1.
         -6    1    1    2    0  502 -0.41473846614E+02  0.16803492887E+02 -0.22505346184E+02  0.18010532456E+03  0.17300000000E+03 0. -1.
<mgrwt>
<rscale>  2 0.17869370E+03</rscale>
<asrwt>0</asrwt>
<pdfrwt beam="1">  1       21 0.19015658E-01 0.17869370E+03</pdfrwt>
<pdfrwt beam="2">  1       21 0.42998006E-01 0.17869370E+03</pdfrwt>
<totfact> 0.13253052E+05</totfact>
</mgrwt>
</event>
<event>
 4    1  0.3875622E-001  0.2022135E+03  0.7546771E-02  0.1147885E+00
         21   -1    0    0  501  502  0.00000000000E+00  0.00000000000E+00  0.23808032262E+03  0.23808032262E+03  0.00000000000E+00 0.  1.
         21   -1    0    0  502  503 -0.00000000000E+00 -0.00000000000E+00 -0.17856965871E+03  0.17856965871E+03  0.00000000000E+00 0. -1.
          6    1    1    2  501    0 -0.42732269960E+02  0.95578413964E+02  0.70467188096E+02  0.21413991853E+03  0.17300000000E+03 0.  1.
         -6    1    1    2    0  503  0.42732269960E+02 -0.95578413964E+02 -0.10956524180E+02  0.20251006280E+03  0.17300000000E+03 0.  1.
<mgrwt>
<rscale>  2 0.20221345E+03</rscale>
<asrwt>0</asrwt>
<pdfrwt beam="1">  1       21 0.36627742E-01 0.20221345E+03</pdfrwt>
<pdfrwt beam="2">  1       21 0.27472255E-01 0.20221345E+03</pdfrwt>
<totfact> 0.90502173E+04</totfact>
</mgrwt>
</event>
<event>
 4    1  0.3875622E-001  0.2904090E+03  0.7546771E-02  0.1090136E+00
         21   -1    0    0  501  502  0.00000000000E+00  0.00000000000E+00  0.10603629593E+04  0.10603629593E+04  0.00000000000E+00 0. -1.
         21   -1    0    0  502  503 -0.00000000000E+00 -0.00000000000E+00 -0.12613694678E+03  0.12613694678E+03  0.00000000000E+00 0.  1.
          6    1    1    2  501    0 -0.23303806672E+03  0.10083114045E+02  0.82770181961E+03  0.87717028673E+03  0.17300000000E+03 0. -1.
         -6    1    1    2    0  503  0.23303806672E+03 -0.10083114045E+02  0.10652419292E+03  0.30932961935E+03  0.17300000000E+03 0.  1.
<mgrwt>
<rscale>  2 0.29040904E+03</rscale>
<asrwt>0</asrwt>
<pdfrwt beam="1">  1       21 0.16313276E+00 0.29040904E+03</pdfrwt>
<pdfrwt beam="2">  1       21 0.19405685E-01 0.29040904E+03</pdfrwt>
<totfact> 0.54447630E+03</totfact>
</mgrwt>
</event>
<event>
 4    1  0.3875622E-001  0.1822996E+03  0.7546771E-02  0.1165596E+00
         21   -1    0    0  503  502  0.00000000000E+00  0.00000000000E+00  0.28822015887E+03  0.28822015887E+03  0.00000000000E+00 0. -1.
         21   -1    0    0  501  503 -0.00000000000E+00 -0.00000000000E+00 -0.11985263158E+03  0.11985263158E+03  0.00000000000E+00 0. -1.
          6    1    1    2  501    0  0.46276835895E+02  0.34096651299E+02  0.12392970325E+03  0.22043524790E+03  0.17300000000E+03 0.  1.
         -6    1    1    2    0  502 -0.46276835895E+02 -0.34096651299E+02  0.44437824038E+02  0.18763754255E+03  0.17300000000E+03 0.  1.
<mgrwt>
<rscale>  2 0.18229955E+03</rscale>
<asrwt>0</asrwt>
<pdfrwt beam="1">  1       21 0.44341563E-01 0.18229955E+03</pdfrwt>
<pdfrwt beam="2">  1       21 0.18438866E-01 0.18229955E+03</pdfrwt>
<totfact> 0.13160809E+05</totfact>
</mgrwt>
</event>
<event>
 4    1  0.3875622E-001  0.1778456E+03  0.7546771E-02  0.1169905E+00
         21   -1    0    0  501  502  0.00000000000E+00  0.00000000000E+00  0.20189182008E+02  0.20189182008E+02  0.00000000000E+00 0.  1.
         21   -1    0    0  502  503 -0.00000000000E+00 -0.00000000000E+00 -0.15692453030E+04  0.15692453030E+04  0.00000000000E+00 0.  1.
          6    1    1    2  501    0  0.37951835695E+02  0.16115174223E+02 -0.80695240366E+03  0.82631787010E+03  0.17300000000E+03 0. -1.
         -6    1    1    2    0  503 -0.37951835695E+02 -0.16115174223E+02 -0.74210371734E+03  0.76311661491E+03  0.17300000000E+03 0. -1.
<mgrwt>
<rscale>  2 0.17784555E+03</rscale>
<asrwt>0</asrwt>
<pdfrwt beam="1">  1       21 0.31060281E-02 0.17784555E+03</pdfrwt>
<pdfrwt beam="2">  1       21 0.24142234E+00 0.17784555E+03</pdfrwt>
<totfact> 0.45152493E+04</totfact>
</mgrwt>
</event>
<event>
 4    1  0.3875622E-001  0.1976523E+03  0.7546771E-02  0.1151735E+00
         21   -1    0    0  503  502  0.00000000000E+00  0.00000000000E+00  0.66375184525E+03  0.66375184525E+03  0.00000000000E+00 0. -1.
         21   -1    0    0  501  503 -0.00000000000E+00 -0.00000000000E+00 -0.67743416157E+02  0.67743416157E+02  0.00000000000E+00 0.  1.
          6    1    1    2  501    0 -0.90186728766E+02 -0.31682728596E+02  0.16553610574E+03  0.25781513462E+03  0.17300000000E+03 0.  1.
         -6    1    1    2    0  502  0.90186728766E+02  0.31682728596E+02  0.43047232335E+03  0.47368012678E+03  0.17300000000E+03 0. -1.
<mgrwt>
<rscale>  2 0.19765232E+03</rscale>
<asrwt>0</asrwt>
<pdfrwt beam="1">  1       21 0.10211566E+00 0.19765232E+03</pdfrwt>
<pdfrwt beam="2">  1       21 0.10422064E-01 0.19765232E+03</pdfrwt>
<totfact> 0.58760282E+04</totfact>
</mgrwt>
</event>
<event>
 4    1  0.3875622E-001  0.1734638E+03  0.7546771E-02  0.1174283E+00
         21   -1    0    0  501  502  0.00000000000E+00  0.00000000000E+00  0.61878387324E+03  0.61878387324E+03  0.00000000000E+00 0. -1.
         21   -1    0    0  502  503 -0.00000000000E+00 -0.00000000000E+00 -0.51372343948E+02  0.51372343948E+02  0.00000000000E+00 0. -1.
          6    1    1    2  501    0 -0.28339829310E+01  0.12355496694E+02  0.36116419771E+03  0.40066103812E+03  0.17300000000E+03 0.  1.
         -6    1    1    2    0  503  0.28339829310E+01 -0.12355496694E+02  0.20624733158E+03  0.26949517907E+03  0.17300000000E+03 0.  1.
<mgrwt>
<rscale>  2 0.17346380E+03</rscale>
<asrwt>0</asrwt>
<pdfrwt beam="1">  1       21 0.95197514E-01 0.17346380E+03</pdfrwt>
<pdfrwt beam="2">  1       21 0.79034380E-02 0.17346380E+03</pdfrwt>
<totfact> 0.11384719E+05</totfact>
</mgrwt>
</event>
<event>
 4    1  0.3875622E-001  0.1915790E+03  0.7546771E-02  0.1157045E+00
         21   -1    0    0  503  502  0.00000000000E+00  0.00000000000E+00  0.23374329187E+04  0.23374329187E+04  0.00000000000E+00 0. -1.
         21   -1    0    0  501  503 -0.00000000000E+00 -0.00000000000E+00 -0.18504713002E+02  0.18504713002E+02  0.00000000000E+00 0. -1.
          6    1    1    2  501    0 -0.38494474397E+02  0.72743869074E+02  0.70102902393E+03  0.72673529393E+03  0.17300000000E+03 0.  1.
         -6    1    1    2    0  502  0.38494474397E+02 -0.72743869074E+02  0.16178991818E+04  0.16292023378E+04  0.17300000000E+03 0.  1.
<mgrwt>
<rscale>  2 0.19157895E+03</rscale>
<asrwt>0</asrwt>
<pdfrwt beam="1">  1       21 0.35960483E+00 0.19157895E+03</pdfrwt>
<pdfrwt beam="2">  1       21 0.28468808E-02 0.19157895E+03</pdfrwt>
<totfact> 0.10596636E+04</totfact>
</mgrwt>
</event>
<event>
 4    1  0.3875622E-001  0.1869357E+03  0.7546771E-02  0.1161255E+00
         21   -1    0    0  501  502  0.00000000000E+00  0.00000000000E+00  0.15426680030E+03  0.15426680030E+03  0.00000000000E+00 0. -1.
         21   -1    0    0  502  503 -0.00000000000E+00 -0.00000000000E+00 -0.26203343723E+03  0.26203343723E+03  0.00000000000E+00 0. -1.
          6    1    1    2  501    0 -0.61434154954E+02 -0.35239280705E+02  0.22742822525E+02  0.18831409474E+03  0.17300000000E+03 0. -1.
         -6    1    1    2    0  503  0.61434154954E+02  0.35239280705E+02 -0.13050945945E+03  0.22798614279E+03  0.17300000000E+03 0. -1.
<mgrwt>
<rscale>  2 0.18693572E+03</rscale>
<asrwt>0</asrwt>
<pdfrwt beam="1">  1       21 0.23733354E-01 0.18693572E+03</pdfrwt>
<pdfrwt beam="2">  1       21 0.40312836E-01 0.18693572E+03</pdfrwt>
<totfact> 0.99370958E+04</totfact>
</mgrwt>
</event>
<event>
 4    1  0.3875622E-001  0.2251198E+03  0.7546771E-02  0.1130123E+00
         21   -1    0    0  503  502  0.00000000000E+00  0.00000000000E+00  0.43931783829E+02  0.43931783829E+02  0.00000000000E+00 0. -1.
         21   -1    0    0  501  503 -0.00000000000E+00 -0.00000000000E+00 -0.11557112989E+04  0.11557112989E+04  0.00000000000E+00 0.  1.
          6    1    1    2  501    0  0.13388635462E+03  0.53144595011E+02 -0.58163763934E+03  0.62368361165E+03  0.17300000000E+03 0.  1.
         -6    1    1    2    0  502 -0.13388635462E+03 -0.53144595011E+02 -0.53014187574E+03  0.57595947110E+03  0.17300000000E+03 0. -1.
<mgrwt>
<rscale>  2 0.22511975E+03</rscale>
<asrwt>0</asrwt>
<pdfrwt beam="1">  1       21 0.67587356E-02 0.22511975E+03</pdfrwt>
<pdfrwt beam="2">  1       21 0.17780175E+00 0.22511975E+03</pdfrwt>
<totfact> 0.29642863E+04</totfact>
</mgrwt>
</event>
<event>
 4    1  0.3875622E-001  0.2023424E+03  0.7546771E-02  0.1147778E+00
         21   -1    0    0  501  502  0.00000000000E+00  0.00000000000E+00  0.27171637396E+03  0.27171637396E+03  0.00000000000E+00 0.  1.
         21   -1    0    0  502  503 -0.00000000000E+00 -0.00000000000E+00 -0.16862941976E+03  0.16862941976E+03  0.00000000000E+00 0.  1.
          6    1    1    2  501    0  0.52818508449E+02 -0.90684306169E+02 -0.20287672714E+02  0.20335689780E+03  0.17300000000E+03 0.  1.
         -6    1    1    2    0  503 -0.52818508449E+02  0.90684306169E+02  0.12337462692E+03  0.23698889592E+03  0.17300000000E+03 0.  1.
<mgrwt>
<rscale>  2 0.20234238E+03</rscale>
<asrwt>0</asrwt>
<pdfrwt beam="1">  1       21 0.41802519E-01 0.20234238E+03</pdfrwt>
<pdfrwt beam="2">  1       21 0.25942988E-01 0.20234238E+03</pdfrwt>
<totfact> 0.77408391E+04</totfact>
</mgrwt>
</event>
<event>
 4    1  0.3875622E-001  0.1767969E+03  0.7546771E-02  0.1170940E+00
         21   -1    0    0  503  502  0.00000000000E+00  0.00000000000E+00  0.23427321849E+03  0.23427321849E+03  0.00000000000E+00 0. -1.
         21   -1    0    0  501  503 -0.00000000000E+00 -0.00000000000E+00 -0.15944647535E+03  0.15944647535E+03  0.00000000000E+00 0. -1.
          6    1    1    2  501    0  0.18314191895E+02 -0.31507713121E+02 -0.42118766599E+02  0.18174470036E+03  0.17300000000E+03 0. -1.
         -6    1    1    2    0  502 -0.18314191895E+02  0.31507713121E+02  0.11694550974E+03  0.21197499348E+03  0.17300000000E+03 0. -1.
<mgrwt>
<rscale>  2 0.17679690E+03</rscale>
<asrwt>0</asrwt>
<pdfrwt beam="1">  1       21 0.36042033E-01 0.17679690E+03</pdfrwt>
<pdfrwt beam="2">  1       21 0.24530227E-01 0.17679690E+03</pdfrwt>
<totfact> 0.11724429E+05</totfact>
</mgrwt>
</event>
<event>
 4    1  0.3875622E-001  0.2018102E+03  0.7546771E-02  0.1148221E+00
         21   -1    0    0  503  502  0.00000000000E+00  0.00000000000E+00  0.10550847916E+03  0.10550847916E+03  0.00000000000E+00 0.  1.
         21   -1    0    0  501  503 -0.00000000000E+00 -0.00000000000E+00 -0.41735758337E+03  0.41735758337E+03  0.00000000000E+00 0.  1.
          6    1    1    2  501    0  0.40240146978E+01 -0.10383726267E+03 -0.22757280330E+03  0.30416566311E+03  0.17300000000E+03 0.  1.
         -6    1    1    2    0  502 -0.40240146978E+01  0.10383726267E+03 -0.84276300906E+02  0.21870039942E+03  0.17300000000E+03 0.  1.
<mgrwt>
<rscale>  2 0.20181023E+03</rscale>
<asrwt>0</asrwt>
<pdfrwt beam="1">  1       21 0.16232074E-01 0.20181023E+03</pdfrwt>
<pdfrwt beam="2">  1       21 0.64208858E-01 0.20181023E+03</pdfrwt>
<totfact> 0.75705655E+04</totfact>
</mgrwt>
</event>
<event>
 4    1  0.3875622E-001  0.2351725E+03  0.7546771E-02  0.1123051E+00
         21   -1    0    0  501  502  0.00000000000E+00  0.00000000000E+00  0.11784651614E+03  0.11784651614E+03  0.00000000000E+00 0. -1.
         21   -1    0    0  502  503 -0.00000000000E+00 -0.00000000000E+00 -0.59641830998E+03  0.59641830998E+03  0.00000000000E+00 0.  1.
          6    1    1    2  501    0  0.15203616148E+03  0.47561549521E+02 -0.74413738028E+02  0.24666475184E+03  0.17300000000E+03 0.  1.
         -6    1    1    2    0  503 -0.15203616148E+03 -0.47561549521E+02 -0.40415805581E+03  0.46760007428E+03  0.17300000000E+03 0.  1.
<mgrwt>
<rscale>  2 0.23517248E+03</rscale>
<asrwt>0</asrwt>
<pdfrwt beam="1">  1       21 0.18130233E-01 0.23517248E+03</pdfrwt>
<pdfrwt beam="2">  1       21 0.91756666E-01 0.23517248E+03</pdfrwt>
<totfact> 0.27192983E+04</totfact>
</mgrwt>
</event>
<event>
 4    1  0.3875622E-001  0.2014469E+03  0.7546771E-02  0.1148524E+00
         21   -1    0    0  503  502  0.00000000000E+00  0.00000000000E+00  0.36510657781E+03  0.36510657781E+03  0.00000000000E+00 0. -1.
         21   -1    0    0  501  503 -0.00000000000E+00 -0.00000000000E+00 -0.11117387347E+03  0.11117387347E+03  0.00000000000E+00 0. -1.
          6    1    1    2  501    0  0.92004209414E+02 -0.46766125141E+02  0.13060331311E+03  0.24007930024E+03  0.17300000000E+03 0. -1.
         -6    1    1    2    0  502 -0.92004209414E+02  0.46766125141E+02  0.12332939123E+03  0.23620115104E+03  0.17300000000E+03 0. -1.
<mgrwt>
<rscale>  2 0.20144688E+03</rscale>
<asrwt>0</asrwt>
<pdfrwt beam="1">  1       21 0.56170242E-01 0.20144688E+03</pdfrwt>
<pdfrwt beam="2">  1       21 0.17103673E-01 0.20144688E+03</pdfrwt>
<totfact> 0.91690008E+04</totfact>
</mgrwt>
</event>
<event>
 4    1  0.3875622E-001  0.1794070E+03  0.7546771E-02  0.1168378E+00
         21   -1    0    0  501  502  0.00000000000E+00  0.00000000000E+00  0.43063461087E+03  0.43063461087E+03  0.00000000000E+00 0.  1.
         21   -1    0    0  502  503 -0.00000000000E+00 -0.00000000000E+00 -0.13286525701E+03  0.13286525701E+03  0.00000000000E+00 0.  1.
          6    1    1    2  501    0 -0.34810737011E+02  0.32343327413E+02 -0.37465465101E+02  0.18327721985E+03  0.17300000000E+03 0.  1.
         -6    1    1    2    0  503  0.34810737011E+02 -0.32343327413E+02  0.33523481896E+03  0.38022264804E+03  0.17300000000E+03 0.  1.
<mgrwt>
<rscale>  2 0.17940702E+03</rscale>
<asrwt>0</asrwt>
<pdfrwt beam="1">  1       21 0.66251478E-01 0.17940702E+03</pdfrwt>
<pdfrwt beam="2">  1       21 0.20440809E-01 0.17940702E+03</pdfrwt>
<totfact> 0.46632626E+04</totfact>
</mgrwt>
</event>
<event>
 4    1  0.3875622E-001  0.2090294E+03  0.7546771E-02  0.1142337E+00
         21   -1    0    0  503  502  0.00000000000E+00  0.00000000000E+00  0.17200856322E+03  0.17200856322E+03  0.00000000000E+00 0.  1.
         21   -1    0    0  501  503 -0.00000000000E+00 -0.00000000000E+00 -0.26904580770E+03  0.26904580770E+03  0.00000000000E+00 0. -1.
          6    1    1    2  501    0 -0.10217957918E+03  0.57650950929E+02  0.36001934429E+01  0.20906042174E+03  0.17300000000E+03 0.  1.
         -6    1    1    2    0  502  0.10217957918E+03 -0.57650950929E+02 -0.10063743792E+03  0.23199394918E+03  0.17300000000E+03 0.  1.
<mgrwt>
<rscale>  2 0.20902942E+03</rscale>
<asrwt>0</asrwt>
<pdfrwt beam="1">  1       21 0.26462856E-01 0.20902942E+03</pdfrwt>
<pdfrwt beam="2">  1       21 0.41391663E-01 0.20902942E+03</pdfrwt>
<totfact> 0.75808066E+04</totfact>
</mgrwt>
</event>
<event>
 4    1  0.3875622E-001  0.2793139E+03  0.7546771E-02  0.1096064E+00
         21   -1    0    0  503  502  0.00000000000E+00  0.00000000000E+00  0.22546270787E+03  0.22546270787E+03  0.00000000000E+00 0. -1.
         21   -1    0    0  501  503 -0.00000000000E+00 -0.00000000000E+00 -0.34845065892E+03  0.34845065892E+03  0.00000000000E+00 0. -1.
          6    1    1    2  501    0 -0.30113331340E+02  0.21721065552E+03 -0.37563968310E+02  0.28182855304E+03  0.17300000000E+03 0. -1.
         -6    1    1    2    0  502  0.30113331340E+02 -0.21721065552E+03 -0.85423982736E+02  0.29208481375E+03  0.17300000000E+03 0. -1.
<mgrwt>
<rscale>  2 0.27931395E+03</rscale>
<asrwt>0</asrwt>
<pdfrwt beam="1">  1       21 0.34686571E-01 0.27931395E+03</pdfrwt>
<pdfrwt beam="2">  1       21 0.53607793E-01 0.27931395E+03</pdfrwt>
<totfact> 0.25282535E+04</totfact>
</mgrwt>
</event>
<event>
 4    1  0.3875622E-001  0.1884117E+03  0.7546771E-02  0.1159902E+00
         21   -1    0    0  501  502  0.00000000000E+00  0.00000000000E+00  0.21178317396E+03  0.21178317396E+03  0.00000000000E+00 0.  1.
         21   -1    0    0  502  503 -0.00000000000E+00 -0.00000000000E+00 -0.18598634393E+03  0.18598634393E+03  0.00000000000E+00 0. -1.
          6    1    1    2  501    0 -0.10778075031E+02  0.73849790238E+02  0.75398411107E+02  0.20293811573E+03  0.17300000000E+03 0.  1.
         -6    1    1    2    0  503  0.10778075031E+02 -0.73849790238E+02 -0.49601581077E+02  0.19483140215E+03  0.17300000000E+03 0. -1.
<mgrwt>
<rscale>  2 0.18841167E+03</rscale>
<asrwt>0</asrwt>
<pdfrwt beam="1">  1       21 0.32582027E-01 0.18841167E+03</pdfrwt>
<pdfrwt beam="2">  1       21 0.28613284E-01 0.18841167E+03</pdfrwt>
<totfact> 0.10607592E+05</totfact>
</mgrwt>
</event>
<event>
 4    1  0.3875622E-001  0.1806900E+03  0.7546771E-02  0.1167137E+00
         21   -1    0    0  501  502  0.00000000000E+00  0.00000000000E+00  0.10273324976E+04  0.10273324976E+04  0.00000000000E+00 0.  1.
         21   -1    0    0  502  503 -0.00000000000E+00 -0.00000000000E+00 -0.35044119686E+02  0.35044119686E+02  0.00000000000E+00 0.  1.
          6    1    1    2  501    0 -0.31807404769E+02 -0.41330057427E+02  0.33403513609E+03  0.37977408652E+03  0.17300000000E+03 0.  1.
         -6    1    1    2    0  503  0.31807404769E+02  0.41330057427E+02  0.65825324183E+03  0.68260253078E+03  0.17300000000E+03 0.  1.
<mgrwt>
<rscale>  2 0.18069002E+03</rscale>
<asrwt>0</asrwt>
<pdfrwt beam="1">  1       21 0.15805113E+00 0.18069002E+03</pdfrwt>
<pdfrwt beam="2">  1       21 0.53914038E-02 0.18069002E+03</pdfrwt>
<totfact> 0.61970954E+04</totfact>
</mgrwt>
</event>
<event>
 4    1  0.3875622E-001  0.2237018E+03  0.7546771E-02  0.1131153E+00
         21   -1    0    0  503  502  0.00000000000E+00  0.00000000000E+00  0.11836351053E+03  0.11836351053E+03  0.00000000000E+00 0.  1.
         21   -1    0    0  501  503 -0.00000000000E+00 -0.00000000000E+00 -0.42323821804E+03  0.42323821804E+03  0.00000000000E+00 0.  1.
          6    1    1    2  501    0 -0.12892693124E+03  0.59087604797E+02 -0.16128390250E+03  0.27578070246E+03  0.17300000000E+03 0.  1.
         -6    1    1    2    0  502  0.12892693124E+03 -0.59087604797E+02 -0.14359080501E+03  0.26582102611E+03  0.17300000000E+03 0.  1.
<mgrwt>
<rscale>  2 0.22370181E+03</rscale>
<asrwt>0</asrwt>
<pdfrwt beam="1">  1       21 0.18209770E-01 0.22370181E+03</pdfrwt>
<pdfrwt beam="2">  1       21 0.65113573E-01 0.22370181E+03</pdfrwt>
<totfact> 0.58826155E+04</totfact>
</mgrwt>
</event>
<event>
 4    1  0.3875622E-001  0.2770055E+03  0.7546771E-02  0.1097336E+00
         21   -1    0    0  503  502  0.00000000000E+00  0.00000000000E+00  0.10147051672E+04  0.10147051672E+04  0.00000000000E+00 0. -1.
         21   -1    0    0  501  503 -0.00000000000E+00 -0.00000000000E+00 -0.83151311138E+02  0.83151311138E+02  0.00000000000E+00 0.  1.
          6    1    1    2  501    0 -0.21120504560E+03  0.46855843516E+02  0.30057493709E+03  0.40875094393E+03  0.17300000000E+03 0.  1.
         -6    1    1    2    0  502  0.21120504560E+03 -0.46855843516E+02  0.63097891898E+03  0.68910553441E+03  0.17300000000E+03 0. -1.
<mgrwt>
<rscale>  2 0.27700549E+03</rscale>
<asrwt>0</asrwt>
<pdfrwt beam="1">  1       21 0.15610848E+00 0.27700549E+03</pdfrwt>
<pdfrwt beam="2">  1       21 0.12792510E-01 0.27700549E+03</pdfrwt>
<totfact> 0.13347328E+04</totfact>
</mgrwt>
</event>
<event>
 4    1  0.3875622E-001  0.2543829E+03  0.7546771E-02  0.1110566E+00
         21   -1    0    0  503  502  0.00000000000E+00  0.00000000000E+00  0.77092393399E+03  0.77092393399E+03  0.00000000000E+00 0.  1.
         21   -1    0    0  501  503 -0.00000000000E+00 -0.00000000000E+00 -0.84448437551E+02  0.84448437551E+02  0.00000000000E+00 0. -1.
          6    1    1    2  501    0 -0.44380239389E+02 -0.18114103233E+03  0.37645183203E+03  0.45434200893E+03  0.17300000000E+03 0.  1.
         -6    1    1    2    0  502  0.44380239389E+02  0.18114103233E+03  0.31002366441E+03  0.40103036261E+03  0.17300000000E+03 0.  1.
<mgrwt>
<rscale>  2 0.25438294E+03</rscale>
<asrwt>0</asrwt>
<pdfrwt beam="1">  1       21 0.11860368E+00 0.25438294E+03</pdfrwt>
<pdfrwt beam="2">  1       21 0.12992068E-01 0.25438294E+03</pdfrwt>
<totfact> 0.26753162E+04</totfact>
</mgrwt>
</event>
<event>
 4    1  0.3875622E-001  0.1808490E+03  0.7546771E-02  0.1166984E+00
         21   -1    0    0  501  502  0.00000000000E+00  0.00000000000E+00  0.37173405107E+03  0.37173405107E+03  0.00000000000E+00 0. -1.
         21   -1    0    0  502  503 -0.00000000000E+00 -0.00000000000E+00 -0.93523907953E+02  0.93523907953E+02  0.00000000000E+00 0. -1.
          6    1    1    2  501    0 -0.22827790334E+02  0.47500003102E+02  0.19572696528E+03  0.26648715400E+03  0.17300000000E+03 0. -1.
         -6    1    1    2    0  503  0.22827790334E+02 -0.47500003102E+02  0.82483177839E+02  0.19877080503E+03  0.17300000000E+03 0. -1.
<mgrwt>
<rscale>  2 0.18084899E+03</rscale>
<asrwt>0</asrwt>
<pdfrwt beam="1">  1       21 0.57189853E-01 0.18084899E+03</pdfrwt>
<pdfrwt beam="2">  1       21 0.14388294E-01 0.18084899E+03</pdfrwt>
<totfact> 0.12199646E+05</totfact>
</mgrwt>
</event>
<event>
 4    1  0.3875622E-001  0.1856238E+03  0.7546771E-02  0.1162469E+00
         21   -1    0    0  503  502  0.00000000000E+00  0.00000000000E+00  0.43891926577E+03  0.43891926577E+03  0.00000000000E+00 0.  1.
         21   -1    0    0  501  503 -0.00000000000E+00 -0.00000000000E+00 -0.94202435040E+02  0.94202435040E+02  0.00000000000E+00 0. -1.
          6    1    1    2  501    0 -0.44107915879E+02 -0.50810405182E+02  0.63536607996E+02  0.19619660057E+03  0.17300000000E+03 0. -1.
         -6    1    1    2    0  502  0.44107915879E+02  0.50810405182E+02  0.28118022274E+03  0.33692510025E+03  0.17300000000E+03 0.  1.
<mgrwt>
<rscale>  2 0.18562383E+03</rscale>
<asrwt>0</asrwt>
<pdfrwt beam="1">  1       21 0.67526040E-01 0.18562383E+03</pdfrwt>
<pdfrwt beam="2">  1       21 0.14492683E-01 0.18562383E+03</pdfrwt>
<totfact> 0.83987205E+04</totfact>
</mgrwt>
</event>
<event>
 4    1  0.3875622E-001  0.2489240E+03  0.7546771E-02  0.1113987E+00
         21   -1    0    0  501  502  0.00000000000E+00  0.00000000000E+00  0.64902562373E+03  0.64902562373E+03  0.00000000000E+00 0. -1.
         21   -1    0    0  502  503 -0.00000000000E+00 -0.00000000000E+00 -0.10689872819E+03  0.10689872819E+03  0.00000000000E+00 0.  1.
          6    1    1    2  501    0  0.24481845278E+02  0.17729860609E+03  0.39464143306E+03  0.46658870235E+03  0.17300000000E+03 0. -1.
         -6    1    1    2    0  503 -0.24481845278E+02 -0.17729860609E+03  0.14748546247E+03  0.28933564957E+03  0.17300000000E+03 0.  1.
<mgrwt>
<rscale>  2 0.24892400E+03</rscale>
<asrwt>0</asrwt>
<pdfrwt beam="1">  1       21 0.99850093E-01 0.24892400E+03</pdfrwt>
<pdfrwt beam="2">  1       21 0.16445959E-01 0.24892400E+03</pdfrwt>
<totfact> 0.26505856E+04</totfact>
</mgrwt>
</event>
<event>
 4    1  0.3875622E-001  0.2664286E+03  0.7546771E-02  0.1103341E+00
         21   -1    0    0  503  502  0.00000000000E+00  0.00000000000E+00  0.36262630280E+03  0.36262630280E+03  0.00000000000E+00 0. -1.
         21   -1    0    0  501  503 -0.00000000000E+00 -0.00000000000E+00 -0.19913673547E+03  0.19913673547E+03  0.00000000000E+00 0.  1.
          6    1    1    2  501    0 -0.17796385773E+03  0.96871329476E+02  0.45116030596E+02  0.27022147463E+03  0.17300000000E+03 0.  1.
         -6    1    1    2    0  502  0.17796385773E+03 -0.96871329476E+02  0.11837353673E+03  0.29154156364E+03  0.17300000000E+03 0. -1.
<mgrwt>
<rscale>  2 0.26642858E+03</rscale>
<asrwt>0</asrwt>
<pdfrwt beam="1">  1       21 0.55788662E-01 0.26642858E+03</pdfrwt>
<pdfrwt beam="2">  1       21 0.30636421E-01 0.26642858E+03</pdfrwt>
<totfact> 0.29868963E+04</totfact>
</mgrwt>
</event>
<event>
 4    1  0.3875622E-001  0.3287739E+03  0.7546771E-02  0.1071681E+00
         21   -1    0    0  501  502  0.00000000000E+00  0.00000000000E+00  0.24419921755E+03  0.24419921755E+03  0.00000000000E+00 0.  1.
         21   -1    0    0  502  503 -0.00000000000E+00 -0.00000000000E+00 -0.48233263143E+03  0.48233263143E+03  0.00000000000E+00 0. -1.
          6    1    1    2  501    0  0.27233884302E+03 -0.63204542233E+02 -0.14857012181E+02  0.32910938970E+03  0.17300000000E+03 0.  1.
         -6    1    1    2    0  503 -0.27233884302E+03  0.63204542233E+02 -0.22327640170E+03  0.39742245927E+03  0.17300000000E+03 0. -1.
<mgrwt>
<rscale>  2 0.32877387E+03</rscale>
<asrwt>0</asrwt>
<pdfrwt beam="1">  1       21 0.37569111E-01 0.32877387E+03</pdfrwt>
<pdfrwt beam="2">  1       21 0.74205019E-01 0.32877387E+03</pdfrwt>
<totfact> 0.10347005E+04</totfact>
</mgrwt>
</event>
<event>
 4    1  0.3875622E-001  0.1873203E+03  0.7546771E-02  0.1160901E+00
         21   -1    0    0  503  502  0.00000000000E+00  0.00000000000E+00  0.33018084010E+03  0.33018084010E+03  0.00000000000E+00 0. -1.
         21   -1    0    0  501  503 -0.00000000000E+00 -0.00000000000E+00 -0.10694238954E+03  0.10694238954E+03  0.00000000000E+00 0.  1.
          6    1    1    2  501    0 -0.59466606815E+02 -0.40294352588E+02  0.94312003393E+02  0.20972283176E+03  0.17300000000E+03 0.  1.
         -6    1    1    2    0  502  0.59466606815E+02  0.40294352588E+02  0.12892644717E+03  0.22740039788E+03  0.17300000000E+03 0.  1.
<mgrwt>
<rscale>  2 0.18732035E+03</rscale>
<asrwt>0</asrwt>
<pdfrwt beam="1">  1       21 0.50797052E-01 0.18732035E+03</pdfrwt>
<pdfrwt beam="2">  1       21 0.16452675E-01 0.18732035E+03</pdfrwt>
<totfact> 0.12237021E+05</totfact>
</mgrwt>
</event>
<event>
 4    1  0.3875622E-001  0.1830928E+03  0.7546771E-02  0.1164843E+00
         21   -1    0    0  501  502  0.00000000000E+00  0.00000000000E+00  0.10088942538E+03  0.10088942538E+03  0.00000000000E+00 0. -1.
         21   -1    0    0  502  503 -0.00000000000E+00 -0.00000000000E+00 -0.37005506843E+03  0.37005506843E+03  0.00000000000E+00 0. -1.
          6    1    1    2  501    0 -0.10512642175E+02 -0.59020700175E+02 -0.59343962790E+02  0.19246990574E+03  0.17300000000E+03 0. -1.
         -6    1    1    2    0  503  0.10512642175E+02  0.59020700175E+02 -0.20982168026E+03  0.27847458807E+03  0.17300000000E+03 0. -1.
<mgrwt>
<rscale>  2 0.18309276E+03</rscale>
<asrwt>0</asrwt>
<pdfrwt beam="1">  1       21 0.15521450E-01 0.18309276E+03</pdfrwt>
<pdfrwt beam="2">  1       21 0.56931550E-01 0.18309276E+03</pdfrwt>
<totfact> 0.10723056E+05</totfact>
</mgrwt>
</event>
<event>
 4    1  0.3875622E-001  0.2438934E+03  0.7546771E-02  0.1117226E+00
         21   -1    0    0  501  502  0.00000000000E+00  0.00000000000E+00  0.20495208463E+03  0.20495208463E+03  0.00000000000E+00 0. -1.
         21   -1    0    0  502  503 -0.00000000000E+00 -0.00000000000E+00 -0.29042809145E+03  0.29042809145E+03  0.00000000000E+00 0. -1.
          6    1    1    2  501    0  0.12928199865E+03 -0.11331877046E+03 -0.49147927053E+02  0.24879609653E+03  0.17300000000E+03 0. -1.
         -6    1    1    2    0  503 -0.12928199865E+03  0.11331877046E+03 -0.36328079766E+02  0.24658407956E+03  0.17300000000E+03 0. -1.
<mgrwt>
<rscale>  2 0.24389338E+03</rscale>
<asrwt>0</asrwt>
<pdfrwt beam="1">  1       21 0.31531090E-01 0.24389338E+03</pdfrwt>
<pdfrwt beam="2">  1       21 0.44681245E-01 0.24389338E+03</pdfrwt>
<totfact> 0.45403701E+04</totfact>
</mgrwt>
</event>
<event>
 4    1  0.3875622E-001  0.1735322E+03  0.7546771E-02  0.1174214E+00
         21   -1    0    0  503  502  0.00000000000E+00  0.00000000000E+00  0.12827355263E+03  0.12827355263E+03  0.00000000000E+00 0. -1.
         21   -1    0    0  501  503 -0.00000000000E+00 -0.00000000000E+00 -0.30175671384E+03  0.30175671384E+03  0.00000000000E+00 0. -1.
          6    1    1    2  501    0  0.10643421879E+02  0.84336027353E+01 -0.18805561511E+03  0.25588732376E+03  0.17300000000E+03 0. -1.
         -6    1    1    2    0  502 -0.10643421879E+02 -0.84336027353E+01  0.14572453896E+02  0.17414294271E+03  0.17300000000E+03 0. -1.
<mgrwt>
<rscale>  2 0.17353215E+03</rscale>
<asrwt>0</asrwt>
<pdfrwt beam="1">  1       21 0.19734393E-01 0.17353215E+03</pdfrwt>
<pdfrwt beam="2">  1       21 0.46424109E-01 0.17353215E+03</pdfrwt>
<totfact> 0.10593819E+05</totfact>
</mgrwt>
</event>
<event>
 4    1  0.3875622E-001  0.2007809E+03  0.7546771E-02  0.1149082E+00
         21   -1    0    0  503  502  0.00000000000E+00  0.00000000000E+00  0.76072135230E+03  0.76072135230E+03  0.00000000000E+00 0. -1.
         21   -1    0    0  501  503 -0.00000000000E+00 -0.00000000000E+00 -0.52997873144E+02  0.52997873144E+02  0.00000000000E+00 0. -1.
          6    1    1    2  501    0  0.51950565142E+02  0.87664700235E+02  0.35773447619E+03  0.41022788342E+03  0.17300000000E+03 0. -1.
         -6    1    1    2    0  502 -0.51950565142E+02 -0.87664700235E+02  0.34998900297E+03  0.40349134202E+03  0.17300000000E+03 0. -1.
<mgrwt>
<rscale>  2 0.20078088E+03</rscale>
<asrwt>0</asrwt>
<pdfrwt beam="1">  1       21 0.11703405E+00 0.20078088E+03</pdfrwt>
<pdfrwt beam="2">  1       21 0.81535195E-02 0.20078088E+03</pdfrwt>
<totfact> 0.64944965E+04</totfact>
</mgrwt>
</event>
<event>
 4    1  0.3875622E-001  0.2064905E+03  0.7546771E-02  0.1144376E+00
         21   -1    0    0  501  502  0.00000000000E+00  0.00000000000E+00  0.34621023963E+03  0.34621023963E+03  0.00000000000E+00 0.  1.
         21   -1    0    0  502  503 -0.00000000000E+00 -0.00000000000E+00 -0.15526045512E+03  0.15526045512E+03  0.00000000000E+00 0. -1.
          6    1    1    2  501    0  0.76779837525E+02  0.82548125971E+02  0.20948901193E+03  0.29414959234E+03  0.17300000000E+03 0. -1.
         -6    1    1    2    0  503 -0.76779837525E+02 -0.82548125971E+02 -0.18539227423E+02  0.20732110241E+03  0.17300000000E+03 0. -1.
<mgrwt>
<rscale>  2 0.20649052E+03</rscale>
<asrwt>0</asrwt>
<pdfrwt beam="1">  1       21 0.53263114E-01 0.20649052E+03</pdfrwt>
<pdfrwt beam="2">  1       21 0.23886224E-01 0.20649052E+03</pdfrwt>
<totfact> 0.54777734E+04</totfact>
</mgrwt>
</event>
<event>
 4    1  0.3875622E-001  0.2054877E+03  0.7546771E-02  0.1145190E+00
         21   -1    0    0  501  502  0.00000000000E+00  0.00000000000E+00  0.53265410638E+03  0.53265410638E+03  0.00000000000E+00 0.  1.
         21   -1    0    0  502  503 -0.00000000000E+00 -0.00000000000E+00 -0.79339580098E+02  0.79339580098E+02  0.00000000000E+00 0.  1.
          6    1    1    2  501    0  0.48491388629E+02 -0.99723566451E+02  0.23550711172E+03  0.31255208230E+03  0.17300000000E+03 0.  1.
         -6    1    1    2    0  503 -0.48491388629E+02  0.99723566451E+02  0.21780741456E+03  0.29944160418E+03  0.17300000000E+03 0.  1.
<mgrwt>
<rscale>  2 0.20548772E+03</rscale>
<asrwt>0</asrwt>
<pdfrwt beam="1">  1       21 0.81946783E-01 0.20548772E+03</pdfrwt>
<pdfrwt beam="2">  1       21 0.12206090E-01 0.20548772E+03</pdfrwt>
<totfact> 0.73704468E+04</totfact>
</mgrwt>
</event>
<event>
 4    1  0.3875622E-001  0.2715287E+03  0.7546771E-02  0.1100408E+00
         21   -1    0    0  503  502  0.00000000000E+00  0.00000000000E+00  0.70105566413E+03  0.70105566413E+03  0.00000000000E+00 0.  1.
         21   -1    0    0  501  503 -0.00000000000E+00 -0.00000000000E+00 -0.10860243407E+03  0.10860243407E+03  0.00000000000E+00 0.  1.
          6    1    1    2  501    0  0.60294987740E+02 -0.20040793633E+03  0.22422351056E+03  0.35214202984E+03  0.17300000000E+03 0.  1.
         -6    1    1    2    0  502 -0.60294987740E+02  0.20040793633E+03  0.36822971949E+03  0.45751606836E+03  0.17300000000E+03 0.  1.
<mgrwt>
<rscale>  2 0.27152868E+03</rscale>
<asrwt>0</asrwt>
<pdfrwt beam="1">  1       21 0.10785471E+00 0.27152868E+03</pdfrwt>
<pdfrwt beam="2">  1       21 0.16708067E-01 0.27152868E+03</pdfrwt>
<totfact> 0.21140793E+04</totfact>
</mgrwt>
</event>
<event>
 4    1  0.3875622E-001  0.1747788E+03  0.7546771E-02  0.1172954E+00
         21   -1    0    0  503  502  0.00000000000E+00  0.00000000000E+00  0.63866937921E+02  0.63866937921E+02  0.00000000000E+00 0.  1.
         21   -1    0    0  501  503 -0.00000000000E+00 -0.00000000000E+00 -0.56233652935E+03  0.56233652935E+03  0.00000000000E+00 0.  1.
          6    1    1    2  501    0  0.23668728573E+02  0.76441399600E+01 -0.12819785672E+03  0.21675408198E+03  0.17300000000E+03 0. -1.
         -6    1    1    2    0  502 -0.23668728573E+02 -0.76441399600E+01 -0.37027173471E+03  0.40944938529E+03  0.17300000000E+03 0. -1.
<mgrwt>
<rscale>  2 0.17477884E+03</rscale>
<asrwt>0</asrwt>
<pdfrwt beam="1">  1       21 0.98256832E-02 0.17477884E+03</pdfrwt>
<pdfrwt beam="2">  1       21 0.86513308E-01 0.17477884E+03</pdfrwt>
<totfact> 0.97026712E+04</totfact>
</mgrwt>
</event>
<event>
 4    1  0.3875622E-001  0.1981674E+03  0.7546771E-02  0.1151294E+00
         21   -1    0    0  501  502  0.00000000000E+00  0.00000000000E+00  0.64054230134E+03  0.64054230134E+03  0.00000000000E+00 0. -1.
         21   -1    0    0  502  503 -0.00000000000E+00 -0.00000000000E+00 -0.69801415116E+02  0.69801415116E+02  0.00000000000E+00 0. -1.
          6    1    1    2  501    0 -0.94163654509E+02 -0.21783904234E+02  0.40926408234E+03  0.45471685851E+03  0.17300000000E+03 0. -1.
         -6    1    1    2    0  503  0.94163654509E+02  0.21783904234E+02  0.16147680389E+03  0.25562685795E+03  0.17300000000E+03 0. -1.
<mgrwt>
<rscale>  2 0.19816744E+03</rscale>
<asrwt>0</asrwt>
<pdfrwt beam="1">  1       21 0.98544966E-01 0.19816744E+03</pdfrwt>
<pdfrwt beam="2">  1       21 0.10738680E-01 0.19816744E+03</pdfrwt>
<totfact> 0.60625780E+04</totfact>
</mgrwt>
</event>
<event>
 4    1  0.3875622E-001  0.1912327E+03  0.7546771E-02  0.1157354E+00
         21   -1    0    0  501  502  0.00000000000E+00  0.00000000000E+00  0.12197000726E+03  0.12197000726E+03  0.00000000000E+00 0. -1.
         21   -1    0    0  502  503 -0.00000000000E+00 -0.00000000000E+00 -0.31862904293E+03  0.31862904293E+03  0.00000000000E+00 0. -1.
          6    1    1    2  501    0 -0.80446900887E+02 -0.13008776584E+02 -0.44815139039E+02  0.19641366759E+03  0.17300000000E+03 0. -1.
         -6    1    1    2    0  503  0.80446900887E+02  0.13008776584E+02 -0.15184389663E+03  0.24418538259E+03  0.17300000000E+03 0. -1.
<mgrwt>
<rscale>  2 0.19123266E+03</rscale>
<asrwt>0</asrwt>
<pdfrwt beam="1">  1       21 0.18764617E-01 0.19123266E+03</pdfrwt>
<pdfrwt beam="2">  1       21 0.49019852E-01 0.19123266E+03</pdfrwt>
<totfact> 0.10327319E+05</totfact>
</mgrwt>
</event>
<event>
 4    1  0.3875622E-001  0.1796519E+03  0.7546771E-02  0.1168140E+00
         21   -1    0    0  501  502  0.00000000000E+00  0.00000000000E+00  0.24438322918E+03  0.24438322918E+03  0.00000000000E+00 0. -1.
         21   -1    0    0  502  503 -0.00000000000E+00 -0.00000000000E+00 -0.13414262794E+03  0.13414262794E+03  0.00000000000E+00 0.  1.
          6    1    1    2  501    0  0.21443722248E+02 -0.43427836845E+02  0.78666508640E+02  0.19612044722E+03  0.17300000000E+03 0. -1.
         -6    1    1    2    0  503 -0.21443722248E+02  0.43427836845E+02  0.31574092593E+02  0.18240540990E+03  0.17300000000E+03 0. -1.
<mgrwt>
<rscale>  2 0.17965191E+03</rscale>
<asrwt>0</asrwt>
<pdfrwt beam="1">  1       21 0.37597420E-01 0.17965191E+03</pdfrwt>
<pdfrwt beam="2">  1       21 0.20637327E-01 0.17965191E+03</pdfrwt>
<totfact> 0.14913716E+05</totfact>
</mgrwt>
</event>
<event>
 4    1  0.3875622E-001  0.1883177E+03  0.7546771E-02  0.1159987E+00
         21   -1    0    0  503  502  0.00000000000E+00  0.00000000000E+00  0.16478548051E+04  0.16478548051E+04  0.00000000000E+00 0. -1.
         21   -1    0    0  501  503 -0.00000000000E+00 -0.00000000000E+00 -0.22333688165E+02  0.22333688165E+02  0.00000000000E+00 0. -1.
          6    1    1    2  501    0 -0.66337058916E+02 -0.33674132778E+02  0.65346414742E+03  0.68005804500E+03  0.17300000000E+03 0. -1.
         -6    1    1    2    0  502  0.66337058916E+02  0.33674132778E+02  0.97205696956E+03  0.99013044831E+03  0.17300000000E+03 0. -1.
<mgrwt>
<rscale>  2 0.18831769E+03</rscale>
<asrwt>0</asrwt>
<pdfrwt beam="1">  1       21 0.25351603E+00 0.18831769E+03</pdfrwt>
<pdfrwt beam="2">  1       21 0.34359533E-02 0.18831769E+03</pdfrwt>
<totfact> 0.32144646E+04</totfact>
</mgrwt>
</event>
<event>
 4    1  0.3875622E-001  0.1841373E+03  0.7546771E-02  0.1163858E+00
         21   -1    0    0  501  502  0.00000000000E+00  0.00000000000E+00  0.13719314648E+03  0.13719314648E+03  0.00000000000E+00 0.  1.
         21   -1    0    0  502  503 -0.00000000000E+00 -0.00000000000E+00 -0.30796612736E+03  0.30796612736E+03  0.00000000000E+00 0.  1.
          6    1    1    2  501    0  0.60523669740E+02  0.17732615687E+02  0.13528525587E+02  0.18463364066E+03  0.17300000000E+03 0.  1.
         -6    1    1    2    0  503 -0.60523669740E+02 -0.17732615687E+02 -0.18430150646E+03  0.26052563318E+03  0.17300000000E+03 0.  1.
<mgrwt>
<rscale>  2 0.18413734E+03</rscale>
<asrwt>0</asrwt>
<pdfrwt beam="1">  1       21 0.21106638E-01 0.18413734E+03</pdfrwt>
<pdfrwt beam="2">  1       21 0.47379404E-01 0.18413734E+03</pdfrwt>
<totfact> 0.89222417E+04</totfact>
</mgrwt>
</event>
<event>
 4    1  0.3875622E-001  0.1941141E+03  0.7546771E-02  0.1154802E+00
         21   -1    0    0  503  502  0.00000000000E+00  0.00000000000E+00  0.43791375015E+03  0.43791375015E+03  0.00000000000E+00 0. -1.
         21   -1    0    0  501  503 -0.00000000000E+00 -0.00000000000E+00 -0.87946562825E+02  0.87946562825E+02  0.00000000000E+00 0. -1.
          6    1    1    2  501    0 -0.83998769906E+02  0.26372302982E+02  0.21364569910E+03  0.28866031326E+03  0.17300000000E+03 0. -1.
         -6    1    1    2    0  502  0.83998769906E+02 -0.26372302982E+02  0.13632148822E+03  0.23719999971E+03  0.17300000000E+03 0. -1.
<mgrwt>
<rscale>  2 0.19411412E+03</rscale>
<asrwt>0</asrwt>
<pdfrwt beam="1">  1       21 0.67371345E-01 0.19411412E+03</pdfrwt>
<pdfrwt beam="2">  1       21 0.13530241E-01 0.19411412E+03</pdfrwt>
<totfact> 0.95270762E+04</totfact>
</mgrwt>
</event>
<event>
 4    1  0.3875622E-001  0.1807909E+03  0.7546771E-02  0.1167040E+00
         21   -1    0    0  501  502  0.00000000000E+00  0.00000000000E+00  0.16865898245E+02  0.16865898245E+02  0.00000000000E+00 0. -1.
         21   -1    0    0  502  503 -0.00000000000E+00 -0.00000000000E+00 -0.25942567919E+04  0.25942567919E+04  0.00000000000E+00 0. -1.
          6    1    1    2  501    0  0.51117853328E+02  0.11971202321E+02 -0.63203215645E+03  0.65738116143E+03  0.17300000000E+03 0. -1.
         -6    1    1    2    0  503 -0.51117853328E+02 -0.11971202321E+02 -0.19453587372E+04  0.19537415287E+04  0.17300000000E+03 0. -1.
<mgrwt>
<rscale>  2 0.18079089E+03</rscale>
<asrwt>0</asrwt>
<pdfrwt beam="1">  1       21 0.25947528E-02 0.18079089E+03</pdfrwt>
<pdfrwt beam="2">  1       21 0.39911655E+00 0.18079089E+03</pdfrwt>
<totfact> 0.72097117E+03</totfact>
</mgrwt>
</event>
<event>
 4    1  0.3875622E-001  0.2343495E+03  0.7546771E-02  0.1123615E+00
         21   -1    0    0  501  502  0.00000000000E+00  0.00000000000E+00  0.15695214121E+03  0.15695214121E+03  0.00000000000E+00 0.  1.
         21   -1    0    0  502  503 -0.00000000000E+00 -0.00000000000E+00 -0.98756292430E+03  0.98756292430E+03  0.00000000000E+00 0.  1.
          6    1    1    2  501    0  0.15391783565E+03  0.36055439463E+02  0.44527537537E+02  0.23854223199E+03  0.17300000000E+03 0.  1.
         -6    1    1    2    0  503 -0.15391783565E+03 -0.36055439463E+02 -0.87513832062E+03  0.90597283351E+03  0.17300000000E+03 0.  1.
<mgrwt>
<rscale>  2 0.23434951E+03</rscale>
<asrwt>0</asrwt>
<pdfrwt beam="1">  1       21 0.24146484E-01 0.23434951E+03</pdfrwt>
<pdfrwt beam="2">  1       21 0.15193275E+00 0.23434951E+03</pdfrwt>
<totfact> 0.45232252E+03</totfact>
</mgrwt>
</event>
<event>
 4    1  0.3875622E-001  0.2546290E+03  0.7546771E-02  0.1110414E+00
         21   -1    0    0  501  502  0.00000000000E+00  0.00000000000E+00  0.14747378471E+03  0.14747378471E+03  0.00000000000E+00 0.  1.
         21   -1    0    0  502  503 -0.00000000000E+00 -0.00000000000E+00 -0.44645889230E+03  0.44645889230E+03  0.00000000000E+00 0.  1.
          6    1    1    2  501    0  0.93133054988E+02  0.16196654960E+03 -0.11280205204E+03  0.27849637711E+03  0.17300000000E+03 0.  1.
         -6    1    1    2    0  503 -0.93133054988E+02 -0.16196654960E+03 -0.18618305555E+03  0.31543629990E+03  0.17300000000E+03 0.  1.
<mgrwt>
<rscale>  2 0.25462900E+03</rscale>
<asrwt>0</asrwt>
<pdfrwt beam="1">  1       21 0.22688275E-01 0.25462900E+03</pdfrwt>
<pdfrwt beam="2">  1       21 0.68685982E-01 0.25462900E+03</pdfrwt>
<totfact> 0.34139392E+04</totfact>
</mgrwt>
</event>
<event>
 4    1  0.3875622E-001  0.2940577E+03  0.7546771E-02  0.1088249E+00
         21   -1    0    0  503  502  0.00000000000E+00  0.00000000000E+00  0.37940535985E+04  0.37940535985E+04  0.00000000000E+00 0. -1.
         21   -1    0    0  501  503 -0.00000000000E+00 -0.00000000000E+00 -0.38280282585E+02  0.38280282585E+02  0.00000000000E+00 0. -1.
          6    1    1    2  501    0 -0.19204901495E+03  0.14020727430E+03  0.65900146766E+03  0.72163206573E+03  0.17300000000E+03 0. -1.
         -6    1    1    2    0  502  0.19204901495E+03 -0.14020727430E+03  0.30967718483E+04  0.31107018154E+04  0.17300000000E+03 0. -1.
<mgrwt>
<rscale>  2 0.29405765E+03</rscale>
<asrwt>0</asrwt>
<pdfrwt beam="1">  1       21 0.58370026E+00 0.29405765E+03</pdfrwt>
<pdfrwt beam="2">  1       21 0.58892772E-02 0.29405765E+03</pdfrwt>
<totfact> 0.80497775E+01</totfact>
</mgrwt>
</event>
<event>
 4    1  0.3875622E-001  0.2291754E+03  0.7546771E-02  0.1127221E+00
         21   -1    0    0  503  502  0.00000000000E+00  0.00000000000E+00  0.16696926807E+03  0.16696926807E+03  0.00000000000E+00 0.  1.
         21   -1    0    0  501  503 -0.00000000000E+00 -0.00000000000E+00 -0.35066405593E+03  0.35066405593E+03  0.00000000000E+00 0. -1.
          6    1    1    2  501    0  0.97355625173E+02 -0.11451753947E+03 -0.17489774507E+03  0.28828910113E+03  0.17300000000E+03 0. -1.
         -6    1    1    2    0  502 -0.97355625173E+02  0.11451753947E+03 -0.87970427894E+01  0.22934422286E+03  0.17300000000E+03 0.  1.
<mgrwt>
<rscale>  2 0.22917545E+03</rscale>
<asrwt>0</asrwt>
<pdfrwt beam="1">  1       21 0.25687580E-01 0.22917545E+03</pdfrwt>
<pdfrwt beam="2">  1       21 0.53948315E-01 0.22917545E+03</pdfrwt>
<totfact> 0.45919331E+04</totfact>
</mgrwt>
</event>
<event>
 4    1  0.3875622E-001  0.1957234E+03  0.7546771E-02  0.1153398E+00
         21   -1    0    0  501  502  0.00000000000E+00  0.00000000000E+00  0.13224518803E+04  0.13224518803E+04  0.00000000000E+00 0. -1.
         21   -1    0    0  502  503 -0.00000000000E+00 -0.00000000000E+00 -0.75604722866E+02  0.75604722866E+02  0.00000000000E+00 0.  1.
          6    1    1    2  501    0  0.71991176072E+02  0.56532311795E+02  0.11724438416E+04  0.11886682436E+04  0.17300000000E+03 0. -1.
         -6    1    1    2    0  503 -0.71991176072E+02 -0.56532311795E+02  0.74403315861E+02  0.20938835956E+03  0.17300000000E+03 0.  1.
<mgrwt>
<rscale>  2 0.19572336E+03</rscale>
<asrwt>0</asrwt>
<pdfrwt beam="1">  1       21 0.20345412E+00 0.19572336E+03</pdfrwt>
<pdfrwt beam="2">  1       21 0.11631497E-01 0.19572336E+03</pdfrwt>
<totfact> 0.78967714E+03</totfact>
</mgrwt>
</event>
<event>
 4    1  0.3875622E-001  0.1774279E+03  0.7546771E-02  0.1170316E+00
         21   -1    0    0  503  502  0.00000000000E+00  0.00000000000E+00  0.31816919285E+02  0.31816919285E+02  0.00000000000E+00 0. -1.
         21   -1    0    0  501  503 -0.00000000000E+00 -0.00000000000E+00 -0.13220853760E+04  0.13220853760E+04  0.00000000000E+00 0. -1.
          6    1    1    2  501    0  0.32606535344E+02  0.22101667392E+02 -0.98469984989E+03  0.10005570769E+04  0.17300000000E+03 0. -1.
         -6    1    1    2    0  502 -0.32606535344E+02 -0.22101667392E+02 -0.30556860683E+03  0.35334521835E+03  0.17300000000E+03 0. -1.
<mgrwt>
<rscale>  2 0.17742793E+03</rscale>
<asrwt>0</asrwt>
<pdfrwt beam="1">  1       21 0.48949110E-02 0.17742793E+03</pdfrwt>
<pdfrwt beam="2">  1       21 0.20339774E+00 0.17742793E+03</pdfrwt>
<totfact> 0.36002554E+04</totfact>
</mgrwt>
</event>
<event>
 4    1  0.3875622E-001  0.2366799E+03  0.7546771E-02  0.1122025E+00
         21   -1    0    0  501  502  0.00000000000E+00  0.00000000000E+00  0.87505583357E+02  0.87505583357E+02  0.00000000000E+00 0. -1.
         21   -1    0    0  502  503 -0.00000000000E+00 -0.00000000000E+00 -0.66848398759E+03  0.66848398759E+03  0.00000000000E+00 0.  1.
          6    1    1    2  501    0  0.26340945434E+02  0.15935662753E+03 -0.21267936494E+03  0.31819788248E+03  0.17300000000E+03 0.  1.
         -6    1    1    2    0  503 -0.26340945434E+02 -0.15935662753E+03 -0.36829903930E+03  0.43779168847E+03  0.17300000000E+03 0. -1.
<mgrwt>
<rscale>  2 0.23667991E+03</rscale>
<asrwt>0</asrwt>
<pdfrwt beam="1">  1       21 0.13462397E-01 0.23667991E+03</pdfrwt>
<pdfrwt beam="2">  1       21 0.10284369E+00 0.23667991E+03</pdfrwt>
<totfact> 0.35818201E+04</totfact>
</mgrwt>
</event>
<event>
 4    1  0.3875622E-001  0.2821810E+03  0.7546771E-02  0.1094504E+00
         21   -1    0    0  503  502  0.00000000000E+00  0.00000000000E+00  0.18569015095E+04  0.18569015095E+04  0.00000000000E+00 0.  1.
         21   -1    0    0  501  503 -0.00000000000E+00 -0.00000000000E+00 -0.46698471805E+02  0.46698471805E+02  0.00000000000E+00 0.  1.
          6    1    1    2  501    0  0.18861669343E+03  0.11883122633E+03  0.63297406207E+03  0.69302401159E+03  0.17300000000E+03 0.  1.
         -6    1    1    2    0  502 -0.18861669343E+03 -0.11883122633E+03  0.11772289756E+04  0.12105759697E+04  0.17300000000E+03 0.  1.
<mgrwt>
<rscale>  2 0.28218100E+03</rscale>
<asrwt>0</asrwt>
<pdfrwt beam="1">  1       21 0.28567710E+00 0.28218100E+03</pdfrwt>
<pdfrwt beam="2">  1       21 0.71843817E-02 0.28218100E+03</pdfrwt>
<totfact> 0.54964392E+03</totfact>
</mgrwt>
</event>
<event>
 4    1  0.3875622E-001  0.1893150E+03  0.7546771E-02  0.1159081E+00
         21   -1    0    0  503  502  0.00000000000E+00  0.00000000000E+00  0.18102995861E+02  0.18102995861E+02  0.00000000000E+00 0.  1.
         21   -1    0    0  501  503 -0.00000000000E+00 -0.00000000000E+00 -0.22118199686E+04  0.22118199686E+04  0.00000000000E+00 0.  1.
          6    1    1    2  501    0 -0.26111609671E+01  0.76839687286E+02 -0.14579819424E+04  0.14702215819E+04  0.17300000000E+03 0.  1.
         -6    1    1    2    0  502  0.26111609671E+01 -0.76839687286E+02 -0.73573503040E+03  0.75970138256E+03  0.17300000000E+03 0.  1.
<mgrwt>
<rscale>  2 0.18931496E+03</rscale>
<asrwt>0</asrwt>
<pdfrwt beam="1">  1       21 0.27850778E-02 0.18931496E+03</pdfrwt>
<pdfrwt beam="2">  1       21 0.34027981E+00 0.18931496E+03</pdfrwt>
<totfact> 0.14324565E+04</totfact>
</mgrwt>
</event>
<event>
 4    1  0.3875622E-001  0.1792834E+03  0.7546771E-02  0.1168498E+00
         21   -1    0    0  501  502  0.00000000000E+00  0.00000000000E+00  0.52144365009E+03  0.52144365009E+03  0.00000000000E+00 0.  1.
         21   -1    0    0  502  503 -0.00000000000E+00 -0.00000000000E+00 -0.85312327573E+02  0.85312327573E+02  0.00000000000E+00 0.  1.
          6    1    1    2  501    0  0.45863542291E+02  0.10491367282E+02  0.37786887802E+03  0.41824325730E+03  0.17300000000E+03 0.  1.
         -6    1    1    2    0  503 -0.45863542291E+02 -0.10491367282E+02  0.58262444491E+02  0.18851272036E+03  0.17300000000E+03 0.  1.
<mgrwt>
<rscale>  2 0.17928339E+03</rscale>
<asrwt>0</asrwt>
<pdfrwt beam="1">  1       21 0.80222098E-01 0.17928339E+03</pdfrwt>
<pdfrwt beam="2">  1       21 0.13124974E-01 0.17928339E+03</pdfrwt>
<totfact> 0.68692680E+04</totfact>
</mgrwt>
</event>
<event>
 4    1  0.3875622E-001  0.2026383E+03  0.7546771E-02  0.1147532E+00
         21   -1    0    0  503  502  0.00000000000E+00  0.00000000000E+00  0.10733982956E+04  0.10733982956E+04  0.00000000000E+00 0.  1.
         21   -1    0    0  501  503 -0.00000000000E+00 -0.00000000000E+00 -0.70734486383E+02  0.70734486383E+02  0.00000000000E+00 0.  1.
          6    1    1    2  501    0  0.54184114625E+01 -0.10537507773E+03  0.11368255887E+03  0.23234885492E+03  0.17300000000E+03 0.  1.
         -6    1    1    2    0  502 -0.54184114625E+01  0.10537507773E+03  0.88898125039E+03  0.91178392711E+03  0.17300000000E+03 0.  1.
<mgrwt>
<rscale>  2 0.20263826E+03</rscale>
<asrwt>0</asrwt>
<pdfrwt beam="1">  1       21 0.16513819E+00 0.20263826E+03</pdfrwt>
<pdfrwt beam="2">  1       21 0.10882229E-01 0.20263826E+03</pdfrwt>
<totfact> 0.16022757E+04</totfact>
</mgrwt>
</event>
<event>
 4    1  0.3875622E-001  0.1992289E+03  0.7546771E-02  0.1150391E+00
         21   -1    0    0  503  502  0.00000000000E+00  0.00000000000E+00  0.32757146180E+03  0.32757146180E+03  0.00000000000E+00 0. -1.
         21   -1    0    0  501  503 -0.00000000000E+00 -0.00000000000E+00 -0.14723529997E+03  0.14723529997E+03  0.00000000000E+00 0.  1.
          6    1    1    2  501    0  0.74702715261E+02 -0.64673495076E+02 -0.97177957627E+01  0.19946576696E+03  0.17300000000E+03 0.  1.
         -6    1    1    2    0  502 -0.74702715261E+02  0.64673495076E+02  0.19005395759E+03  0.27534099482E+03  0.17300000000E+03 0. -1.
<mgrwt>
<rscale>  2 0.19922891E+03</rscale>
<asrwt>0</asrwt>
<pdfrwt beam="1">  1       21 0.50395609E-01 0.19922891E+03</pdfrwt>
<pdfrwt beam="2">  1       21 0.22651585E-01 0.19922891E+03</pdfrwt>
<totfact> 0.68272530E+04</totfact>
</mgrwt>
</event>
<event>
 4    1  0.3875622E-001  0.3264472E+03  0.7546771E-02  0.1072720E+00
         21   -1    0    0  503  502  0.00000000000E+00  0.00000000000E+00  0.33555808518E+03  0.33555808518E+03  0.00000000000E+00 0. -1.
         21   -1    0    0  501  503 -0.00000000000E+00 -0.00000000000E+00 -0.41472132424E+03  0.41472132424E+03  0.00000000000E+00 0.  1.
          6    1    1    2  501    0 -0.13056083671E+03 -0.24411608963E+03 -0.22113672277E+03  0.39429588820E+03  0.17300000000E+03 0. -1.
         -6    1    1    2    0  502  0.13056083671E+03  0.24411608963E+03  0.14197348371E+03  0.35598352121E+03  0.17300000000E+03 0. -1.
<mgrwt>
<rscale>  2 0.32644724E+03</rscale>
<asrwt>0</asrwt>
<pdfrwt beam="1">  1       21 0.51624321E-01 0.32644724E+03</pdfrwt>
<pdfrwt beam="2">  1       21 0.63803280E-01 0.32644724E+03</pdfrwt>
<totfact> 0.75010208E+03</totfact>
</mgrwt>
</event>
<event>
 4    1  0.3875622E-001  0.1921636E+03  0.7546771E-02  0.1156524E+00
         21   -1    0    0  503  502  0.00000000000E+00  0.00000000000E+00  0.12875338669E+03  0.12875338669E+03  0.00000000000E+00 0.  1.
         21   -1    0    0  501  503 -0.00000000000E+00 -0.00000000000E+00 -0.33728279752E+03  0.33728279752E+03  0.00000000000E+00 0. -1.
          6    1    1    2  501    0 -0.27264261336E+01 -0.83608665119E+02 -0.19441182592E+03  0.27335471523E+03  0.17300000000E+03 0. -1.
         -6    1    1    2    0  502  0.27264261336E+01  0.83608665119E+02 -0.14117584917E+02  0.19268146897E+03  0.17300000000E+03 0.  1.
<mgrwt>
<rscale>  2 0.19216358E+03</rscale>
<asrwt>0</asrwt>
<pdfrwt beam="1">  1       21 0.19808213E-01 0.19216358E+03</pdfrwt>
<pdfrwt beam="2">  1       21 0.51889662E-01 0.19216358E+03</pdfrwt>
<totfact> 0.82890232E+04</totfact>
</mgrwt>
</event>
<event>
 4    1  0.3875622E-001  0.1803678E+03  0.7546771E-02  0.1167448E+00
         21   -1    0    0  503  502  0.00000000000E+00  0.00000000000E+00  0.12527668775E+03  0.12527668775E+03  0.00000000000E+00 0.  1.
         21   -1    0    0  501  503 -0.00000000000E+00 -0.00000000000E+00 -0.36131002080E+03  0.36131002080E+03  0.00000000000E+00 0.  1.
          6    1    1    2  501    0 -0.39469849617E+02 -0.32336987873E+02 -0.24704625694E+03  0.30588298887E+03  0.17300000000E+03 0.  1.
         -6    1    1    2    0  502  0.39469849617E+02  0.32336987873E+02  0.11012923890E+02  0.18070371968E+03  0.17300000000E+03 0.  1.
<mgrwt>
<rscale>  2 0.18036782E+03</rscale>
<asrwt>0</asrwt>
<pdfrwt beam="1">  1       21 0.19273337E-01 0.18036782E+03</pdfrwt>
<pdfrwt beam="2">  1       21 0.55586157E-01 0.18036782E+03</pdfrwt>
<totfact> 0.75819777E+04</totfact>
</mgrwt>
</event>
<event>
 4    1  0.3875622E-001  0.1826666E+03  0.7546771E-02  0.1165247E+00
         21   -1    0    0  501  502  0.00000000000E+00  0.00000000000E+00  0.32581234421E+03  0.32581234421E+03  0.00000000000E+00 0.  1.
         21   -1    0    0  502  503 -0.00000000000E+00 -0.00000000000E+00 -0.10326931030E+03  0.10326931030E+03  0.00000000000E+00 0.  1.
          6    1    1    2  501    0  0.56231095613E+02  0.16618269811E+02  0.91724244190E+02  0.20440264181E+03  0.17300000000E+03 0.  1.
         -6    1    1    2    0  503 -0.56231095613E+02 -0.16618269811E+02  0.13081878972E+03  0.22467901270E+03  0.17300000000E+03 0.  1.
<mgrwt>
<rscale>  2 0.18266664E+03</rscale>
<asrwt>0</asrwt>
<pdfrwt beam="1">  1       21 0.50124976E-01 0.18266664E+03</pdfrwt>
<pdfrwt beam="2">  1       21 0.15887586E-01 0.18266664E+03</pdfrwt>
<totfact> 0.13434293E+05</totfact>
</mgrwt>
</event>
<event>
 4    1  0.3875622E-001  0.1751466E+03  0.7546771E-02  0.1172585E+00
         21   -1    0    0  501  502  0.00000000000E+00  0.00000000000E+00  0.27018123150E+03  0.27018123150E+03  0.00000000000E+00 0. -1.
         21   -1    0    0  502  503 -0.00000000000E+00 -0.00000000000E+00 -0.11517564747E+03  0.11517564747E+03  0.00000000000E+00 0. -1.
          6    1    1    2  501    0  0.26554940716E+02  0.64940040665E+01  0.10046519453E+03  0.20191481441E+03  0.17300000000E+03 0.  1.
         -6    1    1    2    0  503 -0.26554940716E+02 -0.64940040665E+01  0.54540389489E+02  0.18344206456E+03  0.17300000000E+03 0.  1.
<mgrwt>
<rscale>  2 0.17514662E+03</rscale>
<asrwt>0</asrwt>
<pdfrwt beam="1">  1       21 0.41566343E-01 0.17514662E+03</pdfrwt>
<pdfrwt beam="2">  1       21 0.17719330E-01 0.17514662E+03</pdfrwt>
<totfact> 0.16195452E+05</totfact>
</mgrwt>
</event>
<event>
 4    1  0.3875622E-001  0.1825927E+03  0.7546771E-02  0.1165317E+00
         21   -1    0    0  501  502  0.00000000000E+00  0.00000000000E+00  0.19723109905E+03  0.19723109905E+03  0.00000000000E+00 0.  1.
         21   -1    0    0  502  503 -0.00000000000E+00 -0.00000000000E+00 -0.23671103449E+03  0.23671103449E+03  0.00000000000E+00 0.  1.
          6    1    1    2  501    0  0.11026442448E+02  0.57354302460E+02  0.96268978974E+02  0.20641660485E+03  0.17300000000E+03 0.  1.
         -6    1    1    2    0  503 -0.11026442448E+02 -0.57354302460E+02 -0.13574891442E+03  0.22752552870E+03  0.17300000000E+03 0.  1.
<mgrwt>
<rscale>  2 0.18259271E+03</rscale>
<asrwt>0</asrwt>
<pdfrwt beam="1">  1       21 0.30343246E-01 0.18259271E+03</pdfrwt>
<pdfrwt beam="2">  1       21 0.36417082E-01 0.18259271E+03</pdfrwt>
<totfact> 0.76103567E+04</totfact>
</mgrwt>
</event>
<event>
 4    1  0.3875622E-001  0.1829719E+03  0.7546771E-02  0.1164957E+00
         21   -1    0    0  501  502  0.00000000000E+00  0.00000000000E+00  0.35148425310E+02  0.35148425310E+02  0.00000000000E+00 0. -1.
         21   -1    0    0  502  503 -0.00000000000E+00 -0.00000000000E+00 -0.12533152033E+04  0.12533152033E+04  0.00000000000E+00 0.  1.
          6    1    1    2  501    0  0.49633801088E+02 -0.32957540992E+02 -0.29346287743E+03  0.34583113531E+03  0.17300000000E+03 0. -1.
         -6    1    1    2    0  503 -0.49633801088E+02  0.32957540992E+02 -0.92470390060E+03  0.94263249334E+03  0.17300000000E+03 0.  1.
<mgrwt>
<rscale>  2 0.18297189E+03</rscale>
<asrwt>0</asrwt>
<pdfrwt beam="1">  1       21 0.54074498E-02 0.18297189E+03</pdfrwt>
<pdfrwt beam="2">  1       21 0.19281773E+00 0.18297189E+03</pdfrwt>
<totfact> 0.35428104E+04</totfact>
</mgrwt>
</event>
<event>
 4    1  0.3875622E-001  0.1893841E+03  0.7546771E-02  0.1159018E+00
         21   -1    0    0  503  502  0.00000000000E+00  0.00000000000E+00  0.59761065991E+02  0.59761065991E+02  0.00000000000E+00 0.  1.
         21   -1    0    0  501  503 -0.00000000000E+00 -0.00000000000E+00 -0.60201708291E+03  0.60201708291E+03  0.00000000000E+00 0.  1.
          6    1    1    2  501    0  0.11892588865E+02 -0.76130720691E+02 -0.25276005261E+03  0.31583851016E+03  0.17300000000E+03 0.  1.
         -6    1    1    2    0  502 -0.11892588865E+02  0.76130720691E+02 -0.28949596430E+03  0.34593963874E+03  0.17300000000E+03 0.  1.
<mgrwt>
<rscale>  2 0.18938406E+03</rscale>
<asrwt>0</asrwt>
<pdfrwt beam="1">  1       21 0.91940099E-02 0.18938406E+03</pdfrwt>
<pdfrwt beam="2">  1       21 0.92618015E-01 0.18938406E+03</pdfrwt>
<totfact> 0.92612548E+04</totfact>
</mgrwt>
</event>
<event>
 4    1  0.3875622E-001  0.2310238E+03  0.7546771E-02  0.1125921E+00
         21   -1    0    0  501  502  0.00000000000E+00  0.00000000000E+00  0.15145297179E+03  0.15145297179E+03  0.00000000000E+00 0.  1.
         21   -1    0    0  502  503 -0.00000000000E+00 -0.00000000000E+00 -0.35250400832E+03  0.35250400832E+03  0.00000000000E+00 0. -1.
          6    1    1    2  501    0 -0.14188003911E+03 -0.57559302989E+02 -0.10485495338E+03  0.25370569585E+03  0.17300000000E+03 0. -1.
         -6    1    1    2    0  503  0.14188003911E+03  0.57559302989E+02 -0.96196083153E+02  0.25025128426E+03  0.17300000000E+03 0. -1.
<mgrwt>
<rscale>  2 0.23102385E+03</rscale>
<asrwt>0</asrwt>
<pdfrwt beam="1">  1       21 0.23300458E-01 0.23102385E+03</pdfrwt>
<pdfrwt beam="2">  1       21 0.54231385E-01 0.23102385E+03</pdfrwt>
<totfact> 0.54684744E+04</totfact>
</mgrwt>
</event>
<event>
 4    1  0.3875622E-001  0.1818453E+03  0.7546771E-02  0.1166029E+00
         21   -1    0    0  501  502  0.00000000000E+00  0.00000000000E+00  0.12830269828E+04  0.12830269828E+04  0.00000000000E+00 0.  1.
         21   -1    0    0  502  503 -0.00000000000E+00 -0.00000000000E+00 -0.27116261881E+02  0.27116261881E+02  0.00000000000E+00 0.  1.
          6    1    1    2  501    0 -0.52494252374E+02 -0.19572521503E+02  0.77374258946E+03  0.79482408423E+03  0.17300000000E+03 0. -1.
         -6    1    1    2    0  503  0.52494252374E+02  0.19572521503E+02  0.48216813143E+03  0.51531916042E+03  0.17300000000E+03 0. -1.
<mgrwt>
<rscale>  2 0.18184535E+03</rscale>
<asrwt>0</asrwt>
<pdfrwt beam="1">  1       21 0.19738872E+00 0.18184535E+03</pdfrwt>
<pdfrwt beam="2">  1       21 0.41717336E-02 0.18184535E+03</pdfrwt>
<totfact> 0.51324911E+04</totfact>
</mgrwt>
</event>
<event>
 4    1  0.3875622E-001  0.1826434E+03  0.7546771E-02  0.1165269E+00
         21   -1    0    0  501  502  0.00000000000E+00  0.00000000000E+00  0.85718644116E+03  0.85718644116E+03  0.00000000000E+00 0.  1.
         21   -1    0    0  502  503 -0.00000000000E+00 -0.00000000000E+00 -0.43908487097E+02  0.43908487097E+02  0.00000000000E+00 0.  1.
          6    1    1    2  501    0  0.57050299538E+02 -0.13224109493E+02  0.25472168132E+03  0.31343539794E+03  0.17300000000E+03 0. -1.
         -6    1    1    2    0  503 -0.57050299538E+02  0.13224109493E+02  0.55855627275E+03  0.58765953032E+03  0.17300000000E+03 0. -1.
<mgrwt>
<rscale>  2 0.18264341E+03</rscale>
<asrwt>0</asrwt>
<pdfrwt beam="1">  1       21 0.13187482E+00 0.18264341E+03</pdfrwt>
<pdfrwt beam="2">  1       21 0.67551525E-02 0.18264341E+03</pdfrwt>
<totfact> 0.67390478E+04</totfact>
</mgrwt>
</event>
<event>
 4    1  0.3875622E-001  0.2369705E+03  0.7546771E-02  0.1121828E+00
         21   -1    0    0  501  502  0.00000000000E+00  0.00000000000E+00  0.18843044013E+03  0.18843044013E+03  0.00000000000E+00 0.  1.
         21   -1    0    0  502  503 -0.00000000000E+00 -0.00000000000E+00 -0.44078695687E+03  0.44078695687E+03  0.00000000000E+00 0. -1.
          6    1    1    2  501    0 -0.95866512006E+01 -0.16166053971E+03  0.52873391949E+02  0.24279750731E+03  0.17300000000E+03 0.  1.
         -6    1    1    2    0  503  0.95866512006E+01  0.16166053971E+03 -0.30522990869E+03  0.38641988968E+03  0.17300000000E+03 0. -1.
<mgrwt>
<rscale>  2 0.23697053E+03</rscale>
<asrwt>0</asrwt>
<pdfrwt beam="1">  1       21 0.28989299E-01 0.23697053E+03</pdfrwt>
<pdfrwt beam="2">  1       21 0.67813377E-01 0.23697053E+03</pdfrwt>
<totfact> 0.22082985E+04</totfact>
</mgrwt>
</event>
<event>
 4    1  0.3875622E-001  0.2821305E+03  0.7546771E-02  0.1094531E+00
         21   -1    0    0  503  502  0.00000000000E+00  0.00000000000E+00  0.11204417972E+04  0.11204417972E+04  0.00000000000E+00 0. -1.
         21   -1    0    0  501  503 -0.00000000000E+00 -0.00000000000E+00 -0.84464578132E+02  0.84464578132E+02  0.00000000000E+00 0.  1.
          6    1    1    2  501    0  0.11677825441E+03  0.18981951890E+03  0.27782027541E+03  0.39595670961E+03  0.17300000000E+03 0.  1.
         -6    1    1    2    0  502 -0.11677825441E+03 -0.18981951890E+03  0.75815694368E+03  0.80894966574E+03  0.17300000000E+03 0. -1.
<mgrwt>
<rscale>  2 0.28213048E+03</rscale>
<asrwt>0</asrwt>
<pdfrwt beam="1">  1       21 0.17237565E+00 0.28213048E+03</pdfrwt>
<pdfrwt beam="2">  1       21 0.12994551E-01 0.28213048E+03</pdfrwt>
<totfact> 0.98394038E+03</totfact>
</mgrwt>
</event>
<event>
 4    1  0.3875622E-001  0.1965509E+03  0.7546771E-02  0.1152682E+00
         21   -1    0    0  501  502  0.00000000000E+00  0.00000000000E+00  0.21915914096E+04  0.21915914096E+04  0.00000000000E+00 0. -1.
         21   -1    0    0  502  503 -0.00000000000E+00 -0.00000000000E+00 -0.17735850375E+02  0.17735850375E+02  0.00000000000E+00 0.  1.
          6    1    1    2  501    0 -0.93235583946E+02 -0.32195065486E+01  0.11732761649E+04  0.11896256548E+04  0.17300000000E+03 0. -1.
         -6    1    1    2    0  503  0.93235583946E+02  0.32195065486E+01  0.10005793944E+04  0.10197016053E+04  0.17300000000E+03 0. -1.
<mgrwt>
<rscale>  2 0.19655086E+03</rscale>
<asrwt>0</asrwt>
<pdfrwt beam="1">  1       21 0.33716769E+00 0.19655086E+03</pdfrwt>
<pdfrwt beam="2">  1       21 0.27285941E-02 0.19655086E+03</pdfrwt>
<totfact> 0.15325596E+04</totfact>
</mgrwt>
</event>
<event>
 4    1  0.3875622E-001  0.2042290E+03  0.7546771E-02  0.1146219E+00
         21   -1    0    0  503  502  0.00000000000E+00  0.00000000000E+00  0.20216612089E+03  0.20216612089E+03  0.00000000000E+00 0. -1.
         21   -1    0    0  501  503 -0.00000000000E+00 -0.00000000000E+00 -0.24520634783E+03  0.24520634783E+03  0.00000000000E+00 0. -1.
          6    1    1    2  501    0  0.63178073852E+02 -0.88255386540E+02 -0.11060653762E+03  0.23225694486E+03  0.17300000000E+03 0. -1.
         -6    1    1    2    0  502 -0.63178073852E+02  0.88255386540E+02  0.67566310688E+02  0.21511552387E+03  0.17300000000E+03 0. -1.
<mgrwt>
<rscale>  2 0.20422899E+03</rscale>
<asrwt>0</asrwt>
<pdfrwt beam="1">  1       21 0.31102480E-01 0.20422899E+03</pdfrwt>
<pdfrwt beam="2">  1       21 0.37724053E-01 0.20422899E+03</pdfrwt>
<totfact> 0.66950394E+04</totfact>
</mgrwt>
</event>
<event>
 4    1  0.3875622E-001  0.1758658E+03  0.7546771E-02  0.1171865E+00
         21   -1    0    0  503  502  0.00000000000E+00  0.00000000000E+00  0.10280607536E+04  0.10280607536E+04  0.00000000000E+00 0.  1.
         21   -1    0    0  501  503 -0.00000000000E+00 -0.00000000000E+00 -0.30085063880E+02  0.30085063880E+02  0.00000000000E+00 0.  1.
          6    1    1    2  501    0  0.31191054565E+02 -0.51850312379E+01  0.50112994431E+03  0.53109320041E+03  0.17300000000E+03 0.  1.
         -6    1    1    2    0  502 -0.31191054565E+02  0.51850312379E+01  0.49684574546E+03  0.52705261712E+03  0.17300000000E+03 0.  1.
<mgrwt>
<rscale>  2 0.17586576E+03</rscale>
<asrwt>0</asrwt>
<pdfrwt beam="1">  1       21 0.15816317E+00 0.17586576E+03</pdfrwt>
<pdfrwt beam="2">  1       21 0.46284721E-02 0.17586576E+03</pdfrwt>
<totfact> 0.80289281E+04</totfact>
</mgrwt>
</event>
<event>
 4    1  0.3875622E-001  0.1750592E+03  0.7546771E-02  0.1172672E+00
         21   -1    0    0  503  502  0.00000000000E+00  0.00000000000E+00  0.54753013712E+03  0.54753013712E+03  0.00000000000E+00 0.  1.
         21   -1    0    0  501  503 -0.00000000000E+00 -0.00000000000E+00 -0.63218217927E+02  0.63218217927E+02  0.00000000000E+00 0.  1.
          6    1    1    2  501    0  0.26309918990E+02 -0.49492102031E+01  0.34555165795E+03  0.38736501498E+03  0.17300000000E+03 0. -1.
         -6    1    1    2    0  502 -0.26309918990E+02  0.49492102031E+01  0.13876026124E+03  0.22338334007E+03  0.17300000000E+03 0. -1.
<mgrwt>
<rscale>  2 0.17505915E+03</rscale>
<asrwt>0</asrwt>
<pdfrwt beam="1">  1       21 0.84235402E-01 0.17505915E+03</pdfrwt>
<pdfrwt beam="2">  1       21 0.97258801E-02 0.17505915E+03</pdfrwt>
<totfact> 0.10497893E+05</totfact>
</mgrwt>
</event>
<event>
 4    1  0.3875622E-001  0.2118876E+03  0.7546771E-02  0.1140080E+00
         21   -1    0    0  503  502  0.00000000000E+00  0.00000000000E+00  0.35588510835E+03  0.35588510835E+03  0.00000000000E+00 0.  1.
         21   -1    0    0  501  503 -0.00000000000E+00 -0.00000000000E+00 -0.13445215034E+03  0.13445215034E+03  0.00000000000E+00 0.  1.
          6    1    1    2  501    0 -0.57701096646E+02  0.10787936936E+03  0.49809316317E+02  0.21766337055E+03  0.17300000000E+03 0.  1.
         -6    1    1    2    0  502  0.57701096646E+02 -0.10787936936E+03  0.17162364169E+03  0.27267388814E+03  0.17300000000E+03 0.  1.
<mgrwt>
<rscale>  2 0.21188765E+03</rscale>
<asrwt>0</asrwt>
<pdfrwt beam="1">  1       21 0.54751555E-01 0.21188765E+03</pdfrwt>
<pdfrwt beam="2">  1       21 0.20684946E-01 0.21188765E+03</pdfrwt>
<totfact> 0.67669423E+04</totfact>
</mgrwt>
</event>
<event>
 4    1  0.3875622E-001  0.1818142E+03  0.7546771E-02  0.1166059E+00
         21   -1    0    0  501  502  0.00000000000E+00  0.00000000000E+00  0.30630945876E+03  0.30630945876E+03  0.00000000000E+00 0. -1.
         21   -1    0    0  502  503 -0.00000000000E+00 -0.00000000000E+00 -0.12185408819E+03  0.12185408819E+03  0.00000000000E+00 0. -1.
          6    1    1    2  501    0  0.55277915887E+02 -0.84702196774E+01  0.16462552142E+03  0.24527118646E+03  0.17300000000E+03 0. -1.
         -6    1    1    2    0  503 -0.55277915887E+02  0.84702196774E+01  0.19829849158E+02  0.18289236049E+03  0.17300000000E+03 0. -1.
<mgrwt>
<rscale>  2 0.18181417E+03</rscale>
<asrwt>0</asrwt>
<pdfrwt beam="1">  1       21 0.47124532E-01 0.18181417E+03</pdfrwt>
<pdfrwt beam="2">  1       21 0.18746783E-01 0.18181417E+03</pdfrwt>
<totfact> 0.11264390E+05</totfact>
</mgrwt>
</event>
<event>
 4    1  0.3875622E-001  0.2035845E+03  0.7546771E-02  0.1146750E+00
         21   -1    0    0  501  502  0.00000000000E+00  0.00000000000E+00  0.42641273767E+03  0.42641273767E+03  0.00000000000E+00 0.  1.
         21   -1    0    0  502  503 -0.00000000000E+00 -0.00000000000E+00 -0.11816049468E+03  0.11816049468E+03  0.00000000000E+00 0.  1.
          6    1    1    2  501    0 -0.10730379741E+03  0.18817238632E+01  0.26881128582E+03  0.33720343000E+03  0.17300000000E+03 0.  1.
         -6    1    1    2    0  503  0.10730379741E+03 -0.18817238632E+01  0.39440957178E+02  0.20736980235E+03  0.17300000000E+03 0.  1.
<mgrwt>
<rscale>  2 0.20358449E+03</rscale>
<asrwt>0</asrwt>
<pdfrwt beam="1">  1       21 0.65601959E-01 0.20358449E+03</pdfrwt>
<pdfrwt beam="2">  1       21 0.18178538E-01 0.20358449E+03</pdfrwt>
<totfact> 0.58584968E+04</totfact>
</mgrwt>
</event>
<event>
 4    1  0.3875622E-001  0.1918458E+03  0.7546771E-02  0.1156807E+00
         21   -1    0    0  501  502  0.00000000000E+00  0.00000000000E+00  0.71140177474E+03  0.71140177474E+03  0.00000000000E+00 0.  1.
         21   -1    0    0  502  503 -0.00000000000E+00 -0.00000000000E+00 -0.51735634296E+02  0.51735634296E+02  0.00000000000E+00 0. -1.
          6    1    1    2  501    0 -0.68810407364E+02  0.46270300838E+02  0.33002336353E+03  0.38173319658E+03  0.17300000000E+03 0.  1.
         -6    1    1    2    0  503  0.68810407364E+02 -0.46270300838E+02  0.32964277692E+03  0.38140421245E+03  0.17300000000E+03 0. -1.
<mgrwt>
<rscale>  2 0.19184581E+03</rscale>
<asrwt>0</asrwt>
<pdfrwt beam="1">  1       21 0.10944642E+00 0.19184581E+03</pdfrwt>
<pdfrwt beam="2">  1       21 0.79593289E-02 0.19184581E+03</pdfrwt>
<totfact> 0.80075473E+04</totfact>
</mgrwt>
</event>
<event>
 4    1  0.3875622E-001  0.4010529E+03  0.7546771E-02  0.1043416E+00
         21   -1    0    0  501  502  0.00000000000E+00  0.00000000000E+00  0.33269558767E+03  0.33269558767E+03  0.00000000000E+00 0.  1.
         21   -1    0    0  502  503 -0.00000000000E+00 -0.00000000000E+00 -0.53562186306E+03  0.53562186306E+03  0.00000000000E+00 0.  1.
          6    1    1    2  501    0  0.63535417702E+02  0.35619895289E+03  0.34029444808E+02  0.40249403282E+03  0.17300000000E+03 0.  1.
         -6    1    1    2    0  503 -0.63535417702E+02 -0.35619895289E+03 -0.23695572021E+03  0.46582341791E+03  0.17300000000E+03 0.  1.
<mgrwt>
<rscale>  2 0.40105292E+03</rscale>
<asrwt>0</asrwt>
<pdfrwt beam="1">  1       21 0.51183937E-01 0.40105292E+03</pdfrwt>
<pdfrwt beam="2">  1       21 0.82403363E-01 0.40105292E+03</pdfrwt>
<totfact> 0.41609511E+03</totfact>
</mgrwt>
</event>
<event>
 4    1  0.3875622E-001  0.1860520E+03  0.7546771E-02  0.1162071E+00
         21   -1    0    0  501  502  0.00000000000E+00  0.00000000000E+00  0.28292858607E+03  0.28292858607E+03  0.00000000000E+00 0. -1.
         21   -1    0    0  502  503 -0.00000000000E+00 -0.00000000000E+00 -0.24074098935E+03  0.24074098935E+03  0.00000000000E+00 0.  1.
          6    1    1    2  501    0  0.67768812095E+02 -0.96817141047E+01  0.20471292074E+03  0.27662741621E+03  0.17300000000E+03 0. -1.
         -6    1    1    2    0  503 -0.67768812095E+02  0.96817141047E+01 -0.16252532402E+03  0.24704215921E+03  0.17300000000E+03 0.  1.
<mgrwt>
<rscale>  2 0.18605200E+03</rscale>
<asrwt>0</asrwt>
<pdfrwt beam="1">  1       21 0.43527475E-01 0.18605200E+03</pdfrwt>
<pdfrwt beam="2">  1       21 0.37037075E-01 0.18605200E+03</pdfrwt>
<totfact> 0.35787406E+04</totfact>
</mgrwt>
</event>
<event>
 4    1  0.3875622E-001  0.1812309E+03  0.7546771E-02  0.1166617E+00
         21   -1    0    0  501  502  0.00000000000E+00  0.00000000000E+00  0.69931600302E+02  0.69931600302E+02  0.00000000000E+00 0. -1.
         21   -1    0    0  502  503 -0.00000000000E+00 -0.00000000000E+00 -0.47056162076E+03  0.47056162076E+03  0.00000000000E+00 0. -1.
          6    1    1    2  501    0  0.20302342504E+02 -0.50034571006E+02 -0.21209104000E+03  0.27897536209E+03  0.17300000000E+03 0. -1.
         -6    1    1    2    0  503 -0.20302342504E+02  0.50034571006E+02 -0.18853898046E+03  0.26151785897E+03  0.17300000000E+03 0. -1.
<mgrwt>
<rscale>  2 0.18123091E+03</rscale>
<asrwt>0</asrwt>
<pdfrwt beam="1">  1       21 0.10758707E-01 0.18123091E+03</pdfrwt>
<pdfrwt beam="2">  1       21 0.72394097E-01 0.18123091E+03</pdfrwt>
<totfact> 0.12313066E+05</totfact>
</mgrwt>
</event>
<event>
 4    1  0.3875622E-001  0.1780828E+03  0.7546771E-02  0.1169671E+00
         21   -1    0    0  501  502  0.00000000000E+00  0.00000000000E+00  0.58326715684E+03  0.58326715684E+03  0.00000000000E+00 0.  1.
         21   -1    0    0  502  503 -0.00000000000E+00 -0.00000000000E+00 -0.66625941908E+02  0.66625941908E+02  0.00000000000E+00 0.  1.
          6    1    1    2  501    0 -0.22104157356E+02 -0.35998701238E+02  0.39767644549E+03  0.43572933750E+03  0.17300000000E+03 0.  1.
         -6    1    1    2    0  503  0.22104157356E+02  0.35998701238E+02  0.11896476945E+03  0.21416376125E+03  0.17300000000E+03 0.  1.
<mgrwt>
<rscale>  2 0.17808285E+03</rscale>
<asrwt>0</asrwt>
<pdfrwt beam="1">  1       21 0.89733405E-01 0.17808285E+03</pdfrwt>
<pdfrwt beam="2">  1       21 0.10250145E-01 0.17808285E+03</pdfrwt>
<totfact> 0.82681383E+04</totfact>
</mgrwt>
</event>
<event>
 4    1  0.3875622E-001  0.1737134E+03  0.7546771E-02  0.1174030E+00
         21   -1    0    0  503  502  0.00000000000E+00  0.00000000000E+00  0.23162528343E+02  0.23162528343E+02  0.00000000000E+00 0.  1.
         21   -1    0    0  501  503 -0.00000000000E+00 -0.00000000000E+00 -0.14893120290E+04  0.14893120290E+04  0.00000000000E+00 0.  1.
          6    1    1    2  501    0  0.15078197726E+02  0.44724056185E+01 -0.10006882230E+04  0.10156541115E+04  0.17300000000E+03 0. -1.
         -6    1    1    2    0  502 -0.15078197726E+02 -0.44724056185E+01 -0.46546127769E+03  0.49682044593E+03  0.17300000000E+03 0. -1.
<mgrwt>
<rscale>  2 0.17371343E+03</rscale>
<asrwt>0</asrwt>
<pdfrwt beam="1">  1       21 0.35634658E-02 0.17371343E+03</pdfrwt>
<pdfrwt beam="2">  1       21 0.22912493E+00 0.17371343E+03</pdfrwt>
<totfact> 0.42691946E+04</totfact>
</mgrwt>
</event>
<event>
 4    1  0.3875622E-001  0.1826183E+03  0.7546771E-02  0.1165293E+00
         21   -1    0    0  501  502  0.00000000000E+00  0.00000000000E+00  0.58285784725E+03  0.58285784725E+03  0.00000000000E+00 0.  1.
         21   -1    0    0  502  503 -0.00000000000E+00 -0.00000000000E+00 -0.67081058680E+02  0.67081058680E+02  0.00000000000E+00 0.  1.
          6    1    1    2  501    0  0.57896445237E+02 -0.82741088382E+01  0.38250253275E+03  0.42386040958E+03  0.17300000000E+03 0.  1.
         -6    1    1    2    0  503 -0.57896445237E+02  0.82741088382E+01  0.13327425582E+03  0.22607849635E+03  0.17300000000E+03 0.  1.
<mgrwt>
<rscale>  2 0.18261834E+03</rscale>
<asrwt>0</asrwt>
<pdfrwt beam="1">  1       21 0.89670435E-01 0.18261834E+03</pdfrwt>
<pdfrwt beam="2">  1       21 0.10320163E-01 0.18261834E+03</pdfrwt>
<totfact> 0.81664036E+04</totfact>
</mgrwt>
</event>
<event>
 4    1  0.3875622E-001  0.2221550E+03  0.7546771E-02  0.1132287E+00
         21   -1    0    0  501  502  0.00000000000E+00  0.00000000000E+00  0.28481212517E+03  0.28481212517E+03  0.00000000000E+00 0.  1.
         21   -1    0    0  502  503 -0.00000000000E+00 -0.00000000000E+00 -0.18216758170E+03  0.18216758170E+03  0.00000000000E+00 0.  1.
          6    1    1    2  501    0  0.82163840731E+02 -0.11257411408E+03  0.10288955652E+03  0.24482460809E+03  0.17300000000E+03 0.  1.
         -6    1    1    2    0  503 -0.82163840731E+02  0.11257411408E+03 -0.24501305076E+00  0.22215509879E+03  0.17300000000E+03 0.  1.
<mgrwt>
<rscale>  2 0.22215496E+03</rscale>
<asrwt>0</asrwt>
<pdfrwt beam="1">  1       21 0.43817250E-01 0.22215496E+03</pdfrwt>
<pdfrwt beam="2">  1       21 0.28025782E-01 0.22215496E+03</pdfrwt>
<totfact> 0.60062020E+04</totfact>
</mgrwt>
</event>
<event>
 4    1  0.3875622E-001  0.1835375E+03  0.7546771E-02  0.1164423E+00
         21   -1    0    0  503  502  0.00000000000E+00  0.00000000000E+00  0.61315081540E+03  0.61315081540E+03  0.00000000000E+00 0.  1.
         21   -1    0    0  501  503 -0.00000000000E+00 -0.00000000000E+00 -0.77541279966E+02  0.77541279966E+02  0.00000000000E+00 0.  1.
          6    1    1    2  501    0 -0.47448776842E+02  0.38802444475E+02  0.81354849314E+02  0.20076012460E+03  0.17300000000E+03 0.  1.
         -6    1    1    2    0  502  0.47448776842E+02 -0.38802444475E+02  0.45425468612E+03  0.48993197077E+03  0.17300000000E+03 0.  1.
<mgrwt>
<rscale>  2 0.18353751E+03</rscale>
<asrwt>0</asrwt>
<pdfrwt beam="1">  1       21 0.94330892E-01 0.18353751E+03</pdfrwt>
<pdfrwt beam="2">  1       21 0.11929428E-01 0.18353751E+03</pdfrwt>
<totfact> 0.56095845E+04</totfact>
</mgrwt>
</event>
<event>
 4    1  0.3875622E-001  0.1856778E+03  0.7546771E-02  0.1162418E+00
         21   -1    0    0  503  502  0.00000000000E+00  0.00000000000E+00  0.53909273147E+02  0.53909273147E+02  0.00000000000E+00 0.  1.
         21   -1    0    0  501  503 -0.00000000000E+00 -0.00000000000E+00 -0.63970199468E+03  0.63970199468E+03  0.00000000000E+00 0.  1.
          6    1    1    2  501    0 -0.65740054912E+02  0.15016169236E+02 -0.29869151906E+03  0.35169996264E+03  0.17300000000E+03 0.  1.
         -6    1    1    2    0  502  0.65740054912E+02 -0.15016169236E+02 -0.28710120248E+03  0.34191130520E+03  0.17300000000E+03 0.  1.
<mgrwt>
<rscale>  2 0.18567779E+03</rscale>
<asrwt>0</asrwt>
<pdfrwt beam="1">  1       21 0.82937344E-02 0.18567779E+03</pdfrwt>
<pdfrwt beam="2">  1       21 0.98415691E-01 0.18567779E+03</pdfrwt>
<totfact> 0.96353645E+04</totfact>
</mgrwt>
</event>
<event>
 4    1  0.3875622E-001  0.2838872E+03  0.7546771E-02  0.1093585E+00
         21   -1    0    0  503  502  0.00000000000E+00  0.00000000000E+00  0.43849385582E+02  0.43849385582E+02  0.00000000000E+00 0.  1.
         21   -1    0    0  501  503 -0.00000000000E+00 -0.00000000000E+00 -0.18590423234E+04  0.18590423234E+04  0.00000000000E+00 0. -1.
          6    1    1    2  501    0 -0.83008191265E+02  0.20921894860E+03 -0.10089988197E+04  0.10481748645E+04  0.17300000000E+03 0. -1.
         -6    1    1    2    0  502  0.83008191265E+02 -0.20921894860E+03 -0.80619411812E+03  0.85471684455E+03  0.17300000000E+03 0.  1.
<mgrwt>
<rscale>  2 0.28388718E+03</rscale>
<asrwt>0</asrwt>
<pdfrwt beam="1">  1       21 0.67460603E-02 0.28388718E+03</pdfrwt>
<pdfrwt beam="2">  1       21 0.28600647E+00 0.28388718E+03</pdfrwt>
<totfact> 0.60983166E+03</totfact>
</mgrwt>
</event>
<event>
 4    1  0.3875622E-001  0.1777084E+03  0.7546771E-02  0.1170039E+00
         21   -1    0    0  501  502  0.00000000000E+00  0.00000000000E+00  0.20096201638E+04  0.20096201638E+04  0.00000000000E+00 0.  1.
         21   -1    0    0  502  503 -0.00000000000E+00 -0.00000000000E+00 -0.17799415545E+02  0.17799415545E+02  0.00000000000E+00 0. -1.
          6    1    1    2  501    0 -0.83388815420E+01 -0.39771046278E+02  0.13428468606E+04  0.13545545260E+04  0.17300000000E+03 0.  1.
         -6    1    1    2    0  503  0.83388815420E+01  0.39771046278E+02  0.64897388771E+03  0.67286505334E+03  0.17300000000E+03 0. -1.
<mgrwt>
<rscale>  2 0.17770839E+03</rscale>
<asrwt>0</asrwt>
<pdfrwt beam="1">  1       21 0.30917215E+00 0.17770839E+03</pdfrwt>
<pdfrwt beam="2">  1       21 0.27383732E-02 0.17770839E+03</pdfrwt>
<totfact> 0.22585719E+04</totfact>
</mgrwt>
</event>
<event>
 4    1  0.3875622E-001  0.2115329E+03  0.7546771E-02  0.1140358E+00
         21   -1    0    0  503  502  0.00000000000E+00  0.00000000000E+00  0.19361394035E+04  0.19361394035E+04  0.00000000000E+00 0.  1.
         21   -1    0    0  501  503 -0.00000000000E+00 -0.00000000000E+00 -0.27361698351E+02  0.27361698351E+02  0.00000000000E+00 0.  1.
          6    1    1    2  501    0 -0.23270713602E+02  0.11948075102E+03  0.56743583714E+03  0.60558203841E+03  0.17300000000E+03 0.  1.
         -6    1    1    2    0  502  0.23270713602E+02 -0.11948075102E+03  0.13413418680E+04  0.13579190634E+04  0.17300000000E+03 0.  1.
<mgrwt>
<rscale>  2 0.21153292E+03</rscale>
<asrwt>0</asrwt>
<pdfrwt beam="1">  1       21 0.29786749E+00 0.21153292E+03</pdfrwt>
<pdfrwt beam="2">  1       21 0.42094936E-02 0.21153292E+03</pdfrwt>
<totfact> 0.12391325E+04</totfact>
</mgrwt>
</event>
<event>
 4    1  0.3875622E-001  0.2116125E+03  0.7546771E-02  0.1140295E+00
         21   -1    0    0  501  502  0.00000000000E+00  0.00000000000E+00  0.94587204370E+03  0.94587204370E+03  0.00000000000E+00 0. -1.
         21   -1    0    0  502  503 -0.00000000000E+00 -0.00000000000E+00 -0.64471439383E+02  0.64471439383E+02  0.00000000000E+00 0.  1.
          6    1    1    2  501    0 -0.23574445282E+02 -0.11956205009E+03  0.70108895934E+03  0.73232886547E+03  0.17300000000E+03 0. -1.
         -6    1    1    2    0  503  0.23574445282E+02  0.11956205009E+03  0.18031164498E+03  0.27801461762E+03  0.17300000000E+03 0.  1.
<mgrwt>
<rscale>  2 0.21161247E+03</rscale>
<asrwt>0</asrwt>
<pdfrwt beam="1">  1       21 0.14551877E+00 0.21161247E+03</pdfrwt>
<pdfrwt beam="2">  1       21 0.99186837E-02 0.21161247E+03</pdfrwt>
<totfact> 0.26328309E+04</totfact>
</mgrwt>
</event>
<event>
 4    1  0.3875622E-001  0.1983330E+03  0.7546771E-02  0.1151153E+00
         21   -1    0    0  503  502  0.00000000000E+00  0.00000000000E+00  0.72765026081E+02  0.72765026081E+02  0.00000000000E+00 0. -1.
         21   -1    0    0  501  503 -0.00000000000E+00 -0.00000000000E+00 -0.57029943806E+03  0.57029943806E+03  0.00000000000E+00 0. -1.
          6    1    1    2  501    0  0.29356620836E+02 -0.92440086504E+02 -0.17537891775E+03  0.26475223431E+03  0.17300000000E+03 0.  1.
         -6    1    1    2    0  502 -0.29356620836E+02  0.92440086504E+02 -0.32215549423E+03  0.37831222983E+03  0.17300000000E+03 0.  1.
<mgrwt>
<rscale>  2 0.19833300E+03</rscale>
<asrwt>0</asrwt>
<pdfrwt beam="1">  1       21 0.11194619E-01 0.19833300E+03</pdfrwt>
<pdfrwt beam="2">  1       21 0.87738376E-01 0.19833300E+03</pdfrwt>
<totfact> 0.73818759E+04</totfact>
</mgrwt>
</event>
<event>
 4    1  0.3875622E-001  0.2261500E+03  0.7546771E-02  0.1129379E+00
         21   -1    0    0  501  502  0.00000000000E+00  0.00000000000E+00  0.85604531767E+03  0.85604531767E+03  0.00000000000E+00 0. -1.
         21   -1    0    0  502  503 -0.00000000000E+00 -0.00000000000E+00 -0.84788697542E+02  0.84788697542E+02  0.00000000000E+00 0. -1.
          6    1    1    2  501    0 -0.13919038417E+03 -0.42905363904E+02  0.12996448836E+03  0.26083443318E+03  0.17300000000E+03 0. -1.
         -6    1    1    2    0  503  0.13919038417E+03  0.42905363904E+02  0.64129213177E+03  0.67999958203E+03  0.17300000000E+03 0. -1.
<mgrwt>
<rscale>  2 0.22615002E+03</rscale>
<asrwt>0</asrwt>
<pdfrwt beam="1">  1       21 0.13169927E+00 0.22615002E+03</pdfrwt>
<pdfrwt beam="2">  1       21 0.13044416E-01 0.22615002E+03</pdfrwt>
<totfact> 0.20698633E+04</totfact>
</mgrwt>
</event>
<event>
 4    1  0.3875622E-001  0.3916879E+03  0.7546771E-02  0.1046696E+00
         21   -1    0    0  501  502  0.00000000000E+00  0.00000000000E+00  0.20839597845E+03  0.20839597845E+03  0.00000000000E+00 0. -1.
         21   -1    0    0  502  503 -0.00000000000E+00 -0.00000000000E+00 -0.80657074824E+03  0.80657074824E+03  0.00000000000E+00 0.  1.
          6    1    1    2  501    0 -0.31215205413E+03  0.16140479064E+03 -0.14918037233E+03  0.41913505559E+03  0.17300000000E+03 0. -1.
         -6    1    1    2    0  503  0.31215205413E+03 -0.16140479064E+03 -0.44899439746E+03  0.59583167110E+03  0.17300000000E+03 0.  1.
<mgrwt>
<rscale>  2 0.39168790E+03</rscale>
<asrwt>0</asrwt>
<pdfrwt beam="1">  1       21 0.32060920E-01 0.39168790E+03</pdfrwt>
<pdfrwt beam="2">  1       21 0.12408781E+00 0.39168790E+03</pdfrwt>
<totfact> 0.40505442E+03</totfact>
</mgrwt>
</event>
<event>
 4    1  0.3875622E-001  0.2071993E+03  0.7546771E-02  0.1143803E+00
         21   -1    0    0  501  502  0.00000000000E+00  0.00000000000E+00  0.20940068648E+03  0.20940068648E+03  0.00000000000E+00 0.  1.
         21   -1    0    0  502  503 -0.00000000000E+00 -0.00000000000E+00 -0.29826180935E+03  0.29826180935E+03  0.00000000000E+00 0.  1.
          6    1    1    2  501    0 -0.10703905247E+03  0.39309043751E+02  0.97491215041E+02  0.22898929382E+03  0.17300000000E+03 0.  1.
         -6    1    1    2    0  503  0.10703905247E+03 -0.39309043751E+02 -0.18635233791E+03  0.27867320201E+03  0.17300000000E+03 0.  1.
<mgrwt>
<rscale>  2 0.20719932E+03</rscale>
<asrwt>0</asrwt>
<pdfrwt beam="1">  1       21 0.32215490E-01 0.20719932E+03</pdfrwt>
<pdfrwt beam="2">  1       21 0.45886432E-01 0.20719932E+03</pdfrwt>
<totfact> 0.41886639E+04</totfact>
</mgrwt>
</event>
<event>
 4    1  0.3875622E-001  0.2471203E+03  0.7546771E-02  0.1115138E+00
         21   -1    0    0  501  502  0.00000000000E+00  0.00000000000E+00  0.37032402145E+03  0.37032402145E+03  0.00000000000E+00 0. -1.
         21   -1    0    0  502  503 -0.00000000000E+00 -0.00000000000E+00 -0.16723869608E+03  0.16723869608E+03  0.00000000000E+00 0.  1.
          6    1    1    2  501    0  0.29332985325E+02  0.17400871951E+03  0.69795220101E+02  0.25678752158E+03  0.17300000000E+03 0.  1.
         -6    1    1    2    0  503 -0.29332985325E+02 -0.17400871951E+03  0.13329010527E+03  0.28077519594E+03  0.17300000000E+03 0.  1.
<mgrwt>
<rscale>  2 0.24712033E+03</rscale>
<asrwt>0</asrwt>
<pdfrwt beam="1">  1       21 0.56972926E-01 0.24712033E+03</pdfrwt>
<pdfrwt beam="2">  1       21 0.25729030E-01 0.24712033E+03</pdfrwt>
<totfact> 0.40443879E+04</totfact>
</mgrwt>
</event>
<event>
 4    1  0.3875622E-001  0.2528613E+03  0.7546771E-02  0.1111510E+00
         21   -1    0    0  503  502  0.00000000000E+00  0.00000000000E+00  0.29054637159E+03  0.29054637159E+03  0.00000000000E+00 0.  1.
         21   -1    0    0  501  503 -0.00000000000E+00 -0.00000000000E+00 -0.53104818722E+03  0.53104818722E+03  0.00000000000E+00 0.  1.
          6    1    1    2  501    0  0.16207368046E+03  0.87988498380E+02 -0.43461259409E+03  0.50281901385E+03  0.17300000000E+03 0.  1.
         -6    1    1    2    0  502 -0.16207368046E+03 -0.87988498380E+02  0.19411077847E+03  0.31877554496E+03  0.17300000000E+03 0.  1.
<mgrwt>
<rscale>  2 0.25286133E+03</rscale>
<asrwt>0</asrwt>
<pdfrwt beam="1">  1       21 0.44699442E-01 0.25286133E+03</pdfrwt>
<pdfrwt beam="2">  1       21 0.81699721E-01 0.25286133E+03</pdfrwt>
<totfact> 0.60478674E+03</totfact>
</mgrwt>
</event>
<event>
 4    1  0.3875622E-001  0.2147344E+03  0.7546771E-02  0.1137871E+00
         21   -1    0    0  501  502  0.00000000000E+00  0.00000000000E+00  0.26530515542E+03  0.26530515542E+03  0.00000000000E+00 0. -1.
         21   -1    0    0  502  503 -0.00000000000E+00 -0.00000000000E+00 -0.20982563264E+03  0.20982563264E+03  0.00000000000E+00 0.  1.
          6    1    1    2  501    0 -0.11328401182E+03 -0.57866971210E+02  0.12617285555E+03  0.24905911581E+03  0.17300000000E+03 0. -1.
         -6    1    1    2    0  503  0.11328401182E+03  0.57866971210E+02 -0.70693332774E+02  0.22607167224E+03  0.17300000000E+03 0.  1.
<mgrwt>
<rscale>  2 0.21473438E+03</rscale>
<asrwt>0</asrwt>
<pdfrwt beam="1">  1       21 0.40816178E-01 0.21473438E+03</pdfrwt>
<pdfrwt beam="2">  1       21 0.32280867E-01 0.21473438E+03</pdfrwt>
<totfact> 0.52831373E+04</totfact>
</mgrwt>
</event>
<event>
 4    1  0.3875622E-001  0.2047749E+03  0.7546771E-02  0.1145772E+00
         21   -1    0    0  503  502  0.00000000000E+00  0.00000000000E+00  0.91085236802E+02  0.91085236802E+02  0.00000000000E+00 0.  1.
         21   -1    0    0  501  503 -0.00000000000E+00 -0.00000000000E+00 -0.52314776744E+03  0.52314776744E+03  0.00000000000E+00 0.  1.
          6    1    1    2  501    0 -0.10887199725E+03  0.12273695514E+02 -0.10964151561E+03  0.23228004075E+03  0.17300000000E+03 0.  1.
         -6    1    1    2    0  502  0.10887199725E+03 -0.12273695514E+02 -0.32242101503E+03  0.38195296350E+03  0.17300000000E+03 0.  1.
<mgrwt>
<rscale>  2 0.20477489E+03</rscale>
<asrwt>0</asrwt>
<pdfrwt beam="1">  1       21 0.14013113E-01 0.20477489E+03</pdfrwt>
<pdfrwt beam="2">  1       21 0.80484273E-01 0.20477489E+03</pdfrwt>
<totfact> 0.59874842E+04</totfact>
</mgrwt>
</event>
<event>
 4    1  0.3875622E-001  0.3071067E+03  0.7546771E-02  0.1081741E+00
         21   -1    0    0  503  502  0.00000000000E+00  0.00000000000E+00  0.90867586384E+02  0.90867586384E+02  0.00000000000E+00 0. -1.
         21   -1    0    0  501  503 -0.00000000000E+00 -0.00000000000E+00 -0.10674291764E+04  0.10674291764E+04  0.00000000000E+00 0.  1.
          6    1    1    2  501    0 -0.24234263338E+03  0.75203505426E+02 -0.58455255429E+03  0.66031523374E+03  0.17300000000E+03 0. -1.
         -6    1    1    2    0  502  0.24234263338E+03 -0.75203505426E+02 -0.39200903574E+03  0.49798152906E+03  0.17300000000E+03 0. -1.
<mgrwt>
<rscale>  2 0.30710669E+03</rscale>
<asrwt>0</asrwt>
<pdfrwt beam="1">  1       21 0.13979628E-01 0.30710669E+03</pdfrwt>
<pdfrwt beam="2">  1       21 0.16421988E+00 0.30710669E+03</pdfrwt>
<totfact> 0.97321546E+03</totfact>
</mgrwt>
</event>
<event>
 4    1  0.3875622E-001  0.1918062E+03  0.7546771E-02  0.1156842E+00
         21   -1    0    0  503  502  0.00000000000E+00  0.00000000000E+00  0.27764246238E+03  0.27764246238E+03  0.00000000000E+00 0.  1.
         21   -1    0    0  501  503 -0.00000000000E+00 -0.00000000000E+00 -0.14330187944E+03  0.14330187944E+03  0.00000000000E+00 0.  1.
          6    1    1    2  501    0  0.33799805409E+02  0.75618730337E+02  0.94040578705E+01  0.19203659945E+03  0.17300000000E+03 0.  1.
         -6    1    1    2    0  502 -0.33799805409E+02 -0.75618730337E+02  0.12493652507E+03  0.22890774238E+03  0.17300000000E+03 0.  1.
<mgrwt>
<rscale>  2 0.19180620E+03</rscale>
<asrwt>0</asrwt>
<pdfrwt beam="1">  1       21 0.42714225E-01 0.19180620E+03</pdfrwt>
<pdfrwt beam="2">  1       21 0.22046443E-01 0.19180620E+03</pdfrwt>
<totfact> 0.10140062E+05</totfact>
</mgrwt>
</event>
<event>
 4    1  0.3875622E-001  0.1831193E+03  0.7546771E-02  0.1164818E+00
         21   -1    0    0  501  502  0.00000000000E+00  0.00000000000E+00  0.83244556657E+02  0.83244556657E+02  0.00000000000E+00 0.  1.
         21   -1    0    0  502  503 -0.00000000000E+00 -0.00000000000E+00 -0.40384641261E+03  0.40384641261E+03  0.00000000000E+00 0.  1.
          6    1    1    2  501    0 -0.25399134702E+02 -0.54392716188E+02 -0.17257107872E+03  0.25162166208E+03  0.17300000000E+03 0.  1.
         -6    1    1    2    0  503  0.25399134702E+02  0.54392716188E+02 -0.14803077723E+03  0.23546930718E+03  0.17300000000E+03 0.  1.
<mgrwt>
<rscale>  2 0.18311932E+03</rscale>
<asrwt>0</asrwt>
<pdfrwt beam="1">  1       21 0.12806855E-01 0.18311932E+03</pdfrwt>
<pdfrwt beam="2">  1       21 0.62130217E-01 0.18311932E+03</pdfrwt>
<totfact> 0.12593762E+05</totfact>
</mgrwt>
</event>
<event>
 4    1  0.3875622E-001  0.2003882E+03  0.7546771E-02  0.1149412E+00
         21   -1    0    0  501  502  0.00000000000E+00  0.00000000000E+00  0.15521981673E+03  0.15521981673E+03  0.00000000000E+00 0.  1.
         21   -1    0    0  502  503 -0.00000000000E+00 -0.00000000000E+00 -0.27056295270E+03  0.27056295270E+03  0.00000000000E+00 0.  1.
          6    1    1    2  501    0 -0.70376141969E+02  0.72619877847E+02 -0.13094580203E+02  0.20081562700E+03  0.17300000000E+03 0.  1.
         -6    1    1    2    0  503  0.70376141969E+02 -0.72619877847E+02 -0.10224855576E+03  0.22496714243E+03  0.17300000000E+03 0.  1.
<mgrwt>
<rscale>  2 0.20038824E+03</rscale>
<asrwt>0</asrwt>
<pdfrwt beam="1">  1       21 0.23879972E-01 0.20038824E+03</pdfrwt>
<pdfrwt beam="2">  1       21 0.41625070E-01 0.20038824E+03</pdfrwt>
<totfact> 0.91548769E+04</totfact>
</mgrwt>
</event>
<event>
 4    1  0.3875622E-001  0.1781738E+03  0.7546771E-02  0.1169582E+00
         21   -1    0    0  503  502  0.00000000000E+00  0.00000000000E+00  0.18222828701E+04  0.18222828701E+04  0.00000000000E+00 0.  1.
         21   -1    0    0  501  503 -0.00000000000E+00 -0.00000000000E+00 -0.18932955823E+02  0.18932955823E+02  0.00000000000E+00 0. -1.
          6    1    1    2  501    0 -0.13118231148E+02  0.40556504216E+02  0.64151484751E+03  0.66579818083E+03  0.17300000000E+03 0. -1.
         -6    1    1    2    0  502  0.13118231148E+02 -0.40556504216E+02  0.11618350668E+04  0.11754176451E+04  0.17300000000E+03 0.  1.
<mgrwt>
<rscale>  2 0.17817384E+03</rscale>
<asrwt>0</asrwt>
<pdfrwt beam="1">  1       21 0.28035107E+00 0.17817384E+03</pdfrwt>
<pdfrwt beam="2">  1       21 0.29127639E-02 0.17817384E+03</pdfrwt>
<totfact> 0.29829092E+04</totfact>
</mgrwt>
</event>
<event>
 4    1  0.3875622E-001  0.1818918E+03  0.7546771E-02  0.1165985E+00
         21   -1    0    0  503  502  0.00000000000E+00  0.00000000000E+00  0.29318892498E+03  0.29318892498E+03  0.00000000000E+00 0. -1.
         21   -1    0    0  501  503 -0.00000000000E+00 -0.00000000000E+00 -0.11357260146E+03  0.11357260146E+03  0.00000000000E+00 0. -1.
          6    1    1    2  501    0  0.40898730567E+01  0.56025805320E+02  0.73518535631E+02  0.19618764743E+03  0.17300000000E+03 0.  1.
         -6    1    1    2    0  502 -0.40898730567E+01 -0.56025805320E+02  0.10609778790E+03  0.21057387901E+03  0.17300000000E+03 0.  1.
<mgrwt>
<rscale>  2 0.18189178E+03</rscale>
<asrwt>0</asrwt>
<pdfrwt beam="1">  1       21 0.45105988E-01 0.18189178E+03</pdfrwt>
<pdfrwt beam="2">  1       21 0.17472708E-01 0.18189178E+03</pdfrwt>
<totfact> 0.14037167E+05</totfact>
</mgrwt>
</event>
<event>
 4    1  0.3875622E-001  0.1890231E+03  0.7546771E-02  0.1159345E+00
         21   -1    0    0  501  502  0.00000000000E+00  0.00000000000E+00  0.13014763695E+03  0.13014763695E+03  0.00000000000E+00 0.  1.
         21   -1    0    0  502  503 -0.00000000000E+00 -0.00000000000E+00 -0.35452939198E+03  0.35452939198E+03  0.00000000000E+00 0. -1.
          6    1    1    2  501    0 -0.49808776568E+02  0.57617833750E+02  0.29245264357E+01  0.18904571364E+03  0.17300000000E+03 0.  1.
         -6    1    1    2    0  503  0.49808776568E+02 -0.57617833750E+02 -0.22730628147E+03  0.29563131530E+03  0.17300000000E+03 0. -1.
<mgrwt>
<rscale>  2 0.18902309E+03</rscale>
<asrwt>0</asrwt>
<pdfrwt beam="1">  1       21 0.20022714E-01 0.18902309E+03</pdfrwt>
<pdfrwt beam="2">  1       21 0.54542982E-01 0.18902309E+03</pdfrwt>
<totfact> 0.73239185E+04</totfact>
</mgrwt>
</event>
<event>
 4    1  0.3875622E-001  0.2384655E+03  0.7546771E-02  0.1120819E+00
         21   -1    0    0  501  502  0.00000000000E+00  0.00000000000E+00  0.17496776876E+03  0.17496776876E+03  0.00000000000E+00 0. -1.
         21   -1    0    0  502  503 -0.00000000000E+00 -0.00000000000E+00 -0.50459462533E+03  0.50459462533E+03  0.00000000000E+00 0. -1.
          6    1    1    2  501    0 -0.16935828996E+02  0.16324826268E+03  0.37892180778E+02  0.24145731494E+03  0.17300000000E+03 0. -1.
         -6    1    1    2    0  503  0.16935828996E+02 -0.16324826268E+03 -0.36751903734E+03  0.43810507916E+03  0.17300000000E+03 0. -1.
<mgrwt>
<rscale>  2 0.23846555E+03</rscale>
<asrwt>0</asrwt>
<pdfrwt beam="1">  1       21 0.26918119E-01 0.23846555E+03</pdfrwt>
<pdfrwt beam="2">  1       21 0.77629940E-01 0.23846555E+03</pdfrwt>
<totfact> 0.18847080E+04</totfact>
</mgrwt>
</event>
<event>
 4    1  0.3875622E-001  0.1786440E+03  0.7546771E-02  0.1169122E+00
         21   -1    0    0  503  502  0.00000000000E+00  0.00000000000E+00  0.14500774411E+03  0.14500774411E+03  0.00000000000E+00 0.  1.
         21   -1    0    0  501  503 -0.00000000000E+00 -0.00000000000E+00 -0.22083607521E+03  0.22083607521E+03  0.00000000000E+00 0.  1.
          6    1    1    2  501    0  0.33512203558E+02  0.29352967254E+02 -0.27228570222E+02  0.18070710974E+03  0.17300000000E+03 0. -1.
         -6    1    1    2    0  502 -0.33512203558E+02 -0.29352967254E+02 -0.48599760880E+02  0.18513670957E+03  0.17300000000E+03 0. -1.
<mgrwt>
<rscale>  2 0.17864396E+03</rscale>
<asrwt>0</asrwt>
<pdfrwt beam="1">  1       21 0.22308884E-01 0.17864396E+03</pdfrwt>
<pdfrwt beam="2">  1       21 0.33974781E-01 0.17864396E+03</pdfrwt>
<totfact> 0.15763238E+05</totfact>
</mgrwt>
</event>
<event>
 4    1  0.3875622E-001  0.1750234E+03  0.7546771E-02  0.1172708E+00
         21   -1    0    0  501  502  0.00000000000E+00  0.00000000000E+00  0.19071759689E+04  0.19071759689E+04  0.00000000000E+00 0. -1.
         21   -1    0    0  502  503 -0.00000000000E+00 -0.00000000000E+00 -0.18807253363E+02  0.18807253363E+02  0.00000000000E+00 0. -1.
          6    1    1    2  501    0  0.74859291313E+01 -0.25458847738E+02  0.57627098623E+03  0.60226359813E+03  0.17300000000E+03 0. -1.
         -6    1    1    2    0  503 -0.74859291313E+01  0.25458847738E+02  0.13120977293E+04  0.13237196242E+04  0.17300000000E+03 0. -1.
<mgrwt>
<rscale>  2 0.17502340E+03</rscale>
<asrwt>0</asrwt>
<pdfrwt beam="1">  1       21 0.29341153E+00 0.17502340E+03</pdfrwt>
<pdfrwt beam="2">  1       21 0.28934251E-02 0.17502340E+03</pdfrwt>
<totfact> 0.25464460E+04</totfact>
</mgrwt>
</event>
<event>
 4    1  0.3875622E-001  0.1832908E+03  0.7546771E-02  0.1164656E+00
         21   -1    0    0  503  502  0.00000000000E+00  0.00000000000E+00  0.82506751588E+02  0.82506751588E+02  0.00000000000E+00 0. -1.
         21   -1    0    0  501  503 -0.00000000000E+00 -0.00000000000E+00 -0.49548068005E+03  0.49548068005E+03  0.00000000000E+00 0. -1.
          6    1    1    2  501    0 -0.31510731069E+02  0.51706735859E+02 -0.32848272312E+03  0.37616008838E+03  0.17300000000E+03 0. -1.
         -6    1    1    2    0  502  0.31510731069E+02 -0.51706735859E+02 -0.84491205347E+02  0.20182734326E+03  0.17300000000E+03 0. -1.
<mgrwt>
<rscale>  2 0.18329079E+03</rscale>
<asrwt>0</asrwt>
<pdfrwt beam="1">  1       21 0.12693346E-01 0.18329079E+03</pdfrwt>
<pdfrwt beam="2">  1       21 0.76227799E-01 0.18329079E+03</pdfrwt>
<totfact> 0.81671356E+04</totfact>
</mgrwt>
</event>
<event>
 4    1  0.3875622E-001  0.1977036E+03  0.7546771E-02  0.1151691E+00
         21   -1    0    0  501  502  0.00000000000E+00  0.00000000000E+00  0.22206138405E+03  0.22206138405E+03  0.00000000000E+00 0. -1.
         21   -1    0    0  502  503 -0.00000000000E+00 -0.00000000000E+00 -0.19416599307E+03  0.19416599307E+03  0.00000000000E+00 0. -1.
          6    1    1    2  501    0  0.85323240631E+02  0.43331804028E+02  0.77573568840E+02  0.21237786894E+03  0.17300000000E+03 0.  1.
         -6    1    1    2    0  503 -0.85323240631E+02 -0.43331804028E+02 -0.49678177862E+02  0.20384950819E+03  0.17300000000E+03 0.  1.
<mgrwt>
<rscale>  2 0.19770357E+03</rscale>
<asrwt>0</asrwt>
<pdfrwt beam="1">  1       21 0.34163290E-01 0.19770357E+03</pdfrwt>
<pdfrwt beam="2">  1       21 0.29871691E-01 0.19770357E+03</pdfrwt>
<totfact> 0.88529806E+04</totfact>
</mgrwt>
</event>
<event>
 4    1  0.3875622E-001  0.1750981E+03  0.7546771E-02  0.1172633E+00
         21   -1    0    0  503  502  0.00000000000E+00  0.00000000000E+00  0.35855342597E+03  0.35855342597E+03  0.00000000000E+00 0. -1.
         21   -1    0    0  501  503 -0.00000000000E+00 -0.00000000000E+00 -0.92040006792E+02  0.92040006792E+02  0.00000000000E+00 0. -1.
          6    1    1    2  501    0 -0.33225264086E+01  0.26820137449E+02  0.19327364987E+03  0.26079505879E+03  0.17300000000E+03 0. -1.
         -6    1    1    2    0  502  0.33225264086E+01 -0.26820137449E+02  0.73239769309E+02  0.18979837397E+03  0.17300000000E+03 0. -1.
<mgrwt>
<rscale>  2 0.17509814E+03</rscale>
<asrwt>0</asrwt>
<pdfrwt beam="1">  1       21 0.55162065E-01 0.17509814E+03</pdfrwt>
<pdfrwt beam="2">  1       21 0.14160001E-01 0.17509814E+03</pdfrwt>
<totfact> 0.13583944E+05</totfact>
</mgrwt>
</event>
<event>
 4    1  0.3875622E-001  0.3912495E+03  0.7546771E-02  0.1046853E+00
         21   -1    0    0  501  502  0.00000000000E+00  0.00000000000E+00  0.37933833763E+03  0.37933833763E+03  0.00000000000E+00 0. -1.
         21   -1    0    0  502  503 -0.00000000000E+00 -0.00000000000E+00 -0.41372972385E+03  0.41372972385E+03  0.00000000000E+00 0.  1.
          6    1    1    2  501    0 -0.13696115820E+03  0.32309252346E+03  0.45051351395E+02  0.39383468846E+03  0.17300000000E+03 0.  1.
         -6    1    1    2    0  503  0.13696115820E+03 -0.32309252346E+03 -0.79442737624E+02  0.39923337302E+03  0.17300000000E+03 0. -1.
<mgrwt>
<rscale>  2 0.39124946E+03</rscale>
<asrwt>0</asrwt>
<pdfrwt beam="1">  1       21 0.58359744E-01 0.39124946E+03</pdfrwt>
<pdfrwt beam="2">  1       21 0.63650727E-01 0.39124946E+03</pdfrwt>
<totfact> 0.56458730E+03</totfact>
</mgrwt>
</event>
<event>
 4    1  0.3875622E-001  0.1782513E+03  0.7546771E-02  0.1169506E+00
         21   -1    0    0  503  502  0.00000000000E+00  0.00000000000E+00  0.17779894345E+03  0.17779894345E+03  0.00000000000E+00 0. -1.
         21   -1    0    0  501  503 -0.00000000000E+00 -0.00000000000E+00 -0.33482386415E+03  0.33482386415E+03  0.00000000000E+00 0. -1.
          6    1    1    2  501    0  0.20716205121E+02 -0.37621318784E+02 -0.25353246682E+03  0.30992295254E+03  0.17300000000E+03 0. -1.
         -6    1    1    2    0  502 -0.20716205121E+02  0.37621318784E+02  0.96507546120E+02  0.20269985506E+03  0.17300000000E+03 0. -1.
<mgrwt>
<rscale>  2 0.17825130E+03</rscale>
<asrwt>0</asrwt>
<pdfrwt beam="1">  1       21 0.27353684E-01 0.17825130E+03</pdfrwt>
<pdfrwt beam="2">  1       21 0.51511363E-01 0.17825130E+03</pdfrwt>
<totfact> 0.45955640E+04</totfact>
</mgrwt>
</event>
<event>
 4    1  0.3875622E-001  0.1999658E+03  0.7546771E-02  0.1149768E+00
         21   -1    0    0  503  502  0.00000000000E+00  0.00000000000E+00  0.68988214103E+03  0.68988214103E+03  0.00000000000E+00 0. -1.
         21   -1    0    0  501  503 -0.00000000000E+00 -0.00000000000E+00 -0.10246413764E+03  0.10246413764E+03  0.00000000000E+00 0. -1.
          6    1    1    2  501    0 -0.96423476709E+02 -0.27565427163E+02  0.32616844751E+02  0.20260848501E+03  0.17300000000E+03 0. -1.
         -6    1    1    2    0  502  0.96423476709E+02  0.27565427163E+02  0.55480115864E+03  0.58973779365E+03  0.17300000000E+03 0. -1.
<mgrwt>
<rscale>  2 0.19996585E+03</rscale>
<asrwt>0</asrwt>
<pdfrwt beam="1">  1       21 0.10613571E+00 0.19996585E+03</pdfrwt>
<pdfrwt beam="2">  1       21 0.15763714E-01 0.19996585E+03</pdfrwt>
<totfact> 0.25398248E+04</totfact>
</mgrwt>
</event>
<event>
 4    1  0.3875622E-001  0.1730309E+03  0.7546771E-02  0.1174723E+00
         21   -1    0    0  501  502  0.00000000000E+00  0.00000000000E+00  0.86180548989E+03  0.86180548989E+03  0.00000000000E+00 0.  1.
         21   -1    0    0  502  503 -0.00000000000E+00 -0.00000000000E+00 -0.47459204040E+02  0.47459204040E+02  0.00000000000E+00 0.  1.
          6    1    1    2  501    0 -0.80811662130E+00  0.31674554450E+01  0.64252569880E+03  0.66541638050E+03  0.17300000000E+03 0.  1.
         -6    1    1    2    0  503  0.80811662130E+00 -0.31674554450E+01  0.17182058706E+03  0.24384831343E+03  0.17300000000E+03 0.  1.
<mgrwt>
<rscale>  2 0.17303088E+03</rscale>
<asrwt>0</asrwt>
<pdfrwt beam="1">  1       21 0.13258545E+00 0.17303088E+03</pdfrwt>
<pdfrwt beam="2">  1       21 0.73014166E-02 0.17303088E+03</pdfrwt>
<totfact> 0.58432837E+04</totfact>
</mgrwt>
</event>
<event>
 4    1  0.3875622E-001  0.1901255E+03  0.7546771E-02  0.1158348E+00
         21   -1    0    0  503  502  0.00000000000E+00  0.00000000000E+00  0.47078838823E+03  0.47078838823E+03  0.00000000000E+00 0. -1.
         21   -1    0    0  501  503 -0.00000000000E+00 -0.00000000000E+00 -0.85374737833E+02  0.85374737833E+02  0.00000000000E+00 0.  1.
          6    1    1    2  501    0  0.77915681685E+02 -0.12160063110E+02  0.10448170553E+03  0.21694272833E+03  0.17300000000E+03 0.  1.
         -6    1    1    2    0  502 -0.77915681685E+02  0.12160063110E+02  0.28093194487E+03  0.33922039773E+03  0.17300000000E+03 0. -1.
<mgrwt>
<rscale>  2 0.19012554E+03</rscale>
<asrwt>0</asrwt>
<pdfrwt beam="1">  1       21 0.72428982E-01 0.19012554E+03</pdfrwt>
<pdfrwt beam="2">  1       21 0.13134575E-01 0.19012554E+03</pdfrwt>
<totfact> 0.85826337E+04</totfact>
</mgrwt>
</event>
<event>
 4    1  0.3875622E-001  0.2951208E+03  0.7546771E-02  0.1087705E+00
         21   -1    0    0  501  502  0.00000000000E+00  0.00000000000E+00  0.21596059762E+03  0.21596059762E+03  0.00000000000E+00 0.  1.
         21   -1    0    0  502  503 -0.00000000000E+00 -0.00000000000E+00 -0.59115378498E+03  0.59115378498E+03  0.00000000000E+00 0.  1.
          6    1    1    2  501    0 -0.23451701182E+03  0.46572876084E+02  0.39896540269E+02  0.29780529805E+03  0.17300000000E+03 0.  1.
         -6    1    1    2    0  503  0.23451701182E+03 -0.46572876084E+02 -0.41508972763E+03  0.50930908455E+03  0.17300000000E+03 0.  1.
<mgrwt>
<rscale>  2 0.29512076E+03</rscale>
<asrwt>0</asrwt>
<pdfrwt beam="1">  1       21 0.33224707E-01 0.29512076E+03</pdfrwt>
<pdfrwt beam="2">  1       21 0.90946738E-01 0.29512076E+03</pdfrwt>
<totfact> 0.84169510E+03</totfact>
</mgrwt>
</event>
<event>
 4    1  0.3875622E-001  0.1812300E+03  0.7546771E-02  0.1166618E+00
         21   -1    0    0  501  502  0.00000000000E+00  0.00000000000E+00  0.81081354408E+02  0.81081354408E+02  0.00000000000E+00 0. -1.
         21   -1    0    0  502  503 -0.00000000000E+00 -0.00000000000E+00 -0.42229853937E+03  0.42229853937E+03  0.00000000000E+00 0. -1.
          6    1    1    2  501    0 -0.52725975476E+02  0.11631173525E+02 -0.11978407507E+03  0.21723843428E+03  0.17300000000E+03 0. -1.
         -6    1    1    2    0  503  0.52725975476E+02 -0.11631173525E+02 -0.22143310989E+03  0.28614145950E+03  0.17300000000E+03 0. -1.
<mgrwt>
<rscale>  2 0.18123000E+03</rscale>
<asrwt>0</asrwt>
<pdfrwt beam="1">  1       21 0.12474054E-01 0.18123000E+03</pdfrwt>
<pdfrwt beam="2">  1       21 0.64969007E-01 0.18123000E+03</pdfrwt>
<totfact> 0.11993785E+05</totfact>
</mgrwt>
</event>
<event>
 4    1  0.3875622E-001  0.1983605E+03  0.7546771E-02  0.1151130E+00
         21   -1    0    0  501  502  0.00000000000E+00  0.00000000000E+00  0.32037237955E+03  0.32037237955E+03  0.00000000000E+00 0.  1.
         21   -1    0    0  502  503 -0.00000000000E+00 -0.00000000000E+00 -0.15999754204E+03  0.15999754204E+03  0.00000000000E+00 0.  1.
          6    1    1    2  501    0  0.81097081158E+02  0.53302563047E+02  0.19597234463E+03  0.27884056315E+03  0.17300000000E+03 0.  1.
         -6    1    1    2    0  503 -0.81097081158E+02 -0.53302563047E+02 -0.35597507121E+02  0.20152935844E+03  0.17300000000E+03 0.  1.
<mgrwt>
<rscale>  2 0.19836053E+03</rscale>
<asrwt>0</asrwt>
<pdfrwt beam="1">  1       21 0.49288058E-01 0.19836053E+03</pdfrwt>
<pdfrwt beam="2">  1       21 0.24615006E-01 0.19836053E+03</pdfrwt>
<totfact> 0.61090773E+04</totfact>
</mgrwt>
</event>
<event>
 4    1  0.3875622E-001  0.1767341E+03  0.7546771E-02  0.1171002E+00
         21   -1    0    0  501  502  0.00000000000E+00  0.00000000000E+00  0.14520964899E+04  0.14520964899E+04  0.00000000000E+00 0.  1.
         21   -1    0    0  502  503 -0.00000000000E+00 -0.00000000000E+00 -0.24952393979E+02  0.24952393979E+02  0.00000000000E+00 0.  1.
          6    1    1    2  501    0  0.35945617251E+02  0.37226818015E+01  0.98787080155E+03  0.10035555123E+04  0.17300000000E+03 0. -1.
         -6    1    1    2    0  503 -0.35945617251E+02 -0.37226818015E+01  0.43927329435E+03  0.47349337154E+03  0.17300000000E+03 0. -1.
<mgrwt>
<rscale>  2 0.17673411E+03</rscale>
<asrwt>0</asrwt>
<pdfrwt beam="1">  1       21 0.22339939E+00 0.17673411E+03</pdfrwt>
<pdfrwt beam="2">  1       21 0.38388310E-02 0.17673411E+03</pdfrwt>
<totfact> 0.40736515E+04</totfact>
</mgrwt>
</event>
<event>
 4    1  0.3875622E-001  0.1802110E+03  0.7546771E-02  0.1167599E+00
         21   -1    0    0  503  502  0.00000000000E+00  0.00000000000E+00  0.35108338531E+03  0.35108338531E+03  0.00000000000E+00 0.  1.
         21   -1    0    0  501  503 -0.00000000000E+00 -0.00000000000E+00 -0.92664746802E+02  0.92664746802E+02  0.00000000000E+00 0.  1.
          6    1    1    2  501    0  0.46726170797E+02 -0.19070537033E+02  0.13849910431E+03  0.22728401245E+03  0.17300000000E+03 0. -1.
         -6    1    1    2    0  502 -0.46726170797E+02  0.19070537033E+02  0.11991953421E+03  0.21646411967E+03  0.17300000000E+03 0. -1.
<mgrwt>
<rscale>  2 0.18021104E+03</rscale>
<asrwt>0</asrwt>
<pdfrwt beam="1">  1       21 0.54012828E-01 0.18021104E+03</pdfrwt>
<pdfrwt beam="2">  1       21 0.14256115E-01 0.18021104E+03</pdfrwt>
<totfact> 0.14002824E+05</totfact>
</mgrwt>
</event>
<event>
 4    1  0.3875622E-001  0.1972587E+03  0.7546771E-02  0.1152073E+00
         21   -1    0    0  503  502  0.00000000000E+00  0.00000000000E+00  0.11554997153E+04  0.11554997153E+04  0.00000000000E+00 0.  1.
         21   -1    0    0  501  503 -0.00000000000E+00 -0.00000000000E+00 -0.54299626511E+02  0.54299626511E+02  0.00000000000E+00 0. -1.
          6    1    1    2  501    0 -0.90310292466E+02 -0.28741238526E+02  0.17779478565E+03  0.26555977392E+03  0.17300000000E+03 0. -1.
         -6    1    1    2    0  502  0.90310292466E+02  0.28741238526E+02  0.92340530313E+03  0.94423956788E+03  0.17300000000E+03 0.  1.
<mgrwt>
<rscale>  2 0.19725873E+03</rscale>
<asrwt>0</asrwt>
<pdfrwt beam="1">  1       21 0.17776917E+00 0.19725873E+03</pdfrwt>
<pdfrwt beam="2">  1       21 0.83537895E-02 0.19725873E+03</pdfrwt>
<totfact> 0.20903460E+04</totfact>
</mgrwt>
</event>
<event>
 4    1  0.3875622E-001  0.1980939E+03  0.7546771E-02  0.1151357E+00
         21   -1    0    0  503  502  0.00000000000E+00  0.00000000000E+00  0.40492890732E+03  0.40492890732E+03  0.00000000000E+00 0. -1.
         21   -1    0    0  501  503 -0.00000000000E+00 -0.00000000000E+00 -0.10547486439E+03  0.10547486439E+03  0.00000000000E+00 0. -1.
          6    1    1    2  501    0 -0.67798800599E+01 -0.96261290796E+02  0.22245445830E+03  0.29787109443E+03  0.17300000000E+03 0. -1.
         -6    1    1    2    0  502  0.67798800599E+01  0.96261290796E+02  0.76999584619E+02  0.21253267728E+03  0.17300000000E+03 0. -1.
<mgrwt>
<rscale>  2 0.19809392E+03</rscale>
<asrwt>0</asrwt>
<pdfrwt beam="1">  1       21 0.62296754E-01 0.19809392E+03</pdfrwt>
<pdfrwt beam="2">  1       21 0.16226902E-01 0.19809392E+03</pdfrwt>
<totfact> 0.81015291E+04</totfact>
</mgrwt>
</event>
<event>
 4    1  0.3875622E-001  0.2283765E+03  0.7546771E-02  0.1127788E+00
         21   -1    0    0  501  502  0.00000000000E+00  0.00000000000E+00  0.83722702660E+03  0.83722702660E+03  0.00000000000E+00 0. -1.
         21   -1    0    0  502  503 -0.00000000000E+00 -0.00000000000E+00 -0.85952315784E+02  0.85952315784E+02  0.00000000000E+00 0.  1.
          6    1    1    2  501    0  0.11629051956E+03 -0.93291793094E+02  0.61779679754E+03  0.65865675936E+03  0.17300000000E+03 0. -1.
         -6    1    1    2    0  503 -0.11629051956E+03  0.93291793094E+02  0.13347791328E+03  0.26452258303E+03  0.17300000000E+03 0.  1.
<mgrwt>
<rscale>  2 0.22837654E+03</rscale>
<asrwt>0</asrwt>
<pdfrwt beam="1">  1       21 0.12880415E+00 0.22837654E+03</pdfrwt>
<pdfrwt beam="2">  1       21 0.13223434E-01 0.22837654E+03</pdfrwt>
<totfact> 0.21339566E+04</totfact>
</mgrwt>
</event>
<event>
 4    1  0.3875622E-001  0.2145805E+03  0.7546771E-02  0.1137989E+00
         21   -1    0    0  503  502  0.00000000000E+00  0.00000000000E+00  0.13163127975E+03  0.13163127975E+03  0.00000000000E+00 0. -1.
         21   -1    0    0  501  503 -0.00000000000E+00 -0.00000000000E+00 -0.36916929551E+03  0.36916929551E+03  0.00000000000E+00 0. -1.
          6    1    1    2  501    0 -0.12058952619E+03 -0.39673351355E+02 -0.17612291705E+03  0.27760419763E+03  0.17300000000E+03 0. -1.
         -6    1    1    2    0  502  0.12058952619E+03  0.39673351355E+02 -0.61415098710E+02  0.22319637762E+03  0.17300000000E+03 0. -1.
<mgrwt>
<rscale>  2 0.21458054E+03</rscale>
<asrwt>0</asrwt>
<pdfrwt beam="1">  1       21 0.20250966E-01 0.21458054E+03</pdfrwt>
<pdfrwt beam="2">  1       21 0.56795276E-01 0.21458054E+03</pdfrwt>
<totfact> 0.65063167E+04</totfact>
</mgrwt>
</event>
<event>
 4    1  0.3875622E-001  0.2268327E+03  0.7546771E-02  0.1128889E+00
         21   -1    0    0  501  502  0.00000000000E+00  0.00000000000E+00  0.61651292288E+03  0.61651292288E+03  0.00000000000E+00 0. -1.
         21   -1    0    0  502  503 -0.00000000000E+00 -0.00000000000E+00 -0.10468289085E+03  0.10468289085E+03  0.00000000000E+00 0. -1.
          6    1    1    2  501    0  0.48437435649E+02  0.13848419192E+03  0.41828512103E+03  0.47583137671E+03  0.17300000000E+03 0. -1.
         -6    1    1    2    0  503 -0.48437435649E+02 -0.13848419192E+03  0.93544911002E+02  0.24536443703E+03  0.17300000000E+03 0. -1.
<mgrwt>
<rscale>  2 0.22683266E+03</rscale>
<asrwt>0</asrwt>
<pdfrwt beam="1">  1       21 0.94848139E-01 0.22683266E+03</pdfrwt>
<pdfrwt beam="2">  1       21 0.16105061E-01 0.22683266E+03</pdfrwt>
<totfact> 0.31449659E+04</totfact>
</mgrwt>
</event>
<event>
 4    1  0.3875622E-001  0.1973736E+03  0.7546771E-02  0.1151974E+00
         21   -1    0    0  501  502  0.00000000000E+00  0.00000000000E+00  0.32297893126E+03  0.32297893126E+03  0.00000000000E+00 0. -1.
         21   -1    0    0  502  503 -0.00000000000E+00 -0.00000000000E+00 -0.14645907559E+03  0.14645907559E+03  0.00000000000E+00 0. -1.
          6    1    1    2  501    0 -0.49201491886E+02  0.81280780222E+02  0.18685703013E+03  0.27179385892E+03  0.17300000000E+03 0. -1.
         -6    1    1    2    0  503  0.49201491886E+02 -0.81280780222E+02 -0.10337174465E+02  0.19764414794E+03  0.17300000000E+03 0. -1.
<mgrwt>
<rscale>  2 0.19737364E+03</rscale>
<asrwt>0</asrwt>
<pdfrwt beam="1">  1       21 0.49689066E-01 0.19737364E+03</pdfrwt>
<pdfrwt beam="2">  1       21 0.22532166E-01 0.19737364E+03</pdfrwt>
<totfact> 0.71080708E+04</totfact>
</mgrwt>
</event>
<event>
 4    1  0.3875622E-001  0.1869472E+03  0.7546771E-02  0.1161244E+00
         21   -1    0    0  501  502  0.00000000000E+00  0.00000000000E+00  0.36204648526E+03  0.36204648526E+03  0.00000000000E+00 0. -1.
         21   -1    0    0  502  503 -0.00000000000E+00 -0.00000000000E+00 -0.99554692293E+02  0.99554692293E+02  0.00000000000E+00 0. -1.
          6    1    1    2  501    0  0.58251490229E+02 -0.40336534968E+02  0.17145858934E+03  0.25366773549E+03  0.17300000000E+03 0. -1.
         -6    1    1    2    0  503 -0.58251490229E+02  0.40336534968E+02  0.91033203621E+02  0.20793344206E+03  0.17300000000E+03 0. -1.
<mgrwt>
<rscale>  2 0.18694724E+03</rscale>
<asrwt>0</asrwt>
<pdfrwt beam="1">  1       21 0.55699458E-01 0.18694724E+03</pdfrwt>
<pdfrwt beam="2">  1       21 0.15316107E-01 0.18694724E+03</pdfrwt>
<totfact> 0.11492352E+05</totfact>
</mgrwt>
</event>
<event>
 4    1  0.3875622E-001  0.2312795E+03  0.7546771E-02  0.1125742E+00
         21   -1    0    0  503  502  0.00000000000E+00  0.00000000000E+00  0.19386279662E+03  0.19386279662E+03  0.00000000000E+00 0. -1.
         21   -1    0    0  501  503 -0.00000000000E+00 -0.00000000000E+00 -0.31231551847E+03  0.31231551847E+03  0.00000000000E+00 0.  1.
          6    1    1    2  501    0 -0.14857895291E+03 -0.38541985979E+02  0.27173697524E+02  0.23287034969E+03  0.17300000000E+03 0. -1.
         -6    1    1    2    0  502  0.14857895291E+03  0.38541985979E+02 -0.14562641938E+03  0.27330796540E+03  0.17300000000E+03 0. -1.
<mgrwt>
<rscale>  2 0.23127946E+03</rscale>
<asrwt>0</asrwt>
<pdfrwt beam="1">  1       21 0.29825046E-01 0.23127946E+03</pdfrwt>
<pdfrwt beam="2">  1       21 0.48048541E-01 0.23127946E+03</pdfrwt>
<totfact> 0.43797573E+04</totfact>
</mgrwt>
</event>
<event>
 4    1  0.3875622E-001  0.1789567E+03  0.7546771E-02  0.1168817E+00
         21   -1    0    0  501  502  0.00000000000E+00  0.00000000000E+00  0.29521011508E+02  0.29521011508E+02  0.00000000000E+00 0. -1.
         21   -1    0    0  502  503 -0.00000000000E+00 -0.00000000000E+00 -0.11454101615E+04  0.11454101615E+04  0.00000000000E+00 0. -1.
          6    1    1    2  501    0 -0.19306586412E+02  0.41518130538E+02 -0.69303990920E+03  0.71577218106E+03  0.17300000000E+03 0. -1.
         -6    1    1    2    0  503  0.19306586412E+02 -0.41518130538E+02 -0.42284924077E+03  0.45915899192E+03  0.17300000000E+03 0. -1.
<mgrwt>
<rscale>  2 0.17895670E+03</rscale>
<asrwt>0</asrwt>
<pdfrwt beam="1">  1       21 0.45416949E-02 0.17895670E+03</pdfrwt>
<pdfrwt beam="2">  1       21 0.17621691E+00 0.17895670E+03</pdfrwt>
<totfact> 0.61620355E+04</totfact>
</mgrwt>
</event>
<event>
 4    1  0.3875622E-001  0.2437421E+03  0.7546771E-02  0.1117325E+00
         21   -1    0    0  503  502  0.00000000000E+00  0.00000000000E+00  0.48348646924E+03  0.48348646924E+03  0.00000000000E+00 0. -1.
         21   -1    0    0  501  503 -0.00000000000E+00 -0.00000000000E+00 -0.12654793417E+03  0.12654793417E+03  0.00000000000E+00 0. -1.
          6    1    1    2  501    0 -0.17589032594E+02 -0.17079765663E+03  0.12653171443E+03  0.27462790887E+03  0.17300000000E+03 0. -1.
         -6    1    1    2    0  502  0.17589032594E+02  0.17079765663E+03  0.23040682064E+03  0.33540649453E+03  0.17300000000E+03 0. -1.
<mgrwt>
<rscale>  2 0.24374210E+03</rscale>
<asrwt>0</asrwt>
<pdfrwt beam="1">  1       21 0.74382533E-01 0.24374210E+03</pdfrwt>
<pdfrwt beam="2">  1       21 0.19468913E-01 0.24374210E+03</pdfrwt>
<totfact> 0.38341900E+04</totfact>
</mgrwt>
</event>
<event>
 4    1  0.3875622E-001  0.1767100E+03  0.7546771E-02  0.1171026E+00
         21   -1    0    0  503  502  0.00000000000E+00  0.00000000000E+00  0.10674237167E+03  0.10674237167E+03  0.00000000000E+00 0.  1.
         21   -1    0    0  501  503 -0.00000000000E+00 -0.00000000000E+00 -0.36373807617E+03  0.36373807617E+03  0.00000000000E+00 0.  1.
          6    1    1    2  501    0  0.20018496877E+02  0.29944703151E+02 -0.23257394665E+03  0.29209085252E+03  0.17300000000E+03 0.  1.
         -6    1    1    2    0  502 -0.20018496877E+02 -0.29944703151E+02 -0.24421757845E+02  0.17838959533E+03  0.17300000000E+03 0.  1.
<mgrwt>
<rscale>  2 0.17671000E+03</rscale>
<asrwt>0</asrwt>
<pdfrwt beam="1">  1       21 0.16421904E-01 0.17671000E+03</pdfrwt>
<pdfrwt beam="2">  1       21 0.55959703E-01 0.17671000E+03</pdfrwt>
<totfact> 0.10057508E+05</totfact>
</mgrwt>
</event>
<event>
 4    1  0.3875622E-001  0.2427954E+03  0.7546771E-02  0.1117945E+00
         21   -1    0    0  503  502  0.00000000000E+00  0.00000000000E+00  0.35700697860E+03  0.35700697860E+03  0.00000000000E+00 0.  1.
         21   -1    0    0  501  503 -0.00000000000E+00 -0.00000000000E+00 -0.27859733969E+03  0.27859733969E+03  0.00000000000E+00 0.  1.
          6    1    1    2  501    0  0.29112528345E+01 -0.17032946184E+03 -0.16361933373E+03  0.29278129608E+03  0.17300000000E+03 0.  1.
         -6    1    1    2    0  502 -0.29112528345E+01  0.17032946184E+03  0.24202897264E+03  0.34282302222E+03  0.17300000000E+03 0.  1.
<mgrwt>
<rscale>  2 0.24279539E+03</rscale>
<asrwt>0</asrwt>
<pdfrwt beam="1">  1       21 0.54924151E-01 0.24279539E+03</pdfrwt>
<pdfrwt beam="2">  1       21 0.42861129E-01 0.24279539E+03</pdfrwt>
<totfact> 0.15908147E+04</totfact>
</mgrwt>
</event>
<event>
 4    1  0.3875622E-001  0.2641131E+03  0.7546771E-02  0.1104697E+00
         21   -1    0    0  501  502  0.00000000000E+00  0.00000000000E+00  0.89586458827E+02  0.89586458827E+02  0.00000000000E+00 0.  1.
         21   -1    0    0  502  503 -0.00000000000E+00 -0.00000000000E+00 -0.91448868008E+03  0.91448868008E+03  0.00000000000E+00 0. -1.
          6    1    1    2  501    0 -0.19734134009E+03 -0.29717215053E+02 -0.21895480661E+03  0.34306985399E+03  0.17300000000E+03 0. -1.
         -6    1    1    2    0  503  0.19734134009E+03  0.29717215053E+02 -0.60594741465E+03  0.66100528492E+03  0.17300000000E+03 0. -1.
<mgrwt>
<rscale>  2 0.26411308E+03</rscale>
<asrwt>0</asrwt>
<pdfrwt beam="1">  1       21 0.13782531E-01 0.26411308E+03</pdfrwt>
<pdfrwt beam="2">  1       21 0.14069058E+00 0.26411308E+03</pdfrwt>
<totfact> 0.15473398E+04</totfact>
</mgrwt>
</event>
<event>
 4    1  0.3875622E-001  0.1785129E+03  0.7546771E-02  0.1169250E+00
         21   -1    0    0  503  502  0.00000000000E+00  0.00000000000E+00  0.36504439376E+02  0.36504439376E+02  0.00000000000E+00 0. -1.
         21   -1    0    0  501  503 -0.00000000000E+00 -0.00000000000E+00 -0.13685177635E+04  0.13685177635E+04  0.00000000000E+00 0. -1.
          6    1    1    2  501    0  0.43265969794E+02  0.81178699640E+01 -0.10887492209E+04  0.11032867759E+04  0.17300000000E+03 0. -1.
         -6    1    1    2    0  502 -0.43265969794E+02 -0.81178699640E+01 -0.24326410326E+03  0.30173542697E+03  0.17300000000E+03 0. -1.
<mgrwt>
<rscale>  2 0.17851287E+03</rscale>
<asrwt>0</asrwt>
<pdfrwt beam="1">  1       21 0.56160681E-02 0.17851287E+03</pdfrwt>
<pdfrwt beam="2">  1       21 0.21054118E+00 0.17851287E+03</pdfrwt>
<totfact> 0.25695853E+04</totfact>
</mgrwt>
</event>
<event>
 4    1  0.3875622E-001  0.1916552E+03  0.7546771E-02  0.1156977E+00
         21   -1    0    0  501  502  0.00000000000E+00  0.00000000000E+00  0.11835131079E+03  0.11835131079E+03  0.00000000000E+00 0. -1.
         21   -1    0    0  502  503 -0.00000000000E+00 -0.00000000000E+00 -0.45759264430E+03  0.45759264430E+03  0.00000000000E+00 0.  1.
          6    1    1    2  501    0  0.80149217890E+02 -0.19463667747E+02 -0.62740881147E+01  0.19175790902E+03  0.17300000000E+03 0. -1.
         -6    1    1    2    0  503 -0.80149217890E+02  0.19463667747E+02 -0.33296724539E+03  0.38418604607E+03  0.17300000000E+03 0.  1.
<mgrwt>
<rscale>  2 0.19165524E+03</rscale>
<asrwt>0</asrwt>
<pdfrwt beam="1">  1       21 0.18207894E-01 0.19165524E+03</pdfrwt>
<pdfrwt beam="2">  1       21 0.70398868E-01 0.19165524E+03</pdfrwt>
<totfact> 0.50320136E+04</totfact>
</mgrwt>
</event>
<event>
 4    1  0.3875622E-001  0.1954383E+03  0.7546771E-02  0.1153646E+00
         21   -1    0    0  501  502  0.00000000000E+00  0.00000000000E+00  0.23109174373E+03  0.23109174373E+03  0.00000000000E+00 0. -1.
         21   -1    0    0  502  503 -0.00000000000E+00 -0.00000000000E+00 -0.20522170272E+03  0.20522170272E+03  0.00000000000E+00 0. -1.
          6    1    1    2  501    0 -0.50003982490E+02  0.75939108333E+02 -0.83301428303E+02  0.21245063991E+03  0.17300000000E+03 0. -1.
         -6    1    1    2    0  503  0.50003982490E+02 -0.75939108333E+02  0.10917146932E+03  0.22386280654E+03  0.17300000000E+03 0. -1.
<mgrwt>
<rscale>  2 0.19543834E+03</rscale>
<asrwt>0</asrwt>
<pdfrwt beam="1">  1       21 0.35552576E-01 0.19543834E+03</pdfrwt>
<pdfrwt beam="2">  1       21 0.31572570E-01 0.19543834E+03</pdfrwt>
<totfact> 0.73475136E+04</totfact>
</mgrwt>
</event>
<event>
 4    1  0.3875622E-001  0.1995917E+03  0.7546771E-02  0.1150084E+00
         21   -1    0    0  503  502  0.00000000000E+00  0.00000000000E+00  0.12094892200E+03  0.12094892200E+03  0.00000000000E+00 0.  1.
         21   -1    0    0  501  503 -0.00000000000E+00 -0.00000000000E+00 -0.33948544162E+03  0.33948544162E+03  0.00000000000E+00 0.  1.
          6    1    1    2  501    0 -0.96519541034E+02 -0.24327058923E+02 -0.14900943189E+03  0.24907958244E+03  0.17300000000E+03 0.  1.
         -6    1    1    2    0  502  0.96519541034E+02  0.24327058923E+02 -0.69527087726E+02  0.21135478117E+03  0.17300000000E+03 0.  1.
<mgrwt>
<rscale>  2 0.19959165E+03</rscale>
<asrwt>0</asrwt>
<pdfrwt beam="1">  1       21 0.18607527E-01 0.19959165E+03</pdfrwt>
<pdfrwt beam="2">  1       21 0.52228529E-01 0.19959165E+03</pdfrwt>
<totfact> 0.91567319E+04</totfact>
</mgrwt>
</event>
<event>
 4    1  0.3875622E-001  0.1923414E+03  0.7546771E-02  0.1156366E+00
         21   -1    0    0  501  502  0.00000000000E+00  0.00000000000E+00  0.52302059654E+03  0.52302059654E+03  0.00000000000E+00 0. -1.
         21   -1    0    0  502  503 -0.00000000000E+00 -0.00000000000E+00 -0.79690366505E+02  0.79690366505E+02  0.00000000000E+00 0. -1.
          6    1    1    2  501    0  0.85063667901E+01 -0.83629383643E+02  0.32269434951E+03  0.37566857107E+03  0.17300000000E+03 0. -1.
         -6    1    1    2    0  503 -0.85063667901E+01  0.83629383643E+02  0.12063588053E+03  0.22704239198E+03  0.17300000000E+03 0. -1.
<mgrwt>
<rscale>  2 0.19234145E+03</rscale>
<asrwt>0</asrwt>
<pdfrwt beam="1">  1       21 0.80464705E-01 0.19234145E+03</pdfrwt>
<pdfrwt beam="2">  1       21 0.12260057E-01 0.19234145E+03</pdfrwt>
<totfact> 0.76672752E+04</totfact>
</mgrwt>
</event>
<event>
 4    1  0.3875622E-001  0.2011273E+03  0.7546771E-02  0.1148791E+00
         21   -1    0    0  503  502  0.00000000000E+00  0.00000000000E+00  0.11558317809E+03  0.11558317809E+03  0.00000000000E+00 0.  1.
         21   -1    0    0  501  503 -0.00000000000E+00 -0.00000000000E+00 -0.37887657785E+03  0.37887657785E+03  0.00000000000E+00 0.  1.
          6    1    1    2  501    0 -0.92668628499E+02  0.43996674045E+02 -0.19991993562E+03  0.28358448951E+03  0.17300000000E+03 0.  1.
         -6    1    1    2    0  502  0.92668628499E+02 -0.43996674045E+02 -0.63373464146E+02  0.21087526643E+03  0.17300000000E+03 0.  1.
<mgrwt>
<rscale>  2 0.20112728E+03</rscale>
<asrwt>0</asrwt>
<pdfrwt beam="1">  1       21 0.17782027E-01 0.20112728E+03</pdfrwt>
<pdfrwt beam="2">  1       21 0.58288705E-01 0.20112728E+03</pdfrwt>
<totfact> 0.78872006E+04</totfact>
</mgrwt>
</event>
<event>
 4    1  0.3875622E-001  0.1797444E+03  0.7546771E-02  0.1168051E+00
         21   -1    0    0  501  502  0.00000000000E+00  0.00000000000E+00  0.21377225825E+03  0.21377225825E+03  0.00000000000E+00 0. -1.
         21   -1    0    0  502  503 -0.00000000000E+00 -0.00000000000E+00 -0.16292130393E+03  0.16292130393E+03  0.00000000000E+00 0.  1.
          6    1    1    2  501    0  0.53545237380E+01 -0.48480876473E+02 -0.25237754905E+02  0.18150760475E+03  0.17300000000E+03 0.  1.
         -6    1    1    2    0  503 -0.53545237380E+01  0.48480876473E+02  0.76088709217E+02  0.19518595743E+03  0.17300000000E+03 0. -1.
<mgrwt>
<rscale>  2 0.17974445E+03</rscale>
<asrwt>0</asrwt>
<pdfrwt beam="1">  1       21 0.32888040E-01 0.17974445E+03</pdfrwt>
<pdfrwt beam="2">  1       21 0.25064816E-01 0.17974445E+03</pdfrwt>
<totfact> 0.13472313E+05</totfact>
</mgrwt>
</event>
<event>
 4    1  0.3875622E-001  0.1779407E+03  0.7546771E-02  0.1169811E+00
         21   -1    0    0  501  502  0.00000000000E+00  0.00000000000E+00  0.93118105093E+03  0.93118105093E+03  0.00000000000E+00 0. -1.
         21   -1    0    0  502  503 -0.00000000000E+00 -0.00000000000E+00 -0.34171879603E+02  0.34171879603E+02  0.00000000000E+00 0. -1.
          6    1    1    2  501    0 -0.40710280955E+02 -0.87503104701E+01  0.41456665582E+03  0.45114122736E+03  0.17300000000E+03 0. -1.
         -6    1    1    2    0  503  0.40710280955E+02  0.87503104701E+01  0.48244251551E+03  0.51421170318E+03  0.17300000000E+03 0. -1.
<mgrwt>
<rscale>  2 0.17794071E+03</rscale>
<asrwt>0</asrwt>
<pdfrwt beam="1">  1       21 0.14325860E+00 0.17794071E+03</pdfrwt>
<pdfrwt beam="2">  1       21 0.52572130E-02 0.17794071E+03</pdfrwt>
<totfact> 0.83878542E+04</totfact>
</mgrwt>
</event>
<event>
 4    1  0.3875622E-001  0.2255702E+03  0.7546771E-02  0.1129797E+00
         21   -1    0    0  501  502  0.00000000000E+00  0.00000000000E+00  0.26948514838E+03  0.26948514838E+03  0.00000000000E+00 0.  1.
         21   -1    0    0  502  503 -0.00000000000E+00 -0.00000000000E+00 -0.19273282753E+03  0.19273282753E+03  0.00000000000E+00 0. -1.
          6    1    1    2  501    0 -0.14241554025E+03 -0.25898715226E+02  0.71340810257E+02  0.23658284123E+03  0.17300000000E+03 0.  1.
         -6    1    1    2    0  503  0.14241554025E+03  0.25898715226E+02  0.54115105951E+01  0.22563513468E+03  0.17300000000E+03 0.  1.
<mgrwt>
<rscale>  2 0.22557023E+03</rscale>
<asrwt>0</asrwt>
<pdfrwt beam="1">  1       21 0.41459254E-01 0.22557023E+03</pdfrwt>
<pdfrwt beam="2">  1       21 0.29651204E-01 0.22557023E+03</pdfrwt>
<totfact> 0.60179066E+04</totfact>
</mgrwt>
</event>
<event>
 4    1  0.3875622E-001  0.2211700E+03  0.7546771E-02  0.1133014E+00
         21   -1    0    0  503  502  0.00000000000E+00  0.00000000000E+00  0.54459640296E+03  0.54459640296E+03  0.00000000000E+00 0.  1.
         21   -1    0    0  501  503 -0.00000000000E+00 -0.00000000000E+00 -0.92338342799E+02  0.92338342799E+02  0.00000000000E+00 0.  1.
          6    1    1    2  501    0  0.13761935341E+03 -0.69350691609E+01  0.27871222512E+03  0.35580428054E+03  0.17300000000E+03 0.  1.
         -6    1    1    2    0  502 -0.13761935341E+03  0.69350691609E+01  0.17354583504E+03  0.28113046522E+03  0.17300000000E+03 0.  1.
<mgrwt>
<rscale>  2 0.22117003E+03</rscale>
<asrwt>0</asrwt>
<pdfrwt beam="1">  1       21 0.83784060E-01 0.22117003E+03</pdfrwt>
<pdfrwt beam="2">  1       21 0.14205899E-01 0.22117003E+03</pdfrwt>
<totfact> 0.52895740E+04</totfact>
</mgrwt>
</event>
<event>
 4    1  0.3875622E-001  0.1806348E+03  0.7546771E-02  0.1167190E+00
         21   -1    0    0  501  502  0.00000000000E+00  0.00000000000E+00  0.48818812468E+02  0.48818812468E+02  0.00000000000E+00 0.  1.
         21   -1    0    0  502  503 -0.00000000000E+00 -0.00000000000E+00 -0.69129468854E+03  0.69129468854E+03  0.00000000000E+00 0.  1.
          6    1    1    2  501    0  0.24761282798E+02 -0.45681525779E+02 -0.25384581198E+03  0.31155516234E+03  0.17300000000E+03 0.  1.
         -6    1    1    2    0  503 -0.24761282798E+02  0.45681525779E+02 -0.38863006410E+03  0.42855833867E+03  0.17300000000E+03 0.  1.
<mgrwt>
<rscale>  2 0.18063478E+03</rscale>
<asrwt>0</asrwt>
<pdfrwt beam="1">  1       21 0.75105872E-02 0.18063478E+03</pdfrwt>
<pdfrwt beam="2">  1       21 0.10635302E+00 0.18063478E+03</pdfrwt>
<totfact> 0.95357517E+04</totfact>
</mgrwt>
</event>
<event>
 4    1  0.3875622E-001  0.3401952E+03  0.7546771E-02  0.1066713E+00
         21   -1    0    0  503  502  0.00000000000E+00  0.00000000000E+00  0.34036198621E+03  0.34036198621E+03  0.00000000000E+00 0.  1.
         21   -1    0    0  501  503 -0.00000000000E+00 -0.00000000000E+00 -0.36976624581E+03  0.36976624581E+03  0.00000000000E+00 0. -1.
          6    1    1    2  501    0 -0.21902687214E+03 -0.19450188252E+03  0.85990494243E+02  0.35089473937E+03  0.17300000000E+03 0.  1.
         -6    1    1    2    0  502  0.21902687214E+03  0.19450188252E+03 -0.11539475385E+03  0.35923349264E+03  0.17300000000E+03 0. -1.
<mgrwt>
<rscale>  2 0.34019517E+03</rscale>
<asrwt>0</asrwt>
<pdfrwt beam="1">  1       21 0.52363382E-01 0.34019517E+03</pdfrwt>
<pdfrwt beam="2">  1       21 0.56887115E-01 0.34019517E+03</pdfrwt>
<totfact> 0.92904020E+03</totfact>
</mgrwt>
</event>
<event>
 4    1  0.3875622E-001  0.1919802E+03  0.7546771E-02  0.1156687E+00
         21   -1    0    0  503  502  0.00000000000E+00  0.00000000000E+00  0.21821657080E+02  0.21821657080E+02  0.00000000000E+00 0. -1.
         21   -1    0    0  501  503 -0.00000000000E+00 -0.00000000000E+00 -0.22261015814E+04  0.22261015814E+04  0.00000000000E+00 0. -1.
          6    1    1    2  501    0 -0.83051374969E+02  0.54647095159E+01 -0.16542356286E+04  0.16653383767E+04  0.17300000000E+03 0. -1.
         -6    1    1    2    0  502  0.83051374969E+02 -0.54647095159E+01 -0.55004429569E+03  0.58258486176E+03  0.17300000000E+03 0. -1.
<mgrwt>
<rscale>  2 0.19198019E+03</rscale>
<asrwt>0</asrwt>
<pdfrwt beam="1">  1       21 0.33571774E-02 0.19198019E+03</pdfrwt>
<pdfrwt beam="2">  1       21 0.34247723E+00 0.19198019E+03</pdfrwt>
<totfact> 0.10173452E+04</totfact>
</mgrwt>
</event>
<event>
 4    1  0.3875622E-001  0.2052588E+03  0.7546771E-02  0.1145376E+00
         21   -1    0    0  501  502  0.00000000000E+00  0.00000000000E+00  0.91051641658E+02  0.91051641658E+02  0.00000000000E+00 0.  1.
         21   -1    0    0  502  503 -0.00000000000E+00 -0.00000000000E+00 -0.51973629191E+03  0.51973629191E+03  0.00000000000E+00 0. -1.
          6    1    1    2  501    0 -0.10404521286E+03  0.37104991314E+02 -0.31549514432E+03  0.37638859280E+03  0.17300000000E+03 0. -1.
         -6    1    1    2    0  503  0.10404521286E+03 -0.37104991314E+02 -0.11318950593E+03  0.23439934077E+03  0.17300000000E+03 0.  1.
<mgrwt>
<rscale>  2 0.20525883E+03</rscale>
<asrwt>0</asrwt>
<pdfrwt beam="1">  1       21 0.14007945E-01 0.20525883E+03</pdfrwt>
<pdfrwt beam="2">  1       21 0.79959428E-01 0.20525883E+03</pdfrwt>
<totfact> 0.60795621E+04</totfact>
</mgrwt>
</event>
<event>
 4    1  0.3875622E-001  0.2167350E+03  0.7546771E-02  0.1136341E+00
         21   -1    0    0  503  502  0.00000000000E+00  0.00000000000E+00  0.12217661741E+03  0.12217661741E+03  0.00000000000E+00 0. -1.
         21   -1    0    0  501  503 -0.00000000000E+00 -0.00000000000E+00 -0.46781945196E+03  0.46781945196E+03  0.00000000000E+00 0. -1.
          6    1    1    2  501    0 -0.29553871026E+02 -0.12716766689E+03 -0.29733428675E+03  0.36794255649E+03  0.17300000000E+03 0. -1.
         -6    1    1    2    0  502  0.29553871026E+02  0.12716766689E+03 -0.48308547795E+02  0.22205351289E+03  0.17300000000E+03 0. -1.
<mgrwt>
<rscale>  2 0.21673497E+03</rscale>
<asrwt>0</asrwt>
<pdfrwt beam="1">  1       21 0.18796403E-01 0.21673497E+03</pdfrwt>
<pdfrwt beam="2">  1       21 0.71972224E-01 0.21673497E+03</pdfrwt>
<totfact> 0.44614453E+04</totfact>
</mgrwt>
</event>
<event>
 4    1  0.3875622E-001  0.2149599E+03  0.7546771E-02  0.1137697E+00
         21   -1    0    0  503  502  0.00000000000E+00  0.00000000000E+00  0.17305722098E+02  0.17305722098E+02  0.00000000000E+00 0. -1.
         21   -1    0    0  501  503 -0.00000000000E+00 -0.00000000000E+00 -0.26704188306E+04  0.26704188306E+04  0.00000000000E+00 0.  1.
          6    1    1    2  501    0 -0.80917227563E+02 -0.98646547913E+02 -0.13115182685E+04  0.13290176477E+04  0.17300000000E+03 0.  1.
         -6    1    1    2    0  502  0.80917227563E+02  0.98646547913E+02 -0.13415948400E+04  0.13587069050E+04  0.17300000000E+03 0.  1.
<mgrwt>
<rscale>  2 0.21495985E+03</rscale>
<asrwt>0</asrwt>
<pdfrwt beam="1">  1       21 0.26624182E-02 0.21495985E+03</pdfrwt>
<pdfrwt beam="2">  1       21 0.41083376E+00 0.21495985E+03</pdfrwt>
<totfact> 0.55794133E+03</totfact>
</mgrwt>
</event>
<event>
 4    1  0.3875622E-001  0.4249928E+03  0.7546771E-02  0.1035453E+00
         21   -1    0    0  503  502  0.00000000000E+00  0.00000000000E+00  0.13029235376E+03  0.13029235376E+03  0.00000000000E+00 0. -1.
         21   -1    0    0  501  503 -0.00000000000E+00 -0.00000000000E+00 -0.18099653496E+04  0.18099653496E+04  0.00000000000E+00 0. -1.
          6    1    1    2  501    0  0.12286255373E+03 -0.36823184962E+03 -0.13092190662E+04  0.13764713820E+04  0.17300000000E+03 0. -1.
         -6    1    1    2    0  502 -0.12286255373E+03  0.36823184962E+03 -0.37045392970E+03  0.56378632141E+03  0.17300000000E+03 0. -1.
<mgrwt>
<rscale>  2 0.42499283E+03</rscale>
<asrwt>0</asrwt>
<pdfrwt beam="1">  1       21 0.20044978E-01 0.42499283E+03</pdfrwt>
<pdfrwt beam="2">  1       21 0.27845620E+00 0.42499283E+03</pdfrwt>
<totfact> 0.85825125E+02</totfact>
</mgrwt>
</event>
<event>
 4    1  0.3875622E-001  0.2155091E+03  0.7546771E-02  0.1137276E+00
         21   -1    0    0  501  502  0.00000000000E+00  0.00000000000E+00  0.80024393072E+02  0.80024393072E+02  0.00000000000E+00 0. -1.
         21   -1    0    0  502  503 -0.00000000000E+00 -0.00000000000E+00 -0.58362911190E+03  0.58362911190E+03  0.00000000000E+00 0.  1.
          6    1    1    2  501    0 -0.12596113332E+03 -0.25474975472E+02 -0.27657879662E+03  0.35062802544E+03  0.17300000000E+03 0.  1.
         -6    1    1    2    0  503  0.12596113332E+03  0.25474975472E+02 -0.22702592221E+03  0.31302547953E+03  0.17300000000E+03 0.  1.
<mgrwt>
<rscale>  2 0.21550912E+03</rscale>
<asrwt>0</asrwt>
<pdfrwt beam="1">  1       21 0.12311445E-01 0.21550912E+03</pdfrwt>
<pdfrwt beam="2">  1       21 0.89789094E-01 0.21550912E+03</pdfrwt>
<totfact> 0.58563312E+04</totfact>
</mgrwt>
</event>
<event>
 4    1  0.3875622E-001  0.1946511E+03  0.7546771E-02  0.1154332E+00
         21   -1    0    0  501  502  0.00000000000E+00  0.00000000000E+00  0.35778539560E+02  0.35778539560E+02  0.00000000000E+00 0.  1.
         21   -1    0    0  502  503 -0.00000000000E+00 -0.00000000000E+00 -0.11432944805E+04  0.11432944805E+04  0.00000000000E+00 0. -1.
          6    1    1    2  501    0  0.86462148006E+02 -0.22007679569E+02 -0.39366865332E+03  0.43916289643E+03  0.17300000000E+03 0.  1.
         -6    1    1    2    0  503 -0.86462148006E+02  0.22007679569E+02 -0.71384728757E+03  0.73991012358E+03  0.17300000000E+03 0.  1.
<mgrwt>
<rscale>  2 0.19465107E+03</rscale>
<asrwt>0</asrwt>
<pdfrwt beam="1">  1       21 0.55043904E-02 0.19465107E+03</pdfrwt>
<pdfrwt beam="2">  1       21 0.17589147E+00 0.19465107E+03</pdfrwt>
<totfact> 0.44299619E+04</totfact>
</mgrwt>
</event>
<event>
 4    1  0.3875622E-001  0.2102262E+03  0.7546771E-02  0.1141387E+00
         21   -1    0    0  503  502  0.00000000000E+00  0.00000000000E+00  0.19453905479E+03  0.19453905479E+03  0.00000000000E+00 0.  1.
         21   -1    0    0  501  503 -0.00000000000E+00 -0.00000000000E+00 -0.22841834830E+03  0.22841834830E+03  0.00000000000E+00 0.  1.
          6    1    1    2  501    0 -0.11027876032E+03 -0.45876461263E+02 -0.13578401409E+01  0.21023058389E+03  0.17300000000E+03 0.  1.
         -6    1    1    2    0  502  0.11027876032E+03  0.45876461263E+02 -0.32521453362E+02  0.21272681919E+03  0.17300000000E+03 0.  1.
<mgrwt>
<rscale>  2 0.21022620E+03</rscale>
<asrwt>0</asrwt>
<pdfrwt beam="1">  1       21 0.29929086E-01 0.21022620E+03</pdfrwt>
<pdfrwt beam="2">  1       21 0.35141284E-01 0.21022620E+03</pdfrwt>
<totfact> 0.82957722E+04</totfact>
</mgrwt>
</event>
<event>
 4    1  0.3875622E-001  0.2502264E+03  0.7546771E-02  0.1113162E+00
         21   -1    0    0  501  502  0.00000000000E+00  0.00000000000E+00  0.19092186240E+03  0.19092186240E+03  0.00000000000E+00 0. -1.
         21   -1    0    0  502  503 -0.00000000000E+00 -0.00000000000E+00 -0.46845889331E+03  0.46845889331E+03  0.00000000000E+00 0.  1.
          6    1    1    2  501    0 -0.16449842493E+03 -0.74996889622E+02  0.41790371652E+02  0.25369213709E+03  0.17300000000E+03 0. -1.
         -6    1    1    2    0  503  0.16449842493E+03  0.74996889622E+02 -0.31932740255E+03  0.40568861862E+03  0.17300000000E+03 0.  1.
<mgrwt>
<rscale>  2 0.25022643E+03</rscale>
<asrwt>0</asrwt>
<pdfrwt beam="1">  1       21 0.29372594E-01 0.25022643E+03</pdfrwt>
<pdfrwt beam="2">  1       21 0.72070599E-01 0.25022643E+03</pdfrwt>
<totfact> 0.18681846E+04</totfact>
</mgrwt>
</event>
<event>
 4    1  0.3875622E-001  0.1860243E+03  0.7546771E-02  0.1162097E+00
         21   -1    0    0  501  502  0.00000000000E+00  0.00000000000E+00  0.67151742939E+02  0.67151742939E+02  0.00000000000E+00 0.  1.
         21   -1    0    0  502  503 -0.00000000000E+00 -0.00000000000E+00 -0.54276693876E+03  0.54276693876E+03  0.00000000000E+00 0.  1.
          6    1    1    2  501    0  0.39735747570E+02 -0.55651570352E+02 -0.16923727999E+03  0.25148813860E+03  0.17300000000E+03 0.  1.
         -6    1    1    2    0  503 -0.39735747570E+02  0.55651570352E+02 -0.30637791583E+03  0.35843054310E+03  0.17300000000E+03 0.  1.
<mgrwt>
<rscale>  2 0.18602426E+03</rscale>
<asrwt>0</asrwt>
<pdfrwt beam="1">  1       21 0.10331037E-01 0.18602426E+03</pdfrwt>
<pdfrwt beam="2">  1       21 0.83502605E-01 0.18602426E+03</pdfrwt>
<totfact> 0.95846483E+04</totfact>
</mgrwt>
</event>
<event>
 4    1  0.3875622E-001  0.1768737E+03  0.7546771E-02  0.1170863E+00
         21   -1    0    0  503  502  0.00000000000E+00  0.00000000000E+00  0.92313007900E+02  0.92313007900E+02  0.00000000000E+00 0. -1.
         21   -1    0    0  501  503 -0.00000000000E+00 -0.00000000000E+00 -0.35556371431E+03  0.35556371431E+03  0.00000000000E+00 0. -1.
          6    1    1    2  501    0 -0.36724907985E+02  0.25664122856E+01 -0.18011360883E+03  0.25243854187E+03  0.17300000000E+03 0. -1.
         -6    1    1    2    0  502  0.36724907985E+02 -0.25664122856E+01 -0.83137097583E+02  0.19543818034E+03  0.17300000000E+03 0. -1.
<mgrwt>
<rscale>  2 0.17687370E+03</rscale>
<asrwt>0</asrwt>
<pdfrwt beam="1">  1       21 0.14202001E-01 0.17687370E+03</pdfrwt>
<pdfrwt beam="2">  1       21 0.54702110E-01 0.17687370E+03</pdfrwt>
<totfact> 0.13743595E+05</totfact>
</mgrwt>
</event>
<event>
 4    1  0.3875622E-001  0.2179098E+03  0.7546771E-02  0.1135451E+00
         21   -1    0    0  503  502  0.00000000000E+00  0.00000000000E+00  0.14016565514E+03  0.14016565514E+03  0.00000000000E+00 0. -1.
         21   -1    0    0  501  503 -0.00000000000E+00 -0.00000000000E+00 -0.41155167642E+03  0.41155167642E+03  0.00000000000E+00 0. -1.
          6    1    1    2  501    0 -0.10241952899E+03  0.84058921577E+02 -0.25169612539E+03  0.33291981280E+03  0.17300000000E+03 0. -1.
         -6    1    1    2    0  502  0.10241952899E+03 -0.84058921577E+02 -0.19689895878E+02  0.21879751876E+03  0.17300000000E+03 0. -1.
<mgrwt>
<rscale>  2 0.21790976E+03</rscale>
<asrwt>0</asrwt>
<pdfrwt beam="1">  1       21 0.21563947E-01 0.21790976E+03</pdfrwt>
<pdfrwt beam="2">  1       21 0.63315643E-01 0.21790976E+03</pdfrwt>
<totfact> 0.45680904E+04</totfact>
</mgrwt>
</event>
<event>
 4    1  0.3875622E-001  0.2256561E+03  0.7546771E-02  0.1129735E+00
         21   -1    0    0  501  502  0.00000000000E+00  0.00000000000E+00  0.55712073703E+02  0.55712073703E+02  0.00000000000E+00 0.  1.
         21   -1    0    0  502  503 -0.00000000000E+00 -0.00000000000E+00 -0.12814060588E+04  0.12814060588E+04  0.00000000000E+00 0. -1.
          6    1    1    2  501    0  0.98673212916E+02 -0.10609088854E+03 -0.25485673676E+03  0.34040069896E+03  0.17300000000E+03 0.  1.
         -6    1    1    2    0  503 -0.98673212916E+02  0.10609088854E+03 -0.97083724833E+03  0.99671743354E+03  0.17300000000E+03 0. -1.
<mgrwt>
<rscale>  2 0.22565611E+03</rscale>
<asrwt>0</asrwt>
<pdfrwt beam="1">  1       21 0.85710900E-02 0.22565611E+03</pdfrwt>
<pdfrwt beam="2">  1       21 0.19713935E+00 0.22565611E+03</pdfrwt>
<totfact> 0.14539330E+04</totfact>
</mgrwt>
</event>
<event>
 4    1  0.3875622E-001  0.2115581E+03  0.7546771E-02  0.1140338E+00
         21   -1    0    0  501  502  0.00000000000E+00  0.00000000000E+00  0.18740730138E+03  0.18740730138E+03  0.00000000000E+00 0. -1.
         21   -1    0    0  502  503 -0.00000000000E+00 -0.00000000000E+00 -0.28426265297E+03  0.28426265297E+03  0.00000000000E+00 0.  1.
          6    1    1    2  501    0  0.40247536487E+02  0.11492593546E+03  0.45864240928E+02  0.21647254660E+03  0.17300000000E+03 0. -1.
         -6    1    1    2    0  503 -0.40247536487E+02 -0.11492593546E+03 -0.14271959251E+03  0.25519740775E+03  0.17300000000E+03 0.  1.
<mgrwt>
<rscale>  2 0.21155811E+03</rscale>
<asrwt>0</asrwt>
<pdfrwt beam="1">  1       21 0.28831892E-01 0.21155811E+03</pdfrwt>
<pdfrwt beam="2">  1       21 0.43732716E-01 0.21155811E+03</pdfrwt>
<totfact> 0.57332990E+04</totfact>
</mgrwt>
</event>
<event>
 4    1  0.3875622E-001  0.2027108E+03  0.7546771E-02  0.1147472E+00
         21   -1    0    0  503  502  0.00000000000E+00  0.00000000000E+00  0.12906488040E+03  0.12906488040E+03  0.00000000000E+00 0.  1.
         21   -1    0    0  501  503 -0.00000000000E+00 -0.00000000000E+00 -0.35933028023E+03  0.35933028023E+03  0.00000000000E+00 0.  1.
          6    1    1    2  501    0 -0.31657808475E+02  0.10079905956E+03 -0.19756990752E+03  0.28306454317E+03  0.17300000000E+03 0.  1.
         -6    1    1    2    0  502  0.31657808475E+02 -0.10079905956E+03 -0.32695492312E+02  0.20533061745E+03  0.17300000000E+03 0.  1.
<mgrwt>
<rscale>  2 0.20271080E+03</rscale>
<asrwt>0</asrwt>
<pdfrwt beam="1">  1       21 0.19856136E-01 0.20271080E+03</pdfrwt>
<pdfrwt beam="2">  1       21 0.55281581E-01 0.20271080E+03</pdfrwt>
<totfact> 0.71869425E+04</totfact>
</mgrwt>
</event>
<event>
 4    1  0.3875622E-001  0.1970980E+03  0.7546771E-02  0.1152211E+00
         21   -1    0    0  501  502  0.00000000000E+00  0.00000000000E+00  0.21976786565E+02  0.21976786565E+02  0.00000000000E+00 0. -1.
         21   -1    0    0  502  503 -0.00000000000E+00 -0.00000000000E+00 -0.20339999236E+04  0.20339999236E+04  0.00000000000E+00 0. -1.
          6    1    1    2  501    0  0.85985439659E+02 -0.39052699024E+02 -0.63402580746E+03  0.66395506900E+03  0.17300000000E+03 0. -1.
         -6    1    1    2    0  503 -0.85985439659E+02  0.39052699024E+02 -0.13779973295E+04  0.13920216411E+04  0.17300000000E+03 0. -1.
<mgrwt>
<rscale>  2 0.19709797E+03</rscale>
<asrwt>0</asrwt>
<pdfrwt beam="1">  1       21 0.33810429E-02 0.19709797E+03</pdfrwt>
<pdfrwt beam="2">  1       21 0.31292318E+00 0.19709797E+03</pdfrwt>
<totfact> 0.14850690E+04</totfact>
</mgrwt>
</event>
<event>
 4    1  0.3875622E-001  0.1789607E+03  0.7546771E-02  0.1168813E+00
         21   -1    0    0  501  502  0.00000000000E+00  0.00000000000E+00  0.93050653464E+03  0.93050653464E+03  0.00000000000E+00 0.  1.
         21   -1    0    0  502  503 -0.00000000000E+00 -0.00000000000E+00 -0.34791069257E+02  0.34791069257E+02  0.00000000000E+00 0.  1.
          6    1    1    2  501    0  0.55631704979E+01 -0.45463904655E+02  0.39793162611E+03  0.43632154949E+03  0.17300000000E+03 0.  1.
         -6    1    1    2    0  503 -0.55631704979E+01  0.45463904655E+02  0.49778383927E+03  0.52897605441E+03  0.17300000000E+03 0.  1.
<mgrwt>
<rscale>  2 0.17896065E+03</rscale>
<asrwt>0</asrwt>
<pdfrwt beam="1">  1       21 0.14315483E+00 0.17896065E+03</pdfrwt>
<pdfrwt beam="2">  1       21 0.53524729E-02 0.17896065E+03</pdfrwt>
<totfact> 0.81471387E+04</totfact>
</mgrwt>
</event>
<event>
 4    1  0.3875622E-001  0.3088855E+03  0.7546771E-02  0.1080881E+00
         21   -1    0    0  501  502  0.00000000000E+00  0.00000000000E+00  0.30449246493E+03  0.30449246493E+03  0.00000000000E+00 0.  1.
         21   -1    0    0  502  503 -0.00000000000E+00 -0.00000000000E+00 -0.31404226300E+03  0.31404226300E+03  0.00000000000E+00 0.  1.
          6    1    1    2  501    0  0.13598858951E+03 -0.21676792472E+03  0.98307143516E+01  0.30904186222E+03  0.17300000000E+03 0.  1.
         -6    1    1    2    0  503 -0.13598858951E+03  0.21676792472E+03 -0.19380512422E+02  0.30949286571E+03  0.17300000000E+03 0.  1.
<mgrwt>
<rscale>  2 0.30888546E+03</rscale>
<asrwt>0</asrwt>
<pdfrwt beam="1">  1       21 0.46844995E-01 0.30888546E+03</pdfrwt>
<pdfrwt beam="2">  1       21 0.48314194E-01 0.30888546E+03</pdfrwt>
<totfact> 0.16841073E+04</totfact>
</mgrwt>
</event>
<event>
 4    1  0.3875622E-001  0.2328526E+03  0.7546771E-02  0.1124648E+00
         21   -1    0    0  503  502  0.00000000000E+00  0.00000000000E+00  0.98215807662E+02  0.98215807662E+02  0.00000000000E+00 0. -1.
         21   -1    0    0  501  503 -0.00000000000E+00 -0.00000000000E+00 -0.57168126026E+03  0.57168126026E+03  0.00000000000E+00 0.  1.
          6    1    1    2  501    0  0.16373907109E+02 -0.15499433871E+03 -0.29879674770E+03  0.37881373563E+03  0.17300000000E+03 0.  1.
         -6    1    1    2    0  502 -0.16373907109E+02  0.15499433871E+03 -0.17466870490E+03  0.29108333229E+03  0.17300000000E+03 0. -1.
<mgrwt>
<rscale>  2 0.23285264E+03</rscale>
<asrwt>0</asrwt>
<pdfrwt beam="1">  1       21 0.15110124E-01 0.23285264E+03</pdfrwt>
<pdfrwt beam="2">  1       21 0.87950965E-01 0.23285264E+03</pdfrwt>
<totfact> 0.42040784E+04</totfact>
</mgrwt>
</event>
<event>
 4    1  0.3875622E-001  0.1816132E+03  0.7546771E-02  0.1166251E+00
         21   -1    0    0  503  502  0.00000000000E+00  0.00000000000E+00  0.11528970971E+04  0.11528970971E+04  0.00000000000E+00 0.  1.
         21   -1    0    0  501  503 -0.00000000000E+00 -0.00000000000E+00 -0.29064463282E+02  0.29064463282E+02  0.00000000000E+00 0.  1.
          6    1    1    2  501    0  0.10667604994E+02  0.54226976117E+02  0.63588795787E+03  0.66131449228E+03  0.17300000000E+03 0. -1.
         -6    1    1    2    0  502 -0.10667604994E+02 -0.54226976117E+02  0.48794467591E+03  0.52064706807E+03  0.17300000000E+03 0. -1.
<mgrwt>
<rscale>  2 0.18161322E+03</rscale>
<asrwt>0</asrwt>
<pdfrwt beam="1">  1       21 0.17736875E+00 0.18161322E+03</pdfrwt>
<pdfrwt beam="2">  1       21 0.44714568E-02 0.18161322E+03</pdfrwt>
<totfact> 0.62020343E+04</totfact>
</mgrwt>
</event>
<event>
 4    1  0.3875622E-001  0.1808458E+03  0.7546771E-02  0.1166987E+00
         21   -1    0    0  503  502  0.00000000000E+00  0.00000000000E+00  0.33949548849E+03  0.33949548849E+03  0.00000000000E+00 0.  1.
         21   -1    0    0  501  503 -0.00000000000E+00 -0.00000000000E+00 -0.26412671394E+03  0.26412671394E+03  0.00000000000E+00 0.  1.
          6    1    1    2  501    0 -0.34564018441E+02  0.39768616480E+02 -0.20287074100E+03  0.27177518611E+03  0.17300000000E+03 0.  1.
         -6    1    1    2    0  502  0.34564018441E+02 -0.39768616480E+02  0.27823951556E+03  0.33184701633E+03  0.17300000000E+03 0.  1.
<mgrwt>
<rscale>  2 0.18084583E+03</rscale>
<asrwt>0</asrwt>
<pdfrwt beam="1">  1       21 0.52230075E-01 0.18084583E+03</pdfrwt>
<pdfrwt beam="2">  1       21 0.40634879E-01 0.18084583E+03</pdfrwt>
<totfact> 0.20435436E+04</totfact>
</mgrwt>
</event>
<event>
 4    1  0.3875622E-001  0.1808020E+03  0.7546771E-02  0.1167029E+00
         21   -1    0    0  503  502  0.00000000000E+00  0.00000000000E+00  0.22939048283E+04  0.22939048283E+04  0.00000000000E+00 0. -1.
         21   -1    0    0  501  503 -0.00000000000E+00 -0.00000000000E+00 -0.14292689497E+02  0.14292689497E+02  0.00000000000E+00 0.  1.
          6    1    1    2  501    0  0.16789232419E+02 -0.49784300679E+02  0.10771238805E+04  0.10921928442E+04  0.17300000000E+03 0.  1.
         -6    1    1    2    0  502 -0.16789232419E+02  0.49784300679E+02  0.12024882583E+04  0.12160046736E+04  0.17300000000E+03 0. -1.
<mgrwt>
<rscale>  2 0.18080198E+03</rscale>
<asrwt>0</asrwt>
<pdfrwt beam="1">  1       21 0.35290814E+00 0.18080198E+03</pdfrwt>
<pdfrwt beam="2">  1       21 0.21988771E-02 0.18080198E+03</pdfrwt>
<totfact> 0.17973908E+04</totfact>
</mgrwt>
</event>
<event>
 4    1  0.3875622E-001  0.2613845E+03  0.7546771E-02  0.1106314E+00
         21   -1    0    0  501  502  0.00000000000E+00  0.00000000000E+00  0.11408943900E+04  0.11408943900E+04  0.00000000000E+00 0. -1.
         21   -1    0    0  502  503 -0.00000000000E+00 -0.00000000000E+00 -0.59930411781E+02  0.59930411781E+02  0.00000000000E+00 0.  1.
          6    1    1    2  501    0  0.82504781572E+02 -0.17772405664E+03  0.55710206115E+03  0.61537353358E+03  0.17300000000E+03 0.  1.
         -6    1    1    2    0  503 -0.82504781572E+02  0.17772405664E+03  0.52386191711E+03  0.58545126824E+03  0.17300000000E+03 0.  1.
<mgrwt>
<rscale>  2 0.26138454E+03</rscale>
<asrwt>0</asrwt>
<pdfrwt beam="1">  1       21 0.17552220E+00 0.26138454E+03</pdfrwt>
<pdfrwt beam="2">  1       21 0.92200642E-02 0.26138454E+03</pdfrwt>
<totfact> 0.17492489E+04</totfact>
</mgrwt>
</event>
<event>
 4    1  0.3875622E-001  0.1970235E+03  0.7546771E-02  0.1152275E+00
         21   -1    0    0  501  502  0.00000000000E+00  0.00000000000E+00  0.20910115114E+03  0.20910115114E+03  0.00000000000E+00 0.  1.
         21   -1    0    0  502  503 -0.00000000000E+00 -0.00000000000E+00 -0.20575674896E+03  0.20575674896E+03  0.00000000000E+00 0. -1.
          6    1    1    2  501    0 -0.93475208370E+02 -0.12313792580E+02  0.66525900580E+02  0.20795177209E+03  0.17300000000E+03 0.  1.
         -6    1    1    2    0  503  0.93475208370E+02  0.12313792580E+02 -0.63181498395E+02  0.20690612801E+03  0.17300000000E+03 0. -1.
<mgrwt>
<rscale>  2 0.19702346E+03</rscale>
<asrwt>0</asrwt>
<pdfrwt beam="1">  1       21 0.32169408E-01 0.19702346E+03</pdfrwt>
<pdfrwt beam="2">  1       21 0.31654884E-01 0.19702346E+03</pdfrwt>
<totfact> 0.89022308E+04</totfact>
</mgrwt>
</event>
<event>
 4    1  0.3875622E-001  0.1862611E+03  0.7546771E-02  0.1161877E+00
         21   -1    0    0  501  502  0.00000000000E+00  0.00000000000E+00  0.10032060481E+03  0.10032060481E+03  0.00000000000E+00 0.  1.
         21   -1    0    0  502  503 -0.00000000000E+00 -0.00000000000E+00 -0.40707074571E+03  0.40707074571E+03  0.00000000000E+00 0.  1.
          6    1    1    2  501    0  0.41958348568E+02  0.54805950734E+02 -0.54968891576E+02  0.19420292040E+03  0.17300000000E+03 0.  1.
         -6    1    1    2    0  503 -0.41958348568E+02 -0.54805950734E+02 -0.25178124932E+03  0.31318843012E+03  0.17300000000E+03 0.  1.
<mgrwt>
<rscale>  2 0.18626109E+03</rscale>
<asrwt>0</asrwt>
<pdfrwt beam="1">  1       21 0.15433939E-01 0.18626109E+03</pdfrwt>
<pdfrwt beam="2">  1       21 0.62626270E-01 0.18626109E+03</pdfrwt>
<totfact> 0.88213666E+04</totfact>
</mgrwt>
</event>
<event>
 4    1  0.3875622E-001  0.2964178E+03  0.7546771E-02  0.1087045E+00
         21   -1    0    0  503  502  0.00000000000E+00  0.00000000000E+00  0.86635733482E+03  0.86635733482E+03  0.00000000000E+00 0. -1.
         21   -1    0    0  501  503 -0.00000000000E+00 -0.00000000000E+00 -0.13381396022E+03  0.13381396022E+03  0.00000000000E+00 0.  1.
          6    1    1    2  501    0 -0.24016966719E+03  0.15906560090E+02  0.12020952501E+03  0.31986531165E+03  0.17300000000E+03 0.  1.
         -6    1    1    2    0  502  0.24016966719E+03 -0.15906560090E+02  0.61233384959E+03  0.68030598340E+03  0.17300000000E+03 0. -1.
<mgrwt>
<rscale>  2 0.29641776E+03</rscale>
<asrwt>0</asrwt>
<pdfrwt beam="1">  1       21 0.13328574E+00 0.29641776E+03</pdfrwt>
<pdfrwt beam="2">  1       21 0.20586764E-01 0.29641776E+03</pdfrwt>
<totfact> 0.83191750E+03</totfact>
</mgrwt>
</event>
<event>
 4    1  0.3875622E-001  0.2063513E+03  0.7546771E-02  0.1144488E+00
         21   -1    0    0  501  502  0.00000000000E+00  0.00000000000E+00  0.57985889504E+02  0.57985889504E+02  0.00000000000E+00 0. -1.
         21   -1    0    0  502  503 -0.00000000000E+00 -0.00000000000E+00 -0.74245978975E+03  0.74245978975E+03  0.00000000000E+00 0.  1.
          6    1    1    2  501    0  0.37957307542E+02 -0.10588249144E+03 -0.30036070190E+03  0.36441379013E+03  0.17300000000E+03 0. -1.
         -6    1    1    2    0  503 -0.37957307542E+02  0.10588249144E+03 -0.38411319834E+03  0.43603188912E+03  0.17300000000E+03 0.  1.
<mgrwt>
<rscale>  2 0.20635130E+03</rscale>
<asrwt>0</asrwt>
<pdfrwt beam="1">  1       21 0.89209071E-02 0.20635130E+03</pdfrwt>
<pdfrwt beam="2">  1       21 0.11422457E+00 0.20635130E+03</pdfrwt>
<totfact> 0.58719913E+04</totfact>
</mgrwt>
</event>
<event>
 4    1  0.3875622E-001  0.2125823E+03  0.7546771E-02  0.1139537E+00
         21   -1    0    0  501  502  0.00000000000E+00  0.00000000000E+00  0.59688559610E+02  0.59688559610E+02  0.00000000000E+00 0. -1.
         21   -1    0    0  502  503 -0.00000000000E+00 -0.00000000000E+00 -0.80266762075E+03  0.80266762075E+03  0.00000000000E+00 0. -1.
          6    1    1    2  501    0 -0.10686020544E+03  0.61992853617E+02 -0.26877392661E+03  0.34268154463E+03  0.17300000000E+03 0. -1.
         -6    1    1    2    0  503  0.10686020544E+03 -0.61992853617E+02 -0.47420513453E+03  0.51967463573E+03  0.17300000000E+03 0. -1.
<mgrwt>
<rscale>  2 0.21258226E+03</rscale>
<asrwt>0</asrwt>
<pdfrwt beam="1">  1       21 0.91828549E-02 0.21258226E+03</pdfrwt>
<pdfrwt beam="2">  1       21 0.12348733E+00 0.21258226E+03</pdfrwt>
<totfact> 0.45876736E+04</totfact>
</mgrwt>
</event>
<event>
 4    1  0.3875622E-001  0.2027374E+03  0.7546771E-02  0.1147450E+00
         21   -1    0    0  503  502  0.00000000000E+00  0.00000000000E+00  0.11896255945E+03  0.11896255945E+03  0.00000000000E+00 0. -1.
         21   -1    0    0  501  503 -0.00000000000E+00 -0.00000000000E+00 -0.34616679501E+03  0.34616679501E+03  0.00000000000E+00 0. -1.
          6    1    1    2  501    0  0.74248934164E+02 -0.75236670954E+02 -0.12375124833E+03  0.23752227757E+03  0.17300000000E+03 0. -1.
         -6    1    1    2    0  502 -0.74248934164E+02  0.75236670954E+02 -0.10345298723E+03  0.22760707689E+03  0.17300000000E+03 0. -1.
<mgrwt>
<rscale>  2 0.20273742E+03</rscale>
<asrwt>0</asrwt>
<pdfrwt beam="1">  1       21 0.18301932E-01 0.20273742E+03</pdfrwt>
<pdfrwt beam="2">  1       21 0.53256430E-01 0.20273742E+03</pdfrwt>
<totfact> 0.90509954E+04</totfact>
</mgrwt>
</event>
<event>
 4    1  0.3875622E-001  0.2413236E+03  0.7546771E-02  0.1118914E+00
         21   -1    0    0  503  502  0.00000000000E+00  0.00000000000E+00  0.14973504983E+03  0.14973504983E+03  0.00000000000E+00 0. -1.
         21   -1    0    0  501  503 -0.00000000000E+00 -0.00000000000E+00 -0.39185756173E+03  0.39185756173E+03  0.00000000000E+00 0. -1.
          6    1    1    2  501    0 -0.11163550211E+03  0.12587936275E+03 -0.97672279016E+02  0.26034011098E+03  0.17300000000E+03 0.  1.
         -6    1    1    2    0  502  0.11163550211E+03 -0.12587936275E+03 -0.14445023288E+03  0.28125250057E+03  0.17300000000E+03 0.  1.
<mgrwt>
<rscale>  2 0.24132364E+03</rscale>
<asrwt>0</asrwt>
<pdfrwt beam="1">  1       21 0.23036162E-01 0.24132364E+03</pdfrwt>
<pdfrwt beam="2">  1       21 0.60285778E-01 0.24132364E+03</pdfrwt>
<totfact> 0.44363427E+04</totfact>
</mgrwt>
</event>
<event>
 4    1  0.3875622E-001  0.2216900E+03  0.7546771E-02  0.1132629E+00
         21   -1    0    0  503  502  0.00000000000E+00  0.00000000000E+00  0.17944968980E+04  0.17944968980E+04  0.00000000000E+00 0.  1.
         21   -1    0    0  501  503 -0.00000000000E+00 -0.00000000000E+00 -0.27515223206E+02  0.27515223206E+02  0.00000000000E+00 0.  1.
          6    1    1    2  501    0  0.75912418258E+02 -0.11599459625E+03  0.82137624978E+03  0.85076752718E+03  0.17300000000E+03 0.  1.
         -6    1    1    2    0  502 -0.75912418258E+02  0.11599459625E+03  0.94560542506E+03  0.97124459407E+03  0.17300000000E+03 0.  1.
<mgrwt>
<rscale>  2 0.22168997E+03</rscale>
<asrwt>0</asrwt>
<pdfrwt beam="1">  1       21 0.27607635E+00 0.22168997E+03</pdfrwt>
<pdfrwt beam="2">  1       21 0.42331127E-02 0.22168997E+03</pdfrwt>
<totfact> 0.16267305E+04</totfact>
</mgrwt>
</event>
<event>
 4    1  0.3875622E-001  0.2101092E+03  0.7546771E-02  0.1141480E+00
         21   -1    0    0  501  502  0.00000000000E+00  0.00000000000E+00  0.66120809970E+02  0.66120809970E+02  0.00000000000E+00 0.  1.
         21   -1    0    0  502  503 -0.00000000000E+00 -0.00000000000E+00 -0.10050059463E+04  0.10050059463E+04  0.00000000000E+00 0.  1.
          6    1    1    2  501    0  0.11644206150E+03 -0.25654100240E+02 -0.15915273168E+03  0.26358201484E+03  0.17300000000E+03 0.  1.
         -6    1    1    2    0  503 -0.11644206150E+03  0.25654100240E+02 -0.77973240460E+03  0.80754474138E+03  0.17300000000E+03 0.  1.
<mgrwt>
<rscale>  2 0.21010923E+03</rscale>
<asrwt>0</asrwt>
<pdfrwt beam="1">  1       21 0.10172433E-01 0.21010923E+03</pdfrwt>
<pdfrwt beam="2">  1       21 0.15461629E+00 0.21010923E+03</pdfrwt>
<totfact> 0.21470137E+04</totfact>
</mgrwt>
</event>
<event>
 4    1  0.3875622E-001  0.1943741E+03  0.7546771E-02  0.1154574E+00
         21   -1    0    0  503  502  0.00000000000E+00  0.00000000000E+00  0.56352645486E+03  0.56352645486E+03  0.00000000000E+00 0.  1.
         21   -1    0    0  501  503 -0.00000000000E+00 -0.00000000000E+00 -0.79105019928E+02  0.79105019928E+02  0.00000000000E+00 0.  1.
          6    1    1    2  501    0  0.28718177767E+02 -0.83830438510E+02  0.36767361995E+03  0.41589081134E+03  0.17300000000E+03 0.  1.
         -6    1    1    2    0  502 -0.28718177767E+02  0.83830438510E+02  0.11674781498E+03  0.22674066344E+03  0.17300000000E+03 0.  1.
<mgrwt>
<rscale>  2 0.19437406E+03</rscale>
<asrwt>0</asrwt>
<pdfrwt beam="1">  1       21 0.86696375E-01 0.19437406E+03</pdfrwt>
<pdfrwt beam="2">  1       21 0.12170003E-01 0.19437406E+03</pdfrwt>
<totfact> 0.65481049E+04</totfact>
</mgrwt>
</event>
<event>
 4    1  0.3875622E-001  0.2329152E+03  0.7546771E-02  0.1124605E+00
         21   -1    0    0  501  502  0.00000000000E+00  0.00000000000E+00  0.20444063146E+03  0.20444063146E+03  0.00000000000E+00 0. -1.
         21   -1    0    0  502  503 -0.00000000000E+00 -0.00000000000E+00 -0.27762095737E+03  0.27762095737E+03  0.00000000000E+00 0. -1.
          6    1    1    2  501    0 -0.34029941374E+02 -0.15219211537E+03  0.14072219062E+02  0.23333988995E+03  0.17300000000E+03 0. -1.
         -6    1    1    2    0  503  0.34029941374E+02  0.15219211537E+03 -0.87252544973E+02  0.24872169888E+03  0.17300000000E+03 0. -1.
<mgrwt>
<rscale>  2 0.23291517E+03</rscale>
<asrwt>0</asrwt>
<pdfrwt beam="1">  1       21 0.31452405E-01 0.23291517E+03</pdfrwt>
<pdfrwt beam="2">  1       21 0.42710916E-01 0.23291517E+03</pdfrwt>
<totfact> 0.50289892E+04</totfact>
</mgrwt>
</event>
<event>
 4    1  0.3875622E-001  0.3158961E+03  0.7546771E-02  0.1077554E+00
         21   -1    0    0  503  502  0.00000000000E+00  0.00000000000E+00  0.49570599995E+02  0.49570599995E+02  0.00000000000E+00 0.  1.
         21   -1    0    0  501  503 -0.00000000000E+00 -0.00000000000E+00 -0.20352754042E+04  0.20352754042E+04  0.00000000000E+00 0.  1.
          6    1    1    2  501    0  0.23983677287E+02  0.26322254457E+03 -0.88403018589E+03  0.93877563577E+03  0.17300000000E+03 0.  1.
         -6    1    1    2    0  502 -0.23983677287E+02 -0.26322254457E+03 -0.11016746183E+04  0.11460703684E+04  0.17300000000E+03 0.  1.
<mgrwt>
<rscale>  2 0.31589607E+03</rscale>
<asrwt>0</asrwt>
<pdfrwt beam="1">  1       21 0.76262455E-02 0.31589607E+03</pdfrwt>
<pdfrwt beam="2">  1       21 0.31311932E+00 0.31589607E+03</pdfrwt>
<totfact> 0.33273747E+03</totfact>
</mgrwt>
</event>
<event>
 4    1  0.3875622E-001  0.2136326E+03  0.7546771E-02  0.1138721E+00
         21   -1    0    0  503  502  0.00000000000E+00  0.00000000000E+00  0.13157083010E+03  0.13157083010E+03  0.00000000000E+00 0. -1.
         21   -1    0    0  501  503 -0.00000000000E+00 -0.00000000000E+00 -0.38903093636E+03  0.38903093636E+03  0.00000000000E+00 0.  1.
          6    1    1    2  501    0 -0.58427211025E+02  0.11088795895E+03 -0.43045352747E+02  0.21792609027E+03  0.17300000000E+03 0. -1.
         -6    1    1    2    0  502  0.58427211025E+02 -0.11088795895E+03 -0.21441475352E+03  0.30267567619E+03  0.17300000000E+03 0.  1.
<mgrwt>
<rscale>  2 0.21363258E+03</rscale>
<asrwt>0</asrwt>
<pdfrwt beam="1">  1       21 0.20241666E-01 0.21363258E+03</pdfrwt>
<pdfrwt beam="2">  1       21 0.59850913E-01 0.21363258E+03</pdfrwt>
<totfact> 0.58227224E+04</totfact>
</mgrwt>
</event>
<event>
 4    1  0.3875622E-001  0.2278390E+03  0.7546771E-02  0.1128170E+00
         21   -1    0    0  503  502  0.00000000000E+00  0.00000000000E+00  0.25987827983E+03  0.25987827983E+03  0.00000000000E+00 0. -1.
         21   -1    0    0  501  503 -0.00000000000E+00 -0.00000000000E+00 -0.29378428907E+03  0.29378428907E+03  0.00000000000E+00 0.  1.
          6    1    1    2  501    0  0.13597227983E+03 -0.59102685235E+02 -0.17357216047E+03  0.28642256052E+03  0.17300000000E+03 0.  1.
         -6    1    1    2    0  502 -0.13597227983E+03  0.59102685235E+02  0.13966615122E+03  0.26724000839E+03  0.17300000000E+03 0. -1.
<mgrwt>
<rscale>  2 0.22783895E+03</rscale>
<asrwt>0</asrwt>
<pdfrwt beam="1">  1       21 0.39981274E-01 0.22783895E+03</pdfrwt>
<pdfrwt beam="2">  1       21 0.45197583E-01 0.22783895E+03</pdfrwt>
<totfact> 0.27787492E+04</totfact>
</mgrwt>
</event>
<event>
 4    1  0.3875622E-001  0.2322666E+03  0.7546771E-02  0.1125055E+00
         21   -1    0    0  503  502  0.00000000000E+00  0.00000000000E+00  0.72651805690E+03  0.72651805690E+03  0.00000000000E+00 0.  1.
         21   -1    0    0  501  503 -0.00000000000E+00 -0.00000000000E+00 -0.94632432985E+02  0.94632432985E+02  0.00000000000E+00 0.  1.
          6    1    1    2  501    0 -0.81246057202E+02  0.13197673376E+03  0.12542094498E+03  0.26396627342E+03  0.17300000000E+03 0.  1.
         -6    1    1    2    0  502  0.81246057202E+02 -0.13197673376E+03  0.50646467893E+03  0.55718421646E+03  0.17300000000E+03 0.  1.
<mgrwt>
<rscale>  2 0.23226661E+03</rscale>
<asrwt>0</asrwt>
<pdfrwt beam="1">  1       21 0.11177201E+00 0.23226661E+03</pdfrwt>
<pdfrwt beam="2">  1       21 0.14558836E-01 0.23226661E+03</pdfrwt>
<totfact> 0.25441164E+04</totfact>
</mgrwt>
</event>
<event>
 4    1  0.3875622E-001  0.1808678E+03  0.7546771E-02  0.1166966E+00
         21   -1    0    0  501  502  0.00000000000E+00  0.00000000000E+00  0.11395049708E+04  0.11395049708E+04  0.00000000000E+00 0.  1.
         21   -1    0    0  502  503 -0.00000000000E+00 -0.00000000000E+00 -0.65382784318E+02  0.65382784318E+02  0.00000000000E+00 0.  1.
          6    1    1    2  501    0 -0.49296264136E+02  0.18815859055E+02  0.98825931293E+03  0.10046738913E+04  0.17300000000E+03 0.  1.
         -6    1    1    2    0  503  0.49296264136E+02 -0.18815859055E+02  0.85862873501E+02  0.20021386379E+03  0.17300000000E+03 0.  1.
<mgrwt>
<rscale>  2 0.18086779E+03</rscale>
<asrwt>0</asrwt>
<pdfrwt beam="1">  1       21 0.17530844E+00 0.18086779E+03</pdfrwt>
<pdfrwt beam="2">  1       21 0.10058891E-01 0.18086779E+03</pdfrwt>
<totfact> 0.15876619E+04</totfact>
</mgrwt>
</event>
<event>
 4    1  0.3875622E-001  0.1924313E+03  0.7546771E-02  0.1156287E+00
         21   -1    0    0  503  502  0.00000000000E+00  0.00000000000E+00  0.18630421368E+03  0.18630421368E+03  0.00000000000E+00 0.  1.
         21   -1    0    0  501  503 -0.00000000000E+00 -0.00000000000E+00 -0.23019108553E+03  0.23019108553E+03  0.00000000000E+00 0.  1.
          6    1    1    2  501    0 -0.74720695175E+02  0.38956525328E+02 -0.98894875354E+02  0.21635616359E+03  0.17300000000E+03 0.  1.
         -6    1    1    2    0  502  0.74720695175E+02 -0.38956525328E+02  0.55008003506E+02  0.20013913561E+03  0.17300000000E+03 0.  1.
<mgrwt>
<rscale>  2 0.19243127E+03</rscale>
<asrwt>0</asrwt>
<pdfrwt beam="1">  1       21 0.28662187E-01 0.19243127E+03</pdfrwt>
<pdfrwt beam="2">  1       21 0.35414013E-01 0.19243127E+03</pdfrwt>
<totfact> 0.89531633E+04</totfact>
</mgrwt>
</event>
<event>
 4    1  0.3875622E-001  0.2095414E+03  0.7546771E-02  0.1141930E+00
         21   -1    0    0  503  502  0.00000000000E+00  0.00000000000E+00  0.73046272380E+02  0.73046272380E+02  0.00000000000E+00 0. -1.
         21   -1    0    0  501  503 -0.00000000000E+00 -0.00000000000E+00 -0.78464089107E+03  0.78464089107E+03  0.00000000000E+00 0. -1.
          6    1    1    2  501    0  0.99794911633E+02  0.63400259671E+02 -0.56321123609E+03  0.60092804375E+03  0.17300000000E+03 0. -1.
         -6    1    1    2    0  502 -0.99794911633E+02 -0.63400259671E+02 -0.14838338260E+03  0.25675911969E+03  0.17300000000E+03 0. -1.
<mgrwt>
<rscale>  2 0.20954145E+03</rscale>
<asrwt>0</asrwt>
<pdfrwt beam="1">  1       21 0.11237888E-01 0.20954145E+03</pdfrwt>
<pdfrwt beam="2">  1       21 0.12071398E+00 0.20954145E+03</pdfrwt>
<totfact> 0.34001645E+04</totfact>
</mgrwt>
</event>
<event>
 4    1  0.3875622E-001  0.2192255E+03  0.7546771E-02  0.1134462E+00
         21   -1    0    0  501  502  0.00000000000E+00  0.00000000000E+00  0.14606500303E+03  0.14606500303E+03  0.00000000000E+00 0. -1.
         21   -1    0    0  502  503 -0.00000000000E+00 -0.00000000000E+00 -0.38567075047E+03  0.38567075047E+03  0.00000000000E+00 0. -1.
          6    1    1    2  501    0  0.64089908099E+02  0.11842011291E+03 -0.17915553872E+02  0.21995637416E+03  0.17300000000E+03 0. -1.
         -6    1    1    2    0  503 -0.64089908099E+02 -0.11842011291E+03 -0.22169019357E+03  0.31177937935E+03  0.17300000000E+03 0. -1.
<mgrwt>
<rscale>  2 0.21922554E+03</rscale>
<asrwt>0</asrwt>
<pdfrwt beam="1">  1       21 0.22471539E-01 0.21922554E+03</pdfrwt>
<pdfrwt beam="2">  1       21 0.59333961E-01 0.21922554E+03</pdfrwt>
<totfact> 0.48596153E+04</totfact>
</mgrwt>
</event>
<event>
 4    1  0.3875622E-001  0.2446449E+03  0.7546771E-02  0.1116737E+00
         21   -1    0    0  501  502  0.00000000000E+00  0.00000000000E+00  0.98578311207E+03  0.98578311207E+03  0.00000000000E+00 0. -1.
         21   -1    0    0  502  503 -0.00000000000E+00 -0.00000000000E+00 -0.77767136851E+02  0.77767136851E+02  0.00000000000E+00 0.  1.
          6    1    1    2  501    0 -0.64377484767E+02  0.16055418991E+03  0.70302474905E+03  0.74437551425E+03  0.17300000000E+03 0.  1.
         -6    1    1    2    0  503  0.64377484767E+02 -0.16055418991E+03  0.20499122617E+03  0.31917473467E+03  0.17300000000E+03 0. -1.
<mgrwt>
<rscale>  2 0.24464486E+03</rscale>
<asrwt>0</asrwt>
<pdfrwt beam="1">  1       21 0.15165893E+00 0.24464486E+03</pdfrwt>
<pdfrwt beam="2">  1       21 0.11964176E-01 0.24464486E+03</pdfrwt>
<totfact> 0.16569234E+04</totfact>
</mgrwt>
</event>
<event>
 4    1  0.3875622E-001  0.2435179E+03  0.7546771E-02  0.1117471E+00
         21   -1    0    0  501  502  0.00000000000E+00  0.00000000000E+00  0.18279047249E+03  0.18279047249E+03  0.00000000000E+00 0.  1.
         21   -1    0    0  502  503 -0.00000000000E+00 -0.00000000000E+00 -0.36385514034E+03  0.36385514034E+03  0.00000000000E+00 0. -1.
          6    1    1    2  501    0 -0.15708496038E+03 -0.68529334789E+02 -0.55125048549E+00  0.24351849700E+03  0.17300000000E+03 0.  1.
         -6    1    1    2    0  503  0.15708496038E+03  0.68529334789E+02 -0.18051341737E+03  0.30312711583E+03  0.17300000000E+03 0. -1.
<mgrwt>
<rscale>  2 0.24351787E+03</rscale>
<asrwt>0</asrwt>
<pdfrwt beam="1">  1       21 0.28121611E-01 0.24351787E+03</pdfrwt>
<pdfrwt beam="2">  1       21 0.55977714E-01 0.24351787E+03</pdfrwt>
<totfact> 0.35410549E+04</totfact>
</mgrwt>
</event>
<event>
 4    1  0.3875622E-001  0.1740461E+03  0.7546771E-02  0.1173693E+00
         21   -1    0    0  501  502  0.00000000000E+00  0.00000000000E+00  0.14983790955E+03  0.14983790955E+03  0.00000000000E+00 0. -1.
         21   -1    0    0  502  503 -0.00000000000E+00 -0.00000000000E+00 -0.20968661578E+03  0.20968661578E+03  0.00000000000E+00 0. -1.
          6    1    1    2  501    0 -0.58830446529E+01 -0.18123086709E+02  0.41207140833E+01  0.17409490737E+03  0.17300000000E+03 0. -1.
         -6    1    1    2    0  503  0.58830446529E+01  0.18123086709E+02 -0.63969420314E+02  0.18542961797E+03  0.17300000000E+03 0. -1.
<mgrwt>
<rscale>  2 0.17404613E+03</rscale>
<asrwt>0</asrwt>
<pdfrwt beam="1">  1       21 0.23051986E-01 0.17404613E+03</pdfrwt>
<pdfrwt beam="2">  1       21 0.32259479E-01 0.17404613E+03</pdfrwt>
<totfact> 0.16432626E+05</totfact>
</mgrwt>
</event>
<event>
 4    1  0.3875622E-001  0.1776660E+03  0.7546771E-02  0.1170081E+00
         21   -1    0    0  503  502  0.00000000000E+00  0.00000000000E+00  0.21801936804E+03  0.21801936804E+03  0.00000000000E+00 0.  1.
         21   -1    0    0  501  503 -0.00000000000E+00 -0.00000000000E+00 -0.14482582325E+03  0.14482582325E+03  0.00000000000E+00 0.  1.
          6    1    1    2  501    0 -0.38963302679E+02 -0.10865283024E+02  0.39766958689E+02  0.18206208923E+03  0.17300000000E+03 0. -1.
         -6    1    1    2    0  502  0.38963302679E+02  0.10865283024E+02  0.33426586099E+02  0.18078310206E+03  0.17300000000E+03 0. -1.
<mgrwt>
<rscale>  2 0.17766596E+03</rscale>
<asrwt>0</asrwt>
<pdfrwt beam="1">  1       21 0.33541441E-01 0.17766596E+03</pdfrwt>
<pdfrwt beam="2">  1       21 0.22280896E-01 0.17766596E+03</pdfrwt>
<totfact> 0.16210780E+05</totfact>
</mgrwt>
</event>
<event>
 4    1  0.3875622E-001  0.2595663E+03  0.7546771E-02  0.1107404E+00
         21   -1    0    0  503  502  0.00000000000E+00  0.00000000000E+00  0.40931555299E+03  0.40931555299E+03  0.00000000000E+00 0. -1.
         21   -1    0    0  501  503 -0.00000000000E+00 -0.00000000000E+00 -0.21950661401E+03  0.21950661401E+03  0.00000000000E+00 0. -1.
          6    1    1    2  501    0  0.14678552571E+03  0.12609386062E+03 -0.62339389664E+02  0.26694728271E+03  0.17300000000E+03 0. -1.
         -6    1    1    2    0  502 -0.14678552571E+03 -0.12609386062E+03  0.25214832864E+03  0.36187488429E+03  0.17300000000E+03 0. -1.
<mgrwt>
<rscale>  2 0.25956628E+03</rscale>
<asrwt>0</asrwt>
<pdfrwt beam="1">  1       21 0.62971624E-01 0.25956628E+03</pdfrwt>
<pdfrwt beam="2">  1       21 0.33770248E-01 0.25956628E+03</pdfrwt>
<totfact> 0.19020357E+04</totfact>
</mgrwt>
</event>
<event>
 4    1  0.3875622E-001  0.1854884E+03  0.7546771E-02  0.1162595E+00
         21   -1    0    0  501  502  0.00000000000E+00  0.00000000000E+00  0.74945710769E+03  0.74945710769E+03  0.00000000000E+00 0.  1.
         21   -1    0    0  502  503 -0.00000000000E+00 -0.00000000000E+00 -0.50754086313E+02  0.50754086313E+02  0.00000000000E+00 0.  1.
          6    1    1    2  501    0  0.31031953520E+02 -0.59278707115E+02  0.47298679824E+03  0.50805753470E+03  0.17300000000E+03 0.  1.
         -6    1    1    2    0  503 -0.31031953520E+02  0.59278707115E+02  0.22571622314E+03  0.29215365930E+03  0.17300000000E+03 0.  1.
<mgrwt>
<rscale>  2 0.18548840E+03</rscale>
<asrwt>0</asrwt>
<pdfrwt beam="1">  1       21 0.11530109E+00 0.18548840E+03</pdfrwt>
<pdfrwt beam="2">  1       21 0.78083215E-02 0.18548840E+03</pdfrwt>
<totfact> 0.73160053E+04</totfact>
</mgrwt>
</event>
<event>
 4    1  0.3875622E-001  0.2250514E+03  0.7546771E-02  0.1130172E+00
         21   -1    0    0  503  502  0.00000000000E+00  0.00000000000E+00  0.47938710862E+02  0.47938710862E+02  0.00000000000E+00 0.  1.
         21   -1    0    0  501  503 -0.00000000000E+00 -0.00000000000E+00 -0.12553761313E+04  0.12553761313E+04  0.00000000000E+00 0. -1.
          6    1    1    2  501    0 -0.78001102386E+02  0.12097498213E+03 -0.86307926187E+03  0.89193829974E+03  0.17300000000E+03 0.  1.
         -6    1    1    2    0  502  0.78001102386E+02 -0.12097498213E+03 -0.34435815852E+03  0.41137654238E+03  0.17300000000E+03 0.  1.
<mgrwt>
<rscale>  2 0.22505137E+03</rscale>
<asrwt>0</asrwt>
<pdfrwt beam="1">  1       21 0.73751861E-02 0.22505137E+03</pdfrwt>
<pdfrwt beam="2">  1       21 0.19313479E+00 0.22505137E+03</pdfrwt>
<totfact> 0.20088505E+04</totfact>
</mgrwt>
</event>
<event>
 4    1  0.3875622E-001  0.1865264E+03  0.7546771E-02  0.1161632E+00
         21   -1    0    0  501  502  0.00000000000E+00  0.00000000000E+00  0.25562887190E+03  0.25562887190E+03  0.00000000000E+00 0.  1.
         21   -1    0    0  502  503 -0.00000000000E+00 -0.00000000000E+00 -0.14010394639E+03  0.14010394639E+03  0.00000000000E+00 0.  1.
          6    1    1    2  501    0 -0.67910834674E+02  0.15850367532E+02  0.91195297469E+02  0.20762634201E+03  0.17300000000E+03 0.  1.
         -6    1    1    2    0  503  0.67910834674E+02 -0.15850367532E+02  0.24329628034E+02  0.18810647628E+03  0.17300000000E+03 0.  1.
<mgrwt>
<rscale>  2 0.18652645E+03</rscale>
<asrwt>0</asrwt>
<pdfrwt beam="1">  1       21 0.39327519E-01 0.18652645E+03</pdfrwt>
<pdfrwt beam="2">  1       21 0.21554453E-01 0.18652645E+03</pdfrwt>
<totfact> 0.12531093E+05</totfact>
</mgrwt>
</event>
<event>
 4    1  0.3875622E-001  0.2182814E+03  0.7546771E-02  0.1135171E+00
         21   -1    0    0  503  502  0.00000000000E+00  0.00000000000E+00  0.69274393550E+03  0.69274393550E+03  0.00000000000E+00 0. -1.
         21   -1    0    0  501  503 -0.00000000000E+00 -0.00000000000E+00 -0.70794565782E+02  0.70794565782E+02  0.00000000000E+00 0. -1.
          6    1    1    2  501    0 -0.10775294724E+03 -0.78147835067E+02  0.37537892273E+03  0.43423048879E+03  0.17300000000E+03 0. -1.
         -6    1    1    2    0  502  0.10775294724E+03  0.78147835067E+02  0.24657044699E+03  0.32930801249E+03  0.17300000000E+03 0. -1.
<mgrwt>
<rscale>  2 0.21828143E+03</rscale>
<asrwt>0</asrwt>
<pdfrwt beam="1">  1       21 0.10657599E+00 0.21828143E+03</pdfrwt>
<pdfrwt beam="2">  1       21 0.10891472E-01 0.21828143E+03</pdfrwt>
<totfact> 0.48531143E+04</totfact>
</mgrwt>
</event>
<event>
 4    1  0.3875622E-001  0.1920224E+03  0.7546771E-02  0.1156650E+00
         21   -1    0    0  501  502  0.00000000000E+00  0.00000000000E+00  0.42501637768E+02  0.42501637768E+02  0.00000000000E+00 0. -1.
         21   -1    0    0  502  503 -0.00000000000E+00 -0.00000000000E+00 -0.12043821942E+04  0.12043821942E+04  0.00000000000E+00 0. -1.
          6    1    1    2  501    0  0.45037633885E+02 -0.70108510457E+02 -0.25124240601E+03  0.31622039511E+03  0.17300000000E+03 0. -1.
         -6    1    1    2    0  503 -0.45037633885E+02  0.70108510457E+02 -0.91063815041E+03  0.93066343685E+03  0.17300000000E+03 0. -1.
<mgrwt>
<rscale>  2 0.19202237E+03</rscale>
<asrwt>0</asrwt>
<pdfrwt beam="1">  1       21 0.65387132E-02 0.19202237E+03</pdfrwt>
<pdfrwt beam="2">  1       21 0.18528958E+00 0.19202237E+03</pdfrwt>
<totfact> 0.28528185E+04</totfact>
</mgrwt>
</event>
<event>
 4    1  0.3875622E-001  0.1954495E+03  0.7546771E-02  0.1153636E+00
         21   -1    0    0  503  502  0.00000000000E+00  0.00000000000E+00  0.23457056851E+03  0.23457056851E+03  0.00000000000E+00 0.  1.
         21   -1    0    0  501  503 -0.00000000000E+00 -0.00000000000E+00 -0.20902279065E+03  0.20902279065E+03  0.00000000000E+00 0.  1.
          6    1    1    2  501    0  0.38971957713E+02  0.82174799664E+02 -0.91466822005E+02  0.21579316652E+03  0.17300000000E+03 0.  1.
         -6    1    1    2    0  502 -0.38971957713E+02 -0.82174799664E+02  0.11701459987E+03  0.22780019265E+03  0.17300000000E+03 0.  1.
<mgrwt>
<rscale>  2 0.19544951E+03</rscale>
<asrwt>0</asrwt>
<pdfrwt beam="1">  1       21 0.36087780E-01 0.19544951E+03</pdfrwt>
<pdfrwt beam="2">  1       21 0.32157352E-01 0.19544951E+03</pdfrwt>
<totfact> 0.68796825E+04</totfact>
</mgrwt>
</event>
<event>
 4    1  0.3875622E-001  0.2169077E+03  0.7546771E-02  0.1136210E+00
         21   -1    0    0  503  502  0.00000000000E+00  0.00000000000E+00  0.21704454451E+03  0.21704454451E+03  0.00000000000E+00 0.  1.
         21   -1    0    0  501  503 -0.00000000000E+00 -0.00000000000E+00 -0.21696359798E+03  0.21696359798E+03  0.00000000000E+00 0.  1.
          6    1    1    2  501    0 -0.12853602571E+03 -0.24463114984E+02 -0.64257003618E+01  0.21700286525E+03  0.17300000000E+03 0.  1.
         -6    1    1    2    0  502  0.12853602571E+03  0.24463114984E+02  0.65066468900E+01  0.21700527725E+03  0.17300000000E+03 0.  1.
<mgrwt>
<rscale>  2 0.21690771E+03</rscale>
<asrwt>0</asrwt>
<pdfrwt beam="1">  1       21 0.33391468E-01 0.21690771E+03</pdfrwt>
<pdfrwt beam="2">  1       21 0.33379015E-01 0.21690771E+03</pdfrwt>
<totfact> 0.73884797E+04</totfact>
</mgrwt>
</event>
<event>
 4    1  0.3875622E-001  0.2046344E+03  0.7546771E-02  0.1145887E+00
         21   -1    0    0  503  502  0.00000000000E+00  0.00000000000E+00  0.18654414088E+04  0.18654414088E+04  0.00000000000E+00 0.  1.
         21   -1    0    0  501  503 -0.00000000000E+00 -0.00000000000E+00 -0.29143231672E+02  0.29143231672E+02  0.00000000000E+00 0. -1.
          6    1    1    2  501    0  0.10894847335E+03 -0.87453691804E+01  0.46410183675E+03  0.50721372832E+03  0.17300000000E+03 0. -1.
         -6    1    1    2    0  502 -0.10894847335E+03  0.87453691804E+01  0.13721963404E+04  0.13873709121E+04  0.17300000000E+03 0.  1.
<mgrwt>
<rscale>  2 0.20463443E+03</rscale>
<asrwt>0</asrwt>
<pdfrwt beam="1">  1       21 0.28699089E+00 0.20463443E+03</pdfrwt>
<pdfrwt beam="2">  1       21 0.44835756E-02 0.20463443E+03</pdfrwt>
<totfact> 0.12963131E+04</totfact>
</mgrwt>
</event>
<event>
 4    1  0.3875622E-001  0.1786805E+03  0.7546771E-02  0.1169086E+00
         21   -1    0    0  501  502  0.00000000000E+00  0.00000000000E+00  0.10146008648E+04  0.10146008648E+04  0.00000000000E+00 0.  1.
         21   -1    0    0  502  503 -0.00000000000E+00 -0.00000000000E+00 -0.31774871778E+02  0.31774871778E+02  0.00000000000E+00 0.  1.
          6    1    1    2  501    0  0.44579064730E+02  0.32280405038E+01  0.43993585483E+03  0.47483709799E+03  0.17300000000E+03 0. -1.
         -6    1    1    2    0  503 -0.44579064730E+02 -0.32280405038E+01  0.54289013819E+03  0.57153863859E+03  0.17300000000E+03 0. -1.
<mgrwt>
<rscale>  2 0.17868048E+03</rscale>
<asrwt>0</asrwt>
<pdfrwt beam="1">  1       21 0.15609242E+00 0.17868048E+03</pdfrwt>
<pdfrwt beam="2">  1       21 0.48884426E-02 0.17868048E+03</pdfrwt>
<totfact> 0.75724153E+04</totfact>
</mgrwt>
</event>
<event>
 4    1  0.3875622E-001  0.1958696E+03  0.7546771E-02  0.1153271E+00
         21   -1    0    0  501  502  0.00000000000E+00  0.00000000000E+00  0.18546385670E+03  0.18546385670E+03  0.00000000000E+00 0.  1.
         21   -1    0    0  502  503 -0.00000000000E+00 -0.00000000000E+00 -0.22348871200E+03  0.22348871200E+03  0.00000000000E+00 0. -1.
          6    1    1    2  501    0  0.91048533588E+02 -0.12086420218E+02 -0.74789286950E+02  0.20966247748E+03  0.17300000000E+03 0.  1.
         -6    1    1    2    0  503 -0.91048533588E+02  0.12086420218E+02  0.36764431648E+02  0.19929009122E+03  0.17300000000E+03 0.  1.
<mgrwt>
<rscale>  2 0.19586964E+03</rscale>
<asrwt>0</asrwt>
<pdfrwt beam="1">  1       21 0.28532901E-01 0.19586964E+03</pdfrwt>
<pdfrwt beam="2">  1       21 0.34382879E-01 0.19586964E+03</pdfrwt>
<totfact> 0.95637343E+04</totfact>
</mgrwt>
</event>
<event>
 4    1  0.3875622E-001  0.1830995E+03  0.7546771E-02  0.1164837E+00
         21   -1    0    0  501  502  0.00000000000E+00  0.00000000000E+00  0.50037843352E+02  0.50037843352E+02  0.00000000000E+00 0. -1.
         21   -1    0    0  502  503 -0.00000000000E+00 -0.00000000000E+00 -0.67355194971E+03  0.67355194971E+03  0.00000000000E+00 0. -1.
          6    1    1    2  501    0 -0.50434131430E+02 -0.32447077145E+02 -0.33802570159E+03  0.38443047403E+03  0.17300000000E+03 0. -1.
         -6    1    1    2    0  503  0.50434131430E+02  0.32447077145E+02 -0.28548840477E+03  0.33915931903E+03  0.17300000000E+03 0. -1.
<mgrwt>
<rscale>  2 0.18309947E+03</rscale>
<asrwt>0</asrwt>
<pdfrwt beam="1">  1       21 0.76981296E-02 0.18309947E+03</pdfrwt>
<pdfrwt beam="2">  1       21 0.10362338E+00 0.18309947E+03</pdfrwt>
<totfact> 0.97139639E+04</totfact>
</mgrwt>
</event>
<event>
 4    1  0.3875622E-001  0.2118601E+03  0.7546771E-02  0.1140101E+00
         21   -1    0    0  501  502  0.00000000000E+00  0.00000000000E+00  0.19879273399E+03  0.19879273399E+03  0.00000000000E+00 0. -1.
         21   -1    0    0  502  503 -0.00000000000E+00 -0.00000000000E+00 -0.24337318241E+03  0.24337318241E+03  0.00000000000E+00 0. -1.
          6    1    1    2  501    0  0.12229245526E+03  0.50624980849E+00  0.37140603909E+02  0.21509096997E+03  0.17300000000E+03 0. -1.
         -6    1    1    2    0  503 -0.12229245526E+03 -0.50624980849E+00 -0.81721052324E+02  0.22707494643E+03  0.17300000000E+03 0. -1.
<mgrwt>
<rscale>  2 0.21186010E+03</rscale>
<asrwt>0</asrwt>
<pdfrwt beam="1">  1       21 0.30583498E-01 0.21186010E+03</pdfrwt>
<pdfrwt beam="2">  1       21 0.37442028E-01 0.21186010E+03</pdfrwt>
<totfact> 0.70010315E+04</totfact>
</mgrwt>
</event>
<event>
 4    1  0.3875622E-001  0.2077746E+03  0.7546771E-02  0.1143340E+00
         21   -1    0    0  503  502  0.00000000000E+00  0.00000000000E+00  0.41244586052E+03  0.41244586052E+03  0.00000000000E+00 0.  1.
         21   -1    0    0  501  503 -0.00000000000E+00 -0.00000000000E+00 -0.10468904610E+03  0.10468904610E+03  0.00000000000E+00 0.  1.
          6    1    1    2  501    0 -0.68973477447E+02  0.92108331812E+02  0.15745863765E+03  0.26069811651E+03  0.17300000000E+03 0.  1.
         -6    1    1    2    0  502  0.68973477447E+02 -0.92108331812E+02  0.15029817676E+03  0.25643679010E+03  0.17300000000E+03 0.  1.
<mgrwt>
<rscale>  2 0.20777460E+03</rscale>
<asrwt>0</asrwt>
<pdfrwt beam="1">  1       21 0.63453208E-01 0.20777460E+03</pdfrwt>
<pdfrwt beam="2">  1       21 0.16106007E-01 0.20777460E+03</pdfrwt>
<totfact> 0.78593430E+04</totfact>
</mgrwt>
</event>
<event>
 4    1  0.3875622E-001  0.2946852E+03  0.7546771E-02  0.1087928E+00
         21   -1    0    0  501  502  0.00000000000E+00  0.00000000000E+00  0.35811124357E+03  0.35811124357E+03  0.00000000000E+00 0.  1.
         21   -1    0    0  502  503 -0.00000000000E+00 -0.00000000000E+00 -0.27551020384E+03  0.27551020384E+03  0.00000000000E+00 0.  1.
          6    1    1    2  501    0 -0.12917041437E+03  0.20056264716E+03  0.15097434283E+03  0.33110817504E+03  0.17300000000E+03 0.  1.
         -6    1    1    2    0  503  0.12917041437E+03 -0.20056264716E+03 -0.68373303106E+02  0.30251327237E+03  0.17300000000E+03 0.  1.
<mgrwt>
<rscale>  2 0.29468521E+03</rscale>
<asrwt>0</asrwt>
<pdfrwt beam="1">  1       21 0.55094037E-01 0.29468521E+03</pdfrwt>
<pdfrwt beam="2">  1       21 0.42386185E-01 0.29468521E+03</pdfrwt>
<totfact> 0.15781794E+04</totfact>
</mgrwt>
</event>
<event>
 4    1  0.3875622E-001  0.4055866E+03  0.7546771E-02  0.1041862E+00
         21   -1    0    0  503  502  0.00000000000E+00  0.00000000000E+00  0.17415241709E+04  0.17415241709E+04  0.00000000000E+00 0.  1.
         21   -1    0    0  501  503 -0.00000000000E+00 -0.00000000000E+00 -0.98197544510E+02  0.98197544510E+02  0.00000000000E+00 0. -1.
          6    1    1    2  501    0  0.25400127096E+02  0.36595942541E+03  0.64215057575E+03  0.75951157294E+03  0.17300000000E+03 0. -1.
         -6    1    1    2    0  502 -0.25400127096E+02 -0.36595942541E+03  0.10011760506E+04  0.10802101424E+04  0.17300000000E+03 0.  1.
<mgrwt>
<rscale>  2 0.40558657E+03</rscale>
<asrwt>0</asrwt>
<pdfrwt beam="1">  1       21 0.26792677E+00 0.40558657E+03</pdfrwt>
<pdfrwt beam="2">  1       21 0.15107316E-01 0.40558657E+03</pdfrwt>
<totfact> 0.17062825E+03</totfact>
</mgrwt>
</event>
<event>
 4    1  0.3875622E-001  0.2576560E+03  0.7546771E-02  0.1108560E+00
         21   -1    0    0  503  502  0.00000000000E+00  0.00000000000E+00  0.44852995450E+02  0.44852995450E+02  0.00000000000E+00 0. -1.
         21   -1    0    0  501  503 -0.00000000000E+00 -0.00000000000E+00 -0.15516043193E+04  0.15516043193E+04  0.00000000000E+00 0.  1.
          6    1    1    2  501    0  0.38039299172E+02 -0.18711125165E+03 -0.92474137712E+03  0.95996521986E+03  0.17300000000E+03 0. -1.
         -6    1    1    2    0  502 -0.38039299172E+02  0.18711125165E+03 -0.58200994677E+03  0.63649209494E+03  0.17300000000E+03 0.  1.
<mgrwt>
<rscale>  2 0.25765599E+03</rscale>
<asrwt>0</asrwt>
<pdfrwt beam="1">  1       21 0.69004609E-02 0.25765599E+03</pdfrwt>
<pdfrwt beam="2">  1       21 0.23870835E+00 0.25765599E+03</pdfrwt>
<totfact> 0.11413763E+04</totfact>
</mgrwt>
</event>
<event>
 4    1  0.3875622E-001  0.2078432E+03  0.7546771E-02  0.1143285E+00
         21   -1    0    0  501  502  0.00000000000E+00  0.00000000000E+00  0.14965252700E+03  0.14965252700E+03  0.00000000000E+00 0.  1.
         21   -1    0    0  502  503 -0.00000000000E+00 -0.00000000000E+00 -0.29858381987E+03  0.29858381987E+03  0.00000000000E+00 0. -1.
          6    1    1    2  501    0  0.10998130852E+03  0.34262492260E+02 -0.33608544220E+02  0.21054296674E+03  0.17300000000E+03 0.  1.
         -6    1    1    2    0  503 -0.10998130852E+03 -0.34262492260E+02 -0.11532274864E+03  0.23769338012E+03  0.17300000000E+03 0. -1.
<mgrwt>
<rscale>  2 0.20784323E+03</rscale>
<asrwt>0</asrwt>
<pdfrwt beam="1">  1       21 0.23023466E-01 0.20784323E+03</pdfrwt>
<pdfrwt beam="2">  1       21 0.45935972E-01 0.20784323E+03</pdfrwt>
<totfact> 0.79939207E+04</totfact>
</mgrwt>
</event>
<event>
 4    1  0.3875622E-001  0.2124203E+03  0.7546771E-02  0.1139664E+00
         21   -1    0    0  501  502  0.00000000000E+00  0.00000000000E+00  0.15726626998E+03  0.15726626998E+03  0.00000000000E+00 0. -1.
         21   -1    0    0  502  503 -0.00000000000E+00 -0.00000000000E+00 -0.36658927550E+03  0.36658927550E+03  0.00000000000E+00 0.  1.
          6    1    1    2  501    0  0.10952530807E+03 -0.56547245166E+02  0.17446738679E+02  0.21313557360E+03  0.17300000000E+03 0. -1.
         -6    1    1    2    0  503 -0.10952530807E+03  0.56547245166E+02 -0.22676974420E+03  0.31071997189E+03  0.17300000000E+03 0.  1.
<mgrwt>
<rscale>  2 0.21242030E+03</rscale>
<asrwt>0</asrwt>
<pdfrwt beam="1">  1       21 0.24194811E-01 0.21242030E+03</pdfrwt>
<pdfrwt beam="2">  1       21 0.56398350E-01 0.21242030E+03</pdfrwt>
<totfact> 0.47221332E+04</totfact>
</mgrwt>
</event>
<event>
 4    1  0.3875622E-001  0.1785954E+03  0.7546771E-02  0.1169169E+00
         21   -1    0    0  501  502  0.00000000000E+00  0.00000000000E+00  0.72085064094E+02  0.72085064094E+02  0.00000000000E+00 0. -1.
         21   -1    0    0  502  503 -0.00000000000E+00 -0.00000000000E+00 -0.50345520852E+03  0.50345520852E+03  0.00000000000E+00 0.  1.
          6    1    1    2  501    0  0.10470018709E+02 -0.43101150681E+02 -0.11553864443E+03  0.21270991711E+03  0.17300000000E+03 0.  1.
         -6    1    1    2    0  503 -0.10470018709E+02  0.43101150681E+02 -0.31583150001E+03  0.36283035551E+03  0.17300000000E+03 0.  1.
<mgrwt>
<rscale>  2 0.17859544E+03</rscale>
<asrwt>0</asrwt>
<pdfrwt beam="1">  1       21 0.11090010E-01 0.17859544E+03</pdfrwt>
<pdfrwt beam="2">  1       21 0.77454648E-01 0.17859544E+03</pdfrwt>
<totfact> 0.10047544E+05</totfact>
</mgrwt>
</event>
<event>
 4    1  0.3875622E-001  0.2069065E+03  0.7546771E-02  0.1144039E+00
         21   -1    0    0  501  502  0.00000000000E+00  0.00000000000E+00  0.39987799031E+03  0.39987799031E+03  0.00000000000E+00 0. -1.
         21   -1    0    0  502  503 -0.00000000000E+00 -0.00000000000E+00 -0.11577434011E+03  0.11577434011E+03  0.00000000000E+00 0. -1.
          6    1    1    2  501    0 -0.11323804776E+03 -0.76443479641E+01  0.71309660490E+02  0.21885008384E+03  0.17300000000E+03 0. -1.
         -6    1    1    2    0  503  0.11323804776E+03  0.76443479641E+01  0.21279398971E+03  0.29680224658E+03  0.17300000000E+03 0. -1.
<mgrwt>
<rscale>  2 0.20690648E+03</rscale>
<asrwt>0</asrwt>
<pdfrwt beam="1">  1       21 0.61519690E-01 0.20690648E+03</pdfrwt>
<pdfrwt beam="2">  1       21 0.17811437E-01 0.20690648E+03</pdfrwt>
<totfact> 0.69843284E+04</totfact>
</mgrwt>
</event>
<event>
 4    1  0.3875622E-001  0.2365589E+03  0.7546771E-02  0.1122107E+00
         21   -1    0    0  501  502  0.00000000000E+00  0.00000000000E+00  0.15041118841E+04  0.15041118841E+04  0.00000000000E+00 0.  1.
         21   -1    0    0  502  503 -0.00000000000E+00 -0.00000000000E+00 -0.45590015092E+02  0.45590015092E+02  0.00000000000E+00 0. -1.
          6    1    1    2  501    0  0.71097511460E+01  0.16118493261E+03  0.39695256519E+03  0.46209465489E+03  0.17300000000E+03 0. -1.
         -6    1    1    2    0  503 -0.71097511460E+01 -0.16118493261E+03  0.10615693038E+04  0.10876072443E+04  0.17300000000E+03 0.  1.
<mgrwt>
<rscale>  2 0.23655894E+03</rscale>
<asrwt>0</asrwt>
<pdfrwt beam="1">  1       21 0.23140179E+00 0.23655894E+03</pdfrwt>
<pdfrwt beam="2">  1       21 0.70138496E-02 0.23655894E+03</pdfrwt>
<totfact> 0.12473157E+04</totfact>
</mgrwt>
</event>
<event>
 4    1  0.3875622E-001  0.2235190E+03  0.7546771E-02  0.1131286E+00
         21   -1    0    0  501  502  0.00000000000E+00  0.00000000000E+00  0.24719713482E+02  0.24719713482E+02  0.00000000000E+00 0.  1.
         21   -1    0    0  502  503 -0.00000000000E+00 -0.00000000000E+00 -0.20366567825E+04  0.20366567825E+04  0.00000000000E+00 0.  1.
          6    1    1    2  501    0  0.12090061043E+03  0.73585105047E+02 -0.91585487122E+03  0.94273584340E+03  0.17300000000E+03 0.  1.
         -6    1    1    2    0  503 -0.12090061043E+03 -0.73585105047E+02 -0.10960821978E+04  0.11186406526E+04  0.17300000000E+03 0.  1.
<mgrwt>
<rscale>  2 0.22351896E+03</rscale>
<asrwt>0</asrwt>
<pdfrwt beam="1">  1       21 0.38030328E-02 0.22351896E+03</pdfrwt>
<pdfrwt beam="2">  1       21 0.31333182E+00 0.22351896E+03</pdfrwt>
<totfact> 0.11815841E+04</totfact>
</mgrwt>
</event>
<event>
 4    1  0.3875622E-001  0.2078979E+03  0.7546771E-02  0.1143241E+00
         21   -1    0    0  501  502  0.00000000000E+00  0.00000000000E+00  0.47508434397E+03  0.47508434397E+03  0.00000000000E+00 0.  1.
         21   -1    0    0  502  503 -0.00000000000E+00 -0.00000000000E+00 -0.14030604728E+03  0.14030604728E+03  0.00000000000E+00 0.  1.
          6    1    1    2  501    0 -0.93187069842E+02  0.67887595183E+02  0.34983570471E+03  0.40694787855E+03  0.17300000000E+03 0.  1.
         -6    1    1    2    0  503  0.93187069842E+02 -0.67887595183E+02 -0.15057408017E+02  0.20844251270E+03  0.17300000000E+03 0.  1.
<mgrwt>
<rscale>  2 0.20789795E+03</rscale>
<asrwt>0</asrwt>
<pdfrwt beam="1">  1       21 0.73089898E-01 0.20789795E+03</pdfrwt>
<pdfrwt beam="2">  1       21 0.21585546E-01 0.20789795E+03</pdfrwt>
<totfact> 0.33414339E+04</totfact>
</mgrwt>
</event>
<event>
 4    1  0.3875622E-001  0.2531110E+03  0.7546771E-02  0.1111354E+00
         21   -1    0    0  501  502  0.00000000000E+00  0.00000000000E+00  0.60012192693E+02  0.60012192693E+02  0.00000000000E+00 0. -1.
         21   -1    0    0  502  503 -0.00000000000E+00 -0.00000000000E+00 -0.11066960774E+04  0.11066960774E+04  0.00000000000E+00 0.  1.
          6    1    1    2  501    0 -0.11523808218E+03 -0.14441723549E+03 -0.41360775320E+03  0.48490878214E+03  0.17300000000E+03 0. -1.
         -6    1    1    2    0  503  0.11523808218E+03  0.14441723549E+03 -0.63307613154E+03  0.68179948799E+03  0.17300000000E+03 0.  1.
<mgrwt>
<rscale>  2 0.25311095E+03</rscale>
<asrwt>0</asrwt>
<pdfrwt beam="1">  1       21 0.92326449E-02 0.25311095E+03</pdfrwt>
<pdfrwt beam="2">  1       21 0.17026094E+00 0.25311095E+03</pdfrwt>
<totfact> 0.19094075E+04</totfact>
</mgrwt>
</event>
<event>
 4    1  0.3875622E-001  0.1887763E+03  0.7546771E-02  0.1159570E+00
         21   -1    0    0  501  502  0.00000000000E+00  0.00000000000E+00  0.42046493750E+02  0.42046493750E+02  0.00000000000E+00 0.  1.
         21   -1    0    0  502  503 -0.00000000000E+00 -0.00000000000E+00 -0.84988356126E+03  0.84988356126E+03  0.00000000000E+00 0. -1.
          6    1    1    2  501    0  0.42123298567E+02  0.62714528406E+02 -0.38054749058E+03  0.42479745402E+03  0.17300000000E+03 0.  1.
         -6    1    1    2    0  503 -0.42123298567E+02 -0.62714528406E+02 -0.42728957694E+03  0.46713260100E+03  0.17300000000E+03 0. -1.
<mgrwt>
<rscale>  2 0.18877628E+03</rscale>
<asrwt>0</asrwt>
<pdfrwt beam="1">  1       21 0.64686922E-02 0.18877628E+03</pdfrwt>
<pdfrwt beam="2">  1       21 0.13075130E+00 0.18877628E+03</pdfrwt>
<totfact> 0.73969245E+04</totfact>
</mgrwt>
</event>
<event>
 4    1  0.3875622E-001  0.1918479E+03  0.7546771E-02  0.1156805E+00
         21   -1    0    0  503  502  0.00000000000E+00  0.00000000000E+00  0.23264720313E+03  0.23264720313E+03  0.00000000000E+00 0.  1.
         21   -1    0    0  501  503 -0.00000000000E+00 -0.00000000000E+00 -0.15821224292E+03  0.15821224292E+03  0.00000000000E+00 0.  1.
          6    1    1    2  501    0  0.80450123912E+02  0.20109558158E+02  0.35770057791E+02  0.19515407708E+03  0.17300000000E+03 0.  1.
         -6    1    1    2    0  502 -0.80450123912E+02 -0.20109558158E+02  0.38664902417E+02  0.19570536898E+03  0.17300000000E+03 0.  1.
<mgrwt>
<rscale>  2 0.19184790E+03</rscale>
<asrwt>0</asrwt>
<pdfrwt beam="1">  1       21 0.35791877E-01 0.19184790E+03</pdfrwt>
<pdfrwt beam="2">  1       21 0.24340345E-01 0.19184790E+03</pdfrwt>
<totfact> 0.12001459E+05</totfact>
</mgrwt>
</event>
<event>
 4    1  0.3875622E-001  0.1985975E+03  0.7546771E-02  0.1150928E+00
         21   -1    0    0  501  502  0.00000000000E+00  0.00000000000E+00  0.23532493930E+02  0.23532493930E+02  0.00000000000E+00 0.  1.
         21   -1    0    0  502  503 -0.00000000000E+00 -0.00000000000E+00 -0.16897210225E+04  0.16897210225E+04  0.00000000000E+00 0.  1.
          6    1    1    2  501    0  0.54777429167E+02  0.80693229873E+02 -0.91022686604E+03  0.93164044124E+03  0.17300000000E+03 0.  1.
         -6    1    1    2    0  503 -0.54777429167E+02 -0.80693229873E+02 -0.75596166253E+03  0.78161307519E+03  0.17300000000E+03 0.  1.
<mgrwt>
<rscale>  2 0.19859749E+03</rscale>
<asrwt>0</asrwt>
<pdfrwt beam="1">  1       21 0.36203829E-02 0.19859749E+03</pdfrwt>
<pdfrwt beam="2">  1       21 0.25995713E+00 0.19859749E+03</pdfrwt>
<totfact> 0.26780799E+04</totfact>
</mgrwt>
</event>
<event>
 4    1  0.3875622E-001  0.2103965E+03  0.7546771E-02  0.1141252E+00
         21   -1    0    0  503  502  0.00000000000E+00  0.00000000000E+00  0.49495459778E+03  0.49495459778E+03  0.00000000000E+00 0. -1.
         21   -1    0    0  501  503 -0.00000000000E+00 -0.00000000000E+00 -0.10661743494E+03  0.10661743494E+03  0.00000000000E+00 0. -1.
          6    1    1    2  501    0  0.82978932271E+02  0.86325918025E+02  0.31491537149E+03  0.37873256861E+03  0.17300000000E+03 0. -1.
         -6    1    1    2    0  502 -0.82978932271E+02 -0.86325918025E+02  0.73421791345E+02  0.22283946412E+03  0.17300000000E+03 0. -1.
<mgrwt>
<rscale>  2 0.21039645E+03</rscale>
<asrwt>0</asrwt>
<pdfrwt beam="1">  1       21 0.76146860E-01 0.21039645E+03</pdfrwt>
<pdfrwt beam="2">  1       21 0.16402683E-01 0.21039645E+03</pdfrwt>
<totfact> 0.50758293E+04</totfact>
</mgrwt>
</event>
<event>
 4    1  0.3875622E-001  0.1875153E+03  0.7546771E-02  0.1160722E+00
         21   -1    0    0  501  502  0.00000000000E+00  0.00000000000E+00  0.29785221424E+02  0.29785221424E+02  0.00000000000E+00 0. -1.
         21   -1    0    0  502  503 -0.00000000000E+00 -0.00000000000E+00 -0.13261144898E+04  0.13261144898E+04  0.00000000000E+00 0. -1.
          6    1    1    2  501    0 -0.70103364369E+02 -0.17846323026E+02 -0.42352655852E+03  0.46318108631E+03  0.17300000000E+03 0. -1.
         -6    1    1    2    0  503  0.70103364369E+02  0.17846323026E+02 -0.87280270986E+03  0.89271862492E+03  0.17300000000E+03 0. -1.
<mgrwt>
<rscale>  2 0.18751526E+03</rscale>
<asrwt>0</asrwt>
<pdfrwt beam="1">  1       21 0.45823428E-02 0.18751526E+03</pdfrwt>
<pdfrwt beam="2">  1       21 0.20401757E+00 0.18751526E+03</pdfrwt>
<totfact> 0.39598983E+04</totfact>
</mgrwt>
</event>
<event>
 4    1  0.3875622E-001  0.1823115E+03  0.7546771E-02  0.1165585E+00
         21   -1    0    0  503  502  0.00000000000E+00  0.00000000000E+00  0.61207855553E+03  0.61207855553E+03  0.00000000000E+00 0.  1.
         21   -1    0    0  501  503 -0.00000000000E+00 -0.00000000000E+00 -0.63777664655E+02  0.63777664655E+02  0.00000000000E+00 0.  1.
          6    1    1    2  501    0 -0.57319380948E+02 -0.47912475287E+01  0.14389955214E+03  0.23225965769E+03  0.17300000000E+03 0.  1.
         -6    1    1    2    0  502  0.57319380948E+02  0.47912475287E+01  0.40440133874E+03  0.44359656249E+03  0.17300000000E+03 0.  1.
<mgrwt>
<rscale>  2 0.18231146E+03</rscale>
<asrwt>0</asrwt>
<pdfrwt beam="1">  1       21 0.94165928E-01 0.18231146E+03</pdfrwt>
<pdfrwt beam="2">  1       21 0.98119488E-02 0.18231146E+03</pdfrwt>
<totfact> 0.79706573E+04</totfact>
</mgrwt>
</event>
<event>
 4    1  0.3875622E-001  0.1870890E+03  0.7546771E-02  0.1161113E+00
         21   -1    0    0  501  502  0.00000000000E+00  0.00000000000E+00  0.41985437396E+02  0.41985437396E+02  0.00000000000E+00 0. -1.
         21   -1    0    0  502  503 -0.00000000000E+00 -0.00000000000E+00 -0.85500445774E+03  0.85500445774E+03  0.00000000000E+00 0. -1.
          6    1    1    2  501    0  0.70434229487E+02  0.10597055589E+02 -0.47734429870E+03  0.51269860324E+03  0.17300000000E+03 0. -1.
         -6    1    1    2    0  503 -0.70434229487E+02 -0.10597055589E+02 -0.33567472165E+03  0.38429129189E+03  0.17300000000E+03 0. -1.
<mgrwt>
<rscale>  2 0.18708896E+03</rscale>
<asrwt>0</asrwt>
<pdfrwt beam="1">  1       21 0.64592985E-02 0.18708896E+03</pdfrwt>
<pdfrwt beam="2">  1       21 0.13153914E+00 0.18708896E+03</pdfrwt>
<totfact> 0.73096529E+04</totfact>
</mgrwt>
</event>
<event>
 4    1  0.3875622E-001  0.1766676E+03  0.7546771E-02  0.1171068E+00
         21   -1    0    0  501  502  0.00000000000E+00  0.00000000000E+00  0.21254280889E+02  0.21254280889E+02  0.00000000000E+00 0. -1.
         21   -1    0    0  502  503 -0.00000000000E+00 -0.00000000000E+00 -0.16379447236E+04  0.16379447236E+04  0.00000000000E+00 0. -1.
          6    1    1    2  501    0  0.61749649318E+01 -0.35274874575E+02 -0.54149910091E+03  0.56958996063E+03  0.17300000000E+03 0. -1.
         -6    1    1    2    0  503 -0.61749649318E+01  0.35274874575E+02 -0.10751913418E+04  0.10896090439E+04  0.17300000000E+03 0. -1.
<mgrwt>
<rscale>  2 0.17666762E+03</rscale>
<asrwt>0</asrwt>
<pdfrwt beam="1">  1       21 0.32698891E-02 0.17666762E+03</pdfrwt>
<pdfrwt beam="2">  1       21 0.25199151E+00 0.17666762E+03</pdfrwt>
<totfact> 0.35980214E+04</totfact>
</mgrwt>
</event>
<event>
 4    1  0.3875622E-001  0.1745988E+03  0.7546771E-02  0.1173135E+00
         21   -1    0    0  501  502  0.00000000000E+00  0.00000000000E+00  0.30625519937E+02  0.30625519937E+02  0.00000000000E+00 0.  1.
         21   -1    0    0  502  503 -0.00000000000E+00 -0.00000000000E+00 -0.12847768758E+04  0.12847768758E+04  0.00000000000E+00 0.  1.
          6    1    1    2  501    0  0.57053782194E+01  0.22873316569E+02 -0.31493936050E+03  0.36009934844E+03  0.17300000000E+03 0.  1.
         -6    1    1    2    0  503 -0.57053782194E+01 -0.22873316569E+02 -0.93921199539E+03  0.95530304733E+03  0.17300000000E+03 0.  1.
<mgrwt>
<rscale>  2 0.17459880E+03</rscale>
<asrwt>0</asrwt>
<pdfrwt beam="1">  1       21 0.47116183E-02 0.17459880E+03</pdfrwt>
<pdfrwt beam="2">  1       21 0.19765799E+00 0.17459880E+03</pdfrwt>
<totfact> 0.41862862E+04</totfact>
</mgrwt>
</event>
<event>
 4    1  0.3875622E-001  0.2088016E+03  0.7546771E-02  0.1142518E+00
         21   -1    0    0  501  502  0.00000000000E+00  0.00000000000E+00  0.34000407186E+03  0.34000407186E+03  0.00000000000E+00 0.  1.
         21   -1    0    0  502  503 -0.00000000000E+00 -0.00000000000E+00 -0.15910322334E+03  0.15910322334E+03  0.00000000000E+00 0.  1.
          6    1    1    2  501    0  0.88222841902E+02 -0.76719310232E+02  0.20038336015E+03  0.28939871012E+03  0.17300000000E+03 0. -1.
         -6    1    1    2    0  503 -0.88222841902E+02  0.76719310232E+02 -0.19482511629E+02  0.20970858508E+03  0.17300000000E+03 0. -1.
<mgrwt>
<rscale>  2 0.20880163E+03</rscale>
<asrwt>0</asrwt>
<pdfrwt beam="1">  1       21 0.52308319E-01 0.20880163E+03</pdfrwt>
<pdfrwt beam="2">  1       21 0.24477419E-01 0.20880163E+03</pdfrwt>
<totfact> 0.54255514E+04</totfact>
</mgrwt>
</event>
<event>
 4    1  0.3875622E-001  0.2048850E+03  0.7546771E-02  0.1145682E+00
         21   -1    0    0  503  502  0.00000000000E+00  0.00000000000E+00  0.58587820539E+02  0.58587820539E+02  0.00000000000E+00 0. -1.
         21   -1    0    0  501  503 -0.00000000000E+00 -0.00000000000E+00 -0.72301606457E+03  0.72301606457E+03  0.00000000000E+00 0. -1.
          6    1    1    2  501    0 -0.14790132922E+02 -0.10876641295E+03 -0.36932847640E+03  0.42235222753E+03  0.17300000000E+03 0. -1.
         -6    1    1    2    0  502  0.14790132922E+02  0.10876641295E+03 -0.29509976764E+03  0.35925165758E+03  0.17300000000E+03 0. -1.
<mgrwt>
<rscale>  2 0.20488504E+03</rscale>
<asrwt>0</asrwt>
<pdfrwt beam="1">  1       21 0.90135110E-02 0.20488504E+03</pdfrwt>
<pdfrwt beam="2">  1       21 0.11123324E+00 0.20488504E+03</pdfrwt>
<totfact> 0.61557640E+04</totfact>
</mgrwt>
</event>
<event>
 4    1  0.3875622E-001  0.2156693E+03  0.7546771E-02  0.1137154E+00
         21   -1    0    0  501  502  0.00000000000E+00  0.00000000000E+00  0.99942382714E+02  0.99942382714E+02  0.00000000000E+00 0.  1.
         21   -1    0    0  502  503 -0.00000000000E+00 -0.00000000000E+00 -0.57283352440E+03  0.57283352440E+03  0.00000000000E+00 0.  1.
          6    1    1    2  501    0  0.79288372377E+02 -0.10147713740E+03 -0.90767323627E+02  0.23399137259E+03  0.17300000000E+03 0.  1.
         -6    1    1    2    0  503 -0.79288372377E+02  0.10147713740E+03 -0.38212381806E+03  0.43878453453E+03  0.17300000000E+03 0.  1.
<mgrwt>
<rscale>  2 0.21566932E+03</rscale>
<asrwt>0</asrwt>
<pdfrwt beam="1">  1       21 0.15375751E-01 0.21566932E+03</pdfrwt>
<pdfrwt beam="2">  1       21 0.88128234E-01 0.21566932E+03</pdfrwt>
<totfact> 0.40865116E+04</totfact>
</mgrwt>
</event>
<event>
 4    1  0.3875622E-001  0.2222020E+03  0.7546771E-02  0.1132252E+00
         21   -1    0    0  503  502  0.00000000000E+00  0.00000000000E+00  0.67875888846E+02  0.67875888846E+02  0.00000000000E+00 0. -1.
         21   -1    0    0  501  503 -0.00000000000E+00 -0.00000000000E+00 -0.93571028266E+03  0.93571028266E+03  0.00000000000E+00 0.  1.
          6    1    1    2  501    0  0.11527610709E+03  0.78461172973E+02 -0.67067091564E+03  0.70652191304E+03  0.17300000000E+03 0.  1.
         -6    1    1    2    0  502 -0.11527610709E+03 -0.78461172973E+02 -0.19716347818E+03  0.29706425847E+03  0.17300000000E+03 0. -1.
<mgrwt>
<rscale>  2 0.22220202E+03</rscale>
<asrwt>0</asrwt>
<pdfrwt beam="1">  1       21 0.10442445E-01 0.22220202E+03</pdfrwt>
<pdfrwt beam="2">  1       21 0.14395542E+00 0.22220202E+03</pdfrwt>
<totfact> 0.24566077E+04</totfact>
</mgrwt>
</event>
<event>
 4    1  0.3875622E-001  0.1832978E+03  0.7546771E-02  0.1164649E+00
         21   -1    0    0  501  502  0.00000000000E+00  0.00000000000E+00  0.17758648771E+03  0.17758648771E+03  0.00000000000E+00 0. -1.
         21   -1    0    0  502  503 -0.00000000000E+00 -0.00000000000E+00 -0.24292328830E+03  0.24292328830E+03  0.00000000000E+00 0. -1.
          6    1    1    2  501    0 -0.59338284789E+02 -0.12168052544E+02  0.66214619604E+02  0.19489091665E+03  0.17300000000E+03 0.  1.
         -6    1    1    2    0  503  0.59338284789E+02  0.12168052544E+02 -0.13155142020E+03  0.22561885936E+03  0.17300000000E+03 0.  1.
<mgrwt>
<rscale>  2 0.18329783E+03</rscale>
<asrwt>0</asrwt>
<pdfrwt beam="1">  1       21 0.27320998E-01 0.18329783E+03</pdfrwt>
<pdfrwt beam="2">  1       21 0.37372814E-01 0.18329783E+03</pdfrwt>
<totfact> 0.88534762E+04</totfact>
</mgrwt>
</event>
<event>
 4    1  0.3875622E-001  0.2083409E+03  0.7546771E-02  0.1142887E+00
         21   -1    0    0  503  502  0.00000000000E+00  0.00000000000E+00  0.13045206158E+03  0.13045206158E+03  0.00000000000E+00 0. -1.
         21   -1    0    0  501  503 -0.00000000000E+00 -0.00000000000E+00 -0.37135780068E+03  0.37135780068E+03  0.00000000000E+00 0. -1.
          6    1    1    2  501    0 -0.84884960572E+02  0.79192695062E+02 -0.39536576963E+02  0.21205914364E+03  0.17300000000E+03 0. -1.
         -6    1    1    2    0  502  0.84884960572E+02 -0.79192695062E+02 -0.20136916214E+03  0.28975071862E+03  0.17300000000E+03 0. -1.
<mgrwt>
<rscale>  2 0.20834092E+03</rscale>
<asrwt>0</asrwt>
<pdfrwt beam="1">  1       21 0.20069548E-01 0.20834092E+03</pdfrwt>
<pdfrwt beam="2">  1       21 0.57131968E-01 0.20834092E+03</pdfrwt>
<totfact> 0.65519477E+04</totfact>
</mgrwt>
</event>
<event>
 4    1  0.3875622E-001  0.2026284E+03  0.7546771E-02  0.1147540E+00
         21   -1    0    0  501  502  0.00000000000E+00  0.00000000000E+00  0.17355287627E+02  0.17355287627E+02  0.00000000000E+00 0. -1.
         21   -1    0    0  502  503 -0.00000000000E+00 -0.00000000000E+00 -0.28888475273E+04  0.28888475273E+04  0.00000000000E+00 0.  1.
          6    1    1    2  501    0  0.10288298428E+03 -0.23331646261E+02 -0.81740961368E+03  0.84215007612E+03  0.17300000000E+03 0. -1.
         -6    1    1    2    0  503 -0.10288298428E+03  0.23331646261E+02 -0.20540826260E+04  0.20640527388E+04  0.17300000000E+03 0.  1.
<mgrwt>
<rscale>  2 0.20262841E+03</rscale>
<asrwt>0</asrwt>
<pdfrwt beam="1">  1       21 0.26700443E-02 0.20262841E+03</pdfrwt>
<pdfrwt beam="2">  1       21 0.44443808E+00 0.20262841E+03</pdfrwt>
<totfact> 0.34241617E+03</totfact>
</mgrwt>
</event>
<event>
 4    1  0.3875622E-001  0.2182743E+03  0.7546771E-02  0.1135176E+00
         21   -1    0    0  503  502  0.00000000000E+00  0.00000000000E+00  0.20752189750E+02  0.20752189750E+02  0.00000000000E+00 0.  1.
         21   -1    0    0  501  503 -0.00000000000E+00 -0.00000000000E+00 -0.23703459372E+04  0.23703459372E+04  0.00000000000E+00 0. -1.
          6    1    1    2  501    0 -0.11787210143E+03  0.61812846358E+02 -0.96283215213E+03  0.98726359876E+03  0.17300000000E+03 0.  1.
         -6    1    1    2    0  502  0.11787210143E+03 -0.61812846358E+02 -0.13867615953E+04  0.14038345282E+04  0.17300000000E+03 0.  1.
<mgrwt>
<rscale>  2 0.21827428E+03</rscale>
<asrwt>0</asrwt>
<pdfrwt beam="1">  1       21 0.31926456E-02 0.21827428E+03</pdfrwt>
<pdfrwt beam="2">  1       21 0.36466849E+00 0.21827428E+03</pdfrwt>
<totfact> 0.79224986E+03</totfact>
</mgrwt>
</event>
<event>
 4    1  0.3875622E-001  0.2168256E+03  0.7546771E-02  0.1136272E+00
         21   -1    0    0  501  502  0.00000000000E+00  0.00000000000E+00  0.21935524367E+03  0.21935524367E+03  0.00000000000E+00 0. -1.
         21   -1    0    0  502  503 -0.00000000000E+00 -0.00000000000E+00 -0.21581185175E+03  0.21581185175E+03  0.00000000000E+00 0. -1.
          6    1    1    2  501    0 -0.13069130833E+03 -0.20254982634E+01  0.19831658234E+02  0.21773060277E+03  0.17300000000E+03 0. -1.
         -6    1    1    2    0  503  0.13069130833E+03  0.20254982634E+01 -0.16288266314E+02  0.21743649265E+03  0.17300000000E+03 0. -1.
<mgrwt>
<rscale>  2 0.21682555E+03</rscale>
<asrwt>0</asrwt>
<pdfrwt beam="1">  1       21 0.33746961E-01 0.21682555E+03</pdfrwt>
<pdfrwt beam="2">  1       21 0.33201823E-01 0.21682555E+03</pdfrwt>
<totfact> 0.73119739E+04</totfact>
</mgrwt>
</event>
<event>
 4    1  0.3875622E-001  0.1848230E+03  0.7546771E-02  0.1163215E+00
         21   -1    0    0  503  502  0.00000000000E+00  0.00000000000E+00  0.67166701717E+02  0.67166701717E+02  0.00000000000E+00 0. -1.
         21   -1    0    0  501  503 -0.00000000000E+00 -0.00000000000E+00 -0.57779545165E+03  0.57779545165E+03  0.00000000000E+00 0. -1.
          6    1    1    2  501    0 -0.46371490576E+02  0.45609483782E+02 -0.36692959566E+03  0.41084896047E+03  0.17300000000E+03 0. -1.
         -6    1    1    2    0  502  0.46371490576E+02 -0.45609483782E+02 -0.14369915427E+03  0.23411319290E+03  0.17300000000E+03 0. -1.
<mgrwt>
<rscale>  2 0.18482300E+03</rscale>
<asrwt>0</asrwt>
<pdfrwt beam="1">  1       21 0.10333339E-01 0.18482300E+03</pdfrwt>
<pdfrwt beam="2">  1       21 0.88891606E-01 0.18482300E+03</pdfrwt>
<totfact> 0.83058481E+04</totfact>
</mgrwt>
</event>
<event>
 4    1  0.3875622E-001  0.2298313E+03  0.7546771E-02  0.1126759E+00
         21   -1    0    0  503  502  0.00000000000E+00  0.00000000000E+00  0.11218016027E+03  0.11218016027E+03  0.00000000000E+00 0.  1.
         21   -1    0    0  501  503 -0.00000000000E+00 -0.00000000000E+00 -0.71772425608E+03  0.71772425608E+03  0.00000000000E+00 0.  1.
          6    1    1    2  501    0  0.12618810657E+03 -0.83486425819E+02 -0.54612600119E+03  0.59251669235E+03  0.17300000000E+03 0.  1.
         -6    1    1    2    0  502 -0.12618810657E+03  0.83486425819E+02 -0.59418094619E+02  0.23738772399E+03  0.17300000000E+03 0.  1.
<mgrwt>
<rscale>  2 0.22983129E+03</rscale>
<asrwt>0</asrwt>
<pdfrwt beam="1">  1       21 0.17258486E-01 0.22983129E+03</pdfrwt>
<pdfrwt beam="2">  1       21 0.11041912E+00 0.22983129E+03</pdfrwt>
<totfact> 0.19199828E+04</totfact>
</mgrwt>
</event>
<event>
 4    1  0.3875622E-001  0.2487815E+03  0.7546771E-02  0.1114077E+00
         21   -1    0    0  501  502  0.00000000000E+00  0.00000000000E+00  0.47937378609E+03  0.47937378609E+03  0.00000000000E+00 0.  1.
         21   -1    0    0  502  503 -0.00000000000E+00 -0.00000000000E+00 -0.16924607111E+03  0.16924607111E+03  0.00000000000E+00 0.  1.
          6    1    1    2  501    0 -0.17809958208E+03 -0.15613007613E+02  0.31299407816E+03  0.39982186046E+03  0.17300000000E+03 0.  1.
         -6    1    1    2    0  503  0.17809958208E+03  0.15613007613E+02 -0.28663631779E+01  0.24879799674E+03  0.17300000000E+03 0.  1.
<mgrwt>
<rscale>  2 0.24878148E+03</rscale>
<asrwt>0</asrwt>
<pdfrwt beam="1">  1       21 0.73749813E-01 0.24878148E+03</pdfrwt>
<pdfrwt beam="2">  1       21 0.26037857E-01 0.24878148E+03</pdfrwt>
<totfact> 0.22440415E+04</totfact>
</mgrwt>
</event>
<event>
 4    1  0.3875622E-001  0.1784939E+03  0.7546771E-02  0.1169269E+00
         21   -1    0    0  503  502  0.00000000000E+00  0.00000000000E+00  0.54224153911E+03  0.54224153911E+03  0.00000000000E+00 0.  1.
         21   -1    0    0  501  503 -0.00000000000E+00 -0.00000000000E+00 -0.64047485587E+02  0.64047485587E+02  0.00000000000E+00 0.  1.
          6    1    1    2  501    0 -0.36793802772E+02 -0.24026785308E+02  0.15196498192E+03  0.23442147100E+03  0.17300000000E+03 0.  1.
         -6    1    1    2    0  502  0.36793802772E+02  0.24026785308E+02  0.32622907160E+03  0.37186755370E+03  0.17300000000E+03 0.  1.
<mgrwt>
<rscale>  2 0.17849389E+03</rscale>
<asrwt>0</asrwt>
<pdfrwt beam="1">  1       21 0.83421772E-01 0.17849389E+03</pdfrwt>
<pdfrwt beam="2">  1       21 0.98534597E-02 0.17849389E+03</pdfrwt>
<totfact> 0.10474333E+05</totfact>
</mgrwt>
</event>
<event>
 4    1  0.3875622E-001  0.2641791E+03  0.7546771E-02  0.1104658E+00
         21   -1    0    0  501  502  0.00000000000E+00  0.00000000000E+00  0.17833233155E+04  0.17833233155E+04  0.00000000000E+00 0.  1.
         21   -1    0    0  502  503 -0.00000000000E+00 -0.00000000000E+00 -0.12948160788E+03  0.12948160788E+03  0.00000000000E+00 0.  1.
          6    1    1    2  501    0  0.13819664361E+03  0.14409463935E+03  0.16258205818E+04  0.16471439347E+04  0.17300000000E+03 0.  1.
         -6    1    1    2    0  503 -0.13819664361E+03 -0.14409463935E+03  0.28021125761E+02  0.26566098864E+03  0.17300000000E+03 0.  1.
<mgrwt>
<rscale>  2 0.26417906E+03</rscale>
<asrwt>0</asrwt>
<pdfrwt beam="1">  1       21 0.27435742E+00 0.26417906E+03</pdfrwt>
<pdfrwt beam="2">  1       21 0.19920249E-01 0.26417906E+03</pdfrwt>
<totfact> 0.10311592E+03</totfact>
</mgrwt>
</event>
<event>
 4    1  0.3875622E-001  0.2288415E+03  0.7546771E-02  0.1127458E+00
         21   -1    0    0  503  502  0.00000000000E+00  0.00000000000E+00  0.37365940780E+02  0.37365940780E+02  0.00000000000E+00 0.  1.
         21   -1    0    0  501  503 -0.00000000000E+00 -0.00000000000E+00 -0.14040542877E+04  0.14040542877E+04  0.00000000000E+00 0.  1.
          6    1    1    2  501    0 -0.47542845797E+02  0.14205325798E+03 -0.65261777024E+03  0.69157675230E+03  0.17300000000E+03 0.  1.
         -6    1    1    2    0  502  0.47542845797E+02 -0.14205325798E+03 -0.71407057670E+03  0.74984347620E+03  0.17300000000E+03 0.  1.
<mgrwt>
<rscale>  2 0.22884154E+03</rscale>
<asrwt>0</asrwt>
<pdfrwt beam="1">  1       21 0.57486069E-02 0.22884154E+03</pdfrwt>
<pdfrwt beam="2">  1       21 0.21600833E+00 0.22884154E+03</pdfrwt>
<totfact> 0.21986972E+04</totfact>
</mgrwt>
</event>
<event>
 4    1  0.3875622E-001  0.1740969E+03  0.7546771E-02  0.1173642E+00
         21   -1    0    0  503  502  0.00000000000E+00  0.00000000000E+00  0.59408091997E+03  0.59408091997E+03  0.00000000000E+00 0.  1.
         21   -1    0    0  501  503 -0.00000000000E+00 -0.00000000000E+00 -0.51377400244E+02  0.51377400244E+02  0.00000000000E+00 0.  1.
          6    1    1    2  501    0  0.88982155594E+01 -0.17365557091E+02  0.24441761451E+03  0.30008284039E+03  0.17300000000E+03 0. -1.
         -6    1    1    2    0  502 -0.88982155594E+01  0.17365557091E+02  0.29828590521E+03  0.34537547982E+03  0.17300000000E+03 0. -1.
<mgrwt>
<rscale>  2 0.17409693E+03</rscale>
<asrwt>0</asrwt>
<pdfrwt beam="1">  1       21 0.91397059E-01 0.17409693E+03</pdfrwt>
<pdfrwt beam="2">  1       21 0.79042159E-02 0.17409693E+03</pdfrwt>
<totfact> 0.12510379E+05</totfact>
</mgrwt>
</event>
<event>
 4    1  0.3875622E-001  0.2384915E+03  0.7546771E-02  0.1120802E+00
         21   -1    0    0  503  502  0.00000000000E+00  0.00000000000E+00  0.17265059396E+03  0.17265059396E+03  0.00000000000E+00 0.  1.
         21   -1    0    0  501  503 -0.00000000000E+00 -0.00000000000E+00 -0.35047253633E+03  0.35047253633E+03  0.00000000000E+00 0. -1.
          6    1    1    2  501    0  0.54595515548E+02  0.15481772920E+03 -0.15298492414E+03  0.28334181937E+03  0.17300000000E+03 0. -1.
         -6    1    1    2    0  502 -0.54595515548E+02 -0.15481772920E+03 -0.24837018234E+02  0.23978131092E+03  0.17300000000E+03 0.  1.
<mgrwt>
<rscale>  2 0.23849151E+03</rscale>
<asrwt>0</asrwt>
<pdfrwt beam="1">  1       21 0.26561630E-01 0.23849151E+03</pdfrwt>
<pdfrwt beam="2">  1       21 0.53918852E-01 0.23849151E+03</pdfrwt>
<totfact> 0.42928192E+04</totfact>
</mgrwt>
</event>
<event>
 4    1  0.3875622E-001  0.2864293E+03  0.7546771E-02  0.1092228E+00
         21   -1    0    0  503  502  0.00000000000E+00  0.00000000000E+00  0.33547929601E+03  0.33547929601E+03  0.00000000000E+00 0.  1.
         21   -1    0    0  501  503 -0.00000000000E+00 -0.00000000000E+00 -0.24501208894E+03  0.24501208894E+03  0.00000000000E+00 0. -1.
          6    1    1    2  501    0  0.50048265375E+02  0.22272829796E+03  0.32639482409E+02  0.28828295023E+03  0.17300000000E+03 0. -1.
         -6    1    1    2    0  502 -0.50048265375E+02 -0.22272829796E+03  0.57827724665E+02  0.29220843472E+03  0.17300000000E+03 0.  1.
<mgrwt>
<rscale>  2 0.28642926E+03</rscale>
<asrwt>0</asrwt>
<pdfrwt beam="1">  1       21 0.51612200E-01 0.28642926E+03</pdfrwt>
<pdfrwt beam="2">  1       21 0.37694167E-01 0.28642926E+03</pdfrwt>
<totfact> 0.23114163E+04</totfact>
</mgrwt>
</event>
<event>
 4    1  0.3875622E-001  0.3460018E+03  0.7546771E-02  0.1064268E+00
         21   -1    0    0  503  502  0.00000000000E+00  0.00000000000E+00  0.39795646877E+03  0.39795646877E+03  0.00000000000E+00 0.  1.
         21   -1    0    0  501  503 -0.00000000000E+00 -0.00000000000E+00 -0.56481040795E+03  0.56481040795E+03  0.00000000000E+00 0. -1.
          6    1    1    2  501    0  0.56308963303E+02 -0.29430864203E+03 -0.41252522617E+03  0.53841836739E+03  0.17300000000E+03 0. -1.
         -6    1    1    2    0  502 -0.56308963303E+02  0.29430864203E+03  0.24567128699E+03  0.42434850933E+03  0.17300000000E+03 0.  1.
<mgrwt>
<rscale>  2 0.34600184E+03</rscale>
<asrwt>0</asrwt>
<pdfrwt beam="1">  1       21 0.61224072E-01 0.34600184E+03</pdfrwt>
<pdfrwt beam="2">  1       21 0.86893909E-01 0.34600184E+03</pdfrwt>
<totfact> 0.25590470E+03</totfact>
</mgrwt>
</event>
<event>
 4    1  0.3875622E-001  0.1896629E+03  0.7546771E-02  0.1158766E+00
         21   -1    0    0  501  502  0.00000000000E+00  0.00000000000E+00  0.92894102813E+03  0.92894102813E+03  0.00000000000E+00 0.  1.
         21   -1    0    0  502  503 -0.00000000000E+00 -0.00000000000E+00 -0.41117415194E+02  0.41117415194E+02  0.00000000000E+00 0.  1.
          6    1    1    2  501    0  0.52198633950E+02  0.57604682209E+02  0.56094116988E+03  0.59213764689E+03  0.17300000000E+03 0.  1.
         -6    1    1    2    0  503 -0.52198633950E+02 -0.57604682209E+02  0.32688244306E+03  0.37792079643E+03  0.17300000000E+03 0.  1.
<mgrwt>
<rscale>  2 0.18966285E+03</rscale>
<asrwt>0</asrwt>
<pdfrwt beam="1">  1       21 0.14291399E+00 0.18966285E+03</pdfrwt>
<pdfrwt beam="2">  1       21 0.63257569E-02 0.18966285E+03</pdfrwt>
<totfact> 0.61188043E+04</totfact>
</mgrwt>
</event>
<event>
 4    1  0.3875622E-001  0.1964861E+03  0.7546771E-02  0.1152738E+00
         21   -1    0    0  501  502  0.00000000000E+00  0.00000000000E+00  0.22572988597E+03  0.22572988597E+03  0.00000000000E+00 0.  1.
         21   -1    0    0  502  503 -0.00000000000E+00 -0.00000000000E+00 -0.20970213473E+03  0.20970213473E+03  0.00000000000E+00 0. -1.
          6    1    1    2  501    0 -0.44202891516E+02  0.81999436487E+02  0.10150761321E+03  0.22115740716E+03  0.17300000000E+03 0.  1.
         -6    1    1    2    0  503  0.44202891516E+02 -0.81999436487E+02 -0.85479861978E+02  0.21427461354E+03  0.17300000000E+03 0. -1.
<mgrwt>
<rscale>  2 0.19648614E+03</rscale>
<asrwt>0</asrwt>
<pdfrwt beam="1">  1       21 0.34727675E-01 0.19648614E+03</pdfrwt>
<pdfrwt beam="2">  1       21 0.32261867E-01 0.19648614E+03</pdfrwt>
<totfact> 0.73751202E+04</totfact>
</mgrwt>
</event>
<event>
 4    1  0.3875622E-001  0.2680753E+03  0.7546771E-02  0.1102386E+00
         21   -1    0    0  501  502  0.00000000000E+00  0.00000000000E+00  0.29726354537E+03  0.29726354537E+03  0.00000000000E+00 0.  1.
         21   -1    0    0  502  503 -0.00000000000E+00 -0.00000000000E+00 -0.29996589875E+03  0.29996589875E+03  0.00000000000E+00 0.  1.
          6    1    1    2  501    0 -0.20474200932E+03 -0.40116844427E+01  0.13019690144E+03  0.29801949120E+03  0.17300000000E+03 0.  1.
         -6    1    1    2    0  503  0.20474200932E+03  0.40116844427E+01 -0.13289925482E+03  0.29920995292E+03  0.17300000000E+03 0.  1.
<mgrwt>
<rscale>  2 0.26807533E+03</rscale>
<asrwt>0</asrwt>
<pdfrwt beam="1">  1       21 0.45732853E-01 0.26807533E+03</pdfrwt>
<pdfrwt beam="2">  1       21 0.46148600E-01 0.26807533E+03</pdfrwt>
<totfact> 0.19822326E+04</totfact>
</mgrwt>
</event>
<event>
 4    1  0.3875622E-001  0.1769280E+03  0.7546771E-02  0.1170810E+00
         21   -1    0    0  501  502  0.00000000000E+00  0.00000000000E+00  0.49815446879E+03  0.49815446879E+03  0.00000000000E+00 0.  1.
         21   -1    0    0  502  503 -0.00000000000E+00 -0.00000000000E+00 -0.65978700492E+02  0.65978700492E+02  0.00000000000E+00 0. -1.
          6    1    1    2  501    0 -0.75224652735E+01 -0.36303427698E+02  0.27761891537E+03  0.32920478204E+03  0.17300000000E+03 0.  1.
         -6    1    1    2    0  503  0.75224652735E+01  0.36303427698E+02  0.15455685294E+03  0.23492838725E+03  0.17300000000E+03 0. -1.
<mgrwt>
<rscale>  2 0.17692803E+03</rscale>
<asrwt>0</asrwt>
<pdfrwt beam="1">  1       21 0.76639147E-01 0.17692803E+03</pdfrwt>
<pdfrwt beam="2">  1       21 0.10150570E-01 0.17692803E+03</pdfrwt>
<totfact> 0.12041712E+05</totfact>
</mgrwt>
</event>
<event>
 4    1  0.3875622E-001  0.1814736E+03  0.7546771E-02  0.1166384E+00
         21   -1    0    0  501  502  0.00000000000E+00  0.00000000000E+00  0.18540529908E+03  0.18540529908E+03  0.00000000000E+00 0. -1.
         21   -1    0    0  502  503 -0.00000000000E+00 -0.00000000000E+00 -0.29378104052E+03  0.29378104052E+03  0.00000000000E+00 0. -1.
          6    1    1    2  501    0 -0.50131744115E+02 -0.22146437219E+02 -0.20484269573E+03  0.27366619529E+03  0.17300000000E+03 0. -1.
         -6    1    1    2    0  503  0.50131744115E+02  0.22146437219E+02  0.96466954293E+02  0.20552014432E+03  0.17300000000E+03 0. -1.
<mgrwt>
<rscale>  2 0.18147357E+03</rscale>
<asrwt>0</asrwt>
<pdfrwt beam="1">  1       21 0.28523892E-01 0.18147357E+03</pdfrwt>
<pdfrwt beam="2">  1       21 0.45197083E-01 0.18147357E+03</pdfrwt>
<totfact> 0.55482120E+04</totfact>
</mgrwt>
</event>
<event>
 4    1  0.3875622E-001  0.1971599E+03  0.7546771E-02  0.1152158E+00
         21   -1    0    0  501  502  0.00000000000E+00  0.00000000000E+00  0.41303271476E+02  0.41303271476E+02  0.00000000000E+00 0. -1.
         21   -1    0    0  502  503 -0.00000000000E+00 -0.00000000000E+00 -0.95204549755E+03  0.95204549755E+03  0.00000000000E+00 0. -1.
          6    1    1    2  501    0  0.97008874590E+01  0.94068734016E+02 -0.50853624051E+03  0.54541831822E+03  0.17300000000E+03 0.  1.
         -6    1    1    2    0  503 -0.97008874590E+01 -0.94068734016E+02 -0.40220598556E+03  0.44793045081E+03  0.17300000000E+03 0.  1.
<mgrwt>
<rscale>  2 0.19715992E+03</rscale>
<asrwt>0</asrwt>
<pdfrwt beam="1">  1       21 0.63543501E-02 0.19715992E+03</pdfrwt>
<pdfrwt beam="2">  1       21 0.14646852E+00 0.19715992E+03</pdfrwt>
<totfact> 0.56719311E+04</totfact>
</mgrwt>
</event>
<event>
 4    1  0.3875622E-001  0.1802695E+03  0.7546771E-02  0.1167542E+00
         21   -1    0    0  503  502  0.00000000000E+00  0.00000000000E+00  0.35989011816E+03  0.35989011816E+03  0.00000000000E+00 0. -1.
         21   -1    0    0  501  503 -0.00000000000E+00 -0.00000000000E+00 -0.14773528629E+03  0.14773528629E+03  0.00000000000E+00 0. -1.
          6    1    1    2  501    0 -0.27050001249E+02  0.42853277191E+02 -0.52182465839E+02  0.18767023119E+03  0.17300000000E+03 0. -1.
         -6    1    1    2    0  502  0.27050001249E+02 -0.42853277191E+02  0.26433729772E+03  0.31995517326E+03  0.17300000000E+03 0. -1.
<mgrwt>
<rscale>  2 0.18026954E+03</rscale>
<asrwt>0</asrwt>
<pdfrwt beam="1">  1       21 0.55367710E-01 0.18026954E+03</pdfrwt>
<pdfrwt beam="2">  1       21 0.22728506E-01 0.18026954E+03</pdfrwt>
<totfact> 0.56142338E+04</totfact>
</mgrwt>
</event>
<event>
 4    1  0.3875622E-001  0.2950025E+03  0.7546771E-02  0.1087766E+00
         21   -1    0    0  501  502  0.00000000000E+00  0.00000000000E+00  0.86172027969E+03  0.86172027969E+03  0.00000000000E+00 0.  1.
         21   -1    0    0  502  503 -0.00000000000E+00 -0.00000000000E+00 -0.13488233015E+03  0.13488233015E+03  0.00000000000E+00 0.  1.
          6    1    1    2  501    0 -0.45036363224E+02  0.23466824459E+03  0.61319763667E+03  0.68046880946E+03  0.17300000000E+03 0.  1.
         -6    1    1    2    0  503  0.45036363224E+02 -0.23466824459E+03  0.11364031287E+03  0.31613380038E+03  0.17300000000E+03 0.  1.
<mgrwt>
<rscale>  2 0.29500247E+03</rscale>
<asrwt>0</asrwt>
<pdfrwt beam="1">  1       21 0.13257235E+00 0.29500247E+03</pdfrwt>
<pdfrwt beam="2">  1       21 0.20751128E-01 0.29500247E+03</pdfrwt>
<totfact> 0.83147456E+03</totfact>
</mgrwt>
</event>
<event>
 4    1  0.3875622E-001  0.1966467E+03  0.7546771E-02  0.1152599E+00
         21   -1    0    0  501  502  0.00000000000E+00  0.00000000000E+00  0.43190533028E+02  0.43190533028E+02  0.00000000000E+00 0.  1.
         21   -1    0    0  502  503 -0.00000000000E+00 -0.00000000000E+00 -0.93969080239E+03  0.93969080239E+03  0.00000000000E+00 0.  1.
          6    1    1    2  501    0 -0.53611542974E+02 -0.76594658152E+02 -0.55502284085E+03  0.58882959595E+03  0.17300000000E+03 0.  1.
         -6    1    1    2    0  503  0.53611542974E+02  0.76594658152E+02 -0.34147742851E+03  0.39405173947E+03  0.17300000000E+03 0.  1.
<mgrwt>
<rscale>  2 0.19664674E+03</rscale>
<asrwt>0</asrwt>
<pdfrwt beam="1">  1       21 0.66446980E-02 0.19664674E+03</pdfrwt>
<pdfrwt beam="2">  1       21 0.14456780E+00 0.19664674E+03</pdfrwt>
<totfact> 0.54361255E+04</totfact>
</mgrwt>
</event>
<event>
 4    1  0.3875622E-001  0.2930574E+03  0.7546771E-02  0.1088764E+00
         21   -1    0    0  501  502  0.00000000000E+00  0.00000000000E+00  0.16471419925E+03  0.16471419925E+03  0.00000000000E+00 0.  1.
         21   -1    0    0  502  503 -0.00000000000E+00 -0.00000000000E+00 -0.59912823418E+03  0.59912823418E+03  0.00000000000E+00 0. -1.
          6    1    1    2  501    0  0.15804830733E+03 -0.17599544268E+03 -0.79647145617E+02  0.30368788434E+03  0.17300000000E+03 0.  1.
         -6    1    1    2    0  503 -0.15804830733E+03  0.17599544268E+03 -0.35476688931E+03  0.46015454909E+03  0.17300000000E+03 0. -1.
<mgrwt>
<rscale>  2 0.29305744E+03</rscale>
<asrwt>0</asrwt>
<pdfrwt beam="1">  1       21 0.25340647E-01 0.29305744E+03</pdfrwt>
<pdfrwt beam="2">  1       21 0.92173573E-01 0.29305744E+03</pdfrwt>
<totfact> 0.13886587E+04</totfact>
</mgrwt>
</event>
<event>
 4    1  0.3875622E-001  0.2345251E+03  0.7546771E-02  0.1123495E+00
         21   -1    0    0  501  502  0.00000000000E+00  0.00000000000E+00  0.63258177729E+03  0.63258177729E+03  0.00000000000E+00 0.  1.
         21   -1    0    0  502  503 -0.00000000000E+00 -0.00000000000E+00 -0.91532998150E+02  0.91532998150E+02  0.00000000000E+00 0.  1.
          6    1    1    2  501    0 -0.85857285964E+02 -0.13304713484E+03  0.35155259011E+03  0.42260056466E+03  0.17300000000E+03 0.  1.
         -6    1    1    2    0  503  0.85857285964E+02  0.13304713484E+03  0.18949618903E+03  0.30151421077E+03  0.17300000000E+03 0.  1.
<mgrwt>
<rscale>  2 0.23452508E+03</rscale>
<asrwt>0</asrwt>
<pdfrwt beam="1">  1       21 0.97320271E-01 0.23452508E+03</pdfrwt>
<pdfrwt beam="2">  1       21 0.14082000E-01 0.23452508E+03</pdfrwt>
<totfact> 0.37693520E+04</totfact>
</mgrwt>
</event>
<event>
 4    1  0.3875622E-001  0.2935994E+03  0.7546771E-02  0.1088485E+00
         21   -1    0    0  503  502  0.00000000000E+00  0.00000000000E+00  0.13035083995E+03  0.13035083995E+03  0.00000000000E+00 0. -1.
         21   -1    0    0  501  503 -0.00000000000E+00 -0.00000000000E+00 -0.80369251927E+03  0.80369251927E+03  0.00000000000E+00 0. -1.
          6    1    1    2  501    0 -0.21589400935E+03 -0.98292427260E+02 -0.53325122423E+03  0.60873433669E+03  0.17300000000E+03 0. -1.
         -6    1    1    2    0  502  0.21589400935E+03  0.98292427260E+02 -0.14009045509E+03  0.32530902253E+03  0.17300000000E+03 0. -1.
<mgrwt>
<rscale>  2 0.29359943E+03</rscale>
<asrwt>0</asrwt>
<pdfrwt beam="1">  1       21 0.20053975E-01 0.29359943E+03</pdfrwt>
<pdfrwt beam="2">  1       21 0.12364501E+00 0.29359943E+03</pdfrwt>
<totfact> 0.10603315E+04</totfact>
</mgrwt>
</event>
<event>
 4    1  0.3875622E-001  0.2215921E+03  0.7546771E-02  0.1132702E+00
         21   -1    0    0  503  502  0.00000000000E+00  0.00000000000E+00  0.65112728732E+03  0.65112728732E+03  0.00000000000E+00 0.  1.
         21   -1    0    0  501  503 -0.00000000000E+00 -0.00000000000E+00 -0.14712273864E+03  0.14712273864E+03  0.00000000000E+00 0.  1.
          6    1    1    2  501    0 -0.47864562593E+02 -0.12993477520E+03 -0.26648320991E+02  0.22318869857E+03  0.17300000000E+03 0.  1.
         -6    1    1    2    0  502  0.47864562593E+02  0.12993477520E+03  0.53065286967E+03  0.57506132738E+03  0.17300000000E+03 0.  1.
<mgrwt>
<rscale>  2 0.22159211E+03</rscale>
<asrwt>0</asrwt>
<pdfrwt beam="1">  1       21 0.10017343E+00 0.22159211E+03</pdfrwt>
<pdfrwt beam="2">  1       21 0.22634268E-01 0.22159211E+03</pdfrwt>
<totfact> 0.14685041E+04</totfact>
</mgrwt>
</event>
<event>
 4    1  0.3875622E-001  0.1790812E+03  0.7546771E-02  0.1168695E+00
         21   -1    0    0  501  502  0.00000000000E+00  0.00000000000E+00  0.83141663994E+02  0.83141663994E+02  0.00000000000E+00 0.  1.
         21   -1    0    0  502  503 -0.00000000000E+00 -0.00000000000E+00 -0.39918917250E+03  0.39918917250E+03  0.00000000000E+00 0.  1.
          6    1    1    2  501    0 -0.10043660233E+02 -0.45168669113E+02 -0.20230950325E+03  0.27018367620E+03  0.17300000000E+03 0.  1.
         -6    1    1    2    0  503  0.10043660233E+02  0.45168669113E+02 -0.11373800525E+03  0.21214716029E+03  0.17300000000E+03 0.  1.
<mgrwt>
<rscale>  2 0.17908122E+03</rscale>
<asrwt>0</asrwt>
<pdfrwt beam="1">  1       21 0.12791025E-01 0.17908122E+03</pdfrwt>
<pdfrwt beam="2">  1       21 0.61413720E-01 0.17908122E+03</pdfrwt>
<totfact> 0.12959704E+05</totfact>
</mgrwt>
</event>
<event>
 4    1  0.3875622E-001  0.2211566E+03  0.7546771E-02  0.1133024E+00
         21   -1    0    0  501  502  0.00000000000E+00  0.00000000000E+00  0.11158641988E+04  0.11158641988E+04  0.00000000000E+00 0.  1.
         21   -1    0    0  502  503 -0.00000000000E+00 -0.00000000000E+00 -0.44173404272E+02  0.44173404272E+02  0.00000000000E+00 0. -1.
          6    1    1    2  501    0  0.13644478651E+03 -0.19079842109E+02  0.48483138336E+03  0.53288994214E+03  0.17300000000E+03 0.  1.
         -6    1    1    2    0  503 -0.13644478651E+03  0.19079842109E+02  0.58685941121E+03  0.62714766098E+03  0.17300000000E+03 0. -1.
<mgrwt>
<rscale>  2 0.22115655E+03</rscale>
<asrwt>0</asrwt>
<pdfrwt beam="1">  1       21 0.17167139E+00 0.22115655E+03</pdfrwt>
<pdfrwt beam="2">  1       21 0.67959092E-02 0.22115655E+03</pdfrwt>
<totfact> 0.32475834E+04</totfact>
</mgrwt>
</event>
<event>
 4    1  0.3875622E-001  0.1895485E+03  0.7546771E-02  0.1158869E+00
         21   -1    0    0  503  502  0.00000000000E+00  0.00000000000E+00  0.46602680524E+03  0.46602680524E+03  0.00000000000E+00 0.  1.
         21   -1    0    0  501  503 -0.00000000000E+00 -0.00000000000E+00 -0.78902666185E+02  0.78902666185E+02  0.00000000000E+00 0.  1.
          6    1    1    2  501    0 -0.13497503204E+02 -0.76272187943E+02  0.23479537184E+03  0.30175734603E+03  0.17300000000E+03 0.  1.
         -6    1    1    2    0  502  0.13497503204E+02  0.76272187943E+02  0.15232876721E+03  0.24317212539E+03  0.17300000000E+03 0.  1.
<mgrwt>
<rscale>  2 0.18954849E+03</rscale>
<asrwt>0</asrwt>
<pdfrwt beam="1">  1       21 0.71696430E-01 0.18954849E+03</pdfrwt>
<pdfrwt beam="2">  1       21 0.12138872E-01 0.18954849E+03</pdfrwt>
<totfact> 0.10115007E+05</totfact>
</mgrwt>
</event>
<event>
 4    1  0.3875622E-001  0.1789013E+03  0.7546771E-02  0.1168871E+00
         21   -1    0    0  501  502  0.00000000000E+00  0.00000000000E+00  0.10520332384E+04  0.10520332384E+04  0.00000000000E+00 0.  1.
         21   -1    0    0  502  503 -0.00000000000E+00 -0.00000000000E+00 -0.31080959758E+02  0.31080959758E+02  0.00000000000E+00 0.  1.
          6    1    1    2  501    0 -0.83337628773E+01  0.44801965001E+02  0.43166217029E+03  0.46726640895E+03  0.17300000000E+03 0.  1.
         -6    1    1    2    0  503  0.83337628773E+01 -0.44801965001E+02  0.58929010830E+03  0.61584778916E+03  0.17300000000E+03 0.  1.
<mgrwt>
<rscale>  2 0.17890128E+03</rscale>
<asrwt>0</asrwt>
<pdfrwt beam="1">  1       21 0.16185124E+00 0.17890128E+03</pdfrwt>
<pdfrwt beam="2">  1       21 0.47816869E-02 0.17890128E+03</pdfrwt>
<totfact> 0.71313257E+04</totfact>
</mgrwt>
</event>
<event>
 4    1  0.3875622E-001  0.2039198E+03  0.7546771E-02  0.1146473E+00
         21   -1    0    0  503  502  0.00000000000E+00  0.00000000000E+00  0.95254307724E+03  0.95254307724E+03  0.00000000000E+00 0.  1.
         21   -1    0    0  501  503 -0.00000000000E+00 -0.00000000000E+00 -0.44969110977E+02  0.44969110977E+02  0.00000000000E+00 0. -1.
          6    1    1    2  501    0 -0.10024204612E+03 -0.40072433163E+02  0.36852662694E+03  0.42118302728E+03  0.17300000000E+03 0. -1.
         -6    1    1    2    0  502  0.10024204612E+03  0.40072433163E+02  0.53904733933E+03  0.57632916093E+03  0.17300000000E+03 0.  1.
<mgrwt>
<rscale>  2 0.20391976E+03</rscale>
<asrwt>0</asrwt>
<pdfrwt beam="1">  1       21 0.14654507E+00 0.20391976E+03</pdfrwt>
<pdfrwt beam="2">  1       21 0.69183255E-02 0.20391976E+03</pdfrwt>
<totfact> 0.48736482E+04</totfact>
</mgrwt>
</event>
<event>
 4    1  0.3875622E-001  0.1955767E+03  0.7546771E-02  0.1153526E+00
         21   -1    0    0  503  502  0.00000000000E+00  0.00000000000E+00  0.17966450393E+03  0.17966450393E+03  0.00000000000E+00 0. -1.
         21   -1    0    0  501  503 -0.00000000000E+00 -0.00000000000E+00 -0.24504188177E+03  0.24504188177E+03  0.00000000000E+00 0. -1.
          6    1    1    2  501    0 -0.63416482704E+02 -0.65571311804E+02 -0.10959934772E+03  0.22419247139E+03  0.17300000000E+03 0. -1.
         -6    1    1    2    0  502  0.63416482704E+02  0.65571311804E+02  0.44221969874E+02  0.20051391430E+03  0.17300000000E+03 0. -1.
<mgrwt>
<rscale>  2 0.19557670E+03</rscale>
<asrwt>0</asrwt>
<pdfrwt beam="1">  1       21 0.27640693E-01 0.19557670E+03</pdfrwt>
<pdfrwt beam="2">  1       21 0.37698751E-01 0.19557670E+03</pdfrwt>
<totfact> 0.84665682E+04</totfact>
</mgrwt>
</event>
<event>
 4    1  0.3875622E-001  0.2205650E+03  0.7546771E-02  0.1133463E+00
         21   -1    0    0  501  502  0.00000000000E+00  0.00000000000E+00  0.31500336012E+03  0.31500336012E+03  0.00000000000E+00 0. -1.
         21   -1    0    0  502  503 -0.00000000000E+00 -0.00000000000E+00 -0.15735412307E+03  0.15735412307E+03  0.00000000000E+00 0. -1.
          6    1    1    2  501    0  0.10722002979E+03  0.84992804185E+02  0.11096897514E+03  0.24690691565E+03  0.17300000000E+03 0. -1.
         -6    1    1    2    0  503 -0.10722002979E+03 -0.84992804185E+02  0.46680261904E+02  0.22545056754E+03  0.17300000000E+03 0. -1.
<mgrwt>
<rscale>  2 0.22056498E+03</rscale>
<asrwt>0</asrwt>
<pdfrwt beam="1">  1       21 0.48462055E-01 0.22056498E+03</pdfrwt>
<pdfrwt beam="2">  1       21 0.24208327E-01 0.22056498E+03</pdfrwt>
<totfact> 0.64680877E+04</totfact>
</mgrwt>
</event>
<event>
 4    1  0.3875622E-001  0.1937552E+03  0.7546771E-02  0.1155117E+00
         21   -1    0    0  503  502  0.00000000000E+00  0.00000000000E+00  0.52110671576E+03  0.52110671576E+03  0.00000000000E+00 0.  1.
         21   -1    0    0  501  503 -0.00000000000E+00 -0.00000000000E+00 -0.11438547180E+03  0.11438547180E+03  0.00000000000E+00 0.  1.
          6    1    1    2  501    0 -0.24552151413E+02 -0.83721314587E+02  0.10033417241E+02  0.19401478324E+03  0.17300000000E+03 0.  1.
         -6    1    1    2    0  502  0.24552151413E+02  0.83721314587E+02  0.39668782672E+03  0.44147740431E+03  0.17300000000E+03 0.  1.
<mgrwt>
<rscale>  2 0.19375517E+03</rscale>
<asrwt>0</asrwt>
<pdfrwt beam="1">  1       21 0.80170263E-01 0.19375517E+03</pdfrwt>
<pdfrwt beam="2">  1       21 0.17597765E-01 0.19375517E+03</pdfrwt>
<totfact> 0.40046258E+04</totfact>
</mgrwt>
</event>
<event>
 4    1  0.3875622E-001  0.2646191E+03  0.7546771E-02  0.1104399E+00
         21   -1    0    0  501  502  0.00000000000E+00  0.00000000000E+00  0.93165589322E+03  0.93165589322E+03  0.00000000000E+00 0. -1.
         21   -1    0    0  502  503 -0.00000000000E+00 -0.00000000000E+00 -0.99022771200E+02  0.99022771200E+02  0.00000000000E+00 0.  1.
          6    1    1    2  501    0  0.19882819641E+03  0.23698941764E+02  0.66929636571E+03  0.71970891108E+03  0.17300000000E+03 0. -1.
         -6    1    1    2    0  503 -0.19882819641E+03 -0.23698941764E+02  0.16333675630E+03  0.31096975334E+03  0.17300000000E+03 0.  1.
<mgrwt>
<rscale>  2 0.26461914E+03</rscale>
<asrwt>0</asrwt>
<pdfrwt beam="1">  1       21 0.14333167E+00 0.26461914E+03</pdfrwt>
<pdfrwt beam="2">  1       21 0.15234273E-01 0.26461914E+03</pdfrwt>
<totfact> 0.12266262E+04</totfact>
</mgrwt>
</event>
<event>
 4    1  0.3875622E-001  0.2503387E+03  0.7546771E-02  0.1113091E+00
         21   -1    0    0  501  502  0.00000000000E+00  0.00000000000E+00  0.10855699109E+03  0.10855699109E+03  0.00000000000E+00 0.  1.
         21   -1    0    0  502  503 -0.00000000000E+00 -0.00000000000E+00 -0.70067913571E+03  0.70067913571E+03  0.00000000000E+00 0. -1.
          6    1    1    2  501    0 -0.67367608216E+02  0.16793472082E+03 -0.12627017123E+03  0.28038120699E+03  0.17300000000E+03 0.  1.
         -6    1    1    2    0  503  0.67367608216E+02 -0.16793472082E+03 -0.46585197339E+03  0.52885491980E+03  0.17300000000E+03 0. -1.
<mgrwt>
<rscale>  2 0.25033870E+03</rscale>
<asrwt>0</asrwt>
<pdfrwt beam="1">  1       21 0.16701075E-01 0.25033870E+03</pdfrwt>
<pdfrwt beam="2">  1       21 0.10779679E+00 0.25033870E+03</pdfrwt>
<totfact> 0.21399891E+04</totfact>
</mgrwt>
</event>
<event>
 4    1  0.3875622E-001  0.2108667E+03  0.7546771E-02  0.1140882E+00
         21   -1    0    0  501  502  0.00000000000E+00  0.00000000000E+00  0.25965323617E+03  0.25965323617E+03  0.00000000000E+00 0. -1.
         21   -1    0    0  502  503 -0.00000000000E+00 -0.00000000000E+00 -0.19717188099E+03  0.19717188099E+03  0.00000000000E+00 0.  1.
          6    1    1    2  501    0 -0.11855063279E+03 -0.21943039650E+02  0.11406515801E+03  0.23974071368E+03  0.17300000000E+03 0. -1.
         -6    1    1    2    0  503  0.11855063279E+03  0.21943039650E+02 -0.51583802828E+02  0.21708440349E+03  0.17300000000E+03 0.  1.
<mgrwt>
<rscale>  2 0.21086666E+03</rscale>
<asrwt>0</asrwt>
<pdfrwt beam="1">  1       21 0.39946651E-01 0.21086666E+03</pdfrwt>
<pdfrwt beam="2">  1       21 0.30334136E-01 0.21086666E+03</pdfrwt>
<totfact> 0.62465921E+04</totfact>
</mgrwt>
</event>
<event>
 4    1  0.3875622E-001  0.2122019E+03  0.7546771E-02  0.1139834E+00
         21   -1    0    0  501  502  0.00000000000E+00  0.00000000000E+00  0.33981517681E+03  0.33981517681E+03  0.00000000000E+00 0.  1.
         21   -1    0    0  502  503 -0.00000000000E+00 -0.00000000000E+00 -0.13327293452E+03  0.13327293452E+03  0.00000000000E+00 0.  1.
          6    1    1    2  501    0  0.65311154969E+02 -0.10409179085E+03  0.85399456777E+02  0.22874159024E+03  0.17300000000E+03 0.  1.
         -6    1    1    2    0  503 -0.65311154969E+02  0.10409179085E+03  0.12114278551E+03  0.24434652109E+03  0.17300000000E+03 0.  1.
<mgrwt>
<rscale>  2 0.21220190E+03</rscale>
<asrwt>0</asrwt>
<pdfrwt beam="1">  1       21 0.52279258E-01 0.21220190E+03</pdfrwt>
<pdfrwt beam="2">  1       21 0.20503528E-01 0.21220190E+03</pdfrwt>
<totfact> 0.75838730E+04</totfact>
</mgrwt>
</event>
<event>
 4    1  0.3875622E-001  0.1800821E+03  0.7546771E-02  0.1167724E+00
         21   -1    0    0  501  502  0.00000000000E+00  0.00000000000E+00  0.10482626017E+03  0.10482626017E+03  0.00000000000E+00 0. -1.
         21   -1    0    0  502  503 -0.00000000000E+00 -0.00000000000E+00 -0.30949969885E+03  0.30949969885E+03  0.00000000000E+00 0. -1.
          6    1    1    2  501    0 -0.20369515377E+02  0.45668721050E+02 -0.98010835979E+02  0.20502603056E+03  0.17300000000E+03 0. -1.
         -6    1    1    2    0  503  0.20369515377E+02 -0.45668721050E+02 -0.10666260270E+03  0.20929992846E+03  0.17300000000E+03 0. -1.
<mgrwt>
<rscale>  2 0.18008206E+03</rscale>
<asrwt>0</asrwt>
<pdfrwt beam="1">  1       21 0.16127117E-01 0.18008206E+03</pdfrwt>
<pdfrwt beam="2">  1       21 0.47615337E-01 0.18008206E+03</pdfrwt>
<totfact> 0.14554516E+05</totfact>
</mgrwt>
</event>
<event>
 4    1  0.3875622E-001  0.2941216E+03  0.7546771E-02  0.1088217E+00
         21   -1    0    0  501  502  0.00000000000E+00  0.00000000000E+00  0.11124091388E+03  0.11124091388E+03  0.00000000000E+00 0.  1.
         21   -1    0    0  502  503 -0.00000000000E+00 -0.00000000000E+00 -0.78698051630E+03  0.78698051630E+03  0.00000000000E+00 0. -1.
          6    1    1    2  501    0  0.19979650307E+03  0.12907313019E+03 -0.28899207478E+03  0.41233958682E+03  0.17300000000E+03 0.  1.
         -6    1    1    2    0  503 -0.19979650307E+03 -0.12907313019E+03 -0.38674752763E+03  0.48588184336E+03  0.17300000000E+03 0.  1.
<mgrwt>
<rscale>  2 0.29412160E+03</rscale>
<asrwt>0</asrwt>
<pdfrwt beam="1">  1       21 0.17113987E-01 0.29412160E+03</pdfrwt>
<pdfrwt beam="2">  1       21 0.12107392E+00 0.29412160E+03</pdfrwt>
<totfact> 0.15041850E+04</totfact>
</mgrwt>
</event>
<event>
 4    1  0.3875622E-001  0.2191244E+03  0.7546771E-02  0.1134538E+00
         21   -1    0    0  503  502  0.00000000000E+00  0.00000000000E+00  0.22488301216E+03  0.22488301216E+03  0.00000000000E+00 0.  1.
         21   -1    0    0  501  503 -0.00000000000E+00 -0.00000000000E+00 -0.23909901912E+03  0.23909901912E+03  0.00000000000E+00 0. -1.
          6    1    1    2  501    0 -0.17782756761E+02 -0.13330515427E+03 -0.82997551768E+02  0.23431620557E+03  0.17300000000E+03 0. -1.
         -6    1    1    2    0  502  0.17782756761E+02  0.13330515427E+03  0.68781544805E+02  0.22966582571E+03  0.17300000000E+03 0. -1.
<mgrwt>
<rscale>  2 0.21912437E+03</rscale>
<asrwt>0</asrwt>
<pdfrwt beam="1">  1       21 0.34597386E-01 0.21912437E+03</pdfrwt>
<pdfrwt beam="2">  1       21 0.36784465E-01 0.21912437E+03</pdfrwt>
<totfact> 0.56698725E+04</totfact>
</mgrwt>
</event>
<event>
 4    1  0.3875622E-001  0.1843959E+03  0.7546771E-02  0.1163615E+00
         21   -1    0    0  501  502  0.00000000000E+00  0.00000000000E+00  0.35512364012E+03  0.35512364012E+03  0.00000000000E+00 0.  1.
         21   -1    0    0  502  503 -0.00000000000E+00 -0.00000000000E+00 -0.96603190006E+02  0.96603190006E+02  0.00000000000E+00 0.  1.
          6    1    1    2  501    0 -0.62490369081E+02  0.12953447616E+02  0.15053022133E+03  0.23803610139E+03  0.17300000000E+03 0.  1.
         -6    1    1    2    0  503  0.62490369081E+02 -0.12953447616E+02  0.10799022878E+03  0.21369072873E+03  0.17300000000E+03 0.  1.
<mgrwt>
<rscale>  2 0.18439587E+03</rscale>
<asrwt>0</asrwt>
<pdfrwt beam="1">  1       21 0.54634406E-01 0.18439587E+03</pdfrwt>
<pdfrwt beam="2">  1       21 0.14862029E-01 0.18439587E+03</pdfrwt>
<totfact> 0.12656631E+05</totfact>
</mgrwt>
</event>
<event>
 4    1  0.3875622E-001  0.2184863E+03  0.7546771E-02  0.1135017E+00
         21   -1    0    0  503  502  0.00000000000E+00  0.00000000000E+00  0.66038124060E+02  0.66038124060E+02  0.00000000000E+00 0.  1.
         21   -1    0    0  501  503 -0.00000000000E+00 -0.00000000000E+00 -0.82990198109E+03  0.82990198109E+03  0.00000000000E+00 0.  1.
          6    1    1    2  501    0  0.12807231307E+03 -0.37480010167E+02 -0.54281641947E+03  0.58513753407E+03  0.17300000000E+03 0.  1.
         -6    1    1    2    0  502 -0.12807231307E+03  0.37480010167E+02 -0.22104743756E+03  0.31080257108E+03  0.17300000000E+03 0.  1.
<mgrwt>
<rscale>  2 0.21848631E+03</rscale>
<asrwt>0</asrwt>
<pdfrwt beam="1">  1       21 0.10159711E-01 0.21848631E+03</pdfrwt>
<pdfrwt beam="2">  1       21 0.12767724E+00 0.21848631E+03</pdfrwt>
<totfact> 0.35173716E+04</totfact>
</mgrwt>
</event>
<event>
 4    1  0.3875622E-001  0.2444987E+03  0.7546771E-02  0.1116832E+00
         21   -1    0    0  501  502  0.00000000000E+00  0.00000000000E+00  0.10295709623E+03  0.10295709623E+03  0.00000000000E+00 0. -1.
         21   -1    0    0  502  503 -0.00000000000E+00 -0.00000000000E+00 -0.58874814439E+03  0.58874814439E+03  0.00000000000E+00 0. -1.
          6    1    1    2  501    0  0.15110768964E+03  0.83768090519E+02 -0.20227494670E+03  0.31732440959E+03  0.17300000000E+03 0.  1.
         -6    1    1    2    0  503 -0.15110768964E+03 -0.83768090519E+02 -0.28351610145E+03  0.37438083103E+03  0.17300000000E+03 0.  1.
<mgrwt>
<rscale>  2 0.24449873E+03</rscale>
<asrwt>0</asrwt>
<pdfrwt beam="1">  1       21 0.15839553E-01 0.24449873E+03</pdfrwt>
<pdfrwt beam="2">  1       21 0.90576637E-01 0.24449873E+03</pdfrwt>
<totfact> 0.35820905E+04</totfact>
</mgrwt>
</event>
<event>
 4    1  0.3875622E-001  0.1751544E+03  0.7546771E-02  0.1172577E+00
         21   -1    0    0  503  502  0.00000000000E+00  0.00000000000E+00  0.42386684759E+03  0.42386684759E+03  0.00000000000E+00 0.  1.
         21   -1    0    0  501  503 -0.00000000000E+00 -0.00000000000E+00 -0.73098266949E+02  0.73098266949E+02  0.00000000000E+00 0.  1.
          6    1    1    2  501    0  0.16220279398E+02  0.22067186789E+02  0.20003263054E+03  0.26587988167E+03  0.17300000000E+03 0.  1.
         -6    1    1    2    0  502 -0.16220279398E+02 -0.22067186789E+02  0.15073595009E+03  0.23108523286E+03  0.17300000000E+03 0.  1.
<mgrwt>
<rscale>  2 0.17515438E+03</rscale>
<asrwt>0</asrwt>
<pdfrwt beam="1">  1       21 0.65210283E-01 0.17515438E+03</pdfrwt>
<pdfrwt beam="2">  1       21 0.11245887E-01 0.17515438E+03</pdfrwt>
<totfact> 0.14345500E+05</totfact>
</mgrwt>
</event>
<event>
 4    1  0.3875622E-001  0.2001961E+03  0.7546771E-02  0.1149574E+00
         21   -1    0    0  501  502  0.00000000000E+00  0.00000000000E+00  0.14122990875E+04  0.14122990875E+04  0.00000000000E+00 0. -1.
         21   -1    0    0  502  503 -0.00000000000E+00 -0.00000000000E+00 -0.31766285239E+02  0.31766285239E+02  0.00000000000E+00 0.  1.
          6    1    1    2  501    0  0.92849865234E+02  0.39094453602E+02  0.92607099825E+03  0.94746291093E+03  0.17300000000E+03 0. -1.
         -6    1    1    2    0  503 -0.92849865234E+02 -0.39094453602E+02  0.45446180401E+03  0.49660246181E+03  0.17300000000E+03 0.  1.
<mgrwt>
<rscale>  2 0.20019609E+03</rscale>
<asrwt>0</asrwt>
<pdfrwt beam="1">  1       21 0.21727673E+00 0.20019609E+03</pdfrwt>
<pdfrwt beam="2">  1       21 0.48871219E-02 0.20019609E+03</pdfrwt>
<totfact> 0.29068369E+04</totfact>
</mgrwt>
</event>
<event>
 4    1  0.3875622E-001  0.2152178E+03  0.7546771E-02  0.1137499E+00
         21   -1    0    0  503  502  0.00000000000E+00  0.00000000000E+00  0.41620258116E+03  0.41620258116E+03  0.00000000000E+00 0.  1.
         21   -1    0    0  501  503 -0.00000000000E+00 -0.00000000000E+00 -0.11240225904E+03  0.11240225904E+03  0.00000000000E+00 0. -1.
          6    1    1    2  501    0  0.12541924679E+03 -0.25684554057E+02  0.17820597197E+03  0.27942092303E+03  0.17300000000E+03 0.  1.
         -6    1    1    2    0  502 -0.12541924679E+03  0.25684554057E+02  0.12559435016E+03  0.24918391716E+03  0.17300000000E+03 0. -1.
<mgrwt>
<rscale>  2 0.21521776E+03</rscale>
<asrwt>0</asrwt>
<pdfrwt beam="1">  1       21 0.64031165E-01 0.21521776E+03</pdfrwt>
<pdfrwt beam="2">  1       21 0.17292656E-01 0.21521776E+03</pdfrwt>
<totfact> 0.67391050E+04</totfact>
</mgrwt>
</event>
<event>
 4    1  0.3875622E-001  0.1955022E+03  0.7546771E-02  0.1153590E+00
         21   -1    0    0  501  502  0.00000000000E+00  0.00000000000E+00  0.45381299567E+02  0.45381299567E+02  0.00000000000E+00 0. -1.
         21   -1    0    0  502  503 -0.00000000000E+00 -0.00000000000E+00 -0.84699995122E+03  0.84699995122E+03  0.00000000000E+00 0.  1.
          6    1    1    2  501    0  0.55863368096E+02  0.71912348767E+02 -0.36729529026E+03  0.41608524613E+03  0.17300000000E+03 0. -1.
         -6    1    1    2    0  503 -0.55863368096E+02 -0.71912348767E+02 -0.43432336140E+03  0.47629600466E+03  0.17300000000E+03 0.  1.
<mgrwt>
<rscale>  2 0.19550218E+03</rscale>
<asrwt>0</asrwt>
<pdfrwt beam="1">  1       21 0.69817384E-02 0.19550218E+03</pdfrwt>
<pdfrwt beam="2">  1       21 0.13030769E+00 0.19550218E+03</pdfrwt>
<totfact> 0.65196379E+04</totfact>
</mgrwt>
</event>
<event>
 4    1  0.3875622E-001  0.3052882E+03  0.7546771E-02  0.1082627E+00
         21   -1    0    0  503  502  0.00000000000E+00  0.00000000000E+00  0.10908261041E+03  0.10908261041E+03  0.00000000000E+00 0.  1.
         21   -1    0    0  501  503 -0.00000000000E+00 -0.00000000000E+00 -0.10949540779E+04  0.10949540779E+04  0.00000000000E+00 0. -1.
          6    1    1    2  501    0  0.17956295935E+03  0.17615055529E+03 -0.77510675243E+03  0.83306143360E+03  0.17300000000E+03 0. -1.
         -6    1    1    2    0  502 -0.17956295935E+03 -0.17615055529E+03 -0.21076471509E+03  0.37097525474E+03  0.17300000000E+03 0.  1.
<mgrwt>
<rscale>  2 0.30528818E+03</rscale>
<asrwt>0</asrwt>
<pdfrwt beam="1">  1       21 0.16781940E-01 0.30528818E+03</pdfrwt>
<pdfrwt beam="2">  1       21 0.16845447E+00 0.30528818E+03</pdfrwt>
<totfact> 0.64799644E+03</totfact>
</mgrwt>
</event>
<event>
 4    1  0.3875622E-001  0.2375344E+03  0.7546771E-02  0.1121446E+00
         21   -1    0    0  501  502  0.00000000000E+00  0.00000000000E+00  0.69861237097E+02  0.69861237097E+02  0.00000000000E+00 0.  1.
         21   -1    0    0  502  503 -0.00000000000E+00 -0.00000000000E+00 -0.83268780865E+03  0.83268780865E+03  0.00000000000E+00 0.  1.
          6    1    1    2  501    0  0.48529552201E+02  0.15536554955E+03 -0.45968488370E+03  0.51742899390E+03  0.17300000000E+03 0.  1.
         -6    1    1    2    0  503 -0.48529552201E+02 -0.15536554955E+03 -0.30314168786E+03  0.38512005185E+03  0.17300000000E+03 0.  1.
<mgrwt>
<rscale>  2 0.23753436E+03</rscale>
<asrwt>0</asrwt>
<pdfrwt beam="1">  1       21 0.10747883E-01 0.23753436E+03</pdfrwt>
<pdfrwt beam="2">  1       21 0.12810581E+00 0.23753436E+03</pdfrwt>
<totfact> 0.31242915E+04</totfact>
</mgrwt>
</event>
<event>
 4    1  0.3875622E-001  0.2056860E+03  0.7546771E-02  0.1145028E+00
         21   -1    0    0  503  502  0.00000000000E+00  0.00000000000E+00  0.62479805978E+03  0.62479805978E+03  0.00000000000E+00 0.  1.
         21   -1    0    0  501  503 -0.00000000000E+00 -0.00000000000E+00 -0.72315669970E+02  0.72315669970E+02  0.00000000000E+00 0.  1.
          6    1    1    2  501    0  0.91447967118E+02 -0.63364140436E+02  0.18830292669E+03  0.27886329479E+03  0.17300000000E+03 0.  1.
         -6    1    1    2    0  502 -0.91447967118E+02  0.63364140436E+02  0.36417946312E+03  0.41825043496E+03  0.17300000000E+03 0.  1.
<mgrwt>
<rscale>  2 0.20568603E+03</rscale>
<asrwt>0</asrwt>
<pdfrwt beam="1">  1       21 0.96122775E-01 0.20568603E+03</pdfrwt>
<pdfrwt beam="2">  1       21 0.11125488E-01 0.20568603E+03</pdfrwt>
<totfact> 0.60144000E+04</totfact>
</mgrwt>
</event>
<event>
 4    1  0.3875622E-001  0.2006808E+03  0.7546771E-02  0.1149166E+00
         21   -1    0    0  503  502  0.00000000000E+00  0.00000000000E+00  0.19474846679E+03  0.19474846679E+03  0.00000000000E+00 0. -1.
         21   -1    0    0  501  503 -0.00000000000E+00 -0.00000000000E+00 -0.29161190462E+03  0.29161190462E+03  0.00000000000E+00 0. -1.
          6    1    1    2  501    0  0.10010868804E+03  0.17945377869E+02 -0.17958214458E+03  0.26930007920E+03  0.17300000000E+03 0. -1.
         -6    1    1    2    0  502 -0.10010868804E+03 -0.17945377869E+02  0.82718706746E+02  0.21706029221E+03  0.17300000000E+03 0. -1.
<mgrwt>
<rscale>  2 0.20068081E+03</rscale>
<asrwt>0</asrwt>
<pdfrwt beam="1">  1       21 0.29961303E-01 0.20068081E+03</pdfrwt>
<pdfrwt beam="2">  1       21 0.44863370E-01 0.20068081E+03</pdfrwt>
<totfact> 0.50741671E+04</totfact>
</mgrwt>
</event>
<event>
 4    1  0.3875622E-001  0.2043468E+03  0.7546771E-02  0.1146123E+00
         21   -1    0    0  501  502  0.00000000000E+00  0.00000000000E+00  0.34195418104E+03  0.34195418104E+03  0.00000000000E+00 0.  1.
         21   -1    0    0  502  503 -0.00000000000E+00 -0.00000000000E+00 -0.13174753591E+03  0.13174753591E+03  0.00000000000E+00 0.  1.
          6    1    1    2  501    0 -0.36772960886E+02 -0.10235401217E+03  0.16914803553E+03  0.26527090376E+03  0.17300000000E+03 0.  1.
         -6    1    1    2    0  503  0.36772960886E+02  0.10235401217E+03  0.41058609603E+02  0.20843081318E+03  0.17300000000E+03 0.  1.
<mgrwt>
<rscale>  2 0.20434675E+03</rscale>
<asrwt>0</asrwt>
<pdfrwt beam="1">  1       21 0.52608335E-01 0.20434675E+03</pdfrwt>
<pdfrwt beam="2">  1       21 0.20268852E-01 0.20434675E+03</pdfrwt>
<totfact> 0.76732887E+04</totfact>
</mgrwt>
</event>
<event>
 4    1  0.3875622E-001  0.1844687E+03  0.7546771E-02  0.1163547E+00
         21   -1    0    0  501  502  0.00000000000E+00  0.00000000000E+00  0.54088958830E+02  0.54088958830E+02  0.00000000000E+00 0.  1.
         21   -1    0    0  502  503 -0.00000000000E+00 -0.00000000000E+00 -0.68444292604E+03  0.68444292604E+03  0.00000000000E+00 0.  1.
          6    1    1    2  501    0  0.29486778583E+02 -0.56834960544E+02 -0.21019712069E+03  0.27966321245E+03  0.17300000000E+03 0. -1.
         -6    1    1    2    0  503 -0.29486778583E+02  0.56834960544E+02 -0.42015684652E+03  0.45886867242E+03  0.17300000000E+03 0. -1.
<mgrwt>
<rscale>  2 0.18446865E+03</rscale>
<asrwt>0</asrwt>
<pdfrwt beam="1">  1       21 0.83213785E-02 0.18446865E+03</pdfrwt>
<pdfrwt beam="2">  1       21 0.10529891E+00 0.18446865E+03</pdfrwt>
<totfact> 0.81594801E+04</totfact>
</mgrwt>
</event>
<event>
 4    1  0.3875622E-001  0.1872398E+03  0.7546771E-02  0.1160975E+00
         21   -1    0    0  503  502  0.00000000000E+00  0.00000000000E+00  0.30990072077E+03  0.30990072077E+03  0.00000000000E+00 0.  1.
         21   -1    0    0  501  503 -0.00000000000E+00 -0.00000000000E+00 -0.11397998561E+03  0.11397998561E+03  0.00000000000E+00 0.  1.
          6    1    1    2  501    0 -0.48848026567E+02 -0.52379437747E+02  0.11627422226E+03  0.22040514958E+03  0.17300000000E+03 0.  1.
         -6    1    1    2    0  502  0.48848026567E+02  0.52379437747E+02  0.79646512903E+02  0.20347555680E+03  0.17300000000E+03 0.  1.
<mgrwt>
<rscale>  2 0.18723978E+03</rscale>
<asrwt>0</asrwt>
<pdfrwt beam="1">  1       21 0.47677034E-01 0.18723978E+03</pdfrwt>
<pdfrwt beam="2">  1       21 0.17535382E-01 0.18723978E+03</pdfrwt>
<totfact> 0.12417377E+05</totfact>
</mgrwt>
</event>
<event>
 4    1  0.3875622E-001  0.2084072E+03  0.7546771E-02  0.1142834E+00
         21   -1    0    0  503  502  0.00000000000E+00  0.00000000000E+00  0.74526925579E+02  0.74526925579E+02  0.00000000000E+00 0. -1.
         21   -1    0    0  501  503 -0.00000000000E+00 -0.00000000000E+00 -0.62877343965E+03  0.62877343965E+03  0.00000000000E+00 0.  1.
          6    1    1    2  501    0 -0.11199992158E+03  0.30993444120E+02 -0.37221934235E+03  0.42659209420E+03  0.17300000000E+03 0.  1.
         -6    1    1    2    0  502  0.11199992158E+03 -0.30993444120E+02 -0.18202717172E+03  0.27670827103E+03  0.17300000000E+03 0. -1.
<mgrwt>
<rscale>  2 0.20840724E+03</rscale>
<asrwt>0</asrwt>
<pdfrwt beam="1">  1       21 0.11465681E-01 0.20840724E+03</pdfrwt>
<pdfrwt beam="2">  1       21 0.96734375E-01 0.20840724E+03</pdfrwt>
<totfact> 0.56079068E+04</totfact>
</mgrwt>
</event>
<event>
 4    1  0.3875622E-001  0.1769324E+03  0.7546771E-02  0.1170805E+00
         21   -1    0    0  503  502  0.00000000000E+00  0.00000000000E+00  0.24276597373E+02  0.24276597373E+02  0.00000000000E+00 0. -1.
         21   -1    0    0  501  503 -0.00000000000E+00 -0.00000000000E+00 -0.14631275079E+04  0.14631275079E+04  0.00000000000E+00 0. -1.
          6    1    1    2  501    0 -0.26346122063E+02 -0.26113968615E+02 -0.46324422110E+03  0.49588331882E+03  0.17300000000E+03 0.  1.
         -6    1    1    2    0  502  0.26346122063E+02  0.26113968615E+02 -0.97560668940E+03  0.99152078642E+03  0.17300000000E+03 0.  1.
<mgrwt>
<rscale>  2 0.17693235E+03</rscale>
<asrwt>0</asrwt>
<pdfrwt beam="1">  1       21 0.37348621E-02 0.17693235E+03</pdfrwt>
<pdfrwt beam="2">  1       21 0.22509648E+00 0.17693235E+03</pdfrwt>
<totfact> 0.41642822E+04</totfact>
</mgrwt>
</event>
<event>
 4    1  0.3875622E-001  0.2003135E+03  0.7546771E-02  0.1149475E+00
         21   -1    0    0  503  502  0.00000000000E+00  0.00000000000E+00  0.53716997392E+03  0.53716997392E+03  0.00000000000E+00 0.  1.
         21   -1    0    0  501  503 -0.00000000000E+00 -0.00000000000E+00 -0.83273037847E+02  0.83273037847E+02  0.00000000000E+00 0.  1.
          6    1    1    2  501    0  0.10077073921E+03  0.64630293895E+01  0.12739917146E+03  0.23739431653E+03  0.17300000000E+03 0. -1.
         -6    1    1    2    0  502 -0.10077073921E+03 -0.64630293895E+01  0.32649776461E+03  0.38304869524E+03  0.17300000000E+03 0. -1.
<mgrwt>
<rscale>  2 0.20031354E+03</rscale>
<asrwt>0</asrwt>
<pdfrwt beam="1">  1       21 0.82641532E-01 0.20031354E+03</pdfrwt>
<pdfrwt beam="2">  1       21 0.12811237E-01 0.20031354E+03</pdfrwt>
<totfact> 0.66439469E+04</totfact>
</mgrwt>
</event>
<event>
 4    1  0.3875622E-001  0.2869894E+03  0.7546771E-02  0.1091932E+00
         21   -1    0    0  503  502  0.00000000000E+00  0.00000000000E+00  0.17670560871E+04  0.17670560871E+04  0.00000000000E+00 0. -1.
         21   -1    0    0  501  503 -0.00000000000E+00 -0.00000000000E+00 -0.49594142835E+02  0.49594142835E+02  0.00000000000E+00 0. -1.
          6    1    1    2  501    0 -0.76678676109E+02 -0.21576444255E+03  0.63592941026E+03  0.69768841819E+03  0.17300000000E+03 0. -1.
         -6    1    1    2    0  502  0.76678676109E+02  0.21576444255E+03  0.10815325340E+04  0.11189618117E+04  0.17300000000E+03 0. -1.
<mgrwt>
<rscale>  2 0.28698940E+03</rscale>
<asrwt>0</asrwt>
<pdfrwt beam="1">  1       21 0.27185473E+00 0.28698940E+03</pdfrwt>
<pdfrwt beam="2">  1       21 0.76298695E-02 0.28698940E+03</pdfrwt>
<totfact> 0.59486508E+03</totfact>
</mgrwt>
</event>
<event>
 4    1  0.3875622E-001  0.1848608E+03  0.7546771E-02  0.1163180E+00
         21   -1    0    0  501  502  0.00000000000E+00  0.00000000000E+00  0.27389850298E+03  0.27389850298E+03  0.00000000000E+00 0.  1.
         21   -1    0    0  502  503 -0.00000000000E+00 -0.00000000000E+00 -0.12826045309E+03  0.12826045309E+03  0.00000000000E+00 0.  1.
          6    1    1    2  501    0 -0.58901783400E+02  0.27840635819E+02  0.39633950775E+02  0.18906181831E+03  0.17300000000E+03 0.  1.
         -6    1    1    2    0  503  0.58901783400E+02 -0.27840635819E+02  0.10600409912E+03  0.21309713776E+03  0.17300000000E+03 0.  1.
<mgrwt>
<rscale>  2 0.18486082E+03</rscale>
<asrwt>0</asrwt>
<pdfrwt beam="1">  1       21 0.42138231E-01 0.18486082E+03</pdfrwt>
<pdfrwt beam="2">  1       21 0.19732377E-01 0.18486082E+03</pdfrwt>
<totfact> 0.12863565E+05</totfact>
</mgrwt>
</event>
<event>
 4    1  0.3875622E-001  0.2043372E+03  0.7546771E-02  0.1146130E+00
         21   -1    0    0  503  502  0.00000000000E+00  0.00000000000E+00  0.21468357417E+02  0.21468357417E+02  0.00000000000E+00 0. -1.
         21   -1    0    0  501  503 -0.00000000000E+00 -0.00000000000E+00 -0.19454941163E+04  0.19454941163E+04  0.00000000000E+00 0.  1.
          6    1    1    2  501    0  0.79170667351E+02 -0.74543290020E+02 -0.97927443713E+03  0.10003659930E+04  0.17300000000E+03 0. -1.
         -6    1    1    2    0  502 -0.79170667351E+02  0.74543290020E+02 -0.94475132172E+03  0.96659648072E+03  0.17300000000E+03 0. -1.
<mgrwt>
<rscale>  2 0.20433721E+03</rscale>
<asrwt>0</asrwt>
<pdfrwt beam="1">  1       21 0.33028233E-02 0.20433721E+03</pdfrwt>
<pdfrwt beam="2">  1       21 0.29930687E+00 0.20433721E+03</pdfrwt>
<totfact> 0.18372317E+04</totfact>
</mgrwt>
</event>
<event>
 4    1  0.3875622E-001  0.1801391E+03  0.7546771E-02  0.1167668E+00
         21   -1    0    0  503  502  0.00000000000E+00  0.00000000000E+00  0.32092435265E+03  0.32092435265E+03  0.00000000000E+00 0. -1.
         21   -1    0    0  501  503 -0.00000000000E+00 -0.00000000000E+00 -0.11321744728E+03  0.11321744728E+03  0.00000000000E+00 0. -1.
          6    1    1    2  501    0  0.49890360569E+02 -0.56622643294E+01  0.17482598194E+03  0.25102635972E+03  0.17300000000E+03 0. -1.
         -6    1    1    2    0  502 -0.49890360569E+02  0.56622643294E+01  0.32880923438E+02  0.18311544020E+03  0.17300000000E+03 0. -1.
<mgrwt>
<rscale>  2 0.18013914E+03</rscale>
<asrwt>0</asrwt>
<pdfrwt beam="1">  1       21 0.49372977E-01 0.18013914E+03</pdfrwt>
<pdfrwt beam="2">  1       21 0.17418069E-01 0.18013914E+03</pdfrwt>
<totfact> 0.11722364E+05</totfact>
</mgrwt>
</event>
<event>
 4    1  0.3875622E-001  0.2153854E+03  0.7546771E-02  0.1137371E+00
         21   -1    0    0  503  502  0.00000000000E+00  0.00000000000E+00  0.89005710966E+03  0.89005710966E+03  0.00000000000E+00 0. -1.
         21   -1    0    0  501  503 -0.00000000000E+00 -0.00000000000E+00 -0.11058235612E+03  0.11058235612E+03  0.00000000000E+00 0. -1.
          6    1    1    2  501    0 -0.12149798838E+03  0.41232563396E+02  0.25957859820E+02  0.21694399266E+03  0.17300000000E+03 0. -1.
         -6    1    1    2    0  502  0.12149798838E+03 -0.41232563396E+02  0.75351689372E+03  0.78369547311E+03  0.17300000000E+03 0. -1.
<mgrwt>
<rscale>  2 0.21538543E+03</rscale>
<asrwt>0</asrwt>
<pdfrwt beam="1">  1       21 0.13693186E+00 0.21538543E+03</pdfrwt>
<pdfrwt beam="2">  1       21 0.17012671E-01 0.21538543E+03</pdfrwt>
<totfact> 0.11615485E+04</totfact>
</mgrwt>
</event>
<event>
 4    1  0.3875622E-001  0.1747728E+03  0.7546771E-02  0.1172960E+00
         21   -1    0    0  501  502  0.00000000000E+00  0.00000000000E+00  0.13106324241E+03  0.13106324241E+03  0.00000000000E+00 0. -1.
         21   -1    0    0  502  503 -0.00000000000E+00 -0.00000000000E+00 -0.24730441764E+03  0.24730441764E+03  0.00000000000E+00 0. -1.
          6    1    1    2  501    0  0.86432853618E+01 -0.23277252535E+02 -0.12716214439E+02  0.17523481097E+03  0.17300000000E+03 0. -1.
         -6    1    1    2    0  503 -0.86432853618E+01  0.23277252535E+02 -0.10352496080E+03  0.20313284908E+03  0.17300000000E+03 0. -1.
<mgrwt>
<rscale>  2 0.17477282E+03</rscale>
<asrwt>0</asrwt>
<pdfrwt beam="1">  1       21 0.20163576E-01 0.17477282E+03</pdfrwt>
<pdfrwt beam="2">  1       21 0.38046833E-01 0.17477282E+03</pdfrwt>
<totfact> 0.15233606E+05</totfact>
</mgrwt>
</event>
<event>
 4    1  0.3875622E-001  0.1747711E+03  0.7546771E-02  0.1172962E+00
         21   -1    0    0  503  502  0.00000000000E+00  0.00000000000E+00  0.18096444371E+02  0.18096444371E+02  0.00000000000E+00 0.  1.
         21   -1    0    0  501  503 -0.00000000000E+00 -0.00000000000E+00 -0.19854215052E+04  0.19854215052E+04  0.00000000000E+00 0. -1.
          6    1    1    2  501    0  0.18867506730E+02  0.16122937706E+02 -0.59587097995E+03  0.62097275035E+03  0.17300000000E+03 0.  1.
         -6    1    1    2    0  502 -0.18867506730E+02 -0.16122937706E+02 -0.13714540809E+04  0.13825451993E+04  0.17300000000E+03 0. -1.
<mgrwt>
<rscale>  2 0.17477108E+03</rscale>
<asrwt>0</asrwt>
<pdfrwt beam="1">  1       21 0.27840690E-02 0.17477108E+03</pdfrwt>
<pdfrwt beam="2">  1       21 0.30544940E+00 0.17477108E+03</pdfrwt>
<totfact> 0.23158985E+04</totfact>
</mgrwt>
</event>
<event>
 4    1  0.3875622E-001  0.2139713E+03  0.7546771E-02  0.1138459E+00
         21   -1    0    0  503  502  0.00000000000E+00  0.00000000000E+00  0.24498073090E+03  0.24498073090E+03  0.00000000000E+00 0. -1.
         21   -1    0    0  501  503 -0.00000000000E+00 -0.00000000000E+00 -0.22746785547E+03  0.22746785547E+03  0.00000000000E+00 0. -1.
          6    1    1    2  501    0 -0.12026563127E+03  0.37294674510E+02 -0.91019339557E+02  0.23252577273E+03  0.17300000000E+03 0.  1.
         -6    1    1    2    0  502  0.12026563127E+03 -0.37294674510E+02  0.10853221499E+03  0.23992281363E+03  0.17300000000E+03 0.  1.
<mgrwt>
<rscale>  2 0.21397129E+03</rscale>
<asrwt>0</asrwt>
<pdfrwt beam="1">  1       21 0.37689343E-01 0.21397129E+03</pdfrwt>
<pdfrwt beam="2">  1       21 0.34995054E-01 0.21397129E+03</pdfrwt>
<totfact> 0.52908258E+04</totfact>
</mgrwt>
</event>
<event>
 4    1  0.3875622E-001  0.2139714E+03  0.7546771E-02  0.1138459E+00
         21   -1    0    0  501  502  0.00000000000E+00  0.00000000000E+00  0.33463990979E+03  0.33463990979E+03  0.00000000000E+00 0.  1.
         21   -1    0    0  502  503 -0.00000000000E+00 -0.00000000000E+00 -0.27920869111E+03  0.27920869111E+03  0.00000000000E+00 0. -1.
          6    1    1    2  501    0 -0.10958344215E+03 -0.62017926343E+02  0.24690130408E+03  0.32671701507E+03  0.17300000000E+03 0.  1.
         -6    1    1    2    0  503  0.10958344215E+03  0.62017926343E+02 -0.19147008540E+03  0.28713158583E+03  0.17300000000E+03 0. -1.
<mgrwt>
<rscale>  2 0.21397139E+03</rscale>
<asrwt>0</asrwt>
<pdfrwt beam="1">  1       21 0.51483063E-01 0.21397139E+03</pdfrwt>
<pdfrwt beam="2">  1       21 0.42955183E-01 0.21397139E+03</pdfrwt>
<totfact> 0.18445555E+04</totfact>
</mgrwt>
</event>
<event>
 4    1  0.3875622E-001  0.1758349E+03  0.7546771E-02  0.1171896E+00
         21   -1    0    0  503  502  0.00000000000E+00  0.00000000000E+00  0.96761509264E+02  0.96761509264E+02  0.00000000000E+00 0. -1.
         21   -1    0    0  501  503 -0.00000000000E+00 -0.00000000000E+00 -0.35185948369E+03  0.35185948369E+03  0.00000000000E+00 0. -1.
          6    1    1    2  501    0 -0.42929899890E+01  0.31152635972E+02 -0.19554514613E+03  0.26297494304E+03  0.17300000000E+03 0.  1.
         -6    1    1    2    0  502  0.42929899890E+01 -0.31152635972E+02 -0.59552828296E+02  0.18564604991E+03  0.17300000000E+03 0.  1.
<mgrwt>
<rscale>  2 0.17583491E+03</rscale>
<asrwt>0</asrwt>
<pdfrwt beam="1">  1       21 0.14886386E-01 0.17583491E+03</pdfrwt>
<pdfrwt beam="2">  1       21 0.54132229E-01 0.17583491E+03</pdfrwt>
<totfact> 0.12906196E+05</totfact>
</mgrwt>
</event>
<event>
 4    1  0.3875622E-001  0.1759462E+03  0.7546771E-02  0.1171785E+00
         21   -1    0    0  503  502  0.00000000000E+00  0.00000000000E+00  0.14068858030E+03  0.14068858030E+03  0.00000000000E+00 0.  1.
         21   -1    0    0  501  503 -0.00000000000E+00 -0.00000000000E+00 -0.23215894584E+03  0.23215894584E+03  0.00000000000E+00 0.  1.
          6    1    1    2  501    0 -0.29503480313E+02  0.12554090070E+02 -0.88329135542E+02  0.19687330117E+03  0.17300000000E+03 0.  1.
         -6    1    1    2    0  502  0.29503480313E+02 -0.12554090070E+02 -0.31412300047E+01  0.17597422497E+03  0.17300000000E+03 0.  1.
<mgrwt>
<rscale>  2 0.17594619E+03</rscale>
<asrwt>0</asrwt>
<pdfrwt beam="1">  1       21 0.21644397E-01 0.17594619E+03</pdfrwt>
<pdfrwt beam="2">  1       21 0.35716761E-01 0.17594619E+03</pdfrwt>
<totfact> 0.15126603E+05</totfact>
</mgrwt>
</event>
<event>
 4    1  0.3875622E-001  0.2404920E+03  0.7546771E-02  0.1119465E+00
         21   -1    0    0  501  502  0.00000000000E+00  0.00000000000E+00  0.67087303470E+02  0.67087303470E+02  0.00000000000E+00 0.  1.
         21   -1    0    0  502  503 -0.00000000000E+00 -0.00000000000E+00 -0.10544418596E+04  0.10544418596E+04  0.00000000000E+00 0. -1.
          6    1    1    2  501    0  0.14200774973E+03 -0.87984181944E+02 -0.25418112649E+03  0.34992065146E+03  0.17300000000E+03 0.  1.
         -6    1    1    2    0  503 -0.14200774973E+03  0.87984181944E+02 -0.73317342968E+03  0.77160851164E+03  0.17300000000E+03 0.  1.
<mgrwt>
<rscale>  2 0.24049203E+03</rscale>
<asrwt>0</asrwt>
<pdfrwt beam="1">  1       21 0.10321123E-01 0.24049203E+03</pdfrwt>
<pdfrwt beam="2">  1       21 0.16222183E+00 0.24049203E+03</pdfrwt>
<totfact> 0.18035225E+04</totfact>
</mgrwt>
</event>
<event>
 4    1  0.3875622E-001  0.2012635E+03  0.7546771E-02  0.1148677E+00
         21   -1    0    0  503  502  0.00000000000E+00  0.00000000000E+00  0.73518646941E+02  0.73518646941E+02  0.00000000000E+00 0.  1.
         21   -1    0    0  501  503 -0.00000000000E+00 -0.00000000000E+00 -0.67928739937E+03  0.67928739937E+03  0.00000000000E+00 0. -1.
          6    1    1    2  501    0 -0.10265509303E+03 -0.63192492148E+01 -0.46647527974E+03  0.50804152158E+03  0.17300000000E+03 0. -1.
         -6    1    1    2    0  502  0.10265509303E+03  0.63192492148E+01 -0.13929347269E+03  0.24476452473E+03  0.17300000000E+03 0.  1.
<mgrwt>
<rscale>  2 0.20126351E+03</rscale>
<asrwt>0</asrwt>
<pdfrwt beam="1">  1       21 0.11310561E-01 0.20126351E+03</pdfrwt>
<pdfrwt beam="2">  1       21 0.10450575E+00 0.20126351E+03</pdfrwt>
<totfact> 0.47976792E+04</totfact>
</mgrwt>
</event>
<event>
 4    1  0.3875622E-001  0.2310630E+03  0.7546771E-02  0.1125894E+00
         21   -1    0    0  501  502  0.00000000000E+00  0.00000000000E+00  0.94575930793E+03  0.94575930793E+03  0.00000000000E+00 0. -1.
         21   -1    0    0  502  503 -0.00000000000E+00 -0.00000000000E+00 -0.76591514963E+02  0.76591514963E+02  0.00000000000E+00 0. -1.
          6    1    1    2  501    0 -0.14877522580E+03  0.36428815144E+02  0.17246233972E+03  0.28832860595E+03  0.17300000000E+03 0. -1.
         -6    1    1    2    0  503  0.14877522580E+03 -0.36428815144E+02  0.69670545325E+03  0.73402221695E+03  0.17300000000E+03 0. -1.
<mgrwt>
<rscale>  2 0.23106304E+03</rscale>
<asrwt>0</asrwt>
<pdfrwt beam="1">  1       21 0.14550142E+00 0.23106304E+03</pdfrwt>
<pdfrwt beam="2">  1       21 0.11783311E-01 0.23106304E+03</pdfrwt>
<totfact> 0.19151695E+04</totfact>
</mgrwt>
</event>
<event>
 4    1  0.3875622E-001  0.1748855E+03  0.7546771E-02  0.1172847E+00
         21   -1    0    0  501  502  0.00000000000E+00  0.00000000000E+00  0.80334561137E+03  0.80334561137E+03  0.00000000000E+00 0.  1.
         21   -1    0    0  502  503 -0.00000000000E+00 -0.00000000000E+00 -0.42561734303E+02  0.42561734303E+02  0.00000000000E+00 0.  1.
          6    1    1    2  501    0  0.23134505558E+02 -0.10988363714E+02  0.51776290250E+03  0.54650102716E+03  0.17300000000E+03 0.  1.
         -6    1    1    2    0  503 -0.23134505558E+02  0.10988363714E+02  0.24302097456E+03  0.29940631851E+03  0.17300000000E+03 0.  1.
<mgrwt>
<rscale>  2 0.17488553E+03</rscale>
<asrwt>0</asrwt>
<pdfrwt beam="1">  1       21 0.12359162E+00 0.17488553E+03</pdfrwt>
<pdfrwt beam="2">  1       21 0.65479597E-02 0.17488553E+03</pdfrwt>
<totfact> 0.83973240E+04</totfact>
</mgrwt>
</event>
<event>
 4    1  0.3875622E-001  0.2764580E+03  0.7546771E-02  0.1097639E+00
         21   -1    0    0  501  502  0.00000000000E+00  0.00000000000E+00  0.18879058096E+03  0.18879058096E+03  0.00000000000E+00 0.  1.
         21   -1    0    0  502  503 -0.00000000000E+00 -0.00000000000E+00 -0.40806330528E+03  0.40806330528E+03  0.00000000000E+00 0. -1.
          6    1    1    2  501    0  0.10816892871E+03  0.18654627618E+03 -0.13618016707E+03  0.30817863034E+03  0.17300000000E+03 0. -1.
         -6    1    1    2    0  503 -0.10816892871E+03 -0.18654627618E+03 -0.83092557249E+02  0.28867525590E+03  0.17300000000E+03 0.  1.
<mgrwt>
<rscale>  2 0.27645801E+03</rscale>
<asrwt>0</asrwt>
<pdfrwt beam="1">  1       21 0.29044705E-01 0.27645801E+03</pdfrwt>
<pdfrwt beam="2">  1       21 0.62778969E-01 0.27645801E+03</pdfrwt>
<totfact> 0.25593562E+04</totfact>
</mgrwt>
</event>
<event>
 4    1  0.3875622E-001  0.1778873E+03  0.7546771E-02  0.1169864E+00
         21   -1    0    0  503  502  0.00000000000E+00  0.00000000000E+00  0.16935306482E+03  0.16935306482E+03  0.00000000000E+00 0. -1.
         21   -1    0    0  501  503 -0.00000000000E+00 -0.00000000000E+00 -0.19324012785E+03  0.19324012785E+03  0.00000000000E+00 0. -1.
          6    1    1    2  501    0  0.34906408887E+02 -0.22280472110E+02  0.21020799039E+02  0.17912495865E+03  0.17300000000E+03 0. -1.
         -6    1    1    2    0  502 -0.34906408887E+02  0.22280472110E+02 -0.44907862073E+02  0.18346823402E+03  0.17300000000E+03 0. -1.
<mgrwt>
<rscale>  2 0.17788726E+03</rscale>
<asrwt>0</asrwt>
<pdfrwt beam="1">  1       21 0.26054318E-01 0.17788726E+03</pdfrwt>
<pdfrwt beam="2">  1       21 0.29729251E-01 0.17788726E+03</pdfrwt>
<totfact> 0.15251653E+05</totfact>
</mgrwt>
</event>
<event>
 4    1  0.3875622E-001  0.2285070E+03  0.7546771E-02  0.1127695E+00
         21   -1    0    0  503  502  0.00000000000E+00  0.00000000000E+00  0.33681515893E+02  0.33681515893E+02  0.00000000000E+00 0.  1.
         21   -1    0    0  501  503 -0.00000000000E+00 -0.00000000000E+00 -0.15514412330E+04  0.15514412330E+04  0.00000000000E+00 0. -1.
          6    1    1    2  501    0 -0.47745955798E+02  0.14144530024E+03 -0.73710496738E+03  0.77171185179E+03  0.17300000000E+03 0.  1.
         -6    1    1    2    0  502  0.47745955798E+02 -0.14144530024E+03 -0.78065474973E+03  0.81341089711E+03  0.17300000000E+03 0.  1.
<mgrwt>
<rscale>  2 0.22850700E+03</rscale>
<asrwt>0</asrwt>
<pdfrwt beam="1">  1       21 0.51817724E-02 0.22850700E+03</pdfrwt>
<pdfrwt beam="2">  1       21 0.23868324E+00 0.22850700E+03</pdfrwt>
<totfact> 0.19081604E+04</totfact>
</mgrwt>
</event>
<event>
 4    1  0.3875622E-001  0.1996225E+03  0.7546771E-02  0.1150058E+00
         21   -1    0    0  503  502  0.00000000000E+00  0.00000000000E+00  0.77846551377E+02  0.77846551377E+02  0.00000000000E+00 0.  1.
         21   -1    0    0  501  503 -0.00000000000E+00 -0.00000000000E+00 -0.59405416461E+03  0.59405416461E+03  0.00000000000E+00 0.  1.
          6    1    1    2  501    0 -0.99515223816E+02 -0.41067108861E+01 -0.38304165342E+03  0.43193755694E+03  0.17300000000E+03 0.  1.
         -6    1    1    2    0  502  0.99515223816E+02  0.41067108861E+01 -0.13316595982E+03  0.23996315905E+03  0.17300000000E+03 0.  1.
<mgrwt>
<rscale>  2 0.19962251E+03</rscale>
<asrwt>0</asrwt>
<pdfrwt beam="1">  1       21 0.11976392E-01 0.19962251E+03</pdfrwt>
<pdfrwt beam="2">  1       21 0.91392951E-01 0.19962251E+03</pdfrwt>
<totfact> 0.59501678E+04</totfact>
</mgrwt>
</event>
<event>
 4    1  0.3875622E-001  0.1827046E+03  0.7546771E-02  0.1165211E+00
         21   -1    0    0  501  502  0.00000000000E+00  0.00000000000E+00  0.28864352651E+03  0.28864352651E+03  0.00000000000E+00 0.  1.
         21   -1    0    0  502  503 -0.00000000000E+00 -0.00000000000E+00 -0.12545835108E+03  0.12545835108E+03  0.00000000000E+00 0.  1.
          6    1    1    2  501    0  0.50903470660E+02  0.29339381501E+02  0.13949226281E+03  0.22986747055E+03  0.17300000000E+03 0.  1.
         -6    1    1    2    0  503 -0.50903470660E+02 -0.29339381501E+02  0.23692912619E+02  0.18423440705E+03  0.17300000000E+03 0.  1.
<mgrwt>
<rscale>  2 0.18270458E+03</rscale>
<asrwt>0</asrwt>
<pdfrwt beam="1">  1       21 0.44406696E-01 0.18270458E+03</pdfrwt>
<pdfrwt beam="2">  1       21 0.19301285E-01 0.18270458E+03</pdfrwt>
<totfact> 0.12052905E+05</totfact>
</mgrwt>
</event>
<event>
 4    1  0.3875622E-001  0.2419835E+03  0.7546771E-02  0.1118478E+00
         21   -1    0    0  503  502  0.00000000000E+00  0.00000000000E+00  0.11361262160E+03  0.11361262160E+03  0.00000000000E+00 0. -1.
         21   -1    0    0  501  503 -0.00000000000E+00 -0.00000000000E+00 -0.55110048924E+03  0.55110048924E+03  0.00000000000E+00 0. -1.
          6    1    1    2  501    0  0.18820474006E+02  0.16814520536E+03 -0.30333449601E+03  0.38803071631E+03  0.17300000000E+03 0. -1.
         -6    1    1    2    0  502 -0.18820474006E+02 -0.16814520536E+03 -0.13415337163E+03  0.27668239454E+03  0.17300000000E+03 0. -1.
<mgrwt>
<rscale>  2 0.24198351E+03</rscale>
<asrwt>0</asrwt>
<pdfrwt beam="1">  1       21 0.17478864E-01 0.24198351E+03</pdfrwt>
<pdfrwt beam="2">  1       21 0.84784693E-01 0.24198351E+03</pdfrwt>
<totfact> 0.34845796E+04</totfact>
</mgrwt>
</event>
<event>
 4    1  0.3875622E-001  0.2108051E+03  0.7546771E-02  0.1140930E+00
         21   -1    0    0  501  502  0.00000000000E+00  0.00000000000E+00  0.15347532331E+03  0.15347532331E+03  0.00000000000E+00 0. -1.
         21   -1    0    0  502  503 -0.00000000000E+00 -0.00000000000E+00 -0.30784358693E+03  0.30784358693E+03  0.00000000000E+00 0. -1.
          6    1    1    2  501    0  0.62213258510E+02  0.10314707680E+03 -0.20956034445E+02  0.21184419833E+03  0.17300000000E+03 0. -1.
         -6    1    1    2    0  503 -0.62213258510E+02 -0.10314707680E+03 -0.13341222918E+03  0.24947471191E+03  0.17300000000E+03 0. -1.
<mgrwt>
<rscale>  2 0.21080514E+03</rscale>
<asrwt>0</asrwt>
<pdfrwt beam="1">  1       21 0.23611588E-01 0.21080514E+03</pdfrwt>
<pdfrwt beam="2">  1       21 0.47360551E-01 0.21080514E+03</pdfrwt>
<totfact> 0.71445266E+04</totfact>
</mgrwt>
</event>
<event>
 4    1  0.3875622E-001  0.1858515E+03  0.7546771E-02  0.1162257E+00
         21   -1    0    0  501  502  0.00000000000E+00  0.00000000000E+00  0.25399526364E+03  0.25399526364E+03  0.00000000000E+00 0.  1.
         21   -1    0    0  502  503 -0.00000000000E+00 -0.00000000000E+00 -0.13620361334E+03  0.13620361334E+03  0.00000000000E+00 0.  1.
          6    1    1    2  501    0 -0.54734647854E+01  0.67689196185E+02  0.51167326328E+02  0.19276639069E+03  0.17300000000E+03 0.  1.
         -6    1    1    2    0  503  0.54734647854E+01 -0.67689196185E+02  0.66624323966E+02  0.19743248629E+03  0.17300000000E+03 0.  1.
<mgrwt>
<rscale>  2 0.18585152E+03</rscale>
<asrwt>0</asrwt>
<pdfrwt beam="1">  1       21 0.39076194E-01 0.18585152E+03</pdfrwt>
<pdfrwt beam="2">  1       21 0.20954402E-01 0.18585152E+03</pdfrwt>
<totfact> 0.13387667E+05</totfact>
</mgrwt>
</event>
<event>
 4    1  0.3875622E-001  0.2879410E+03  0.7546771E-02  0.1091429E+00
         21   -1    0    0  501  502  0.00000000000E+00  0.00000000000E+00  0.51348161212E+03  0.51348161212E+03  0.00000000000E+00 0.  1.
         21   -1    0    0  502  503 -0.00000000000E+00 -0.00000000000E+00 -0.16267820352E+03  0.16267820352E+03  0.00000000000E+00 0.  1.
          6    1    1    2  501    0 -0.57008696865E+02  0.22300448316E+03  0.20458158190E+03  0.35321893307E+03  0.17300000000E+03 0.  1.
         -6    1    1    2    0  503  0.57008696865E+02 -0.22300448316E+03  0.14622182670E+03  0.32294088257E+03  0.17300000000E+03 0.  1.
<mgrwt>
<rscale>  2 0.28794095E+03</rscale>
<asrwt>0</asrwt>
<pdfrwt beam="1">  1       21 0.78997170E-01 0.28794095E+03</pdfrwt>
<pdfrwt beam="2">  1       21 0.25027416E-01 0.28794095E+03</pdfrwt>
<totfact> 0.20375753E+04</totfact>
</mgrwt>
</event>
<event>
 4    1  0.3875622E-001  0.1864794E+03  0.7546771E-02  0.1161676E+00
         21   -1    0    0  501  502  0.00000000000E+00  0.00000000000E+00  0.42572823159E+03  0.42572823159E+03  0.00000000000E+00 0. -1.
         21   -1    0    0  502  503 -0.00000000000E+00 -0.00000000000E+00 -0.85847532976E+02  0.85847532976E+02  0.00000000000E+00 0.  1.
          6    1    1    2  501    0  0.55893628520E+01 -0.69385248236E+02  0.22628132658E+03  0.29321969990E+03  0.17300000000E+03 0. -1.
         -6    1    1    2    0  503 -0.55893628520E+01  0.69385248236E+02  0.11359937203E+03  0.21835606466E+03  0.17300000000E+03 0.  1.
<mgrwt>
<rscale>  2 0.18647937E+03</rscale>
<asrwt>0</asrwt>
<pdfrwt beam="1">  1       21 0.65496650E-01 0.18647937E+03</pdfrwt>
<pdfrwt beam="2">  1       21 0.13207313E-01 0.18647937E+03</pdfrwt>
<totfact> 0.10614850E+05</totfact>
</mgrwt>
</event>
<event>
 4    1  0.3875622E-001  0.1888003E+03  0.7546771E-02  0.1159548E+00
         21   -1    0    0  503  502  0.00000000000E+00  0.00000000000E+00  0.58566142856E+03  0.58566142856E+03  0.00000000000E+00 0.  1.
         21   -1    0    0  501  503 -0.00000000000E+00 -0.00000000000E+00 -0.74842368642E+02  0.74842368642E+02  0.00000000000E+00 0.  1.
          6    1    1    2  501    0  0.81144181902E+01 -0.75171315622E+02  0.11268350616E+03  0.21987074165E+03  0.17300000000E+03 0. -1.
         -6    1    1    2    0  502 -0.81144181902E+01  0.75171315622E+02  0.39813555376E+03  0.44063305555E+03  0.17300000000E+03 0. -1.
<mgrwt>
<rscale>  2 0.18880035E+03</rscale>
<asrwt>0</asrwt>
<pdfrwt beam="1">  1       21 0.90101755E-01 0.18880035E+03</pdfrwt>
<pdfrwt beam="2">  1       21 0.11514211E-01 0.18880035E+03</pdfrwt>
<totfact> 0.66316528E+04</totfact>
</mgrwt>
</event>
<event>
 4    1  0.3875622E-001  0.1812709E+03  0.7546771E-02  0.1166579E+00
         21   -1    0    0  501  502  0.00000000000E+00  0.00000000000E+00  0.14990709781E+03  0.14990709781E+03  0.00000000000E+00 0. -1.
         21   -1    0    0  502  503 -0.00000000000E+00 -0.00000000000E+00 -0.22044991620E+03  0.22044991620E+03  0.00000000000E+00 0. -1.
          6    1    1    2  501    0  0.43222480435E+01  0.53957845248E+02 -0.49233821587E+02  0.18783796230E+03  0.17300000000E+03 0. -1.
         -6    1    1    2    0  503 -0.43222480435E+01 -0.53957845248E+02 -0.21308996803E+02  0.18251905171E+03  0.17300000000E+03 0. -1.
<mgrwt>
<rscale>  2 0.18127088E+03</rscale>
<asrwt>0</asrwt>
<pdfrwt beam="1">  1       21 0.23062630E-01 0.18127088E+03</pdfrwt>
<pdfrwt beam="2">  1       21 0.33915372E-01 0.18127088E+03</pdfrwt>
<totfact> 0.14843640E+05</totfact>
</mgrwt>
</event>
<event>
 4    1  0.3875622E-001  0.2635375E+03  0.7546771E-02  0.1105036E+00
         21   -1    0    0  501  502  0.00000000000E+00  0.00000000000E+00  0.73505191861E+03  0.73505191861E+03  0.00000000000E+00 0.  1.
         21   -1    0    0  502  503 -0.00000000000E+00 -0.00000000000E+00 -0.12650585153E+03  0.12650585153E+03  0.00000000000E+00 0.  1.
          6    1    1    2  501    0 -0.27499118320E+02 -0.19689294652E+03  0.87547784195E+02  0.27769884482E+03  0.17300000000E+03 0. -1.
         -6    1    1    2    0  503  0.27499118320E+02  0.19689294652E+03  0.52099828289E+03  0.58385892532E+03  0.17300000000E+03 0. -1.
<mgrwt>
<rscale>  2 0.26353754E+03</rscale>
<asrwt>0</asrwt>
<pdfrwt beam="1">  1       21 0.11308491E+00 0.26353754E+03</pdfrwt>
<pdfrwt beam="2">  1       21 0.19462439E-01 0.26353754E+03</pdfrwt>
<totfact> 0.14222738E+04</totfact>
</mgrwt>
</event>
<event>
 4    1  0.3875622E-001  0.1907728E+03  0.7546771E-02  0.1157766E+00
         21   -1    0    0  501  502  0.00000000000E+00  0.00000000000E+00  0.68601374700E+02  0.68601374700E+02  0.00000000000E+00 0.  1.
         21   -1    0    0  502  503 -0.00000000000E+00 -0.00000000000E+00 -0.56211261635E+03  0.56211261635E+03  0.00000000000E+00 0.  1.
          6    1    1    2  501    0 -0.80276566665E+02  0.45742656632E+01 -0.17199056662E+03  0.25685600259E+03  0.17300000000E+03 0.  1.
         -6    1    1    2    0  503  0.80276566665E+02 -0.45742656632E+01 -0.32152067503E+03  0.37385798846E+03  0.17300000000E+03 0.  1.
<mgrwt>
<rscale>  2 0.19077277E+03</rscale>
<asrwt>0</asrwt>
<pdfrwt beam="1">  1       21 0.10554057E-01 0.19077277E+03</pdfrwt>
<pdfrwt beam="2">  1       21 0.86478866E-01 0.19077277E+03</pdfrwt>
<totfact> 0.85025887E+04</totfact>
</mgrwt>
</event>
<event>
 4    1  0.3875622E-001  0.1772455E+03  0.7546771E-02  0.1170496E+00
         21   -1    0    0  501  502  0.00000000000E+00  0.00000000000E+00  0.56282425834E+03  0.56282425834E+03  0.00000000000E+00 0.  1.
         21   -1    0    0  502  503 -0.00000000000E+00 -0.00000000000E+00 -0.61105050610E+02  0.61105050610E+02  0.00000000000E+00 0.  1.
          6    1    1    2  501    0 -0.31721755159E+02 -0.21924497712E+02  0.34262033533E+03  0.38575205448E+03  0.17300000000E+03 0.  1.
         -6    1    1    2    0  503  0.31721755159E+02  0.21924497712E+02  0.15909887240E+03  0.23817725448E+03  0.17300000000E+03 0.  1.
<mgrwt>
<rscale>  2 0.17724546E+03</rscale>
<asrwt>0</asrwt>
<pdfrwt beam="1">  1       21 0.86588344E-01 0.17724546E+03</pdfrwt>
<pdfrwt beam="2">  1       21 0.94007774E-02 0.17724546E+03</pdfrwt>
<totfact> 0.10455409E+05</totfact>
</mgrwt>
</event>
<event>
 4    1  0.3875622E-001  0.2038191E+03  0.7546771E-02  0.1146556E+00
         21   -1    0    0  501  502  0.00000000000E+00  0.00000000000E+00  0.10290725948E+03  0.10290725948E+03  0.00000000000E+00 0. -1.
         21   -1    0    0  502  503 -0.00000000000E+00 -0.00000000000E+00 -0.48884716847E+03  0.48884716847E+03  0.00000000000E+00 0. -1.
          6    1    1    2  501    0 -0.23824083304E+02 -0.10509813767E+03 -0.31646403272E+03  0.37641956577E+03  0.17300000000E+03 0. -1.
         -6    1    1    2    0  503  0.23824083304E+02  0.10509813767E+03 -0.69475876273E+02  0.21533486218E+03  0.17300000000E+03 0. -1.
<mgrwt>
<rscale>  2 0.20381905E+03</rscale>
<asrwt>0</asrwt>
<pdfrwt beam="1">  1       21 0.15831886E-01 0.20381905E+03</pdfrwt>
<pdfrwt beam="2">  1       21 0.75207256E-01 0.20381905E+03</pdfrwt>
<totfact> 0.55869516E+04</totfact>
</mgrwt>
</event>
<event>
 4    1  0.3875622E-001  0.2242519E+03  0.7546771E-02  0.1130752E+00
         21   -1    0    0  503  502  0.00000000000E+00  0.00000000000E+00  0.33803964354E+03  0.33803964354E+03  0.00000000000E+00 0.  1.
         21   -1    0    0  501  503 -0.00000000000E+00 -0.00000000000E+00 -0.15324247700E+03  0.15324247700E+03  0.00000000000E+00 0.  1.
          6    1    1    2  501    0 -0.94432238860E+02 -0.10696944974E+03  0.50416455244E+02  0.22984936344E+03  0.17300000000E+03 0.  1.
         -6    1    1    2    0  502  0.94432238860E+02  0.10696944974E+03  0.13438071130E+03  0.26143275709E+03  0.17300000000E+03 0.  1.
<mgrwt>
<rscale>  2 0.22425189E+03</rscale>
<asrwt>0</asrwt>
<pdfrwt beam="1">  1       21 0.52006099E-01 0.22425189E+03</pdfrwt>
<pdfrwt beam="2">  1       21 0.23575766E-01 0.22425189E+03</pdfrwt>
<totfact> 0.58592599E+04</totfact>
</mgrwt>
</event>
<event>
 4    1  0.3875622E-001  0.1938967E+03  0.7546771E-02  0.1154993E+00
         21   -1    0    0  503  502  0.00000000000E+00  0.00000000000E+00  0.17489281058E+04  0.17489281058E+04  0.00000000000E+00 0.  1.
         21   -1    0    0  501  503 -0.00000000000E+00 -0.00000000000E+00 -0.21742109763E+02  0.21742109763E+02  0.00000000000E+00 0.  1.
          6    1    1    2  501    0 -0.37702573133E+02 -0.79028177772E+02  0.95767946042E+03  0.97711098950E+03  0.17300000000E+03 0.  1.
         -6    1    1    2    0  502  0.37702573133E+02  0.79028177772E+02  0.76950653565E+03  0.79355922609E+03  0.17300000000E+03 0.  1.
<mgrwt>
<rscale>  2 0.19389672E+03</rscale>
<asrwt>0</asrwt>
<pdfrwt beam="1">  1       21 0.26906575E+00 0.19389672E+03</pdfrwt>
<pdfrwt beam="2">  1       21 0.33449413E-02 0.19389672E+03</pdfrwt>
<totfact> 0.27157707E+04</totfact>
</mgrwt>
</event>
<event>
 4    1  0.3875622E-001  0.2178537E+03  0.7546771E-02  0.1135493E+00
         21   -1    0    0  503  502  0.00000000000E+00  0.00000000000E+00  0.17820749647E+04  0.17820749647E+04  0.00000000000E+00 0.  1.
         21   -1    0    0  501  503 -0.00000000000E+00 -0.00000000000E+00 -0.28060184102E+02  0.28060184102E+02  0.00000000000E+00 0.  1.
          6    1    1    2  501    0 -0.13216758457E+03  0.79351592704E+01  0.10811936058E+04  0.11029233203E+04  0.17300000000E+03 0.  1.
         -6    1    1    2    0  502  0.13216758457E+03 -0.79351592704E+01  0.67282117473E+03  0.70721182847E+03  0.17300000000E+03 0.  1.
<mgrwt>
<rscale>  2 0.21785371E+03</rscale>
<asrwt>0</asrwt>
<pdfrwt beam="1">  1       21 0.27416529E+00 0.21785371E+03</pdfrwt>
<pdfrwt beam="2">  1       21 0.43169528E-02 0.21785371E+03</pdfrwt>
<totfact> 0.16200303E+04</totfact>
</mgrwt>
</event>
<event>
 4    1  0.3875622E-001  0.2099252E+03  0.7546771E-02  0.1141625E+00
         21   -1    0    0  501  502  0.00000000000E+00  0.00000000000E+00  0.57838098003E+03  0.57838098003E+03  0.00000000000E+00 0. -1.
         21   -1    0    0  502  503 -0.00000000000E+00 -0.00000000000E+00 -0.82123792176E+02  0.82123792176E+02  0.00000000000E+00 0. -1.
          6    1    1    2  501    0  0.77992246609E+02 -0.89759587724E+02  0.33687858521E+03  0.39693293551E+03  0.17300000000E+03 0. -1.
         -6    1    1    2    0  503 -0.77992246609E+02  0.89759587724E+02  0.15937860265E+03  0.26357183670E+03  0.17300000000E+03 0. -1.
<mgrwt>
<rscale>  2 0.20992516E+03</rscale>
<asrwt>0</asrwt>
<pdfrwt beam="1">  1       21 0.88981687E-01 0.20992516E+03</pdfrwt>
<pdfrwt beam="2">  1       21 0.12634430E-01 0.20992516E+03</pdfrwt>
<totfact> 0.57229540E+04</totfact>
</mgrwt>
</event>
<event>
 4    1  0.3875622E-001  0.1744018E+03  0.7546771E-02  0.1173334E+00
         21   -1    0    0  501  502  0.00000000000E+00  0.00000000000E+00  0.79084843002E+03  0.79084843002E+03  0.00000000000E+00 0.  1.
         21   -1    0    0  502  503 -0.00000000000E+00 -0.00000000000E+00 -0.55235812421E+02  0.55235812421E+02  0.00000000000E+00 0. -1.
          6    1    1    2  501    0 -0.16870166806E+02 -0.14226672066E+02  0.60094561947E+03  0.62574087151E+03  0.17300000000E+03 0.  1.
         -6    1    1    2    0  503  0.16870166806E+02  0.14226672066E+02  0.13466699814E+03  0.22034337093E+03  0.17300000000E+03 0. -1.
<mgrwt>
<rscale>  2 0.17440184E+03</rscale>
<asrwt>0</asrwt>
<pdfrwt beam="1">  1       21 0.12166898E+00 0.17440184E+03</pdfrwt>
<pdfrwt beam="2">  1       21 0.84978179E-02 0.17440184E+03</pdfrwt>
<totfact> 0.55636015E+04</totfact>
</mgrwt>
</event>
<event>
 4    1  0.3875622E-001  0.2754032E+03  0.7546771E-02  0.1098226E+00
         21   -1    0    0  503  502  0.00000000000E+00  0.00000000000E+00  0.13975688937E+03  0.13975688937E+03  0.00000000000E+00 0. -1.
         21   -1    0    0  501  503 -0.00000000000E+00 -0.00000000000E+00 -0.55797686174E+03  0.55797686174E+03  0.00000000000E+00 0. -1.
          6    1    1    2  501    0  0.19838307846E+03  0.81006601007E+02 -0.15139586219E+03  0.31427316512E+03  0.17300000000E+03 0. -1.
         -6    1    1    2    0  502 -0.19838307846E+03 -0.81006601007E+02 -0.26682411019E+03  0.38346058599E+03  0.17300000000E+03 0. -1.
<mgrwt>
<rscale>  2 0.27540319E+03</rscale>
<asrwt>0</asrwt>
<pdfrwt beam="1">  1       21 0.21501060E-01 0.27540319E+03</pdfrwt>
<pdfrwt beam="2">  1       21 0.85842594E-01 0.27540319E+03</pdfrwt>
<totfact> 0.22626987E+04</totfact>
</mgrwt>
</event>
<event>
 4    1  0.3875622E-001  0.2221435E+03  0.7546771E-02  0.1132295E+00
         21   -1    0    0  501  502  0.00000000000E+00  0.00000000000E+00  0.20990476929E+03  0.20990476929E+03  0.00000000000E+00 0. -1.
         21   -1    0    0  502  503 -0.00000000000E+00 -0.00000000000E+00 -0.25004603319E+03  0.25004603319E+03  0.00000000000E+00 0. -1.
          6    1    1    2  501    0 -0.76968410085E+02  0.11616619393E+03  0.36162982601E+02  0.22506772775E+03  0.17300000000E+03 0. -1.
         -6    1    1    2    0  503  0.76968410085E+02 -0.11616619393E+03 -0.76304246501E+02  0.23488307474E+03  0.17300000000E+03 0. -1.
<mgrwt>
<rscale>  2 0.22214347E+03</rscale>
<asrwt>0</asrwt>
<pdfrwt beam="1">  1       21 0.32293041E-01 0.22214347E+03</pdfrwt>
<pdfrwt beam="2">  1       21 0.38468621E-01 0.22214347E+03</pdfrwt>
<totfact> 0.59322601E+04</totfact>
</mgrwt>
</event>
<event>
 4    1  0.3875622E-001  0.1784555E+03  0.7546771E-02  0.1169306E+00
         21   -1    0    0  501  502  0.00000000000E+00  0.00000000000E+00  0.13443783637E+03  0.13443783637E+03  0.00000000000E+00 0. -1.
         21   -1    0    0  502  503 -0.00000000000E+00 -0.00000000000E+00 -0.26474543148E+03  0.26474543148E+03  0.00000000000E+00 0.  1.
          6    1    1    2  501    0 -0.83362787334E+01  0.42986750594E+02 -0.40685470513E+00  0.17845593238E+03  0.17300000000E+03 0. -1.
         -6    1    1    2    0  503  0.83362787334E+01 -0.42986750594E+02 -0.12990074040E+03  0.22072733548E+03  0.17300000000E+03 0.  1.
<mgrwt>
<rscale>  2 0.17845547E+03</rscale>
<asrwt>0</asrwt>
<pdfrwt beam="1">  1       21 0.20682744E-01 0.17845547E+03</pdfrwt>
<pdfrwt beam="2">  1       21 0.40730066E-01 0.17845547E+03</pdfrwt>
<totfact> 0.12650615E+05</totfact>
</mgrwt>
</event>
<event>
 4    1  0.3875622E-001  0.2384727E+03  0.7546771E-02  0.1120814E+00
         21   -1    0    0  501  502  0.00000000000E+00  0.00000000000E+00  0.10511655221E+04  0.10511655221E+04  0.00000000000E+00 0.  1.
         21   -1    0    0  502  503 -0.00000000000E+00 -0.00000000000E+00 -0.58502188068E+02  0.58502188068E+02  0.00000000000E+00 0. -1.
          6    1    1    2  501    0 -0.12431731022E+03  0.10717018910E+03  0.34415242218E+03  0.41870052872E+03  0.17300000000E+03 0. -1.
         -6    1    1    2    0  503  0.12431731022E+03 -0.10717018910E+03  0.64851091182E+03  0.69096718142E+03  0.17300000000E+03 0.  1.
<mgrwt>
<rscale>  2 0.23847273E+03</rscale>
<asrwt>0</asrwt>
<pdfrwt beam="1">  1       21 0.16171776E+00 0.23847273E+03</pdfrwt>
<pdfrwt beam="2">  1       21 0.90003374E-02 0.23847273E+03</pdfrwt>
<totfact> 0.23207947E+04</totfact>
</mgrwt>
</event>
<event>
 4    1  0.3875622E-001  0.1752434E+03  0.7546771E-02  0.1172488E+00
         21   -1    0    0  503  502  0.00000000000E+00  0.00000000000E+00  0.29118744042E+03  0.29118744042E+03  0.00000000000E+00 0.  1.
         21   -1    0    0  501  503 -0.00000000000E+00 -0.00000000000E+00 -0.10578982802E+03  0.10578982802E+03  0.00000000000E+00 0.  1.
          6    1    1    2  501    0 -0.27950660749E+02  0.90407170258E-01  0.81709680914E+02  0.19335645726E+03  0.17300000000E+03 0.  1.
         -6    1    1    2    0  502  0.27950660749E+02 -0.90407170258E-01  0.10368793149E+03  0.20362081118E+03  0.17300000000E+03 0.  1.
<mgrwt>
<rscale>  2 0.17524340E+03</rscale>
<asrwt>0</asrwt>
<pdfrwt beam="1">  1       21 0.44798067E-01 0.17524340E+03</pdfrwt>
<pdfrwt beam="2">  1       21 0.16275358E-01 0.17524340E+03</pdfrwt>
<totfact> 0.16252042E+05</totfact>
</mgrwt>
</event>
<event>
 4    1  0.3875622E-001  0.1939998E+03  0.7546771E-02  0.1154902E+00
         21   -1    0    0  503  502  0.00000000000E+00  0.00000000000E+00  0.73074045287E+03  0.73074045287E+03  0.00000000000E+00 0.  1.
         21   -1    0    0  501  503 -0.00000000000E+00 -0.00000000000E+00 -0.74216483742E+02  0.74216483742E+02  0.00000000000E+00 0.  1.
          6    1    1    2  501    0  0.85685941503E+02 -0.19101269150E+02  0.10561013206E+03  0.22088331546E+03  0.17300000000E+03 0.  1.
         -6    1    1    2    0  502 -0.85685941503E+02  0.19101269150E+02  0.55091383706E+03  0.58407362115E+03  0.17300000000E+03 0.  1.
<mgrwt>
<rscale>  2 0.19399984E+03</rscale>
<asrwt>0</asrwt>
<pdfrwt beam="1">  1       21 0.11242160E+00 0.19399984E+03</pdfrwt>
<pdfrwt beam="2">  1       21 0.11417921E-01 0.19399984E+03</pdfrwt>
<totfact> 0.39702985E+04</totfact>
</mgrwt>
</event>
<event>
 4    1  0.3875622E-001  0.1871876E+03  0.7546771E-02  0.1161023E+00
         21   -1    0    0  503  502  0.00000000000E+00  0.00000000000E+00  0.63705818794E+02  0.63705818794E+02  0.00000000000E+00 0.  1.
         21   -1    0    0  501  503 -0.00000000000E+00 -0.00000000000E+00 -0.66806240412E+03  0.66806240412E+03  0.00000000000E+00 0. -1.
          6    1    1    2  501    0  0.32460196398E+02  0.63690778562E+02 -0.45598050088E+03  0.49290708740E+03  0.17300000000E+03 0. -1.
         -6    1    1    2    0  502 -0.32460196398E+02 -0.63690778562E+02 -0.14837608444E+03  0.23886113551E+03  0.17300000000E+03 0.  1.
<mgrwt>
<rscale>  2 0.18718755E+03</rscale>
<asrwt>0</asrwt>
<pdfrwt beam="1">  1       21 0.98008951E-02 0.18718755E+03</pdfrwt>
<pdfrwt beam="2">  1       21 0.10277883E+00 0.18718755E+03</pdfrwt>
<totfact> 0.64822670E+04</totfact>
</mgrwt>
</event>
<event>
 4    1  0.3875622E-001  0.2125559E+03  0.7546771E-02  0.1139558E+00
         21   -1    0    0  501  502  0.00000000000E+00  0.00000000000E+00  0.81557460669E+03  0.81557460669E+03  0.00000000000E+00 0.  1.
         21   -1    0    0  502  503 -0.00000000000E+00 -0.00000000000E+00 -0.91019546173E+02  0.91019546173E+02  0.00000000000E+00 0. -1.
          6    1    1    2  501    0 -0.11536727154E+03 -0.44061480398E+02  0.64586092228E+03  0.67993849158E+03  0.17300000000E+03 0.  1.
         -6    1    1    2    0  503  0.11536727154E+03  0.44061480398E+02  0.78694138229E+02  0.22665566128E+03  0.17300000000E+03 0. -1.
<mgrwt>
<rscale>  2 0.21255593E+03</rscale>
<asrwt>0</asrwt>
<pdfrwt beam="1">  1       21 0.12547301E+00 0.21255593E+03</pdfrwt>
<pdfrwt beam="2">  1       21 0.14003008E-01 0.21255593E+03</pdfrwt>
<totfact> 0.20741307E+04</totfact>
</mgrwt>
</event>
<event>
 4    1  0.3875622E-001  0.2247369E+03  0.7546771E-02  0.1130400E+00
         21   -1    0    0  501  502  0.00000000000E+00  0.00000000000E+00  0.20126832375E+03  0.20126832375E+03  0.00000000000E+00 0. -1.
         21   -1    0    0  502  503 -0.00000000000E+00 -0.00000000000E+00 -0.25887457034E+03  0.25887457034E+03  0.00000000000E+00 0.  1.
          6    1    1    2  501    0  0.13171043531E+03 -0.56833376493E+02 -0.69077198024E+02  0.23511344228E+03  0.17300000000E+03 0.  1.
         -6    1    1    2    0  503 -0.13171043531E+03  0.56833376493E+02  0.11470951441E+02  0.22502945181E+03  0.17300000000E+03 0. -1.
<mgrwt>
<rscale>  2 0.22473689E+03</rscale>
<asrwt>0</asrwt>
<pdfrwt beam="1">  1       21 0.30964358E-01 0.22473689E+03</pdfrwt>
<pdfrwt beam="2">  1       21 0.39826857E-01 0.22473689E+03</pdfrwt>
<totfact> 0.60006573E+04</totfact>
</mgrwt>
</event>
<event>
 4    1  0.3875622E-001  0.1761538E+03  0.7546771E-02  0.1171578E+00
         21   -1    0    0  503  502  0.00000000000E+00  0.00000000000E+00  0.92812993752E+02  0.92812993752E+02  0.00000000000E+00 0.  1.
         21   -1    0    0  501  503 -0.00000000000E+00 -0.00000000000E+00 -0.33594326934E+03  0.33594326934E+03  0.00000000000E+00 0.  1.
          6    1    1    2  501    0 -0.32947863958E+02 -0.39502138150E+01 -0.13642121832E+03  0.22280241187E+03  0.17300000000E+03 0.  1.
         -6    1    1    2    0  502  0.32947863958E+02  0.39502138150E+01 -0.10670905727E+03  0.20595385122E+03  0.17300000000E+03 0.  1.
<mgrwt>
<rscale>  2 0.17615381E+03</rscale>
<asrwt>0</asrwt>
<pdfrwt beam="1">  1       21 0.14278922E-01 0.17615381E+03</pdfrwt>
<pdfrwt beam="2">  1       21 0.51683579E-01 0.17615381E+03</pdfrwt>
<totfact> 0.15336466E+05</totfact>
</mgrwt>
</event>
<event>
 4    1  0.3875622E-001  0.2762228E+03  0.7546771E-02  0.1097770E+00
         21   -1    0    0  503  502  0.00000000000E+00  0.00000000000E+00  0.37118191442E+02  0.37118191442E+02  0.00000000000E+00 0. -1.
         21   -1    0    0  501  503 -0.00000000000E+00 -0.00000000000E+00 -0.21050041762E+04  0.21050041762E+04  0.00000000000E+00 0.  1.
          6    1    1    2  501    0  0.95222745673E+02 -0.19313893366E+03 -0.86980692284E+03  0.91261333653E+03  0.17300000000E+03 0.  1.
         -6    1    1    2    0  502 -0.95222745673E+02  0.19313893366E+03 -0.11980790619E+04  0.12295090311E+04  0.17300000000E+03 0.  1.
<mgrwt>
<rscale>  2 0.27622277E+03</rscale>
<asrwt>0</asrwt>
<pdfrwt beam="1">  1       21 0.57104922E-02 0.27622277E+03</pdfrwt>
<pdfrwt beam="2">  1       21 0.32384673E+00 0.27622277E+03</pdfrwt>
<totfact> 0.49017635E+03</totfact>
</mgrwt>
</event>
<event>
 4    1  0.3875622E-001  0.1835728E+03  0.7546771E-02  0.1164389E+00
         21   -1    0    0  501  502  0.00000000000E+00  0.00000000000E+00  0.96164612525E+03  0.96164612525E+03  0.00000000000E+00 0. -1.
         21   -1    0    0  502  503 -0.00000000000E+00 -0.00000000000E+00 -0.48684625585E+02  0.48684625585E+02  0.00000000000E+00 0. -1.
          6    1    1    2  501    0 -0.60204083874E+02  0.12059604278E+02  0.72388648126E+03  0.74680024339E+03  0.17300000000E+03 0. -1.
         -6    1    1    2    0  503  0.60204083874E+02 -0.12059604278E+02  0.18907501840E+03  0.26353050744E+03  0.17300000000E+03 0. -1.
<mgrwt>
<rscale>  2 0.18357278E+03</rscale>
<asrwt>0</asrwt>
<pdfrwt beam="1">  1       21 0.14794554E+00 0.18357278E+03</pdfrwt>
<pdfrwt beam="2">  1       21 0.74899431E-02 0.18357278E+03</pdfrwt>
<totfact> 0.41921573E+04</totfact>
</mgrwt>
</event>
<event>
 4    1  0.3875622E-001  0.1787692E+03  0.7546771E-02  0.1169000E+00
         21   -1    0    0  503  502  0.00000000000E+00  0.00000000000E+00  0.15630779677E+03  0.15630779677E+03  0.00000000000E+00 0.  1.
         21   -1    0    0  501  503 -0.00000000000E+00 -0.00000000000E+00 -0.24656201514E+03  0.24656201514E+03  0.00000000000E+00 0.  1.
          6    1    1    2  501    0  0.38735817690E+02 -0.22999085553E+02 -0.12836709847E+03  0.22008301497E+03  0.17300000000E+03 0.  1.
         -6    1    1    2    0  502 -0.38735817690E+02  0.22999085553E+02  0.38112880095E+02  0.18278679695E+03  0.17300000000E+03 0.  1.
<mgrwt>
<rscale>  2 0.17876919E+03</rscale>
<asrwt>0</asrwt>
<pdfrwt beam="1">  1       21 0.24047353E-01 0.17876919E+03</pdfrwt>
<pdfrwt beam="2">  1       21 0.37932618E-01 0.17876919E+03</pdfrwt>
<totfact> 0.10987355E+05</totfact>
</mgrwt>
</event>
<event>
 4    1  0.3875622E-001  0.1837858E+03  0.7546771E-02  0.1164189E+00
         21   -1    0    0  503  502  0.00000000000E+00  0.00000000000E+00  0.91221592880E+02  0.91221592880E+02  0.00000000000E+00 0.  1.
         21   -1    0    0  501  503 -0.00000000000E+00 -0.00000000000E+00 -0.43242245046E+03  0.43242245046E+03  0.00000000000E+00 0.  1.
          6    1    1    2  501    0 -0.12730989175E+02 -0.60713580099E+02 -0.26985677640E+03  0.32649639610E+03  0.17300000000E+03 0.  1.
         -6    1    1    2    0  502  0.12730989175E+02  0.60713580099E+02 -0.71344081174E+02  0.19714764724E+03  0.17300000000E+03 0.  1.
<mgrwt>
<rscale>  2 0.18378579E+03</rscale>
<asrwt>0</asrwt>
<pdfrwt beam="1">  1       21 0.14034092E-01 0.18378579E+03</pdfrwt>
<pdfrwt beam="2">  1       21 0.66526529E-01 0.18378579E+03</pdfrwt>
<totfact> 0.92042327E+04</totfact>
</mgrwt>
</event>
<event>
 4    1  0.3875622E-001  0.2430101E+03  0.7546771E-02  0.1117804E+00
         21   -1    0    0  501  502  0.00000000000E+00  0.00000000000E+00  0.44499920975E+03  0.44499920975E+03  0.00000000000E+00 0.  1.
         21   -1    0    0  502  503 -0.00000000000E+00 -0.00000000000E+00 -0.19909015934E+03  0.19909015934E+03  0.00000000000E+00 0.  1.
          6    1    1    2  501    0 -0.17043179704E+03 -0.88268457078E+01  0.30891669454E+03  0.39304380776E+03  0.17300000000E+03 0.  1.
         -6    1    1    2    0  503  0.17043179704E+03  0.88268457078E+01 -0.63007644135E+02  0.25104556134E+03  0.17300000000E+03 0.  1.
<mgrwt>
<rscale>  2 0.24301010E+03</rscale>
<asrwt>0</asrwt>
<pdfrwt beam="1">  1       21 0.68461416E-01 0.24301010E+03</pdfrwt>
<pdfrwt beam="2">  1       21 0.30629256E-01 0.24301010E+03</pdfrwt>
<totfact> 0.19357279E+04</totfact>
</mgrwt>
</event>
<event>
 4    1  0.3875622E-001  0.2445113E+03  0.7546771E-02  0.1116823E+00
         21   -1    0    0  501  502  0.00000000000E+00  0.00000000000E+00  0.24264135456E+03  0.24264135456E+03  0.00000000000E+00 0.  1.
         21   -1    0    0  502  503 -0.00000000000E+00 -0.00000000000E+00 -0.24664552778E+03  0.24664552778E+03  0.00000000000E+00 0.  1.
          6    1    1    2  501    0  0.54973462183E+02 -0.16381302246E+03  0.57838715386E+01  0.24457972328E+03  0.17300000000E+03 0.  1.
         -6    1    1    2    0  503 -0.54973462183E+02  0.16381302246E+03 -0.97880447638E+01  0.24470715905E+03  0.17300000000E+03 0.  1.
<mgrwt>
<rscale>  2 0.24451132E+03</rscale>
<asrwt>0</asrwt>
<pdfrwt beam="1">  1       21 0.37329439E-01 0.24451132E+03</pdfrwt>
<pdfrwt beam="2">  1       21 0.37945466E-01 0.24451132E+03</pdfrwt>
<totfact> 0.45264327E+04</totfact>
</mgrwt>
</event>
<event>
 4    1  0.3875622E-001  0.1917884E+03  0.7546771E-02  0.1156858E+00
         21   -1    0    0  501  502  0.00000000000E+00  0.00000000000E+00  0.38219949567E+03  0.38219949567E+03  0.00000000000E+00 0.  1.
         21   -1    0    0  502  503 -0.00000000000E+00 -0.00000000000E+00 -0.98036590644E+02  0.98036590644E+02  0.00000000000E+00 0. -1.
          6    1    1    2  501    0  0.53011706322E+02 -0.63588905349E+02  0.17458895370E+03  0.25935321985E+03  0.17300000000E+03 0.  1.
         -6    1    1    2    0  503 -0.53011706322E+02  0.63588905349E+02  0.10957395132E+03  0.22088286647E+03  0.17300000000E+03 0.  1.
<mgrwt>
<rscale>  2 0.19178840E+03</rscale>
<asrwt>0</asrwt>
<pdfrwt beam="1">  1       21 0.58799922E-01 0.19178840E+03</pdfrwt>
<pdfrwt beam="2">  1       21 0.15082553E-01 0.19178840E+03</pdfrwt>
<totfact> 0.10513103E+05</totfact>
</mgrwt>
</event>
<event>
 4    1  0.3875622E-001  0.1730039E+03  0.7546771E-02  0.1174751E+00
         21   -1    0    0  501  502  0.00000000000E+00  0.00000000000E+00  0.29062550526E+03  0.29062550526E+03  0.00000000000E+00 0. -1.
         21   -1    0    0  502  503 -0.00000000000E+00 -0.00000000000E+00 -0.10423033452E+03  0.10423033452E+03  0.00000000000E+00 0. -1.
          6    1    1    2  501    0 -0.11366047718E+01 -0.24720729679E+00  0.11476923027E+03  0.20761100452E+03  0.17300000000E+03 0. -1.
         -6    1    1    2    0  503  0.11366047718E+01  0.24720729679E+00  0.71625940461E+02  0.18724483525E+03  0.17300000000E+03 0. -1.
<mgrwt>
<rscale>  2 0.17300391E+03</rscale>
<asrwt>0</asrwt>
<pdfrwt beam="1">  1       21 0.44711616E-01 0.17300391E+03</pdfrwt>
<pdfrwt beam="2">  1       21 0.16035436E-01 0.17300391E+03</pdfrwt>
<totfact> 0.16777569E+05</totfact>
</mgrwt>
</event>
<event>
 4    1  0.3875622E-001  0.1969404E+03  0.7546771E-02  0.1152346E+00
         21   -1    0    0  503  502  0.00000000000E+00  0.00000000000E+00  0.56250118993E+03  0.56250118993E+03  0.00000000000E+00 0. -1.
         21   -1    0    0  501  503 -0.00000000000E+00 -0.00000000000E+00 -0.68955638599E+02  0.68955638599E+02  0.00000000000E+00 0. -1.
          6    1    1    2  501    0 -0.87599915619E+02  0.34391470516E+02  0.24444393638E+03  0.31390819756E+03  0.17300000000E+03 0. -1.
         -6    1    1    2    0  502  0.87599915619E+02 -0.34391470516E+02  0.24910161495E+03  0.31754863097E+03  0.17300000000E+03 0. -1.
<mgrwt>
<rscale>  2 0.19694039E+03</rscale>
<asrwt>0</asrwt>
<pdfrwt beam="1">  1       21 0.86538642E-01 0.19694039E+03</pdfrwt>
<pdfrwt beam="2">  1       21 0.10608560E-01 0.19694039E+03</pdfrwt>
<totfact> 0.83892580E+04</totfact>
</mgrwt>
</event>
<event>
 4    1  0.3875622E-001  0.2400023E+03  0.7546771E-02  0.1119791E+00
         21   -1    0    0  501  502  0.00000000000E+00  0.00000000000E+00  0.18446929326E+04  0.18446929326E+04  0.00000000000E+00 0.  1.
         21   -1    0    0  502  503 -0.00000000000E+00 -0.00000000000E+00 -0.31400732586E+02  0.31400732586E+02  0.00000000000E+00 0.  1.
          6    1    1    2  501    0 -0.61641200848E+01 -0.16623508637E+03  0.83653238239E+03  0.87028014288E+03  0.17300000000E+03 0.  1.
         -6    1    1    2    0  503  0.61641200848E+01  0.16623508637E+03  0.97675981766E+03  0.10058135223E+04  0.17300000000E+03 0.  1.
<mgrwt>
<rscale>  2 0.24000229E+03</rscale>
<asrwt>0</asrwt>
<pdfrwt beam="1">  1       21 0.28379883E+00 0.24000229E+03</pdfrwt>
<pdfrwt beam="2">  1       21 0.48308834E-02 0.24000229E+03</pdfrwt>
<totfact> 0.11545871E+04</totfact>
</mgrwt>
</event>
<event>
 4    1  0.3875622E-001  0.2288676E+03  0.7546771E-02  0.1127439E+00
         21   -1    0    0  503  502  0.00000000000E+00  0.00000000000E+00  0.51510361809E+03  0.51510361809E+03  0.00000000000E+00 0.  1.
         21   -1    0    0  501  503 -0.00000000000E+00 -0.00000000000E+00 -0.12296671989E+03  0.12296671989E+03  0.00000000000E+00 0.  1.
          6    1    1    2  501    0  0.13290869210E+03 -0.69185733984E+02  0.63357417710E+02  0.23747536420E+03  0.17300000000E+03 0.  1.
         -6    1    1    2    0  502 -0.13290869210E+03  0.69185733984E+02  0.32877948050E+03  0.40059497378E+03  0.17300000000E+03 0.  1.
<mgrwt>
<rscale>  2 0.22886762E+03</rscale>
<asrwt>0</asrwt>
<pdfrwt beam="1">  1       21 0.79246709E-01 0.22886762E+03</pdfrwt>
<pdfrwt beam="2">  1       21 0.18917957E-01 0.22886762E+03</pdfrwt>
<totfact> 0.35309433E+04</totfact>
</mgrwt>
</event>
<event>
 4    1  0.3875622E-001  0.1788246E+03  0.7546771E-02  0.1168945E+00
         21   -1    0    0  501  502  0.00000000000E+00  0.00000000000E+00  0.90617594870E+02  0.90617594870E+02  0.00000000000E+00 0. -1.
         21   -1    0    0  502  503 -0.00000000000E+00 -0.00000000000E+00 -0.36064680102E+03  0.36064680102E+03  0.00000000000E+00 0. -1.
          6    1    1    2  501    0 -0.35163941986E+02 -0.28508317431E+02 -0.10192858291E+03  0.20583406665E+03  0.17300000000E+03 0. -1.
         -6    1    1    2    0  503  0.35163941986E+02  0.28508317431E+02 -0.16810062324E+03  0.24543032924E+03  0.17300000000E+03 0. -1.
<mgrwt>
<rscale>  2 0.17882457E+03</rscale>
<asrwt>0</asrwt>
<pdfrwt beam="1">  1       21 0.13941169E-01 0.17882457E+03</pdfrwt>
<pdfrwt beam="2">  1       21 0.55484123E-01 0.17882457E+03</pdfrwt>
<totfact> 0.13782983E+05</totfact>
</mgrwt>
</event>
<event>
 4    1  0.3875622E-001  0.1793036E+03  0.7546771E-02  0.1168479E+00
         21   -1    0    0  501  502  0.00000000000E+00  0.00000000000E+00  0.33013504134E+04  0.33013504134E+04  0.00000000000E+00 0.  1.
         21   -1    0    0  502  503 -0.00000000000E+00 -0.00000000000E+00 -0.11762558123E+02  0.11762558123E+02  0.00000000000E+00 0.  1.
          6    1    1    2  501    0  0.25606477741E+02  0.39561265508E+02  0.23319894988E+04  0.23388725506E+04  0.17300000000E+03 0.  1.
         -6    1    1    2    0  503 -0.25606477741E+02 -0.39561265508E+02  0.95759835640E+03  0.97424042084E+03  0.17300000000E+03 0.  1.
<mgrwt>
<rscale>  2 0.17930361E+03</rscale>
<asrwt>0</asrwt>
<pdfrwt beam="1">  1       21 0.50789933E+00 0.17930361E+03</pdfrwt>
<pdfrwt beam="2">  1       21 0.18096270E-02 0.17930361E+03</pdfrwt>
<totfact> 0.24616406E+03</totfact>
</mgrwt>
</event>
<event>
 4    1  0.3875622E-001  0.1755111E+03  0.7546771E-02  0.1172220E+00
         21   -1    0    0  503  502  0.00000000000E+00  0.00000000000E+00  0.59646085344E+02  0.59646085344E+02  0.00000000000E+00 0.  1.
         21   -1    0    0  501  503 -0.00000000000E+00 -0.00000000000E+00 -0.93288538783E+03  0.93288538783E+03  0.00000000000E+00 0.  1.
          6    1    1    2  501    0 -0.15153881696E+02 -0.25406651487E+02 -0.10505006821E+03  0.20454743924E+03  0.17300000000E+03 0.  1.
         -6    1    1    2    0  502  0.15153881696E+02  0.25406651487E+02 -0.76818923428E+03  0.78798403393E+03  0.17300000000E+03 0.  1.
<mgrwt>
<rscale>  2 0.17551108E+03</rscale>
<asrwt>0</asrwt>
<pdfrwt beam="1">  1       21 0.91763214E-02 0.17551108E+03</pdfrwt>
<pdfrwt beam="2">  1       21 0.14352082E+00 0.17551108E+03</pdfrwt>
<totfact> 0.32011013E+04</totfact>
</mgrwt>
</event>
<event>
 4    1  0.3875622E-001  0.2103149E+03  0.7546771E-02  0.1141317E+00
         21   -1    0    0  503  502  0.00000000000E+00  0.00000000000E+00  0.21261941832E+04  0.21261941832E+04  0.00000000000E+00 0. -1.
         21   -1    0    0  501  503 -0.00000000000E+00 -0.00000000000E+00 -0.20840908275E+02  0.20840908275E+02  0.00000000000E+00 0. -1.
          6    1    1    2  501    0 -0.43002996051E+02 -0.11159796780E+03  0.10981342754E+04  0.11180926844E+04  0.17300000000E+03 0.  1.
         -6    1    1    2    0  502  0.43002996051E+02  0.11159796780E+03  0.10072189995E+04  0.10289424070E+04  0.17300000000E+03 0.  1.
<mgrwt>
<rscale>  2 0.21031492E+03</rscale>
<asrwt>0</asrwt>
<pdfrwt beam="1">  1       21 0.32710663E+00 0.21031492E+03</pdfrwt>
<pdfrwt beam="2">  1       21 0.32062953E-02 0.21031492E+03</pdfrwt>
<totfact> 0.13237705E+04</totfact>
</mgrwt>
</event>
<event>
 4    1  0.3875622E-001  0.2011081E+03  0.7546771E-02  0.1148807E+00
         21   -1    0    0  501  502  0.00000000000E+00  0.00000000000E+00  0.34980650522E+02  0.34980650522E+02  0.00000000000E+00 0. -1.
         21   -1    0    0  502  503 -0.00000000000E+00 -0.00000000000E+00 -0.13423172677E+04  0.13423172677E+04  0.00000000000E+00 0.  1.
          6    1    1    2  501    0 -0.63730641821E+02  0.80335894271E+02 -0.39723787792E+03  0.44524418274E+03  0.17300000000E+03 0. -1.
         -6    1    1    2    0  503  0.63730641821E+02 -0.80335894271E+02 -0.91009873931E+03  0.93205373553E+03  0.17300000000E+03 0.  1.
<mgrwt>
<rscale>  2 0.20110806E+03</rscale>
<asrwt>0</asrwt>
<pdfrwt beam="1">  1       21 0.53816375E-02 0.20110806E+03</pdfrwt>
<pdfrwt beam="2">  1       21 0.20651039E+00 0.20110806E+03</pdfrwt>
<totfact> 0.28796259E+04</totfact>
</mgrwt>
</event>
<event>
 4    1  0.3875622E-001  0.2269611E+03  0.7546771E-02  0.1128797E+00
         21   -1    0    0  501  502  0.00000000000E+00  0.00000000000E+00  0.13631088923E+04  0.13631088923E+04  0.00000000000E+00 0. -1.
         21   -1    0    0  502  503 -0.00000000000E+00 -0.00000000000E+00 -0.68825914484E+02  0.68825914484E+02  0.00000000000E+00 0. -1.
          6    1    1    2  501    0  0.14154781567E+03  0.39326364020E+02  0.11279280167E+04  0.11505359438E+04  0.17300000000E+03 0. -1.
         -6    1    1    2    0  503 -0.14154781567E+03 -0.39326364020E+02  0.16635496115E+03  0.28139886305E+03  0.17300000000E+03 0. -1.
<mgrwt>
<rscale>  2 0.22696111E+03</rscale>
<asrwt>0</asrwt>
<pdfrwt beam="1">  1       21 0.20970904E+00 0.22696111E+03</pdfrwt>
<pdfrwt beam="2">  1       21 0.10588603E-01 0.22696111E+03</pdfrwt>
<totfact> 0.83034864E+03</totfact>
</mgrwt>
</event>
<event>
 4    1  0.3875622E-001  0.2192348E+03  0.7546771E-02  0.1134455E+00
         21   -1    0    0  501  502  0.00000000000E+00  0.00000000000E+00  0.39541053719E+02  0.39541053719E+02  0.00000000000E+00 0. -1.
         21   -1    0    0  502  503 -0.00000000000E+00 -0.00000000000E+00 -0.13571047974E+04  0.13571047974E+04  0.00000000000E+00 0.  1.
          6    1    1    2  501    0 -0.61201809057E+02  0.11995522846E+03 -0.88432003225E+03  0.91109046626E+03  0.17300000000E+03 0.  1.
         -6    1    1    2    0  503  0.61201809057E+02 -0.11995522846E+03 -0.43324371138E+03  0.48555538481E+03  0.17300000000E+03 0. -1.
<mgrwt>
<rscale>  2 0.21923485E+03</rscale>
<asrwt>0</asrwt>
<pdfrwt beam="1">  1       21 0.60832394E-02 0.21923485E+03</pdfrwt>
<pdfrwt beam="2">  1       21 0.20878534E+00 0.21923485E+03</pdfrwt>
<totfact> 0.22300066E+04</totfact>
</mgrwt>
</event>
<event>
 4    1  0.3875622E-001  0.2250599E+03  0.7546771E-02  0.1130166E+00
         21   -1    0    0  503  502  0.00000000000E+00  0.00000000000E+00  0.10374335495E+04  0.10374335495E+04  0.00000000000E+00 0.  1.
         21   -1    0    0  501  503 -0.00000000000E+00 -0.00000000000E+00 -0.49820305959E+02  0.49820305959E+02  0.00000000000E+00 0.  1.
          6    1    1    2  501    0 -0.12338695590E+03  0.74152761624E+02  0.57067141336E+03  0.61344749976E+03  0.17300000000E+03 0.  1.
         -6    1    1    2    0  502  0.12338695590E+03 -0.74152761624E+02  0.41694183021E+03  0.47380635572E+03  0.17300000000E+03 0.  1.
<mgrwt>
<rscale>  2 0.22505993E+03</rscale>
<asrwt>0</asrwt>
<pdfrwt beam="1">  1       21 0.15960515E+00 0.22505993E+03</pdfrwt>
<pdfrwt beam="2">  1       21 0.76646632E-02 0.22505993E+03</pdfrwt>
<totfact> 0.32116467E+04</totfact>
</mgrwt>
</event>
<event>
 4    1  0.3875622E-001  0.1788318E+03  0.7546771E-02  0.1168938E+00
         21   -1    0    0  501  502  0.00000000000E+00  0.00000000000E+00  0.10827472679E+03  0.10827472679E+03  0.00000000000E+00 0. -1.
         21   -1    0    0  502  503 -0.00000000000E+00 -0.00000000000E+00 -0.31854180232E+03  0.31854180232E+03  0.00000000000E+00 0. -1.
          6    1    1    2  501    0 -0.39751773398E+02 -0.21716942508E+02 -0.47572065207E+02  0.18505115635E+03  0.17300000000E+03 0. -1.
         -6    1    1    2    0  503  0.39751773398E+02  0.21716942508E+02 -0.16269501032E+03  0.24176537275E+03  0.17300000000E+03 0. -1.
<mgrwt>
<rscale>  2 0.17883185E+03</rscale>
<asrwt>0</asrwt>
<pdfrwt beam="1">  1       21 0.16657650E-01 0.17883185E+03</pdfrwt>
<pdfrwt beam="2">  1       21 0.49006432E-01 0.17883185E+03</pdfrwt>
<totfact> 0.12928528E+05</totfact>
</mgrwt>
</event>
<event>
 4    1  0.3875622E-001  0.2074156E+03  0.7546771E-02  0.1143629E+00
         21   -1    0    0  503  502  0.00000000000E+00  0.00000000000E+00  0.16644483981E+03  0.16644483981E+03  0.00000000000E+00 0.  1.
         21   -1    0    0  501  503 -0.00000000000E+00 -0.00000000000E+00 -0.28272405949E+03  0.28272405949E+03  0.00000000000E+00 0. -1.
          6    1    1    2  501    0 -0.11425819743E+03 -0.61053603426E+01  0.76381442046E+01  0.20755614265E+03  0.17300000000E+03 0.  1.
         -6    1    1    2    0  502  0.11425819743E+03  0.61053603426E+01 -0.12391736389E+03  0.24161275665E+03  0.17300000000E+03 0. -1.
<mgrwt>
<rscale>  2 0.20741555E+03</rscale>
<asrwt>0</asrwt>
<pdfrwt beam="1">  1       21 0.25606899E-01 0.20741555E+03</pdfrwt>
<pdfrwt beam="2">  1       21 0.43496009E-01 0.20741555E+03</pdfrwt>
<totfact> 0.73028108E+04</totfact>
</mgrwt>
</event>
<event>
 4    1  0.3875622E-001  0.3022654E+03  0.7546771E-02  0.1084114E+00
         21   -1    0    0  501  502  0.00000000000E+00  0.00000000000E+00  0.12707855588E+04  0.12707855588E+04  0.00000000000E+00 0. -1.
         21   -1    0    0  502  503 -0.00000000000E+00 -0.00000000000E+00 -0.10016550044E+03  0.10016550044E+03  0.00000000000E+00 0. -1.
          6    1    1    2  501    0  0.46230198789E+02 -0.24351212054E+03  0.94946985050E+03  0.99642229056E+03  0.17300000000E+03 0. -1.
         -6    1    1    2    0  503 -0.46230198789E+02  0.24351212054E+03  0.22115020788E+03  0.37452876869E+03  0.17300000000E+03 0. -1.
<mgrwt>
<rscale>  2 0.30226542E+03</rscale>
<asrwt>0</asrwt>
<pdfrwt beam="1">  1       21 0.19550546E+00 0.30226542E+03</pdfrwt>
<pdfrwt beam="2">  1       21 0.15410078E-01 0.30226542E+03</pdfrwt>
<totfact> 0.49444392E+03</totfact>
</mgrwt>
</event>
<event>
 4    1  0.3875622E-001  0.1790312E+03  0.7546771E-02  0.1168744E+00
         21   -1    0    0  503  502  0.00000000000E+00  0.00000000000E+00  0.10144109731E+03  0.10144109731E+03  0.00000000000E+00 0.  1.
         21   -1    0    0  501  503 -0.00000000000E+00 -0.00000000000E+00 -0.31745064305E+03  0.31745064305E+03  0.00000000000E+00 0.  1.
          6    1    1    2  501    0 -0.13801899165E+02  0.43962334928E+02 -0.93692910602E+02  0.20206568439E+03  0.17300000000E+03 0.  1.
         -6    1    1    2    0  502  0.13801899165E+02 -0.43962334928E+02 -0.12231663514E+03  0.21682605596E+03  0.17300000000E+03 0.  1.
<mgrwt>
<rscale>  2 0.17903122E+03</rscale>
<asrwt>0</asrwt>
<pdfrwt beam="1">  1       21 0.15606323E-01 0.17903122E+03</pdfrwt>
<pdfrwt beam="2">  1       21 0.48838560E-01 0.17903122E+03</pdfrwt>
<totfact> 0.14668202E+05</totfact>
</mgrwt>
</event>
<event>
 4    1  0.3875622E-001  0.1776277E+03  0.7546771E-02  0.1170119E+00
         21   -1    0    0  501  502  0.00000000000E+00  0.00000000000E+00  0.91622710443E+02  0.91622710443E+02  0.00000000000E+00 0.  1.
         21   -1    0    0  502  503 -0.00000000000E+00 -0.00000000000E+00 -0.35612474942E+03  0.35612474942E+03  0.00000000000E+00 0.  1.
          6    1    1    2  501    0  0.26581938611E+02  0.30265669616E+02 -0.91568292946E+02  0.19984084290E+03  0.17300000000E+03 0.  1.
         -6    1    1    2    0  503 -0.26581938611E+02 -0.30265669616E+02 -0.17293374603E+03  0.24790661696E+03  0.17300000000E+03 0.  1.
<mgrwt>
<rscale>  2 0.17762773E+03</rscale>
<asrwt>0</asrwt>
<pdfrwt beam="1">  1       21 0.14095801E-01 0.17762773E+03</pdfrwt>
<pdfrwt beam="2">  1       21 0.54788424E-01 0.17762773E+03</pdfrwt>
<totfact> 0.13881546E+05</totfact>
</mgrwt>
</event>
<event>
 4    1  0.3875622E-001  0.2159821E+03  0.7546771E-02  0.1136915E+00
         21   -1    0    0  501  502  0.00000000000E+00  0.00000000000E+00  0.44661735966E+02  0.44661735966E+02  0.00000000000E+00 0.  1.
         21   -1    0    0  502  503 -0.00000000000E+00 -0.00000000000E+00 -0.11423428935E+04  0.11423428935E+04  0.00000000000E+00 0. -1.
          6    1    1    2  501    0  0.94707717895E+02 -0.88032429599E+02 -0.37512664046E+03  0.43286055130E+03  0.17300000000E+03 0.  1.
         -6    1    1    2    0  503 -0.94707717895E+02  0.88032429599E+02 -0.72255451709E+03  0.75414407819E+03  0.17300000000E+03 0. -1.
<mgrwt>
<rscale>  2 0.21598208E+03</rscale>
<asrwt>0</asrwt>
<pdfrwt beam="1">  1       21 0.68710367E-02 0.21598208E+03</pdfrwt>
<pdfrwt beam="2">  1       21 0.17574505E+00 0.21598208E+03</pdfrwt>
<totfact> 0.29938069E+04</totfact>
</mgrwt>
</event>
<event>
 4    1  0.3875622E-001  0.1764643E+03  0.7546771E-02  0.1171269E+00
         21   -1    0    0  501  502  0.00000000000E+00  0.00000000000E+00  0.30512716846E+03  0.30512716846E+03  0.00000000000E+00 0. -1.
         21   -1    0    0  502  503 -0.00000000000E+00 -0.00000000000E+00 -0.11012509169E+03  0.11012509169E+03  0.00000000000E+00 0. -1.
          6    1    1    2  501    0  0.56974202325E+00  0.34789917376E+02  0.15370747572E+03  0.23402062099E+03  0.17300000000E+03 0. -1.
         -6    1    1    2    0  503 -0.56974202325E+00 -0.34789917376E+02  0.41294601054E+02  0.18123163916E+03  0.17300000000E+03 0. -1.
<mgrwt>
<rscale>  2 0.17646434E+03</rscale>
<asrwt>0</asrwt>
<pdfrwt beam="1">  1       21 0.46942641E-01 0.17646434E+03</pdfrwt>
<pdfrwt beam="2">  1       21 0.16942322E-01 0.17646434E+03</pdfrwt>
<totfact> 0.13710542E+05</totfact>
</mgrwt>
</event>
<event>
 4    1  0.3875622E-001  0.1888716E+03  0.7546771E-02  0.1159483E+00
         21   -1    0    0  501  502  0.00000000000E+00  0.00000000000E+00  0.33751818327E+03  0.33751818327E+03  0.00000000000E+00 0. -1.
         21   -1    0    0  502  503 -0.00000000000E+00 -0.00000000000E+00 -0.10576712184E+03  0.10576712184E+03  0.00000000000E+00 0. -1.
          6    1    1    2  501    0 -0.22254582059E+02  0.72444521749E+02  0.10991103645E+03  0.21852439472E+03  0.17300000000E+03 0.  1.
         -6    1    1    2    0  503  0.22254582059E+02 -0.72444521749E+02  0.12184002497E+03  0.22476091039E+03  0.17300000000E+03 0.  1.
<mgrwt>
<rscale>  2 0.18887158E+03</rscale>
<asrwt>0</asrwt>
<pdfrwt beam="1">  1       21 0.51925874E-01 0.18887158E+03</pdfrwt>
<pdfrwt beam="2">  1       21 0.16271865E-01 0.18887158E+03</pdfrwt>
<totfact> 0.11919772E+05</totfact>
</mgrwt>
</event>
<event>
 4    1  0.3875622E-001  0.1793320E+03  0.7546771E-02  0.1168451E+00
         21   -1    0    0  501  502  0.00000000000E+00  0.00000000000E+00  0.53862967997E+02  0.53862967997E+02  0.00000000000E+00 0. -1.
         21   -1    0    0  502  503 -0.00000000000E+00 -0.00000000000E+00 -0.65591437367E+03  0.65591437367E+03  0.00000000000E+00 0.  1.
          6    1    1    2  501    0 -0.42332454038E+02 -0.20950649222E+02 -0.19472876462E+03  0.26472487254E+03  0.17300000000E+03 0. -1.
         -6    1    1    2    0  503  0.42332454038E+02  0.20950649222E+02 -0.40732264105E+03  0.44505246914E+03  0.17300000000E+03 0.  1.
<mgrwt>
<rscale>  2 0.17933200E+03</rscale>
<asrwt>0</asrwt>
<pdfrwt beam="1">  1       21 0.82866103E-02 0.17933200E+03</pdfrwt>
<pdfrwt beam="2">  1       21 0.10090991E+00 0.17933200E+03</pdfrwt>
<totfact> 0.91194356E+04</totfact>
</mgrwt>
</event>
<event>
 4    1  0.3875622E-001  0.2746455E+03  0.7546771E-02  0.1098650E+00
         21   -1    0    0  503  502  0.00000000000E+00  0.00000000000E+00  0.14077472876E+03  0.14077472876E+03  0.00000000000E+00 0. -1.
         21   -1    0    0  501  503 -0.00000000000E+00 -0.00000000000E+00 -0.58421597528E+03  0.58421597528E+03  0.00000000000E+00 0.  1.
          6    1    1    2  501    0 -0.21282780471E+03  0.14333869607E+02 -0.32605162263E+03  0.42630950599E+03  0.17300000000E+03 0. -1.
         -6    1    1    2    0  502  0.21282780471E+03 -0.14333869607E+02 -0.11738962389E+03  0.29868119806E+03  0.17300000000E+03 0.  1.
<mgrwt>
<rscale>  2 0.27464547E+03</rscale>
<asrwt>0</asrwt>
<pdfrwt beam="1">  1       21 0.21657651E-01 0.27464547E+03</pdfrwt>
<pdfrwt beam="2">  1       21 0.89879379E-01 0.27464547E+03</pdfrwt>
<totfact> 0.20061895E+04</totfact>
</mgrwt>
</event>
<event>
 4    1  0.3875622E-001  0.1743220E+03  0.7546771E-02  0.1173414E+00
         21   -1    0    0  503  502  0.00000000000E+00  0.00000000000E+00  0.40967003224E+02  0.40967003224E+02  0.00000000000E+00 0.  1.
         21   -1    0    0  501  503 -0.00000000000E+00 -0.00000000000E+00 -0.74969815295E+03  0.74969815295E+03  0.00000000000E+00 0.  1.
          6    1    1    2  501    0  0.18223278622E+02 -0.11272591434E+02 -0.31371545921E+03  0.35889489903E+03  0.17300000000E+03 0. -1.
         -6    1    1    2    0  502 -0.18223278622E+02  0.11272591434E+02 -0.39501569051E+03  0.43177025714E+03  0.17300000000E+03 0. -1.
<mgrwt>
<rscale>  2 0.17432200E+03</rscale>
<asrwt>0</asrwt>
<pdfrwt beam="1">  1       21 0.63026158E-02 0.17432200E+03</pdfrwt>
<pdfrwt beam="2">  1       21 0.11533818E+00 0.17432200E+03</pdfrwt>
<totfact> 0.10631296E+05</totfact>
</mgrwt>
</event>
<event>
 4    1  0.3875622E-001  0.2178788E+03  0.7546771E-02  0.1135474E+00
         21   -1    0    0  501  502  0.00000000000E+00  0.00000000000E+00  0.19618135738E+03  0.19618135738E+03  0.00000000000E+00 0. -1.
         21   -1    0    0  502  503 -0.00000000000E+00 -0.00000000000E+00 -0.26639261386E+03  0.26639261386E+03  0.00000000000E+00 0. -1.
          6    1    1    2  501    0 -0.11223712125E+03  0.70320701215E+02  0.34916156218E+02  0.22065880987E+03  0.17300000000E+03 0. -1.
         -6    1    1    2    0  503  0.11223712125E+03 -0.70320701215E+02 -0.10512741270E+03  0.24191516138E+03  0.17300000000E+03 0. -1.
<mgrwt>
<rscale>  2 0.21787880E+03</rscale>
<asrwt>0</asrwt>
<pdfrwt beam="1">  1       21 0.30181747E-01 0.21787880E+03</pdfrwt>
<pdfrwt beam="2">  1       21 0.40983479E-01 0.21787880E+03</pdfrwt>
<totfact> 0.59705075E+04</totfact>
</mgrwt>
</event>
<event>
 4    1  0.3875622E-001  0.2026755E+03  0.7546771E-02  0.1147501E+00
         21   -1    0    0  501  502  0.00000000000E+00  0.00000000000E+00  0.66546750139E+03  0.66546750139E+03  0.00000000000E+00 0.  1.
         21   -1    0    0  502  503 -0.00000000000E+00 -0.00000000000E+00 -0.80435226043E+02  0.80435226043E+02  0.00000000000E+00 0.  1.
          6    1    1    2  501    0  0.93564404288E+02  0.48929037431E+02  0.47238033864E+03  0.51402386402E+03  0.17300000000E+03 0.  1.
         -6    1    1    2    0  503 -0.93564404288E+02 -0.48929037431E+02  0.11265193672E+03  0.23187886342E+03  0.17300000000E+03 0.  1.
<mgrwt>
<rscale>  2 0.20267548E+03</rscale>
<asrwt>0</asrwt>
<pdfrwt beam="1">  1       21 0.10237961E+00 0.20267548E+03</pdfrwt>
<pdfrwt beam="2">  1       21 0.12374651E-01 0.20267548E+03</pdfrwt>
<totfact> 0.42879337E+04</totfact>
</mgrwt>
</event>
<event>
 4    1  0.3875622E-001  0.1959959E+03  0.7546771E-02  0.1153162E+00
         21   -1    0    0  503  502  0.00000000000E+00  0.00000000000E+00  0.12250752550E+04  0.12250752550E+04  0.00000000000E+00 0. -1.
         21   -1    0    0  501  503 -0.00000000000E+00 -0.00000000000E+00 -0.31764035216E+02  0.31764035216E+02  0.00000000000E+00 0. -1.
          6    1    1    2  501    0 -0.22329985274E+02  0.89368610055E+02  0.52549625153E+03  0.56085710040E+03  0.17300000000E+03 0. -1.
         -6    1    1    2    0  502  0.22329985274E+02 -0.89368610055E+02  0.66781496826E+03  0.69598218982E+03  0.17300000000E+03 0. -1.
<mgrwt>
<rscale>  2 0.19599586E+03</rscale>
<asrwt>0</asrwt>
<pdfrwt beam="1">  1       21 0.18847308E+00 0.19599586E+03</pdfrwt>
<pdfrwt beam="2">  1       21 0.48867756E-02 0.19599586E+03</pdfrwt>
<totfact> 0.44542736E+04</totfact>
</mgrwt>
</event>
<event>
 4    1  0.3875622E-001  0.2387590E+03  0.7546771E-02  0.1120622E+00
         21   -1    0    0  503  502  0.00000000000E+00  0.00000000000E+00  0.10736997151E+04  0.10736997151E+04  0.00000000000E+00 0. -1.
         21   -1    0    0  501  503 -0.00000000000E+00 -0.00000000000E+00 -0.63143354153E+02  0.63143354153E+02  0.00000000000E+00 0. -1.
          6    1    1    2  501    0 -0.13197927785E+03 -0.98276782675E+02  0.27850115452E+03  0.36683613353E+03  0.17300000000E+03 0. -1.
         -6    1    1    2    0  502  0.13197927785E+03  0.98276782675E+02  0.73205520639E+03  0.77000693569E+03  0.17300000000E+03 0. -1.
<mgrwt>
<rscale>  2 0.23875899E+03</rscale>
<asrwt>0</asrwt>
<pdfrwt beam="1">  1       21 0.16518456E+00 0.23875899E+03</pdfrwt>
<pdfrwt beam="2">  1       21 0.97143630E-02 0.23875899E+03</pdfrwt>
<totfact> 0.19130546E+04</totfact>
</mgrwt>
</event>
<event>
 4    1  0.3875622E-001  0.1815659E+03  0.7546771E-02  0.1166296E+00
         21   -1    0    0  503  502  0.00000000000E+00  0.00000000000E+00  0.19556388039E+03  0.19556388039E+03  0.00000000000E+00 0. -1.
         21   -1    0    0  501  503 -0.00000000000E+00 -0.00000000000E+00 -0.16912237731E+03  0.16912237731E+03  0.00000000000E+00 0. -1.
          6    1    1    2  501    0  0.14464314914E+01 -0.55091547090E+02  0.23643260682E+02  0.18309881076E+03  0.17300000000E+03 0. -1.
         -6    1    1    2    0  502 -0.14464314914E+01  0.55091547090E+02  0.27982423985E+01  0.18158744694E+03  0.17300000000E+03 0. -1.
<mgrwt>
<rscale>  2 0.18156589E+03</rscale>
<asrwt>0</asrwt>
<pdfrwt beam="1">  1       21 0.30086751E-01 0.18156589E+03</pdfrwt>
<pdfrwt beam="2">  1       21 0.26018827E-01 0.18156589E+03</pdfrwt>
<totfact> 0.14922205E+05</totfact>
</mgrwt>
</event>
<event>
 4    1  0.3875622E-001  0.1843463E+03  0.7546771E-02  0.1163662E+00
         21   -1    0    0  503  502  0.00000000000E+00  0.00000000000E+00  0.56086928103E+02  0.56086928103E+02  0.00000000000E+00 0. -1.
         21   -1    0    0  501  503 -0.00000000000E+00 -0.00000000000E+00 -0.81380534217E+03  0.81380534217E+03  0.00000000000E+00 0. -1.
          6    1    1    2  501    0 -0.32416811988E+02 -0.54806227354E+02 -0.59869513660E+03  0.62643390621E+03  0.17300000000E+03 0. -1.
         -6    1    1    2    0  502  0.32416811988E+02  0.54806227354E+02 -0.15902327746E+03  0.24345836406E+03  0.17300000000E+03 0. -1.
<mgrwt>
<rscale>  2 0.18434634E+03</rscale>
<asrwt>0</asrwt>
<pdfrwt beam="1">  1       21 0.86287592E-02 0.18434634E+03</pdfrwt>
<pdfrwt beam="2">  1       21 0.12520081E+00 0.18434634E+03</pdfrwt>
<totfact> 0.50180940E+04</totfact>
</mgrwt>
</event>
<event>
 4    1  0.3875622E-001  0.1898499E+03  0.7546771E-02  0.1158597E+00
         21   -1    0    0  503  502  0.00000000000E+00  0.00000000000E+00  0.93550515844E+02  0.93550515844E+02  0.00000000000E+00 0. -1.
         21   -1    0    0  501  503 -0.00000000000E+00 -0.00000000000E+00 -0.38966685793E+03  0.38966685793E+03  0.00000000000E+00 0.  1.
          6    1    1    2  501    0  0.61126053684E+02  0.48760391922E+02 -0.17369910505E+03  0.25732149027E+03  0.17300000000E+03 0. -1.
         -6    1    1    2    0  502 -0.61126053684E+02 -0.48760391922E+02 -0.12241723703E+03  0.22589588350E+03  0.17300000000E+03 0.  1.
<mgrwt>
<rscale>  2 0.18984986E+03</rscale>
<asrwt>0</asrwt>
<pdfrwt beam="1">  1       21 0.14392387E-01 0.18984986E+03</pdfrwt>
<pdfrwt beam="2">  1       21 0.59948746E-01 0.18984986E+03</pdfrwt>
<totfact> 0.10990165E+05</totfact>
</mgrwt>
</event>
<event>
 4    1  0.3875622E-001  0.1739174E+03  0.7546771E-02  0.1173823E+00
         21   -1    0    0  501  502  0.00000000000E+00  0.00000000000E+00  0.90829036544E+03  0.90829036544E+03  0.00000000000E+00 0. -1.
         21   -1    0    0  502  503 -0.00000000000E+00 -0.00000000000E+00 -0.33752236049E+02  0.33752236049E+02  0.00000000000E+00 0. -1.
          6    1    1    2  501    0  0.17193959261E+02 -0.47580900953E+01  0.49171121122E+03  0.52156225601E+03  0.17300000000E+03 0.  1.
         -6    1    1    2    0  503 -0.17193959261E+02  0.47580900953E+01  0.38282691817E+03  0.42048034548E+03  0.17300000000E+03 0.  1.
<mgrwt>
<rscale>  2 0.17391743E+03</rscale>
<asrwt>0</asrwt>
<pdfrwt beam="1">  1       21 0.13973696E+00 0.17391743E+03</pdfrwt>
<pdfrwt beam="2">  1       21 0.51926524E-02 0.17391743E+03</pdfrwt>
<totfact> 0.91524509E+04</totfact>
</mgrwt>
</event>
<event>
 4    1  0.3875622E-001  0.2438339E+03  0.7546771E-02  0.1117265E+00
         21   -1    0    0  503  502  0.00000000000E+00  0.00000000000E+00  0.28359263801E+03  0.28359263801E+03  0.00000000000E+00 0.  1.
         21   -1    0    0  501  503 -0.00000000000E+00 -0.00000000000E+00 -0.41936951593E+03  0.41936951593E+03  0.00000000000E+00 0.  1.
          6    1    1    2  501    0  0.51157439598E+02  0.16403931894E+03 -0.31644413880E+03  0.39948951772E+03  0.17300000000E+03 0.  1.
         -6    1    1    2    0  502 -0.51157439598E+02 -0.16403931894E+03  0.18066726088E+03  0.30347263623E+03  0.17300000000E+03 0.  1.
<mgrwt>
<rscale>  2 0.24383392E+03</rscale>
<asrwt>0</asrwt>
<pdfrwt beam="1">  1       21 0.43629637E-01 0.24383392E+03</pdfrwt>
<pdfrwt beam="2">  1       21 0.64518387E-01 0.24383392E+03</pdfrwt>
<totfact> 0.10831911E+04</totfact>
</mgrwt>
</event>
<event>
 4    1  0.3875622E-001  0.2110594E+03  0.7546771E-02  0.1140730E+00
         21   -1    0    0  503  502  0.00000000000E+00  0.00000000000E+00  0.13230685663E+04  0.13230685663E+04  0.00000000000E+00 0.  1.
         21   -1    0    0  501  503 -0.00000000000E+00 -0.00000000000E+00 -0.36454442495E+02  0.36454442495E+02  0.00000000000E+00 0. -1.
          6    1    1    2  501    0 -0.96955888492E+02  0.72226086956E+02  0.83121653715E+03  0.85759371708E+03  0.17300000000E+03 0.  1.
         -6    1    1    2    0  502  0.96955888492E+02 -0.72226086956E+02  0.45539758670E+03  0.50192929176E+03  0.17300000000E+03 0. -1.
<mgrwt>
<rscale>  2 0.21105936E+03</rscale>
<asrwt>0</asrwt>
<pdfrwt beam="1">  1       21 0.20354897E+00 0.21105936E+03</pdfrwt>
<pdfrwt beam="2">  1       21 0.56083768E-02 0.21105936E+03</pdfrwt>
<totfact> 0.27830527E+04</totfact>
</mgrwt>
</event>
<event>
 4    1  0.3875622E-001  0.1827399E+03  0.7546771E-02  0.1165177E+00
         21   -1    0    0  501  502  0.00000000000E+00  0.00000000000E+00  0.63836132308E+02  0.63836132308E+02  0.00000000000E+00 0. -1.
         21   -1    0    0  502  503 -0.00000000000E+00 -0.00000000000E+00 -0.54912586800E+03  0.54912586800E+03  0.00000000000E+00 0. -1.
          6    1    1    2  501    0  0.44561405576E+02  0.38459685920E+02 -0.30934323681E+03  0.35928693890E+03  0.17300000000E+03 0. -1.
         -6    1    1    2    0  503 -0.44561405576E+02 -0.38459685920E+02 -0.17594649888E+03  0.25367506140E+03  0.17300000000E+03 0. -1.
<mgrwt>
<rscale>  2 0.18273989E+03</rscale>
<asrwt>0</asrwt>
<pdfrwt beam="1">  1       21 0.98209432E-02 0.18273989E+03</pdfrwt>
<pdfrwt beam="2">  1       21 0.84480905E-01 0.18273989E+03</pdfrwt>
<totfact> 0.10219749E+05</totfact>
</mgrwt>
</event>
<event>
 4    1  0.3875622E-001  0.1977706E+03  0.7546771E-02  0.1151634E+00
         21   -1    0    0  501  502  0.00000000000E+00  0.00000000000E+00  0.10794381606E+04  0.10794381606E+04  0.00000000000E+00 0. -1.
         21   -1    0    0  502  503 -0.00000000000E+00 -0.00000000000E+00 -0.36789938697E+02  0.36789938697E+02  0.00000000000E+00 0.  1.
          6    1    1    2  501    0 -0.46854932031E+02 -0.83599106652E+02  0.58988402314E+03  0.62215460783E+03  0.17300000000E+03 0. -1.
         -6    1    1    2    0  503  0.46854932031E+02  0.83599106652E+02  0.45276419875E+03  0.49407349146E+03  0.17300000000E+03 0. -1.
<mgrwt>
<rscale>  2 0.19777056E+03</rscale>
<asrwt>0</asrwt>
<pdfrwt beam="1">  1       21 0.16606738E+00 0.19777056E+03</pdfrwt>
<pdfrwt beam="2">  1       21 0.56599914E-02 0.19777056E+03</pdfrwt>
<totfact> 0.49413271E+04</totfact>
</mgrwt>
</event>
<event>
 4    1  0.3875622E-001  0.2155869E+03  0.7546771E-02  0.1137217E+00
         21   -1    0    0  503  502  0.00000000000E+00  0.00000000000E+00  0.27637948796E+03  0.27637948796E+03  0.00000000000E+00 0. -1.
         21   -1    0    0  501  503 -0.00000000000E+00 -0.00000000000E+00 -0.17976300886E+03  0.17976300886E+03  0.00000000000E+00 0. -1.
          6    1    1    2  501    0  0.10908409847E+03  0.68186335104E+02  0.10623612667E+03  0.24034107315E+03  0.17300000000E+03 0. -1.
         -6    1    1    2    0  502 -0.10908409847E+03 -0.68186335104E+02 -0.96196475728E+01  0.21580142366E+03  0.17300000000E+03 0. -1.
<mgrwt>
<rscale>  2 0.21558691E+03</rscale>
<asrwt>0</asrwt>
<pdfrwt beam="1">  1       21 0.42519921E-01 0.21558691E+03</pdfrwt>
<pdfrwt beam="2">  1       21 0.27655847E-01 0.21558691E+03</pdfrwt>
<totfact> 0.65725407E+04</totfact>
</mgrwt>
</event>
<event>
 4    1  0.3875622E-001  0.2075968E+03  0.7546771E-02  0.1143483E+00
         21   -1    0    0  503  502  0.00000000000E+00  0.00000000000E+00  0.14801430322E+03  0.14801430322E+03  0.00000000000E+00 0. -1.
         21   -1    0    0  501  503 -0.00000000000E+00 -0.00000000000E+00 -0.29670606911E+03  0.29670606911E+03  0.00000000000E+00 0. -1.
          6    1    1    2  501    0 -0.12220014481E+02 -0.11409689297E+03 -0.43955820344E+02  0.21219930226E+03  0.17300000000E+03 0. -1.
         -6    1    1    2    0  502  0.12220014481E+02  0.11409689297E+03 -0.10473594555E+03  0.23252107007E+03  0.17300000000E+03 0. -1.
<mgrwt>
<rscale>  2 0.20759680E+03</rscale>
<asrwt>0</asrwt>
<pdfrwt beam="1">  1       21 0.22771431E-01 0.20759680E+03</pdfrwt>
<pdfrwt beam="2">  1       21 0.45647087E-01 0.20759680E+03</pdfrwt>
<totfact> 0.82702297E+04</totfact>
</mgrwt>
</event>
<event>
 4    1  0.3875622E-001  0.2509241E+03  0.7546771E-02  0.1112722E+00
         21   -1    0    0  501  502  0.00000000000E+00  0.00000000000E+00  0.32310780825E+03  0.32310780825E+03  0.00000000000E+00 0. -1.
         21   -1    0    0  502  503 -0.00000000000E+00 -0.00000000000E+00 -0.19570838641E+03  0.19570838641E+03  0.00000000000E+00 0. -1.
          6    1    1    2  501    0 -0.12838895751E+03  0.12864757520E+03  0.46686848931E+02  0.25523045445E+03  0.17300000000E+03 0. -1.
         -6    1    1    2    0  503  0.12838895751E+03 -0.12864757520E+03  0.80712572912E+02  0.26358574021E+03  0.17300000000E+03 0. -1.
<mgrwt>
<rscale>  2 0.25092414E+03</rscale>
<asrwt>0</asrwt>
<pdfrwt beam="1">  1       21 0.49708894E-01 0.25092414E+03</pdfrwt>
<pdfrwt beam="2">  1       21 0.30108983E-01 0.25092414E+03</pdfrwt>
<totfact> 0.39712235E+04</totfact>
</mgrwt>
</event>
<event>
 4    1  0.3875622E-001  0.2389198E+03  0.7546771E-02  0.1120515E+00
         21   -1    0    0  501  502  0.00000000000E+00  0.00000000000E+00  0.47605475794E+02  0.47605475794E+02  0.00000000000E+00 0.  1.
         21   -1    0    0  502  503 -0.00000000000E+00 -0.00000000000E+00 -0.12478331483E+04  0.12478331483E+04  0.00000000000E+00 0. -1.
          6    1    1    2  501    0 -0.16176001949E+03 -0.31422198841E+02 -0.72814648176E+03  0.76634193242E+03  0.17300000000E+03 0.  1.
         -6    1    1    2    0  503  0.16176001949E+03  0.31422198841E+02 -0.47208119078E+03  0.52909669171E+03  0.17300000000E+03 0. -1.
<mgrwt>
<rscale>  2 0.23891977E+03</rscale>
<asrwt>0</asrwt>
<pdfrwt beam="1">  1       21 0.73239185E-02 0.23891977E+03</pdfrwt>
<pdfrwt beam="2">  1       21 0.19197435E+00 0.23891977E+03</pdfrwt>
<totfact> 0.20512551E+04</totfact>
</mgrwt>
</event>
<event>
 4    1  0.3875622E-001  0.1799130E+03  0.7546771E-02  0.1167887E+00
         21   -1    0    0  503  502  0.00000000000E+00  0.00000000000E+00  0.52510804792E+02  0.52510804792E+02  0.00000000000E+00 0.  1.
         21   -1    0    0  501  503 -0.00000000000E+00 -0.00000000000E+00 -0.62188313798E+03  0.62188313798E+03  0.00000000000E+00 0.  1.
          6    1    1    2  501    0  0.48382807334E+02  0.99393375064E+01 -0.31629208283E+03  0.36388098073E+03  0.17300000000E+03 0.  1.
         -6    1    1    2    0  502 -0.48382807334E+02 -0.99393375064E+01 -0.25308025036E+03  0.31051296204E+03  0.17300000000E+03 0.  1.
<mgrwt>
<rscale>  2 0.17991300E+03</rscale>
<asrwt>0</asrwt>
<pdfrwt beam="1">  1       21 0.80785851E-02 0.17991300E+03</pdfrwt>
<pdfrwt beam="2">  1       21 0.95674332E-01 0.17991300E+03</pdfrwt>
<totfact> 0.10803703E+05</totfact>
</mgrwt>
</event>
<event>
 4    1  0.3875622E-001  0.1813125E+03  0.7546771E-02  0.1166539E+00
         21   -1    0    0  501  502  0.00000000000E+00  0.00000000000E+00  0.57787555952E+02  0.57787555952E+02  0.00000000000E+00 0. -1.
         21   -1    0    0  502  503 -0.00000000000E+00 -0.00000000000E+00 -0.64363011995E+03  0.64363011995E+03  0.00000000000E+00 0. -1.
          6    1    1    2  501    0 -0.97982406930E+01 -0.53378040216E+02 -0.17340345886E+03  0.25088439617E+03  0.17300000000E+03 0. -1.
         -6    1    1    2    0  503  0.97982406930E+01  0.53378040216E+02 -0.41243910514E+03  0.45053327973E+03  0.17300000000E+03 0. -1.
<mgrwt>
<rscale>  2 0.18131249E+03</rscale>
<asrwt>0</asrwt>
<pdfrwt beam="1">  1       21 0.88903934E-02 0.18131249E+03</pdfrwt>
<pdfrwt beam="2">  1       21 0.99020017E-01 0.18131249E+03</pdfrwt>
<totfact> 0.84278237E+04</totfact>
</mgrwt>
</event>
<event>
 4    1  0.3875622E-001  0.1732730E+03  0.7546771E-02  0.1174477E+00
         21   -1    0    0  501  502  0.00000000000E+00  0.00000000000E+00  0.27048427158E+03  0.27048427158E+03  0.00000000000E+00 0.  1.
         21   -1    0    0  502  503 -0.00000000000E+00 -0.00000000000E+00 -0.11195657339E+03  0.11195657339E+03  0.00000000000E+00 0.  1.
          6    1    1    2  501    0 -0.83088016655E+01 -0.50487966299E+01  0.61580701868E+02  0.18389048201E+03  0.17300000000E+03 0.  1.
         -6    1    1    2    0  503  0.83088016655E+01  0.50487966299E+01  0.96946996329E+02  0.19855036296E+03  0.17300000000E+03 0.  1.
<mgrwt>
<rscale>  2 0.17327298E+03</rscale>
<asrwt>0</asrwt>
<pdfrwt beam="1">  1       21 0.41612965E-01 0.17327298E+03</pdfrwt>
<pdfrwt beam="2">  1       21 0.17224088E-01 0.17327298E+03</pdfrwt>
<totfact> 0.17034040E+05</totfact>
</mgrwt>
</event>
<event>
 4    1  0.3875622E-001  0.1878960E+03  0.7546771E-02  0.1160373E+00
         21   -1    0    0  503  502  0.00000000000E+00  0.00000000000E+00  0.40776901282E+02  0.40776901282E+02  0.00000000000E+00 0. -1.
         21   -1    0    0  501  503 -0.00000000000E+00 -0.00000000000E+00 -0.87253747105E+03  0.87253747105E+03  0.00000000000E+00 0.  1.
          6    1    1    2  501    0 -0.62009570543E+02 -0.39124421371E+02 -0.37577179437E+03  0.42013015677E+03  0.17300000000E+03 0. -1.
         -6    1    1    2    0  502  0.62009570543E+02  0.39124421371E+02 -0.45598877540E+03  0.49318421556E+03  0.17300000000E+03 0. -1.
<mgrwt>
<rscale>  2 0.18789600E+03</rscale>
<asrwt>0</asrwt>
<pdfrwt beam="1">  1       21 0.62733698E-02 0.18789600E+03</pdfrwt>
<pdfrwt beam="2">  1       21 0.13423653E+00 0.18789600E+03</pdfrwt>
<totfact> 0.72975590E+04</totfact>
</mgrwt>
</event>
<event>
 4    1  0.3875622E-001  0.2155894E+03  0.7546771E-02  0.1137215E+00
         21   -1    0    0  501  502  0.00000000000E+00  0.00000000000E+00  0.22245143090E+03  0.22245143090E+03  0.00000000000E+00 0. -1.
         21   -1    0    0  502  503 -0.00000000000E+00 -0.00000000000E+00 -0.21168119353E+03  0.21168119353E+03  0.00000000000E+00 0. -1.
          6    1    1    2  501    0 -0.12824235090E+03  0.10182254614E+02  0.30091012588E+02  0.21767923169E+03  0.17300000000E+03 0. -1.
         -6    1    1    2    0  503  0.12824235090E+03 -0.10182254614E+02 -0.19320775218E+02  0.21645339274E+03  0.17300000000E+03 0. -1.
<mgrwt>
<rscale>  2 0.21558938E+03</rscale>
<asrwt>0</asrwt>
<pdfrwt beam="1">  1       21 0.34223297E-01 0.21558938E+03</pdfrwt>
<pdfrwt beam="2">  1       21 0.32566338E-01 0.21558938E+03</pdfrwt>
<totfact> 0.73920188E+04</totfact>
</mgrwt>
</event>
<event>
 4    1  0.3875622E-001  0.1890192E+03  0.7546771E-02  0.1159349E+00
         21   -1    0    0  503  502  0.00000000000E+00  0.00000000000E+00  0.93855743502E+02  0.93855743502E+02  0.00000000000E+00 0.  1.
         21   -1    0    0  501  503 -0.00000000000E+00 -0.00000000000E+00 -0.59915043296E+03  0.59915043296E+03  0.00000000000E+00 0.  1.
          6    1    1    2  501    0  0.34324122998E+02 -0.67978760840E+02 -0.43407968234E+02  0.19393944687E+03  0.17300000000E+03 0.  1.
         -6    1    1    2    0  502 -0.34324122998E+02  0.67978760840E+02 -0.46188672122E+03  0.49906672959E+03  0.17300000000E+03 0.  1.
<mgrwt>
<rscale>  2 0.18901920E+03</rscale>
<asrwt>0</asrwt>
<pdfrwt beam="1">  1       21 0.14439346E-01 0.18901920E+03</pdfrwt>
<pdfrwt beam="2">  1       21 0.92176987E-01 0.18901920E+03</pdfrwt>
<totfact> 0.41863769E+04</totfact>
</mgrwt>
</event>
<event>
 4    1  0.3875622E-001  0.2678739E+03  0.7546771E-02  0.1102503E+00
         21   -1    0    0  501  502  0.00000000000E+00  0.00000000000E+00  0.10895933403E+04  0.10895933403E+04  0.00000000000E+00 0.  1.
         21   -1    0    0  502  503 -0.00000000000E+00 -0.00000000000E+00 -0.67962274497E+02  0.67962274497E+02  0.00000000000E+00 0.  1.
          6    1    1    2  501    0 -0.19715968715E+03  0.54364581738E+02  0.61270219448E+03  0.66870055264E+03  0.17300000000E+03 0.  1.
         -6    1    1    2    0  503  0.19715968715E+03 -0.54364581738E+02  0.40892887128E+03  0.48885506211E+03  0.17300000000E+03 0.  1.
<mgrwt>
<rscale>  2 0.26787394E+03</rscale>
<asrwt>0</asrwt>
<pdfrwt beam="1">  1       21 0.16762973E+00 0.26787394E+03</pdfrwt>
<pdfrwt beam="2">  1       21 0.10455735E-01 0.26787394E+03</pdfrwt>
<totfact> 0.15855553E+04</totfact>
</mgrwt>
</event>
<event>
 4    1  0.3875622E-001  0.3011135E+03  0.7546771E-02  0.1084685E+00
         21   -1    0    0  503  502  0.00000000000E+00  0.00000000000E+00  0.10187935014E+04  0.10187935014E+04  0.00000000000E+00 0.  1.
         21   -1    0    0  501  503 -0.00000000000E+00 -0.00000000000E+00 -0.96445137211E+02  0.96445137211E+02  0.00000000000E+00 0. -1.
          6    1    1    2  501    0  0.16576587020E+02 -0.24589745198E+03  0.61613714818E+03  0.68578008538E+03  0.17300000000E+03 0. -1.
         -6    1    1    2    0  502 -0.16576587020E+02  0.24589745198E+03  0.30621121597E+03  0.42945855320E+03  0.17300000000E+03 0.  1.
<mgrwt>
<rscale>  2 0.30111350E+03</rscale>
<asrwt>0</asrwt>
<pdfrwt beam="1">  1       21 0.15673745E+00 0.30111350E+03</pdfrwt>
<pdfrwt beam="2">  1       21 0.14837714E-01 0.30111350E+03</pdfrwt>
<totfact> 0.99480565E+03</totfact>
</mgrwt>
</event>
<event>
 4    1  0.3875622E-001  0.1818229E+03  0.7546771E-02  0.1166050E+00
         21   -1    0    0  503  502  0.00000000000E+00  0.00000000000E+00  0.72495226695E+02  0.72495226695E+02  0.00000000000E+00 0.  1.
         21   -1    0    0  501  503 -0.00000000000E+00 -0.00000000000E+00 -0.53470135004E+03  0.53470135004E+03  0.00000000000E+00 0.  1.
          6    1    1    2  501    0 -0.16599976751E+02 -0.53432311649E+02 -0.34756076998E+03  0.39224744739E+03  0.17300000000E+03 0.  1.
         -6    1    1    2    0  502  0.16599976751E+02  0.53432311649E+02 -0.11464535336E+03  0.21494912934E+03  0.17300000000E+03 0.  1.
<mgrwt>
<rscale>  2 0.18182291E+03</rscale>
<asrwt>0</asrwt>
<pdfrwt beam="1">  1       21 0.11153112E-01 0.18182291E+03</pdfrwt>
<pdfrwt beam="2">  1       21 0.82261745E-01 0.18182291E+03</pdfrwt>
<totfact> 0.86723889E+04</totfact>
</mgrwt>
</event>
<event>
 4    1  0.3875622E-001  0.2487355E+03  0.7546771E-02  0.1114107E+00
         21   -1    0    0  503  502  0.00000000000E+00  0.00000000000E+00  0.68032858835E+03  0.68032858835E+03  0.00000000000E+00 0.  1.
         21   -1    0    0  501  503 -0.00000000000E+00 -0.00000000000E+00 -0.91152048643E+02  0.91152048643E+02  0.00000000000E+00 0. -1.
          6    1    1    2  501    0  0.10145075020E+03  0.14713299210E+03  0.27600200055E+03  0.37154606227E+03  0.17300000000E+03 0.  1.
         -6    1    1    2    0  502 -0.10145075020E+03 -0.14713299210E+03  0.31317453916E+03  0.39993457472E+03  0.17300000000E+03 0. -1.
<mgrwt>
<rscale>  2 0.24873555E+03</rscale>
<asrwt>0</asrwt>
<pdfrwt beam="1">  1       21 0.10466593E+00 0.24873555E+03</pdfrwt>
<pdfrwt beam="2">  1       21 0.14023393E-01 0.24873555E+03</pdfrwt>
<totfact> 0.31698371E+04</totfact>
</mgrwt>
</event>
<event>
 4    1  0.3875622E-001  0.4177307E+03  0.7546771E-02  0.1037807E+00
         21   -1    0    0  501  502  0.00000000000E+00  0.00000000000E+00  0.17081302895E+04  0.17081302895E+04  0.00000000000E+00 0. -1.
         21   -1    0    0  502  503 -0.00000000000E+00 -0.00000000000E+00 -0.13481201358E+03  0.13481201358E+03  0.00000000000E+00 0. -1.
          6    1    1    2  501    0  0.18170091039E+03  0.33399806909E+03  0.12401689383E+04  0.13086320821E+04  0.17300000000E+03 0. -1.
         -6    1    1    2    0  503 -0.18170091039E+03 -0.33399806909E+03  0.33314933763E+03  0.53431022090E+03  0.17300000000E+03 0. -1.
<mgrwt>
<rscale>  2 0.41773069E+03</rscale>
<asrwt>0</asrwt>
<pdfrwt beam="1">  1       21 0.26278926E+00 0.41773069E+03</pdfrwt>
<pdfrwt beam="2">  1       21 0.20740311E-01 0.41773069E+03</pdfrwt>
<totfact> 0.10038636E+03</totfact>
</mgrwt>
</event>
<event>
 4    1  0.3875622E-001  0.2066169E+03  0.7546771E-02  0.1144273E+00
         21   -1    0    0  501  502  0.00000000000E+00  0.00000000000E+00  0.85198509211E+03  0.85198509211E+03  0.00000000000E+00 0. -1.
         21   -1    0    0  502  503 -0.00000000000E+00 -0.00000000000E+00 -0.51722930585E+02  0.51722930585E+02  0.00000000000E+00 0. -1.
          6    1    1    2  501    0 -0.63911843871E+02 -0.93149459963E+02  0.47999445140E+03  0.52257556301E+03  0.17300000000E+03 0. -1.
         -6    1    1    2    0  503  0.63911843871E+02  0.93149459963E+02  0.32026771012E+03  0.38113245969E+03  0.17300000000E+03 0. -1.
<mgrwt>
<rscale>  2 0.20661691E+03</rscale>
<asrwt>0</asrwt>
<pdfrwt beam="1">  1       21 0.13107462E+00 0.20661691E+03</pdfrwt>
<pdfrwt beam="2">  1       21 0.79573746E-02 0.20661691E+03</pdfrwt>
<totfact> 0.50893997E+04</totfact>
</mgrwt>
</event>
<event>
 4    1  0.3875622E-001  0.1849524E+03  0.7546771E-02  0.1163094E+00
         21   -1    0    0  503  502  0.00000000000E+00  0.00000000000E+00  0.23596322961E+03  0.23596322961E+03  0.00000000000E+00 0.  1.
         21   -1    0    0  501  503 -0.00000000000E+00 -0.00000000000E+00 -0.18887006092E+03  0.18887006092E+03  0.00000000000E+00 0.  1.
          6    1    1    2  501    0  0.31161967908E+01  0.65335083919E+02 -0.78863766778E+02  0.20106436179E+03  0.17300000000E+03 0. -1.
         -6    1    1    2    0  502 -0.31161967908E+01 -0.65335083919E+02  0.12595693547E+03  0.22376892873E+03  0.17300000000E+03 0. -1.
<mgrwt>
<rscale>  2 0.18495238E+03</rscale>
<asrwt>0</asrwt>
<pdfrwt beam="1">  1       21 0.36302035E-01 0.18495238E+03</pdfrwt>
<pdfrwt beam="2">  1       21 0.29056933E-01 0.18495238E+03</pdfrwt>
<totfact> 0.83234693E+04</totfact>
</mgrwt>
</event>
<event>
 4    1  0.3875622E-001  0.2374491E+03  0.7546771E-02  0.1121504E+00
         21   -1    0    0  501  502  0.00000000000E+00  0.00000000000E+00  0.27508726642E+03  0.27508726642E+03  0.00000000000E+00 0.  1.
         21   -1    0    0  502  503 -0.00000000000E+00 -0.00000000000E+00 -0.28298702140E+03  0.28298702140E+03  0.00000000000E+00 0.  1.
          6    1    1    2  501    0 -0.29392368718E+02 -0.15996609182E+03  0.14257099474E+03  0.27696308492E+03  0.17300000000E+03 0.  1.
         -6    1    1    2    0  503  0.29392368718E+02  0.15996609182E+03 -0.15047074972E+03  0.28111120289E+03  0.17300000000E+03 0.  1.
<mgrwt>
<rscale>  2 0.23744907E+03</rscale>
<asrwt>0</asrwt>
<pdfrwt beam="1">  1       21 0.42321118E-01 0.23744907E+03</pdfrwt>
<pdfrwt beam="2">  1       21 0.43536465E-01 0.23744907E+03</pdfrwt>
<totfact> 0.26605566E+04</totfact>
</mgrwt>
</event>
<event>
 4    1  0.3875622E-001  0.1923325E+03  0.7546771E-02  0.1156374E+00
         21   -1    0    0  501  502  0.00000000000E+00  0.00000000000E+00  0.15116242176E+02  0.15116242176E+02  0.00000000000E+00 0. -1.
         21   -1    0    0  502  503 -0.00000000000E+00 -0.00000000000E+00 -0.24600934210E+04  0.24600934210E+04  0.00000000000E+00 0.  1.
          6    1    1    2  501    0  0.78472999787E+02 -0.30079639516E+02 -0.13122391312E+04  0.13262591504E+04  0.17300000000E+03 0.  1.
         -6    1    1    2    0  503 -0.78472999787E+02  0.30079639516E+02 -0.11327380475E+04  0.11489505128E+04  0.17300000000E+03 0. -1.
<mgrwt>
<rscale>  2 0.19233252E+03</rscale>
<asrwt>0</asrwt>
<pdfrwt beam="1">  1       21 0.23255760E-02 0.19233252E+03</pdfrwt>
<pdfrwt beam="2">  1       21 0.37847587E+00 0.19233252E+03</pdfrwt>
<totfact> 0.11370273E+04</totfact>
</mgrwt>
</event>
<event>
 4    1  0.3875622E-001  0.1897022E+03  0.7546771E-02  0.1158730E+00
         21   -1    0    0  501  502  0.00000000000E+00  0.00000000000E+00  0.33402052819E+03  0.33402052819E+03  0.00000000000E+00 0.  1.
         21   -1    0    0  502  503 -0.00000000000E+00 -0.00000000000E+00 -0.15330034858E+03  0.15330034858E+03  0.00000000000E+00 0.  1.
          6    1    1    2  501    0  0.57456592245E+02 -0.52503992835E+02  0.22319532297E+03  0.29292163022E+03  0.17300000000E+03 0. -1.
         -6    1    1    2    0  503 -0.57456592245E+02  0.52503992835E+02 -0.42475143365E+02  0.19439924655E+03  0.17300000000E+03 0. -1.
<mgrwt>
<rscale>  2 0.18970221E+03</rscale>
<asrwt>0</asrwt>
<pdfrwt beam="1">  1       21 0.51387774E-01 0.18970221E+03</pdfrwt>
<pdfrwt beam="2">  1       21 0.23584669E-01 0.18970221E+03</pdfrwt>
<totfact> 0.60982387E+04</totfact>
</mgrwt>
</event>
<event>
 4    1  0.3875622E-001  0.1740784E+03  0.7546771E-02  0.1173660E+00
         21   -1    0    0  501  502  0.00000000000E+00  0.00000000000E+00  0.27121912098E+03  0.27121912098E+03  0.00000000000E+00 0. -1.
         21   -1    0    0  502  503 -0.00000000000E+00 -0.00000000000E+00 -0.12921875757E+03  0.12921875757E+03  0.00000000000E+00 0. -1.
          6    1    1    2  501    0 -0.11419580777E+00  0.19345857485E+02  0.14465879780E+03  0.22633922113E+03  0.17300000000E+03 0. -1.
         -6    1    1    2    0  503  0.11419580777E+00 -0.19345857485E+02 -0.26584343791E+01  0.17409865742E+03  0.17300000000E+03 0. -1.
<mgrwt>
<rscale>  2 0.17407836E+03</rscale>
<asrwt>0</asrwt>
<pdfrwt beam="1">  1       21 0.41726019E-01 0.17407836E+03</pdfrwt>
<pdfrwt beam="2">  1       21 0.19879809E-01 0.17407836E+03</pdfrwt>
<totfact> 0.12991003E+05</totfact>
</mgrwt>
</event>
<event>
 4    1  0.3875622E-001  0.1797314E+03  0.7546771E-02  0.1168063E+00
         21   -1    0    0  501  502  0.00000000000E+00  0.00000000000E+00  0.10310594942E+03  0.10310594942E+03  0.00000000000E+00 0.  1.
         21   -1    0    0  502  503 -0.00000000000E+00 -0.00000000000E+00 -0.39581483391E+03  0.39581483391E+03  0.00000000000E+00 0.  1.
          6    1    1    2  501    0 -0.48080845075E+02  0.79131819182E+01 -0.32456959792E+02  0.18263855111E+03  0.17300000000E+03 0.  1.
         -6    1    1    2    0  503  0.48080845075E+02 -0.79131819182E+01 -0.26025192470E+03  0.31628223222E+03  0.17300000000E+03 0.  1.
<mgrwt>
<rscale>  2 0.17973143E+03</rscale>
<asrwt>0</asrwt>
<pdfrwt beam="1">  1       21 0.15862454E-01 0.17973143E+03</pdfrwt>
<pdfrwt beam="2">  1       21 0.60894590E-01 0.17973143E+03</pdfrwt>
<totfact> 0.89373116E+04</totfact>
</mgrwt>
</event>
<event>
 4    1  0.3875622E-001  0.1847141E+03  0.7546771E-02  0.1163317E+00
         21   -1    0    0  501  502  0.00000000000E+00  0.00000000000E+00  0.12875465230E+03  0.12875465230E+03  0.00000000000E+00 0.  1.
         21   -1    0    0  502  503 -0.00000000000E+00 -0.00000000000E+00 -0.26623848364E+03  0.26623848364E+03  0.00000000000E+00 0.  1.
          6    1    1    2  501    0 -0.62737372695E+02 -0.15947292926E+02 -0.55242803639E+02  0.19279798090E+03  0.17300000000E+03 0.  1.
         -6    1    1    2    0  503  0.62737372695E+02  0.15947292926E+02 -0.82241027695E+02  0.20219515504E+03  0.17300000000E+03 0.  1.
<mgrwt>
<rscale>  2 0.18471409E+03</rscale>
<asrwt>0</asrwt>
<pdfrwt beam="1">  1       21 0.19808408E-01 0.18471409E+03</pdfrwt>
<pdfrwt beam="2">  1       21 0.40959766E-01 0.18471409E+03</pdfrwt>
<totfact> 0.13528911E+05</totfact>
</mgrwt>
</event>
<event>
 4    1  0.3875622E-001  0.3256304E+03  0.7546771E-02  0.1073087E+00
         21   -1    0    0  503  502  0.00000000000E+00  0.00000000000E+00  0.11290757762E+03  0.11290757762E+03  0.00000000000E+00 0.  1.
         21   -1    0    0  501  503 -0.00000000000E+00 -0.00000000000E+00 -0.12173613288E+04  0.12173613288E+04  0.00000000000E+00 0. -1.
          6    1    1    2  501    0 -0.21529534067E+02  0.27503206396E+03 -0.87020766699E+03  0.92913752520E+03  0.17300000000E+03 0.  1.
         -6    1    1    2    0  502  0.21529534067E+02 -0.27503206396E+03 -0.23424608420E+03  0.40113138122E+03  0.17300000000E+03 0.  1.
<mgrwt>
<rscale>  2 0.32563040E+03</rscale>
<asrwt>0</asrwt>
<pdfrwt beam="1">  1       21 0.17370396E-01 0.32563040E+03</pdfrwt>
<pdfrwt beam="2">  1       21 0.18728636E+00 0.32563040E+03</pdfrwt>
<totfact> 0.44373688E+03</totfact>
</mgrwt>
</event>
<event>
 4    1  0.3875622E-001  0.2859361E+03  0.7546771E-02  0.1092490E+00
         21   -1    0    0  501  502  0.00000000000E+00  0.00000000000E+00  0.15449286510E+03  0.15449286510E+03  0.00000000000E+00 0. -1.
         21   -1    0    0  502  503 -0.00000000000E+00 -0.00000000000E+00 -0.54492646985E+03  0.54492646985E+03  0.00000000000E+00 0.  1.
          6    1    1    2  501    0 -0.94547888779E+02 -0.20710174230E+03 -0.13582966162E+03  0.31655825990E+03  0.17300000000E+03 0. -1.
         -6    1    1    2    0  503  0.94547888779E+02  0.20710174230E+03 -0.25460394313E+03  0.38286107506E+03  0.17300000000E+03 0.  1.
<mgrwt>
<rscale>  2 0.28593607E+03</rscale>
<asrwt>0</asrwt>
<pdfrwt beam="1">  1       21 0.23768133E-01 0.28593607E+03</pdfrwt>
<pdfrwt beam="2">  1       21 0.83834843E-01 0.28593607E+03</pdfrwt>
<totfact> 0.19651866E+04</totfact>
</mgrwt>
</event>
<event>
 4    1  0.3875622E-001  0.1784506E+03  0.7546771E-02  0.1169311E+00
         21   -1    0    0  501  502  0.00000000000E+00  0.00000000000E+00  0.64531115867E+02  0.64531115867E+02  0.00000000000E+00 0.  1.
         21   -1    0    0  502  503 -0.00000000000E+00 -0.00000000000E+00 -0.81989796934E+03  0.81989796934E+03  0.00000000000E+00 0.  1.
          6    1    1    2  501    0  0.41474174105E+02 -0.13981922960E+02 -0.98658920485E+02  0.20390729236E+03  0.17300000000E+03 0.  1.
         -6    1    1    2    0  503 -0.41474174105E+02  0.13981922960E+02 -0.65670793299E+03  0.68052179285E+03  0.17300000000E+03 0.  1.
<mgrwt>
<rscale>  2 0.17845056E+03</rscale>
<asrwt>0</asrwt>
<pdfrwt beam="1">  1       21 0.99278643E-02 0.17845056E+03</pdfrwt>
<pdfrwt beam="2">  1       21 0.12613814E+00 0.17845056E+03</pdfrwt>
<totfact> 0.38633277E+04</totfact>
</mgrwt>
</event>
<event>
 4    1  0.3875622E-001  0.1803887E+03  0.7546771E-02  0.1167427E+00
         21   -1    0    0  503  502  0.00000000000E+00  0.00000000000E+00  0.14260486027E+03  0.14260486027E+03  0.00000000000E+00 0. -1.
         21   -1    0    0  501  503 -0.00000000000E+00 -0.00000000000E+00 -0.29474228433E+03  0.29474228433E+03  0.00000000000E+00 0. -1.
          6    1    1    2  501    0 -0.45941532593E+01 -0.50891724685E+02 -0.17998361088E+03  0.25482184771E+03  0.17300000000E+03 0. -1.
         -6    1    1    2    0  502  0.45941532593E+01  0.50891724685E+02  0.27846186821E+02  0.18252529689E+03  0.17300000000E+03 0. -1.
<mgrwt>
<rscale>  2 0.18038867E+03</rscale>
<asrwt>0</asrwt>
<pdfrwt beam="1">  1       21 0.21939210E-01 0.18038867E+03</pdfrwt>
<pdfrwt beam="2">  1       21 0.45344966E-01 0.18038867E+03</pdfrwt>
<totfact> 0.90951312E+04</totfact>
</mgrwt>
</event>
<event>
 4    1  0.3875622E-001  0.1824993E+03  0.7546771E-02  0.1165406E+00
         21   -1    0    0  501  502  0.00000000000E+00  0.00000000000E+00  0.14052213435E+03  0.14052213435E+03  0.00000000000E+00 0.  1.
         21   -1    0    0  502  503 -0.00000000000E+00 -0.00000000000E+00 -0.26068469886E+03  0.26068469886E+03  0.00000000000E+00 0.  1.
          6    1    1    2  501    0 -0.49273054268E+02 -0.30808739729E+02  0.36457816834E+00  0.18249971298E+03  0.17300000000E+03 0.  1.
         -6    1    1    2    0  503  0.49273054268E+02  0.30808739729E+02 -0.12052714268E+03  0.21870712024E+03  0.17300000000E+03 0.  1.
<mgrwt>
<rscale>  2 0.18249935E+03</rscale>
<asrwt>0</asrwt>
<pdfrwt beam="1">  1       21 0.21618790E-01 0.18249935E+03</pdfrwt>
<pdfrwt beam="2">  1       21 0.40105338E-01 0.18249935E+03</pdfrwt>
<totfact> 0.11995357E+05</totfact>
</mgrwt>
</event>
<event>
 4    1  0.3875622E-001  0.1996176E+03  0.7546771E-02  0.1150062E+00
         21   -1    0    0  501  502  0.00000000000E+00  0.00000000000E+00  0.67309691663E+03  0.67309691663E+03  0.00000000000E+00 0. -1.
         21   -1    0    0  502  503 -0.00000000000E+00 -0.00000000000E+00 -0.77719072456E+02  0.77719072456E+02  0.00000000000E+00 0. -1.
          6    1    1    2  501    0 -0.45475407725E+02  0.88601182781E+02  0.48094231784E+03  0.52072324260E+03  0.17300000000E+03 0. -1.
         -6    1    1    2    0  503  0.45475407725E+02 -0.88601182781E+02  0.11443552634E+03  0.23009274649E+03  0.17300000000E+03 0. -1.
<mgrwt>
<rscale>  2 0.19961759E+03</rscale>
<asrwt>0</asrwt>
<pdfrwt beam="1">  1       21 0.10355337E+00 0.19961759E+03</pdfrwt>
<pdfrwt beam="2">  1       21 0.11956781E-01 0.19961759E+03</pdfrwt>
<totfact> 0.44446494E+04</totfact>
</mgrwt>
</event>
<event>
 4    1  0.3875622E-001  0.2163027E+03  0.7546771E-02  0.1136670E+00
         21   -1    0    0  501  502  0.00000000000E+00  0.00000000000E+00  0.11621676664E+03  0.11621676664E+03  0.00000000000E+00 0. -1.
         21   -1    0    0  502  503 -0.00000000000E+00 -0.00000000000E+00 -0.49581001219E+03  0.49581001219E+03  0.00000000000E+00 0. -1.
          6    1    1    2  501    0  0.20360124710E+01 -0.12982186743E+03 -0.57101699916E+02  0.22371291143E+03  0.17300000000E+03 0. -1.
         -6    1    1    2    0  503 -0.20360124710E+01  0.12982186743E+03 -0.32249154563E+03  0.38831386740E+03  0.17300000000E+03 0. -1.
<mgrwt>
<rscale>  2 0.21630271E+03</rscale>
<asrwt>0</asrwt>
<pdfrwt beam="1">  1       21 0.17879502E-01 0.21630271E+03</pdfrwt>
<pdfrwt beam="2">  1       21 0.76278464E-01 0.21630271E+03</pdfrwt>
<totfact> 0.43003392E+04</totfact>
</mgrwt>
</event>
<event>
 4    1  0.3875622E-001  0.2323814E+03  0.7546771E-02  0.1124975E+00
         21   -1    0    0  501  502  0.00000000000E+00  0.00000000000E+00  0.52306118820E+02  0.52306118820E+02  0.00000000000E+00 0. -1.
         21   -1    0    0  502  503 -0.00000000000E+00 -0.00000000000E+00 -0.10582819458E+04  0.10582819458E+04  0.00000000000E+00 0.  1.
          6    1    1    2  501    0  0.29773820908E+02  0.15226829157E+03 -0.41615657289E+03  0.47664180072E+03  0.17300000000E+03 0. -1.
         -6    1    1    2    0  503 -0.29773820908E+02 -0.15226829157E+03 -0.58981925411E+03  0.63394626393E+03  0.17300000000E+03 0. -1.
<mgrwt>
<rscale>  2 0.23238140E+03</rscale>
<asrwt>0</asrwt>
<pdfrwt beam="1">  1       21 0.80470965E-02 0.23238140E+03</pdfrwt>
<pdfrwt beam="2">  1       21 0.16281258E+00 0.23238140E+03</pdfrwt>
<totfact> 0.27826654E+04</totfact>
</mgrwt>
</event>
<event>
 4    1  0.3875622E-001  0.2255915E+03  0.7546771E-02  0.1129782E+00
         21   -1    0    0  503  502  0.00000000000E+00  0.00000000000E+00  0.27212430864E+03  0.27212430864E+03  0.00000000000E+00 0. -1.
         21   -1    0    0  501  503 -0.00000000000E+00 -0.00000000000E+00 -0.44536338784E+03  0.44536338784E+03  0.00000000000E+00 0.  1.
          6    1    1    2  501    0  0.14235468010E+03  0.26413579035E+02 -0.35985021314E+03  0.42471603219E+03  0.17300000000E+03 0.  1.
         -6    1    1    2    0  502 -0.14235468010E+03 -0.26413579035E+02  0.18661113394E+03  0.29277166429E+03  0.17300000000E+03 0. -1.
<mgrwt>
<rscale>  2 0.22559152E+03</rscale>
<asrwt>0</asrwt>
<pdfrwt beam="1">  1       21 0.41865278E-01 0.22559152E+03</pdfrwt>
<pdfrwt beam="2">  1       21 0.68517444E-01 0.22559152E+03</pdfrwt>
<totfact> 0.10439371E+04</totfact>
</mgrwt>
</event>
<event>
 4    1  0.3875622E-001  0.1794212E+03  0.7546771E-02  0.1168364E+00
         21   -1    0    0  501  502  0.00000000000E+00  0.00000000000E+00  0.17133737013E+03  0.17133737013E+03  0.00000000000E+00 0. -1.
         21   -1    0    0  502  503 -0.00000000000E+00 -0.00000000000E+00 -0.18789197355E+03  0.18789197355E+03  0.00000000000E+00 0. -1.
          6    1    1    2  501    0  0.11835352081E+01  0.47555973517E+02 -0.92505715492E+01  0.17965952367E+03  0.17300000000E+03 0. -1.
         -6    1    1    2    0  503 -0.11835352081E+01 -0.47555973517E+02 -0.73040318724E+01  0.17956982000E+03  0.17300000000E+03 0. -1.
<mgrwt>
<rscale>  2 0.17942121E+03</rscale>
<asrwt>0</asrwt>
<pdfrwt beam="1">  1       21 0.26359595E-01 0.17942121E+03</pdfrwt>
<pdfrwt beam="2">  1       21 0.28906457E-01 0.17942121E+03</pdfrwt>
<totfact> 0.15742088E+05</totfact>
</mgrwt>
</event>
<event>
 4    1  0.3875622E-001  0.1790658E+03  0.7546771E-02  0.1168710E+00
         21   -1    0    0  503  502  0.00000000000E+00  0.00000000000E+00  0.58591857359E+02  0.58591857359E+02  0.00000000000E+00 0. -1.
         21   -1    0    0  501  503 -0.00000000000E+00 -0.00000000000E+00 -0.64522297733E+03  0.64522297733E+03  0.00000000000E+00 0. -1.
          6    1    1    2  501    0  0.44084693162E+02  0.13860208592E+02 -0.43044167424E+03  0.46620231711E+03  0.17300000000E+03 0.  1.
         -6    1    1    2    0  502 -0.44084693162E+02 -0.13860208592E+02 -0.15618944573E+03  0.23761251758E+03  0.17300000000E+03 0.  1.
<mgrwt>
<rscale>  2 0.17906581E+03</rscale>
<asrwt>0</asrwt>
<pdfrwt beam="1">  1       21 0.90141320E-02 0.17906581E+03</pdfrwt>
<pdfrwt beam="2">  1       21 0.99265072E-01 0.17906581E+03</pdfrwt>
<totfact> 0.81866115E+04</totfact>
</mgrwt>
</event>
<event>
 4    1  0.3875622E-001  0.1734047E+03  0.7546771E-02  0.1174343E+00
         21   -1    0    0  503  502  0.00000000000E+00  0.00000000000E+00  0.17952128437E+03  0.17952128437E+03  0.00000000000E+00 0.  1.
         21   -1    0    0  501  503 -0.00000000000E+00 -0.00000000000E+00 -0.17606998169E+03  0.17606998169E+03  0.00000000000E+00 0.  1.
          6    1    1    2  501    0 -0.89758308794E+01 -0.77213682181E+01 -0.37507869891E+02  0.17741483977E+03  0.17300000000E+03 0.  1.
         -6    1    1    2    0  502  0.89758308794E+01  0.77213682181E+01  0.40959172568E+02  0.17817642629E+03  0.17300000000E+03 0.  1.
<mgrwt>
<rscale>  2 0.17340469E+03</rscale>
<asrwt>0</asrwt>
<pdfrwt beam="1">  1       21 0.27618659E-01 0.17340469E+03</pdfrwt>
<pdfrwt beam="2">  1       21 0.27087690E-01 0.17340469E+03</pdfrwt>
<totfact> 0.16346931E+05</totfact>
</mgrwt>
</event>
<event>
 4    1  0.3875622E-001  0.2100217E+03  0.7546771E-02  0.1141549E+00
         21   -1    0    0  503  502  0.00000000000E+00  0.00000000000E+00  0.28854987407E+03  0.28854987407E+03  0.00000000000E+00 0.  1.
         21   -1    0    0  501  503 -0.00000000000E+00 -0.00000000000E+00 -0.32891311547E+03  0.32891311547E+03  0.00000000000E+00 0.  1.
          6    1    1    2  501    0 -0.11628592980E+03 -0.25645818085E+02 -0.24605042269E+03  0.32349642341E+03  0.17300000000E+03 0.  1.
         -6    1    1    2    0  502  0.11628592980E+03  0.25645818085E+02  0.20568718129E+03  0.29396656613E+03  0.17300000000E+03 0.  1.
<mgrwt>
<rscale>  2 0.21002173E+03</rscale>
<asrwt>0</asrwt>
<pdfrwt beam="1">  1       21 0.44392288E-01 0.21002173E+03</pdfrwt>
<pdfrwt beam="2">  1       21 0.50602018E-01 0.21002173E+03</pdfrwt>
<totfact> 0.17918851E+04</totfact>
</mgrwt>
</event>
<event>
 4    1  0.3875622E-001  0.2903616E+03  0.7546771E-02  0.1090160E+00
         21   -1    0    0  503  502  0.00000000000E+00  0.00000000000E+00  0.11490415706E+04  0.11490415706E+04  0.00000000000E+00 0. -1.
         21   -1    0    0  501  503 -0.00000000000E+00 -0.00000000000E+00 -0.13348865949E+03  0.13348865949E+03  0.00000000000E+00 0.  1.
          6    1    1    2  501    0  0.13530211674E+03  0.18993211234E+03  0.77442783402E+02  0.30051165501E+03  0.17300000000E+03 0.  1.
         -6    1    1    2    0  502 -0.13530211674E+03 -0.18993211234E+03  0.93811012772E+03  0.98201857509E+03  0.17300000000E+03 0. -1.
<mgrwt>
<rscale>  2 0.29036162E+03</rscale>
<asrwt>0</asrwt>
<pdfrwt beam="1">  1       21 0.17677562E+00 0.29036162E+03</pdfrwt>
<pdfrwt beam="2">  1       21 0.20536718E-01 0.29036162E+03</pdfrwt>
<totfact> 0.39074945E+03</totfact>
</mgrwt>
</event>
<event>
 4    1  0.3875622E-001  0.4076514E+03  0.7546771E-02  0.1041162E+00
         21   -1    0    0  503  502  0.00000000000E+00  0.00000000000E+00  0.48247367937E+03  0.48247367937E+03  0.00000000000E+00 0.  1.
         21   -1    0    0  501  503 -0.00000000000E+00 -0.00000000000E+00 -0.34659363694E+03  0.34659363694E+03  0.00000000000E+00 0. -1.
          6    1    1    2  501    0 -0.35774359944E+03 -0.90940487436E+02  0.35207278517E+02  0.40916892313E+03  0.17300000000E+03 0. -1.
         -6    1    1    2    0  502  0.35774359944E+03  0.90940487436E+02  0.10067276391E+03  0.41989839318E+03  0.17300000000E+03 0.  1.
<mgrwt>
<rscale>  2 0.40765139E+03</rscale>
<asrwt>0</asrwt>
<pdfrwt beam="1">  1       21 0.74226720E-01 0.40765139E+03</pdfrwt>
<pdfrwt beam="2">  1       21 0.53322098E-01 0.40765139E+03</pdfrwt>
<totfact> 0.48333941E+03</totfact>
</mgrwt>
</event>
<event>
 4    1  0.3875622E-001  0.2115872E+03  0.7546771E-02  0.1140315E+00
         21   -1    0    0  503  502  0.00000000000E+00  0.00000000000E+00  0.60793935224E+03  0.60793935224E+03  0.00000000000E+00 0. -1.
         21   -1    0    0  501  503 -0.00000000000E+00 -0.00000000000E+00 -0.13970941434E+03  0.13970941434E+03  0.00000000000E+00 0.  1.
          6    1    1    2  501    0 -0.26671134807E+02  0.11886462838E+03 -0.22955588726E+02  0.21282882410E+03  0.17300000000E+03 0.  1.
         -6    1    1    2    0  502  0.26671134807E+02 -0.11886462838E+03  0.49118552663E+03  0.53481994249E+03  0.17300000000E+03 0. -1.
<mgrwt>
<rscale>  2 0.21158721E+03</rscale>
<asrwt>0</asrwt>
<pdfrwt beam="1">  1       21 0.93529129E-01 0.21158721E+03</pdfrwt>
<pdfrwt beam="2">  1       21 0.21493756E-01 0.21158721E+03</pdfrwt>
<totfact> 0.19152791E+04</totfact>
</mgrwt>
</event>
<event>
 4    1  0.3875622E-001  0.1878112E+03  0.7546771E-02  0.1160450E+00
         21   -1    0    0  503  502  0.00000000000E+00  0.00000000000E+00  0.10847165050E+04  0.10847165050E+04  0.00000000000E+00 0.  1.
         21   -1    0    0  501  503 -0.00000000000E+00 -0.00000000000E+00 -0.33190486563E+02  0.33190486563E+02  0.00000000000E+00 0. -1.
          6    1    1    2  501    0  0.14834716514E+02 -0.71581967194E+02  0.44621294264E+03  0.48412708768E+03  0.17300000000E+03 0.  1.
         -6    1    1    2    0  502 -0.14834716514E+02  0.71581967194E+02  0.60531307580E+03  0.63377990389E+03  0.17300000000E+03 0. -1.
<mgrwt>
<rscale>  2 0.18781120E+03</rscale>
<asrwt>0</asrwt>
<pdfrwt beam="1">  1       21 0.16687943E+00 0.18781120E+03</pdfrwt>
<pdfrwt beam="2">  1       21 0.51062295E-02 0.18781120E+03</pdfrwt>
<totfact> 0.58433950E+04</totfact>
</mgrwt>
</event>
<event>
 4    1  0.3875622E-001  0.1922567E+03  0.7546771E-02  0.1156442E+00
         21   -1    0    0  501  502  0.00000000000E+00  0.00000000000E+00  0.18660355524E+03  0.18660355524E+03  0.00000000000E+00 0.  1.
         21   -1    0    0  502  503 -0.00000000000E+00 -0.00000000000E+00 -0.21044499390E+03  0.21044499390E+03  0.00000000000E+00 0.  1.
          6    1    1    2  501    0 -0.25323639623E+02  0.79952151924E+02  0.36198917929E+02  0.19563485114E+03  0.17300000000E+03 0.  1.
         -6    1    1    2    0  503  0.25323639623E+02 -0.79952151924E+02 -0.60040356589E+02  0.20141369800E+03  0.17300000000E+03 0.  1.
<mgrwt>
<rscale>  2 0.19225669E+03</rscale>
<asrwt>0</asrwt>
<pdfrwt beam="1">  1       21 0.28708239E-01 0.19225669E+03</pdfrwt>
<pdfrwt beam="2">  1       21 0.32376153E-01 0.19225669E+03</pdfrwt>
<totfact> 0.10657376E+05</totfact>
</mgrwt>
</event>
<event>
 4    1  0.3875622E-001  0.2188717E+03  0.7546771E-02  0.1134727E+00
         21   -1    0    0  503  502  0.00000000000E+00  0.00000000000E+00  0.64634549203E+03  0.64634549203E+03  0.00000000000E+00 0.  1.
         21   -1    0    0  501  503 -0.00000000000E+00 -0.00000000000E+00 -0.78957667826E+02  0.78957667826E+02  0.00000000000E+00 0. -1.
          6    1    1    2  501    0  0.97451836760E+01  0.13371926618E+03  0.19389495409E+03  0.29240393974E+03  0.17300000000E+03 0. -1.
         -6    1    1    2    0  502 -0.97451836760E+01 -0.13371926618E+03  0.37349287011E+03  0.43289922011E+03  0.17300000000E+03 0. -1.
<mgrwt>
<rscale>  2 0.21887168E+03</rscale>
<asrwt>0</asrwt>
<pdfrwt beam="1">  1       21 0.99437765E-01 0.21887168E+03</pdfrwt>
<pdfrwt beam="2">  1       21 0.12147334E-01 0.21887168E+03</pdfrwt>
<totfact> 0.47139150E+04</totfact>
</mgrwt>
</event>
<event>
 4    1  0.3875622E-001  0.1902087E+03  0.7546771E-02  0.1158273E+00
         21   -1    0    0  501  502  0.00000000000E+00  0.00000000000E+00  0.48963305848E+03  0.48963305848E+03  0.00000000000E+00 0. -1.
         21   -1    0    0  502  503 -0.00000000000E+00 -0.00000000000E+00 -0.74962919334E+02  0.74962919334E+02  0.00000000000E+00 0. -1.
          6    1    1    2  501    0  0.61210738975E+02 -0.50035942626E+02  0.17357387544E+03  0.25750192302E+03  0.17300000000E+03 0. -1.
         -6    1    1    2    0  503 -0.61210738975E+02  0.50035942626E+02  0.24109626370E+03  0.30709405480E+03  0.17300000000E+03 0. -1.
<mgrwt>
<rscale>  2 0.19020870E+03</rscale>
<asrwt>0</asrwt>
<pdfrwt beam="1">  1       21 0.75328161E-01 0.19020870E+03</pdfrwt>
<pdfrwt beam="2">  1       21 0.11532757E-01 0.19020870E+03</pdfrwt>
<totfact> 0.99285478E+04</totfact>
</mgrwt>
</event>
<event>
 4    1  0.3875622E-001  0.1813056E+03  0.7546771E-02  0.1166545E+00
         21   -1    0    0  503  502  0.00000000000E+00  0.00000000000E+00  0.66853883861E+03  0.66853883861E+03  0.00000000000E+00 0. -1.
         21   -1    0    0  501  503 -0.00000000000E+00 -0.00000000000E+00 -0.49179741863E+02  0.49179741863E+02  0.00000000000E+00 0.  1.
          6    1    1    2  501    0  0.36027748740E+02 -0.40554955758E+02  0.31486478753E+03  0.36333392016E+03  0.17300000000E+03 0. -1.
         -6    1    1    2    0  502 -0.36027748740E+02  0.40554955758E+02  0.30449430922E+03  0.35438466031E+03  0.17300000000E+03 0. -1.
<mgrwt>
<rscale>  2 0.18130555E+03</rscale>
<asrwt>0</asrwt>
<pdfrwt beam="1">  1       21 0.10285212E+00 0.18130555E+03</pdfrwt>
<pdfrwt beam="2">  1       21 0.75661146E-02 0.18130555E+03</pdfrwt>
<totfact> 0.10197603E+05</totfact>
</mgrwt>
</event>
<event>
 4    1  0.3875622E-001  0.2112658E+03  0.7546771E-02  0.1140568E+00
         21   -1    0    0  501  502  0.00000000000E+00  0.00000000000E+00  0.72432371024E+02  0.72432371024E+02  0.00000000000E+00 0.  1.
         21   -1    0    0  502  503 -0.00000000000E+00 -0.00000000000E+00 -0.64624325820E+03  0.64624325820E+03  0.00000000000E+00 0.  1.
          6    1    1    2  501    0 -0.68144285678E+02  0.10030253944E+03 -0.20943484656E+03  0.29748310547E+03  0.17300000000E+03 0.  1.
         -6    1    1    2    0  503  0.68144285678E+02 -0.10030253944E+03 -0.36437604061E+03  0.42119252375E+03  0.17300000000E+03 0.  1.
<mgrwt>
<rscale>  2 0.21126581E+03</rscale>
<asrwt>0</asrwt>
<pdfrwt beam="1">  1       21 0.11143442E-01 0.21126581E+03</pdfrwt>
<pdfrwt beam="2">  1       21 0.99422038E-01 0.21126581E+03</pdfrwt>
<totfact> 0.55229880E+04</totfact>
</mgrwt>
</event>
<event>
 4    1  0.3875622E-001  0.1975109E+03  0.7546771E-02  0.1151856E+00
         21   -1    0    0  501  502  0.00000000000E+00  0.00000000000E+00  0.37860090779E+03  0.37860090779E+03  0.00000000000E+00 0.  1.
         21   -1    0    0  502  503 -0.00000000000E+00 -0.00000000000E+00 -0.11245853298E+03  0.11245853298E+03  0.00000000000E+00 0.  1.
          6    1    1    2  501    0 -0.76227623005E+02  0.57191799224E+02  0.20413181428E+03  0.28404286650E+03  0.17300000000E+03 0. -1.
         -6    1    1    2    0  503  0.76227623005E+02 -0.57191799224E+02  0.62010560529E+02  0.20701657428E+03  0.17300000000E+03 0. -1.
<mgrwt>
<rscale>  2 0.19751089E+03</rscale>
<asrwt>0</asrwt>
<pdfrwt beam="1">  1       21 0.58246293E-01 0.19751089E+03</pdfrwt>
<pdfrwt beam="2">  1       21 0.17301313E-01 0.19751089E+03</pdfrwt>
<totfact> 0.83226524E+04</totfact>
</mgrwt>
</event>
<event>
 4    1  0.3875622E-001  0.1905119E+03  0.7546771E-02  0.1158000E+00
         21   -1    0    0  501  502  0.00000000000E+00  0.00000000000E+00  0.72308721862E+03  0.72308721862E+03  0.00000000000E+00 0.  1.
         21   -1    0    0  502  503 -0.00000000000E+00 -0.00000000000E+00 -0.59588882151E+02  0.59588882151E+02  0.00000000000E+00 0. -1.
          6    1    1    2  501    0  0.18952348452E+02 -0.77502255032E+02  0.48713459797E+03  0.52306300537E+03  0.17300000000E+03 0.  1.
         -6    1    1    2    0  503 -0.18952348452E+02  0.77502255032E+02  0.17636373850E+03  0.25961309541E+03  0.17300000000E+03 0. -1.
<mgrwt>
<rscale>  2 0.19051192E+03</rscale>
<asrwt>0</asrwt>
<pdfrwt beam="1">  1       21 0.11124418E+00 0.19051192E+03</pdfrwt>
<pdfrwt beam="2">  1       21 0.91675209E-02 0.19051192E+03</pdfrwt>
<totfact> 0.60168307E+04</totfact>
</mgrwt>
</event>
<event>
 4    1  0.3875622E-001  0.2381570E+03  0.7546771E-02  0.1121027E+00
         21   -1    0    0  503  502  0.00000000000E+00  0.00000000000E+00  0.12423670455E+03  0.12423670455E+03  0.00000000000E+00 0. -1.
         21   -1    0    0  501  503 -0.00000000000E+00 -0.00000000000E+00 -0.62667647067E+03  0.62667647067E+03  0.00000000000E+00 0. -1.
          6    1    1    2  501    0 -0.16367573694E+03  0.16502783996E+00 -0.44685162526E+03  0.50635476604E+03  0.17300000000E+03 0. -1.
         -6    1    1    2    0  502  0.16367573694E+03 -0.16502783996E+00 -0.55588140860E+02  0.24455840918E+03  0.17300000000E+03 0. -1.
<mgrwt>
<rscale>  2 0.23815704E+03</rscale>
<asrwt>0</asrwt>
<pdfrwt beam="1">  1       21 0.19113339E-01 0.23815704E+03</pdfrwt>
<pdfrwt beam="2">  1       21 0.96411765E-01 0.23815704E+03</pdfrwt>
<totfact> 0.21905505E+04</totfact>
</mgrwt>
</event>
<event>
 4    1  0.3875622E-001  0.2264546E+03  0.7546771E-02  0.1129160E+00
         21   -1    0    0  503  502  0.00000000000E+00  0.00000000000E+00  0.37279307944E+03  0.37279307944E+03  0.00000000000E+00 0.  1.
         21   -1    0    0  501  503 -0.00000000000E+00 -0.00000000000E+00 -0.14811937955E+03  0.14811937955E+03  0.00000000000E+00 0. -1.
          6    1    1    2  501    0  0.67327141286E+01  0.14597043391E+03  0.42797199118E+02  0.23046322324E+03  0.17300000000E+03 0. -1.
         -6    1    1    2    0  502 -0.67327141286E+01 -0.14597043391E+03  0.18187650077E+03  0.29044923575E+03  0.17300000000E+03 0. -1.
<mgrwt>
<rscale>  2 0.22645462E+03</rscale>
<asrwt>0</asrwt>
<pdfrwt beam="1">  1       21 0.57352781E-01 0.22645462E+03</pdfrwt>
<pdfrwt beam="2">  1       21 0.22787597E-01 0.22645462E+03</pdfrwt>
<totfact> 0.50738428E+04</totfact>
</mgrwt>
</event>
<event>
 4    1  0.3875622E-001  0.2271433E+03  0.7546771E-02  0.1128667E+00
         21   -1    0    0  501  502  0.00000000000E+00  0.00000000000E+00  0.15553442906E+03  0.15553442906E+03  0.00000000000E+00 0. -1.
         21   -1    0    0  502  503 -0.00000000000E+00 -0.00000000000E+00 -0.33361301242E+03  0.33361301242E+03  0.00000000000E+00 0. -1.
          6    1    1    2  501    0 -0.20229130366E+02  0.14579396887E+03 -0.10745566018E+03  0.25127836751E+03  0.17300000000E+03 0. -1.
         -6    1    1    2    0  503  0.20229130366E+02 -0.14579396887E+03 -0.70622923175E+02  0.23786907397E+03  0.17300000000E+03 0. -1.
<mgrwt>
<rscale>  2 0.22714334E+03</rscale>
<asrwt>0</asrwt>
<pdfrwt beam="1">  1       21 0.23928374E-01 0.22714334E+03</pdfrwt>
<pdfrwt beam="2">  1       21 0.51325079E-01 0.22714334E+03</pdfrwt>
<totfact> 0.58487783E+04</totfact>
</mgrwt>
</event>
<event>
 4    1  0.3875622E-001  0.2234779E+03  0.7546771E-02  0.1131316E+00
         21   -1    0    0  501  502  0.00000000000E+00  0.00000000000E+00  0.11340695482E+03  0.11340695482E+03  0.00000000000E+00 0.  1.
         21   -1    0    0  502  503 -0.00000000000E+00 -0.00000000000E+00 -0.68911457903E+03  0.68911457903E+03  0.00000000000E+00 0.  1.
          6    1    1    2  501    0 -0.14102755603E+03 -0.11162871144E+02 -0.46781507953E+02  0.22832190157E+03  0.17300000000E+03 0.  1.
         -6    1    1    2    0  503  0.14102755603E+03  0.11162871144E+02 -0.52892611625E+03  0.57419963228E+03  0.17300000000E+03 0.  1.
<mgrwt>
<rscale>  2 0.22347792E+03</rscale>
<asrwt>0</asrwt>
<pdfrwt beam="1">  1       21 0.17447224E-01 0.22347792E+03</pdfrwt>
<pdfrwt beam="2">  1       21 0.10601763E+00 0.22347792E+03</pdfrwt>
<totfact> 0.20842878E+04</totfact>
</mgrwt>
</event>
<event>
 4    1  0.3875622E-001  0.1954783E+03  0.7546771E-02  0.1153611E+00
         21   -1    0    0  503  502  0.00000000000E+00  0.00000000000E+00  0.26073355828E+02  0.26073355828E+02  0.00000000000E+00 0.  1.
         21   -1    0    0  501  503 -0.00000000000E+00 -0.00000000000E+00 -0.14658599808E+04  0.14658599808E+04  0.00000000000E+00 0.  1.
          6    1    1    2  501    0 -0.90830460839E+02  0.57105278204E+01 -0.73075710556E+03  0.75645074530E+03  0.17300000000E+03 0.  1.
         -6    1    1    2    0  502  0.90830460839E+02 -0.57105278204E+01 -0.70902951940E+03  0.73548259132E+03  0.17300000000E+03 0.  1.
<mgrwt>
<rscale>  2 0.19547834E+03</rscale>
<asrwt>0</asrwt>
<pdfrwt beam="1">  1       21 0.40112857E-02 0.19547834E+03</pdfrwt>
<pdfrwt beam="2">  1       21 0.22551691E+00 0.19547834E+03</pdfrwt>
<totfact> 0.36229763E+04</totfact>
</mgrwt>
</event>
<event>
 4    1  0.3875622E-001  0.1981101E+03  0.7546771E-02  0.1151343E+00
         21   -1    0    0  503  502  0.00000000000E+00  0.00000000000E+00  0.47190181612E+02  0.47190181612E+02  0.00000000000E+00 0.  1.
         21   -1    0    0  501  503 -0.00000000000E+00 -0.00000000000E+00 -0.87599133748E+03  0.87599133748E+03  0.00000000000E+00 0.  1.
          6    1    1    2  501    0  0.98969756598E+01  0.96024358869E+02 -0.51820431120E+03  0.55478224176E+03  0.17300000000E+03 0.  1.
         -6    1    1    2    0  502 -0.98969756598E+01 -0.96024358869E+02 -0.31059684468E+03  0.36839927734E+03  0.17300000000E+03 0.  1.
<mgrwt>
<rscale>  2 0.19811014E+03</rscale>
<asrwt>0</asrwt>
<pdfrwt beam="1">  1       21 0.72600280E-02 0.19811014E+03</pdfrwt>
<pdfrwt beam="2">  1       21 0.13476790E+00 0.19811014E+03</pdfrwt>
<totfact> 0.55872418E+04</totfact>
</mgrwt>
</event>
<event>
 4    1  0.3875622E-001  0.1924262E+03  0.7546771E-02  0.1156291E+00
         21   -1    0    0  503  502  0.00000000000E+00  0.00000000000E+00  0.20703797125E+03  0.20703797125E+03  0.00000000000E+00 0.  1.
         21   -1    0    0  501  503 -0.00000000000E+00 -0.00000000000E+00 -0.18904624167E+03  0.18904624167E+03  0.00000000000E+00 0.  1.
          6    1    1    2  501    0  0.28794056043E+02  0.79181756127E+02 -0.37007056444E+02  0.19595246973E+03  0.17300000000E+03 0.  1.
         -6    1    1    2    0  502 -0.28794056043E+02 -0.79181756127E+02  0.54998786025E+02  0.20013174319E+03  0.17300000000E+03 0.  1.
<mgrwt>
<rscale>  2 0.19242621E+03</rscale>
<asrwt>0</asrwt>
<pdfrwt beam="1">  1       21 0.31851996E-01 0.19242621E+03</pdfrwt>
<pdfrwt beam="2">  1       21 0.29084037E-01 0.19242621E+03</pdfrwt>
<totfact> 0.10729713E+05</totfact>
</mgrwt>
</event>
<event>
 4    1  0.3875622E-001  0.2135652E+03  0.7546771E-02  0.1138773E+00
         21   -1    0    0  503  502  0.00000000000E+00  0.00000000000E+00  0.37391174907E+03  0.37391174907E+03  0.00000000000E+00 0.  1.
         21   -1    0    0  501  503 -0.00000000000E+00 -0.00000000000E+00 -0.12456567326E+03  0.12456567326E+03  0.00000000000E+00 0. -1.
          6    1    1    2  501    0 -0.94485486163E+02  0.82180186638E+02  0.88770275029E+02  0.23127959681E+03  0.17300000000E+03 0. -1.
         -6    1    1    2    0  502  0.94485486163E+02 -0.82180186638E+02  0.16057580078E+03  0.26719782553E+03  0.17300000000E+03 0.  1.
<mgrwt>
<rscale>  2 0.21356519E+03</rscale>
<asrwt>0</asrwt>
<pdfrwt beam="1">  1       21 0.57524884E-01 0.21356519E+03</pdfrwt>
<pdfrwt beam="2">  1       21 0.19163950E-01 0.21356519E+03</pdfrwt>
<totfact> 0.70225489E+04</totfact>
</mgrwt>
</event>
<event>
 4    1  0.3875622E-001  0.3067470E+03  0.7546771E-02  0.1081916E+00
         21   -1    0    0  501  502  0.00000000000E+00  0.00000000000E+00  0.11340782762E+03  0.11340782762E+03  0.00000000000E+00 0.  1.
         21   -1    0    0  502  503 -0.00000000000E+00 -0.00000000000E+00 -0.94562585497E+03  0.94562585497E+03  0.00000000000E+00 0.  1.
          6    1    1    2  501    0  0.49912305485E+02 -0.24834140862E+03 -0.23070327887E+03  0.38381987489E+03  0.17300000000E+03 0.  1.
         -6    1    1    2    0  503 -0.49912305485E+02  0.24834140862E+03 -0.60151474847E+03  0.67521380770E+03  0.17300000000E+03 0.  1.
<mgrwt>
<rscale>  2 0.30674695E+03</rscale>
<asrwt>0</asrwt>
<pdfrwt beam="1">  1       21 0.17447358E-01 0.30674695E+03</pdfrwt>
<pdfrwt beam="2">  1       21 0.14548090E+00 0.30674695E+03</pdfrwt>
<totfact> 0.89792442E+03</totfact>
</mgrwt>
</event>
<event>
 4    1  0.3875622E-001  0.1949248E+03  0.7546771E-02  0.1154093E+00
         21   -1    0    0  503  502  0.00000000000E+00  0.00000000000E+00  0.63431923241E+02  0.63431923241E+02  0.00000000000E+00 0.  1.
         21   -1    0    0  501  503 -0.00000000000E+00 -0.00000000000E+00 -0.66724844928E+03  0.66724844928E+03  0.00000000000E+00 0. -1.
          6    1    1    2  501    0  0.69574372350E+02 -0.56798466636E+02 -0.41875140028E+03  0.46189651907E+03  0.17300000000E+03 0. -1.
         -6    1    1    2    0  502 -0.69574372350E+02  0.56798466636E+02 -0.18506512576E+03  0.26878385345E+03  0.17300000000E+03 0.  1.
<mgrwt>
<rscale>  2 0.19492475E+03</rscale>
<asrwt>0</asrwt>
<pdfrwt beam="1">  1       21 0.97587581E-02 0.19492475E+03</pdfrwt>
<pdfrwt beam="2">  1       21 0.10265360E+00 0.19492475E+03</pdfrwt>
<totfact> 0.65271798E+04</totfact>
</mgrwt>
</event>
<event>
 4    1  0.3875622E-001  0.2152532E+03  0.7546771E-02  0.1137472E+00
         21   -1    0    0  501  502  0.00000000000E+00  0.00000000000E+00  0.69613182019E+02  0.69613182019E+02  0.00000000000E+00 0.  1.
         21   -1    0    0  502  503 -0.00000000000E+00 -0.00000000000E+00 -0.66692337629E+03  0.66692337629E+03  0.00000000000E+00 0. -1.
          6    1    1    2  501    0 -0.40917882760E+02  0.12136997753E+03 -0.28219801578E+03  0.35492205438E+03  0.17300000000E+03 0. -1.
         -6    1    1    2    0  503  0.40917882760E+02 -0.12136997753E+03 -0.31511217849E+03  0.38161450393E+03  0.17300000000E+03 0.  1.
<mgrwt>
<rscale>  2 0.21525321E+03</rscale>
<asrwt>0</asrwt>
<pdfrwt beam="1">  1       21 0.10709720E-01 0.21525321E+03</pdfrwt>
<pdfrwt beam="2">  1       21 0.10260360E+00 0.21525321E+03</pdfrwt>
<totfact> 0.54876572E+04</totfact>
</mgrwt>
</event>
<event>
 4    1  0.3875622E-001  0.2427926E+03  0.7546771E-02  0.1117946E+00
         21   -1    0    0  501  502  0.00000000000E+00  0.00000000000E+00  0.41228480019E+02  0.41228480019E+02  0.00000000000E+00 0.  1.
         21   -1    0    0  502  503 -0.00000000000E+00 -0.00000000000E+00 -0.15825380533E+04  0.15825380533E+04  0.00000000000E+00 0.  1.
          6    1    1    2  501    0  0.11693224000E+03 -0.12387930358E+03 -0.51842361340E+03  0.57246071790E+03  0.17300000000E+03 0.  1.
         -6    1    1    2    0  503 -0.11693224000E+03  0.12387930358E+03 -0.10228859598E+04  0.10513058154E+04  0.17300000000E+03 0.  1.
<mgrwt>
<rscale>  2 0.24279257E+03</rscale>
<asrwt>0</asrwt>
<pdfrwt beam="1">  1       21 0.63428422E-02 0.24279257E+03</pdfrwt>
<pdfrwt beam="2">  1       21 0.24346743E+00 0.24279257E+03</pdfrwt>
<totfact> 0.12494858E+04</totfact>
</mgrwt>
</event>
<event>
 4    1  0.3875622E-001  0.3479652E+03  0.7546771E-02  0.1063453E+00
         21   -1    0    0  503  502  0.00000000000E+00  0.00000000000E+00  0.77263239305E+03  0.77263239305E+03  0.00000000000E+00 0.  1.
         21   -1    0    0  501  503 -0.00000000000E+00 -0.00000000000E+00 -0.17393955969E+03  0.17393955969E+03  0.00000000000E+00 0. -1.
          6    1    1    2  501    0  0.10777657167E+03 -0.28201945294E+03  0.15039221727E+03  0.37907463678E+03  0.17300000000E+03 0. -1.
         -6    1    1    2    0  502 -0.10777657167E+03  0.28201945294E+03  0.44830061608E+03  0.56749731596E+03  0.17300000000E+03 0.  1.
<mgrwt>
<rscale>  2 0.34796517E+03</rscale>
<asrwt>0</asrwt>
<pdfrwt beam="1">  1       21 0.11886652E+00 0.34796517E+03</pdfrwt>
<pdfrwt beam="2">  1       21 0.26759933E-01 0.34796517E+03</pdfrwt>
<totfact> 0.65728189E+03</totfact>
</mgrwt>
</event>
<event>
 4    1  0.3875622E-001  0.1745951E+03  0.7546771E-02  0.1173139E+00
         21   -1    0    0  501  502  0.00000000000E+00  0.00000000000E+00  0.63863376558E+02  0.63863376558E+02  0.00000000000E+00 0. -1.
         21   -1    0    0  502  503 -0.00000000000E+00 -0.00000000000E+00 -0.51025392491E+03  0.51025392491E+03  0.00000000000E+00 0. -1.
          6    1    1    2  501    0  0.20471693420E+02  0.11634449103E+02 -0.15026963619E+03  0.23035714488E+03  0.17300000000E+03 0. -1.
         -6    1    1    2    0  503 -0.20471693420E+02 -0.11634449103E+02 -0.29612091216E+03  0.34376015659E+03  0.17300000000E+03 0. -1.
<mgrwt>
<rscale>  2 0.17459510E+03</rscale>
<asrwt>0</asrwt>
<pdfrwt beam="1">  1       21 0.98251352E-02 0.17459510E+03</pdfrwt>
<pdfrwt beam="2">  1       21 0.78500601E-01 0.17459510E+03</pdfrwt>
<totfact> 0.12096615E+05</totfact>
</mgrwt>
</event>
<event>
 4    1  0.3875622E-001  0.1988721E+03  0.7546771E-02  0.1150694E+00
         21   -1    0    0  501  502  0.00000000000E+00  0.00000000000E+00  0.34052815929E+03  0.34052815929E+03  0.00000000000E+00 0. -1.
         21   -1    0    0  502  503 -0.00000000000E+00 -0.00000000000E+00 -0.11616836518E+03  0.11616836518E+03  0.00000000000E+00 0.  1.
          6    1    1    2  501    0  0.34064309688E+02 -0.91982279835E+02  0.10883609298E+03  0.22670556265E+03  0.17300000000E+03 0. -1.
         -6    1    1    2    0  503 -0.34064309688E+02  0.91982279835E+02  0.11552370113E+03  0.22999096182E+03  0.17300000000E+03 0.  1.
<mgrwt>
<rscale>  2 0.19887211E+03</rscale>
<asrwt>0</asrwt>
<pdfrwt beam="1">  1       21 0.52388947E-01 0.19887211E+03</pdfrwt>
<pdfrwt beam="2">  1       21 0.17872056E-01 0.19887211E+03</pdfrwt>
<totfact> 0.98065774E+04</totfact>
</mgrwt>
</event>
<event>
 4    1  0.3875622E-001  0.1939303E+03  0.7546771E-02  0.1154963E+00
         21   -1    0    0  501  502  0.00000000000E+00  0.00000000000E+00  0.72847767762E+03  0.72847767762E+03  0.00000000000E+00 0. -1.
         21   -1    0    0  502  503 -0.00000000000E+00 -0.00000000000E+00 -0.58061133625E+02  0.58061133625E+02  0.00000000000E+00 0.  1.
          6    1    1    2  501    0 -0.20210194452E+02 -0.85273178344E+02  0.46612628368E+03  0.50485906869E+03  0.17300000000E+03 0. -1.
         -6    1    1    2    0  503  0.20210194452E+02  0.85273178344E+02  0.20429026032E+03  0.28167974255E+03  0.17300000000E+03 0. -1.
<mgrwt>
<rscale>  2 0.19393031E+03</rscale>
<asrwt>0</asrwt>
<pdfrwt beam="1">  1       21 0.11207348E+00 0.19393031E+03</pdfrwt>
<pdfrwt beam="2">  1       21 0.89324826E-02 0.19393031E+03</pdfrwt>
<totfact> 0.61748117E+04</totfact>
</mgrwt>
</event>
<event>
 4    1  0.3875622E-001  0.1850831E+03  0.7546771E-02  0.1162972E+00
         21   -1    0    0  503  502  0.00000000000E+00  0.00000000000E+00  0.14832938973E+03  0.14832938973E+03  0.00000000000E+00 0.  1.
         21   -1    0    0  501  503 -0.00000000000E+00 -0.00000000000E+00 -0.25309173241E+03  0.25309173241E+03  0.00000000000E+00 0.  1.
          6    1    1    2  501    0  0.65749864526E+02  0.19287524984E+01 -0.11175527368E+03  0.21620593416E+03  0.17300000000E+03 0.  1.
         -6    1    1    2    0  502 -0.65749864526E+02 -0.19287524984E+01  0.69929310061E+01  0.18521518797E+03  0.17300000000E+03 0.  1.
<mgrwt>
<rscale>  2 0.18508313E+03</rscale>
<asrwt>0</asrwt>
<pdfrwt beam="1">  1       21 0.22819906E-01 0.18508313E+03</pdfrwt>
<pdfrwt beam="2">  1       21 0.38937189E-01 0.18508313E+03</pdfrwt>
<totfact> 0.11487433E+05</totfact>
</mgrwt>
</event>
<event>
 4    1  0.3875622E-001  0.2926063E+03  0.7546771E-02  0.1088996E+00
         21   -1    0    0  503  502  0.00000000000E+00  0.00000000000E+00  0.16932209838E+04  0.16932209838E+04  0.00000000000E+00 0.  1.
         21   -1    0    0  501  503 -0.00000000000E+00 -0.00000000000E+00 -0.50569228536E+02  0.50569228536E+02  0.00000000000E+00 0. -1.
          6    1    1    2  501    0  0.10626977341E+03  0.21070395101E+03  0.82889861692E+03  0.87902863255E+03  0.17300000000E+03 0.  1.
         -6    1    1    2    0  502 -0.10626977341E+03 -0.21070395101E+03  0.81375313833E+03  0.86476157977E+03  0.17300000000E+03 0. -1.
<mgrwt>
<rscale>  2 0.29260625E+03</rscale>
<asrwt>0</asrwt>
<pdfrwt beam="1">  1       21 0.26049549E+00 0.29260625E+03</pdfrwt>
<pdfrwt beam="2">  1       21 0.77798826E-02 0.29260625E+03</pdfrwt>
<totfact> 0.66891269E+03</totfact>
</mgrwt>
</event>
<event>
 4    1  0.3875622E-001  0.2027604E+03  0.7546771E-02  0.1147431E+00
         21   -1    0    0  503  502  0.00000000000E+00  0.00000000000E+00  0.28292332888E+03  0.28292332888E+03  0.00000000000E+00 0.  1.
         21   -1    0    0  501  503 -0.00000000000E+00 -0.00000000000E+00 -0.14798047679E+03  0.14798047679E+03  0.00000000000E+00 0.  1.
          6    1    1    2  501    0  0.50505009944E+02 -0.92908710611E+02  0.38532240917E+02  0.20638923937E+03  0.17300000000E+03 0. -1.
         -6    1    1    2    0  502 -0.50505009944E+02  0.92908710611E+02  0.96410611165E+02  0.22451456630E+03  0.17300000000E+03 0. -1.
<mgrwt>
<rscale>  2 0.20276041E+03</rscale>
<asrwt>0</asrwt>
<pdfrwt beam="1">  1       21 0.43526666E-01 0.20276041E+03</pdfrwt>
<pdfrwt beam="2">  1       21 0.22766227E-01 0.20276041E+03</pdfrwt>
<totfact> 0.91413412E+04</totfact>
</mgrwt>
</event>
<event>
 4    1  0.3875622E-001  0.3200458E+03  0.7546771E-02  0.1075628E+00
         21   -1    0    0  501  502  0.00000000000E+00  0.00000000000E+00  0.43285401706E+03  0.43285401706E+03  0.00000000000E+00 0.  1.
         21   -1    0    0  502  503 -0.00000000000E+00 -0.00000000000E+00 -0.24179593959E+03  0.24179593959E+03  0.00000000000E+00 0. -1.
          6    1    1    2  501    0 -0.14999091690E+03 -0.22361366412E+03  0.14480072475E+03  0.35127851602E+03  0.17300000000E+03 0.  1.
         -6    1    1    2    0  503  0.14999091690E+03  0.22361366412E+03  0.46257352719E+02  0.32337144063E+03  0.17300000000E+03 0. -1.
<mgrwt>
<rscale>  2 0.32004585E+03</rscale>
<asrwt>0</asrwt>
<pdfrwt beam="1">  1       21 0.66592926E-01 0.32004585E+03</pdfrwt>
<pdfrwt beam="2">  1       21 0.37199375E-01 0.32004585E+03</pdfrwt>
<totfact> 0.13495206E+04</totfact>
</mgrwt>
</event>
<event>
 4    1  0.3875622E-001  0.2382156E+03  0.7546771E-02  0.1120987E+00
         21   -1    0    0  501  502  0.00000000000E+00  0.00000000000E+00  0.11719465914E+03  0.11719465914E+03  0.00000000000E+00 0.  1.
         21   -1    0    0  502  503 -0.00000000000E+00 -0.00000000000E+00 -0.51780399380E+03  0.51780399380E+03  0.00000000000E+00 0. -1.
          6    1    1    2  501    0  0.15141858095E+03  0.62370590326E+02 -0.28117684379E+03  0.36852014148E+03  0.17300000000E+03 0.  1.
         -6    1    1    2    0  503 -0.15141858095E+03 -0.62370590326E+02 -0.11943249086E+03  0.26647851146E+03  0.17300000000E+03 0. -1.
<mgrwt>
<rscale>  2 0.23821561E+03</rscale>
<asrwt>0</asrwt>
<pdfrwt beam="1">  1       21 0.18029948E-01 0.23821561E+03</pdfrwt>
<pdfrwt beam="2">  1       21 0.79662153E-01 0.23821561E+03</pdfrwt>
<totfact> 0.37995681E+04</totfact>
</mgrwt>
</event>
<event>
 4    1  0.3875622E-001  0.2184664E+03  0.7546771E-02  0.1135032E+00
         21   -1    0    0  503  502  0.00000000000E+00  0.00000000000E+00  0.97542675824E+03  0.97542675824E+03  0.00000000000E+00 0. -1.
         21   -1    0    0  501  503 -0.00000000000E+00 -0.00000000000E+00 -0.55235776298E+02  0.55235776298E+02  0.00000000000E+00 0. -1.
          6    1    1    2  501    0 -0.46141589706E+02 -0.12517787821E+03  0.28597555428E+03  0.35987437411E+03  0.17300000000E+03 0. -1.
         -6    1    1    2    0  502  0.46141589706E+02  0.12517787821E+03  0.63421542765E+03  0.67078816043E+03  0.17300000000E+03 0. -1.
<mgrwt>
<rscale>  2 0.21846635E+03</rscale>
<asrwt>0</asrwt>
<pdfrwt beam="1">  1       21 0.15006564E+00 0.21846635E+03</pdfrwt>
<pdfrwt beam="2">  1       21 0.84978125E-02 0.21846635E+03</pdfrwt>
<totfact> 0.31748835E+04</totfact>
</mgrwt>
</event>
<event>
 4    1  0.3875622E-001  0.3320144E+03  0.7546771E-02  0.1070249E+00
         21   -1    0    0  501  502  0.00000000000E+00  0.00000000000E+00  0.44606338499E+03  0.44606338499E+03  0.00000000000E+00 0.  1.
         21   -1    0    0  502  503 -0.00000000000E+00 -0.00000000000E+00 -0.28729808638E+03  0.28729808638E+03  0.00000000000E+00 0. -1.
          6    1    1    2  501    0  0.28119252405E+03  0.35147458335E+02  0.21649839267E+03  0.39636489935E+03  0.17300000000E+03 0.  1.
         -6    1    1    2    0  503 -0.28119252405E+03 -0.35147458335E+02 -0.57733094058E+02  0.33699657203E+03  0.17300000000E+03 0. -1.
<mgrwt>
<rscale>  2 0.33201443E+03</rscale>
<asrwt>0</asrwt>
<pdfrwt beam="1">  1       21 0.68625136E-01 0.33201443E+03</pdfrwt>
<pdfrwt beam="2">  1       21 0.44199706E-01 0.33201443E+03</pdfrwt>
<totfact> 0.88221091E+03</totfact>
</mgrwt>
</event>
<event>
 4    1  0.3875622E-001  0.2899288E+03  0.7546771E-02  0.1090386E+00
         21   -1    0    0  501  502  0.00000000000E+00  0.00000000000E+00  0.20817565585E+03  0.20817565585E+03  0.00000000000E+00 0. -1.
         21   -1    0    0  502  503 -0.00000000000E+00 -0.00000000000E+00 -0.58838857153E+03  0.58838857153E+03  0.00000000000E+00 0.  1.
          6    1    1    2  501    0  0.77277348341E+02  0.21944911475E+03  0.32981403232E+02  0.29179869001E+03  0.17300000000E+03 0. -1.
         -6    1    1    2    0  503 -0.77277348341E+02 -0.21944911475E+03 -0.41319431891E+03  0.50476553737E+03  0.17300000000E+03 0.  1.
<mgrwt>
<rscale>  2 0.28992879E+03</rscale>
<asrwt>0</asrwt>
<pdfrwt beam="1">  1       21 0.32027023E-01 0.28992879E+03</pdfrwt>
<pdfrwt beam="2">  1       21 0.90521321E-01 0.28992879E+03</pdfrwt>
<totfact> 0.91770439E+03</totfact>
</mgrwt>
</event>
<event>
 4    1  0.3875622E-001  0.1894179E+03  0.7546771E-02  0.1158987E+00
         21   -1    0    0  503  502  0.00000000000E+00  0.00000000000E+00  0.93805270620E+02  0.93805270620E+02  0.00000000000E+00 0. -1.
         21   -1    0    0  501  503 -0.00000000000E+00 -0.00000000000E+00 -0.39465802750E+03  0.39465802750E+03  0.00000000000E+00 0. -1.
          6    1    1    2  501    0  0.33644929302E+02 -0.69412928692E+02 -0.10753345596E+03  0.21781317703E+03  0.17300000000E+03 0. -1.
         -6    1    1    2    0  502 -0.33644929302E+02  0.69412928692E+02 -0.19331930091E+03  0.27065012108E+03  0.17300000000E+03 0. -1.
<mgrwt>
<rscale>  2 0.18941789E+03</rscale>
<asrwt>0</asrwt>
<pdfrwt beam="1">  1       21 0.14431580E-01 0.18941789E+03</pdfrwt>
<pdfrwt beam="2">  1       21 0.60716619E-01 0.18941789E+03</pdfrwt>
<totfact> 0.10642764E+05</totfact>
</mgrwt>
</event>
<event>
 4    1  0.3875622E-001  0.6460260E+03  0.7546771E-02  0.9814265E-01
         21   -1    0    0  501  502  0.00000000000E+00  0.00000000000E+00  0.15750780810E+04  0.15750780810E+04  0.00000000000E+00 0. -1.
         21   -1    0    0  502  503 -0.00000000000E+00 -0.00000000000E+00 -0.41432754044E+03  0.41432754044E+03  0.00000000000E+00 0.  1.
          6    1    1    2  501    0 -0.53501318944E+03 -0.31809038948E+03  0.11775947175E+04  0.13431600528E+04  0.17300000000E+03 0.  1.
         -6    1    1    2    0  503  0.53501318944E+03  0.31809038948E+03 -0.16844176894E+02  0.64624556869E+03  0.17300000000E+03 0.  1.
<mgrwt>
<rscale>  2 0.64602601E+03</rscale>
<asrwt>0</asrwt>
<pdfrwt beam="1">  1       21 0.24231970E+00 0.64602601E+03</pdfrwt>
<pdfrwt beam="2">  1       21 0.63742699E-01 0.64602601E+03</pdfrwt>
<totfact> 0.12094304E+02</totfact>
</mgrwt>
</event>
<event>
 4    1  0.3875622E-001  0.2243670E+03  0.7546771E-02  0.1130669E+00
         21   -1    0    0  503  502  0.00000000000E+00  0.00000000000E+00  0.22693360841E+03  0.22693360841E+03  0.00000000000E+00 0. -1.
         21   -1    0    0  501  503 -0.00000000000E+00 -0.00000000000E+00 -0.27094873147E+03  0.27094873147E+03  0.00000000000E+00 0. -1.
          6    1    1    2  501    0 -0.48072151317E+02  0.13453854241E+03 -0.12800107607E+03  0.25831149142E+03  0.17300000000E+03 0. -1.
         -6    1    1    2    0  502  0.48072151317E+02 -0.13453854241E+03  0.83985953019E+02  0.23957084846E+03  0.17300000000E+03 0. -1.
<mgrwt>
<rscale>  2 0.22436700E+03</rscale>
<asrwt>0</asrwt>
<pdfrwt beam="1">  1       21 0.34912863E-01 0.22436700E+03</pdfrwt>
<pdfrwt beam="2">  1       21 0.41684420E-01 0.22436700E+03</pdfrwt>
<totfact> 0.43146627E+04</totfact>
</mgrwt>
</event>
<event>
 4    1  0.3875622E-001  0.2125460E+03  0.7546771E-02  0.1139566E+00
         21   -1    0    0  503  502  0.00000000000E+00  0.00000000000E+00  0.53196017310E+03  0.53196017310E+03  0.00000000000E+00 0.  1.
         21   -1    0    0  501  503 -0.00000000000E+00 -0.00000000000E+00 -0.95258154222E+02  0.95258154222E+02  0.00000000000E+00 0. -1.
          6    1    1    2  501    0  0.12184813153E+03 -0.19996277724E+02  0.11505354847E+03  0.24168809920E+03  0.17300000000E+03 0. -1.
         -6    1    1    2    0  502 -0.12184813153E+03  0.19996277724E+02  0.32164847041E+03  0.38553022813E+03  0.17300000000E+03 0.  1.
<mgrwt>
<rscale>  2 0.21254604E+03</rscale>
<asrwt>0</asrwt>
<pdfrwt beam="1">  1       21 0.81840025E-01 0.21254604E+03</pdfrwt>
<pdfrwt beam="2">  1       21 0.14655101E-01 0.21254604E+03</pdfrwt>
<totfact> 0.52943913E+04</totfact>
</mgrwt>
</event>
<event>
 4    1  0.3875622E-001  0.1793963E+03  0.7546771E-02  0.1168389E+00
         21   -1    0    0  503  502  0.00000000000E+00  0.00000000000E+00  0.15493244058E+03  0.15493244058E+03  0.00000000000E+00 0. -1.
         21   -1    0    0  501  503 -0.00000000000E+00 -0.00000000000E+00 -0.21666891988E+03  0.21666891988E+03  0.00000000000E+00 0. -1.
          6    1    1    2  501    0 -0.47097692288E+02 -0.59874034589E+01  0.68854919906E+01  0.17952841452E+03  0.17300000000E+03 0.  1.
         -6    1    1    2    0  502  0.47097692288E+02  0.59874034589E+01 -0.68621971288E+02  0.19207294594E+03  0.17300000000E+03 0.  1.
<mgrwt>
<rscale>  2 0.17939633E+03</rscale>
<asrwt>0</asrwt>
<pdfrwt beam="1">  1       21 0.23835760E-01 0.17939633E+03</pdfrwt>
<pdfrwt beam="2">  1       21 0.33333680E-01 0.17939633E+03</pdfrwt>
<totfact> 0.14438004E+05</totfact>
</mgrwt>
</event>
<event>
 4    1  0.3875622E-001  0.1732311E+03  0.7546771E-02  0.1174520E+00
         21   -1    0    0  503  502  0.00000000000E+00  0.00000000000E+00  0.26282481778E+02  0.26282481778E+02  0.00000000000E+00 0. -1.
         21   -1    0    0  501  503 -0.00000000000E+00 -0.00000000000E+00 -0.14183362540E+04  0.14183362540E+04  0.00000000000E+00 0. -1.
          6    1    1    2  501    0  0.57681721798E+01 -0.68377033968E+01 -0.37707953805E+03  0.41496747344E+03  0.17300000000E+03 0. -1.
         -6    1    1    2    0  502 -0.57681721798E+01  0.68377033968E+01 -0.10149742342E+04  0.10296512623E+04  0.17300000000E+03 0. -1.
<mgrwt>
<rscale>  2 0.17323113E+03</rscale>
<asrwt>0</asrwt>
<pdfrwt beam="1">  1       21 0.40434583E-02 0.17323113E+03</pdfrwt>
<pdfrwt beam="2">  1       21 0.21820560E+00 0.17323113E+03</pdfrwt>
<totfact> 0.40281442E+04</totfact>
</mgrwt>
</event>
<event>
 4    1  0.3875622E-001  0.1844461E+03  0.7546771E-02  0.1163568E+00
         21   -1    0    0  501  502  0.00000000000E+00  0.00000000000E+00  0.10509704745E+03  0.10509704745E+03  0.00000000000E+00 0. -1.
         21   -1    0    0  502  503 -0.00000000000E+00 -0.00000000000E+00 -0.32986755267E+03  0.32986755267E+03  0.00000000000E+00 0. -1.
          6    1    1    2  501    0  0.69795297186E+01 -0.63581907361E+02 -0.82657855067E+02  0.20212049323E+03  0.17300000000E+03 0. -1.
         -6    1    1    2    0  503 -0.69795297186E+01  0.63581907361E+02 -0.14211265016E+03  0.23284410689E+03  0.17300000000E+03 0. -1.
<mgrwt>
<rscale>  2 0.18444612E+03</rscale>
<asrwt>0</asrwt>
<pdfrwt beam="1">  1       21 0.16168777E-01 0.18444612E+03</pdfrwt>
<pdfrwt beam="2">  1       21 0.50748853E-01 0.18444612E+03</pdfrwt>
<totfact> 0.12671125E+05</totfact>
</mgrwt>
</event>
<event>
 4    1  0.3875622E-001  0.2504079E+03  0.7546771E-02  0.1113047E+00
         21   -1    0    0  501  502  0.00000000000E+00  0.00000000000E+00  0.15746378763E+03  0.15746378763E+03  0.00000000000E+00 0.  1.
         21   -1    0    0  502  503 -0.00000000000E+00 -0.00000000000E+00 -0.42381747470E+03  0.42381747470E+03  0.00000000000E+00 0. -1.
          6    1    1    2  501    0 -0.17932049107E+03  0.24884832897E+02 -0.61739276419E+02  0.25790663365E+03  0.17300000000E+03 0.  1.
         -6    1    1    2    0  503  0.17932049107E+03 -0.24884832897E+02 -0.20461441065E+03  0.32337462868E+03  0.17300000000E+03 0. -1.
<mgrwt>
<rscale>  2 0.25040785E+03</rscale>
<asrwt>0</asrwt>
<pdfrwt beam="1">  1       21 0.24225198E-01 0.25040785E+03</pdfrwt>
<pdfrwt beam="2">  1       21 0.65202689E-01 0.25040785E+03</pdfrwt>
<totfact> 0.33844963E+04</totfact>
</mgrwt>
</event>
<event>
 4    1  0.3875622E-001  0.2198079E+03  0.7546771E-02  0.1134026E+00
         21   -1    0    0  503  502  0.00000000000E+00  0.00000000000E+00  0.30994702496E+03  0.30994702496E+03  0.00000000000E+00 0.  1.
         21   -1    0    0  501  503 -0.00000000000E+00 -0.00000000000E+00 -0.15986733672E+03  0.15986733672E+03  0.00000000000E+00 0.  1.
          6    1    1    2  501    0  0.97355893204E+02 -0.94383939474E+02  0.37955560904E+02  0.22306080466E+03  0.17300000000E+03 0.  1.
         -6    1    1    2    0  502 -0.97355893204E+02  0.94383939474E+02  0.11212412734E+03  0.24675355702E+03  0.17300000000E+03 0.  1.
<mgrwt>
<rscale>  2 0.21980787E+03</rscale>
<asrwt>0</asrwt>
<pdfrwt beam="1">  1       21 0.47684157E-01 0.21980787E+03</pdfrwt>
<pdfrwt beam="2">  1       21 0.24594975E-01 0.21980787E+03</pdfrwt>
<totfact> 0.64920945E+04</totfact>
</mgrwt>
</event>
<event>
 4    1  0.3875622E-001  0.3920308E+03  0.7546771E-02  0.1046575E+00
         21   -1    0    0  503  502  0.00000000000E+00  0.00000000000E+00  0.30940322613E+03  0.30940322613E+03  0.00000000000E+00 0. -1.
         21   -1    0    0  501  503 -0.00000000000E+00 -0.00000000000E+00 -0.49691189007E+03  0.49691189007E+03  0.00000000000E+00 0.  1.
          6    1    1    2  501    0 -0.35152629193E+03 -0.13727305410E+02 -0.85925971582E+02  0.40133707208E+03  0.17300000000E+03 0. -1.
         -6    1    1    2    0  502  0.35152629193E+03  0.13727305410E+02 -0.10158269236E+03  0.40497804412E+03  0.17300000000E+03 0.  1.
<mgrwt>
<rscale>  2 0.39203083E+03</rscale>
<asrwt>0</asrwt>
<pdfrwt beam="1">  1       21 0.47600497E-01 0.39203083E+03</pdfrwt>
<pdfrwt beam="2">  1       21 0.76447982E-01 0.39203083E+03</pdfrwt>
<totfact> 0.57855536E+03</totfact>
</mgrwt>
</event>
<event>
 4    1  0.3875622E-001  0.2277845E+03  0.7546771E-02  0.1128209E+00
         21   -1    0    0  503  502  0.00000000000E+00  0.00000000000E+00  0.18682660570E+03  0.18682660570E+03  0.00000000000E+00 0.  1.
         21   -1    0    0  501  503 -0.00000000000E+00 -0.00000000000E+00 -0.27821154248E+03  0.27821154248E+03  0.00000000000E+00 0.  1.
          6    1    1    2  501    0  0.93833951512E+02  0.11468200113E+03 -0.35934215504E+02  0.23060147372E+03  0.17300000000E+03 0.  1.
         -6    1    1    2    0  502 -0.93833951512E+02 -0.11468200113E+03 -0.55450721279E+02  0.23443667446E+03  0.17300000000E+03 0.  1.
<mgrwt>
<rscale>  2 0.22778449E+03</rscale>
<asrwt>0</asrwt>
<pdfrwt beam="1">  1       21 0.28742555E-01 0.22778449E+03</pdfrwt>
<pdfrwt beam="2">  1       21 0.42801776E-01 0.22778449E+03</pdfrwt>
<totfact> 0.59859819E+04</totfact>
</mgrwt>
</event>
<event>
 4    1  0.3875622E-001  0.2206969E+03  0.7546771E-02  0.1133365E+00
         21   -1    0    0  503  502  0.00000000000E+00  0.00000000000E+00  0.43754673663E+02  0.43754673663E+02  0.00000000000E+00 0. -1.
         21   -1    0    0  501  503 -0.00000000000E+00 -0.00000000000E+00 -0.11593639259E+04  0.11593639259E+04  0.00000000000E+00 0. -1.
          6    1    1    2  501    0  0.82193958906E+02 -0.10964618521E+03 -0.43774936944E+03  0.49023631369E+03  0.17300000000E+03 0. -1.
         -6    1    1    2    0  502 -0.82193958906E+02  0.10964618521E+03 -0.67785988282E+03  0.71288228590E+03  0.17300000000E+03 0. -1.
<mgrwt>
<rscale>  2 0.22069693E+03</rscale>
<asrwt>0</asrwt>
<pdfrwt beam="1">  1       21 0.67314874E-02 0.22069693E+03</pdfrwt>
<pdfrwt beam="2">  1       21 0.17836370E+00 0.22069693E+03</pdfrwt>
<totfact> 0.29665887E+04</totfact>
</mgrwt>
</event>
<event>
 4    1  0.3875622E-001  0.2203839E+03  0.7546771E-02  0.1133597E+00
         21   -1    0    0  503  502  0.00000000000E+00  0.00000000000E+00  0.64188125688E+03  0.64188125688E+03  0.00000000000E+00 0.  1.
         21   -1    0    0  501  503 -0.00000000000E+00 -0.00000000000E+00 -0.90875403227E+02  0.90875403227E+02  0.00000000000E+00 0.  1.
          6    1    1    2  501    0 -0.78237409967E+02  0.11188828969E+03  0.12562016366E+03  0.25367204656E+03  0.17300000000E+03 0.  1.
         -6    1    1    2    0  502  0.78237409967E+02 -0.11188828969E+03  0.42538568999E+03  0.47908461354E+03  0.17300000000E+03 0.  1.
<mgrwt>
<rscale>  2 0.22038394E+03</rscale>
<asrwt>0</asrwt>
<pdfrwt beam="1">  1       21 0.98750960E-01 0.22038394E+03</pdfrwt>
<pdfrwt beam="2">  1       21 0.13980832E-01 0.22038394E+03</pdfrwt>
<totfact> 0.37147710E+04</totfact>
</mgrwt>
</event>
<event>
 4    1  0.3875622E-001  0.2036258E+03  0.7546771E-02  0.1146715E+00
         21   -1    0    0  501  502  0.00000000000E+00  0.00000000000E+00  0.67247363949E+02  0.67247363949E+02  0.00000000000E+00 0.  1.
         21   -1    0    0  502  503 -0.00000000000E+00 -0.00000000000E+00 -0.61668304126E+03  0.61668304126E+03  0.00000000000E+00 0. -1.
          6    1    1    2  501    0 -0.10397217242E+03  0.26912230783E+02 -0.27032986847E+03  0.33844012556E+03  0.17300000000E+03 0. -1.
         -6    1    1    2    0  503  0.10397217242E+03 -0.26912230783E+02 -0.27910580885E+03  0.34549027965E+03  0.17300000000E+03 0.  1.
<mgrwt>
<rscale>  2 0.20362584E+03</rscale>
<asrwt>0</asrwt>
<pdfrwt beam="1">  1       21 0.10345748E-01 0.20362584E+03</pdfrwt>
<pdfrwt beam="2">  1       21 0.94874315E-01 0.20362584E+03</pdfrwt>
<totfact> 0.70637990E+04</totfact>
</mgrwt>
</event>
<event>
 4    1  0.3875622E-001  0.2241318E+03  0.7546771E-02  0.1130840E+00
         21   -1    0    0  501  502  0.00000000000E+00  0.00000000000E+00  0.27821036031E+03  0.27821036031E+03  0.00000000000E+00 0.  1.
         21   -1    0    0  502  503 -0.00000000000E+00 -0.00000000000E+00 -0.22511583663E+03  0.22511583663E+03  0.00000000000E+00 0.  1.
          6    1    1    2  501    0 -0.10630718541E+03  0.94893758309E+02  0.13850255572E+03  0.26347296062E+03  0.17300000000E+03 0.  1.
         -6    1    1    2    0  503  0.10630718541E+03 -0.94893758309E+02 -0.85408032038E+02  0.23985323632E+03  0.17300000000E+03 0.  1.
<mgrwt>
<rscale>  2 0.22413175E+03</rscale>
<asrwt>0</asrwt>
<pdfrwt beam="1">  1       21 0.42801594E-01 0.22413175E+03</pdfrwt>
<pdfrwt beam="2">  1       21 0.34633206E-01 0.22413175E+03</pdfrwt>
<totfact> 0.41540971E+04</totfact>
</mgrwt>
</event>
<event>
 4    1  0.3875622E-001  0.2013804E+03  0.7546771E-02  0.1148580E+00
         21   -1    0    0  503  502  0.00000000000E+00  0.00000000000E+00  0.14748139438E+03  0.14748139438E+03  0.00000000000E+00 0. -1.
         21   -1    0    0  501  503 -0.00000000000E+00 -0.00000000000E+00 -0.30792962164E+03  0.30792962164E+03  0.00000000000E+00 0. -1.
          6    1    1    2  501    0  0.21576544180E+02  0.10079439716E+03 -0.15471271535E+03  0.25394897529E+03  0.17300000000E+03 0. -1.
         -6    1    1    2    0  502 -0.21576544180E+02 -0.10079439716E+03 -0.57355118989E+01  0.20146204073E+03  0.17300000000E+03 0. -1.
<mgrwt>
<rscale>  2 0.20138038E+03</rscale>
<asrwt>0</asrwt>
<pdfrwt beam="1">  1       21 0.22689446E-01 0.20138038E+03</pdfrwt>
<pdfrwt beam="2">  1       21 0.47373787E-01 0.20138038E+03</pdfrwt>
<totfact> 0.77324354E+04</totfact>
</mgrwt>
</event>
<event>
 4    1  0.3875622E-001  0.1744242E+03  0.7546771E-02  0.1173311E+00
         21   -1    0    0  503  502  0.00000000000E+00  0.00000000000E+00  0.36042984896E+03  0.36042984896E+03  0.00000000000E+00 0. -1.
         21   -1    0    0  501  503 -0.00000000000E+00 -0.00000000000E+00 -0.85534955386E+02  0.85534955386E+02  0.00000000000E+00 0. -1.
          6    1    1    2  501    0  0.18293508446E+02  0.12654670604E+02  0.11187249421E+03  0.20721787592E+03  0.17300000000E+03 0.  1.
         -6    1    1    2    0  502 -0.18293508446E+02 -0.12654670604E+02  0.16302239936E+03  0.23874692843E+03  0.17300000000E+03 0.  1.
<mgrwt>
<rscale>  2 0.17442418E+03</rscale>
<asrwt>0</asrwt>
<pdfrwt beam="1">  1       21 0.55450745E-01 0.17442418E+03</pdfrwt>
<pdfrwt beam="2">  1       21 0.13159224E-01 0.17442418E+03</pdfrwt>
<totfact> 0.15336992E+05</totfact>
</mgrwt>
</event>
<event>
 4    1  0.3875622E-001  0.1754565E+03  0.7546771E-02  0.1172274E+00
         21   -1    0    0  503  502  0.00000000000E+00  0.00000000000E+00  0.10050396680E+03  0.10050396680E+03  0.00000000000E+00 0.  1.
         21   -1    0    0  501  503 -0.00000000000E+00 -0.00000000000E+00 -0.31616790262E+03  0.31616790262E+03  0.00000000000E+00 0.  1.
          6    1    1    2  501    0  0.29256607045E+02 -0.17034857438E+00 -0.14462651454E+03  0.22738031309E+03  0.17300000000E+03 0.  1.
         -6    1    1    2    0  502 -0.29256607045E+02  0.17034857438E+00 -0.71037421286E+02  0.18929155633E+03  0.17300000000E+03 0.  1.
<mgrwt>
<rscale>  2 0.17545648E+03</rscale>
<asrwt>0</asrwt>
<pdfrwt beam="1">  1       21 0.15462149E-01 0.17545648E+03</pdfrwt>
<pdfrwt beam="2">  1       21 0.48641215E-01 0.17545648E+03</pdfrwt>
<totfact> 0.15062263E+05</totfact>
</mgrwt>
</event>
<event>
 4    1  0.3875622E-001  0.1930217E+03  0.7546771E-02  0.1155764E+00
         21   -1    0    0  503  502  0.00000000000E+00  0.00000000000E+00  0.24161783185E+03  0.24161783185E+03  0.00000000000E+00 0. -1.
         21   -1    0    0  501  503 -0.00000000000E+00 -0.00000000000E+00 -0.18380373294E+03  0.18380373294E+03  0.00000000000E+00 0.  1.
          6    1    1    2  501    0  0.85387199549E+02 -0.61155179763E+01 -0.56459652362E+02  0.20110958642E+03  0.17300000000E+03 0.  1.
         -6    1    1    2    0  502 -0.85387199549E+02  0.61155179763E+01  0.11427375127E+03  0.22431197836E+03  0.17300000000E+03 0. -1.
<mgrwt>
<rscale>  2 0.19302169E+03</rscale>
<asrwt>0</asrwt>
<pdfrwt beam="1">  1       21 0.37171974E-01 0.19302169E+03</pdfrwt>
<pdfrwt beam="2">  1       21 0.28277497E-01 0.19302169E+03</pdfrwt>
<totfact> 0.83425633E+04</totfact>
</mgrwt>
</event>
<event>
 4    1  0.3875622E-001  0.1999332E+03  0.7546771E-02  0.1149795E+00
         21   -1    0    0  503  502  0.00000000000E+00  0.00000000000E+00  0.43478028538E+03  0.43478028538E+03  0.00000000000E+00 0. -1.
         21   -1    0    0  501  503 -0.00000000000E+00 -0.00000000000E+00 -0.98807596368E+02  0.98807596368E+02  0.00000000000E+00 0. -1.
          6    1    1    2  501    0  0.72137151972E+02  0.69573672605E+02  0.97644330950E+02  0.22250321342E+03  0.17300000000E+03 0. -1.
         -6    1    1    2    0  502 -0.72137151972E+02 -0.69573672605E+02  0.23832835806E+03  0.31108466833E+03  0.17300000000E+03 0. -1.
<mgrwt>
<rscale>  2 0.19993315E+03</rscale>
<asrwt>0</asrwt>
<pdfrwt beam="1">  1       21 0.66889274E-01 0.19993315E+03</pdfrwt>
<pdfrwt beam="2">  1       21 0.15201169E-01 0.19993315E+03</pdfrwt>
<totfact> 0.78139802E+04</totfact>
</mgrwt>
</event>
<event>
 4    1  0.3875622E-001  0.1906682E+03  0.7546771E-02  0.1157860E+00
         21   -1    0    0  503  502  0.00000000000E+00  0.00000000000E+00  0.36982806268E+03  0.36982806268E+03  0.00000000000E+00 0.  1.
         21   -1    0    0  501  503 -0.00000000000E+00 -0.00000000000E+00 -0.13671948424E+03  0.13671948424E+03  0.00000000000E+00 0.  1.
          6    1    1    2  501    0  0.67758164139E+02 -0.42827545735E+02 -0.17705719326E+02  0.19148853746E+03  0.17300000000E+03 0.  1.
         -6    1    1    2    0  502 -0.67758164139E+02  0.42827545735E+02  0.25081429777E+03  0.31505900947E+03  0.17300000000E+03 0.  1.
<mgrwt>
<rscale>  2 0.19066821E+03</rscale>
<asrwt>0</asrwt>
<pdfrwt beam="1">  1       21 0.56896624E-01 0.19066821E+03</pdfrwt>
<pdfrwt beam="2">  1       21 0.21033767E-01 0.19066821E+03</pdfrwt>
<totfact> 0.61026579E+04</totfact>
</mgrwt>
</event>
<event>
 4    1  0.3875622E-001  0.2429512E+03  0.7546771E-02  0.1117842E+00
         21   -1    0    0  501  502  0.00000000000E+00  0.00000000000E+00  0.92476522104E+02  0.92476522104E+02  0.00000000000E+00 0. -1.
         21   -1    0    0  502  503 -0.00000000000E+00 -0.00000000000E+00 -0.77768801149E+03  0.77768801149E+03  0.00000000000E+00 0. -1.
          6    1    1    2  501    0  0.25473070175E+02  0.16866364026E+03 -0.52681985081E+03  0.58014175515E+03  0.17300000000E+03 0. -1.
         -6    1    1    2    0  503 -0.25473070175E+02 -0.16866364026E+03 -0.15839163858E+03  0.29002277845E+03  0.17300000000E+03 0. -1.
<mgrwt>
<rscale>  2 0.24295123E+03</rscale>
<asrwt>0</asrwt>
<pdfrwt beam="1">  1       21 0.14227157E-01 0.24295123E+03</pdfrwt>
<pdfrwt beam="2">  1       21 0.11964431E+00 0.24295123E+03</pdfrwt>
<totfact> 0.22318603E+04</totfact>
</mgrwt>
</event>
<event>
 4    1  0.3875622E-001  0.2819291E+03  0.7546771E-02  0.1094640E+00
         21   -1    0    0  503  502  0.00000000000E+00  0.00000000000E+00  0.19364475580E+03  0.19364475580E+03  0.00000000000E+00 0. -1.
         21   -1    0    0  501  503 -0.00000000000E+00 -0.00000000000E+00 -0.55177086661E+03  0.55177086661E+03  0.00000000000E+00 0.  1.
          6    1    1    2  501    0  0.85255332310E+02 -0.20563686869E+03 -0.36767638957E+03  0.46332485461E+03  0.17300000000E+03 0.  1.
         -6    1    1    2    0  502 -0.85255332310E+02  0.20563686869E+03  0.95502787574E+01  0.28209076780E+03  0.17300000000E+03 0. -1.
<mgrwt>
<rscale>  2 0.28192906E+03</rscale>
<asrwt>0</asrwt>
<pdfrwt beam="1">  1       21 0.29791501E-01 0.28192906E+03</pdfrwt>
<pdfrwt beam="2">  1       21 0.84887825E-01 0.28192906E+03</pdfrwt>
<totfact> 0.12340357E+04</totfact>
</mgrwt>
</event>
<event>
 4    1  0.3875622E-001  0.1821990E+03  0.7546771E-02  0.1165692E+00
         21   -1    0    0  503  502  0.00000000000E+00  0.00000000000E+00  0.62403270383E+03  0.62403270383E+03  0.00000000000E+00 0. -1.
         21   -1    0    0  501  503 -0.00000000000E+00 -0.00000000000E+00 -0.62724570681E+02  0.62724570681E+02  0.00000000000E+00 0.  1.
          6    1    1    2  501    0 -0.14940733563E+01 -0.57142368104E+02  0.14682443583E+03  0.23399550732E+03  0.17300000000E+03 0.  1.
         -6    1    1    2    0  502  0.14940733563E+01  0.57142368104E+02  0.41448369732E+03  0.45276176720E+03  0.17300000000E+03 0. -1.
<mgrwt>
<rscale>  2 0.18219902E+03</rscale>
<asrwt>0</asrwt>
<pdfrwt beam="1">  1       21 0.96005027E-01 0.18219902E+03</pdfrwt>
<pdfrwt beam="2">  1       21 0.96499344E-02 0.18219902E+03</pdfrwt>
<totfact> 0.78453707E+04</totfact>
</mgrwt>
</event>
<event>
 4    1  0.3875622E-001  0.1849412E+03  0.7546771E-02  0.1163105E+00
         21   -1    0    0  501  502  0.00000000000E+00  0.00000000000E+00  0.58407053768E+02  0.58407053768E+02  0.00000000000E+00 0. -1.
         21   -1    0    0  502  503 -0.00000000000E+00 -0.00000000000E+00 -0.11494093126E+04  0.11494093126E+04  0.00000000000E+00 0. -1.
          6    1    1    2  501    0  0.65165030851E+02  0.52693305570E+01 -0.12254124626E+03  0.22185491684E+03  0.17300000000E+03 0. -1.
         -6    1    1    2    0  503 -0.65165030851E+02 -0.52693305570E+01 -0.96846101261E+03  0.98596144957E+03  0.17300000000E+03 0. -1.
<mgrwt>
<rscale>  2 0.18494120E+03</rscale>
<asrwt>0</asrwt>
<pdfrwt beam="1">  1       21 0.89857006E-02 0.18494120E+03</pdfrwt>
<pdfrwt beam="2">  1       21 0.17683220E+00 0.18494120E+03</pdfrwt>
<totfact> 0.18841318E+04</totfact>
</mgrwt>
</event>
<event>
 4    1  0.3875622E-001  0.1775408E+03  0.7546771E-02  0.1170204E+00
         21   -1    0    0  503  502  0.00000000000E+00  0.00000000000E+00  0.38508200980E+02  0.38508200980E+02  0.00000000000E+00 0.  1.
         21   -1    0    0  501  503 -0.00000000000E+00 -0.00000000000E+00 -0.95233615207E+03  0.95233615207E+03  0.00000000000E+00 0.  1.
          6    1    1    2  501    0  0.26712495722E+02  0.29634370348E+02 -0.64260527746E+03  0.66668005516E+03  0.17300000000E+03 0.  1.
         -6    1    1    2    0  502 -0.26712495722E+02 -0.29634370348E+02 -0.27122267364E+03  0.32416429789E+03  0.17300000000E+03 0.  1.
<mgrwt>
<rscale>  2 0.17754085E+03</rscale>
<asrwt>0</asrwt>
<pdfrwt beam="1">  1       21 0.59243386E-02 0.17754085E+03</pdfrwt>
<pdfrwt beam="2">  1       21 0.14651326E+00 0.17754085E+03</pdfrwt>
<totfact> 0.64577109E+04</totfact>
</mgrwt>
</event>
<event>
 4    1  0.3875622E-001  0.3207656E+03  0.7546771E-02  0.1075298E+00
         21   -1    0    0  501  502  0.00000000000E+00  0.00000000000E+00  0.10026413212E+03  0.10026413212E+03  0.00000000000E+00 0. -1.
         21   -1    0    0  502  503 -0.00000000000E+00 -0.00000000000E+00 -0.11239087627E+04  0.11239087627E+04  0.00000000000E+00 0.  1.
          6    1    1    2  501    0 -0.16327871036E+03 -0.21517808243E+03 -0.33134390757E+03  0.46117169200E+03  0.17300000000E+03 0. -1.
         -6    1    1    2    0  503  0.16327871036E+03  0.21517808243E+03 -0.69230072300E+03  0.76300120281E+03  0.17300000000E+03 0.  1.
<mgrwt>
<rscale>  2 0.32076556E+03</rscale>
<asrwt>0</asrwt>
<pdfrwt beam="1">  1       21 0.15425251E-01 0.32076556E+03</pdfrwt>
<pdfrwt beam="2">  1       21 0.17290905E+00 0.32076556E+03</pdfrwt>
<totfact> 0.69821528E+03</totfact>
</mgrwt>
</event>
<event>
 4    1  0.3875622E-001  0.5845106E+03  0.7546771E-02  0.9938073E-01
         21   -1    0    0  503  502  0.00000000000E+00  0.00000000000E+00  0.71696004250E+03  0.71696004250E+03  0.00000000000E+00 0. -1.
         21   -1    0    0  501  503 -0.00000000000E+00 -0.00000000000E+00 -0.65158451375E+03  0.65158451375E+03  0.00000000000E+00 0.  1.
          6    1    1    2  501    0 -0.18177211265E+03 -0.52790393705E+03 -0.32198737414E+03  0.66732940651E+03  0.17300000000E+03 0.  1.
         -6    1    1    2    0  502  0.18177211265E+03  0.52790393705E+03  0.38736290289E+03  0.70121514974E+03  0.17300000000E+03 0. -1.
<mgrwt>
<rscale>  2 0.58451062E+03</rscale>
<asrwt>0</asrwt>
<pdfrwt beam="1">  1       21 0.11030154E+00 0.58451062E+03</pdfrwt>
<pdfrwt beam="2">  1       21 0.10024377E+00 0.58451062E+03</pdfrwt>
<totfact> 0.41865517E+02</totfact>
</mgrwt>
</event>
<event>
 4    1  0.3875622E-001  0.2571778E+03  0.7546771E-02  0.1108851E+00
         21   -1    0    0  501  502  0.00000000000E+00  0.00000000000E+00  0.16451129622E+03  0.16451129622E+03  0.00000000000E+00 0.  1.
         21   -1    0    0  502  503 -0.00000000000E+00 -0.00000000000E+00 -0.43045266777E+03  0.43045266777E+03  0.00000000000E+00 0. -1.
          6    1    1    2  501    0  0.13322430505E+03 -0.13587760160E+03 -0.20939635763E+03  0.33164329129E+03  0.17300000000E+03 0.  1.
         -6    1    1    2    0  503 -0.13322430505E+03  0.13587760160E+03 -0.56545013927E+02  0.26332067270E+03  0.17300000000E+03 0. -1.
<mgrwt>
<rscale>  2 0.25717783E+03</rscale>
<asrwt>0</asrwt>
<pdfrwt beam="1">  1       21 0.25309430E-01 0.25717783E+03</pdfrwt>
<pdfrwt beam="2">  1       21 0.66223488E-01 0.25717783E+03</pdfrwt>
<totfact> 0.29984942E+04</totfact>
</mgrwt>
</event>
<event>
 4    1  0.3875622E-001  0.3441204E+03  0.7546771E-02  0.1065054E+00
         21   -1    0    0  503  502  0.00000000000E+00  0.00000000000E+00  0.76730088659E+02  0.76730088659E+02  0.00000000000E+00 0.  1.
         21   -1    0    0  501  503 -0.00000000000E+00 -0.00000000000E+00 -0.15661439292E+04  0.15661439292E+04  0.00000000000E+00 0. -1.
          6    1    1    2  501    0 -0.20704749077E+03 -0.21359123102E+03 -0.84387657678E+03  0.91134326916E+03  0.17300000000E+03 0. -1.
         -6    1    1    2    0  502  0.20704749077E+03  0.21359123102E+03 -0.64553726380E+03  0.73153074874E+03  0.17300000000E+03 0. -1.
<mgrwt>
<rscale>  2 0.34412044E+03</rscale>
<asrwt>0</asrwt>
<pdfrwt beam="1">  1       21 0.11804631E-01 0.34412044E+03</pdfrwt>
<pdfrwt beam="2">  1       21 0.24094519E+00 0.34412044E+03</pdfrwt>
<totfact> 0.40448967E+03</totfact>
</mgrwt>
</event>
<event>
 4    1  0.3875622E-001  0.2235343E+03  0.7546771E-02  0.1131275E+00
         21   -1    0    0  501  502  0.00000000000E+00  0.00000000000E+00  0.11665355448E+03  0.11665355448E+03  0.00000000000E+00 0.  1.
         21   -1    0    0  502  503 -0.00000000000E+00 -0.00000000000E+00 -0.44516469158E+03  0.44516469158E+03  0.00000000000E+00 0.  1.
          6    1    1    2  501    0  0.12953771514E+02 -0.14096380974E+03 -0.21886347813E+03  0.31283992378E+03  0.17300000000E+03 0. -1.
         -6    1    1    2    0  503 -0.12953771514E+02  0.14096380974E+03 -0.10964765897E+03  0.24897832229E+03  0.17300000000E+03 0. -1.
<mgrwt>
<rscale>  2 0.22353433E+03</rscale>
<asrwt>0</asrwt>
<pdfrwt beam="1">  1       21 0.17946701E-01 0.22353433E+03</pdfrwt>
<pdfrwt beam="2">  1       21 0.68486875E-01 0.22353433E+03</pdfrwt>
<totfact> 0.54097792E+04</totfact>
</mgrwt>
</event>
<event>
 4    1  0.3875622E-001  0.2361361E+03  0.7546771E-02  0.1122394E+00
         21   -1    0    0  503  502  0.00000000000E+00  0.00000000000E+00  0.18611287885E+02  0.18611287885E+02  0.00000000000E+00 0. -1.
         21   -1    0    0  501  503 -0.00000000000E+00 -0.00000000000E+00 -0.33149317354E+04  0.33149317354E+04  0.00000000000E+00 0. -1.
          6    1    1    2  501    0 -0.80137066889E+02 -0.13931723590E+03 -0.21651209190E+04  0.21779597874E+04  0.17300000000E+03 0. -1.
         -6    1    1    2    0  502  0.80137066889E+02  0.13931723590E+03 -0.11311995285E+04  0.11555832359E+04  0.17300000000E+03 0. -1.
<mgrwt>
<rscale>  2 0.23613607E+03</rscale>
<asrwt>0</asrwt>
<pdfrwt beam="1">  1       21 0.28632761E-02 0.23613607E+03</pdfrwt>
<pdfrwt beam="2">  1       21 0.50998930E+00 0.23613607E+03</pdfrwt>
<totfact> 0.10324555E+03</totfact>
</mgrwt>
</event>
<event>
 4    1  0.3875622E-001  0.1774804E+03  0.7546771E-02  0.1170264E+00
         21   -1    0    0  501  502  0.00000000000E+00  0.00000000000E+00  0.94953414975E+03  0.94953414975E+03  0.00000000000E+00 0.  1.
         21   -1    0    0  502  503 -0.00000000000E+00 -0.00000000000E+00 -0.37597338148E+02  0.37597338148E+02  0.00000000000E+00 0.  1.
          6    1    1    2  501    0  0.38116750719E+01 -0.39443135363E+02  0.62527359877E+03  0.64997412496E+03  0.17300000000E+03 0.  1.
         -6    1    1    2    0  503 -0.38116750719E+01  0.39443135363E+02  0.28666321283E+03  0.33715736294E+03  0.17300000000E+03 0.  1.
<mgrwt>
<rscale>  2 0.17748039E+03</rscale>
<asrwt>0</asrwt>
<pdfrwt beam="1">  1       21 0.14608216E+00 0.17748039E+03</pdfrwt>
<pdfrwt beam="2">  1       21 0.57842066E-02 0.17748039E+03</pdfrwt>
<totfact> 0.67789830E+04</totfact>
</mgrwt>
</event>
<event>
 4    1  0.3875622E-001  0.2193896E+03  0.7546771E-02  0.1134339E+00
         21   -1    0    0  503  502  0.00000000000E+00  0.00000000000E+00  0.70176245535E+03  0.70176245535E+03  0.00000000000E+00 0. -1.
         21   -1    0    0  501  503 -0.00000000000E+00 -0.00000000000E+00 -0.75308673705E+02  0.75308673705E+02  0.00000000000E+00 0. -1.
          6    1    1    2  501    0 -0.11192671991E+03  0.75333912171E+02  0.19714976401E+03  0.29495731624E+03  0.17300000000E+03 0. -1.
         -6    1    1    2    0  502  0.11192671991E+03 -0.75333912171E+02  0.42930401763E+03  0.48211381281E+03  0.17300000000E+03 0. -1.
<mgrwt>
<rscale>  2 0.21938958E+03</rscale>
<asrwt>0</asrwt>
<pdfrwt beam="1">  1       21 0.10796345E+00 0.21938958E+03</pdfrwt>
<pdfrwt beam="2">  1       21 0.11585950E-01 0.21938958E+03</pdfrwt>
<totfact> 0.42096837E+04</totfact>
</mgrwt>
</event>
<event>
 4    1  0.3875622E-001  0.1756968E+03  0.7546771E-02  0.1172034E+00
         21   -1    0    0  503  502  0.00000000000E+00  0.00000000000E+00  0.10546156440E+04  0.10546156440E+04  0.00000000000E+00 0.  1.
         21   -1    0    0  501  503 -0.00000000000E+00 -0.00000000000E+00 -0.31346922372E+02  0.31346922372E+02  0.00000000000E+00 0.  1.
          6    1    1    2  501    0 -0.11802648556E+02  0.28302814687E+02  0.37189363978E+03  0.41130795171E+03  0.17300000000E+03 0.  1.
         -6    1    1    2    0  502  0.11802648556E+02 -0.28302814687E+02  0.65137508189E+03  0.67465461471E+03  0.17300000000E+03 0.  1.
<mgrwt>
<rscale>  2 0.17569676E+03</rscale>
<asrwt>0</asrwt>
<pdfrwt beam="1">  1       21 0.16224853E+00 0.17569676E+03</pdfrwt>
<pdfrwt beam="2">  1       21 0.48226042E-02 0.17569676E+03</pdfrwt>
<totfact> 0.69955933E+04</totfact>
</mgrwt>
</event>
<event>
 4    1  0.3875622E-001  0.2189369E+03  0.7546771E-02  0.1134678E+00
         21   -1    0    0  503  502  0.00000000000E+00  0.00000000000E+00  0.13854398850E+03  0.13854398850E+03  0.00000000000E+00 0.  1.
         21   -1    0    0  501  503 -0.00000000000E+00 -0.00000000000E+00 -0.38052620011E+03  0.38052620011E+03  0.00000000000E+00 0.  1.
          6    1    1    2  501    0 -0.67984253843E+01 -0.13400804617E+03 -0.19919120682E+03  0.29599072941E+03  0.17300000000E+03 0.  1.
         -6    1    1    2    0  502  0.67984253843E+01  0.13400804617E+03 -0.42791004794E+02  0.22307945920E+03  0.17300000000E+03 0.  1.
<mgrwt>
<rscale>  2 0.21893692E+03</rscale>
<asrwt>0</asrwt>
<pdfrwt beam="1">  1       21 0.21314460E-01 0.21893692E+03</pdfrwt>
<pdfrwt beam="2">  1       21 0.58542492E-01 0.21893692E+03</pdfrwt>
<totfact> 0.55280318E+04</totfact>
</mgrwt>
</event>
<event>
 4    1  0.3875622E-001  0.3020255E+03  0.7546771E-02  0.1084232E+00
         21   -1    0    0  503  502  0.00000000000E+00  0.00000000000E+00  0.41948762448E+03  0.41948762448E+03  0.00000000000E+00 0.  1.
         21   -1    0    0  501  503 -0.00000000000E+00 -0.00000000000E+00 -0.43404816513E+03  0.43404816513E+03  0.00000000000E+00 0.  1.
          6    1    1    2  501    0  0.52686529205E+02 -0.24189778213E+03 -0.30875145464E+03  0.43191071774E+03  0.17300000000E+03 0.  1.
         -6    1    1    2    0  502 -0.52686529205E+02  0.24189778213E+03  0.29419091399E+03  0.42162507187E+03  0.17300000000E+03 0.  1.
<mgrwt>
<rscale>  2 0.30202551E+03</rscale>
<asrwt>0</asrwt>
<pdfrwt beam="1">  1       21 0.64536558E-01 0.30202551E+03</pdfrwt>
<pdfrwt beam="2">  1       21 0.66776641E-01 0.30202551E+03</pdfrwt>
<totfact> 0.42381435E+03</totfact>
</mgrwt>
</event>
<event>
 4    1  0.3875622E-001  0.2073432E+03  0.7546771E-02  0.1143687E+00
         21   -1    0    0  501  502  0.00000000000E+00  0.00000000000E+00  0.14272336518E+04  0.14272336518E+04  0.00000000000E+00 0. -1.
         21   -1    0    0  502  503 -0.00000000000E+00 -0.00000000000E+00 -0.37582844893E+02  0.37582844893E+02  0.00000000000E+00 0.  1.
          6    1    1    2  501    0  0.70065932815E+02 -0.90293868407E+02  0.10211506402E+04  0.10419884105E+04  0.17300000000E+03 0. -1.
         -6    1    1    2    0  503 -0.70065932815E+02  0.90293868407E+02  0.36850016665E+03  0.42282808614E+03  0.17300000000E+03 0.  1.
<mgrwt>
<rscale>  2 0.20734324E+03</rscale>
<asrwt>0</asrwt>
<pdfrwt beam="1">  1       21 0.21957437E+00 0.20734324E+03</pdfrwt>
<pdfrwt beam="2">  1       21 0.57819772E-02 0.20734324E+03</pdfrwt>
<totfact> 0.21015603E+04</totfact>
</mgrwt>
</event>
<event>
 4    1  0.3875622E-001  0.1843714E+03  0.7546771E-02  0.1163638E+00
         21   -1    0    0  503  502  0.00000000000E+00  0.00000000000E+00  0.58301163950E+02  0.58301163950E+02  0.00000000000E+00 0. -1.
         21   -1    0    0  501  503 -0.00000000000E+00 -0.00000000000E+00 -0.72914006893E+03  0.72914006893E+03  0.00000000000E+00 0. -1.
          6    1    1    2  501    0  0.24288715701E+02 -0.58939594234E+02 -0.51165145029E+03  0.54385662087E+03  0.17300000000E+03 0. -1.
         -6    1    1    2    0  502 -0.24288715701E+02  0.58939594234E+02 -0.15918745470E+03  0.24358461202E+03  0.17300000000E+03 0. -1.
<mgrwt>
<rscale>  2 0.18437141E+03</rscale>
<asrwt>0</asrwt>
<pdfrwt beam="1">  1       21 0.89694091E-02 0.18437141E+03</pdfrwt>
<pdfrwt beam="2">  1       21 0.11217540E+00 0.18437141E+03</pdfrwt>
<totfact> 0.61448662E+04</totfact>
</mgrwt>
</event>
<event>
 4    1  0.3875622E-001  0.2330931E+03  0.7546771E-02  0.1124481E+00
         21   -1    0    0  501  502  0.00000000000E+00  0.00000000000E+00  0.71010318293E+03  0.71010318293E+03  0.00000000000E+00 0. -1.
         21   -1    0    0  502  503 -0.00000000000E+00 -0.00000000000E+00 -0.11232492783E+03  0.11232492783E+03  0.00000000000E+00 0. -1.
          6    1    1    2  501    0  0.13338205372E+02 -0.15564536279E+03  0.53107804721E+03  0.57997955042E+03  0.17300000000E+03 0. -1.
         -6    1    1    2    0  503 -0.13338205372E+02  0.15564536279E+03  0.66700207889E+02  0.24244856034E+03  0.17300000000E+03 0. -1.
<mgrwt>
<rscale>  2 0.23309309E+03</rscale>
<asrwt>0</asrwt>
<pdfrwt beam="1">  1       21 0.10924664E+00 0.23309309E+03</pdfrwt>
<pdfrwt beam="2">  1       21 0.17280758E-01 0.23309309E+03</pdfrwt>
<totfact> 0.19622648E+04</totfact>
</mgrwt>
</event>
<event>
 4    1  0.3875622E-001  0.2337264E+03  0.7546771E-02  0.1124044E+00
         21   -1    0    0  503  502  0.00000000000E+00  0.00000000000E+00  0.44219703161E+03  0.44219703161E+03  0.00000000000E+00 0. -1.
         21   -1    0    0  501  503 -0.00000000000E+00 -0.00000000000E+00 -0.13873147316E+03  0.13873147316E+03  0.00000000000E+00 0. -1.
          6    1    1    2  501    0 -0.13290568596E+03  0.83875673660E+02  0.55607739519E+02  0.24025043327E+03  0.17300000000E+03 0. -1.
         -6    1    1    2    0  502  0.13290568596E+03 -0.83875673660E+02  0.24785781893E+03  0.34067807149E+03  0.17300000000E+03 0. -1.
<mgrwt>
<rscale>  2 0.23372644E+03</rscale>
<asrwt>0</asrwt>
<pdfrwt beam="1">  1       21 0.68030312E-01 0.23372644E+03</pdfrwt>
<pdfrwt beam="2">  1       21 0.21343304E-01 0.23372644E+03</pdfrwt>
<totfact> 0.39511889E+04</totfact>
</mgrwt>
</event>
<event>
 4    1  0.3875622E-001  0.1828175E+03  0.7546771E-02  0.1165104E+00
         21   -1    0    0  503  502  0.00000000000E+00  0.00000000000E+00  0.12374752369E+03  0.12374752369E+03  0.00000000000E+00 0.  1.
         21   -1    0    0  501  503 -0.00000000000E+00 -0.00000000000E+00 -0.38242386684E+03  0.38242386684E+03  0.00000000000E+00 0.  1.
          6    1    1    2  501    0 -0.58728486589E+02 -0.66484221157E+01 -0.26650904172E+03  0.32318617850E+03  0.17300000000E+03 0.  1.
         -6    1    1    2    0  502  0.58728486589E+02  0.66484221157E+01  0.78326985739E+01  0.18298521203E+03  0.17300000000E+03 0.  1.
<mgrwt>
<rscale>  2 0.18281750E+03</rscale>
<asrwt>0</asrwt>
<pdfrwt beam="1">  1       21 0.19038081E-01 0.18281750E+03</pdfrwt>
<pdfrwt beam="2">  1       21 0.58834441E-01 0.18281750E+03</pdfrwt>
<totfact> 0.68673565E+04</totfact>
</mgrwt>
</event>
<event>
 4    1  0.3875622E-001  0.1747012E+03  0.7546771E-02  0.1173032E+00
         21   -1    0    0  503  502  0.00000000000E+00  0.00000000000E+00  0.49580246170E+02  0.49580246170E+02  0.00000000000E+00 0. -1.
         21   -1    0    0  501  503 -0.00000000000E+00 -0.00000000000E+00 -0.62014999359E+03  0.62014999359E+03  0.00000000000E+00 0. -1.
          6    1    1    2  501    0  0.24073505558E+02 -0.34626432811E+01 -0.25653339552E+03  0.31037059555E+03  0.17300000000E+03 0. -1.
         -6    1    1    2    0  502 -0.24073505558E+02  0.34626432811E+01 -0.31403635190E+03  0.35935964421E+03  0.17300000000E+03 0. -1.
<mgrwt>
<rscale>  2 0.17470124E+03</rscale>
<asrwt>0</asrwt>
<pdfrwt beam="1">  1       21 0.76277304E-02 0.17470124E+03</pdfrwt>
<pdfrwt beam="2">  1       21 0.95407688E-01 0.17470124E+03</pdfrwt>
<totfact> 0.12039261E+05</totfact>
</mgrwt>
</event>
<event>
 4    1  0.3875622E-001  0.2176136E+03  0.7546771E-02  0.1135675E+00
         21   -1    0    0  501  502  0.00000000000E+00  0.00000000000E+00  0.93229022382E+02  0.93229022382E+02  0.00000000000E+00 0. -1.
         21   -1    0    0  502  503 -0.00000000000E+00 -0.00000000000E+00 -0.52346390836E+03  0.52346390836E+03  0.00000000000E+00 0. -1.
          6    1    1    2  501    0 -0.12506791177E+03 -0.42245682154E+02 -0.16203431950E+03  0.27131310494E+03  0.17300000000E+03 0. -1.
         -6    1    1    2    0  503  0.12506791177E+03  0.42245682154E+02 -0.26820056647E+03  0.34537982580E+03  0.17300000000E+03 0. -1.
<mgrwt>
<rscale>  2 0.21761360E+03</rscale>
<asrwt>0</asrwt>
<pdfrwt beam="1">  1       21 0.14342926E-01 0.21761360E+03</pdfrwt>
<pdfrwt beam="2">  1       21 0.80532910E-01 0.21761360E+03</pdfrwt>
<totfact> 0.56980290E+04</totfact>
</mgrwt>
</event>
<event>
 4    1  0.3875622E-001  0.1789299E+03  0.7546771E-02  0.1168843E+00
         21   -1    0    0  503  502  0.00000000000E+00  0.00000000000E+00  0.63024010585E+02  0.63024010585E+02  0.00000000000E+00 0.  1.
         21   -1    0    0  501  503 -0.00000000000E+00 -0.00000000000E+00 -0.71163252234E+03  0.71163252234E+03  0.00000000000E+00 0.  1.
          6    1    1    2  501    0 -0.45430959290E+02  0.47907737080E+01 -0.53149936586E+03  0.56080968206E+03  0.17300000000E+03 0.  1.
         -6    1    1    2    0  502  0.45430959290E+02 -0.47907737080E+01 -0.11710914589E+03  0.21384685087E+03  0.17300000000E+03 0.  1.
<mgrwt>
<rscale>  2 0.17892994E+03</rscale>
<asrwt>0</asrwt>
<pdfrwt beam="1">  1       21 0.96960013E-02 0.17892994E+03</pdfrwt>
<pdfrwt beam="2">  1       21 0.10948193E+00 0.17892994E+03</pdfrwt>
<totfact> 0.56990730E+04</totfact>
</mgrwt>
</event>
<event>
 4    1  0.3875622E-001  0.1873476E+03  0.7546771E-02  0.1160876E+00
         21   -1    0    0  503  502  0.00000000000E+00  0.00000000000E+00  0.58793699860E+03  0.58793699860E+03  0.00000000000E+00 0. -1.
         21   -1    0    0  501  503 -0.00000000000E+00 -0.00000000000E+00 -0.61018456365E+02  0.61018456365E+02  0.00000000000E+00 0. -1.
          6    1    1    2  501    0  0.21786746235E+01  0.71870633323E+02  0.21574103765E+03  0.28573296955E+03  0.17300000000E+03 0. -1.
         -6    1    1    2    0  502 -0.21786746235E+01 -0.71870633323E+02  0.31117750458E+03  0.36322248542E+03  0.17300000000E+03 0. -1.
<mgrwt>
<rscale>  2 0.18734763E+03</rscale>
<asrwt>0</asrwt>
<pdfrwt beam="1">  1       21 0.90451842E-01 0.18734763E+03</pdfrwt>
<pdfrwt beam="2">  1       21 0.93874552E-02 0.18734763E+03</pdfrwt>
<totfact> 0.94404610E+04</totfact>
</mgrwt>
</event>
<event>
 4    1  0.3875622E-001  0.1986788E+03  0.7546771E-02  0.1150859E+00
         21   -1    0    0  501  502  0.00000000000E+00  0.00000000000E+00  0.27935508086E+03  0.27935508086E+03  0.00000000000E+00 0. -1.
         21   -1    0    0  502  503 -0.00000000000E+00 -0.00000000000E+00 -0.16632874726E+03  0.16632874726E+03  0.00000000000E+00 0. -1.
          6    1    1    2  501    0 -0.96629195284E+02 -0.14389160371E+02  0.14295442674E+03  0.24476359501E+03  0.17300000000E+03 0. -1.
         -6    1    1    2    0  503  0.96629195284E+02  0.14389160371E+02 -0.29928093136E+02  0.20092023312E+03  0.17300000000E+03 0. -1.
<mgrwt>
<rscale>  2 0.19867876E+03</rscale>
<asrwt>0</asrwt>
<pdfrwt beam="1">  1       21 0.42977704E-01 0.19867876E+03</pdfrwt>
<pdfrwt beam="2">  1       21 0.25589038E-01 0.19867876E+03</pdfrwt>
<totfact> 0.75227616E+04</totfact>
</mgrwt>
</event>
<event>
 4    1  0.3875622E-001  0.1831735E+03  0.7546771E-02  0.1164767E+00
         21   -1    0    0  503  502  0.00000000000E+00  0.00000000000E+00  0.10518063968E+03  0.10518063968E+03  0.00000000000E+00 0. -1.
         21   -1    0    0  501  503 -0.00000000000E+00 -0.00000000000E+00 -0.33611872224E+03  0.33611872224E+03  0.00000000000E+00 0. -1.
          6    1    1    2  501    0  0.55104358728E+02 -0.24229008209E+02 -0.65672022689E+02  0.19459020981E+03  0.17300000000E+03 0. -1.
         -6    1    1    2    0  502 -0.55104358728E+02  0.24229008209E+02 -0.16526605988E+03  0.24670915211E+03  0.17300000000E+03 0. -1.
<mgrwt>
<rscale>  2 0.18317351E+03</rscale>
<asrwt>0</asrwt>
<pdfrwt beam="1">  1       21 0.16181637E-01 0.18317351E+03</pdfrwt>
<pdfrwt beam="2">  1       21 0.51710572E-01 0.18317351E+03</pdfrwt>
<totfact> 0.12171265E+05</totfact>
</mgrwt>
</event>
<event>
 4    1  0.3875622E-001  0.1992052E+03  0.7546771E-02  0.1150411E+00
         21   -1    0    0  503  502  0.00000000000E+00  0.00000000000E+00  0.44755048062E+02  0.44755048062E+02  0.00000000000E+00 0. -1.
         21   -1    0    0  501  503 -0.00000000000E+00 -0.00000000000E+00 -0.88812221518E+03  0.88812221518E+03  0.00000000000E+00 0.  1.
          6    1    1    2  501    0  0.94490233744E+02 -0.28727957461E+02 -0.44058246425E+03  0.48352415412E+03  0.17300000000E+03 0.  1.
         -6    1    1    2    0  502 -0.94490233744E+02  0.28727957461E+02 -0.40278470287E+03  0.44935310913E+03  0.17300000000E+03 0. -1.
<mgrwt>
<rscale>  2 0.19920517E+03</rscale>
<asrwt>0</asrwt>
<pdfrwt beam="1">  1       21 0.68853918E-02 0.19920517E+03</pdfrwt>
<pdfrwt beam="2">  1       21 0.13663419E+00 0.19920517E+03</pdfrwt>
<totfact> 0.59088225E+04</totfact>
</mgrwt>
</event>
<event>
 4    1  0.3875622E-001  0.1887492E+03  0.7546771E-02  0.1159594E+00
         21   -1    0    0  503  502  0.00000000000E+00  0.00000000000E+00  0.28031242227E+02  0.28031242227E+02  0.00000000000E+00 0. -1.
         21   -1    0    0  501  503 -0.00000000000E+00 -0.00000000000E+00 -0.19411729070E+04  0.19411729070E+04  0.00000000000E+00 0. -1.
          6    1    1    2  501    0  0.25183591672E+02 -0.71155031281E+02 -0.15351181861E+04  0.15466784078E+04  0.17300000000E+03 0. -1.
         -6    1    1    2    0  502 -0.25183591672E+02  0.71155031281E+02 -0.37802347866E+03  0.42252574145E+03  0.17300000000E+03 0. -1.
<mgrwt>
<rscale>  2 0.18874918E+03</rscale>
<asrwt>0</asrwt>
<pdfrwt beam="1">  1       21 0.43124983E-02 0.18874918E+03</pdfrwt>
<pdfrwt beam="2">  1       21 0.29864202E+00 0.18874918E+03</pdfrwt>
<totfact> 0.12052566E+04</totfact>
</mgrwt>
</event>
<event>
 4    1  0.3875622E-001  0.2988221E+03  0.7546771E-02  0.1085831E+00
         21   -1    0    0  503  502  0.00000000000E+00  0.00000000000E+00  0.51090341483E+03  0.51090341483E+03  0.00000000000E+00 0.  1.
         21   -1    0    0  501  503 -0.00000000000E+00 -0.00000000000E+00 -0.30647473895E+03  0.30647473895E+03  0.00000000000E+00 0.  1.
          6    1    1    2  501    0  0.23941067261E+03  0.45256692778E+02 -0.16569220716E+03  0.34168486346E+03  0.17300000000E+03 0.  1.
         -6    1    1    2    0  502 -0.23941067261E+03 -0.45256692778E+02  0.37012088304E+03  0.47569329033E+03  0.17300000000E+03 0.  1.
<mgrwt>
<rscale>  2 0.29882208E+03</rscale>
<asrwt>0</asrwt>
<pdfrwt beam="1">  1       21 0.78600526E-01 0.29882208E+03</pdfrwt>
<pdfrwt beam="2">  1       21 0.47149960E-01 0.29882208E+03</pdfrwt>
<totfact> 0.57666788E+03</totfact>
</mgrwt>
</event>
<event>
 4    1  0.3875622E-001  0.1909309E+03  0.7546771E-02  0.1157624E+00
         21   -1    0    0  503  502  0.00000000000E+00  0.00000000000E+00  0.37355787994E+03  0.37355787994E+03  0.00000000000E+00 0.  1.
         21   -1    0    0  501  503 -0.00000000000E+00 -0.00000000000E+00 -0.10210926041E+03  0.10210926041E+03  0.00000000000E+00 0.  1.
          6    1    1    2  501    0 -0.72931108256E+02  0.34736943546E+02  0.85675758490E+02  0.20927239997E+03  0.17300000000E+03 0.  1.
         -6    1    1    2    0  502  0.72931108256E+02 -0.34736943546E+02  0.18577286104E+03  0.26639474037E+03  0.17300000000E+03 0.  1.
<mgrwt>
<rscale>  2 0.19093088E+03</rscale>
<asrwt>0</asrwt>
<pdfrwt beam="1">  1       21 0.57470443E-01 0.19093088E+03</pdfrwt>
<pdfrwt beam="2">  1       21 0.15709117E-01 0.19093088E+03</pdfrwt>
<totfact> 0.10252481E+05</totfact>
</mgrwt>
</event>
<event>
 4    1  0.3875622E-001  0.1737692E+03  0.7546771E-02  0.1173973E+00
         21   -1    0    0  501  502  0.00000000000E+00  0.00000000000E+00  0.29632390177E+02  0.29632390177E+02  0.00000000000E+00 0.  1.
         21   -1    0    0  502  503 -0.00000000000E+00 -0.00000000000E+00 -0.10971640363E+04  0.10971640363E+04  0.00000000000E+00 0.  1.
          6    1    1    2  501    0  0.10775465755E+02 -0.12272807495E+02 -0.38339882656E+03  0.42093989199E+03  0.17300000000E+03 0. -1.
         -6    1    1    2    0  503 -0.10775465755E+02  0.12272807495E+02 -0.68413281960E+03  0.70585653451E+03  0.17300000000E+03 0. -1.
<mgrwt>
<rscale>  2 0.17376919E+03</rscale>
<asrwt>0</asrwt>
<pdfrwt beam="1">  1       21 0.45588299E-02 0.17376919E+03</pdfrwt>
<pdfrwt beam="2">  1       21 0.16879444E+00 0.17376919E+03</pdfrwt>
<totfact> 0.69159906E+04</totfact>
</mgrwt>
</event>
<event>
 4    1  0.3875622E-001  0.1758581E+03  0.7546771E-02  0.1171873E+00
         21   -1    0    0  501  502  0.00000000000E+00  0.00000000000E+00  0.17285486005E+03  0.17285486005E+03  0.00000000000E+00 0. -1.
         21   -1    0    0  502  503 -0.00000000000E+00 -0.00000000000E+00 -0.18702160736E+03  0.18702160736E+03  0.00000000000E+00 0. -1.
          6    1    1    2  501    0 -0.19448022453E+02 -0.24876605330E+02 -0.44549330683E+02  0.18141310298E+03  0.17300000000E+03 0. -1.
         -6    1    1    2    0  503  0.19448022453E+02  0.24876605330E+02  0.30382583370E+02  0.17846336443E+03  0.17300000000E+03 0. -1.
<mgrwt>
<rscale>  2 0.17585810E+03</rscale>
<asrwt>0</asrwt>
<pdfrwt beam="1">  1       21 0.26593056E-01 0.17585810E+03</pdfrwt>
<pdfrwt beam="2">  1       21 0.28772555E-01 0.17585810E+03</pdfrwt>
<totfact> 0.15636076E+05</totfact>
</mgrwt>
</event>
<event>
 4    1  0.3875622E-001  0.1781314E+03  0.7546771E-02  0.1169624E+00
         21   -1    0    0  501  502  0.00000000000E+00  0.00000000000E+00  0.26010871892E+02  0.26010871892E+02  0.00000000000E+00 0. -1.
         21   -1    0    0  502  503 -0.00000000000E+00 -0.00000000000E+00 -0.12273894382E+04  0.12273894382E+04  0.00000000000E+00 0. -1.
          6    1    1    2  501    0  0.39384811147E+02  0.15831319961E+02 -0.55175122978E+03  0.57979325074E+03  0.17300000000E+03 0.  1.
         -6    1    1    2    0  503 -0.39384811147E+02 -0.15831319961E+02 -0.64962733648E+03  0.67360705930E+03  0.17300000000E+03 0.  1.
<mgrwt>
<rscale>  2 0.17813140E+03</rscale>
<asrwt>0</asrwt>
<pdfrwt beam="1">  1       21 0.40016734E-02 0.17813140E+03</pdfrwt>
<pdfrwt beam="2">  1       21 0.18882911E+00 0.17813140E+03</pdfrwt>
<totfact> 0.62723900E+04</totfact>
</mgrwt>
</event>
<event>
 4    1  0.3875622E-001  0.2374627E+03  0.7546771E-02  0.1121495E+00
         21   -1    0    0  501  502  0.00000000000E+00  0.00000000000E+00  0.35375313480E+03  0.35375313480E+03  0.00000000000E+00 0. -1.
         21   -1    0    0  502  503 -0.00000000000E+00 -0.00000000000E+00 -0.16911493951E+03  0.16911493951E+03  0.00000000000E+00 0. -1.
          6    1    1    2  501    0  0.16167574746E+03 -0.17901840663E+02  0.15497671974E+03  0.28356005868E+03  0.17300000000E+03 0. -1.
         -6    1    1    2    0  503 -0.16167574746E+03  0.17901840663E+02  0.29661475544E+02  0.23930801563E+03  0.17300000000E+03 0. -1.
<mgrwt>
<rscale>  2 0.23746268E+03</rscale>
<asrwt>0</asrwt>
<pdfrwt beam="1">  1       21 0.54423559E-01 0.23746268E+03</pdfrwt>
<pdfrwt beam="2">  1       21 0.26017683E-01 0.23746268E+03</pdfrwt>
<totfact> 0.43820906E+04</totfact>
</mgrwt>
</event>
<event>
 4    1  0.3875622E-001  0.1864253E+03  0.7546771E-02  0.1161726E+00
         21   -1    0    0  503  502  0.00000000000E+00  0.00000000000E+00  0.18638551619E+03  0.18638551619E+03  0.00000000000E+00 0. -1.
         21   -1    0    0  501  503 -0.00000000000E+00 -0.00000000000E+00 -0.24070983193E+03  0.24070983193E+03  0.00000000000E+00 0. -1.
          6    1    1    2  501    0 -0.67709924901E+02  0.15516862419E+02 -0.12853612314E+03  0.22644191728E+03  0.17300000000E+03 0. -1.
         -6    1    1    2    0  502  0.67709924901E+02 -0.15516862419E+02  0.74211807397E+02  0.20065343084E+03  0.17300000000E+03 0. -1.
<mgrwt>
<rscale>  2 0.18642534E+03</rscale>
<asrwt>0</asrwt>
<pdfrwt beam="1">  1       21 0.28674695E-01 0.18642534E+03</pdfrwt>
<pdfrwt beam="2">  1       21 0.37032282E-01 0.18642534E+03</pdfrwt>
<totfact> 0.82025349E+04</totfact>
</mgrwt>
</event>
<event>
 4    1  0.3875622E-001  0.2165489E+03  0.7546771E-02  0.1136482E+00
         21   -1    0    0  501  502  0.00000000000E+00  0.00000000000E+00  0.12746970936E+03  0.12746970936E+03  0.00000000000E+00 0.  1.
         21   -1    0    0  502  503 -0.00000000000E+00 -0.00000000000E+00 -0.41929272845E+03  0.41929272845E+03  0.00000000000E+00 0.  1.
          6    1    1    2  501    0  0.13010755533E+03 -0.60386759035E+01 -0.50181268905E+02  0.22228720456E+03  0.17300000000E+03 0.  1.
         -6    1    1    2    0  503 -0.13010755533E+03  0.60386759035E+01 -0.24164175018E+03  0.32447523325E+03  0.17300000000E+03 0.  1.
<mgrwt>
<rscale>  2 0.21654894E+03</rscale>
<asrwt>0</asrwt>
<pdfrwt beam="1">  1       21 0.19610724E-01 0.21654894E+03</pdfrwt>
<pdfrwt beam="2">  1       21 0.64506574E-01 0.21654894E+03</pdfrwt>
<totfact> 0.52460764E+04</totfact>
</mgrwt>
</event>
<event>
 4    1  0.3875622E-001  0.2561518E+03  0.7546771E-02  0.1109478E+00
         21   -1    0    0  503  502  0.00000000000E+00  0.00000000000E+00  0.76755565660E+03  0.76755565660E+03  0.00000000000E+00 0. -1.
         21   -1    0    0  501  503 -0.00000000000E+00 -0.00000000000E+00 -0.10737840024E+03  0.10737840024E+03  0.00000000000E+00 0.  1.
          6    1    1    2  501    0 -0.18452214900E+03 -0.40451458725E+02  0.52762777699E+03  0.58651923672E+03  0.17300000000E+03 0. -1.
         -6    1    1    2    0  502  0.18452214900E+03  0.40451458725E+02  0.13254947936E+03  0.28841482012E+03  0.17300000000E+03 0.  1.
<mgrwt>
<rscale>  2 0.25615180E+03</rscale>
<asrwt>0</asrwt>
<pdfrwt beam="1">  1       21 0.11808548E+00 0.25615180E+03</pdfrwt>
<pdfrwt beam="2">  1       21 0.16519754E-01 0.25615180E+03</pdfrwt>
<totfact> 0.17412428E+04</totfact>
</mgrwt>
</event>
<event>
 4    1  0.3875622E-001  0.1887685E+03  0.7546771E-02  0.1159577E+00
         21   -1    0    0  503  502  0.00000000000E+00  0.00000000000E+00  0.12596173402E+03  0.12596173402E+03  0.00000000000E+00 0.  1.
         21   -1    0    0  501  503 -0.00000000000E+00 -0.00000000000E+00 -0.28951403358E+03  0.28951403358E+03  0.00000000000E+00 0.  1.
          6    1    1    2  501    0  0.67288201996E+02 -0.34305283993E+02 -0.50358060845E+02  0.19537013316E+03  0.17300000000E+03 0.  1.
         -6    1    1    2    0  502 -0.67288201996E+02  0.34305283993E+02 -0.11319423871E+03  0.22010563445E+03  0.17300000000E+03 0.  1.
<mgrwt>
<rscale>  2 0.18876852E+03</rscale>
<asrwt>0</asrwt>
<pdfrwt beam="1">  1       21 0.19378729E-01 0.18876852E+03</pdfrwt>
<pdfrwt beam="2">  1       21 0.44540620E-01 0.18876852E+03</pdfrwt>
<totfact> 0.11864740E+05</totfact>
</mgrwt>
</event>
<event>
 4    1  0.3875622E-001  0.1732891E+03  0.7546771E-02  0.1174461E+00
         21   -1    0    0  501  502  0.00000000000E+00  0.00000000000E+00  0.13144080563E+04  0.13144080563E+04  0.00000000000E+00 0. -1.
         21   -1    0    0  502  503 -0.00000000000E+00 -0.00000000000E+00 -0.24453620218E+02  0.24453620218E+02  0.00000000000E+00 0. -1.
          6    1    1    2  501    0  0.14436281936E+01  0.99009043467E+01  0.47334022049E+03  0.50406356375E+03  0.17300000000E+03 0. -1.
         -6    1    1    2    0  503 -0.14436281936E+01 -0.99009043467E+01  0.81661421555E+03  0.83479811273E+03  0.17300000000E+03 0. -1.
<mgrwt>
<rscale>  2 0.17328910E+03</rscale>
<asrwt>0</asrwt>
<pdfrwt beam="1">  1       21 0.20221657E+00 0.17328910E+03</pdfrwt>
<pdfrwt beam="2">  1       21 0.37620964E-02 0.17328910E+03</pdfrwt>
<totfact> 0.57150729E+04</totfact>
</mgrwt>
</event>
<event>
 4    1  0.3875622E-001  0.1824518E+03  0.7546771E-02  0.1165451E+00
         21   -1    0    0  503  502  0.00000000000E+00  0.00000000000E+00  0.38880484700E+03  0.38880484700E+03  0.00000000000E+00 0. -1.
         21   -1    0    0  501  503 -0.00000000000E+00 -0.00000000000E+00 -0.10229797527E+03  0.10229797527E+03  0.00000000000E+00 0. -1.
          6    1    1    2  501    0 -0.57166091483E+02  0.95756836385E+01  0.44099975026E+02  0.18770578981E+03  0.17300000000E+03 0.  1.
         -6    1    1    2    0  502  0.57166091483E+02 -0.95756836385E+01  0.24240689670E+03  0.30339703245E+03  0.17300000000E+03 0.  1.
<mgrwt>
<rscale>  2 0.18245179E+03</rscale>
<asrwt>0</asrwt>
<pdfrwt beam="1">  1       21 0.59816130E-01 0.18245179E+03</pdfrwt>
<pdfrwt beam="2">  1       21 0.15738150E-01 0.18245179E+03</pdfrwt>
<totfact> 0.94107668E+04</totfact>
</mgrwt>
</event>
<event>
 4    1  0.3875622E-001  0.1827696E+03  0.7546771E-02  0.1165149E+00
         21   -1    0    0  503  502  0.00000000000E+00  0.00000000000E+00  0.22764818611E+03  0.22764818611E+03  0.00000000000E+00 0.  1.
         21   -1    0    0  501  503 -0.00000000000E+00 -0.00000000000E+00 -0.14686969864E+03  0.14686969864E+03  0.00000000000E+00 0.  1.
          6    1    1    2  501    0  0.53786461468E+02 -0.24140409352E+02  0.45987050039E+02  0.18846631416E+03  0.17300000000E+03 0.  1.
         -6    1    1    2    0  502 -0.53786461468E+02  0.24140409352E+02  0.34791437428E+02  0.18605157059E+03  0.17300000000E+03 0.  1.
<mgrwt>
<rscale>  2 0.18276964E+03</rscale>
<asrwt>0</asrwt>
<pdfrwt beam="1">  1       21 0.35022798E-01 0.18276964E+03</pdfrwt>
<pdfrwt beam="2">  1       21 0.22595338E-01 0.18276964E+03</pdfrwt>
<totfact> 0.14471585E+05</totfact>
</mgrwt>
</event>
<event>
 4    1  0.3875622E-001  0.2011943E+03  0.7546771E-02  0.1148735E+00
         21   -1    0    0  503  502  0.00000000000E+00  0.00000000000E+00  0.12369466564E+03  0.12369466564E+03  0.00000000000E+00 0.  1.
         21   -1    0    0  501  503 -0.00000000000E+00 -0.00000000000E+00 -0.63595113971E+03  0.63595113971E+03  0.00000000000E+00 0.  1.
          6    1    1    2  501    0  0.96797328071E+02  0.34357250865E+02 -0.52075759642E+03  0.55827199253E+03  0.17300000000E+03 0.  1.
         -6    1    1    2    0  502 -0.96797328071E+02 -0.34357250865E+02  0.85011223463E+01  0.20137381282E+03  0.17300000000E+03 0.  1.
<mgrwt>
<rscale>  2 0.20119429E+03</rscale>
<asrwt>0</asrwt>
<pdfrwt beam="1">  1       21 0.19029948E-01 0.20119429E+03</pdfrwt>
<pdfrwt beam="2">  1       21 0.97838639E-01 0.20119429E+03</pdfrwt>
<totfact> 0.21777585E+04</totfact>
</mgrwt>
</event>
<event>
 4    1  0.3875622E-001  0.2125178E+03  0.7546771E-02  0.1139588E+00
         21   -1    0    0  503  502  0.00000000000E+00  0.00000000000E+00  0.26117713387E+03  0.26117713387E+03  0.00000000000E+00 0. -1.
         21   -1    0    0  501  503 -0.00000000000E+00 -0.00000000000E+00 -0.19202775639E+03  0.19202775639E+03  0.00000000000E+00 0. -1.
          6    1    1    2  501    0 -0.83730794366E+02 -0.90686070859E+02 -0.36898199909E+02  0.21569721030E+03  0.17300000000E+03 0. -1.
         -6    1    1    2    0  502  0.83730794366E+02  0.90686070859E+02  0.10604757739E+03  0.23750767997E+03  0.17300000000E+03 0. -1.
<mgrwt>
<rscale>  2 0.21251779E+03</rscale>
<asrwt>0</asrwt>
<pdfrwt beam="1">  1       21 0.40181098E-01 0.21251779E+03</pdfrwt>
<pdfrwt beam="2">  1       21 0.29542732E-01 0.21251779E+03</pdfrwt>
<totfact> 0.64953603E+04</totfact>
</mgrwt>
</event>
<event>
 4    1  0.3875622E-001  0.2106050E+03  0.7546771E-02  0.1141088E+00
         21   -1    0    0  503  502  0.00000000000E+00  0.00000000000E+00  0.57733302016E+03  0.57733302016E+03  0.00000000000E+00 0.  1.
         21   -1    0    0  501  503 -0.00000000000E+00 -0.00000000000E+00 -0.90079125453E+02  0.90079125453E+02  0.00000000000E+00 0. -1.
          6    1    1    2  501    0 -0.46661289401E+02 -0.11067151603E+03  0.11562887950E+03  0.24025923117E+03  0.17300000000E+03 0. -1.
         -6    1    1    2    0  502  0.46661289401E+02  0.11067151603E+03  0.37162501521E+03  0.42715291445E+03  0.17300000000E+03 0.  1.
<mgrwt>
<rscale>  2 0.21060499E+03</rscale>
<asrwt>0</asrwt>
<pdfrwt beam="1">  1       21 0.88820462E-01 0.21060499E+03</pdfrwt>
<pdfrwt beam="2">  1       21 0.13858327E-01 0.21060499E+03</pdfrwt>
<totfact> 0.48613786E+04</totfact>
</mgrwt>
</event>
<event>
 4    1  0.3875622E-001  0.2076442E+03  0.7546771E-02  0.1143445E+00
         21   -1    0    0  503  502  0.00000000000E+00  0.00000000000E+00  0.59862705901E+03  0.59862705901E+03  0.00000000000E+00 0.  1.
         21   -1    0    0  501  503 -0.00000000000E+00 -0.00000000000E+00 -0.75643248000E+02  0.75643248000E+02  0.00000000000E+00 0. -1.
          6    1    1    2  501    0 -0.11317253095E+03 -0.19470133852E+02  0.18775774717E+03  0.27994477937E+03  0.17300000000E+03 0. -1.
         -6    1    1    2    0  502  0.11317253095E+03  0.19470133852E+02  0.33522606383E+03  0.39432552764E+03  0.17300000000E+03 0.  1.
<mgrwt>
<rscale>  2 0.20764419E+03</rscale>
<asrwt>0</asrwt>
<pdfrwt beam="1">  1       21 0.92096467E-01 0.20764419E+03</pdfrwt>
<pdfrwt beam="2">  1       21 0.11637423E-01 0.20764419E+03</pdfrwt>
<totfact> 0.61293601E+04</totfact>
</mgrwt>
</event>
<event>
 4    1  0.3875622E-001  0.1933226E+03  0.7546771E-02  0.1155498E+00
         21   -1    0    0  503  502  0.00000000000E+00  0.00000000000E+00  0.63858894947E+02  0.63858894947E+02  0.00000000000E+00 0. -1.
         21   -1    0    0  501  503 -0.00000000000E+00 -0.00000000000E+00 -0.87678963632E+03  0.87678963632E+03  0.00000000000E+00 0. -1.
          6    1    1    2  501    0  0.83760346855E+02  0.20707797643E+02 -0.67766948027E+03  0.70470528101E+03  0.17300000000E+03 0. -1.
         -6    1    1    2    0  502 -0.83760346855E+02 -0.20707797643E+02 -0.13526126110E+03  0.23594325026E+03  0.17300000000E+03 0. -1.
<mgrwt>
<rscale>  2 0.19332255E+03</rscale>
<asrwt>0</asrwt>
<pdfrwt beam="1">  1       21 0.98244463E-02 0.19332255E+03</pdfrwt>
<pdfrwt beam="2">  1       21 0.13489070E+00 0.19332255E+03</pdfrwt>
<totfact> 0.32945768E+04</totfact>
</mgrwt>
</event>
<event>
 4    1  0.3875622E-001  0.2171573E+03  0.7546771E-02  0.1136020E+00
         21   -1    0    0  501  502  0.00000000000E+00  0.00000000000E+00  0.71312317768E+02  0.71312317768E+02  0.00000000000E+00 0. -1.
         21   -1    0    0  502  503 -0.00000000000E+00 -0.00000000000E+00 -0.66843339938E+03  0.66843339938E+03  0.00000000000E+00 0. -1.
          6    1    1    2  501    0 -0.24872460227E+02 -0.12887848497E+03 -0.26029349951E+03  0.33898378878E+03  0.17300000000E+03 0. -1.
         -6    1    1    2    0  503  0.24872460227E+02  0.12887848497E+03 -0.33682758210E+03  0.40076192837E+03  0.17300000000E+03 0. -1.
<mgrwt>
<rscale>  2 0.21715732E+03</rscale>
<asrwt>0</asrwt>
<pdfrwt beam="1">  1       21 0.10971126E-01 0.21715732E+03</pdfrwt>
<pdfrwt beam="2">  1       21 0.10283590E+00 0.21715732E+03</pdfrwt>
<totfact> 0.52237733E+04</totfact>
</mgrwt>
</event>
<event>
 4    1  0.3875622E-001  0.2339519E+03  0.7546771E-02  0.1123889E+00
         21   -1    0    0  501  502  0.00000000000E+00  0.00000000000E+00  0.25694895512E+03  0.25694895512E+03  0.00000000000E+00 0. -1.
         21   -1    0    0  502  503 -0.00000000000E+00 -0.00000000000E+00 -0.25588700338E+03  0.25588700338E+03  0.00000000000E+00 0. -1.
          6    1    1    2  501    0  0.61116075388E+02 -0.14515271545E+03  0.10549030090E+03  0.25663532309E+03  0.17300000000E+03 0. -1.
         -6    1    1    2    0  503 -0.61116075388E+02  0.14515271545E+03 -0.10442834916E+03  0.25620063541E+03  0.17300000000E+03 0. -1.
<mgrwt>
<rscale>  2 0.23395189E+03</rscale>
<asrwt>0</asrwt>
<pdfrwt beam="1">  1       21 0.39530608E-01 0.23395189E+03</pdfrwt>
<pdfrwt beam="2">  1       21 0.39367231E-01 0.23395189E+03</pdfrwt>
<totfact> 0.37601745E+04</totfact>
</mgrwt>
</event>
<event>
 4    1  0.3875622E-001  0.2175820E+03  0.7546771E-02  0.1135699E+00
         21   -1    0    0  501  502  0.00000000000E+00  0.00000000000E+00  0.87365225868E+02  0.87365225868E+02  0.00000000000E+00 0.  1.
         21   -1    0    0  502  503 -0.00000000000E+00 -0.00000000000E+00 -0.58212103302E+03  0.58212103302E+03  0.00000000000E+00 0. -1.
          6    1    1    2  501    0 -0.12944152586E+03  0.25648295917E+02 -0.15937231751E+03  0.26970628337E+03  0.17300000000E+03 0.  1.
         -6    1    1    2    0  503  0.12944152586E+03 -0.25648295917E+02 -0.33538348964E+03  0.39977997552E+03  0.17300000000E+03 0. -1.
<mgrwt>
<rscale>  2 0.21758204E+03</rscale>
<asrwt>0</asrwt>
<pdfrwt beam="1">  1       21 0.13440804E-01 0.21758204E+03</pdfrwt>
<pdfrwt beam="2">  1       21 0.89557083E-01 0.21758204E+03</pdfrwt>
<totfact> 0.50242300E+04</totfact>
</mgrwt>
</event>
<event>
 4    1  0.3875622E-001  0.2079673E+03  0.7546771E-02  0.1143186E+00
         21   -1    0    0  503  502  0.00000000000E+00  0.00000000000E+00  0.69488795942E+03  0.69488795942E+03  0.00000000000E+00 0. -1.
         21   -1    0    0  501  503 -0.00000000000E+00 -0.00000000000E+00 -0.64771165279E+02  0.64771165279E+02  0.00000000000E+00 0. -1.
          6    1    1    2  501    0 -0.14402765354E+02  0.11451615713E+03  0.39013223269E+03  0.44210128803E+03  0.17300000000E+03 0. -1.
         -6    1    1    2    0  502  0.14402765354E+02 -0.11451615713E+03  0.23998456145E+03  0.31755783667E+03  0.17300000000E+03 0. -1.
<mgrwt>
<rscale>  2 0.20796728E+03</rscale>
<asrwt>0</asrwt>
<pdfrwt beam="1">  1       21 0.10690583E+00 0.20796728E+03</pdfrwt>
<pdfrwt beam="2">  1       21 0.99647952E-02 0.20796728E+03</pdfrwt>
<totfact> 0.56693389E+04</totfact>
</mgrwt>
</event>
<event>
 4    1  0.3875622E-001  0.2157396E+03  0.7546771E-02  0.1137100E+00
         21   -1    0    0  503  502  0.00000000000E+00  0.00000000000E+00  0.76658758354E+03  0.76658758354E+03  0.00000000000E+00 0. -1.
         21   -1    0    0  501  503 -0.00000000000E+00 -0.00000000000E+00 -0.61027165424E+02  0.61027165424E+02  0.00000000000E+00 0.  1.
          6    1    1    2  501    0  0.51605635784E+01 -0.12879419871E+03  0.38236283050E+03  0.43902723285E+03  0.17300000000E+03 0. -1.
         -6    1    1    2    0  502 -0.51605635784E+01  0.12879419871E+03  0.32319758761E+03  0.38858751611E+03  0.17300000000E+03 0. -1.
<mgrwt>
<rscale>  2 0.21573960E+03</rscale>
<asrwt>0</asrwt>
<pdfrwt beam="1">  1       21 0.11793654E+00 0.21573960E+03</pdfrwt>
<pdfrwt beam="2">  1       21 0.93887952E-02 0.21573960E+03</pdfrwt>
<totfact> 0.49393339E+04</totfact>
</mgrwt>
</event>
<event>
 4    1  0.3875622E-001  0.1909792E+03  0.7546771E-02  0.1157581E+00
         21   -1    0    0  501  502  0.00000000000E+00  0.00000000000E+00  0.94785205006E+03  0.94785205006E+03  0.00000000000E+00 0. -1.
         21   -1    0    0  502  503 -0.00000000000E+00 -0.00000000000E+00 -0.62942888717E+02  0.62942888717E+02  0.00000000000E+00 0. -1.
          6    1    1    2  501    0  0.36651673048E+02  0.72115889951E+02  0.75753136800E+03  0.78123416478E+03  0.17300000000E+03 0. -1.
         -6    1    1    2    0  503 -0.36651673048E+02 -0.72115889951E+02  0.12737779335E+03  0.22956077400E+03  0.17300000000E+03 0. -1.
<mgrwt>
<rscale>  2 0.19097918E+03</rscale>
<asrwt>0</asrwt>
<pdfrwt beam="1">  1       21 0.14582338E+00 0.19097918E+03</pdfrwt>
<pdfrwt beam="2">  1       21 0.96835221E-02 0.19097918E+03</pdfrwt>
<totfact> 0.27673169E+04</totfact>
</mgrwt>
</event>
<event>
 4    1  0.3875622E-001  0.1755545E+03  0.7546771E-02  0.1172176E+00
         21   -1    0    0  501  502  0.00000000000E+00  0.00000000000E+00  0.12044721748E+04  0.12044721748E+04  0.00000000000E+00 0. -1.
         21   -1    0    0  502  503 -0.00000000000E+00 -0.00000000000E+00 -0.32775128732E+02  0.32775128732E+02  0.00000000000E+00 0. -1.
          6    1    1    2  501    0  0.15326492579E+02  0.25602524029E+02  0.87554830454E+03  0.89297492920E+03  0.17300000000E+03 0. -1.
         -6    1    1    2    0  503 -0.15326492579E+02 -0.25602524029E+02  0.29614874151E+03  0.34427237430E+03  0.17300000000E+03 0. -1.
<mgrwt>
<rscale>  2 0.17555452E+03</rscale>
<asrwt>0</asrwt>
<pdfrwt beam="1">  1       21 0.18530338E+00 0.17555452E+03</pdfrwt>
<pdfrwt beam="2">  1       21 0.50423284E-02 0.17555452E+03</pdfrwt>
<totfact> 0.44929969E+04</totfact>
</mgrwt>
</event>
<event>
 4    1  0.3875622E-001  0.2315954E+03  0.7546771E-02  0.1125522E+00
         21   -1    0    0  503  502  0.00000000000E+00  0.00000000000E+00  0.43038592120E+03  0.43038592120E+03  0.00000000000E+00 0.  1.
         21   -1    0    0  501  503 -0.00000000000E+00 -0.00000000000E+00 -0.13124739921E+03  0.13124739921E+03  0.00000000000E+00 0. -1.
          6    1    1    2  501    0  0.10793986782E+03 -0.10980168706E+03  0.86485557403E+02  0.24721686267E+03  0.17300000000E+03 0. -1.
         -6    1    1    2    0  502 -0.10793986782E+03  0.10980168706E+03  0.21265296459E+03  0.31441645773E+03  0.17300000000E+03 0.  1.
<mgrwt>
<rscale>  2 0.23159539E+03</rscale>
<asrwt>0</asrwt>
<pdfrwt beam="1">  1       21 0.66213218E-01 0.23159539E+03</pdfrwt>
<pdfrwt beam="2">  1       21 0.20191908E-01 0.23159539E+03</pdfrwt>
<totfact> 0.46595797E+04</totfact>
</mgrwt>
</event>
<event>
 4    1  0.3875622E-001  0.1783109E+03  0.7546771E-02  0.1169448E+00
         21   -1    0    0  501  502  0.00000000000E+00  0.00000000000E+00  0.26488564441E+02  0.26488564441E+02  0.00000000000E+00 0.  1.
         21   -1    0    0  502  503 -0.00000000000E+00 -0.00000000000E+00 -0.12009328885E+04  0.12009328885E+04  0.00000000000E+00 0.  1.
          6    1    1    2  501    0  0.42971277990E+02 -0.43870123996E+01 -0.57336775219E+03  0.60045429124E+03  0.17300000000E+03 0.  1.
         -6    1    1    2    0  503 -0.42971277990E+02  0.43870123996E+01 -0.60107657189E+03  0.62696716173E+03  0.17300000000E+03 0.  1.
<mgrwt>
<rscale>  2 0.17831090E+03</rscale>
<asrwt>0</asrwt>
<pdfrwt beam="1">  1       21 0.40751655E-02 0.17831090E+03</pdfrwt>
<pdfrwt beam="2">  1       21 0.18475883E+00 0.17831090E+03</pdfrwt>
<totfact> 0.64734174E+04</totfact>
</mgrwt>
</event>
<event>
 4    1  0.3875622E-001  0.1762701E+03  0.7546771E-02  0.1171462E+00
         21   -1    0    0  501  502  0.00000000000E+00  0.00000000000E+00  0.91369699479E+03  0.91369699479E+03  0.00000000000E+00 0. -1.
         21   -1    0    0  502  503 -0.00000000000E+00 -0.00000000000E+00 -0.45521748139E+02  0.45521748139E+02  0.00000000000E+00 0.  1.
          6    1    1    2  501    0  0.32145397490E+02  0.10431367800E+02  0.67531416962E+03  0.69794008891E+03  0.17300000000E+03 0. -1.
         -6    1    1    2    0  503 -0.32145397490E+02 -0.10431367800E+02  0.19286107703E+03  0.26127865402E+03  0.17300000000E+03 0.  1.
<mgrwt>
<rscale>  2 0.17627008E+03</rscale>
<asrwt>0</asrwt>
<pdfrwt beam="1">  1       21 0.14056876E+00 0.17627008E+03</pdfrwt>
<pdfrwt beam="2">  1       21 0.70033465E-02 0.17627008E+03</pdfrwt>
<totfact> 0.53995851E+04</totfact>
</mgrwt>
</event>
<event>
 4    1  0.3875622E-001  0.3354246E+03  0.7546771E-02  0.1068762E+00
         21   -1    0    0  503  502  0.00000000000E+00  0.00000000000E+00  0.58464438606E+03  0.58464438606E+03  0.00000000000E+00 0. -1.
         21   -1    0    0  501  503 -0.00000000000E+00 -0.00000000000E+00 -0.28256240013E+03  0.28256240013E+03  0.00000000000E+00 0.  1.
          6    1    1    2  501    0 -0.24532591743E+03  0.14965243644E+03 -0.93836578725E+02  0.34830297300E+03  0.17300000000E+03 0.  1.
         -6    1    1    2    0  502  0.24532591743E+03 -0.14965243644E+03  0.39591856466E+03  0.51890381319E+03  0.17300000000E+03 0. -1.
<mgrwt>
<rscale>  2 0.33542459E+03</rscale>
<asrwt>0</asrwt>
<pdfrwt beam="1">  1       21 0.89945290E-01 0.33542459E+03</pdfrwt>
<pdfrwt beam="2">  1       21 0.43471139E-01 0.33542459E+03</pdfrwt>
<totfact> 0.49117257E+03</totfact>
</mgrwt>
</event>
<event>
 4    1  0.3875622E-001  0.1816534E+03  0.7546771E-02  0.1166212E+00
         21   -1    0    0  501  502  0.00000000000E+00  0.00000000000E+00  0.73223485700E+03  0.73223485700E+03  0.00000000000E+00 0.  1.
         21   -1    0    0  502  503 -0.00000000000E+00 -0.00000000000E+00 -0.48532866667E+02  0.48532866667E+02  0.00000000000E+00 0.  1.
          6    1    1    2  501    0 -0.53384284565E+02 -0.14801480969E+02  0.44620810045E+03  0.48176719957E+03  0.17300000000E+03 0.  1.
         -6    1    1    2    0  503  0.53384284565E+02  0.14801480969E+02  0.23749388988E+03  0.29900052410E+03  0.17300000000E+03 0.  1.
<mgrwt>
<rscale>  2 0.18165342E+03</rscale>
<asrwt>0</asrwt>
<pdfrwt beam="1">  1       21 0.11265151E+00 0.18165342E+03</pdfrwt>
<pdfrwt beam="2">  1       21 0.74665954E-02 0.18165342E+03</pdfrwt>
<totfact> 0.83806171E+04</totfact>
</mgrwt>
</event>
<event>
 4    1  0.3875622E-001  0.2095892E+03  0.7546771E-02  0.1141892E+00
         21   -1    0    0  501  502  0.00000000000E+00  0.00000000000E+00  0.80483609615E+03  0.80483609615E+03  0.00000000000E+00 0.  1.
         21   -1    0    0  502  503 -0.00000000000E+00 -0.00000000000E+00 -0.56922103062E+02  0.56922103062E+02  0.00000000000E+00 0.  1.
          6    1    1    2  501    0  0.11825772344E+03 -0.37068322944E+01  0.28654816316E+03  0.35501757643E+03  0.17300000000E+03 0.  1.
         -6    1    1    2    0  503 -0.11825772344E+03  0.37068322944E+01  0.46136582992E+03  0.50674062278E+03  0.17300000000E+03 0.  1.
<mgrwt>
<rscale>  2 0.20958919E+03</rscale>
<asrwt>0</asrwt>
<pdfrwt beam="1">  1       21 0.12382093E+00 0.20958919E+03</pdfrwt>
<pdfrwt beam="2">  1       21 0.87572472E-02 0.20958919E+03</pdfrwt>
<totfact> 0.49607848E+04</totfact>
</mgrwt>
</event>
<event>
 4    1  0.3875622E-001  0.2546528E+03  0.7546771E-02  0.1110399E+00
         21   -1    0    0  501  502  0.00000000000E+00  0.00000000000E+00  0.75906263076E+02  0.75906263076E+02  0.00000000000E+00 0. -1.
         21   -1    0    0  502  503 -0.00000000000E+00 -0.00000000000E+00 -0.86267872268E+03  0.86267872268E+03  0.00000000000E+00 0.  1.
          6    1    1    2  501    0  0.13998326606E+03  0.12378915916E+03 -0.34718574835E+03  0.43056476233E+03  0.17300000000E+03 0. -1.
         -6    1    1    2    0  503 -0.13998326606E+03 -0.12378915916E+03 -0.43958671125E+03  0.50802022342E+03  0.17300000000E+03 0.  1.
<mgrwt>
<rscale>  2 0.25465284E+03</rscale>
<asrwt>0</asrwt>
<pdfrwt beam="1">  1       21 0.11677887E-01 0.25465284E+03</pdfrwt>
<pdfrwt beam="2">  1       21 0.13271980E+00 0.25465284E+03</pdfrwt>
<totfact> 0.24401012E+04</totfact>
</mgrwt>
</event>
<event>
 4    1  0.3875622E-001  0.2084788E+03  0.7546771E-02  0.1142776E+00
         21   -1    0    0  503  502  0.00000000000E+00  0.00000000000E+00  0.10505834960E+03  0.10505834960E+03  0.00000000000E+00 0.  1.
         21   -1    0    0  501  503 -0.00000000000E+00 -0.00000000000E+00 -0.42141990862E+03  0.42141990862E+03  0.00000000000E+00 0. -1.
          6    1    1    2  501    0 -0.55771793415E+02 -0.10209763944E+03 -0.12256933328E+03  0.24184015874E+03  0.17300000000E+03 0. -1.
         -6    1    1    2    0  502  0.55771793415E+02  0.10209763944E+03 -0.19379222574E+03  0.28463809948E+03  0.17300000000E+03 0. -1.
<mgrwt>
<rscale>  2 0.20847883E+03</rscale>
<asrwt>0</asrwt>
<pdfrwt beam="1">  1       21 0.16162823E-01 0.20847883E+03</pdfrwt>
<pdfrwt beam="2">  1       21 0.64833832E-01 0.20847883E+03</pdfrwt>
<totfact> 0.74491869E+04</totfact>
</mgrwt>
</event>
<event>
 4    1  0.3875622E-001  0.1808036E+03  0.7546771E-02  0.1167028E+00
         21   -1    0    0  503  502  0.00000000000E+00  0.00000000000E+00  0.28835200762E+02  0.28835200762E+02  0.00000000000E+00 0.  1.
         21   -1    0    0  501  503 -0.00000000000E+00 -0.00000000000E+00 -0.11357242816E+04  0.11357242816E+04  0.00000000000E+00 0.  1.
          6    1    1    2  501    0  0.96355577449E+01  0.51653672190E+02 -0.57813682727E+03  0.60574923596E+03  0.17300000000E+03 0.  1.
         -6    1    1    2    0  502 -0.96355577449E+01 -0.51653672190E+02 -0.52875225352E+03  0.55881024635E+03  0.17300000000E+03 0.  1.
<mgrwt>
<rscale>  2 0.18080361E+03</rscale>
<asrwt>0</asrwt>
<pdfrwt beam="1">  1       21 0.44361847E-02 0.18080361E+03</pdfrwt>
<pdfrwt beam="2">  1       21 0.17472681E+00 0.18080361E+03</pdfrwt>
<totfact> 0.65570289E+04</totfact>
</mgrwt>
</event>
<event>
 4    1  0.3875622E-001  0.2088703E+03  0.7546771E-02  0.1142464E+00
         21   -1    0    0  503  502  0.00000000000E+00  0.00000000000E+00  0.13948800382E+03  0.13948800382E+03  0.00000000000E+00 0.  1.
         21   -1    0    0  501  503 -0.00000000000E+00 -0.00000000000E+00 -0.39367665544E+03  0.39367665544E+03  0.00000000000E+00 0.  1.
          6    1    1    2  501    0 -0.70549175552E+02  0.93384336515E+02 -0.24795078370E+03  0.32420119003E+03  0.17300000000E+03 0.  1.
         -6    1    1    2    0  502  0.70549175552E+02 -0.93384336515E+02 -0.62378679278E+01  0.20896346923E+03  0.17300000000E+03 0.  1.
<mgrwt>
<rscale>  2 0.20887034E+03</rscale>
<asrwt>0</asrwt>
<pdfrwt beam="1">  1       21 0.21459693E-01 0.20887034E+03</pdfrwt>
<pdfrwt beam="2">  1       21 0.60565639E-01 0.20887034E+03</pdfrwt>
<totfact> 0.50966422E+04</totfact>
</mgrwt>
</event>
<event>
 4    1  0.3875622E-001  0.2110242E+03  0.7546771E-02  0.1140757E+00
         21   -1    0    0  503  502  0.00000000000E+00  0.00000000000E+00  0.30163416621E+03  0.30163416621E+03  0.00000000000E+00 0.  1.
         21   -1    0    0  501  503 -0.00000000000E+00 -0.00000000000E+00 -0.17341732163E+03  0.17341732163E+03  0.00000000000E+00 0.  1.
          6    1    1    2  501    0  0.66392035667E+02 -0.10096687524E+03 -0.27480037760E+02  0.21280593218E+03  0.17300000000E+03 0.  1.
         -6    1    1    2    0  502 -0.66392035667E+02  0.10096687524E+03  0.15569688233E+03  0.26224555566E+03  0.17300000000E+03 0.  1.
<mgrwt>
<rscale>  2 0.21102420E+03</rscale>
<asrwt>0</asrwt>
<pdfrwt beam="1">  1       21 0.46405256E-01 0.21102420E+03</pdfrwt>
<pdfrwt beam="2">  1       21 0.26679588E-01 0.21102420E+03</pdfrwt>
<totfact> 0.58979564E+04</totfact>
</mgrwt>
</event>
<event>
 4    1  0.3875622E-001  0.2187937E+03  0.7546771E-02  0.1134786E+00
         21   -1    0    0  501  502  0.00000000000E+00  0.00000000000E+00  0.21469501532E+03  0.21469501532E+03  0.00000000000E+00 0.  1.
         21   -1    0    0  502  503 -0.00000000000E+00 -0.00000000000E+00 -0.24154456366E+03  0.24154456366E+03  0.00000000000E+00 0.  1.
          6    1    1    2  501    0 -0.20221359333E+02  0.13241132850E+03  0.49833499699E+02  0.22439706099E+03  0.17300000000E+03 0.  1.
         -6    1    1    2    0  503  0.20221359333E+02 -0.13241132850E+03 -0.76683048040E+02  0.23184251798E+03  0.17300000000E+03 0.  1.
<mgrwt>
<rscale>  2 0.21879365E+03</rscale>
<asrwt>0</asrwt>
<pdfrwt beam="1">  1       21 0.33030002E-01 0.21879365E+03</pdfrwt>
<pdfrwt beam="2">  1       21 0.37160702E-01 0.21879365E+03</pdfrwt>
<totfact> 0.60910967E+04</totfact>
</mgrwt>
</event>
<event>
 4    1  0.3875622E-001  0.3007212E+03  0.7546771E-02  0.1084881E+00
         21   -1    0    0  501  502  0.00000000000E+00  0.00000000000E+00  0.13470923604E+03  0.13470923604E+03  0.00000000000E+00 0.  1.
         21   -1    0    0  502  503 -0.00000000000E+00 -0.00000000000E+00 -0.77687505245E+03  0.77687505245E+03  0.00000000000E+00 0.  1.
          6    1    1    2  501    0  0.17905149390E+03  0.16865578627E+03 -0.48908999218E+03  0.57414478327E+03  0.17300000000E+03 0.  1.
         -6    1    1    2    0  503 -0.17905149390E+03 -0.16865578627E+03 -0.15307582423E+03  0.33743950521E+03  0.17300000000E+03 0.  1.
<mgrwt>
<rscale>  2 0.30072115E+03</rscale>
<asrwt>0</asrwt>
<pdfrwt beam="1">  1       21 0.20724498E-01 0.30072115E+03</pdfrwt>
<pdfrwt beam="2">  1       21 0.11951924E+00 0.30072115E+03</pdfrwt>
<totfact> 0.10818630E+04</totfact>
</mgrwt>
</event>
<event>
 4    1  0.3875622E-001  0.2126542E+03  0.7546771E-02  0.1139481E+00
         21   -1    0    0  501  502  0.00000000000E+00  0.00000000000E+00  0.36499585601E+03  0.36499585601E+03  0.00000000000E+00 0. -1.
         21   -1    0    0  502  503 -0.00000000000E+00 -0.00000000000E+00 -0.12609261530E+03  0.12609261530E+03  0.00000000000E+00 0. -1.
          6    1    1    2  501    0  0.59245355365E+02  0.10854849420E+03  0.15185506478E+03  0.26130776572E+03  0.17300000000E+03 0. -1.
         -6    1    1    2    0  503 -0.59245355365E+02 -0.10854849420E+03  0.87048175932E+02  0.22978070558E+03  0.17300000000E+03 0. -1.
<mgrwt>
<rscale>  2 0.21265415E+03</rscale>
<asrwt>0</asrwt>
<pdfrwt beam="1">  1       21 0.56153208E-01 0.21265415E+03</pdfrwt>
<pdfrwt beam="2">  1       21 0.19398864E-01 0.21265415E+03</pdfrwt>
<totfact> 0.72300205E+04</totfact>
</mgrwt>
</event>
<event>
 4    1  0.3875622E-001  0.2260535E+03  0.7546771E-02  0.1129449E+00
         21   -1    0    0  503  502  0.00000000000E+00  0.00000000000E+00  0.14861892244E+03  0.14861892244E+03  0.00000000000E+00 0. -1.
         21   -1    0    0  501  503 -0.00000000000E+00 -0.00000000000E+00 -0.37637669737E+03  0.37637669737E+03  0.00000000000E+00 0.  1.
          6    1    1    2  501    0  0.10365990408E+03 -0.10210685961E+03 -0.19106575797E+03  0.29598363191E+03  0.17300000000E+03 0.  1.
         -6    1    1    2    0  502 -0.10365990408E+03  0.10210685961E+03 -0.36692016960E+02  0.22901198790E+03  0.17300000000E+03 0. -1.
<mgrwt>
<rscale>  2 0.22605350E+03</rscale>
<asrwt>0</asrwt>
<pdfrwt beam="1">  1       21 0.22864450E-01 0.22605350E+03</pdfrwt>
<pdfrwt beam="2">  1       21 0.57904106E-01 0.22605350E+03</pdfrwt>
<totfact> 0.49401206E+04</totfact>
</mgrwt>
</event>
<event>
 4    1  0.3875622E-001  0.1763752E+03  0.7546771E-02  0.1171358E+00
         21   -1    0    0  501  502  0.00000000000E+00  0.00000000000E+00  0.69800458590E+03  0.69800458590E+03  0.00000000000E+00 0. -1.
         21   -1    0    0  502  503 -0.00000000000E+00 -0.00000000000E+00 -0.51593393325E+02  0.51593393325E+02  0.00000000000E+00 0. -1.
          6    1    1    2  501    0 -0.18898542714E+01  0.34287437541E+02  0.18489437047E+03  0.25552715737E+03  0.17300000000E+03 0. -1.
         -6    1    1    2    0  503  0.18898542714E+01 -0.34287437541E+02  0.46151682210E+03  0.49407082185E+03  0.17300000000E+03 0. -1.
<mgrwt>
<rscale>  2 0.17637517E+03</rscale>
<asrwt>0</asrwt>
<pdfrwt beam="1">  1       21 0.10738531E+00 0.17637517E+03</pdfrwt>
<pdfrwt beam="2">  1       21 0.79374456E-02 0.17637517E+03</pdfrwt>
<totfact> 0.84814198E+04</totfact>
</mgrwt>
</event>
<event>
 4    1  0.3875622E-001  0.1845954E+03  0.7546771E-02  0.1163428E+00
         21   -1    0    0  503  502  0.00000000000E+00  0.00000000000E+00  0.87399693530E+03  0.87399693530E+03  0.00000000000E+00 0.  1.
         21   -1    0    0  501  503 -0.00000000000E+00 -0.00000000000E+00 -0.41245650709E+02  0.41245650709E+02  0.00000000000E+00 0.  1.
          6    1    1    2  501    0 -0.63643302594E+02 -0.97967641979E+01  0.30931260189E+03  0.36020790142E+03  0.17300000000E+03 0.  1.
         -6    1    1    2    0  502  0.63643302594E+02  0.97967641979E+01  0.52343868270E+03  0.55503468459E+03  0.17300000000E+03 0.  1.
<mgrwt>
<rscale>  2 0.18459536E+03</rscale>
<asrwt>0</asrwt>
<pdfrwt beam="1">  1       21 0.13446105E+00 0.18459536E+03</pdfrwt>
<pdfrwt beam="2">  1       21 0.63454854E-02 0.18459536E+03</pdfrwt>
<totfact> 0.71370523E+04</totfact>
</mgrwt>
</event>
<event>
 4    1  0.3875622E-001  0.2184207E+03  0.7546771E-02  0.1135066E+00
         21   -1    0    0  503  502  0.00000000000E+00  0.00000000000E+00  0.22899841573E+03  0.22899841573E+03  0.00000000000E+00 0. -1.
         21   -1    0    0  501  503 -0.00000000000E+00 -0.00000000000E+00 -0.28787416877E+03  0.28787416877E+03  0.00000000000E+00 0. -1.
          6    1    1    2  501    0 -0.82562644637E+02 -0.10469965516E+03 -0.16528546662E+03  0.27391037504E+03  0.17300000000E+03 0. -1.
         -6    1    1    2    0  502  0.82562644637E+02  0.10469965516E+03  0.10640971358E+03  0.24296220946E+03  0.17300000000E+03 0. -1.
<mgrwt>
<rscale>  2 0.21842071E+03</rscale>
<asrwt>0</asrwt>
<pdfrwt beam="1">  1       21 0.35230525E-01 0.21842071E+03</pdfrwt>
<pdfrwt beam="2">  1       21 0.44288334E-01 0.21842071E+03</pdfrwt>
<totfact> 0.37535430E+04</totfact>
</mgrwt>
</event>
<event>
 4    1  0.3875622E-001  0.4486271E+03  0.7546771E-02  0.1028132E+00
         21   -1    0    0  503  502  0.00000000000E+00  0.00000000000E+00  0.20247710133E+03  0.20247710133E+03  0.00000000000E+00 0. -1.
         21   -1    0    0  501  503 -0.00000000000E+00 -0.00000000000E+00 -0.10453500873E+04  0.10453500873E+04  0.00000000000E+00 0.  1.
          6    1    1    2  501    0 -0.40330074175E+03  0.93197722018E+02 -0.55969098407E+03  0.71730070496E+03  0.17300000000E+03 0.  1.
         -6    1    1    2    0  502  0.40330074175E+03 -0.93197722018E+02 -0.28318200191E+03  0.53052648368E+03  0.17300000000E+03 0. -1.
<mgrwt>
<rscale>  2 0.44862713E+03</rscale>
<asrwt>0</asrwt>
<pdfrwt beam="1">  1       21 0.31150323E-01 0.44862713E+03</pdfrwt>
<pdfrwt beam="2">  1       21 0.16082309E+00 0.44862713E+03</pdfrwt>
<totfact> 0.21024683E+03</totfact>
</mgrwt>
</event>
<event>
 4    1  0.3875622E-001  0.2420354E+03  0.7546771E-02  0.1118444E+00
         21   -1    0    0  501  502  0.00000000000E+00  0.00000000000E+00  0.33253538878E+03  0.33253538878E+03  0.00000000000E+00 0. -1.
         21   -1    0    0  502  503 -0.00000000000E+00 -0.00000000000E+00 -0.19903417391E+03  0.19903417391E+03  0.00000000000E+00 0. -1.
          6    1    1    2  501    0  0.16883027468E+03  0.12184066043E+02  0.15684360902E+03  0.28841121823E+03  0.17300000000E+03 0. -1.
         -6    1    1    2    0  503 -0.16883027468E+03 -0.12184066043E+02 -0.23342394149E+02  0.24315834445E+03  0.17300000000E+03 0. -1.
<mgrwt>
<rscale>  2 0.24203536E+03</rscale>
<asrwt>0</asrwt>
<pdfrwt beam="1">  1       21 0.51159290E-01 0.24203536E+03</pdfrwt>
<pdfrwt beam="2">  1       21 0.30620642E-01 0.24203536E+03</pdfrwt>
<totfact> 0.36304594E+04</totfact>
</mgrwt>
</event>
<event>
 4    1  0.3875622E-001  0.1754809E+03  0.7546771E-02  0.1172250E+00
         21   -1    0    0  501  502  0.00000000000E+00  0.00000000000E+00  0.10237906297E+03  0.10237906297E+03  0.00000000000E+00 0. -1.
         21   -1    0    0  502  503 -0.00000000000E+00 -0.00000000000E+00 -0.40941647772E+03  0.40941647772E+03  0.00000000000E+00 0. -1.
          6    1    1    2  501    0 -0.28976027311E+02  0.49933581363E+01 -0.21701446776E+02  0.17681769305E+03  0.17300000000E+03 0. -1.
         -6    1    1    2    0  503  0.28976027311E+02 -0.49933581363E+01 -0.28533596798E+03  0.33497784764E+03  0.17300000000E+03 0. -1.
<mgrwt>
<rscale>  2 0.17548089E+03</rscale>
<asrwt>0</asrwt>
<pdfrwt beam="1">  1       21 0.15750625E-01 0.17548089E+03</pdfrwt>
<pdfrwt beam="2">  1       21 0.62987150E-01 0.17548089E+03</pdfrwt>
<totfact> 0.84328882E+04</totfact>
</mgrwt>
</event>
<event>
 4    1  0.3875622E-001  0.2142729E+03  0.7546771E-02  0.1138226E+00
         21   -1    0    0  503  502  0.00000000000E+00  0.00000000000E+00  0.95818446077E+02  0.95818446077E+02  0.00000000000E+00 0.  1.
         21   -1    0    0  501  503 -0.00000000000E+00 -0.00000000000E+00 -0.50559142655E+03  0.50559142655E+03  0.00000000000E+00 0.  1.
          6    1    1    2  501    0  0.90743269919E+02 -0.88031416974E+02 -0.27363411911E+03  0.34754640345E+03  0.17300000000E+03 0.  1.
         -6    1    1    2    0  502 -0.90743269919E+02  0.88031416974E+02 -0.13613886137E+03  0.25386346918E+03  0.17300000000E+03 0.  1.
<mgrwt>
<rscale>  2 0.21427289E+03</rscale>
<asrwt>0</asrwt>
<pdfrwt beam="1">  1       21 0.14741299E-01 0.21427289E+03</pdfrwt>
<pdfrwt beam="2">  1       21 0.77783296E-01 0.21427289E+03</pdfrwt>
<totfact> 0.58728038E+04</totfact>
</mgrwt>
</event>
<event>
 4    1  0.3875622E-001  0.1807374E+03  0.7546771E-02  0.1167091E+00
         21   -1    0    0  503  502  0.00000000000E+00  0.00000000000E+00  0.64170586014E+03  0.64170586014E+03  0.00000000000E+00 0. -1.
         21   -1    0    0  501  503 -0.00000000000E+00 -0.00000000000E+00 -0.53283137350E+02  0.53283137350E+02  0.00000000000E+00 0. -1.
          6    1    1    2  501    0 -0.19535371258E+02 -0.48532384461E+02  0.22079827867E+03  0.28533822551E+03  0.17300000000E+03 0. -1.
         -6    1    1    2    0  502  0.19535371258E+02  0.48532384461E+02  0.36762444412E+03  0.40965077198E+03  0.17300000000E+03 0. -1.
<mgrwt>
<rscale>  2 0.18073744E+03</rscale>
<asrwt>0</asrwt>
<pdfrwt beam="1">  1       21 0.98723973E-01 0.18073744E+03</pdfrwt>
<pdfrwt beam="2">  1       21 0.81974062E-02 0.18073744E+03</pdfrwt>
<totfact> 0.97812795E+04</totfact>
</mgrwt>
</event>
<event>
 4    1  0.3875622E-001  0.1850882E+03  0.7546771E-02  0.1162968E+00
         21   -1    0    0  503  502  0.00000000000E+00  0.00000000000E+00  0.48255515580E+02  0.48255515580E+02  0.00000000000E+00 0.  1.
         21   -1    0    0  501  503 -0.00000000000E+00 -0.00000000000E+00 -0.82925474231E+03  0.82925474231E+03  0.00000000000E+00 0.  1.
          6    1    1    2  501    0  0.17476567670E+02 -0.63428679136E+02 -0.55694009127E+03  0.58689001782E+03  0.17300000000E+03 0.  1.
         -6    1    1    2    0  502 -0.17476567670E+02  0.63428679136E+02 -0.22405913546E+03  0.29062024007E+03  0.17300000000E+03 0.  1.
<mgrwt>
<rscale>  2 0.18508816E+03</rscale>
<asrwt>0</asrwt>
<pdfrwt beam="1">  1       21 0.74239264E-02 0.18508816E+03</pdfrwt>
<pdfrwt beam="2">  1       21 0.12757764E+00 0.18508816E+03</pdfrwt>
<totfact> 0.62159726E+04</totfact>
</mgrwt>
</event>
<event>
 4    1  0.3875622E-001  0.1871106E+03  0.7546771E-02  0.1161094E+00
         21   -1    0    0  503  502  0.00000000000E+00  0.00000000000E+00  0.26742117336E+03  0.26742117336E+03  0.00000000000E+00 0. -1.
         21   -1    0    0  501  503 -0.00000000000E+00 -0.00000000000E+00 -0.13254538154E+03  0.13254538154E+03  0.00000000000E+00 0. -1.
          6    1    1    2  501    0  0.55795541349E+02 -0.44364590462E+02  0.45281500286E+02  0.19251174922E+03  0.17300000000E+03 0. -1.
         -6    1    1    2    0  502 -0.55795541349E+02  0.44364590462E+02  0.89594291542E+02  0.20745480568E+03  0.17300000000E+03 0. -1.
<mgrwt>
<rscale>  2 0.18711055E+03</rscale>
<asrwt>0</asrwt>
<pdfrwt beam="1">  1       21 0.41141719E-01 0.18711055E+03</pdfrwt>
<pdfrwt beam="2">  1       21 0.20391597E-01 0.18711055E+03</pdfrwt>
<totfact> 0.12690689E+05</totfact>
</mgrwt>
</event>
<event>
 4    1  0.3875622E-001  0.3340305E+03  0.7546771E-02  0.1069367E+00
         21   -1    0    0  503  502  0.00000000000E+00  0.00000000000E+00  0.13927323173E+03  0.13927323173E+03  0.00000000000E+00 0. -1.
         21   -1    0    0  501  503 -0.00000000000E+00 -0.00000000000E+00 -0.87197930637E+03  0.87197930637E+03  0.00000000000E+00 0. -1.
          6    1    1    2  501    0 -0.16785780606E+03 -0.23123822412E+03 -0.51047681715E+03  0.61005158815E+03  0.17300000000E+03 0. -1.
         -6    1    1    2    0  502  0.16785780606E+03  0.23123822412E+03 -0.22222925749E+03  0.40120094994E+03  0.17300000000E+03 0. -1.
<mgrwt>
<rscale>  2 0.33403048E+03</rscale>
<asrwt>0</asrwt>
<pdfrwt beam="1">  1       21 0.21426652E-01 0.33403048E+03</pdfrwt>
<pdfrwt beam="2">  1       21 0.13415066E+00 0.33403048E+03</pdfrwt>
<totfact> 0.74486896E+03</totfact>
</mgrwt>
</event>
<event>
 4    1  0.3875622E-001  0.1934629E+03  0.7546771E-02  0.1155375E+00
         21   -1    0    0  501  502  0.00000000000E+00  0.00000000000E+00  0.85504746735E+03  0.85504746735E+03  0.00000000000E+00 0. -1.
         21   -1    0    0  502  503 -0.00000000000E+00 -0.00000000000E+00 -0.49232495339E+02  0.49232495339E+02  0.00000000000E+00 0. -1.
          6    1    1    2  501    0 -0.86578456605E+02 -0.17499004453E+01  0.55347384851E+03  0.58631151471E+03  0.17300000000E+03 0. -1.
         -6    1    1    2    0  503  0.86578456605E+02  0.17499004453E+01  0.25234112350E+03  0.31796844798E+03  0.17300000000E+03 0. -1.
<mgrwt>
<rscale>  2 0.19346289E+03</rscale>
<asrwt>0</asrwt>
<pdfrwt beam="1">  1       21 0.13154575E+00 0.19346289E+03</pdfrwt>
<pdfrwt beam="2">  1       21 0.75742307E-02 0.19346289E+03</pdfrwt>
<totfact> 0.55344157E+04</totfact>
</mgrwt>
</event>
<event>
 4    1  0.3875622E-001  0.1897140E+03  0.7546771E-02  0.1158720E+00
         21   -1    0    0  503  502  0.00000000000E+00  0.00000000000E+00  0.11239522797E+03  0.11239522797E+03  0.00000000000E+00 0.  1.
         21   -1    0    0  501  503 -0.00000000000E+00 -0.00000000000E+00 -0.39712664531E+03  0.39712664531E+03  0.00000000000E+00 0.  1.
          6    1    1    2  501    0 -0.48879143169E+02 -0.60607107019E+02 -0.25447598677E+03  0.31741049116E+03  0.17300000000E+03 0.  1.
         -6    1    1    2    0  502  0.48879143169E+02  0.60607107019E+02 -0.30255430570E+02  0.19211138211E+03  0.17300000000E+03 0.  1.
<mgrwt>
<rscale>  2 0.18971397E+03</rscale>
<asrwt>0</asrwt>
<pdfrwt beam="1">  1       21 0.17291574E-01 0.18971397E+03</pdfrwt>
<pdfrwt beam="2">  1       21 0.61096406E-01 0.18971397E+03</pdfrwt>
<totfact> 0.75448003E+04</totfact>
</mgrwt>
</event>
<event>
 4    1  0.3875622E-001  0.2415215E+03  0.7546771E-02  0.1118783E+00
         21   -1    0    0  501  502  0.00000000000E+00  0.00000000000E+00  0.67757532008E+02  0.67757532008E+02  0.00000000000E+00 0.  1.
         21   -1    0    0  502  503 -0.00000000000E+00 -0.00000000000E+00 -0.93344071918E+03  0.93344071918E+03  0.00000000000E+00 0.  1.
          6    1    1    2  501    0 -0.77367446483E+02 -0.14972615916E+03 -0.29329171539E+03  0.37993772493E+03  0.17300000000E+03 0.  1.
         -6    1    1    2    0  503  0.77367446483E+02  0.14972615916E+03 -0.57239147179E+03  0.62126052626E+03  0.17300000000E+03 0.  1.
<mgrwt>
<rscale>  2 0.24152152E+03</rscale>
<asrwt>0</asrwt>
<pdfrwt beam="1">  1       21 0.10424236E-01 0.24152152E+03</pdfrwt>
<pdfrwt beam="2">  1       21 0.14360627E+00 0.24152152E+03</pdfrwt>
<totfact> 0.24534327E+04</totfact>
</mgrwt>
</event>
<event>
 4    1  0.3875622E-001  0.2969006E+03  0.7546771E-02  0.1086800E+00
         21   -1    0    0  501  502  0.00000000000E+00  0.00000000000E+00  0.31645260004E+03  0.31645260004E+03  0.00000000000E+00 0. -1.
         21   -1    0    0  502  503 -0.00000000000E+00 -0.00000000000E+00 -0.28378697625E+03  0.28378697625E+03  0.00000000000E+00 0. -1.
          6    1    1    2  501    0  0.25584041335E+02 -0.23993002975E+03  0.57076899947E+02  0.30233712119E+03  0.17300000000E+03 0. -1.
         -6    1    1    2    0  503 -0.25584041335E+02  0.23993002975E+03 -0.24411276154E+02  0.29790245509E+03  0.17300000000E+03 0. -1.
<mgrwt>
<rscale>  2 0.29690059E+03</rscale>
<asrwt>0</asrwt>
<pdfrwt beam="1">  1       21 0.48685016E-01 0.29690059E+03</pdfrwt>
<pdfrwt beam="2">  1       21 0.43659535E-01 0.29690059E+03</pdfrwt>
<totfact> 0.19276639E+04</totfact>
</mgrwt>
</event>
<event>
 4    1  0.3875622E-001  0.1814439E+03  0.7546771E-02  0.1166413E+00
         21   -1    0    0  503  502  0.00000000000E+00  0.00000000000E+00  0.21032010864E+03  0.21032010864E+03  0.00000000000E+00 0.  1.
         21   -1    0    0  501  503 -0.00000000000E+00 -0.00000000000E+00 -0.15687539068E+03  0.15687539068E+03  0.00000000000E+00 0. -1.
          6    1    1    2  501    0  0.41768984879E+02 -0.35330534213E+02  0.35308166544E+02  0.18484740023E+03  0.17300000000E+03 0.  1.
         -6    1    1    2    0  502 -0.41768984879E+02  0.35330534213E+02  0.18136551415E+02  0.18234809909E+03  0.17300000000E+03 0. -1.
<mgrwt>
<rscale>  2 0.18144392E+03</rscale>
<asrwt>0</asrwt>
<pdfrwt beam="1">  1       21 0.32356940E-01 0.18144392E+03</pdfrwt>
<pdfrwt beam="2">  1       21 0.24134675E-01 0.18144392E+03</pdfrwt>
<totfact> 0.14939635E+05</totfact>
</mgrwt>
</event>
<event>
 4    1  0.3875622E-001  0.1052675E+04  0.7546771E-02  0.9252586E-01
         21   -1    0    0  501  502  0.00000000000E+00  0.00000000000E+00  0.74936873026E+03  0.74936873026E+03  0.00000000000E+00 0.  1.
         21   -1    0    0  502  503 -0.00000000000E+00 -0.00000000000E+00 -0.18404568938E+04  0.18404568938E+04  0.00000000000E+00 0. -1.
          6    1    1    2  501    0  0.27370465023E+03  0.10016395409E+04  0.28518584697E+02  0.10530614014E+04  0.17300000000E+03 0.  1.
         -6    1    1    2    0  503 -0.27370465023E+03 -0.10016395409E+04 -0.11196067483E+04  0.15367642227E+04  0.17300000000E+03 0. -1.
<mgrwt>
<rscale>  2 0.10526752E+04</rscale>
<asrwt>0</asrwt>
<pdfrwt beam="1">  1       21 0.11528750E+00 0.10526752E+04</pdfrwt>
<pdfrwt beam="2">  1       21 0.28314721E+00 0.10526752E+04</pdfrwt>
<totfact> 0.14270721E+01</totfact>
</mgrwt>
</event>
<event>
 4    1  0.3875622E-001  0.2220481E+03  0.7546771E-02  0.1132365E+00
         21   -1    0    0  501  502  0.00000000000E+00  0.00000000000E+00  0.86395010552E+02  0.86395010552E+02  0.00000000000E+00 0. -1.
         21   -1    0    0  502  503 -0.00000000000E+00 -0.00000000000E+00 -0.58914704355E+03  0.58914704355E+03  0.00000000000E+00 0. -1.
          6    1    1    2  501    0 -0.19921563726E+02  0.13776606673E+03 -0.19160214971E+03  0.29328610881E+03  0.17300000000E+03 0. -1.
         -6    1    1    2    0  503  0.19921563726E+02 -0.13776606673E+03 -0.31114988329E+03  0.38225594530E+03  0.17300000000E+03 0. -1.
<mgrwt>
<rscale>  2 0.22204810E+03</rscale>
<asrwt>0</asrwt>
<pdfrwt beam="1">  1       21 0.13291540E-01 0.22204810E+03</pdfrwt>
<pdfrwt beam="2">  1       21 0.90638005E-01 0.22204810E+03</pdfrwt>
<totfact> 0.49754906E+04</totfact>
</mgrwt>
</event>
<event>
 4    1  0.3875622E-001  0.1796348E+03  0.7546771E-02  0.1168157E+00
         21   -1    0    0  501  502  0.00000000000E+00  0.00000000000E+00  0.21142290285E+03  0.21142290285E+03  0.00000000000E+00 0. -1.
         21   -1    0    0  502  503 -0.00000000000E+00 -0.00000000000E+00 -0.23893432728E+03  0.23893432728E+03  0.00000000000E+00 0. -1.
          6    1    1    2  501    0 -0.38009268680E+02  0.29915846179E+02  0.12158045027E+03  0.21691119899E+03  0.17300000000E+03 0. -1.
         -6    1    1    2    0  503  0.38009268680E+02 -0.29915846179E+02 -0.14909187469E+03  0.23344603115E+03  0.17300000000E+03 0. -1.
<mgrwt>
<rscale>  2 0.17963480E+03</rscale>
<asrwt>0</asrwt>
<pdfrwt beam="1">  1       21 0.32526600E-01 0.17963480E+03</pdfrwt>
<pdfrwt beam="2">  1       21 0.36759127E-01 0.17963480E+03</pdfrwt>
<totfact> 0.65287389E+04</totfact>
</mgrwt>
</event>
<event>
 4    1  0.3875622E-001  0.1849632E+03  0.7546771E-02  0.1163084E+00
         21   -1    0    0  501  502  0.00000000000E+00  0.00000000000E+00  0.88526753972E+02  0.88526753972E+02  0.00000000000E+00 0. -1.
         21   -1    0    0  502  503 -0.00000000000E+00 -0.00000000000E+00 -0.43552665624E+03  0.43552665624E+03  0.00000000000E+00 0. -1.
          6    1    1    2  501    0  0.12098999604E+02 -0.64311593723E+02 -0.85543938872E+02  0.20378697789E+03  0.17300000000E+03 0. -1.
         -6    1    1    2    0  503 -0.12098999604E+02  0.64311593723E+02 -0.26145596340E+03  0.32026643233E+03  0.17300000000E+03 0. -1.
<mgrwt>
<rscale>  2 0.18496315E+03</rscale>
<asrwt>0</asrwt>
<pdfrwt beam="1">  1       21 0.13619500E-01 0.18496315E+03</pdfrwt>
<pdfrwt beam="2">  1       21 0.67004102E-01 0.18496315E+03</pdfrwt>
<totfact> 0.95617756E+04</totfact>
</mgrwt>
</event>
<event>
 4    1  0.3875622E-001  0.3245377E+03  0.7546771E-02  0.1073580E+00
         21   -1    0    0  503  502  0.00000000000E+00  0.00000000000E+00  0.57505938825E+03  0.57505938825E+03  0.00000000000E+00 0.  1.
         21   -1    0    0  501  503 -0.00000000000E+00 -0.00000000000E+00 -0.18682642597E+03  0.18682642597E+03  0.00000000000E+00 0. -1.
          6    1    1    2  501    0 -0.14117316735E+03  0.23551185199E+03  0.14071052885E+03  0.35372891956E+03  0.17300000000E+03 0.  1.
         -6    1    1    2    0  502  0.14117316735E+03 -0.23551185199E+03  0.24752243342E+03  0.40815689465E+03  0.17300000000E+03 0.  1.
<mgrwt>
<rscale>  2 0.32453766E+03</rscale>
<asrwt>0</asrwt>
<pdfrwt beam="1">  1       21 0.88470674E-01 0.32453766E+03</pdfrwt>
<pdfrwt beam="2">  1       21 0.28742527E-01 0.32453766E+03</pdfrwt>
<totfact> 0.11804524E+04</totfact>
</mgrwt>
</event>
<event>
 4    1  0.3875622E-001  0.2598999E+03  0.7546771E-02  0.1107203E+00
         21   -1    0    0  503  502  0.00000000000E+00  0.00000000000E+00  0.25051021029E+03  0.25051021029E+03  0.00000000000E+00 0.  1.
         21   -1    0    0  501  503 -0.00000000000E+00 -0.00000000000E+00 -0.27094739317E+03  0.27094739317E+03  0.00000000000E+00 0.  1.
          6    1    1    2  501    0  0.14409374882E+02  0.19342004957E+03 -0.28319587591E+02  0.26143822349E+03  0.17300000000E+03 0.  1.
         -6    1    1    2    0  502 -0.14409374882E+02 -0.19342004957E+03  0.78824047138E+01  0.26001937998E+03  0.17300000000E+03 0.  1.
<mgrwt>
<rscale>  2 0.25989988E+03</rscale>
<asrwt>0</asrwt>
<pdfrwt beam="1">  1       21 0.38540032E-01 0.25989988E+03</pdfrwt>
<pdfrwt beam="2">  1       21 0.41684214E-01 0.25989988E+03</pdfrwt>
<totfact> 0.34843258E+04</totfact>
</mgrwt>
</event>
<event>
 4    1  0.3875622E-001  0.2075660E+03  0.7546771E-02  0.1143508E+00
         21   -1    0    0  501  502  0.00000000000E+00  0.00000000000E+00  0.11833353541E+04  0.11833353541E+04  0.00000000000E+00 0.  1.
         21   -1    0    0  502  503 -0.00000000000E+00 -0.00000000000E+00 -0.41410076581E+02  0.41410076581E+02  0.00000000000E+00 0.  1.
          6    1    1    2  501    0  0.10326183203E+02 -0.11422785761E+03  0.78378149402E+03  0.81080026140E+03  0.17300000000E+03 0.  1.
         -6    1    1    2    0  503 -0.10326183203E+02  0.11422785761E+03  0.35814378350E+03  0.41394516929E+03  0.17300000000E+03 0.  1.
<mgrwt>
<rscale>  2 0.20756597E+03</rscale>
<asrwt>0</asrwt>
<pdfrwt beam="1">  1       21 0.18205157E+00 0.20756597E+03</pdfrwt>
<pdfrwt beam="2">  1       21 0.63707819E-02 0.20756597E+03</pdfrwt>
<totfact> 0.31040953E+04</totfact>
</mgrwt>
</event>
<event>
 4    1  0.3875622E-001  0.1746918E+03  0.7546771E-02  0.1173042E+00
         21   -1    0    0  503  502  0.00000000000E+00  0.00000000000E+00  0.37423903541E+02  0.37423903541E+02  0.00000000000E+00 0.  1.
         21   -1    0    0  501  503 -0.00000000000E+00 -0.00000000000E+00 -0.84375868277E+03  0.84375868277E+03  0.00000000000E+00 0.  1.
          6    1    1    2  501    0  0.16180130017E+02 -0.18067240759E+02 -0.32246113732E+03  0.36674024442E+03  0.17300000000E+03 0. -1.
         -6    1    1    2    0  502 -0.16180130017E+02  0.18067240759E+02 -0.48387364191E+03  0.51444234190E+03  0.17300000000E+03 0. -1.
<mgrwt>
<rscale>  2 0.17469179E+03</rscale>
<asrwt>0</asrwt>
<pdfrwt beam="1">  1       21 0.57575240E-02 0.17469179E+03</pdfrwt>
<pdfrwt beam="2">  1       21 0.12980902E+00 0.17469179E+03</pdfrwt>
<totfact> 0.92560774E+04</totfact>
</mgrwt>
</event>
<event>
 4    1  0.3875622E-001  0.1840778E+03  0.7546771E-02  0.1163914E+00
         21   -1    0    0  501  502  0.00000000000E+00  0.00000000000E+00  0.79933134259E+02  0.79933134259E+02  0.00000000000E+00 0. -1.
         21   -1    0    0  502  503 -0.00000000000E+00 -0.00000000000E+00 -0.53797566375E+03  0.53797566375E+03  0.00000000000E+00 0. -1.
          6    1    1    2  501    0  0.36538697699E+01  0.62787557342E+02 -0.86760083744E+02  0.20349923895E+03  0.17300000000E+03 0. -1.
         -6    1    1    2    0  503 -0.36538697699E+01 -0.62787557342E+02 -0.37128244575E+03  0.41440955906E+03  0.17300000000E+03 0. -1.
<mgrwt>
<rscale>  2 0.18407778E+03</rscale>
<asrwt>0</asrwt>
<pdfrwt beam="1">  1       21 0.12297405E-01 0.18407778E+03</pdfrwt>
<pdfrwt beam="2">  1       21 0.82765488E-01 0.18407778E+03</pdfrwt>
<totfact> 0.71785633E+04</totfact>
</mgrwt>
</event>
<event>
 4    1  0.3875622E-001  0.2167929E+03  0.7546771E-02  0.1136297E+00
         21   -1    0    0  503  502  0.00000000000E+00  0.00000000000E+00  0.27316053953E+03  0.27316053953E+03  0.00000000000E+00 0.  1.
         21   -1    0    0  501  503 -0.00000000000E+00 -0.00000000000E+00 -0.31433128594E+03  0.31433128594E+03  0.00000000000E+00 0.  1.
          6    1    1    2  501    0  0.38331555815E+02  0.12490336979E+03 -0.21821013687E+03  0.30759522719E+03  0.17300000000E+03 0. -1.
         -6    1    1    2    0  502 -0.38331555815E+02 -0.12490336979E+03  0.17703939045E+03  0.27989659828E+03  0.17300000000E+03 0. -1.
<mgrwt>
<rscale>  2 0.21679290E+03</rscale>
<asrwt>0</asrwt>
<pdfrwt beam="1">  1       21 0.42024698E-01 0.21679290E+03</pdfrwt>
<pdfrwt beam="2">  1       21 0.48358659E-01 0.21679290E+03</pdfrwt>
<totfact> 0.21951804E+04</totfact>
</mgrwt>
</event>
<event>
 4    1  0.3875622E-001  0.3150543E+03  0.7546771E-02  0.1077948E+00
         21   -1    0    0  501  502  0.00000000000E+00  0.00000000000E+00  0.96700127670E+02  0.96700127670E+02  0.00000000000E+00 0.  1.
         21   -1    0    0  502  503 -0.00000000000E+00 -0.00000000000E+00 -0.10288769956E+04  0.10288769956E+04  0.00000000000E+00 0. -1.
          6    1    1    2  501    0  0.26010729169E+03  0.40919668408E+02 -0.49334183813E+03  0.58535919887E+03  0.17300000000E+03 0.  1.
         -6    1    1    2    0  503 -0.26010729169E+03 -0.40919668408E+02 -0.43883502977E+03  0.54021792437E+03  0.17300000000E+03 0. -1.
<mgrwt>
<rscale>  2 0.31505432E+03</rscale>
<asrwt>0</asrwt>
<pdfrwt beam="1">  1       21 0.14876943E-01 0.31505432E+03</pdfrwt>
<pdfrwt beam="2">  1       21 0.15828876E+00 0.31505432E+03</pdfrwt>
<totfact> 0.95712523E+03</totfact>
</mgrwt>
</event>
<event>
 4    1  0.3875622E-001  0.2019354E+03  0.7546771E-02  0.1148116E+00
         21   -1    0    0  503  502  0.00000000000E+00  0.00000000000E+00  0.12396015177E+03  0.12396015177E+03  0.00000000000E+00 0.  1.
         21   -1    0    0  501  503 -0.00000000000E+00 -0.00000000000E+00 -0.32896640814E+03  0.32896640814E+03  0.00000000000E+00 0.  1.
          6    1    1    2  501    0 -0.10204493838E+03  0.20874192914E+02 -0.10148482687E+03  0.22600237048E+03  0.17300000000E+03 0.  1.
         -6    1    1    2    0  502  0.10204493838E+03 -0.20874192914E+02 -0.10352142951E+03  0.22692418942E+03  0.17300000000E+03 0.  1.
<mgrwt>
<rscale>  2 0.20193539E+03</rscale>
<asrwt>0</asrwt>
<pdfrwt beam="1">  1       21 0.19070793E-01 0.20193539E+03</pdfrwt>
<pdfrwt beam="2">  1       21 0.50610216E-01 0.20193539E+03</pdfrwt>
<totfact> 0.93349318E+04</totfact>
</mgrwt>
</event>
<event>
 4    1  0.3875622E-001  0.1746892E+03  0.7546771E-02  0.1173044E+00
         21   -1    0    0  501  502  0.00000000000E+00  0.00000000000E+00  0.16107181049E+03  0.16107181049E+03  0.00000000000E+00 0. -1.
         21   -1    0    0  502  503 -0.00000000000E+00 -0.00000000000E+00 -0.20934594009E+03  0.20934594009E+03  0.00000000000E+00 0. -1.
          6    1    1    2  501    0  0.21240682517E+02 -0.11667809813E+02  0.32948597920E+02  0.17776927317E+03  0.17300000000E+03 0. -1.
         -6    1    1    2    0  503 -0.21240682517E+02  0.11667809813E+02 -0.81222727522E+02  0.19264847740E+03  0.17300000000E+03 0. -1.
<mgrwt>
<rscale>  2 0.17468917E+03</rscale>
<asrwt>0</asrwt>
<pdfrwt beam="1">  1       21 0.24780279E-01 0.17468917E+03</pdfrwt>
<pdfrwt beam="2">  1       21 0.32207067E-01 0.17468917E+03</pdfrwt>
<totfact> 0.14370678E+05</totfact>
</mgrwt>
</event>
<event>
 4    1  0.3875622E-001  0.2793577E+03  0.7546771E-02  0.1096040E+00
         21   -1    0    0  501  502  0.00000000000E+00  0.00000000000E+00  0.18882194778E+03  0.18882194778E+03  0.00000000000E+00 0. -1.
         21   -1    0    0  502  503 -0.00000000000E+00 -0.00000000000E+00 -0.43326046594E+03  0.43326046594E+03  0.00000000000E+00 0.  1.
          6    1    1    2  501    0  0.11227612924E+03  0.18842976663E+03 -0.55462623042E+02  0.28481012746E+03  0.17300000000E+03 0. -1.
         -6    1    1    2    0  503 -0.11227612924E+03 -0.18842976663E+03 -0.18897589512E+03  0.33727228627E+03  0.17300000000E+03 0.  1.
<mgrwt>
<rscale>  2 0.27935767E+03</rscale>
<asrwt>0</asrwt>
<pdfrwt beam="1">  1       21 0.29049530E-01 0.27935767E+03</pdfrwt>
<pdfrwt beam="2">  1       21 0.66655456E-01 0.27935767E+03</pdfrwt>
<totfact> 0.22404713E+04</totfact>
</mgrwt>
</event>
<event>
 4    1  0.3875622E-001  0.2539907E+03  0.7546771E-02  0.1110808E+00
         21   -1    0    0  503  502  0.00000000000E+00  0.00000000000E+00  0.55754591549E+02  0.55754591549E+02  0.00000000000E+00 0.  1.
         21   -1    0    0  501  503 -0.00000000000E+00 -0.00000000000E+00 -0.11616007260E+04  0.11616007260E+04  0.00000000000E+00 0.  1.
          6    1    1    2  501    0  0.16485512782E+03 -0.86052796658E+02 -0.51485888391E+03  0.57410013701E+03  0.17300000000E+03 0.  1.
         -6    1    1    2    0  502 -0.16485512782E+03  0.86052796658E+02 -0.59098725055E+03  0.64325518054E+03  0.17300000000E+03 0.  1.
<mgrwt>
<rscale>  2 0.25399074E+03</rscale>
<asrwt>0</asrwt>
<pdfrwt beam="1">  1       21 0.85776293E-02 0.25399074E+03</pdfrwt>
<pdfrwt beam="2">  1       21 0.17870781E+00 0.25399074E+03</pdfrwt>
<totfact> 0.18959171E+04</totfact>
</mgrwt>
</event>
<event>
 4    1  0.3875622E-001  0.2011852E+03  0.7546771E-02  0.1148743E+00
         21   -1    0    0  503  502  0.00000000000E+00  0.00000000000E+00  0.13345596509E+03  0.13345596509E+03  0.00000000000E+00 0. -1.
         21   -1    0    0  501  503 -0.00000000000E+00 -0.00000000000E+00 -0.39037691567E+03  0.39037691567E+03  0.00000000000E+00 0. -1.
          6    1    1    2  501    0  0.10254549829E+03  0.55608148515E+01 -0.25217019837E+03  0.32259155418E+03  0.17300000000E+03 0. -1.
         -6    1    1    2    0  502 -0.10254549829E+03 -0.55608148515E+01 -0.47507522080E+01  0.20124132659E+03  0.17300000000E+03 0. -1.
<mgrwt>
<rscale>  2 0.20118524E+03</rscale>
<asrwt>0</asrwt>
<pdfrwt beam="1">  1       21 0.20531687E-01 0.20118524E+03</pdfrwt>
<pdfrwt beam="2">  1       21 0.60057987E-01 0.20118524E+03</pdfrwt>
<totfact> 0.56600026E+04</totfact>
</mgrwt>
</event>
<event>
 4    1  0.3875622E-001  0.1834184E+03  0.7546771E-02  0.1164535E+00
         21   -1    0    0  501  502  0.00000000000E+00  0.00000000000E+00  0.17845854139E+04  0.17845854139E+04  0.00000000000E+00 0. -1.
         21   -1    0    0  502  503 -0.00000000000E+00 -0.00000000000E+00 -0.21342097717E+02  0.21342097717E+02  0.00000000000E+00 0. -1.
          6    1    1    2  501    0 -0.24275854447E+01  0.60888561274E+02  0.57316519172E+03  0.60179784568E+03  0.17300000000E+03 0. -1.
         -6    1    1    2    0  503  0.24275854447E+01 -0.60888561274E+02  0.11900781245E+04  0.12041296659E+04  0.17300000000E+03 0. -1.
<mgrwt>
<rscale>  2 0.18341840E+03</rscale>
<asrwt>0</asrwt>
<pdfrwt beam="1">  1       21 0.27455149E+00 0.18341840E+03</pdfrwt>
<pdfrwt beam="2">  1       21 0.32834010E-02 0.18341840E+03</pdfrwt>
<totfact> 0.26286404E+04</totfact>
</mgrwt>
</event>
<event>
 4    1  0.3875622E-001  0.1913125E+03  0.7546771E-02  0.1157283E+00
         21   -1    0    0  501  502  0.00000000000E+00  0.00000000000E+00  0.85755734258E+02  0.85755734258E+02  0.00000000000E+00 0. -1.
         21   -1    0    0  502  503 -0.00000000000E+00 -0.00000000000E+00 -0.43079540938E+03  0.43079540938E+03  0.00000000000E+00 0. -1.
          6    1    1    2  501    0  0.80733583067E+02 -0.12391521590E+02 -0.14764369563E+03  0.24165910308E+03  0.17300000000E+03 0. -1.
         -6    1    1    2    0  503 -0.80733583067E+02  0.12391521590E+02 -0.19739597949E+03  0.27489204055E+03  0.17300000000E+03 0. -1.
<mgrwt>
<rscale>  2 0.19131247E+03</rscale>
<asrwt>0</asrwt>
<pdfrwt beam="1">  1       21 0.13193190E-01 0.19131247E+03</pdfrwt>
<pdfrwt beam="2">  1       21 0.66276217E-01 0.19131247E+03</pdfrwt>
<totfact> 0.10345976E+05</totfact>
</mgrwt>
</event>
<event>
 4    1  0.3875622E-001  0.2329392E+03  0.7546771E-02  0.1124588E+00
         21   -1    0    0  501  502  0.00000000000E+00  0.00000000000E+00  0.10097955791E+03  0.10097955791E+03  0.00000000000E+00 0. -1.
         21   -1    0    0  502  503 -0.00000000000E+00 -0.00000000000E+00 -0.93372009507E+03  0.93372009507E+03  0.00000000000E+00 0.  1.
          6    1    1    2  501    0 -0.86812598426E+02  0.12959651467E+03 -0.79292513313E+02  0.24606500468E+03  0.17300000000E+03 0. -1.
         -6    1    1    2    0  503  0.86812598426E+02 -0.12959651467E+03 -0.75344802385E+03  0.78863464830E+03  0.17300000000E+03 0.  1.
<mgrwt>
<rscale>  2 0.23293923E+03</rscale>
<asrwt>0</asrwt>
<pdfrwt beam="1">  1       21 0.15535317E-01 0.23293923E+03</pdfrwt>
<pdfrwt beam="2">  1       21 0.14364924E+00 0.23293923E+03</pdfrwt>
<totfact> 0.11982574E+04</totfact>
</mgrwt>
</event>
<event>
 4    1  0.3875622E-001  0.1753578E+03  0.7546771E-02  0.1172373E+00
         21   -1    0    0  501  502  0.00000000000E+00  0.00000000000E+00  0.17198665421E+03  0.17198665421E+03  0.00000000000E+00 0. -1.
         21   -1    0    0  502  503 -0.00000000000E+00 -0.00000000000E+00 -0.27708902417E+03  0.27708902417E+03  0.00000000000E+00 0. -1.
          6    1    1    2  501    0 -0.32643745613E+01  0.28472763674E+02  0.81183305606E+02  0.19323841109E+03  0.17300000000E+03 0. -1.
         -6    1    1    2    0  503  0.32643745613E+01 -0.28472763674E+02 -0.18628567557E+03  0.25583726729E+03  0.17300000000E+03 0. -1.
<mgrwt>
<rscale>  2 0.17535779E+03</rscale>
<asrwt>0</asrwt>
<pdfrwt beam="1">  1       21 0.26459486E-01 0.17535779E+03</pdfrwt>
<pdfrwt beam="2">  1       21 0.42629080E-01 0.17535779E+03</pdfrwt>
<totfact> 0.72454687E+04</totfact>
</mgrwt>
</event>
<event>
 4    1  0.3875622E-001  0.2156921E+03  0.7546771E-02  0.1137136E+00
         21   -1    0    0  503  502  0.00000000000E+00  0.00000000000E+00  0.59488667642E+03  0.59488667642E+03  0.00000000000E+00 0.  1.
         21   -1    0    0  501  503 -0.00000000000E+00 -0.00000000000E+00 -0.10819260857E+03  0.10819260857E+03  0.00000000000E+00 0.  1.
          6    1    1    2  501    0  0.12843071973E+03 -0.99821012624E+01  0.58272495093E+02  0.22342510110E+03  0.17300000000E+03 0.  1.
         -6    1    1    2    0  502 -0.12843071973E+03  0.99821012624E+01  0.42842157276E+03  0.47965418389E+03  0.17300000000E+03 0.  1.
<mgrwt>
<rscale>  2 0.21569212E+03</rscale>
<asrwt>0</asrwt>
<pdfrwt beam="1">  1       21 0.91521025E-01 0.21569212E+03</pdfrwt>
<pdfrwt beam="2">  1       21 0.16645017E-01 0.21569212E+03</pdfrwt>
<totfact> 0.32362922E+04</totfact>
</mgrwt>
</event>
<event>
 4    1  0.3875622E-001  0.1800117E+03  0.7546771E-02  0.1167792E+00
         21   -1    0    0  503  502  0.00000000000E+00  0.00000000000E+00  0.51369516809E+02  0.51369516809E+02  0.00000000000E+00 0. -1.
         21   -1    0    0  501  503 -0.00000000000E+00 -0.00000000000E+00 -0.63192039446E+03  0.63192039446E+03  0.00000000000E+00 0. -1.
          6    1    1    2  501    0 -0.14298926154E+02 -0.47652485116E+02 -0.27593077315E+03  0.32945714471E+03  0.17300000000E+03 0.  1.
         -6    1    1    2    0  502  0.14298926154E+02  0.47652485116E+02 -0.30462010450E+03  0.35383276656E+03  0.17300000000E+03 0.  1.
<mgrwt>
<rscale>  2 0.18001172E+03</rscale>
<asrwt>0</asrwt>
<pdfrwt beam="1">  1       21 0.79030024E-02 0.18001172E+03</pdfrwt>
<pdfrwt beam="2">  1       21 0.97218524E-01 0.18001172E+03</pdfrwt>
<totfact> 0.10810394E+05</totfact>
</mgrwt>
</event>
<event>
 4    1  0.3875622E-001  0.2379706E+03  0.7546771E-02  0.1121152E+00
         21   -1    0    0  501  502  0.00000000000E+00  0.00000000000E+00  0.12802736574E+04  0.12802736574E+04  0.00000000000E+00 0. -1.
         21   -1    0    0  502  503 -0.00000000000E+00 -0.00000000000E+00 -0.49190412845E+02  0.49190412845E+02  0.00000000000E+00 0.  1.
          6    1    1    2  501    0 -0.16542571545E+02 -0.16256486363E+03  0.82657249767E+03  0.86014654883E+03  0.17300000000E+03 0. -1.
         -6    1    1    2    0  503  0.16542571545E+02  0.16256486363E+03  0.40451074689E+03  0.46931752142E+03  0.17300000000E+03 0.  1.
<mgrwt>
<rscale>  2 0.23797057E+03</rscale>
<asrwt>0</asrwt>
<pdfrwt beam="1">  1       21 0.19696515E+00 0.23797057E+03</pdfrwt>
<pdfrwt beam="2">  1       21 0.75677568E-02 0.23797057E+03</pdfrwt>
<totfact> 0.17973768E+04</totfact>
</mgrwt>
</event>
<event>
 4    1  0.3875622E-001  0.2644137E+03  0.7546771E-02  0.1104520E+00
         21   -1    0    0  503  502  0.00000000000E+00  0.00000000000E+00  0.12313884472E+03  0.12313884472E+03  0.00000000000E+00 0. -1.
         21   -1    0    0  501  503 -0.00000000000E+00 -0.00000000000E+00 -0.62488742685E+03  0.62488742685E+03  0.00000000000E+00 0.  1.
          6    1    1    2  501    0  0.19343989094E+03  0.50661973006E+02 -0.36394956628E+03  0.44985988231E+03  0.17300000000E+03 0. -1.
         -6    1    1    2    0  502 -0.19343989094E+03 -0.50661973006E+02 -0.13779901585E+03  0.29816638926E+03  0.17300000000E+03 0. -1.
<mgrwt>
<rscale>  2 0.26441374E+03</rscale>
<asrwt>0</asrwt>
<pdfrwt beam="1">  1       21 0.18944438E-01 0.26441374E+03</pdfrwt>
<pdfrwt beam="2">  1       21 0.96136525E-01 0.26441374E+03</pdfrwt>
<totfact> 0.22140692E+04</totfact>
</mgrwt>
</event>
<event>
 4    1  0.3875622E-001  0.2923821E+03  0.7546771E-02  0.1089112E+00
         21   -1    0    0  501  502  0.00000000000E+00  0.00000000000E+00  0.25889515570E+03  0.25889515570E+03  0.00000000000E+00 0. -1.
         21   -1    0    0  502  503 -0.00000000000E+00 -0.00000000000E+00 -0.45915216307E+03  0.45915216307E+03  0.00000000000E+00 0.  1.
          6    1    1    2  501    0 -0.22837550984E+03 -0.58334486990E+02  0.90136266866E+02  0.30596050802E+03  0.17300000000E+03 0. -1.
         -6    1    1    2    0  503  0.22837550984E+03  0.58334486990E+02 -0.29039327424E+03  0.41208681074E+03  0.17300000000E+03 0.  1.
<mgrwt>
<rscale>  2 0.29238209E+03</rscale>
<asrwt>0</asrwt>
<pdfrwt beam="1">  1       21 0.39830024E-01 0.29238209E+03</pdfrwt>
<pdfrwt beam="2">  1       21 0.70638794E-01 0.29238209E+03</pdfrwt>
<totfact> 0.10426137E+04</totfact>
</mgrwt>
</event>
<event>
 4    1  0.3875622E-001  0.2300239E+03  0.7546771E-02  0.1126623E+00
         21   -1    0    0  503  502  0.00000000000E+00  0.00000000000E+00  0.13778489562E+04  0.13778489562E+04  0.00000000000E+00 0. -1.
         21   -1    0    0  501  503 -0.00000000000E+00 -0.00000000000E+00 -0.50830018490E+02  0.50830018490E+02  0.00000000000E+00 0. -1.
          6    1    1    2  501    0  0.14889865241E+03 -0.28481155807E+02  0.31027724606E+03  0.38624209293E+03  0.17300000000E+03 0. -1.
         -6    1    1    2    0  502 -0.14889865241E+03  0.28481155807E+02  0.10167416917E+04  0.10424368818E+04  0.17300000000E+03 0. -1.
<mgrwt>
<rscale>  2 0.23002388E+03</rscale>
<asrwt>0</asrwt>
<pdfrwt beam="1">  1       21 0.21197673E+00 0.23002388E+03</pdfrwt>
<pdfrwt beam="2">  1       21 0.78200039E-02 0.23002388E+03</pdfrwt>
<totfact> 0.13674910E+04</totfact>
</mgrwt>
</event>
<event>
 4    1  0.3875622E-001  0.2659714E+03  0.7546771E-02  0.1103608E+00
         21   -1    0    0  503  502  0.00000000000E+00  0.00000000000E+00  0.25899356592E+03  0.25899356592E+03  0.00000000000E+00 0.  1.
         21   -1    0    0  501  503 -0.00000000000E+00 -0.00000000000E+00 -0.28169327961E+03  0.28169327961E+03  0.00000000000E+00 0. -1.
          6    1    1    2  501    0 -0.13781990910E+03 -0.14770731136E+03 -0.58465486252E+02  0.27232148328E+03  0.17300000000E+03 0. -1.
         -6    1    1    2    0  502  0.13781990910E+03  0.14770731136E+03  0.35765772562E+02  0.26836536226E+03  0.17300000000E+03 0.  1.
<mgrwt>
<rscale>  2 0.26597138E+03</rscale>
<asrwt>0</asrwt>
<pdfrwt beam="1">  1       21 0.39845164E-01 0.26597138E+03</pdfrwt>
<pdfrwt beam="2">  1       21 0.43337428E-01 0.26597138E+03</pdfrwt>
<totfact> 0.29991849E+04</totfact>
</mgrwt>
</event>
<event>
 4    1  0.3875622E-001  0.5266878E+03  0.7546771E-02  0.1007039E+00
         21   -1    0    0  501  502  0.00000000000E+00  0.00000000000E+00  0.17744140732E+04  0.17744140732E+04  0.00000000000E+00 0. -1.
         21   -1    0    0  502  503 -0.00000000000E+00 -0.00000000000E+00 -0.15669282664E+03  0.15669282664E+03  0.00000000000E+00 0.  1.
          6    1    1    2  501    0  0.37707996587E+03  0.32447142275E+03  0.85511131727E+03  0.10042984466E+04  0.17300000000E+03 0.  1.
         -6    1    1    2    0  503 -0.37707996587E+03 -0.32447142275E+03  0.76260992932E+03  0.92680845332E+03  0.17300000000E+03 0. -1.
<mgrwt>
<rscale>  2 0.52668777E+03</rscale>
<asrwt>0</asrwt>
<pdfrwt beam="1">  1       21 0.27298677E+00 0.52668777E+03</pdfrwt>
<pdfrwt beam="2">  1       21 0.24106590E-01 0.52668777E+03</pdfrwt>
<totfact> 0.61716779E+02</totfact>
</mgrwt>
</event>
<event>
 4    1  0.3875622E-001  0.1811642E+03  0.7546771E-02  0.1166681E+00
         21   -1    0    0  503  502  0.00000000000E+00  0.00000000000E+00  0.99771788056E+02  0.99771788056E+02  0.00000000000E+00 0. -1.
         21   -1    0    0  501  503 -0.00000000000E+00 -0.00000000000E+00 -0.32964672773E+03  0.32964672773E+03  0.00000000000E+00 0. -1.
          6    1    1    2  501    0 -0.53196222066E+02 -0.78497855227E+01 -0.12477087345E+03  0.21997324391E+03  0.17300000000E+03 0.  1.
         -6    1    1    2    0  502  0.53196222066E+02  0.78497855227E+01 -0.10510406623E+03  0.20944527188E+03  0.17300000000E+03 0.  1.
<mgrwt>
<rscale>  2 0.18116417E+03</rscale>
<asrwt>0</asrwt>
<pdfrwt beam="1">  1       21 0.15349506E-01 0.18116417E+03</pdfrwt>
<pdfrwt beam="2">  1       21 0.50714882E-01 0.18116417E+03</pdfrwt>
<totfact> 0.13968250E+05</totfact>
</mgrwt>
</event>
<event>
 4    1  0.3875622E-001  0.2239238E+03  0.7546771E-02  0.1130991E+00
         21   -1    0    0  501  502  0.00000000000E+00  0.00000000000E+00  0.16879771541E+03  0.16879771541E+03  0.00000000000E+00 0. -1.
         21   -1    0    0  502  503 -0.00000000000E+00 -0.00000000000E+00 -0.29721395735E+03  0.29721395735E+03  0.00000000000E+00 0. -1.
          6    1    1    2  501    0  0.89243810932E+02  0.11067251396E+03 -0.69630932723E+02  0.23450017042E+03  0.17300000000E+03 0. -1.
         -6    1    1    2    0  503 -0.89243810932E+02 -0.11067251396E+03 -0.58785309220E+02  0.23151150234E+03  0.17300000000E+03 0. -1.
<mgrwt>
<rscale>  2 0.22392379E+03</rscale>
<asrwt>0</asrwt>
<pdfrwt beam="1">  1       21 0.25968879E-01 0.22392379E+03</pdfrwt>
<pdfrwt beam="2">  1       21 0.45725224E-01 0.22392379E+03</pdfrwt>
<totfact> 0.63695674E+04</totfact>
</mgrwt>
</event>
<event>
 4    1  0.3875622E-001  0.1843633E+03  0.7546771E-02  0.1163646E+00
         21   -1    0    0  501  502  0.00000000000E+00  0.00000000000E+00  0.25854471279E+03  0.25854471279E+03  0.00000000000E+00 0. -1.
         21   -1    0    0  502  503 -0.00000000000E+00 -0.00000000000E+00 -0.14024548771E+03  0.14024548771E+03  0.00000000000E+00 0.  1.
          6    1    1    2  501    0 -0.57215936019E+02 -0.28056262820E+02  0.10903883384E+03  0.21419450157E+03  0.17300000000E+03 0. -1.
         -6    1    1    2    0  503  0.57215936019E+02  0.28056262820E+02  0.92603912391E+01  0.18459569893E+03  0.17300000000E+03 0. -1.
<mgrwt>
<rscale>  2 0.18436328E+03</rscale>
<asrwt>0</asrwt>
<pdfrwt beam="1">  1       21 0.39776110E-01 0.18436328E+03</pdfrwt>
<pdfrwt beam="2">  1       21 0.21576229E-01 0.18436328E+03</pdfrwt>
<totfact> 0.12233791E+05</totfact>
</mgrwt>
</event>
<event>
 4    1  0.3875622E-001  0.2112382E+03  0.7546771E-02  0.1140589E+00
         21   -1    0    0  503  502  0.00000000000E+00  0.00000000000E+00  0.11603597346E+03  0.11603597346E+03  0.00000000000E+00 0.  1.
         21   -1    0    0  501  503 -0.00000000000E+00 -0.00000000000E+00 -0.52280469757E+03  0.52280469757E+03  0.00000000000E+00 0.  1.
          6    1    1    2  501    0 -0.11044686083E+03 -0.49940717407E+02 -0.36764497387E+03  0.42400991867E+03  0.17300000000E+03 0.  1.
         -6    1    1    2    0  502  0.11044686083E+03  0.49940717407E+02 -0.39123750247E+02  0.21483075235E+03  0.17300000000E+03 0.  1.
<mgrwt>
<rscale>  2 0.21123822E+03</rscale>
<asrwt>0</asrwt>
<pdfrwt beam="1">  1       21 0.17851688E-01 0.21123822E+03</pdfrwt>
<pdfrwt beam="2">  1       21 0.80431491E-01 0.21123822E+03</pdfrwt>
<totfact> 0.38359106E+04</totfact>
</mgrwt>
</event>
<event>
 4    1  0.3875622E-001  0.2302663E+03  0.7546771E-02  0.1126452E+00
         21   -1    0    0  503  502  0.00000000000E+00  0.00000000000E+00  0.49609426594E+02  0.49609426594E+02  0.00000000000E+00 0.  1.
         21   -1    0    0  501  503 -0.00000000000E+00 -0.00000000000E+00 -0.12513351079E+04  0.12513351079E+04  0.00000000000E+00 0. -1.
          6    1    1    2  501    0  0.12887095266E+03 -0.80534767455E+02 -0.35242669162E+03  0.42098354383E+03  0.17300000000E+03 0.  1.
         -6    1    1    2    0  502 -0.12887095266E+03  0.80534767455E+02 -0.84929898963E+03  0.87996099061E+03  0.17300000000E+03 0.  1.
<mgrwt>
<rscale>  2 0.23026630E+03</rscale>
<asrwt>0</asrwt>
<pdfrwt beam="1">  1       21 0.76322195E-02 0.23026630E+03</pdfrwt>
<pdfrwt beam="2">  1       21 0.19251309E+00 0.23026630E+03</pdfrwt>
<totfact> 0.19038891E+04</totfact>
</mgrwt>
</event>
<event>
 4    1  0.3875622E-001  0.2062662E+03  0.7546771E-02  0.1144557E+00
         21   -1    0    0  503  502  0.00000000000E+00  0.00000000000E+00  0.21284053904E+02  0.21284053904E+02  0.00000000000E+00 0.  1.
         21   -1    0    0  501  503 -0.00000000000E+00 -0.00000000000E+00 -0.20019528924E+04  0.20019528924E+04  0.00000000000E+00 0.  1.
          6    1    1    2  501    0 -0.10695924437E+03  0.34299642648E+02 -0.95115052101E+03  0.97325898869E+03  0.17300000000E+03 0.  1.
         -6    1    1    2    0  502  0.10695924437E+03 -0.34299642648E+02 -0.10295183175E+04  0.10499779576E+04  0.17300000000E+03 0.  1.
<mgrwt>
<rscale>  2 0.20626620E+03</rscale>
<asrwt>0</asrwt>
<pdfrwt beam="1">  1       21 0.32744702E-02 0.20626620E+03</pdfrwt>
<pdfrwt beam="2">  1       21 0.30799272E+00 0.20626620E+03</pdfrwt>
<totfact> 0.16572088E+04</totfact>
</mgrwt>
</event>
<event>
 4    1  0.3875622E-001  0.2442377E+03  0.7546771E-02  0.1117002E+00
         21   -1    0    0  501  502  0.00000000000E+00  0.00000000000E+00  0.29592032793E+03  0.29592032793E+03  0.00000000000E+00 0.  1.
         21   -1    0    0  502  503 -0.00000000000E+00 -0.00000000000E+00 -0.21389202776E+03  0.21389202776E+03  0.00000000000E+00 0.  1.
          6    1    1    2  501    0 -0.11130235785E+03 -0.13166189579E+03  0.10216761030E+03  0.26474570868E+03  0.17300000000E+03 0.  1.
         -6    1    1    2    0  503  0.11130235785E+03  0.13166189579E+03 -0.20139310135E+02  0.24506664702E+03  0.17300000000E+03 0.  1.
<mgrwt>
<rscale>  2 0.24423773E+03</rscale>
<asrwt>0</asrwt>
<pdfrwt beam="1">  1       21 0.45526205E-01 0.24423773E+03</pdfrwt>
<pdfrwt beam="2">  1       21 0.32906466E-01 0.24423773E+03</pdfrwt>
<totfact> 0.40139371E+04</totfact>
</mgrwt>
</event>
<event>
 4    1  0.3875622E-001  0.1744340E+03  0.7546771E-02  0.1173301E+00
         21   -1    0    0  501  502  0.00000000000E+00  0.00000000000E+00  0.25893224057E+03  0.25893224057E+03  0.00000000000E+00 0. -1.
         21   -1    0    0  502  503 -0.00000000000E+00 -0.00000000000E+00 -0.16283326532E+03  0.16283326532E+03  0.00000000000E+00 0. -1.
          6    1    1    2  501    0 -0.17181303660E+02 -0.14248874385E+02 -0.63207741909E+02  0.18553287109E+03  0.17300000000E+03 0. -1.
         -6    1    1    2    0  503  0.17181303660E+02  0.14248874385E+02  0.15930671716E+03  0.23623263481E+03  0.17300000000E+03 0. -1.
<mgrwt>
<rscale>  2 0.17443402E+03</rscale>
<asrwt>0</asrwt>
<pdfrwt beam="1">  1       21 0.39835729E-01 0.17443402E+03</pdfrwt>
<pdfrwt beam="2">  1       21 0.25051272E-01 0.17443402E+03</pdfrwt>
<totfact> 0.92294881E+04</totfact>
</mgrwt>
</event>
<event>
 4    1  0.3875622E-001  0.1885795E+03  0.7546771E-02  0.1159749E+00
         21   -1    0    0  501  502  0.00000000000E+00  0.00000000000E+00  0.23491233688E+02  0.23491233688E+02  0.00000000000E+00 0. -1.
         21   -1    0    0  502  503 -0.00000000000E+00 -0.00000000000E+00 -0.15262371003E+04  0.15262371003E+04  0.00000000000E+00 0. -1.
          6    1    1    2  501    0 -0.23321385844E+01 -0.75018596918E+02 -0.68156881973E+03  0.70717627560E+03  0.17300000000E+03 0. -1.
         -6    1    1    2    0  503  0.23321385844E+01  0.75018596918E+02 -0.82117704684E+03  0.84255205834E+03  0.17300000000E+03 0. -1.
<mgrwt>
<rscale>  2 0.18857950E+03</rscale>
<asrwt>0</asrwt>
<pdfrwt beam="1">  1       21 0.36140354E-02 0.18857950E+03</pdfrwt>
<pdfrwt beam="2">  1       21 0.23480575E+00 0.18857950E+03</pdfrwt>
<totfact> 0.38112380E+04</totfact>
</mgrwt>
</event>
<event>
 4    1  0.3875622E-001  0.2204796E+03  0.7546771E-02  0.1133526E+00
         21   -1    0    0  503  502  0.00000000000E+00  0.00000000000E+00  0.23596739358E+03  0.23596739358E+03  0.00000000000E+00 0.  1.
         21   -1    0    0  501  503 -0.00000000000E+00 -0.00000000000E+00 -0.21229576677E+03  0.21229576677E+03  0.00000000000E+00 0. -1.
          6    1    1    2  501    0 -0.12352193185E+03  0.58519950469E+02 -0.26735877648E+02  0.22209470818E+03  0.17300000000E+03 0. -1.
         -6    1    1    2    0  502  0.12352193185E+03 -0.58519950469E+02  0.50407504452E+02  0.22616845217E+03  0.17300000000E+03 0.  1.
<mgrwt>
<rscale>  2 0.22047960E+03</rscale>
<asrwt>0</asrwt>
<pdfrwt beam="1">  1       21 0.36302676E-01 0.22047960E+03</pdfrwt>
<pdfrwt beam="2">  1       21 0.32660887E-01 0.22047960E+03</pdfrwt>
<totfact> 0.65215834E+04</totfact>
</mgrwt>
</event>
<event>
 4    1  0.3875622E-001  0.2018134E+03  0.7546771E-02  0.1148218E+00
         21   -1    0    0  501  502  0.00000000000E+00  0.00000000000E+00  0.36284484503E+03  0.36284484503E+03  0.00000000000E+00 0. -1.
         21   -1    0    0  502  503 -0.00000000000E+00 -0.00000000000E+00 -0.12105433668E+03  0.12105433668E+03  0.00000000000E+00 0. -1.
          6    1    1    2  501    0 -0.37955566350E+02 -0.96742019875E+02  0.18615268356E+03  0.27455685208E+03  0.17300000000E+03 0. -1.
         -6    1    1    2    0  503  0.37955566350E+02  0.96742019875E+02  0.55637824798E+02  0.20934232963E+03  0.17300000000E+03 0. -1.
<mgrwt>
<rscale>  2 0.20181339E+03</rscale>
<asrwt>0</asrwt>
<pdfrwt beam="1">  1       21 0.55822284E-01 0.20181339E+03</pdfrwt>
<pdfrwt beam="2">  1       21 0.18623744E-01 0.20181339E+03</pdfrwt>
<totfact> 0.79358848E+04</totfact>
</mgrwt>
</event>
<event>
 4    1  0.3875622E-001  0.1730671E+03  0.7546771E-02  0.1174687E+00
         21   -1    0    0  501  502  0.00000000000E+00  0.00000000000E+00  0.89467590083E+03  0.89467590083E+03  0.00000000000E+00 0.  1.
         21   -1    0    0  502  503 -0.00000000000E+00 -0.00000000000E+00 -0.34849954829E+02  0.34849954829E+02  0.00000000000E+00 0.  1.
          6    1    1    2  501    0 -0.47877617937E+00 -0.47963054408E+01  0.52211740639E+03  0.55005346997E+03  0.17300000000E+03 0.  1.
         -6    1    1    2    0  503  0.47877617937E+00  0.47963054408E+01  0.33770853961E+03  0.37947238569E+03  0.17300000000E+03 0.  1.
<mgrwt>
<rscale>  2 0.17306714E+03</rscale>
<asrwt>0</asrwt>
<pdfrwt beam="1">  1       21 0.13764243E+00 0.17306714E+03</pdfrwt>
<pdfrwt beam="2">  1       21 0.53615322E-02 0.17306714E+03</pdfrwt>
<totfact> 0.90154602E+04</totfact>
</mgrwt>
</event>
<event>
 4    1  0.3875622E-001  0.2220612E+03  0.7546771E-02  0.1132356E+00
         21   -1    0    0  503  502  0.00000000000E+00  0.00000000000E+00  0.45821156259E+03  0.45821156259E+03  0.00000000000E+00 0.  1.
         21   -1    0    0  501  503 -0.00000000000E+00 -0.00000000000E+00 -0.10935154298E+03  0.10935154298E+03  0.00000000000E+00 0. -1.
          6    1    1    2  501    0 -0.95281625410E+02 -0.10150669188E+03  0.21017433907E+03  0.30575226809E+03  0.17300000000E+03 0.  1.
         -6    1    1    2    0  502  0.95281625410E+02  0.10150669188E+03  0.13868568054E+03  0.26181083748E+03  0.17300000000E+03 0.  1.
<mgrwt>
<rscale>  2 0.22206125E+03</rscale>
<asrwt>0</asrwt>
<pdfrwt beam="1">  1       21 0.70494086E-01 0.22206125E+03</pdfrwt>
<pdfrwt beam="2">  1       21 0.16823314E-01 0.22206125E+03</pdfrwt>
<totfact> 0.57233769E+04</totfact>
</mgrwt>
</event>
<event>
 4    1  0.3875622E-001  0.1745494E+03  0.7546771E-02  0.1173185E+00
         21   -1    0    0  501  502  0.00000000000E+00  0.00000000000E+00  0.57779815160E+03  0.57779815160E+03  0.00000000000E+00 0.  1.
         21   -1    0    0  502  503 -0.00000000000E+00 -0.00000000000E+00 -0.63884679152E+02  0.63884679152E+02  0.00000000000E+00 0.  1.
          6    1    1    2  501    0  0.87966294746E+01 -0.21473473255E+02  0.39102131954E+03  0.42821158681E+03  0.17300000000E+03 0.  1.
         -6    1    1    2    0  503 -0.87966294746E+01  0.21473473255E+02  0.12289215291E+03  0.21347124394E+03  0.17300000000E+03 0.  1.
<mgrwt>
<rscale>  2 0.17454939E+03</rscale>
<asrwt>0</asrwt>
<pdfrwt beam="1">  1       21 0.88892020E-01 0.17454939E+03</pdfrwt>
<pdfrwt beam="2">  1       21 0.98284126E-02 0.17454939E+03</pdfrwt>
<totfact> 0.91134075E+04</totfact>
</mgrwt>
</event>
<event>
 4    1  0.3875622E-001  0.1804685E+03  0.7546771E-02  0.1167350E+00
         21   -1    0    0  501  502  0.00000000000E+00  0.00000000000E+00  0.12354161442E+04  0.12354161442E+04  0.00000000000E+00 0.  1.
         21   -1    0    0  502  503 -0.00000000000E+00 -0.00000000000E+00 -0.28270110656E+02  0.28270110656E+02  0.00000000000E+00 0.  1.
          6    1    1    2  501    0  0.43119971590E-01  0.51379593792E+02  0.76769674036E+03  0.78862357921E+03  0.17300000000E+03 0. -1.
         -6    1    1    2    0  503 -0.43119971590E-01 -0.51379593792E+02  0.43944929317E+03  0.47506267564E+03  0.17300000000E+03 0. -1.
<mgrwt>
<rscale>  2 0.18046846E+03</rscale>
<asrwt>0</asrwt>
<pdfrwt beam="1">  1       21 0.19006398E+00 0.18046846E+03</pdfrwt>
<pdfrwt beam="2">  1       21 0.43492488E-02 0.18046846E+03</pdfrwt>
<totfact> 0.53456129E+04</totfact>
</mgrwt>
</event>
<event>
 4    1  0.3875622E-001  0.1826156E+03  0.7546771E-02  0.1165295E+00
         21   -1    0    0  503  502  0.00000000000E+00  0.00000000000E+00  0.12399065105E+03  0.12399065105E+03  0.00000000000E+00 0.  1.
         21   -1    0    0  501  503 -0.00000000000E+00 -0.00000000000E+00 -0.33259340704E+03  0.33259340704E+03  0.00000000000E+00 0.  1.
          6    1    1    2  501    0 -0.34716241876E+02 -0.47055878460E+02 -0.20415825040E+03  0.27391433762E+03  0.17300000000E+03 0.  1.
         -6    1    1    2    0  502  0.34716241876E+02  0.47055878460E+02 -0.44445055901E+01  0.18266972047E+03  0.17300000000E+03 0.  1.
<mgrwt>
<rscale>  2 0.18261564E+03</rscale>
<asrwt>0</asrwt>
<pdfrwt beam="1">  1       21 0.19075485E-01 0.18261564E+03</pdfrwt>
<pdfrwt beam="2">  1       21 0.51168217E-01 0.18261564E+03</pdfrwt>
<totfact> 0.91901274E+04</totfact>
</mgrwt>
</event>
<event>
 4    1  0.3875622E-001  0.2185866E+03  0.7546771E-02  0.1134941E+00
         21   -1    0    0  503  502  0.00000000000E+00  0.00000000000E+00  0.46567028010E+03  0.46567028010E+03  0.00000000000E+00 0.  1.
         21   -1    0    0  501  503 -0.00000000000E+00 -0.00000000000E+00 -0.14004738478E+03  0.14004738478E+03  0.00000000000E+00 0.  1.
          6    1    1    2  501    0 -0.13192250777E+03  0.21155173912E+02  0.62140238084E+01  0.21867488089E+03  0.17300000000E+03 0.  1.
         -6    1    1    2    0  502  0.13192250777E+03 -0.21155173912E+02  0.31940887151E+03  0.38704278399E+03  0.17300000000E+03 0.  1.
<mgrwt>
<rscale>  2 0.21858657E+03</rscale>
<asrwt>0</asrwt>
<pdfrwt beam="1">  1       21 0.71641581E-01 0.21858657E+03</pdfrwt>
<pdfrwt beam="2">  1       21 0.21545752E-01 0.21858657E+03</pdfrwt>
<totfact> 0.34865588E+04</totfact>
</mgrwt>
</event>
<event>
 4    1  0.3875622E-001  0.1962898E+03  0.7546771E-02  0.1152908E+00
         21   -1    0    0  501  502  0.00000000000E+00  0.00000000000E+00  0.11528695120E+03  0.11528695120E+03  0.00000000000E+00 0.  1.
         21   -1    0    0  502  503 -0.00000000000E+00 -0.00000000000E+00 -0.39572891961E+03  0.39572891961E+03  0.00000000000E+00 0.  1.
          6    1    1    2  501    0  0.77192195890E+02 -0.51400988854E+02 -0.39476628688E+02  0.20022013129E+03  0.17300000000E+03 0.  1.
         -6    1    1    2    0  503 -0.77192195890E+02  0.51400988854E+02 -0.24096533972E+03  0.31079573953E+03  0.17300000000E+03 0.  1.
<mgrwt>
<rscale>  2 0.19628983E+03</rscale>
<asrwt>0</asrwt>
<pdfrwt beam="1">  1       21 0.17736454E-01 0.19628983E+03</pdfrwt>
<pdfrwt beam="2">  1       21 0.60881373E-01 0.19628983E+03</pdfrwt>
<totfact> 0.72336579E+04</totfact>
</mgrwt>
</event>
<event>
 4    1  0.3875622E-001  0.1845302E+03  0.7546771E-02  0.1163489E+00
         21   -1    0    0  501  502  0.00000000000E+00  0.00000000000E+00  0.31571120528E+03  0.31571120528E+03  0.00000000000E+00 0.  1.
         21   -1    0    0  502  503 -0.00000000000E+00 -0.00000000000E+00 -0.10788148283E+03  0.10788148283E+03  0.00000000000E+00 0.  1.
          6    1    1    2  501    0 -0.54484941855E+02 -0.33967228406E+02  0.10716316285E+03  0.21339007701E+03  0.17300000000E+03 0.  1.
         -6    1    1    2    0  503  0.54484941855E+02  0.33967228406E+02  0.10066655960E+03  0.21020261111E+03  0.17300000000E+03 0.  1.
<mgrwt>
<rscale>  2 0.18453016E+03</rscale>
<asrwt>0</asrwt>
<pdfrwt beam="1">  1       21 0.48570954E-01 0.18453016E+03</pdfrwt>
<pdfrwt beam="2">  1       21 0.16597151E-01 0.18453016E+03</pdfrwt>
<totfact> 0.13232179E+05</totfact>
</mgrwt>
</event>
<event>
 4    1  0.3875622E-001  0.2067463E+03  0.7546771E-02  0.1144169E+00
         21   -1    0    0  503  502  0.00000000000E+00  0.00000000000E+00  0.10668172356E+03  0.10668172356E+03  0.00000000000E+00 0.  1.
         21   -1    0    0  501  503 -0.00000000000E+00 -0.00000000000E+00 -0.40352883142E+03  0.40352883142E+03  0.00000000000E+00 0.  1.
          6    1    1    2  501    0  0.59226647358E+02  0.96473970852E+02 -0.16990079470E+03  0.26760101429E+03  0.17300000000E+03 0.  1.
         -6    1    1    2    0  502 -0.59226647358E+02 -0.96473970852E+02 -0.12694631316E+03  0.24260954069E+03  0.17300000000E+03 0.  1.
<mgrwt>
<rscale>  2 0.20674628E+03</rscale>
<asrwt>0</asrwt>
<pdfrwt beam="1">  1       21 0.16412573E-01 0.20674628E+03</pdfrwt>
<pdfrwt beam="2">  1       21 0.62081359E-01 0.20674628E+03</pdfrwt>
<totfact> 0.79637422E+04</totfact>
</mgrwt>
</event>
<event>
 4    1  0.3875622E-001  0.2497573E+03  0.7546771E-02  0.1113458E+00
         21   -1    0    0  501  502  0.00000000000E+00  0.00000000000E+00  0.27791028531E+03  0.27791028531E+03  0.00000000000E+00 0.  1.
         21   -1    0    0  502  503 -0.00000000000E+00 -0.00000000000E+00 -0.24339845173E+03  0.24339845173E+03  0.00000000000E+00 0.  1.
          6    1    1    2  501    0  0.14186648708E+03  0.11101182453E+03  0.89970296796E+02  0.26546822719E+03  0.17300000000E+03 0.  1.
         -6    1    1    2    0  503 -0.14186648708E+03 -0.11101182453E+03 -0.55458463213E+02  0.25584050986E+03  0.17300000000E+03 0.  1.
<mgrwt>
<rscale>  2 0.24975733E+03</rscale>
<asrwt>0</asrwt>
<pdfrwt beam="1">  1       21 0.42755429E-01 0.24975733E+03</pdfrwt>
<pdfrwt beam="2">  1       21 0.37445916E-01 0.24975733E+03</pdfrwt>
<totfact> 0.35207088E+04</totfact>
</mgrwt>
</event>
<event>
 4    1  0.3875622E-001  0.2002281E+03  0.7546771E-02  0.1149547E+00
         21   -1    0    0  503  502  0.00000000000E+00  0.00000000000E+00  0.83985934445E+02  0.83985934445E+02  0.00000000000E+00 0.  1.
         21   -1    0    0  501  503 -0.00000000000E+00 -0.00000000000E+00 -0.49631141146E+03  0.49631141146E+03  0.00000000000E+00 0.  1.
          6    1    1    2  501    0 -0.91205134952E+02  0.42940864576E+02 -0.26286439872E+03  0.33043756839E+03  0.17300000000E+03 0.  1.
         -6    1    1    2    0  502  0.91205134952E+02 -0.42940864576E+02 -0.14946107830E+03  0.24985977751E+03  0.17300000000E+03 0.  1.
<mgrwt>
<rscale>  2 0.20022811E+03</rscale>
<asrwt>0</asrwt>
<pdfrwt beam="1">  1       21 0.12920913E-01 0.20022811E+03</pdfrwt>
<pdfrwt beam="2">  1       21 0.76355600E-01 0.20022811E+03</pdfrwt>
<totfact> 0.78236946E+04</totfact>
</mgrwt>
</event>
<event>
 4    1  0.3875622E-001  0.2078908E+03  0.7546771E-02  0.1143247E+00
         21   -1    0    0  501  502  0.00000000000E+00  0.00000000000E+00  0.49018978095E+02  0.49018978095E+02  0.00000000000E+00 0. -1.
         21   -1    0    0  502  503 -0.00000000000E+00 -0.00000000000E+00 -0.99996550124E+03  0.99996550124E+03  0.00000000000E+00 0. -1.
          6    1    1    2  501    0  0.11209019285E+03  0.26932524762E+02 -0.29507584850E+03  0.36095474591E+03  0.17300000000E+03 0. -1.
         -6    1    1    2    0  503 -0.11209019285E+03 -0.26932524762E+02 -0.65587067465E+03  0.68802973343E+03  0.17300000000E+03 0. -1.
<mgrwt>
<rscale>  2 0.20789077E+03</rscale>
<asrwt>0</asrwt>
<pdfrwt beam="1">  1       21 0.75413822E-02 0.20789077E+03</pdfrwt>
<pdfrwt beam="2">  1       21 0.15384083E+00 0.20789077E+03</pdfrwt>
<totfact> 0.36835576E+04</totfact>
</mgrwt>
</event>
<event>
 4    1  0.3875622E-001  0.1886637E+03  0.7546771E-02  0.1159672E+00
         21   -1    0    0  501  502  0.00000000000E+00  0.00000000000E+00  0.63404780763E+03  0.63404780763E+03  0.00000000000E+00 0. -1.
         21   -1    0    0  502  503 -0.00000000000E+00 -0.00000000000E+00 -0.96235620819E+02  0.96235620819E+02  0.00000000000E+00 0. -1.
          6    1    1    2  501    0 -0.74290779645E+01  0.74898676766E+02  0.50460322788E+03  0.53871924094E+03  0.17300000000E+03 0. -1.
         -6    1    1    2    0  503  0.74290779645E+01 -0.74898676766E+02  0.33208958935E+02  0.19156418750E+03  0.17300000000E+03 0. -1.
<mgrwt>
<rscale>  2 0.18866373E+03</rscale>
<asrwt>0</asrwt>
<pdfrwt beam="1">  1       21 0.97545814E-01 0.18866373E+03</pdfrwt>
<pdfrwt beam="2">  1       21 0.14805480E-01 0.18866373E+03</pdfrwt>
<totfact> 0.35048005E+04</totfact>
</mgrwt>
</event>
<event>
 4    1  0.3875622E-001  0.2242197E+03  0.7546771E-02  0.1130776E+00
         21   -1    0    0  501  502  0.00000000000E+00  0.00000000000E+00  0.15003010510E+03  0.15003010510E+03  0.00000000000E+00 0. -1.
         21   -1    0    0  502  503 -0.00000000000E+00 -0.00000000000E+00 -0.33991831247E+03  0.33991831247E+03  0.00000000000E+00 0.  1.
          6    1    1    2  501    0  0.10934786320E+03 -0.91588762723E+02 -0.65765117592E+02  0.23366537470E+03  0.17300000000E+03 0.  1.
         -6    1    1    2    0  503 -0.10934786320E+03  0.91588762723E+02 -0.12412308978E+03  0.25628304286E+03  0.17300000000E+03 0.  1.
<mgrwt>
<rscale>  2 0.22421966E+03</rscale>
<asrwt>0</asrwt>
<pdfrwt beam="1">  1       21 0.23081555E-01 0.22421966E+03</pdfrwt>
<pdfrwt beam="2">  1       21 0.52295124E-01 0.22421966E+03</pdfrwt>
<totfact> 0.60295457E+04</totfact>
</mgrwt>
</event>
<event>
 4    1  0.3875622E-001  0.2338753E+03  0.7546771E-02  0.1123942E+00
         21   -1    0    0  501  502  0.00000000000E+00  0.00000000000E+00  0.19154588453E+03  0.19154588453E+03  0.00000000000E+00 0.  1.
         21   -1    0    0  502  503 -0.00000000000E+00 -0.00000000000E+00 -0.28925918482E+03  0.28925918482E+03  0.00000000000E+00 0. -1.
          6    1    1    2  501    0 -0.12942937352E+03  0.89535927741E+02 -0.76046640740E+02  0.24592831609E+03  0.17300000000E+03 0.  1.
         -6    1    1    2    0  503  0.12942937352E+03 -0.89535927741E+02 -0.21666659545E+02  0.23487675326E+03  0.17300000000E+03 0. -1.
<mgrwt>
<rscale>  2 0.23387528E+03</rscale>
<asrwt>0</asrwt>
<pdfrwt beam="1">  1       21 0.29468598E-01 0.23387528E+03</pdfrwt>
<pdfrwt beam="2">  1       21 0.44501413E-01 0.23387528E+03</pdfrwt>
<totfact> 0.52500608E+04</totfact>
</mgrwt>
</event>
<event>
 4    1  0.3875622E-001  0.2882690E+03  0.7546771E-02  0.1091256E+00
         21   -1    0    0  501  502  0.00000000000E+00  0.00000000000E+00  0.11291805085E+03  0.11291805085E+03  0.00000000000E+00 0.  1.
         21   -1    0    0  502  503 -0.00000000000E+00 -0.00000000000E+00 -0.74350014010E+03  0.74350014010E+03  0.00000000000E+00 0. -1.
          6    1    1    2  501    0 -0.22075638141E+03  0.66608162369E+02 -0.27206368017E+03  0.39638071762E+03  0.17300000000E+03 0.  1.
         -6    1    1    2    0  503  0.22075638141E+03 -0.66608162369E+02 -0.35851840907E+03  0.46003747333E+03  0.17300000000E+03 0. -1.
<mgrwt>
<rscale>  2 0.28826902E+03</rscale>
<asrwt>0</asrwt>
<pdfrwt beam="1">  1       21 0.17372007E-01 0.28826902E+03</pdfrwt>
<pdfrwt beam="2">  1       21 0.11438464E+00 0.28826902E+03</pdfrwt>
<totfact> 0.16897232E+04</totfact>
</mgrwt>
</event>
<event>
 4    1  0.3875622E-001  0.1856701E+03  0.7546771E-02  0.1162426E+00
         21   -1    0    0  503  502  0.00000000000E+00  0.00000000000E+00  0.87052836140E+02  0.87052836140E+02  0.00000000000E+00 0. -1.
         21   -1    0    0  501  503 -0.00000000000E+00 -0.00000000000E+00 -0.54460391415E+03  0.54460391415E+03  0.00000000000E+00 0.  1.
          6    1    1    2  501    0  0.38054281607E+02  0.55643941603E+02 -0.63800485040E+02  0.19632594958E+03  0.17300000000E+03 0. -1.
         -6    1    1    2    0  502 -0.38054281607E+02 -0.55643941603E+02 -0.39375059297E+03  0.43533080072E+03  0.17300000000E+03 0.  1.
<mgrwt>
<rscale>  2 0.18567007E+03</rscale>
<asrwt>0</asrwt>
<pdfrwt beam="1">  1       21 0.13392744E-01 0.18567007E+03</pdfrwt>
<pdfrwt beam="2">  1       21 0.83785216E-01 0.18567007E+03</pdfrwt>
<totfact> 0.59848281E+04</totfact>
</mgrwt>
</event>
<event>
 4    1  0.3875622E-001  0.1797867E+03  0.7546771E-02  0.1168010E+00
         21   -1    0    0  501  502  0.00000000000E+00  0.00000000000E+00  0.23231383956E+02  0.23231383956E+02  0.00000000000E+00 0. -1.
         21   -1    0    0  502  503 -0.00000000000E+00 -0.00000000000E+00 -0.15888330119E+04  0.15888330119E+04  0.00000000000E+00 0. -1.
          6    1    1    2  501    0  0.48355935821E+02  0.74811537618E+01 -0.49863948849E+03  0.53006094335E+03  0.17300000000E+03 0. -1.
         -6    1    1    2    0  503 -0.48355935821E+02 -0.74811537618E+01 -0.10669621395E+04  0.10820034525E+04  0.17300000000E+03 0. -1.
<mgrwt>
<rscale>  2 0.17978672E+03</rscale>
<asrwt>0</asrwt>
<pdfrwt beam="1">  1       21 0.35740581E-02 0.17978672E+03</pdfrwt>
<pdfrwt beam="2">  1       21 0.24443591E+00 0.17978672E+03</pdfrwt>
<totfact> 0.34279581E+04</totfact>
</mgrwt>
</event>
<event>
 4    1  0.3875622E-001  0.1747682E+03  0.7546771E-02  0.1172965E+00
         21   -1    0    0  503  502  0.00000000000E+00  0.00000000000E+00  0.12827340785E+03  0.12827340785E+03  0.00000000000E+00 0.  1.
         21   -1    0    0  501  503 -0.00000000000E+00 -0.00000000000E+00 -0.28663711065E+03  0.28663711065E+03  0.00000000000E+00 0.  1.
          6    1    1    2  501    0 -0.16249941412E+02  0.18731135793E+02 -0.16453603627E+03  0.24003337950E+03  0.17300000000E+03 0.  1.
         -6    1    1    2    0  502  0.16249941412E+02 -0.18731135793E+02  0.61723334735E+01  0.17487713900E+03  0.17300000000E+03 0.  1.
<mgrwt>
<rscale>  2 0.17476818E+03</rscale>
<asrwt>0</asrwt>
<pdfrwt beam="1">  1       21 0.19734370E-01 0.17476818E+03</pdfrwt>
<pdfrwt beam="2">  1       21 0.44098017E-01 0.17476818E+03</pdfrwt>
<totfact> 0.11765510E+05</totfact>
</mgrwt>
</event>
<event>
 4    1  0.3875622E-001  0.1974342E+03  0.7546771E-02  0.1151922E+00
         21   -1    0    0  503  502  0.00000000000E+00  0.00000000000E+00  0.18552482509E+03  0.18552482509E+03  0.00000000000E+00 0.  1.
         21   -1    0    0  501  503 -0.00000000000E+00 -0.00000000000E+00 -0.21056854899E+03  0.21056854899E+03  0.00000000000E+00 0. -1.
          6    1    1    2  501    0  0.92565460360E+02 -0.21974735756E+02 -0.32599677771E+01  0.19746108693E+03  0.17300000000E+03 0. -1.
         -6    1    1    2    0  502 -0.92565460360E+02  0.21974735756E+02 -0.21783756122E+02  0.19863228714E+03  0.17300000000E+03 0. -1.
<mgrwt>
<rscale>  2 0.19743418E+03</rscale>
<asrwt>0</asrwt>
<pdfrwt beam="1">  1       21 0.28542281E-01 0.19743418E+03</pdfrwt>
<pdfrwt beam="2">  1       21 0.32395162E-01 0.19743418E+03</pdfrwt>
<totfact> 0.10743206E+05</totfact>
</mgrwt>
</event>
<event>
 4    1  0.3875622E-001  0.1770936E+03  0.7546771E-02  0.1170646E+00
         21   -1    0    0  501  502  0.00000000000E+00  0.00000000000E+00  0.29216413865E+02  0.29216413865E+02  0.00000000000E+00 0.  1.
         21   -1    0    0  502  503 -0.00000000000E+00 -0.00000000000E+00 -0.10882302756E+04  0.10882302756E+04  0.00000000000E+00 0.  1.
          6    1    1    2  501    0 -0.15942745453E+02 -0.34336342150E+02 -0.46437706126E+03  0.49699920578E+03  0.17300000000E+03 0. -1.
         -6    1    1    2    0  503  0.15942745453E+02  0.34336342150E+02 -0.59463680044E+03  0.62044748364E+03  0.17300000000E+03 0. -1.
<mgrwt>
<rscale>  2 0.17709363E+03</rscale>
<asrwt>0</asrwt>
<pdfrwt beam="1">  1       21 0.44948333E-02 0.17709363E+03</pdfrwt>
<pdfrwt beam="2">  1       21 0.16742003E+00 0.17709363E+03</pdfrwt>
<totfact> 0.72285942E+04</totfact>
</mgrwt>
</event>
<event>
 4    1  0.3875622E-001  0.1768505E+03  0.7546771E-02  0.1170886E+00
         21   -1    0    0  503  502  0.00000000000E+00  0.00000000000E+00  0.74874701479E+03  0.74874701479E+03  0.00000000000E+00 0.  1.
         21   -1    0    0  501  503 -0.00000000000E+00 -0.00000000000E+00 -0.43309205015E+02  0.43309205015E+02  0.00000000000E+00 0.  1.
          6    1    1    2  501    0 -0.26863171427E+02 -0.25009079238E+02  0.27808941060E+03  0.32956001625E+03  0.17300000000E+03 0. -1.
         -6    1    1    2    0  502  0.26863171427E+02  0.25009079238E+02  0.42734839918E+03  0.46249620356E+03  0.17300000000E+03 0. -1.
<mgrwt>
<rscale>  2 0.17685046E+03</rscale>
<asrwt>0</asrwt>
<pdfrwt beam="1">  1       21 0.11519184E+00 0.17685046E+03</pdfrwt>
<pdfrwt beam="2">  1       21 0.66629551E-02 0.17685046E+03</pdfrwt>
<totfact> 0.96829468E+04</totfact>
</mgrwt>
</event>
<event>
 4    1  0.3875622E-001  0.2787148E+03  0.7546771E-02  0.1096393E+00
         21   -1    0    0  501  502  0.00000000000E+00  0.00000000000E+00  0.49282589571E+02  0.49282589571E+02  0.00000000000E+00 0.  1.
         21   -1    0    0  502  503 -0.00000000000E+00 -0.00000000000E+00 -0.22439528726E+04  0.22439528726E+04  0.00000000000E+00 0.  1.
          6    1    1    2  501    0  0.55888157286E+02  0.21125689429E+03 -0.47187222717E+03  0.54803773618E+03  0.17300000000E+03 0.  1.
         -6    1    1    2    0  503 -0.55888157286E+02 -0.21125689429E+03 -0.17227980558E+04  0.17451977260E+04  0.17300000000E+03 0.  1.
<mgrwt>
<rscale>  2 0.27871484E+03</rscale>
<asrwt>0</asrwt>
<pdfrwt beam="1">  1       21 0.75819358E-02 0.27871484E+03</pdfrwt>
<pdfrwt beam="2">  1       21 0.34522357E+00 0.27871484E+03</pdfrwt>
<totfact> 0.22320125E+03</totfact>
</mgrwt>
</event>
<event>
 4    1  0.3875622E-001  0.1731513E+03  0.7546771E-02  0.1174601E+00
         21   -1    0    0  501  502  0.00000000000E+00  0.00000000000E+00  0.14949537348E+04  0.14949537348E+04  0.00000000000E+00 0.  1.
         21   -1    0    0  502  503 -0.00000000000E+00 -0.00000000000E+00 -0.23484429952E+02  0.23484429952E+02  0.00000000000E+00 0.  1.
          6    1    1    2  501    0  0.18287472234E+01  0.70025006725E+01  0.10258592769E+04  0.10403694706E+04  0.17300000000E+03 0.  1.
         -6    1    1    2    0  503 -0.18287472234E+01 -0.70025006725E+01  0.44561002797E+03  0.47806869418E+03  0.17300000000E+03 0.  1.
<mgrwt>
<rscale>  2 0.17315132E+03</rscale>
<asrwt>0</asrwt>
<pdfrwt beam="1">  1       21 0.22999281E+00 0.17315132E+03</pdfrwt>
<pdfrwt beam="2">  1       21 0.36129904E-02 0.17315132E+03</pdfrwt>
<totfact> 0.41243101E+04</totfact>
</mgrwt>
</event>
<event>
 4    1  0.3875622E-001  0.2338427E+03  0.7546771E-02  0.1123964E+00
         21   -1    0    0  503  502  0.00000000000E+00  0.00000000000E+00  0.54698464746E+02  0.54698464746E+02  0.00000000000E+00 0. -1.
         21   -1    0    0  501  503 -0.00000000000E+00 -0.00000000000E+00 -0.12521621532E+04  0.12521621532E+04  0.00000000000E+00 0.  1.
          6    1    1    2  501    0  0.14425495505E+03  0.62800742878E+02 -0.89213265444E+03  0.92227062106E+03  0.17300000000E+03 0.  1.
         -6    1    1    2    0  502 -0.14425495505E+03 -0.62800742878E+02 -0.30533103398E+03  0.38458999684E+03  0.17300000000E+03 0. -1.
<mgrwt>
<rscale>  2 0.23384274E+03</rscale>
<asrwt>0</asrwt>
<pdfrwt beam="1">  1       21 0.84151476E-02 0.23384274E+03</pdfrwt>
<pdfrwt beam="2">  1       21 0.19264035E+00 0.23384274E+03</pdfrwt>
<totfact> 0.15981799E+04</totfact>
</mgrwt>
</event>
<event>
 4    1  0.3875622E-001  0.2238482E+03  0.7546771E-02  0.1131046E+00
         21   -1    0    0  501  502  0.00000000000E+00  0.00000000000E+00  0.10508466542E+04  0.10508466542E+04  0.00000000000E+00 0. -1.
         21   -1    0    0  502  503 -0.00000000000E+00 -0.00000000000E+00 -0.67215452755E+02  0.67215452755E+02  0.00000000000E+00 0. -1.
          6    1    1    2  501    0 -0.12397771333E+03  0.69343669884E+02  0.79316789539E+03  0.82415006415E+03  0.17300000000E+03 0. -1.
         -6    1    1    2    0  503  0.12397771333E+03 -0.69343669884E+02  0.19046330605E+03  0.29391204281E+03  0.17300000000E+03 0. -1.
<mgrwt>
<rscale>  2 0.22384820E+03</rscale>
<asrwt>0</asrwt>
<pdfrwt beam="1">  1       21 0.16166870E+00 0.22384820E+03</pdfrwt>
<pdfrwt beam="2">  1       21 0.10340840E-01 0.22384820E+03</pdfrwt>
<totfact> 0.18326854E+04</totfact>
</mgrwt>
</event>
<event>
 4    1  0.3875622E-001  0.1950463E+03  0.7546771E-02  0.1153987E+00
         21   -1    0    0  503  502  0.00000000000E+00  0.00000000000E+00  0.55649872310E+02  0.55649872310E+02  0.00000000000E+00 0.  1.
         21   -1    0    0  501  503 -0.00000000000E+00 -0.00000000000E+00 -0.95638765147E+03  0.95638765147E+03  0.00000000000E+00 0.  1.
          6    1    1    2  501    0  0.65507321019E+02  0.61829278504E+02 -0.72060931716E+03  0.74653925334E+03  0.17300000000E+03 0.  1.
         -6    1    1    2    0  502 -0.65507321019E+02 -0.61829278504E+02 -0.18012846199E+03  0.26549827044E+03  0.17300000000E+03 0.  1.
<mgrwt>
<rscale>  2 0.19504632E+03</rscale>
<asrwt>0</asrwt>
<pdfrwt beam="1">  1       21 0.85615187E-02 0.19504632E+03</pdfrwt>
<pdfrwt beam="2">  1       21 0.14713656E+00 0.19504632E+03</pdfrwt>
<totfact> 0.33471637E+04</totfact>
</mgrwt>
</event>
<event>
 4    1  0.3875622E-001  0.1846339E+03  0.7546771E-02  0.1163392E+00
         21   -1    0    0  503  502  0.00000000000E+00  0.00000000000E+00  0.19713567873E+03  0.19713567873E+03  0.00000000000E+00 0.  1.
         21   -1    0    0  501  503 -0.00000000000E+00 -0.00000000000E+00 -0.24696914869E+03  0.24696914869E+03  0.00000000000E+00 0. -1.
          6    1    1    2  501    0 -0.45399179718E+02  0.45821138215E+02 -0.14650170450E+03  0.23569559107E+03  0.17300000000E+03 0. -1.
         -6    1    1    2    0  502  0.45399179718E+02 -0.45821138215E+02  0.96668234548E+02  0.20840923635E+03  0.17300000000E+03 0.  1.
<mgrwt>
<rscale>  2 0.18463386E+03</rscale>
<asrwt>0</asrwt>
<pdfrwt beam="1">  1       21 0.30328566E-01 0.18463386E+03</pdfrwt>
<pdfrwt beam="2">  1       21 0.37995253E-01 0.18463386E+03</pdfrwt>
<totfact> 0.69926108E+04</totfact>
</mgrwt>
</event>
<event>
 4    1  0.3875622E-001  0.3097217E+03  0.7546771E-02  0.1080479E+00
         21   -1    0    0  503  502  0.00000000000E+00  0.00000000000E+00  0.29269861618E+03  0.29269861618E+03  0.00000000000E+00 0. -1.
         21   -1    0    0  501  503 -0.00000000000E+00 -0.00000000000E+00 -0.36073018360E+03  0.36073018360E+03  0.00000000000E+00 0. -1.
          6    1    1    2  501    0  0.25258865095E+03 -0.46877713818E+02 -0.13282628022E+03  0.33700202872E+03  0.17300000000E+03 0. -1.
         -6    1    1    2    0  502 -0.25258865095E+03  0.46877713818E+02  0.64794712801E+02  0.31642677107E+03  0.17300000000E+03 0. -1.
<mgrwt>
<rscale>  2 0.30972172E+03</rscale>
<asrwt>0</asrwt>
<pdfrwt beam="1">  1       21 0.45030556E-01 0.30972172E+03</pdfrwt>
<pdfrwt beam="2">  1       21 0.55496951E-01 0.30972172E+03</pdfrwt>
<totfact> 0.13624303E+04</totfact>
</mgrwt>
</event>
<event>
 4    1  0.3875622E-001  0.2526599E+03  0.7546771E-02  0.1111635E+00
         21   -1    0    0  503  502  0.00000000000E+00  0.00000000000E+00  0.30681880313E+03  0.30681880313E+03  0.00000000000E+00 0.  1.
         21   -1    0    0  501  503 -0.00000000000E+00 -0.00000000000E+00 -0.21473313708E+03  0.21473313708E+03  0.00000000000E+00 0. -1.
          6    1    1    2  501    0  0.18350342343E+03  0.15313764803E+02  0.75268872491E-01  0.25265989683E+03  0.17300000000E+03 0. -1.
         -6    1    1    2    0  502 -0.18350342343E+03 -0.15313764803E+02  0.92010397176E+02  0.26889204338E+03  0.17300000000E+03 0. -1.
<mgrwt>
<rscale>  2 0.25265989E+03</rscale>
<asrwt>0</asrwt>
<pdfrwt beam="1">  1       21 0.47202893E-01 0.25265989E+03</pdfrwt>
<pdfrwt beam="2">  1       21 0.33035867E-01 0.25265989E+03</pdfrwt>
<totfact> 0.36817711E+04</totfact>
</mgrwt>
</event>
<event>
 4    1  0.3875622E-001  0.1789060E+03  0.7546771E-02  0.1168866E+00
         21   -1    0    0  503  502  0.00000000000E+00  0.00000000000E+00  0.58523495535E+02  0.58523495535E+02  0.00000000000E+00 0.  1.
         21   -1    0    0  501  503 -0.00000000000E+00 -0.00000000000E+00 -0.55690896361E+03  0.55690896361E+03  0.00000000000E+00 0.  1.
          6    1    1    2  501    0 -0.10756593501E+02  0.44301880222E+02 -0.29041514301E+03  0.34109868980E+03  0.17300000000E+03 0.  1.
         -6    1    1    2    0  502  0.10756593501E+02 -0.44301880222E+02 -0.20797032507E+03  0.27433376935E+03  0.17300000000E+03 0.  1.
<mgrwt>
<rscale>  2 0.17890601E+03</rscale>
<asrwt>0</asrwt>
<pdfrwt beam="1">  1       21 0.90036148E-02 0.17890601E+03</pdfrwt>
<pdfrwt beam="2">  1       21 0.85678301E-01 0.17890601E+03</pdfrwt>
<totfact> 0.11545975E+05</totfact>
</mgrwt>
</event>
<event>
 4    1  0.3875622E-001  0.2299858E+03  0.7546771E-02  0.1126650E+00
         21   -1    0    0  501  502  0.00000000000E+00  0.00000000000E+00  0.13573385540E+03  0.13573385540E+03  0.00000000000E+00 0. -1.
         21   -1    0    0  502  503 -0.00000000000E+00 -0.00000000000E+00 -0.39341625911E+03  0.39341625911E+03  0.00000000000E+00 0.  1.
          6    1    1    2  501    0 -0.75753162923E+02  0.13124751268E+03 -0.10307509484E+03  0.25202763034E+03  0.17300000000E+03 0.  1.
         -6    1    1    2    0  503  0.75753162923E+02 -0.13124751268E+03 -0.15460730888E+03  0.27712248417E+03  0.17300000000E+03 0. -1.
<mgrwt>
<rscale>  2 0.22998576E+03</rscale>
<asrwt>0</asrwt>
<pdfrwt beam="1">  1       21 0.20882131E-01 0.22998576E+03</pdfrwt>
<pdfrwt beam="2">  1       21 0.60525579E-01 0.22998576E+03</pdfrwt>
<totfact> 0.53224069E+04</totfact>
</mgrwt>
</event>
<event>
 4    1  0.3875622E-001  0.2409654E+03  0.7546771E-02  0.1119151E+00
         21   -1    0    0  501  502  0.00000000000E+00  0.00000000000E+00  0.15984912802E+03  0.15984912802E+03  0.00000000000E+00 0. -1.
         21   -1    0    0  502  503 -0.00000000000E+00 -0.00000000000E+00 -0.36354750068E+03  0.36354750068E+03  0.00000000000E+00 0. -1.
          6    1    1    2  501    0 -0.86090727800E+02 -0.14395725850E+03 -0.10940516962E+03  0.26463899340E+03  0.17300000000E+03 0. -1.
         -6    1    1    2    0  503  0.86090727800E+02  0.14395725850E+03 -0.94293203042E+02  0.25875763530E+03  0.17300000000E+03 0. -1.
<mgrwt>
<rscale>  2 0.24096536E+03</rscale>
<asrwt>0</asrwt>
<pdfrwt beam="1">  1       21 0.24592174E-01 0.24096536E+03</pdfrwt>
<pdfrwt beam="2">  1       21 0.55930384E-01 0.24096536E+03</pdfrwt>
<totfact> 0.46006059E+04</totfact>
</mgrwt>
</event>
<event>
 4    1  0.3875622E-001  0.2572323E+03  0.7546771E-02  0.1108818E+00
         21   -1    0    0  503  502  0.00000000000E+00  0.00000000000E+00  0.54804962227E+02  0.54804962227E+02  0.00000000000E+00 0.  1.
         21   -1    0    0  501  503 -0.00000000000E+00 -0.00000000000E+00 -0.12492182134E+04  0.12492182134E+04  0.00000000000E+00 0.  1.
          6    1    1    2  501    0  0.17254374166E+03  0.80424556825E+02 -0.71658030019E+03  0.76135128472E+03  0.17300000000E+03 0.  1.
         -6    1    1    2    0  502 -0.17254374166E+03 -0.80424556825E+02 -0.47783295094E+03  0.54267189086E+03  0.17300000000E+03 0.  1.
<mgrwt>
<rscale>  2 0.25723229E+03</rscale>
<asrwt>0</asrwt>
<pdfrwt beam="1">  1       21 0.84315324E-02 0.25723229E+03</pdfrwt>
<pdfrwt beam="2">  1       21 0.19218742E+00 0.25723229E+03</pdfrwt>
<totfact> 0.15806973E+04</totfact>
</mgrwt>
</event>
<event>
 4    1  0.3875622E-001  0.4984355E+03  0.7546771E-02  0.1014188E+00
         21   -1    0    0  501  502  0.00000000000E+00  0.00000000000E+00  0.11889550513E+03  0.11889550513E+03  0.00000000000E+00 0. -1.
         21   -1    0    0  502  503 -0.00000000000E+00 -0.00000000000E+00 -0.20947310044E+04  0.20947310044E+04  0.00000000000E+00 0.  1.
          6    1    1    2  501    0 -0.36158316257E+03 -0.29625414134E+03 -0.93286376475E+03  0.10576732498E+04  0.17300000000E+03 0. -1.
         -6    1    1    2    0  503  0.36158316257E+03  0.29625414134E+03 -0.10429717345E+04  0.11559532598E+04  0.17300000000E+03 0.  1.
<mgrwt>
<rscale>  2 0.49843545E+03</rscale>
<asrwt>0</asrwt>
<pdfrwt beam="1">  1       21 0.18291617E-01 0.49843545E+03</pdfrwt>
<pdfrwt beam="2">  1       21 0.32226630E+00 0.49843545E+03</pdfrwt>
<totfact> 0.53410351E+02</totfact>
</mgrwt>
</event>
<event>
 4    1  0.3875622E-001  0.1914583E+03  0.7546771E-02  0.1157153E+00
         21   -1    0    0  503  502  0.00000000000E+00  0.00000000000E+00  0.10259693355E+03  0.10259693355E+03  0.00000000000E+00 0.  1.
         21   -1    0    0  501  503 -0.00000000000E+00 -0.00000000000E+00 -0.43558378954E+03  0.43558378954E+03  0.00000000000E+00 0. -1.
          6    1    1    2  501    0  0.60686116917E+02 -0.55176926947E+02 -0.28058172348E+03  0.33967985163E+03  0.17300000000E+03 0. -1.
         -6    1    1    2    0  502 -0.60686116917E+02  0.55176926947E+02 -0.52405132512E+02  0.19850087145E+03  0.17300000000E+03 0.  1.
<mgrwt>
<rscale>  2 0.19145835E+03</rscale>
<asrwt>0</asrwt>
<pdfrwt beam="1">  1       21 0.15784144E-01 0.19145835E+03</pdfrwt>
<pdfrwt beam="2">  1       21 0.67012890E-01 0.19145835E+03</pdfrwt>
<totfact> 0.72931145E+04</totfact>
</mgrwt>
</event>
<event>
 4    1  0.3875622E-001  0.1856249E+03  0.7546771E-02  0.1162468E+00
         21   -1    0    0  503  502  0.00000000000E+00  0.00000000000E+00  0.27191502294E+02  0.27191502294E+02  0.00000000000E+00 0.  1.
         21   -1    0    0  501  503 -0.00000000000E+00 -0.00000000000E+00 -0.13419507292E+04  0.13419507292E+04  0.00000000000E+00 0.  1.
          6    1    1    2  501    0  0.62513164488E+02  0.24893876598E+02 -0.81896731458E+03  0.83974047370E+03  0.17300000000E+03 0.  1.
         -6    1    1    2    0  502 -0.62513164488E+02 -0.24893876598E+02 -0.49579191237E+03  0.52940175783E+03  0.17300000000E+03 0.  1.
<mgrwt>
<rscale>  2 0.18562489E+03</rscale>
<asrwt>0</asrwt>
<pdfrwt beam="1">  1       21 0.41833069E-02 0.18562489E+03</pdfrwt>
<pdfrwt beam="2">  1       21 0.20645401E+00 0.18562489E+03</pdfrwt>
<totfact> 0.44611205E+04</totfact>
</mgrwt>
</event>
<event>
 4    1  0.3875622E-001  0.3726764E+03  0.7546771E-02  0.1053674E+00
         21   -1    0    0  503  502  0.00000000000E+00  0.00000000000E+00  0.10678300902E+04  0.10678300902E+04  0.00000000000E+00 0.  1.
         21   -1    0    0  501  503 -0.00000000000E+00 -0.00000000000E+00 -0.17095207014E+03  0.17095207014E+03  0.00000000000E+00 0.  1.
          6    1    1    2  501    0  0.27465978254E+03  0.18308655177E+03  0.14552527545E+03  0.40008160090E+03  0.17300000000E+03 0.  1.
         -6    1    1    2    0  502 -0.27465978254E+03 -0.18308655177E+03  0.75135274461E+03  0.83870055945E+03  0.17300000000E+03 0.  1.
<mgrwt>
<rscale>  2 0.37267638E+03</rscale>
<asrwt>0</asrwt>
<pdfrwt beam="1">  1       21 0.16428155E+00 0.37267638E+03</pdfrwt>
<pdfrwt beam="2">  1       21 0.26300319E-01 0.37267638E+03</pdfrwt>
<totfact> 0.28594339E+03</totfact>
</mgrwt>
</event>
<event>
 4    1  0.3875622E-001  0.2147820E+03  0.7546771E-02  0.1137834E+00
         21   -1    0    0  501  502  0.00000000000E+00  0.00000000000E+00  0.93649843079E+02  0.93649843079E+02  0.00000000000E+00 0.  1.
         21   -1    0    0  502  503 -0.00000000000E+00 -0.00000000000E+00 -0.58383266083E+03  0.58383266083E+03  0.00000000000E+00 0.  1.
          6    1    1    2  501    0  0.47582230926E+02 -0.11806022786E+03 -0.37900201948E+03  0.43563036725E+03  0.17300000000E+03 0.  1.
         -6    1    1    2    0  503 -0.47582230926E+02  0.11806022786E+03 -0.11118079827E+03  0.24185213666E+03  0.17300000000E+03 0.  1.
<mgrwt>
<rscale>  2 0.21478195E+03</rscale>
<asrwt>0</asrwt>
<pdfrwt beam="1">  1       21 0.14407668E-01 0.21478195E+03</pdfrwt>
<pdfrwt beam="2">  1       21 0.89820408E-01 0.21478195E+03</pdfrwt>
<totfact> 0.44049241E+04</totfact>
</mgrwt>
</event>
<event>
 4    1  0.3875622E-001  0.1876905E+03  0.7546771E-02  0.1160561E+00
         21   -1    0    0  501  502  0.00000000000E+00  0.00000000000E+00  0.37050530407E+03  0.37050530407E+03  0.00000000000E+00 0.  1.
         21   -1    0    0  502  503 -0.00000000000E+00 -0.00000000000E+00 -0.19242701272E+03  0.19242701272E+03  0.00000000000E+00 0.  1.
          6    1    1    2  501    0  0.72550267603E+02 -0.59305251015E+01  0.28923453493E+03  0.34479606821E+03  0.17300000000E+03 0.  1.
         -6    1    1    2    0  503 -0.72550267603E+02  0.59305251015E+01 -0.11115624358E+03  0.21813624858E+03  0.17300000000E+03 0.  1.
<mgrwt>
<rscale>  2 0.18769047E+03</rscale>
<asrwt>0</asrwt>
<pdfrwt beam="1">  1       21 0.57000816E-01 0.18769047E+03</pdfrwt>
<pdfrwt beam="2">  1       21 0.29604156E-01 0.18769047E+03</pdfrwt>
<totfact> 0.31702921E+04</totfact>
</mgrwt>
</event>
<event>
 4    1  0.3875622E-001  0.2036634E+03  0.7546771E-02  0.1146685E+00
         21   -1    0    0  501  502  0.00000000000E+00  0.00000000000E+00  0.11517139290E+04  0.11517139290E+04  0.00000000000E+00 0.  1.
         21   -1    0    0  502  503 -0.00000000000E+00 -0.00000000000E+00 -0.38660279488E+02  0.38660279488E+02  0.00000000000E+00 0.  1.
          6    1    1    2  501    0  0.59413027188E+02  0.89553704153E+02  0.71222061773E+03  0.74076783276E+03  0.17300000000E+03 0.  1.
         -6    1    1    2    0  503 -0.59413027188E+02 -0.89553704153E+02  0.40083303174E+03  0.44960637569E+03  0.17300000000E+03 0.  1.
<mgrwt>
<rscale>  2 0.20366338E+03</rscale>
<asrwt>0</asrwt>
<pdfrwt beam="1">  1       21 0.17718673E+00 0.20366338E+03</pdfrwt>
<pdfrwt beam="2">  1       21 0.59477362E-02 0.20366338E+03</pdfrwt>
<totfact> 0.37801071E+04</totfact>
</mgrwt>
</event>
<event>
 4    1  0.3875622E-001  0.1882477E+03  0.7546771E-02  0.1160051E+00
         21   -1    0    0  503  502  0.00000000000E+00  0.00000000000E+00  0.10988793404E+03  0.10988793404E+03  0.00000000000E+00 0. -1.
         21   -1    0    0  501  503 -0.00000000000E+00 -0.00000000000E+00 -0.38193719153E+03  0.38193719153E+03  0.00000000000E+00 0.  1.
          6    1    1    2  501    0  0.28261440675E+01 -0.74163303467E+02 -0.23304648886E+03  0.29957945297E+03  0.17300000000E+03 0.  1.
         -6    1    1    2    0  502 -0.28261440675E+01  0.74163303467E+02 -0.39002768637E+02  0.19224567260E+03  0.17300000000E+03 0.  1.
<mgrwt>
<rscale>  2 0.18824766E+03</rscale>
<asrwt>0</asrwt>
<pdfrwt beam="1">  1       21 0.16905836E-01 0.18824766E+03</pdfrwt>
<pdfrwt beam="2">  1       21 0.58759569E-01 0.18824766E+03</pdfrwt>
<totfact> 0.85559897E+04</totfact>
</mgrwt>
</event>
<event>
 4    1  0.3875622E-001  0.2159244E+03  0.7546771E-02  0.1136959E+00
         21   -1    0    0  503  502  0.00000000000E+00  0.00000000000E+00  0.11670600009E+03  0.11670600009E+03  0.00000000000E+00 0.  1.
         21   -1    0    0  501  503 -0.00000000000E+00 -0.00000000000E+00 -0.10084544155E+04  0.10084544155E+04  0.00000000000E+00 0.  1.
          6    1    1    2  501    0 -0.83551156912E+00  0.12920393920E+03 -0.88304467577E+03  0.90906064451E+03  0.17300000000E+03 0.  1.
         -6    1    1    2    0  502  0.83551156912E+00 -0.12920393920E+03 -0.87037396666E+01  0.21609977110E+03  0.17300000000E+03 0.  1.
<mgrwt>
<rscale>  2 0.21592442E+03</rscale>
<asrwt>0</asrwt>
<pdfrwt beam="1">  1       21 0.17954770E-01 0.21592442E+03</pdfrwt>
<pdfrwt beam="2">  1       21 0.15514683E+00 0.21592442E+03</pdfrwt>
<totfact> 0.75733259E+03</totfact>
</mgrwt>
</event>
<event>
 4    1  0.3875622E-001  0.1808612E+03  0.7546771E-02  0.1166972E+00
         21   -1    0    0  501  502  0.00000000000E+00  0.00000000000E+00  0.82429862049E+03  0.82429862049E+03  0.00000000000E+00 0.  1.
         21   -1    0    0  502  503 -0.00000000000E+00 -0.00000000000E+00 -0.39690054345E+02  0.39690054345E+02  0.00000000000E+00 0.  1.
          6    1    1    2  501    0 -0.29265324988E+02 -0.43878222523E+02  0.38660252287E+03  0.42681643402E+03  0.17300000000E+03 0. -1.
         -6    1    1    2    0  503  0.29265324988E+02  0.43878222523E+02  0.39800604327E+03  0.43717224082E+03  0.17300000000E+03 0. -1.
<mgrwt>
<rscale>  2 0.18086116E+03</rscale>
<asrwt>0</asrwt>
<pdfrwt beam="1">  1       21 0.12681516E+00 0.18086116E+03</pdfrwt>
<pdfrwt beam="2">  1       21 0.61061628E-02 0.18086116E+03</pdfrwt>
<totfact> 0.88511829E+04</totfact>
</mgrwt>
</event>
<event>
 4    1  0.3875622E-001  0.1750700E+03  0.7546771E-02  0.1172661E+00
         21   -1    0    0  503  502  0.00000000000E+00  0.00000000000E+00  0.26311917173E+02  0.26311917173E+02  0.00000000000E+00 0.  1.
         21   -1    0    0  501  503 -0.00000000000E+00 -0.00000000000E+00 -0.13316013121E+04  0.13316013121E+04  0.00000000000E+00 0.  1.
          6    1    1    2  501    0 -0.14841146567E+02 -0.22366459161E+02 -0.89290693505E+03  0.90990785951E+03  0.17300000000E+03 0.  1.
         -6    1    1    2    0  502  0.14841146567E+02  0.22366459161E+02 -0.41238245985E+03  0.44800536975E+03  0.17300000000E+03 0.  1.
<mgrwt>
<rscale>  2 0.17507004E+03</rscale>
<asrwt>0</asrwt>
<pdfrwt beam="1">  1       21 0.40479869E-02 0.17507004E+03</pdfrwt>
<pdfrwt beam="2">  1       21 0.20486176E+00 0.17507004E+03</pdfrwt>
<totfact> 0.48596630E+04</totfact>
</mgrwt>
</event>
<event>
 4    1  0.3875622E-001  0.2638318E+03  0.7546771E-02  0.1104863E+00
         21   -1    0    0  503  502  0.00000000000E+00  0.00000000000E+00  0.22201920122E+03  0.22201920122E+03  0.00000000000E+00 0. -1.
         21   -1    0    0  501  503 -0.00000000000E+00 -0.00000000000E+00 -0.31784148046E+03  0.31784148046E+03  0.00000000000E+00 0. -1.
          6    1    1    2  501    0 -0.12635789232E+03 -0.15398670133E+03 -0.16432443277E+02  0.26434304668E+03  0.17300000000E+03 0. -1.
         -6    1    1    2    0  502  0.12635789232E+03  0.15398670133E+03 -0.79389835972E+02  0.27551763500E+03  0.17300000000E+03 0. -1.
<mgrwt>
<rscale>  2 0.26383180E+03</rscale>
<asrwt>0</asrwt>
<pdfrwt beam="1">  1       21 0.34156800E-01 0.26383180E+03</pdfrwt>
<pdfrwt beam="2">  1       21 0.48898689E-01 0.26383180E+03</pdfrwt>
<totfact> 0.31857575E+04</totfact>
</mgrwt>
</event>
<event>
 4    1  0.3875622E-001  0.2558647E+03  0.7546771E-02  0.1109654E+00
         21   -1    0    0  501  502  0.00000000000E+00  0.00000000000E+00  0.13581575583E+03  0.13581575583E+03  0.00000000000E+00 0.  1.
         21   -1    0    0  502  503 -0.00000000000E+00 -0.00000000000E+00 -0.51848008070E+03  0.51848008070E+03  0.00000000000E+00 0. -1.
          6    1    1    2  501    0 -0.13018357631E+03 -0.13634502931E+03 -0.27807846596E+03  0.37788141498E+03  0.17300000000E+03 0. -1.
         -6    1    1    2    0  503  0.13018357631E+03  0.13634502931E+03 -0.10458585890E+03  0.27641442155E+03  0.17300000000E+03 0.  1.
<mgrwt>
<rscale>  2 0.25586467E+03</rscale>
<asrwt>0</asrwt>
<pdfrwt beam="1">  1       21 0.20894732E-01 0.25586467E+03</pdfrwt>
<pdfrwt beam="2">  1       21 0.79766166E-01 0.25586467E+03</pdfrwt>
<totfact> 0.28513760E+04</totfact>
</mgrwt>
</event>
<event>
 4    1  0.3875622E-001  0.1940631E+03  0.7546771E-02  0.1154847E+00
         21   -1    0    0  501  502  0.00000000000E+00  0.00000000000E+00  0.44820465436E+02  0.44820465436E+02  0.00000000000E+00 0. -1.
         21   -1    0    0  502  503 -0.00000000000E+00 -0.00000000000E+00 -0.91307437255E+03  0.91307437255E+03  0.00000000000E+00 0.  1.
          6    1    1    2  501    0 -0.43567705736E+02  0.76376376517E+02 -0.56938605479E+03  0.60154881369E+03  0.17300000000E+03 0.  1.
         -6    1    1    2    0  503  0.43567705736E+02 -0.76376376517E+02 -0.29886785233E+03  0.35634602429E+03  0.17300000000E+03 0. -1.
<mgrwt>
<rscale>  2 0.19406312E+03</rscale>
<asrwt>0</asrwt>
<pdfrwt beam="1">  1       21 0.68954570E-02 0.19406312E+03</pdfrwt>
<pdfrwt beam="2">  1       21 0.14047297E+00 0.19406312E+03</pdfrwt>
<totfact> 0.55029670E+04</totfact>
</mgrwt>
</event>
<event>
 4    1  0.3875622E-001  0.1866130E+03  0.7546771E-02  0.1161552E+00
         21   -1    0    0  503  502  0.00000000000E+00  0.00000000000E+00  0.12000645379E+03  0.12000645379E+03  0.00000000000E+00 0. -1.
         21   -1    0    0  501  503 -0.00000000000E+00 -0.00000000000E+00 -0.29143282326E+03  0.29143282326E+03  0.00000000000E+00 0. -1.
          6    1    1    2  501    0 -0.56879855139E+02 -0.40744230121E+02 -0.72267181209E+02  0.20011735479E+03  0.17300000000E+03 0.  1.
         -6    1    1    2    0  502  0.56879855139E+02  0.40744230121E+02 -0.99159188264E+02  0.21132192226E+03  0.17300000000E+03 0.  1.
<mgrwt>
<rscale>  2 0.18661300E+03</rscale>
<asrwt>0</asrwt>
<pdfrwt beam="1">  1       21 0.18462531E-01 0.18661300E+03</pdfrwt>
<pdfrwt beam="2">  1       21 0.44835819E-01 0.18661300E+03</pdfrwt>
<totfact> 0.12815962E+05</totfact>
</mgrwt>
</event>
<event>
 4    1  0.3875622E-001  0.1876883E+03  0.7546771E-02  0.1160563E+00
         21   -1    0    0  503  502  0.00000000000E+00  0.00000000000E+00  0.74194523142E+03  0.74194523142E+03  0.00000000000E+00 0.  1.
         21   -1    0    0  501  503 -0.00000000000E+00 -0.00000000000E+00 -0.52907317106E+02  0.52907317106E+02  0.00000000000E+00 0.  1.
          6    1    1    2  501    0  0.26569231174E+02 -0.67764239675E+02  0.21721966303E+03  0.28707368084E+03  0.17300000000E+03 0.  1.
         -6    1    1    2    0  502 -0.26569231174E+02  0.67764239675E+02  0.47181825128E+03  0.50777886768E+03  0.17300000000E+03 0.  1.
<mgrwt>
<rscale>  2 0.18768835E+03</rscale>
<asrwt>0</asrwt>
<pdfrwt beam="1">  1       21 0.11414541E+00 0.18768835E+03</pdfrwt>
<pdfrwt beam="2">  1       21 0.81395878E-02 0.18768835E+03</pdfrwt>
<totfact> 0.69678710E+04</totfact>
</mgrwt>
</event>
<event>
 4    1  0.3875622E-001  0.1737916E+03  0.7546771E-02  0.1173951E+00
         21   -1    0    0  503  502  0.00000000000E+00  0.00000000000E+00  0.51337044228E+03  0.51337044228E+03  0.00000000000E+00 0.  1.
         21   -1    0    0  501  503 -0.00000000000E+00 -0.00000000000E+00 -0.87577354401E+02  0.87577354401E+02  0.00000000000E+00 0.  1.
          6    1    1    2  501    0  0.13093460386E+02  0.10152498648E+02  0.40756701867E+02  0.17850664044E+03  0.17300000000E+03 0. -1.
         -6    1    1    2    0  502 -0.13093460386E+02 -0.10152498648E+02  0.38503638601E+03  0.42244115624E+03  0.17300000000E+03 0. -1.
<mgrwt>
<rscale>  2 0.17379158E+03</rscale>
<asrwt>0</asrwt>
<pdfrwt beam="1">  1       21 0.78980067E-01 0.17379158E+03</pdfrwt>
<pdfrwt beam="2">  1       21 0.13473439E-01 0.17379158E+03</pdfrwt>
<totfact> 0.68043748E+04</totfact>
</mgrwt>
</event>
<event>
 4    1  0.3875622E-001  0.1753671E+03  0.7546771E-02  0.1172364E+00
         21   -1    0    0  501  502  0.00000000000E+00  0.00000000000E+00  0.36610423997E+02  0.36610423997E+02  0.00000000000E+00 0.  1.
         21   -1    0    0  502  503 -0.00000000000E+00 -0.00000000000E+00 -0.10504211504E+04  0.10504211504E+04  0.00000000000E+00 0.  1.
          6    1    1    2  501    0  0.10037355168E+02  0.26905124379E+02 -0.26365674728E+03  0.31665204026E+03  0.17300000000E+03 0.  1.
         -6    1    1    2    0  503 -0.10037355168E+02 -0.26905124379E+02 -0.75015397908E+03  0.77037953409E+03  0.17300000000E+03 0.  1.
<mgrwt>
<rscale>  2 0.17536714E+03</rscale>
<asrwt>0</asrwt>
<pdfrwt beam="1">  1       21 0.56323733E-02 0.17536714E+03</pdfrwt>
<pdfrwt beam="2">  1       21 0.16160324E+00 0.17536714E+03</pdfrwt>
<totfact> 0.54361077E+04</totfact>
</mgrwt>
</event>
<event>
 4    1  0.3875622E-001  0.1905032E+03  0.7546771E-02  0.1158008E+00
         21   -1    0    0  503  502  0.00000000000E+00  0.00000000000E+00  0.42607791807E+03  0.42607791807E+03  0.00000000000E+00 0. -1.
         21   -1    0    0  501  503 -0.00000000000E+00 -0.00000000000E+00 -0.90237338933E+02  0.90237338933E+02  0.00000000000E+00 0. -1.
          6    1    1    2  501    0 -0.63513876144E+02 -0.48253924880E+02  0.10677816224E+03  0.21838733860E+03  0.17300000000E+03 0. -1.
         -6    1    1    2    0  502  0.63513876144E+02  0.48253924880E+02  0.22906241690E+03  0.29792791841E+03  0.17300000000E+03 0. -1.
<mgrwt>
<rscale>  2 0.19050316E+03</rscale>
<asrwt>0</asrwt>
<pdfrwt beam="1">  1       21 0.65550448E-01 0.19050316E+03</pdfrwt>
<pdfrwt beam="2">  1       21 0.13882668E-01 0.19050316E+03</pdfrwt>
<totfact> 0.96690130E+04</totfact>
</mgrwt>
</event>
