<event>
 4    5  0.2473208E-007  0.8450609E+03  0.7818608E-02  0.9620710E-01
          2   -1    0    0  501    0  0.00000000000E+00  0.00000000000E+00  0.98165282134E+03  0.98165282135E+03  0.25500000000E-02 0. -1.
         -2   -1    0    0    0  501 -0.00000000000E+00 -0.00000000000E+00 -0.14242139043E+04  0.14242139043E+04  0.25500000000E-02 0.  1.
    8880023    1    1    2    0    0 -0.50486504669E+03  0.15946497663E+03 -0.12008996343E+04  0.14684304314E+04  0.65864270000E+03 0.  1.
    8880022    1    1    2    0    0  0.50486504669E+03 -0.15946497663E+03  0.75833855135E+03  0.93743629417E+03  0.15294330000E+03 0.  0.
<mgrwt>
<rscale>  0 0.75940475E+03</rscale>
<asrwt>0</asrwt>
<pdfrwt beam="1">  1        2 0.15102351E+00 0.84506094E+03</pdfrwt>
<pdfrwt beam="2">  1       -2 0.21910983E+00 0.84506094E+03</pdfrwt>
<totfact> 0.26258940E+00</totfact>
</mgrwt>
</event>
<event>
 4    5  0.2473208E-007  0.8488806E+03  0.7818608E-02  0.9613657E-01
         -2   -1    0    0    0  501 -0.00000000000E+00  0.00000000000E+00  0.61736217846E+03  0.61736217846E+03  0.25500000000E-02 0.  1.
          2   -1    0    0  501    0  0.00000000000E+00 -0.00000000000E+00 -0.20796403045E+04  0.20796403045E+04  0.25500000000E-02 0. -1.
    8880023    1    1    2    0    0 -0.53136404233E+03 -0.66635257632E+02  0.25928323007E+03  0.88759563017E+03  0.65864270000E+03 0.  0.
    8880022    1    1    2    0    0  0.53136404233E+03  0.66635257632E+02 -0.17215613561E+04  0.18094068528E+04  0.15294330000E+03 0. -1.
<mgrwt>
<rscale>  0 0.76398812E+03</rscale>
<asrwt>0</asrwt>
<pdfrwt beam="1">  1        2 0.31994466E+00 0.84888056E+03</pdfrwt>
<pdfrwt beam="2">  1       -2 0.94978798E-01 0.84888056E+03</pdfrwt>
<totfact> 0.57496852E+00</totfact>
</mgrwt>
</event>
<event>
 4    5  0.2473208E-007  0.1136807E+04  0.7818608E-02  0.9221142E-01
         -2   -1    0    0    0  501 -0.00000000000E+00  0.00000000000E+00  0.38018771436E+03  0.38018771436E+03  0.25500000000E-02 0.  1.
          2   -1    0    0  501    0  0.00000000000E+00 -0.00000000000E+00 -0.29679849046E+04  0.29679849046E+04  0.25500000000E-02 0. -1.
    8880023    1    1    2    0    0  0.91834705752E+03 -0.12311771882E+03 -0.17660620658E+04  0.21003106240E+04  0.65864270000E+03 0.  0.
    8880022    1    1    2    0    0 -0.91834705752E+03  0.12311771882E+03 -0.82173512445E+03  0.12478619950E+04  0.15294330000E+03 0.  0.
<mgrwt>
<rscale>  0 0.10837848E+04</rscale>
<asrwt>0</asrwt>
<pdfrwt beam="1">  1        2 0.45661305E+00 0.11368067E+04</pdfrwt>
<pdfrwt beam="2">  1       -2 0.58490419E-01 0.11368067E+04</pdfrwt>
<totfact> 0.50022786E+00</totfact>
</mgrwt>
</event>
<event>
 4    5  0.2473208E-007  0.9657093E+03  0.7818608E-02  0.9427863E-01
          2   -1    0    0  501    0  0.00000000000E+00  0.00000000000E+00  0.12396000388E+04  0.12396000388E+04  0.25500000000E-02 0. -1.
         -2   -1    0    0    0  501 -0.00000000000E+00 -0.00000000000E+00 -0.58762557738E+03  0.58762557738E+03  0.25500000000E-02 0.  1.
    8880023    1    1    2    0    0 -0.17648904035E+03  0.68383910193E+03  0.23868461907E+03  0.99476874314E+03  0.65864270000E+03 0.  0.
    8880022    1    1    2    0    0  0.17648904035E+03 -0.68383910193E+03  0.41328984237E+03  0.83245687307E+03  0.15294330000E+03 0.  0.
<mgrwt>
<rscale>  0 0.89817700E+03</rscale>
<asrwt>0</asrwt>
<pdfrwt beam="1">  1        2 0.19070770E+00 0.96570933E+03</pdfrwt>
<pdfrwt beam="2">  1       -2 0.90403935E-01 0.96570933E+03</pdfrwt>
<totfact> 0.18726121E+01</totfact>
</mgrwt>
</event>
<event>
 4    5  0.2473208E-007  0.1369889E+04  0.7818608E-02  0.9007440E-01
         -2   -1    0    0    0  501 -0.00000000000E+00  0.00000000000E+00  0.22473141286E+04  0.22473141286E+04  0.25500000000E-02 0.  1.
          2   -1    0    0  501    0  0.00000000000E+00 -0.00000000000E+00 -0.11376627190E+04  0.11376627190E+04  0.25500000000E-02 0. -1.
    8880023    1    1    2    0    0 -0.10763585644E+04 -0.53313882318E+03 -0.42115941006E+03  0.14331678963E+04  0.65864270000E+03 0.  0.
    8880022    1    1    2    0    0  0.10763585644E+04  0.53313882318E+03  0.15308108196E+04  0.19518089514E+04  0.15294330000E+03 0.  0.
<mgrwt>
<rscale>  0 0.13282727E+04</rscale>
<asrwt>0</asrwt>
<pdfrwt beam="1">  1        2 0.17502503E+00 0.13698887E+04</pdfrwt>
<pdfrwt beam="2">  1       -2 0.34574063E+00 0.13698887E+04</pdfrwt>
<totfact> 0.32838234E-01</totfact>
</mgrwt>
</event>
<event>
 4    5  0.2473208E-007  0.6964762E+03  0.7818608E-02  0.1001215E+00
         -2   -1    0    0    0  501 -0.00000000000E+00  0.00000000000E+00  0.39981121755E+03  0.39981121755E+03  0.25500000000E-02 0.  1.
          2   -1    0    0  501    0  0.00000000000E+00 -0.00000000000E+00 -0.88641303507E+03  0.88641303507E+03  0.25500000000E-02 0. -1.
    8880023    1    1    2    0    0  0.22529559122E+03 -0.22599760490E+02  0.35034454607E+02  0.69735677517E+03  0.65864270000E+03 0.  0.
    8880022    1    1    2    0    0 -0.22529559122E+03  0.22599760490E+02 -0.52163627213E+03  0.58886747746E+03  0.15294330000E+03 0.  0.
<mgrwt>
<rscale>  0 0.55120870E+03</rscale>
<asrwt>0</asrwt>
<pdfrwt beam="1">  1        2 0.13637124E+00 0.69647617E+03</pdfrwt>
<pdfrwt beam="2">  1       -2 0.61509418E-01 0.69647617E+03</pdfrwt>
<totfact> 0.74904191E+01</totfact>
</mgrwt>
</event>
<event>
 4    5  0.2473208E-007  0.6871180E+03  0.7818608E-02  0.1005554E+00
          2   -1    0    0  501    0  0.00000000000E+00  0.00000000000E+00  0.36946030980E+03  0.36946030981E+03  0.25500000000E-02 0. -1.
         -2   -1    0    0    0  501 -0.00000000000E+00 -0.00000000000E+00 -0.13988810324E+04  0.13988810324E+04  0.25500000000E-02 0.  1.
    8880023    1    1    2    0    0 -0.95546313052E+02 -0.17085614466E+03 -0.12562870197E+04  0.14319176660E+04  0.65864270000E+03 0.  1.
    8880022    1    1    2    0    0  0.95546313052E+02  0.17085614466E+03  0.22686629712E+03  0.33642367618E+03  0.15294330000E+03 0.  0.
<mgrwt>
<rscale>  0 0.53280733E+03</rscale>
<asrwt>0</asrwt>
<pdfrwt beam="1">  1        2 0.56840048E-01 0.68711799E+03</pdfrwt>
<pdfrwt beam="2">  1       -2 0.21521246E+00 0.68711799E+03</pdfrwt>
<totfact> 0.94772484E+00</totfact>
</mgrwt>
</event>
<event>
 4    5  0.2473208E-007  0.8200342E+03  0.7818608E-02  0.9669043E-01
          2   -1    0    0  501    0  0.00000000000E+00  0.00000000000E+00  0.18591039179E+04  0.18591039179E+04  0.25500000000E-02 0. -1.
         -2   -1    0    0    0  501 -0.00000000000E+00 -0.00000000000E+00 -0.39959090147E+03  0.39959090148E+03  0.25500000000E-02 0.  1.
    8880023    1    1    2    0    0 -0.46337393972E+03 -0.15469468575E+03  0.12517127767E+03  0.82953234345E+03  0.65864270000E+03 0.  0.
    8880022    1    1    2    0    0  0.46337393972E+03  0.15469468575E+03  0.13343417388E+04  0.14291624760E+04  0.15294330000E+03 0.  0.
<mgrwt>
<rscale>  0 0.72890243E+03</rscale>
<asrwt>0</asrwt>
<pdfrwt beam="1">  1        2 0.28601599E+00 0.82003418E+03</pdfrwt>
<pdfrwt beam="2">  1       -2 0.61475524E-01 0.82003418E+03</pdfrwt>
<totfact> 0.20109456E+01</totfact>
</mgrwt>
</event>
<event>
 4    5  0.2473208E-007  0.8250786E+03  0.7818608E-02  0.9658985E-01
         -2   -1    0    0    0  501 -0.00000000000E+00  0.00000000000E+00  0.22095333531E+03  0.22095333533E+03  0.25500000000E-02 0.  1.
          2   -1    0    0  501    0  0.00000000000E+00 -0.00000000000E+00 -0.26998250146E+04  0.26998250146E+04  0.25500000000E-02 0. -1.
    8880023    1    1    2    0    0  0.44127625755E+02 -0.49497192566E+03 -0.21566508960E+04  0.23090902425E+04  0.65864270000E+03 0.  0.
    8880022    1    1    2    0    0 -0.44127625755E+02  0.49497192566E+03 -0.32222078325E+03  0.61168810738E+03  0.15294330000E+03 0.  0.
<mgrwt>
<rscale>  0 0.73512212E+03</rscale>
<asrwt>0</asrwt>
<pdfrwt beam="1">  1        2 0.41535767E+00 0.82507858E+03</pdfrwt>
<pdfrwt beam="2">  1       -2 0.33992823E-01 0.82507858E+03</pdfrwt>
<totfact> 0.22344192E+01</totfact>
</mgrwt>
</event>
<event>
 4    5  0.2473208E-007  0.9153976E+03  0.7818608E-02  0.9501752E-01
          2   -1    0    0  501    0  0.00000000000E+00  0.00000000000E+00  0.16676031148E+04  0.16676031148E+04  0.25500000000E-02 0. -1.
         -2   -1    0    0    0  501 -0.00000000000E+00 -0.00000000000E+00 -0.89697241581E+03  0.89697241582E+03  0.25500000000E-02 0.  1.
    8880023    1    1    2    0    0  0.61334495779E+03 -0.16718382858E+03 -0.56623698103E+03  0.10763721451E+04  0.65864270000E+03 0.  0.
    8880022    1    1    2    0    0 -0.61334495779E+03  0.16718382858E+03  0.13368676800E+04  0.14882033855E+04  0.15294330000E+03 0.  0.
<mgrwt>
<rscale>  0 0.84154755E+03</rscale>
<asrwt>0</asrwt>
<pdfrwt beam="1">  1        2 0.25655432E+00 0.91539755E+03</pdfrwt>
<pdfrwt beam="2">  1       -2 0.13799576E+00 0.91539755E+03</pdfrwt>
<totfact> 0.38305937E+00</totfact>
</mgrwt>
</event>
<event>
 4    5  0.2473208E-007  0.6600342E+03  0.7818608E-02  0.1024121E+00
          2   -1    0    0  501    0  0.00000000000E+00  0.00000000000E+00  0.11552250223E+04  0.11552250223E+04  0.25500000000E-02 0. -1.
         -2   -1    0    0    0  501 -0.00000000000E+00 -0.00000000000E+00 -0.21365755193E+03  0.21365755195E+03  0.25500000000E-02 0.  1.
    8880023    1    1    2    0    0  0.38821289377E+02  0.18107850224E+02  0.33174345108E+03  0.73871436317E+03  0.65864270000E+03 0.  1.
    8880022    1    1    2    0    0 -0.38821289377E+02 -0.18107850224E+02  0.60982401924E+03  0.63016821104E+03  0.15294330000E+03 0.  0.
<mgrwt>
<rscale>  0 0.46228231E+03</rscale>
<asrwt>0</asrwt>
<pdfrwt beam="1">  1        2 0.17772693E+00 0.66003424E+03</pdfrwt>
<pdfrwt beam="2">  1       -2 0.32870393E-01 0.66003424E+03</pdfrwt>
<totfact> 0.17717507E+02</totfact>
</mgrwt>
</event>
<event>
 4    5  0.2473208E-007  0.6589600E+03  0.7818608E-02  0.1025248E+00
         -2   -1    0    0    0  501 -0.00000000000E+00  0.00000000000E+00  0.15190581073E+03  0.15190581075E+03  0.25500000000E-02 0.  1.
          2   -1    0    0  501    0  0.00000000000E+00 -0.00000000000E+00 -0.12052192772E+04  0.12052192772E+04  0.25500000000E-02 0. -1.
    8880023    1    1    2    0    0 -0.53109533526E+00 -0.20441351378E+02 -0.65127436111E+03  0.92649157072E+03  0.65864270000E+03 0.  1.
    8880022    1    1    2    0    0  0.53109533526E+00  0.20441351378E+02 -0.40203910533E+03  0.43063351720E+03  0.15294330000E+03 0.  0.
<mgrwt>
<rscale>  0 0.45839381E+03</rscale>
<asrwt>0</asrwt>
<pdfrwt beam="1">  1        2 0.18541834E+00 0.65896004E+03</pdfrwt>
<pdfrwt beam="2">  1       -2 0.23370125E-01 0.65896004E+03</pdfrwt>
<totfact> 0.30894766E+02</totfact>
</mgrwt>
</event>
<event>
 4    5  0.2473208E-007  0.8108788E+03  0.7818608E-02  0.9687749E-01
          2   -1    0    0  501    0  0.00000000000E+00  0.00000000000E+00  0.16760538660E+04  0.16760538660E+04  0.25500000000E-02 0. -1.
         -2   -1    0    0    0  501 -0.00000000000E+00 -0.00000000000E+00 -0.12202075653E+04  0.12202075653E+04  0.25500000000E-02 0.  1.
    8880023    1    1    2    0    0  0.39534627787E+03 -0.25964502207E+03 -0.10407030436E+04  0.13193131728E+04  0.65864270000E+03 0.  1.
    8880022    1    1    2    0    0 -0.39534627787E+03  0.25964502207E+03  0.14965493443E+04  0.15769482585E+04  0.15294330000E+03 0.  0.
<mgrwt>
<rscale>  0 0.71750898E+03</rscale>
<asrwt>0</asrwt>
<pdfrwt beam="1">  1        2 0.25785444E+00 0.81087880E+03</pdfrwt>
<pdfrwt beam="2">  1       -2 0.18772424E+00 0.81087880E+03</pdfrwt>
<totfact> 0.16615312E+00</totfact>
</mgrwt>
</event>
<event>
 4    5  0.2473208E-007  0.1475652E+04  0.7818608E-02  0.8927023E-01
          2   -1    0    0  501    0  0.00000000000E+00  0.00000000000E+00  0.21668580360E+04  0.21668580360E+04  0.25500000000E-02 0. -1.
         -2   -1    0    0    0  501 -0.00000000000E+00 -0.00000000000E+00 -0.10422701822E+04  0.10422701822E+04  0.25500000000E-02 0.  1.
    8880023    1    1    2    0    0  0.12522728257E+04 -0.41898798502E+03  0.12095760876E+02  0.14757014181E+04  0.65864270000E+03 0.  0.
    8880022    1    1    2    0    0 -0.12522728257E+04  0.41898798502E+03  0.11124920929E+04  0.17334268001E+04  0.15294330000E+03 0.  0.
<mgrwt>
<rscale>  0 0.14376279E+04</rscale>
<asrwt>0</asrwt>
<pdfrwt beam="1">  1        2 0.33336277E+00 0.14756518E+04</pdfrwt>
<pdfrwt beam="2">  1       -2 0.16034926E+00 0.14756518E+04</pdfrwt>
<totfact> 0.12757629E+00</totfact>
</mgrwt>
</event>
<event>
 4    5  0.2473208E-007  0.1458070E+04  0.7818608E-02  0.8939826E-01
         -2   -1    0    0    0  501 -0.00000000000E+00  0.00000000000E+00  0.14533651636E+04  0.14533651636E+04  0.25500000000E-02 0.  1.
          2   -1    0    0  501    0  0.00000000000E+00 -0.00000000000E+00 -0.16011586920E+04  0.16011586920E+04  0.25500000000E-02 0. -1.
    8880023    1    1    2    0    0 -0.12758176979E+04  0.25386321915E+03  0.56455995818E+03  0.15635522009E+04  0.65864270000E+03 0.  0.
    8880022    1    1    2    0    0  0.12758176979E+04 -0.25386321915E+03 -0.71235348654E+03  0.14909716547E+04  0.15294330000E+03 0.  0.
<mgrwt>
<rscale>  0 0.14194958E+04</rscale>
<asrwt>0</asrwt>
<pdfrwt beam="1">  1        2 0.24633211E+00 0.14580698E+04</pdfrwt>
<pdfrwt beam="2">  1       -2 0.22359464E+00 0.14580698E+04</pdfrwt>
<totfact> 0.98594024E-01</totfact>
</mgrwt>
</event>
<event>
 4    5  0.2473208E-007  0.9782632E+03  0.7818608E-02  0.9410565E-01
          2   -1    0    0  501    0  0.00000000000E+00  0.00000000000E+00  0.15671106945E+04  0.15671106945E+04  0.25500000000E-02 0. -1.
         -2   -1    0    0    0  501 -0.00000000000E+00 -0.00000000000E+00 -0.53410227603E+03  0.53410227604E+03  0.25500000000E-02 0.  1.
    8880023    1    1    2    0    0 -0.66521530755E+03 -0.28403735688E+03  0.22072028955E+03  0.10028540661E+04  0.65864270000E+03 0.  0.
    8880022    1    1    2    0    0  0.66521530755E+03  0.28403735688E+03  0.81228812895E+03  0.10983589044E+04  0.15294330000E+03 0.  1.
<mgrwt>
<rscale>  0 0.91211274E+03</rscale>
<asrwt>0</asrwt>
<pdfrwt beam="1">  1        2 0.24109395E+00 0.97826317E+03</pdfrwt>
<pdfrwt beam="2">  1       -2 0.82169581E-01 0.97826317E+03</pdfrwt>
<totfact> 0.15133951E+01</totfact>
</mgrwt>
</event>
<event>
 4    5  0.2473208E-007  0.6744182E+03  0.7818608E-02  0.1012676E+00
         -2   -1    0    0    0  501 -0.00000000000E+00  0.00000000000E+00  0.33852755710E+03  0.33852755711E+03  0.25500000000E-02 0.  1.
          2   -1    0    0  501    0  0.00000000000E+00 -0.00000000000E+00 -0.91713531406E+03  0.91713531407E+03  0.25500000000E-02 0. -1.
    8880023    1    1    2    0    0 -0.12434218304E+02  0.14448222816E+03 -0.38073981106E+02  0.67549208607E+03  0.65864270000E+03 0.  1.
    8880022    1    1    2    0    0  0.12434218304E+02 -0.14448222816E+03 -0.54053377586E+03  0.58017078511E+03  0.15294330000E+03 0.  0.
<mgrwt>
<rscale>  0 0.50425007E+03</rscale>
<asrwt>0</asrwt>
<pdfrwt beam="1">  1        2 0.14109774E+00 0.67441822E+03</pdfrwt>
<pdfrwt beam="2">  1       -2 0.52081163E-01 0.67441822E+03</pdfrwt>
<totfact> 0.10122766E+02</totfact>
</mgrwt>
</event>
<event>
 4    5  0.2473208E-007  0.8805673E+03  0.7818608E-02  0.9557976E-01
         -2   -1    0    0    0  501 -0.00000000000E+00  0.00000000000E+00  0.21505421875E+03  0.21505421876E+03  0.25500000000E-02 0.  1.
          2   -1    0    0  501    0  0.00000000000E+00 -0.00000000000E+00 -0.33568305701E+04  0.33568305701E+04  0.25500000000E-02 0. -1.
    8880023    1    1    2    0    0 -0.25387434938E+03  0.52643739728E+03 -0.93698916366E+03  0.12858255782E+04  0.65864270000E+03 0.  1.
    8880022    1    1    2    0    0  0.25387434938E+03 -0.52643739728E+03 -0.22047871877E+04  0.22860592106E+04  0.15294330000E+03 0.  0.
<mgrwt>
<rscale>  0 0.80141149E+03</rscale>
<asrwt>0</asrwt>
<pdfrwt beam="1">  1        2 0.51643543E+00 0.88056727E+03</pdfrwt>
<pdfrwt beam="2">  1       -2 0.33085267E-01 0.88056727E+03</pdfrwt>
<totfact> 0.91410604E+00</totfact>
</mgrwt>
</event>
<event>
 4    5  0.2473208E-007  0.6610211E+03  0.7818608E-02  0.1023134E+00
          2   -1    0    0  501    0  0.00000000000E+00  0.00000000000E+00  0.96470949178E+03  0.96470949178E+03  0.25500000000E-02 0. -1.
         -2   -1    0    0    0  501 -0.00000000000E+00 -0.00000000000E+00 -0.23530531668E+03  0.23530531669E+03  0.25500000000E-02 0.  1.
    8880023    1    1    2    0    0 -0.40873590695E+02  0.38314510160E+02  0.27257145746E+03  0.71501332700E+03  0.65864270000E+03 0.  1.
    8880022    1    1    2    0    0  0.40873590695E+02 -0.38314510160E+02  0.45683271764E+03  0.48500148147E+03  0.15294330000E+03 0.  0.
<mgrwt>
<rscale>  0 0.46572469E+03</rscale>
<asrwt>0</asrwt>
<pdfrwt beam="1">  1        2 0.14841684E+00 0.66102107E+03</pdfrwt>
<pdfrwt beam="2">  1       -2 0.36200818E-01 0.66102107E+03</pdfrwt>
<totfact> 0.19364680E+02</totfact>
</mgrwt>
</event>
<event>
 4    5  0.2473208E-007  0.6786968E+03  0.7818608E-02  0.1010071E+00
          2   -1    0    0  501    0  0.00000000000E+00  0.00000000000E+00  0.10982952261E+04  0.10982952261E+04  0.25500000000E-02 0. -1.
         -2   -1    0    0    0  501 -0.00000000000E+00 -0.00000000000E+00 -0.68534476739E+03  0.68534476740E+03  0.25500000000E-02 0.  1.
    8880023    1    1    2    0    0  0.16359189687E+03  0.75402601694E+01 -0.50038614335E+03  0.84321744702E+03  0.65864270000E+03 0.  1.
    8880022    1    1    2    0    0 -0.16359189687E+03 -0.75402601694E+01  0.91333660202E+03  0.94042254644E+03  0.15294330000E+03 0.  0.
<mgrwt>
<rscale>  0 0.51446581E+03</rscale>
<asrwt>0</asrwt>
<pdfrwt beam="1">  1        2 0.16896850E+00 0.67869682E+03</pdfrwt>
<pdfrwt beam="2">  1       -2 0.10543766E+00 0.67869682E+03</pdfrwt>
<totfact> 0.16316015E+01</totfact>
</mgrwt>
</event>
<event>
 4    5  0.2473208E-007  0.1287812E+04  0.7818608E-02  0.9076157E-01
          2   -1    0    0  501    0  0.00000000000E+00  0.00000000000E+00  0.12337112127E+04  0.12337112127E+04  0.25500000000E-02 0. -1.
         -2   -1    0    0    0  501 -0.00000000000E+00 -0.00000000000E+00 -0.28548921343E+04  0.28548921343E+04  0.25500000000E-02 0.  1.
    8880023    1    1    2    0    0 -0.88756612195E+03  0.66096585637E+03 -0.24021196854E+04  0.27255529115E+04  0.65864270000E+03 0.  0.
    8880022    1    1    2    0    0  0.88756612195E+03 -0.66096585637E+03  0.78093876378E+03  0.13630504356E+04  0.15294330000E+03 0.  0.
<mgrwt>
<rscale>  0 0.12428478E+04</rscale>
<asrwt>0</asrwt>
<pdfrwt beam="1">  1        2 0.18980172E+00 0.12878120E+04</pdfrwt>
<pdfrwt beam="2">  1       -2 0.43921418E+00 0.12878120E+04</pdfrwt>
<totfact> 0.71861690E-02</totfact>
</mgrwt>
</event>
<event>
 4    5  0.2473208E-007  0.7731836E+03  0.7818608E-02  0.9772099E-01
         -2   -1    0    0    0  501 -0.00000000000E+00  0.00000000000E+00  0.33313115707E+03  0.33313115708E+03  0.25500000000E-02 0.  1.
          2   -1    0    0  501    0  0.00000000000E+00 -0.00000000000E+00 -0.23930428290E+04  0.23930428290E+04  0.25500000000E-02 0. -1.
    8880023    1    1    2    0    0  0.30511087422E+03  0.26628941059E+03 -0.17572835508E+03  0.79290185824E+03  0.65864270000E+03 0.  1.
    8880022    1    1    2    0    0 -0.30511087422E+03 -0.26628941059E+03 -0.18841833168E+04  0.19332721278E+04  0.15294330000E+03 0.  0.
<mgrwt>
<rscale>  0 0.66881583E+03</rscale>
<asrwt>0</asrwt>
<pdfrwt beam="1">  1        2 0.36816042E+00 0.77318361E+03</pdfrwt>
<pdfrwt beam="2">  1       -2 0.51250949E-01 0.77318361E+03</pdfrwt>
<totfact> 0.15020511E+01</totfact>
</mgrwt>
</event>
<event>
 4    5  0.2473208E-007  0.7098908E+03  0.7818608E-02  0.9958407E-01
         -2   -1    0    0    0  501 -0.00000000000E+00  0.00000000000E+00  0.24066472573E+03  0.24066472574E+03  0.25500000000E-02 0.  1.
          2   -1    0    0  501    0  0.00000000000E+00 -0.00000000000E+00 -0.26891417113E+04  0.26891417113E+04  0.25500000000E-02 0. -1.
    8880023    1    1    2    0    0  0.60846843791E+02 -0.25774495526E+03 -0.31863733221E+03  0.77812258424E+03  0.65864270000E+03 0.  1.
    8880022    1    1    2    0    0 -0.60846843791E+02  0.25774495526E+03 -0.21298396534E+04  0.21516838528E+04  0.15294330000E+03 0.  0.
<mgrwt>
<rscale>  0 0.57512267E+03</rscale>
<asrwt>0</asrwt>
<pdfrwt beam="1">  1        2 0.41371409E+00 0.70989084E+03</pdfrwt>
<pdfrwt beam="2">  1       -2 0.37025344E-01 0.70989084E+03</pdfrwt>
<totfact> 0.19595673E+01</totfact>
</mgrwt>
</event>
<event>
 4    5  0.2473208E-007  0.9724809E+03  0.7818608E-02  0.9418481E-01
          2   -1    0    0  501    0  0.00000000000E+00  0.00000000000E+00  0.15222940643E+04  0.15222940643E+04  0.25500000000E-02 0. -1.
         -2   -1    0    0    0  501 -0.00000000000E+00 -0.00000000000E+00 -0.75135566679E+03  0.75135566679E+03  0.25500000000E-02 0.  1.
    8880023    1    1    2    0    0 -0.55538854414E+03 -0.45105698526E+03 -0.26263985862E+03  0.10073225603E+04  0.65864270000E+03 0.  1.
    8880022    1    1    2    0    0  0.55538854414E+03  0.45105698526E+03  0.10335782562E+04  0.12663271708E+04  0.15294330000E+03 0.  1.
<mgrwt>
<rscale>  0 0.90570237E+03</rscale>
<asrwt>0</asrwt>
<pdfrwt beam="1">  1        2 0.23419908E+00 0.97248087E+03</pdfrwt>
<pdfrwt beam="2">  1       -2 0.11559318E+00 0.97248087E+03</pdfrwt>
<totfact> 0.71616885E+00</totfact>
</mgrwt>
</event>
<event>
 4    5  0.2473208E-007  0.1750352E+04  0.7818608E-02  0.8750509E-01
          2   -1    0    0  501    0  0.00000000000E+00  0.00000000000E+00  0.26576424358E+04  0.26576424358E+04  0.25500000000E-02 0. -1.
         -2   -1    0    0    0  501 -0.00000000000E+00 -0.00000000000E+00 -0.12381233370E+04  0.12381233370E+04  0.25500000000E-02 0.  1.
    8880023    1    1    2    0    0 -0.83489421776E+03 -0.13902780792E+04  0.23521405806E+02  0.17505099129E+04  0.65864270000E+03 0.  0.
    8880022    1    1    2    0    0  0.83489421776E+03  0.13902780792E+04  0.13959976930E+04  0.21452558599E+04  0.15294330000E+03 0.  0.
<mgrwt>
<rscale>  0 0.17191651E+04</rscale>
<asrwt>0</asrwt>
<pdfrwt beam="1">  1        2 0.40886806E+00 0.17503519E+04</pdfrwt>
<pdfrwt beam="2">  1       -2 0.19048052E+00 0.17503519E+04</pdfrwt>
<totfact> 0.39690301E-01</totfact>
</mgrwt>
</event>
<event>
 4    5  0.2473208E-007  0.7385249E+03  0.7818608E-02  0.9864265E-01
         -2   -1    0    0    0  501 -0.00000000000E+00  0.00000000000E+00  0.90662907063E+03  0.90662907064E+03  0.25500000000E-02 0.  1.
          2   -1    0    0  501    0  0.00000000000E+00 -0.00000000000E+00 -0.39405586858E+03  0.39405586859E+03  0.25500000000E-02 0. -1.
    8880023    1    1    2    0    0  0.29328623805E+03 -0.15997478531E+03  0.56456843567E+03  0.92960016899E+03  0.65864270000E+03 0.  1.
    8880022    1    1    2    0    0 -0.29328623805E+03  0.15997478531E+03 -0.51995233621E+02  0.37108477024E+03  0.15294330000E+03 0.  0.
<mgrwt>
<rscale>  0 0.62024849E+03</rscale>
<asrwt>0</asrwt>
<pdfrwt beam="1">  1        2 0.60623980E-01 0.73852485E+03</pdfrwt>
<pdfrwt beam="2">  1       -2 0.13948140E+00 0.73852485E+03</pdfrwt>
<totfact> 0.29710065E+01</totfact>
</mgrwt>
</event>
<event>
 4    5  0.2473208E-007  0.6795722E+03  0.7818608E-02  0.1009567E+00
          2   -1    0    0  501    0  0.00000000000E+00  0.00000000000E+00  0.26098828105E+04  0.26098828105E+04  0.25500000000E-02 0. -1.
         -2   -1    0    0    0  501 -0.00000000000E+00 -0.00000000000E+00 -0.40289060202E+03  0.40289060203E+03  0.25500000000E-02 0.  1.
    8880023    1    1    2    0    0 -0.11745307814E+03  0.11921813276E+03 -0.10678888941E+03  0.68791152186E+03  0.65864270000E+03 0.  1.
    8880022    1    1    2    0    0  0.11745307814E+03 -0.11921813276E+03  0.23137810979E+04  0.23248618907E+04  0.15294330000E+03 0.  0.
<mgrwt>
<rscale>  0 0.51647218E+03</rscale>
<asrwt>0</asrwt>
<pdfrwt beam="1">  1        2 0.40152043E+00 0.67957221E+03</pdfrwt>
<pdfrwt beam="2">  1       -2 0.61983170E-01 0.67957221E+03</pdfrwt>
<totfact> 0.77382259E+00</totfact>
</mgrwt>
</event>
<event>
 4    5  0.2473208E-007  0.1687171E+04  0.7818608E-02  0.8787659E-01
         -2   -1    0    0    0  501 -0.00000000000E+00  0.00000000000E+00  0.87767627103E+03  0.87767627103E+03  0.25500000000E-02 0.  1.
          2   -1    0    0  501    0  0.00000000000E+00 -0.00000000000E+00 -0.30938390022E+04  0.30938390022E+04  0.25500000000E-02 0. -1.
    8880023    1    1    2    0    0  0.42053260101E+03 -0.14952890078E+04 -0.81355026370E+03  0.18730753117E+04  0.65864270000E+03 0.  0.
    8880022    1    1    2    0    0 -0.42053260101E+03  0.14952890078E+04 -0.14026124675E+04  0.20984399616E+04  0.15294330000E+03 0.  0.
<mgrwt>
<rscale>  0 0.16546529E+04</rscale>
<asrwt>0</asrwt>
<pdfrwt beam="1">  1        2 0.47597523E+00 0.16871713E+04</pdfrwt>
<pdfrwt beam="2">  1       -2 0.13502712E+00 0.16871713E+04</pdfrwt>
<totfact> 0.55819955E-01</totfact>
</mgrwt>
</event>
<event>
 4    5  0.2473208E-007  0.1251940E+04  0.7818608E-02  0.9108215E-01
          2   -1    0    0  501    0  0.00000000000E+00  0.00000000000E+00  0.18031506241E+04  0.18031506241E+04  0.25500000000E-02 0. -1.
         -2   -1    0    0    0  501 -0.00000000000E+00 -0.00000000000E+00 -0.10047071481E+04  0.10047071481E+04  0.25500000000E-02 0.  1.
    8880023    1    1    2    0    0 -0.27153555109E+03  0.10294716182E+04 -0.28198625092E+03  0.12833042586E+04  0.65864270000E+03 0.  0.
    8880022    1    1    2    0    0  0.27153555109E+03 -0.10294716182E+04  0.10804297269E+04  0.15245535136E+04  0.15294330000E+03 0.  0.
<mgrwt>
<rscale>  0 0.12053169E+04</rscale>
<asrwt>0</asrwt>
<pdfrwt beam="1">  1        2 0.27740779E+00 0.12519399E+04</pdfrwt>
<pdfrwt beam="2">  1       -2 0.15457033E+00 0.12519399E+04</pdfrwt>
<totfact> 0.22979322E+00</totfact>
</mgrwt>
</event>
<event>
 4    5  0.2473208E-007  0.7528480E+03  0.7818608E-02  0.9823988E-01
          2   -1    0    0  501    0  0.00000000000E+00  0.00000000000E+00  0.18559816559E+04  0.18559816559E+04  0.25500000000E-02 0. -1.
         -2   -1    0    0    0  501 -0.00000000000E+00 -0.00000000000E+00 -0.55317867709E+03  0.55317867710E+03  0.25500000000E-02 0.  1.
    8880023    1    1    2    0    0  0.22526761813E+03 -0.28674793773E+03 -0.26048418467E+03  0.79663799576E+03  0.65864270000E+03 0.  1.
    8880022    1    1    2    0    0 -0.22526761813E+03  0.28674793773E+03  0.15632871635E+04  0.16125223373E+04  0.15294330000E+03 0.  0.
<mgrwt>
<rscale>  0 0.64090950E+03</rscale>
<asrwt>0</asrwt>
<pdfrwt beam="1">  1        2 0.28553564E+00 0.75284798E+03</pdfrwt>
<pdfrwt beam="2">  1       -2 0.85104412E-01 0.75284798E+03</pdfrwt>
<totfact> 0.99568134E+00</totfact>
</mgrwt>
</event>
<event>
 4    5  0.2473208E-007  0.1407933E+04  0.7818608E-02  0.8977543E-01
          2   -1    0    0  501    0  0.00000000000E+00  0.00000000000E+00  0.23424509089E+04  0.23424509089E+04  0.25500000000E-02 0. -1.
         -2   -1    0    0    0  501 -0.00000000000E+00 -0.00000000000E+00 -0.12831938343E+04  0.12831938343E+04  0.25500000000E-02 0.  1.
    8880023    1    1    2    0    0 -0.12191233895E+04 -0.24940432789E+03 -0.61300392615E+03  0.15355938191E+04  0.65864270000E+03 0.  1.
    8880022    1    1    2    0    0  0.12191233895E+04  0.24940432789E+03  0.16722610007E+04  0.20900509240E+04  0.15294330000E+03 0.  0.
<mgrwt>
<rscale>  0 0.13676911E+04</rscale>
<asrwt>0</asrwt>
<pdfrwt beam="1">  1        2 0.36037706E+00 0.14079327E+04</pdfrwt>
<pdfrwt beam="2">  1       -2 0.19741444E+00 0.14079327E+04</pdfrwt>
<totfact> 0.56302943E-01</totfact>
</mgrwt>
</event>
<event>
 4    5  0.2473208E-007  0.1378001E+04  0.7818608E-02  0.9000968E-01
         -2   -1    0    0    0  501 -0.00000000000E+00  0.00000000000E+00  0.14631419830E+04  0.14631419830E+04  0.25500000000E-02 0.  1.
          2   -1    0    0  501    0  0.00000000000E+00 -0.00000000000E+00 -0.13854017524E+04  0.13854017524E+04  0.25500000000E-02 0. -1.
    8880023    1    1    2    0    0  0.29090050602E+03 -0.11749269291E+04 -0.54123463180E+03  0.14804801674E+04  0.65864270000E+03 0. -1.
    8880022    1    1    2    0    0 -0.29090050602E+03  0.11749269291E+04  0.61897486237E+03  0.13680635681E+04  0.15294330000E+03 0.  0.
<mgrwt>
<rscale>  0 0.13366865E+04</rscale>
<asrwt>0</asrwt>
<pdfrwt beam="1">  1        2 0.21313873E+00 0.13780009E+04</pdfrwt>
<pdfrwt beam="2">  1       -2 0.22509877E+00 0.13780009E+04</pdfrwt>
<totfact> 0.12901535E+00</totfact>
</mgrwt>
</event>
<event>
 4    5  0.2473208E-007  0.1223701E+04  0.7818608E-02  0.9134421E-01
         -2   -1    0    0    0  501 -0.00000000000E+00  0.00000000000E+00  0.78378199409E+03  0.78378199409E+03  0.25500000000E-02 0.  1.
          2   -1    0    0  501    0  0.00000000000E+00 -0.00000000000E+00 -0.28944150166E+04  0.28944150166E+04  0.25500000000E-02 0. -1.
    8880023    1    1    2    0    0 -0.72099945827E+03 -0.73742297482E+03  0.10632783108E+03  0.12283113109E+04  0.65864270000E+03 0.  0.
    8880022    1    1    2    0    0  0.72099945827E+03  0.73742297482E+03 -0.22169608536E+04  0.24498856998E+04  0.15294330000E+03 0.  0.
<mgrwt>
<rscale>  0 0.11756723E+04</rscale>
<asrwt>0</asrwt>
<pdfrwt beam="1">  1        2 0.44529461E+00 0.12237006E+04</pdfrwt>
<pdfrwt beam="2">  1       -2 0.12058185E+00 0.12237006E+04</pdfrwt>
<totfact> 0.10443733E+00</totfact>
</mgrwt>
</event>
<event>
 4    5  0.2473208E-007  0.1194994E+04  0.7818608E-02  0.9162004E-01
          2   -1    0    0  501    0  0.00000000000E+00  0.00000000000E+00  0.24625363719E+04  0.24625363719E+04  0.25500000000E-02 0. -1.
         -2   -1    0    0    0  501 -0.00000000000E+00 -0.00000000000E+00 -0.50701685568E+03  0.50701685568E+03  0.25500000000E-02 0.  1.
    8880023    1    1    2    0    0  0.99657631333E+03 -0.32196927367E+02  0.81245452261E+03  0.14450237188E+04  0.65864270000E+03 0. -1.
    8880022    1    1    2    0    0 -0.99657631333E+03  0.32196927367E+02  0.11430649936E+04  0.15245295088E+04  0.15294330000E+03 0.  0.
<mgrwt>
<rscale>  0 0.11454367E+04</rscale>
<asrwt>0</asrwt>
<pdfrwt beam="1">  1        2 0.37885175E+00 0.11949942E+04</pdfrwt>
<pdfrwt beam="2">  1       -2 0.78002593E-01 0.11949942E+04</pdfrwt>
<totfact> 0.52825466E+00</totfact>
</mgrwt>
</event>
<event>
 4    5  0.2473208E-007  0.1250394E+04  0.7818608E-02  0.9109627E-01
         -2   -1    0    0    0  501 -0.00000000000E+00  0.00000000000E+00  0.49634794650E+03  0.49634794651E+03  0.25500000000E-02 0.  1.
          2   -1    0    0  501    0  0.00000000000E+00 -0.00000000000E+00 -0.32270108467E+04  0.32270108467E+04  0.25500000000E-02 0. -1.
    8880023    1    1    2    0    0 -0.98267698178E+03  0.40499458138E+03 -0.71726958070E+03  0.14415132740E+04  0.65864270000E+03 0.  0.
    8880022    1    1    2    0    0  0.98267698178E+03 -0.40499458138E+03 -0.20133933195E+04  0.22818455192E+04  0.15294330000E+03 0.  0.
<mgrwt>
<rscale>  0 0.12036963E+04</rscale>
<asrwt>0</asrwt>
<pdfrwt beam="1">  1        2 0.49646319E+00 0.12503939E+04</pdfrwt>
<pdfrwt beam="2">  1       -2 0.76361224E-01 0.12503939E+04</pdfrwt>
<totfact> 0.18942600E+00</totfact>
</mgrwt>
</event>
<event>
 4    5  0.2473208E-007  0.1161040E+04  0.7818608E-02  0.9195957E-01
         -2   -1    0    0    0  501 -0.00000000000E+00  0.00000000000E+00  0.67698963360E+03  0.67698963361E+03  0.25500000000E-02 0.  1.
          2   -1    0    0  501    0  0.00000000000E+00 -0.00000000000E+00 -0.20825103691E+04  0.20825103691E+04  0.25500000000E-02 0. -1.
    8880023    1    1    2    0    0 -0.21898170833E+03 -0.93072534782E+03 -0.13627247274E+04  0.17902601908E+04  0.65864270000E+03 0.  0.
    8880022    1    1    2    0    0  0.21898170833E+03  0.93072534782E+03 -0.42796008030E+02  0.96923981190E+03  0.15294330000E+03 0.  0.
<mgrwt>
<rscale>  0 0.11095251E+04</rscale>
<asrwt>0</asrwt>
<pdfrwt beam="1">  1        2 0.32038621E+00 0.11610396E+04</pdfrwt>
<pdfrwt beam="2">  1       -2 0.10415225E+00 0.11610396E+04</pdfrwt>
<totfact> 0.44274202E+00</totfact>
</mgrwt>
</event>
<event>
 4    5  0.2473208E-007  0.8324807E+03  0.7818608E-02  0.9644525E-01
          2   -1    0    0  501    0  0.00000000000E+00  0.00000000000E+00  0.24003890971E+04  0.24003890971E+04  0.25500000000E-02 0. -1.
         -2   -1    0    0    0  501 -0.00000000000E+00 -0.00000000000E+00 -0.32462093720E+03  0.32462093721E+03  0.25500000000E-02 0.  1.
    8880023    1    1    2    0    0 -0.50909599862E+03  0.59268108243E+01  0.32224118745E+03  0.89267208540E+03  0.65864270000E+03 0.  1.
    8880022    1    1    2    0    0  0.50909599862E+03 -0.59268108243E+01  0.17535269725E+04  0.18323379489E+04  0.15294330000E+03 0.  0.
<mgrwt>
<rscale>  0 0.74418035E+03</rscale>
<asrwt>0</asrwt>
<pdfrwt beam="1">  1        2 0.36929062E+00 0.83248067E+03</pdfrwt>
<pdfrwt beam="2">  1       -2 0.49941684E-01 0.83248067E+03</pdfrwt>
<totfact> 0.15551956E+01</totfact>
</mgrwt>
</event>
<event>
 4    5  0.2473208E-007  0.1078502E+04  0.7818608E-02  0.9285377E-01
          2   -1    0    0  501    0  0.00000000000E+00  0.00000000000E+00  0.26252557871E+04  0.26252557871E+04  0.25500000000E-02 0. -1.
         -2   -1    0    0    0  501 -0.00000000000E+00 -0.00000000000E+00 -0.70680202540E+03  0.70680202540E+03  0.25500000000E-02 0.  1.
    8880023    1    1    2    0    0 -0.60054627675E+03  0.60720748740E+03 -0.15012244206E+03  0.10889002329E+04  0.65864270000E+03 0.  0.
    8880022    1    1    2    0    0  0.60054627675E+03 -0.60720748740E+03  0.20685762038E+04  0.22431575796E+04  0.15294330000E+03 0.  0.
<mgrwt>
<rscale>  0 0.10214027E+04</rscale>
<asrwt>0</asrwt>
<pdfrwt beam="1">  1        2 0.40388550E+00 0.10785022E+04</pdfrwt>
<pdfrwt beam="2">  1       -2 0.10873877E+00 0.10785022E+04</pdfrwt>
<totfact> 0.19853108E+00</totfact>
</mgrwt>
</event>
<event>
 4    5  0.2473208E-007  0.1702908E+04  0.7818608E-02  0.8778235E-01
          2   -1    0    0  501    0  0.00000000000E+00  0.00000000000E+00  0.35410240380E+04  0.35410240380E+04  0.25500000000E-02 0. -1.
         -2   -1    0    0    0  501 -0.00000000000E+00 -0.00000000000E+00 -0.12832845515E+04  0.12832845515E+04  0.25500000000E-02 0.  1.
    8880023    1    1    2    0    0 -0.11976522365E+04 -0.10157329502E+04  0.26941900209E+04  0.31872487165E+04  0.65864270000E+03 0.  0.
    8880022    1    1    2    0    0  0.11976522365E+04  0.10157329502E+04 -0.43645053441E+03  0.16370598730E+04  0.15294330000E+03 0.  0.
<mgrwt>
<rscale>  0 0.16707321E+04</rscale>
<asrwt>0</asrwt>
<pdfrwt beam="1">  1        2 0.54477292E+00 0.17029077E+04</pdfrwt>
<pdfrwt beam="2">  1       -2 0.19742839E+00 0.17029077E+04</pdfrwt>
<totfact> 0.97229698E-02</totfact>
</mgrwt>
</event>
<event>
 4    5  0.2473208E-007  0.1034636E+04  0.7818608E-02  0.9337583E-01
         -2   -1    0    0    0  501 -0.00000000000E+00  0.00000000000E+00  0.75249211478E+03  0.75249211478E+03  0.25500000000E-02 0.  1.
          2   -1    0    0  501    0  0.00000000000E+00 -0.00000000000E+00 -0.22112759252E+04  0.22112759252E+04  0.25500000000E-02 0. -1.
    8880023    1    1    2    0    0  0.79470711881E+03 -0.71428334034E+02  0.25637013982E+03  0.10659255445E+04  0.65864270000E+03 0.  1.
    8880022    1    1    2    0    0 -0.79470711881E+03  0.71428334034E+02 -0.17151539503E+04  0.18978424955E+04  0.15294330000E+03 0.  0.
<mgrwt>
<rscale>  0 0.97395309E+03</rscale>
<asrwt>0</asrwt>
<pdfrwt beam="1">  1        2 0.34019629E+00 0.10346360E+04</pdfrwt>
<pdfrwt beam="2">  1       -2 0.11576802E+00 0.10346360E+04</pdfrwt>
<totfact> 0.29456691E+00</totfact>
</mgrwt>
</event>
<event>
 4    5  0.2473208E-007  0.1497169E+04  0.7818608E-02  0.8911637E-01
         -2   -1    0    0    0  501 -0.00000000000E+00  0.00000000000E+00  0.92815707174E+03  0.92815707174E+03  0.25500000000E-02 0.  1.
          2   -1    0    0  501    0  0.00000000000E+00 -0.00000000000E+00 -0.26183069001E+04  0.26183069001E+04  0.25500000000E-02 0. -1.
    8880023    1    1    2    0    0  0.44946897861E+03  0.12671557117E+04 -0.15985635608E+04  0.21901875775E+04  0.65864270000E+03 0.  0.
    8880022    1    1    2    0    0 -0.44946897861E+03 -0.12671557117E+04 -0.91586267577E+02  0.13562763944E+04  0.15294330000E+03 0.  0.
<mgrwt>
<rscale>  0 0.14597959E+04</rscale>
<asrwt>0</asrwt>
<pdfrwt beam="1">  1        2 0.40281644E+00 0.14971694E+04</pdfrwt>
<pdfrwt beam="2">  1       -2 0.14279340E+00 0.14971694E+04</pdfrwt>
<totfact> 0.95866026E-01</totfact>
</mgrwt>
</event>
<event>
 4    5  0.2473208E-007  0.8676868E+03  0.7818608E-02  0.9580034E-01
         -2   -1    0    0    0  501 -0.00000000000E+00  0.00000000000E+00  0.67458292164E+03  0.67458292165E+03  0.25500000000E-02 0.  1.
          2   -1    0    0  501    0  0.00000000000E+00 -0.00000000000E+00 -0.36441098471E+04  0.36441098471E+04  0.25500000000E-02 0. -1.
    8880023    1    1    2    0    0 -0.43332748969E+03 -0.36234984444E+03  0.35906760679E+03  0.93904732341E+03  0.65864270000E+03 0.  1.
    8880022    1    1    2    0    0  0.43332748969E+03  0.36234984444E+03 -0.33285945322E+04  0.33796454453E+04  0.15294330000E+03 0.  0.
<mgrwt>
<rscale>  0 0.78631895E+03</rscale>
<asrwt>0</asrwt>
<pdfrwt beam="1">  1        2 0.56063227E+00 0.86768677E+03</pdfrwt>
<pdfrwt beam="2">  1       -2 0.10378199E+00 0.86768677E+03</pdfrwt>
<totfact> 0.51681426E-01</totfact>
</mgrwt>
</event>
<event>
 4    5  0.2473208E-007  0.1068142E+04  0.7818608E-02  0.9297384E-01
         -2   -1    0    0    0  501 -0.00000000000E+00  0.00000000000E+00  0.12670973355E+04  0.12670973355E+04  0.25500000000E-02 0.  1.
          2   -1    0    0  501    0  0.00000000000E+00 -0.00000000000E+00 -0.10265244280E+04  0.10265244280E+04  0.25500000000E-02 0. -1.
    8880023    1    1    2    0    0  0.34496788676E+02  0.84019419651E+03 -0.48441792200E+03  0.11728543156E+04  0.65864270000E+03 0.  0.
    8880022    1    1    2    0    0 -0.34496788676E+02 -0.84019419651E+03  0.72499082954E+03  0.11207674479E+04  0.15294330000E+03 0.  0.
<mgrwt>
<rscale>  0 0.10102404E+04</rscale>
<asrwt>0</asrwt>
<pdfrwt beam="1">  1        2 0.15792684E+00 0.10681416E+04</pdfrwt>
<pdfrwt beam="2">  1       -2 0.19493805E+00 0.10681416E+04</pdfrwt>
<totfact> 0.34267301E+00</totfact>
</mgrwt>
</event>
<event>
 4    5  0.2473208E-007  0.1058024E+04  0.7818608E-02  0.9309297E-01
         -2   -1    0    0    0  501 -0.00000000000E+00  0.00000000000E+00  0.91706195324E+03  0.91706195324E+03  0.25500000000E-02 0.  1.
          2   -1    0    0  501    0  0.00000000000E+00 -0.00000000000E+00 -0.17617660955E+04  0.17617660955E+04  0.25500000000E-02 0. -1.
    8880023    1    1    2    0    0 -0.16844142375E+03 -0.81069809064E+03  0.43746242801E+03  0.11448962790E+04  0.65864270000E+03 0.  1.
    8880022    1    1    2    0    0  0.16844142375E+03  0.81069809064E+03 -0.12821665703E+04  0.15339317698E+04  0.15294330000E+03 0.  0.
<mgrwt>
<rscale>  0 0.99931402E+03</rscale>
<asrwt>0</asrwt>
<pdfrwt beam="1">  1        2 0.27104094E+00 0.10580237E+04</pdfrwt>
<pdfrwt beam="2">  1       -2 0.14108645E+00 0.10580237E+04</pdfrwt>
<totfact> 0.31520109E+00</totfact>
</mgrwt>
</event>
<event>
 4    5  0.2473208E-007  0.1416086E+04  0.7818608E-02  0.8971283E-01
         -2   -1    0    0    0  501 -0.00000000000E+00  0.00000000000E+00  0.93591785728E+03  0.93591785728E+03  0.25500000000E-02 0.  1.
          2   -1    0    0  501    0  0.00000000000E+00 -0.00000000000E+00 -0.28449212163E+04  0.28449212163E+04  0.25500000000E-02 0. -1.
    8880023    1    1    2    0    0 -0.72939127947E+03  0.10195484154E+04  0.87122075146E+02  0.14187639241E+04  0.65864270000E+03 0.  1.
    8880022    1    1    2    0    0  0.72939127947E+03 -0.10195484154E+04 -0.19961254341E+04  0.23620751495E+04  0.15294330000E+03 0.  0.
<mgrwt>
<rscale>  0 0.13761266E+04</rscale>
<asrwt>0</asrwt>
<pdfrwt beam="1">  1        2 0.43768018E+00 0.14160864E+04</pdfrwt>
<pdfrwt beam="2">  1       -2 0.14398736E+00 0.14160864E+04</pdfrwt>
<totfact> 0.69323589E-01</totfact>
</mgrwt>
</event>
<event>
 4    5  0.2473208E-007  0.7756467E+03  0.7818608E-02  0.9766164E-01
          2   -1    0    0  501    0  0.00000000000E+00  0.00000000000E+00  0.15548694654E+04  0.15548694655E+04  0.25500000000E-02 0. -1.
         -2   -1    0    0    0  501 -0.00000000000E+00 -0.00000000000E+00 -0.87674973823E+03  0.87674973824E+03  0.25500000000E-02 0.  1.
    8880023    1    1    2    0    0 -0.50076128373E+02 -0.40658336220E+03 -0.66338854178E+03  0.10206430388E+04  0.65864270000E+03 0.  1.
    8880022    1    1    2    0    0  0.50076128373E+02  0.40658336220E+03  0.13415082690E+04  0.14109761649E+04  0.15294330000E+03 0.  0.
<mgrwt>
<rscale>  0 0.67210419E+03</rscale>
<asrwt>0</asrwt>
<pdfrwt beam="1">  1        2 0.23921069E+00 0.77564673E+03</pdfrwt>
<pdfrwt beam="2">  1       -2 0.13488458E+00 0.77564673E+03</pdfrwt>
<totfact> 0.47806091E+00</totfact>
</mgrwt>
</event>
<event>
 4    5  0.2473208E-007  0.8006730E+03  0.7818608E-02  0.9709343E-01
          2   -1    0    0  501    0  0.00000000000E+00  0.00000000000E+00  0.91870429269E+03  0.91870429270E+03  0.25500000000E-02 0. -1.
         -2   -1    0    0    0  501 -0.00000000000E+00 -0.00000000000E+00 -0.60295360502E+03  0.60295360503E+03  0.25500000000E-02 0.  1.
    8880023    1    1    2    0    0  0.13049531457E+03 -0.43616277899E+03 -0.19135374360E+03  0.82322139085E+03  0.65864270000E+03 0.  0.
    8880022    1    1    2    0    0 -0.13049531457E+03  0.43616277899E+03  0.50710443127E+03  0.69843650687E+03  0.15294330000E+03 0.  0.
<mgrwt>
<rscale>  0 0.70463237E+03</rscale>
<asrwt>0</asrwt>
<pdfrwt beam="1">  1        2 0.14133912E+00 0.80067297E+03</pdfrwt>
<pdfrwt beam="2">  1       -2 0.92762093E-01 0.80067297E+03</pdfrwt>
<totfact> 0.28361844E+01</totfact>
</mgrwt>
</event>
<event>
 4    5  0.3023357E-007  0.7057310E+03  0.7818608E-02  0.9974209E-01
         -2   -1    0    0    0  501 -0.00000000000E+00  0.00000000000E+00  0.14183535247E+04  0.14183535247E+04  0.25500000000E-02 0.  1.
          2   -1    0    0  501    0  0.00000000000E+00 -0.00000000000E+00 -0.16336819445E+04  0.16336819445E+04  0.25500000000E-02 0. -1.
    8880023    1    1    2    0    0 -0.18978298685E+03  0.16801335861E+03  0.13154984082E+04  0.14928470581E+04  0.65864270000E+03 0.  1.
    8880022    1    1    2    0    0  0.18978298685E+03 -0.16801335861E+03 -0.15308268281E+04  0.15591884111E+04  0.15294330000E+03 0.  0.
<mgrwt>
<rscale>  0 0.56795744E+03</rscale>
<asrwt>0</asrwt>
<pdfrwt beam="1">  1        2 0.25133568E+00 0.70573102E+03</pdfrwt>
<pdfrwt beam="2">  1       -2 0.21820823E+00 0.70573102E+03</pdfrwt>
<totfact> 0.11349990E+00</totfact>
</mgrwt>
</event>
<event>
 4    5  0.2473208E-007  0.7693663E+03  0.7818608E-02  0.9781436E-01
          2   -1    0    0  501    0  0.00000000000E+00  0.00000000000E+00  0.25610980566E+04  0.25610980566E+04  0.25500000000E-02 0. -1.
         -2   -1    0    0    0  501 -0.00000000000E+00 -0.00000000000E+00 -0.22907850706E+03  0.22907850707E+03  0.25500000000E-02 0.  1.
    8880023    1    1    2    0    0 -0.15103743704E+03  0.36783421828E+03  0.51967969157E+03  0.92843497760E+03  0.65864270000E+03 0.  1.
    8880022    1    1    2    0    0  0.15103743704E+03 -0.36783421828E+03  0.18123398580E+04  0.18617415861E+04  0.15294330000E+03 0.  0.
<mgrwt>
<rscale>  0 0.66368384E+03</rscale>
<asrwt>0</asrwt>
<pdfrwt beam="1">  1        2 0.39401508E+00 0.76936631E+03</pdfrwt>
<pdfrwt beam="2">  1       -2 0.35242848E-01 0.76936631E+03</pdfrwt>
<totfact> 0.25287656E+01</totfact>
</mgrwt>
</event>
<event>
 4    5  0.2553484E-007  0.9721397E+03  0.7818608E-02  0.9418951E-01
          2   -1    0    0  501    0  0.00000000000E+00  0.00000000000E+00  0.11934597949E+04  0.11934597949E+04  0.25500000000E-02 0. -1.
         -2   -1    0    0    0  501 -0.00000000000E+00 -0.00000000000E+00 -0.19442593908E+04  0.19442593908E+04  0.25500000000E-02 0.  1.
    8880023    1    1    2    0    0 -0.33463519273E+03  0.63187400765E+03 -0.16886695604E+04  0.19485021335E+04  0.65864270000E+03 0.  1.
    8880022    1    1    2    0    0  0.33463519273E+03 -0.63187400765E+03  0.93786996455E+03  0.11892170522E+04  0.15294330000E+03 0.  0.
<mgrwt>
<rscale>  0 0.90532375E+03</rscale>
<asrwt>0</asrwt>
<pdfrwt beam="1">  1        2 0.18360920E+00 0.97213974E+03</pdfrwt>
<pdfrwt beam="2">  1       -2 0.29911683E+00 0.97213974E+03</pdfrwt>
<totfact> 0.62008920E-01</totfact>
</mgrwt>
</event>
<event>
 4    5  0.2473208E-007  0.8452205E+03  0.7818608E-02  0.9620414E-01
          2   -1    0    0  501    0  0.00000000000E+00  0.00000000000E+00  0.28337301662E+04  0.28337301662E+04  0.25500000000E-02 0. -1.
         -2   -1    0    0    0  501 -0.00000000000E+00 -0.00000000000E+00 -0.85123598332E+03  0.85123598332E+03  0.25500000000E-02 0.  1.
    8880023    1    1    2    0    0  0.16311836589E+03  0.50396422083E+03 -0.60496799023E+03  0.10394152263E+04  0.65864270000E+03 0.  0.
    8880022    1    1    2    0    0 -0.16311836589E+03 -0.50396422083E+03  0.25874621731E+04  0.26455509233E+04  0.15294330000E+03 0.  0.
<mgrwt>
<rscale>  0 0.75959660E+03</rscale>
<asrwt>0</asrwt>
<pdfrwt beam="1">  1        2 0.43595848E+00 0.84522053E+03</pdfrwt>
<pdfrwt beam="2">  1       -2 0.13095938E+00 0.84522053E+03</pdfrwt>
<totfact> 0.97957496E-01</totfact>
</mgrwt>
</event>
<event>
 4    5  0.2473208E-007  0.8297779E+03  0.7818608E-02  0.9649765E-01
          2   -1    0    0  501    0  0.00000000000E+00  0.00000000000E+00  0.15289974893E+04  0.15289974893E+04  0.25500000000E-02 0. -1.
         -2   -1    0    0    0  501 -0.00000000000E+00 -0.00000000000E+00 -0.33541219675E+03  0.33541219676E+03  0.25500000000E-02 0.  1.
    8880023    1    1    2    0    0 -0.62336723702E+02 -0.50083463788E+03  0.42497215829E+03  0.93227289096E+03  0.65864270000E+03 0.  0.
    8880022    1    1    2    0    0  0.62336723702E+02  0.50083463788E+03  0.76861313424E+03  0.93213679509E+03  0.15294330000E+03 0.  0.
<mgrwt>
<rscale>  0 0.74088200E+03</rscale>
<asrwt>0</asrwt>
<pdfrwt beam="1">  1        2 0.23523038E+00 0.82977793E+03</pdfrwt>
<pdfrwt beam="2">  1       -2 0.51601876E-01 0.82977793E+03</pdfrwt>
<totfact> 0.43984175E+01</totfact>
</mgrwt>
</event>
<event>
 4    5  0.2473208E-007  0.6756271E+03  0.7818608E-02  0.1011914E+00
         -2   -1    0    0    0  501 -0.00000000000E+00  0.00000000000E+00  0.57436891296E+03  0.57436891297E+03  0.25500000000E-02 0.  1.
          2   -1    0    0  501    0  0.00000000000E+00 -0.00000000000E+00 -0.11704866008E+04  0.11704866008E+04  0.25500000000E-02 0. -1.
    8880023    1    1    2    0    0 -0.87640649549E+02 -0.12239659020E+03  0.35958274908E+03  0.76535728157E+03  0.65864270000E+03 0.  1.
    8880022    1    1    2    0    0  0.87640649549E+02  0.12239659020E+03 -0.95570043689E+03  0.97949823217E+03  0.15294330000E+03 0.  0.
<mgrwt>
<rscale>  0 0.50721033E+03</rscale>
<asrwt>0</asrwt>
<pdfrwt beam="1">  1        2 0.18007486E+00 0.67562713E+03</pdfrwt>
<pdfrwt beam="2">  1       -2 0.88364449E-01 0.67562713E+03</pdfrwt>
<totfact> 0.22346191E+01</totfact>
</mgrwt>
</event>
<event>
 4    5  0.2473208E-007  0.9253847E+03  0.7818608E-02  0.9486451E-01
          2   -1    0    0  501    0  0.00000000000E+00  0.00000000000E+00  0.20719115260E+04  0.20719115260E+04  0.25500000000E-02 0. -1.
         -2   -1    0    0    0  501 -0.00000000000E+00 -0.00000000000E+00 -0.36899451393E+03  0.36899451394E+03  0.25500000000E-02 0.  1.
    8880023    1    1    2    0    0 -0.33952354176E+03  0.55430177809E+03  0.46797941728E+03  0.10369868070E+04  0.65864270000E+03 0. -1.
    8880022    1    1    2    0    0  0.33952354176E+03 -0.55430177809E+03  0.12349375948E+04  0.14039192329E+04  0.15294330000E+03 0.  0.
<mgrwt>
<rscale>  0 0.85290108E+03</rscale>
<asrwt>0</asrwt>
<pdfrwt beam="1">  1        2 0.31875562E+00 0.92538473E+03</pdfrwt>
<pdfrwt beam="2">  1       -2 0.56768386E-01 0.92538473E+03</pdfrwt>
<totfact> 0.17960320E+01</totfact>
</mgrwt>
</event>
<event>
 4    5  0.2473208E-007  0.1058692E+04  0.7818608E-02  0.9308504E-01
          2   -1    0    0  501    0  0.00000000000E+00  0.00000000000E+00  0.78639335950E+03  0.78639335950E+03  0.25500000000E-02 0. -1.
         -2   -1    0    0    0  501 -0.00000000000E+00 -0.00000000000E+00 -0.13961624906E+04  0.13961624906E+04  0.25500000000E-02 0.  1.
    8880023    1    1    2    0    0  0.56979864783E+03  0.60195434847E+03 -0.78960930099E+03  0.13207242677E+04  0.65864270000E+03 0.  0.
    8880022    1    1    2    0    0 -0.56979864783E+03 -0.60195434847E+03  0.17984016992E+03  0.86183158241E+03  0.15294330000E+03 0.  0.
<mgrwt>
<rscale>  0 0.10000371E+04</rscale>
<asrwt>0</asrwt>
<pdfrwt beam="1">  1        2 0.12098359E+00 0.10586925E+04</pdfrwt>
<pdfrwt beam="2">  1       -2 0.21479423E+00 0.10586925E+04</pdfrwt>
<totfact> 0.37143565E+00</totfact>
</mgrwt>
</event>
<event>
 4    5  0.2473208E-007  0.1134054E+04  0.7818608E-02  0.9224056E-01
         -2   -1    0    0    0  501 -0.00000000000E+00  0.00000000000E+00  0.74984618239E+03  0.74984618239E+03  0.25500000000E-02 0.  1.
          2   -1    0    0  501    0  0.00000000000E+00 -0.00000000000E+00 -0.26865592971E+04  0.26865592971E+04  0.25500000000E-02 0. -1.
    8880023    1    1    2    0    0 -0.38030992925E+03 -0.84120899679E+03  0.15530389271E+03  0.11446386871E+04  0.65864270000E+03 0.  1.
    8880022    1    1    2    0    0  0.38030992925E+03  0.84120899679E+03 -0.20920170074E+04  0.22917667924E+04  0.15294330000E+03 0.  0.
<mgrwt>
<rscale>  0 0.10808545E+04</rscale>
<asrwt>0</asrwt>
<pdfrwt beam="1">  1        2 0.41331681E+00 0.11340540E+04</pdfrwt>
<pdfrwt beam="2">  1       -2 0.11536095E+00 0.11340540E+04</pdfrwt>
<totfact> 0.15703113E+00</totfact>
</mgrwt>
</event>
<event>
 4    5  0.2473208E-007  0.1669059E+04  0.7818608E-02  0.8798650E-01
          2   -1    0    0  501    0  0.00000000000E+00  0.00000000000E+00  0.37934368407E+04  0.37934368407E+04  0.25500000000E-02 0. -1.
         -2   -1    0    0    0  501 -0.00000000000E+00 -0.00000000000E+00 -0.83164110489E+03  0.83164110489E+03  0.25500000000E-02 0.  1.
    8880023    1    1    2    0    0  0.13055996799E+04  0.80458601229E+03  0.53958637048E+03  0.17541131186E+04  0.65864270000E+03 0.  0.
    8880022    1    1    2    0    0 -0.13055996799E+04 -0.80458601229E+03  0.24222093653E+04  0.28709648270E+04  0.15294330000E+03 0.  0.
<mgrwt>
<rscale>  0 0.16361367E+04</rscale>
<asrwt>0</asrwt>
<pdfrwt beam="1">  1        2 0.58360566E+00 0.16690594E+04</pdfrwt>
<pdfrwt beam="2">  1       -2 0.12794479E+00 0.16690594E+04</pdfrwt>
<totfact> 0.21145645E-01</totfact>
</mgrwt>
</event>
<event>
 4    5  0.2473208E-007  0.6702703E+03  0.7818608E-02  0.1015470E+00
         -2   -1    0    0    0  501 -0.00000000000E+00  0.00000000000E+00  0.44401845073E+03  0.44401845074E+03  0.25500000000E-02 0.  1.
          2   -1    0    0  501    0  0.00000000000E+00 -0.00000000000E+00 -0.17374801409E+04  0.17374801409E+04  0.25500000000E-02 0. -1.
    8880023    1    1    2    0    0  0.12419833680E+03  0.51873276954E+01  0.18071559935E+03  0.69420491884E+03  0.65864270000E+03 0.  1.
    8880022    1    1    2    0    0 -0.12419833680E+03 -0.51873276954E+01 -0.14741772895E+04  0.14872936728E+04  0.15294330000E+03 0.  0.
<mgrwt>
<rscale>  0 0.49357449E+03</rscale>
<asrwt>0</asrwt>
<pdfrwt beam="1">  1        2 0.26730463E+00 0.67027035E+03</pdfrwt>
<pdfrwt beam="2">  1       -2 0.68310532E-01 0.67027035E+03</pdfrwt>
<totfact> 0.19061264E+01</totfact>
</mgrwt>
</event>
<event>
 4    5  0.2473208E-007  0.2015624E+04  0.7818608E-02  0.8611795E-01
         -2   -1    0    0    0  501 -0.00000000000E+00  0.00000000000E+00  0.18836806703E+04  0.18836806703E+04  0.25500000000E-02 0.  1.
          2   -1    0    0  501    0  0.00000000000E+00 -0.00000000000E+00 -0.26901900536E+04  0.26901900536E+04  0.25500000000E-02 0. -1.
    8880023    1    1    2    0    0 -0.40789704325E+03  0.18607930029E+04  0.70701588134E+03  0.21360272143E+04  0.65864270000E+03 0.  0.
    8880022    1    1    2    0    0  0.40789704325E+03 -0.18607930029E+04 -0.15135252646E+04  0.24378435096E+04  0.15294330000E+03 0.  0.
<mgrwt>
<rscale>  0 0.19889703E+04</rscale>
<asrwt>0</asrwt>
<pdfrwt beam="1">  1        2 0.41387540E+00 0.20156242E+04</pdfrwt>
<pdfrwt beam="2">  1       -2 0.28979702E+00 0.20156242E+04</pdfrwt>
<totfact> 0.87384847E-02</totfact>
</mgrwt>
</event>
<event>
 4    5  0.2473208E-007  0.9836388E+03  0.7818608E-02  0.9403283E-01
          2   -1    0    0  501    0  0.00000000000E+00  0.00000000000E+00  0.10962631012E+04  0.10962631012E+04  0.25500000000E-02 0. -1.
         -2   -1    0    0    0  501 -0.00000000000E+00 -0.00000000000E+00 -0.71920473883E+03  0.71920473884E+03  0.25500000000E-02 0.  1.
    8880023    1    1    2    0    0  0.40094877655E+03  0.61071700307E+03  0.10005250009E+02  0.98368973287E+03  0.65864270000E+03 0.  1.
    8880022    1    1    2    0    0 -0.40094877655E+03 -0.61071700307E+03  0.36705311236E+03  0.83177810717E+03  0.15294330000E+03 0.  0.
<mgrwt>
<rscale>  0 0.91805989E+03</rscale>
<asrwt>0</asrwt>
<pdfrwt beam="1">  1        2 0.16865586E+00 0.98363885E+03</pdfrwt>
<pdfrwt beam="2">  1       -2 0.11064688E+00 0.98363885E+03</pdfrwt>
<totfact> 0.14110774E+01</totfact>
</mgrwt>
</event>
<event>
 4    5  0.2473208E-007  0.7811177E+03  0.7818608E-02  0.9753218E-01
          2   -1    0    0  501    0  0.00000000000E+00  0.00000000000E+00  0.43560676020E+03  0.43560676021E+03  0.25500000000E-02 0. -1.
         -2   -1    0    0    0  501 -0.00000000000E+00 -0.00000000000E+00 -0.11510315287E+04  0.11510315287E+04  0.25500000000E-02 0.  1.
    8880023    1    1    2    0    0  0.99530025188E+02  0.40795639883E+03 -0.81488512403E+03  0.11287969795E+04  0.65864270000E+03 0.  0.
    8880022    1    1    2    0    0 -0.99530025188E+02 -0.40795639883E+03  0.99460355552E+02  0.45784130941E+03  0.15294330000E+03 0.  0.
<mgrwt>
<rscale>  0 0.67934716E+03</rscale>
<asrwt>0</asrwt>
<pdfrwt beam="1">  1        2 0.67016425E-01 0.78111770E+03</pdfrwt>
<pdfrwt beam="2">  1       -2 0.17708177E+00 0.78111770E+03</pdfrwt>
<totfact> 0.13889646E+01</totfact>
</mgrwt>
</event>
<event>
 4    5  0.2473208E-007  0.1545895E+04  0.7818608E-02  0.8877890E-01
         -2   -1    0    0    0  501 -0.00000000000E+00  0.00000000000E+00  0.13136626818E+04  0.13136626818E+04  0.25500000000E-02 0.  1.
          2   -1    0    0  501    0  0.00000000000E+00 -0.00000000000E+00 -0.34169552653E+04  0.34169552653E+04  0.25500000000E-02 0. -1.
    8880023    1    1    2    0    0 -0.11119720230E+04 -0.84823309237E+03  0.61983159815E+03  0.16655277167E+04  0.65864270000E+03 0.  0.
    8880022    1    1    2    0    0  0.11119720230E+04  0.84823309237E+03 -0.27231241816E+04  0.30650902304E+04  0.15294330000E+03 0.  0.
<mgrwt>
<rscale>  0 0.15099096E+04</rscale>
<asrwt>0</asrwt>
<pdfrwt beam="1">  1        2 0.52568542E+00 0.15458950E+04</pdfrwt>
<pdfrwt beam="2">  1       -2 0.20210195E+00 0.15458950E+04</pdfrwt>
<totfact> 0.11253033E-01</totfact>
</mgrwt>
</event>
<event>
 4    5  0.2473208E-007  0.6663787E+03  0.7818608E-02  0.1018404E+00
          2   -1    0    0  501    0  0.00000000000E+00  0.00000000000E+00  0.29907142242E+04  0.29907142242E+04  0.25500000000E-02 0. -1.
         -2   -1    0    0    0  501 -0.00000000000E+00 -0.00000000000E+00 -0.68512293506E+02  0.68512293554E+02  0.25500000000E-02 0.  1.
    8880023    1    1    2    0    0 -0.10088942460E+03 -0.84691026779E+01  0.17466381090E+04  0.18694398337E+04  0.65864270000E+03 0.  1.
    8880022    1    1    2    0    0  0.10088942460E+03  0.84691026779E+01  0.11755638217E+04  0.11897866840E+04  0.15294330000E+03 0.  0.
<mgrwt>
<rscale>  0 0.48267095E+03</rscale>
<asrwt>0</asrwt>
<pdfrwt beam="1">  1        2 0.46010995E+00 0.66637873E+03</pdfrwt>
<pdfrwt beam="2">  1       -2 0.10540351E-01 0.66637873E+03</pdfrwt>
<totfact> 0.11854192E+02</totfact>
</mgrwt>
</event>
<event>
 4    5  0.2473208E-007  0.9545357E+03  0.7818608E-02  0.9443618E-01
         -2   -1    0    0    0  501 -0.00000000000E+00  0.00000000000E+00  0.54131258093E+03  0.54131258094E+03  0.25500000000E-02 0.  1.
          2   -1    0    0  501    0  0.00000000000E+00 -0.00000000000E+00 -0.24201095840E+04  0.24201095840E+04  0.25500000000E-02 0. -1.
    8880023    1    1    2    0    0  0.68048183554E+03 -0.11946817234E+03 -0.80015511094E+00  0.95453602301E+03  0.65864270000E+03 0.  0.
    8880022    1    1    2    0    0 -0.68048183554E+03  0.11946817234E+03 -0.18779968480E+04  0.20068861419E+04  0.15294330000E+03 0.  0.
<mgrwt>
<rscale>  0 0.88571393E+03</rscale>
<asrwt>0</asrwt>
<pdfrwt beam="1">  1        2 0.37232455E+00 0.95453569E+03</pdfrwt>
<pdfrwt beam="2">  1       -2 0.83278859E-01 0.95453569E+03</pdfrwt>
<totfact> 0.49583080E+00</totfact>
</mgrwt>
</event>
<event>
 4    5  0.2473208E-007  0.9467890E+03  0.7818608E-02  0.9454749E-01
         -2   -1    0    0    0  501 -0.00000000000E+00  0.00000000000E+00  0.65384714352E+03  0.65384714353E+03  0.25500000000E-02 0.  1.
          2   -1    0    0  501    0  0.00000000000E+00 -0.00000000000E+00 -0.22422812549E+04  0.22422812549E+04  0.25500000000E-02 0. -1.
    8880023    1    1    2    0    0 -0.42090047888E+03  0.53426776958E+03  0.20782822635E+03  0.96933071790E+03  0.65864270000E+03 0.  1.
    8880022    1    1    2    0    0  0.42090047888E+03 -0.53426776958E+03 -0.17962623377E+04  0.19267976805E+04  0.15294330000E+03 0.  0.
<mgrwt>
<rscale>  0 0.87703804E+03</rscale>
<asrwt>0</asrwt>
<pdfrwt beam="1">  1        2 0.34496634E+00 0.94678903E+03</pdfrwt>
<pdfrwt beam="2">  1       -2 0.10059187E+00 0.94678903E+03</pdfrwt>
<totfact> 0.40258586E+00</totfact>
</mgrwt>
</event>
<event>
 4    5  0.2473208E-007  0.8268405E+03  0.7818608E-02  0.9655511E-01
          2   -1    0    0  501    0  0.00000000000E+00  0.00000000000E+00  0.21364402340E+04  0.21364402340E+04  0.25500000000E-02 0. -1.
         -2   -1    0    0    0  501 -0.00000000000E+00 -0.00000000000E+00 -0.32993261949E+03  0.32993261950E+03  0.25500000000E-02 0.  1.
    8880023    1    1    2    0    0  0.41999263015E+02 -0.49808740030E+03  0.31312149453E+03  0.88414380789E+03  0.65864270000E+03 0.  0.
    8880022    1    1    2    0    0 -0.41999263015E+02  0.49808740030E+03  0.14933861199E+04  0.15822290456E+04  0.15294330000E+03 0.  0.
<mgrwt>
<rscale>  0 0.73728544E+03</rscale>
<asrwt>0</asrwt>
<pdfrwt beam="1">  1        2 0.32868310E+00 0.82684049E+03</pdfrwt>
<pdfrwt beam="2">  1       -2 0.50758866E-01 0.82684049E+03</pdfrwt>
<totfact> 0.21110823E+01</totfact>
</mgrwt>
</event>
<event>
 4    5  0.2473208E-007  0.1223077E+04  0.7818608E-02  0.9135010E-01
         -2   -1    0    0    0  501 -0.00000000000E+00  0.00000000000E+00  0.76904879953E+03  0.76904879953E+03  0.25500000000E-02 0.  1.
          2   -1    0    0  501    0  0.00000000000E+00 -0.00000000000E+00 -0.20911093792E+04  0.20911093792E+04  0.25500000000E-02 0. -1.
    8880023    1    1    2    0    0 -0.66433697732E+03 -0.78788557350E+03 -0.61302435934E+02  0.12246123841E+04  0.65864270000E+03 0.  0.
    8880022    1    1    2    0    0  0.66433697732E+03  0.78788557350E+03 -0.12607581438E+04  0.16355457947E+04  0.15294330000E+03 0.  0.
<mgrwt>
<rscale>  0 0.11750167E+04</rscale>
<asrwt>0</asrwt>
<pdfrwt beam="1">  1        2 0.32170913E+00 0.12230771E+04</pdfrwt>
<pdfrwt beam="2">  1       -2 0.11831520E+00 0.12230771E+04</pdfrwt>
<totfact> 0.31860734E+00</totfact>
</mgrwt>
</event>
<event>
 4    5  0.2473208E-007  0.7698225E+03  0.7818608E-02  0.9780311E-01
         -2   -1    0    0    0  501 -0.00000000000E+00  0.00000000000E+00  0.45453650261E+03  0.45453650261E+03  0.25500000000E-02 0.  1.
          2   -1    0    0  501    0  0.00000000000E+00 -0.00000000000E+00 -0.13126964801E+04  0.13126964801E+04  0.25500000000E-02 0. -1.
    8880023    1    1    2    0    0  0.39560357124E+03 -0.48107145063E+02 -0.10477570585E+04  0.13001621217E+04  0.65864270000E+03 0.  0.
    8880022    1    1    2    0    0 -0.39560357124E+03  0.48107145063E+02  0.18959708101E+03  0.46707086093E+03  0.15294330000E+03 0.  0.
<mgrwt>
<rscale>  0 0.66429950E+03</rscale>
<asrwt>0</asrwt>
<pdfrwt beam="1">  1        2 0.20195330E+00 0.76982251E+03</pdfrwt>
<pdfrwt beam="2">  1       -2 0.69928693E-01 0.76982251E+03</pdfrwt>
<totfact> 0.30826921E+01</totfact>
</mgrwt>
</event>
<event>
 4    5  0.2473208E-007  0.1056966E+04  0.7818608E-02  0.9310554E-01
          2   -1    0    0  501    0  0.00000000000E+00  0.00000000000E+00  0.10174093003E+04  0.10174093003E+04  0.25500000000E-02 0. -1.
         -2   -1    0    0    0  501 -0.00000000000E+00 -0.00000000000E+00 -0.15644303390E+04  0.15644303390E+04  0.25500000000E-02 0.  1.
    8880023    1    1    2    0    0  0.53145480298E+03  0.63318458481E+03 -0.11388264748E+04  0.15537383538E+04  0.65864270000E+03 0.  1.
    8880022    1    1    2    0    0 -0.53145480298E+03 -0.63318458481E+03  0.59180543610E+03  0.10281012855E+04  0.15294330000E+03 0.  0.
<mgrwt>
<rscale>  0 0.99817032E+03</rscale>
<asrwt>0</asrwt>
<pdfrwt beam="1">  1        2 0.15652451E+00 0.10569660E+04</pdfrwt>
<pdfrwt beam="2">  1       -2 0.24068159E+00 0.10569660E+04</pdfrwt>
<totfact> 0.17808608E+00</totfact>
</mgrwt>
</event>
<event>
 4    5  0.2473208E-007  0.6859168E+03  0.7818608E-02  0.1006157E+00
         -2   -1    0    0    0  501 -0.00000000000E+00  0.00000000000E+00  0.10661125376E+04  0.10661125376E+04  0.25500000000E-02 0.  1.
          2   -1    0    0  501    0  0.00000000000E+00 -0.00000000000E+00 -0.94928443147E+03  0.94928443147E+03  0.25500000000E-02 0. -1.
    8880023    1    1    2    0    0  0.14139725395E+03 -0.12914519141E+03  0.93595933226E+03  0.11603886167E+04  0.65864270000E+03 0.  1.
    8880022    1    1    2    0    0 -0.14139725395E+03  0.12914519141E+03 -0.81913122615E+03  0.85500835234E+03  0.15294330000E+03 0.  0.
<mgrwt>
<rscale>  0 0.53030992E+03</rscale>
<asrwt>0</asrwt>
<pdfrwt beam="1">  1        2 0.14604376E+00 0.68591681E+03</pdfrwt>
<pdfrwt beam="2">  1       -2 0.16401731E+00 0.68591681E+03</pdfrwt>
<totfact> 0.65748490E+00</totfact>
</mgrwt>
</event>
<event>
 4    5  0.2473208E-007  0.1657632E+04  0.7818608E-02  0.8805667E-01
          2   -1    0    0  501    0  0.00000000000E+00  0.00000000000E+00  0.17901540268E+04  0.17901540268E+04  0.25500000000E-02 0. -1.
         -2   -1    0    0    0  501 -0.00000000000E+00 -0.00000000000E+00 -0.15895414922E+04  0.15895414922E+04  0.25500000000E-02 0.  1.
    8880023    1    1    2    0    0 -0.34630188122E+03  0.14812190159E+04 -0.45084938913E+03  0.17178504428E+04  0.65864270000E+03 0.  0.
    8880022    1    1    2    0    0  0.34630188122E+03 -0.14812190159E+04  0.65146192373E+03  0.16618450761E+04  0.15294330000E+03 0.  0.
<mgrwt>
<rscale>  0 0.16244490E+04</rscale>
<asrwt>0</asrwt>
<pdfrwt beam="1">  1        2 0.27540831E+00 0.16576323E+04</pdfrwt>
<pdfrwt beam="2">  1       -2 0.24454485E+00 0.16576323E+04</pdfrwt>
<totfact> 0.56067106E-01</totfact>
</mgrwt>
</event>
<event>
 4    5  0.2473208E-007  0.6798468E+03  0.7818608E-02  0.1009410E+00
          2   -1    0    0  501    0  0.00000000000E+00  0.00000000000E+00  0.57950928479E+03  0.57950928479E+03  0.25500000000E-02 0. -1.
         -2   -1    0    0    0  501 -0.00000000000E+00 -0.00000000000E+00 -0.81914473891E+03  0.81914473892E+03  0.25500000000E-02 0.  1.
    8880023    1    1    2    0    0  0.60418213030E+02  0.15726112573E+03 -0.64285991355E+03  0.93566046023E+03  0.65864270000E+03 0.  1.
    8880022    1    1    2    0    0 -0.60418213030E+02 -0.15726112573E+03  0.40322445942E+03  0.46299356348E+03  0.15294330000E+03 0.  0.
<mgrwt>
<rscale>  0 0.51709611E+03</rscale>
<asrwt>0</asrwt>
<pdfrwt beam="1">  1        2 0.89155274E-01 0.67984677E+03</pdfrwt>
<pdfrwt beam="2">  1       -2 0.12602227E+00 0.67984677E+03</pdfrwt>
<totfact> 0.24765887E+01</totfact>
</mgrwt>
</event>
<event>
 4    5  0.2473208E-007  0.6644894E+03  0.7818608E-02  0.1019966E+00
          2   -1    0    0  501    0  0.00000000000E+00  0.00000000000E+00  0.11199363106E+04  0.11199363106E+04  0.25500000000E-02 0. -1.
         -2   -1    0    0    0  501 -0.00000000000E+00 -0.00000000000E+00 -0.29509206126E+03  0.29509206127E+03  0.25500000000E-02 0.  1.
    8880023    1    1    2    0    0 -0.83397926748E+02  0.27941186036E+02  0.10359808801E+03  0.67251668691E+03  0.65864270000E+03 0.  1.
    8880022    1    1    2    0    0  0.83397926748E+02 -0.27941186036E+02  0.72124616132E+03  0.74251168496E+03  0.15294330000E+03 0.  0.
<mgrwt>
<rscale>  0 0.47698991E+03</rscale>
<asrwt>0</asrwt>
<pdfrwt beam="1">  1        2 0.17229789E+00 0.66448938E+03</pdfrwt>
<pdfrwt beam="2">  1       -2 0.45398779E-01 0.66448938E+03</pdfrwt>
<totfact> 0.99559768E+01</totfact>
</mgrwt>
</event>
<event>
 4    5  0.2473208E-007  0.9681964E+03  0.7818608E-02  0.9424403E-01
         -2   -1    0    0    0  501 -0.00000000000E+00  0.00000000000E+00  0.98929150934E+03  0.98929150934E+03  0.25500000000E-02 0.  1.
          2   -1    0    0  501    0  0.00000000000E+00 -0.00000000000E+00 -0.18348267947E+04  0.18348267947E+04  0.25500000000E-02 0. -1.
    8880023    1    1    2    0    0 -0.86811701398E+02 -0.70431375728E+03  0.64694872683E+03  0.11644513736E+04  0.65864270000E+03 0.  0.
    8880022    1    1    2    0    0  0.86811701398E+02  0.70431375728E+03 -0.14924840122E+04  0.16596669304E+04  0.15294330000E+03 0.  0.
<mgrwt>
<rscale>  0 0.90094333E+03</rscale>
<asrwt>0</asrwt>
<pdfrwt beam="1">  1        2 0.28228104E+00 0.96819644E+03</pdfrwt>
<pdfrwt beam="2">  1       -2 0.15219869E+00 0.96819644E+03</pdfrwt>
<totfact> 0.23786496E+00</totfact>
</mgrwt>
</event>
<event>
 4    5  0.2497069E-007  0.1216938E+04  0.7818608E-02  0.9140830E-01
         -2   -1    0    0    0  501 -0.00000000000E+00  0.00000000000E+00  0.16515477399E+04  0.16515477399E+04  0.25500000000E-02 0.  1.
          2   -1    0    0  501    0  0.00000000000E+00 -0.00000000000E+00 -0.26307337546E+04  0.26307337546E+04  0.25500000000E-02 0. -1.
    8880023    1    1    2    0    0  0.15183572916E+03  0.10119657830E+04  0.12991029343E+04  0.17800582785E+04  0.65864270000E+03 0.  1.
    8880022    1    1    2    0    0 -0.15183572916E+03 -0.10119657830E+04 -0.22782889490E+04  0.25022232160E+04  0.15294330000E+03 0.  0.
<mgrwt>
<rscale>  0 0.11685595E+04</rscale>
<asrwt>0</asrwt>
<pdfrwt beam="1">  1        2 0.40472827E+00 0.12169384E+04</pdfrwt>
<pdfrwt beam="2">  1       -2 0.25408427E+00 0.12169384E+04</pdfrwt>
<totfact> 0.17290303E-01</totfact>
</mgrwt>
</event>
<event>
 4    5  0.2473208E-007  0.1138916E+04  0.7818608E-02  0.9218916E-01
          2   -1    0    0  501    0  0.00000000000E+00  0.00000000000E+00  0.13539166816E+04  0.13539166816E+04  0.25500000000E-02 0. -1.
         -2   -1    0    0    0  501 -0.00000000000E+00 -0.00000000000E+00 -0.90238590974E+03  0.90238590974E+03  0.25500000000E-02 0.  1.
    8880023    1    1    2    0    0 -0.88625525796E+03  0.27905489052E+03 -0.13504719171E+03  0.11468949230E+04  0.65864270000E+03 0.  0.
    8880022    1    1    2    0    0  0.88625525796E+03 -0.27905489052E+03  0.58657796357E+03  0.11094076683E+04  0.15294330000E+03 0.  0.
<mgrwt>
<rscale>  0 0.10860296E+04</rscale>
<asrwt>0</asrwt>
<pdfrwt beam="1">  1        2 0.20829487E+00 0.11389162E+04</pdfrwt>
<pdfrwt beam="2">  1       -2 0.13882860E+00 0.11389162E+04</pdfrwt>
<totfact> 0.55259572E+00</totfact>
</mgrwt>
</event>
<event>
 4    5  0.2473208E-007  0.1341683E+04  0.7818608E-02  0.9030375E-01
         -2   -1    0    0    0  501 -0.00000000000E+00  0.00000000000E+00  0.58291424932E+03  0.58291424933E+03  0.25500000000E-02 0.  1.
          2   -1    0    0  501    0  0.00000000000E+00 -0.00000000000E+00 -0.43645727989E+04  0.43645727989E+04  0.25500000000E-02 0. -1.
    8880023    1    1    2    0    0 -0.11332561647E+04  0.28641422797E+03 -0.45275544469E+03  0.14160156581E+04  0.65864270000E+03 0.  0.
    8880022    1    1    2    0    0  0.11332561647E+04 -0.28641422797E+03 -0.33289031049E+04  0.35314713902E+04  0.15294330000E+03 0.  0.
<mgrwt>
<rscale>  0 0.12989795E+04</rscale>
<asrwt>0</asrwt>
<pdfrwt beam="1">  1        2 0.67147272E+00 0.13416828E+04</pdfrwt>
<pdfrwt beam="2">  1       -2 0.89679118E-01 0.13416828E+04</pdfrwt>
<totfact> 0.17694144E-01</totfact>
</mgrwt>
</event>
<event>
 4    5  0.2473208E-007  0.1026775E+04  0.7818608E-02  0.9347337E-01
          2   -1    0    0  501    0  0.00000000000E+00  0.00000000000E+00  0.21000801438E+04  0.21000801438E+04  0.25500000000E-02 0. -1.
         -2   -1    0    0    0  501 -0.00000000000E+00 -0.00000000000E+00 -0.83182099919E+03  0.83182099919E+03  0.25500000000E-02 0.  1.
    8880023    1    1    2    0    0 -0.44317671905E+03  0.65119149648E+03 -0.38310151643E+03  0.10959164875E+04  0.65864270000E+03 0.  1.
    8880022    1    1    2    0    0  0.44317671905E+03 -0.65119149648E+03  0.16513606610E+04  0.18359846555E+04  0.15294330000E+03 0.  0.
<mgrwt>
<rscale>  0 0.96539321E+03</rscale>
<asrwt>0</asrwt>
<pdfrwt beam="1">  1        2 0.32308925E+00 0.10267746E+04</pdfrwt>
<pdfrwt beam="2">  1       -2 0.12797246E+00 0.10267746E+04</pdfrwt>
<totfact> 0.26456442E+00</totfact>
</mgrwt>
</event>
<event>
 4    5  0.2473208E-007  0.7120581E+03  0.7818608E-02  0.9950436E-01
          2   -1    0    0  501    0  0.00000000000E+00  0.00000000000E+00  0.20384607333E+04  0.20384607333E+04  0.25500000000E-02 0. -1.
         -2   -1    0    0    0  501 -0.00000000000E+00 -0.00000000000E+00 -0.13477834216E+03  0.13477834219E+03  0.25500000000E-02 0.  1.
    8880023    1    1    2    0    0  0.37189151910E+02 -0.26801765482E+03  0.10875138537E+04  0.12998896432E+04  0.65864270000E+03 0.  1.
    8880022    1    1    2    0    0 -0.37189151910E+02  0.26801765482E+03  0.81616853751E+03  0.87334943233E+03  0.15294330000E+03 0.  0.
<mgrwt>
<rscale>  0 0.57877969E+03</rscale>
<asrwt>0</asrwt>
<pdfrwt beam="1">  1        2 0.31360934E+00 0.71205808E+03</pdfrwt>
<pdfrwt beam="2">  1       -2 0.20735130E-01 0.71205808E+03</pdfrwt>
<totfact> 0.13117648E+02</totfact>
</mgrwt>
</event>
<event>
 4    5  0.2473208E-007  0.6631701E+03  0.7818608E-02  0.1021121E+00
         -2   -1    0    0    0  501 -0.00000000000E+00  0.00000000000E+00  0.21634278087E+03  0.21634278088E+03  0.25500000000E-02 0.  1.
          2   -1    0    0  501    0  0.00000000000E+00 -0.00000000000E+00 -0.19029263352E+04  0.19029263352E+04  0.25500000000E-02 0. -1.
    8880023    1    1    2    0    0  0.50351232888E+02  0.58729335427E+02 -0.30998510158E+03  0.73204190519E+03  0.65864270000E+03 0.  1.
    8880022    1    1    2    0    0 -0.50351232888E+02 -0.58729335427E+02 -0.13765984527E+04  0.13872272109E+04  0.15294330000E+03 0.  0.
<mgrwt>
<rscale>  0 0.47284397E+03</rscale>
<asrwt>0</asrwt>
<pdfrwt beam="1">  1        2 0.29275789E+00 0.66317010E+03</pdfrwt>
<pdfrwt beam="2">  1       -2 0.33283506E-01 0.66317010E+03</pdfrwt>
<totfact> 0.66160366E+01</totfact>
</mgrwt>
</event>
<event>
 4    5  0.2473208E-007  0.7123531E+03  0.7818608E-02  0.9949365E-01
          2   -1    0    0  501    0  0.00000000000E+00  0.00000000000E+00  0.11901010220E+04  0.11901010220E+04  0.25500000000E-02 0. -1.
         -2   -1    0    0    0  501 -0.00000000000E+00 -0.00000000000E+00 -0.34625012465E+03  0.34625012466E+03  0.25500000000E-02 0.  1.
    8880023    1    1    2    0    0  0.69504378539E+02 -0.26230867225E+03  0.86676000960E+02  0.71760687955E+03  0.65864270000E+03 0.  1.
    8880022    1    1    2    0    0 -0.69504378539E+02  0.26230867225E+03  0.75717489635E+03  0.81874426706E+03  0.15294330000E+03 0.  0.
<mgrwt>
<rscale>  0 0.57927370E+03</rscale>
<asrwt>0</asrwt>
<pdfrwt beam="1">  1        2 0.18309247E+00 0.71235308E+03</pdfrwt>
<pdfrwt beam="2">  1       -2 0.53269249E-01 0.71235308E+03</pdfrwt>
<totfact> 0.65087439E+01</totfact>
</mgrwt>
</event>
<event>
 4    5  0.2473208E-007  0.1069052E+04  0.7818608E-02  0.9296321E-01
         -2   -1    0    0    0  501 -0.00000000000E+00  0.00000000000E+00  0.12778037723E+04  0.12778037724E+04  0.25500000000E-02 0.  1.
          2   -1    0    0  501    0  0.00000000000E+00 -0.00000000000E+00 -0.84708179423E+03  0.84708179424E+03  0.25500000000E-02 0. -1.
    8880023    1    1    2    0    0 -0.70252642533E+03  0.46423971362E+03 -0.16558015101E+03  0.10817989105E+04  0.65864270000E+03 0. -1.
    8880022    1    1    2    0    0  0.70252642533E+03 -0.46423971362E+03  0.59630212912E+03  0.10430866561E+04  0.15294330000E+03 0.  0.
<mgrwt>
<rscale>  0 0.10112223E+04</rscale>
<asrwt>0</asrwt>
<pdfrwt beam="1">  1        2 0.13032028E+00 0.10690520E+04</pdfrwt>
<pdfrwt beam="2">  1       -2 0.19658519E+00 0.10690520E+04</pdfrwt>
<totfact> 0.44034161E+00</totfact>
</mgrwt>
</event>
<event>
 4    5  0.2473208E-007  0.7061804E+03  0.7818608E-02  0.9972468E-01
          2   -1    0    0  501    0  0.00000000000E+00  0.00000000000E+00  0.65250867122E+03  0.65250867122E+03  0.25500000000E-02 0. -1.
         -2   -1    0    0    0  501 -0.00000000000E+00 -0.00000000000E+00 -0.86464749500E+03  0.86464749501E+03  0.25500000000E-02 0.  1.
    8880023    1    1    2    0    0 -0.25471441504E+03  0.10739400872E+01 -0.66862612423E+03  0.97249765390E+03  0.65864270000E+03 0.  0.
    8880022    1    1    2    0    0  0.25471441504E+03 -0.10739400872E+01  0.45648730044E+03  0.54465851233E+03  0.15294330000E+03 0.  0.
<mgrwt>
<rscale>  0 0.56874131E+03</rscale>
<asrwt>0</asrwt>
<pdfrwt beam="1">  1        2 0.10038595E+00 0.70618043E+03</pdfrwt>
<pdfrwt beam="2">  1       -2 0.13302269E+00 0.70618043E+03</pdfrwt>
<totfact> 0.18664148E+01</totfact>
</mgrwt>
</event>
<event>
 4    5  0.2473208E-007  0.1150504E+04  0.7818608E-02  0.9206805E-01
          2   -1    0    0  501    0  0.00000000000E+00  0.00000000000E+00  0.12253998879E+04  0.12253998879E+04  0.25500000000E-02 0. -1.
         -2   -1    0    0    0  501 -0.00000000000E+00 -0.00000000000E+00 -0.12451126431E+04  0.12451126431E+04  0.25500000000E-02 0.  1.
    8880023    1    1    2    0    0 -0.70355673257E+03 -0.62837690868E+03 -0.65413142642E+03  0.13234605187E+04  0.65864270000E+03 0.  0.
    8880022    1    1    2    0    0  0.70355673257E+03  0.62837690868E+03  0.63441867124E+03  0.11470520122E+04  0.15294330000E+03 0. -1.
<mgrwt>
<rscale>  0 0.10983464E+04</rscale>
<asrwt>0</asrwt>
<pdfrwt beam="1">  1        2 0.18852306E+00 0.11505042E+04</pdfrwt>
<pdfrwt beam="2">  1       -2 0.19155579E+00 0.11505042E+04</pdfrwt>
<totfact> 0.27008912E+00</totfact>
</mgrwt>
</event>
<event>
 4    5  0.2473208E-007  0.8804810E+03  0.7818608E-02  0.9558122E-01
         -2   -1    0    0    0  501 -0.00000000000E+00  0.00000000000E+00  0.60418533519E+03  0.60418533520E+03  0.25500000000E-02 0.  1.
          2   -1    0    0  501    0  0.00000000000E+00 -0.00000000000E+00 -0.16021139174E+04  0.16021139174E+04  0.25500000000E-02 0. -1.
    8880023    1    1    2    0    0 -0.58076720014E+03 -0.64389234040E+02  0.16505576775E+03  0.89581813274E+03  0.65864270000E+03 0.  0.
    8880022    1    1    2    0    0  0.58076720014E+03  0.64389234040E+02 -0.11629843500E+04  0.13104811199E+04  0.15294330000E+03 0.  0.
<mgrwt>
<rscale>  0 0.80131085E+03</rscale>
<asrwt>0</asrwt>
<pdfrwt beam="1">  1        2 0.24647906E+00 0.88048096E+03</pdfrwt>
<pdfrwt beam="2">  1       -2 0.92951591E-01 0.88048096E+03</pdfrwt>
<totfact> 0.11012839E+01</totfact>
</mgrwt>
</event>
<event>
 4    5  0.2473208E-007  0.7269321E+03  0.7818608E-02  0.9899792E-01
         -2   -1    0    0    0  501 -0.00000000000E+00  0.00000000000E+00  0.19407610845E+03  0.19407610846E+03  0.25500000000E-02 0.  1.
          2   -1    0    0  501    0  0.00000000000E+00 -0.00000000000E+00 -0.20924385955E+04  0.20924385955E+04  0.25500000000E-02 0. -1.
    8880023    1    1    2    0    0 -0.30193985142E+03  0.58757631577E+02 -0.59725559777E+03  0.94082123088E+03  0.65864270000E+03 0.  1.
    8880022    1    1    2    0    0  0.30193985142E+03 -0.58757631577E+02 -0.13011068893E+04  0.13456934731E+04  0.15294330000E+03 0.  0.
<mgrwt>
<rscale>  0 0.60271372E+03</rscale>
<asrwt>0</asrwt>
<pdfrwt beam="1">  1        2 0.32191361E+00 0.72693214E+03</pdfrwt>
<pdfrwt beam="2">  1       -2 0.29857864E-01 0.72693214E+03</pdfrwt>
<totfact> 0.63402464E+01</totfact>
</mgrwt>
</event>
<event>
 4    5  0.2473208E-007  0.9256051E+03  0.7818608E-02  0.9486118E-01
          2   -1    0    0  501    0  0.00000000000E+00  0.00000000000E+00  0.22206962803E+04  0.22206962803E+04  0.25500000000E-02 0. -1.
         -2   -1    0    0    0  501 -0.00000000000E+00 -0.00000000000E+00 -0.42601582072E+03  0.42601582072E+03  0.25500000000E-02 0.  1.
    8880023    1    1    2    0    0  0.61499620853E+03  0.21145743721E+03  0.24247209706E+03  0.95683724236E+03  0.65864270000E+03 0.  1.
    8880022    1    1    2    0    0 -0.61499620853E+03 -0.21145743721E+03  0.15522083626E+04  0.16898748587E+04  0.15294330000E+03 0.  0.
<mgrwt>
<rscale>  0 0.85315090E+03</rscale>
<asrwt>0</asrwt>
<pdfrwt beam="1">  1        2 0.34164558E+00 0.92560509E+03</pdfrwt>
<pdfrwt beam="2">  1       -2 0.65540896E-01 0.92560509E+03</pdfrwt>
<totfact> 0.10948202E+01</totfact>
</mgrwt>
</event>
<event>
 4    5  0.2473208E-007  0.7184251E+03  0.7818608E-02  0.9927951E-01
          2   -1    0    0  501    0  0.00000000000E+00  0.00000000000E+00  0.14893691762E+04  0.14893691762E+04  0.25500000000E-02 0. -1.
         -2   -1    0    0    0  501 -0.00000000000E+00 -0.00000000000E+00 -0.37398600741E+03  0.37398600742E+03  0.25500000000E-02 0.  1.
    8880023    1    1    2    0    0 -0.19102220984E+03  0.21409083692E+03  0.13030251535E+04  0.14879546794E+04  0.65864270000E+03 0. -1.
    8880022    1    1    2    0    0  0.19102220984E+03 -0.21409083692E+03 -0.18764198472E+03  0.37540050419E+03  0.15294330000E+03 0.  0.
<mgrwt>
<rscale>  0 0.58925559E+03</rscale>
<asrwt>0</asrwt>
<pdfrwt beam="1">  1        2 0.22913372E+00 0.71842507E+03</pdfrwt>
<pdfrwt beam="2">  1       -2 0.57536307E-01 0.71842507E+03</pdfrwt>
<totfact> 0.37367974E+01</totfact>
</mgrwt>
</event>
<event>
 4    5  0.2473208E-007  0.1358355E+04  0.7818608E-02  0.9016737E-01
         -2   -1    0    0    0  501 -0.00000000000E+00  0.00000000000E+00  0.86104833898E+03  0.86104833898E+03  0.25500000000E-02 0.  1.
          2   -1    0    0  501    0  0.00000000000E+00 -0.00000000000E+00 -0.32967270879E+04  0.32967270879E+04  0.25500000000E-02 0. -1.
    8880023    1    1    2    0    0  0.94040312090E+03 -0.72591923248E+03  0.91166867013E+02  0.13614104325E+04  0.65864270000E+03 0.  0.
    8880022    1    1    2    0    0 -0.94040312090E+03  0.72591923248E+03 -0.25268456159E+04  0.27963649944E+04  0.15294330000E+03 0.  0.
<mgrwt>
<rscale>  0 0.13163013E+04</rscale>
<asrwt>0</asrwt>
<pdfrwt beam="1">  1        2 0.50718878E+00 0.13583545E+04</pdfrwt>
<pdfrwt beam="2">  1       -2 0.13246898E+00 0.13583545E+04</pdfrwt>
<totfact> 0.44974863E-01</totfact>
</mgrwt>
</event>
<event>
 4    5  0.3048244E-007  0.6609071E+03  0.7818608E-02  0.1023246E+00
         -2   -1    0    0    0  501 -0.00000000000E+00  0.00000000000E+00  0.82445964705E+03  0.82445964706E+03  0.25500000000E-02 0.  1.
          2   -1    0    0  501    0  0.00000000000E+00 -0.00000000000E+00 -0.21381547314E+04  0.21381547314E+04  0.25500000000E-02 0. -1.
    8880023    1    1    2    0    0  0.42158377764E+02  0.34795219953E+02  0.68819035218E+03  0.95415103796E+03  0.65864270000E+03 0.  1.
    8880022    1    1    2    0    0 -0.42158377764E+02 -0.34795219953E+02 -0.20018854365E+04  0.20084633405E+04  0.15294330000E+03 0.  0.
<mgrwt>
<rscale>  0 0.46533320E+03</rscale>
<asrwt>0</asrwt>
<pdfrwt beam="1">  1        2 0.32894688E+00 0.66090714E+03</pdfrwt>
<pdfrwt beam="2">  1       -2 0.12683995E+00 0.66090714E+03</pdfrwt>
<totfact> 0.27368353E+00</totfact>
</mgrwt>
</event>
<event>
 4    5  0.2473208E-007  0.8816937E+03  0.7818608E-02  0.9556082E-01
          2   -1    0    0  501    0  0.00000000000E+00  0.00000000000E+00  0.16131845976E+04  0.16131845976E+04  0.25500000000E-02 0. -1.
         -2   -1    0    0    0  501 -0.00000000000E+00 -0.00000000000E+00 -0.50420871284E+03  0.50420871284E+03  0.25500000000E-02 0.  1.
    8880023    1    1    2    0    0  0.23956824526E+03 -0.53495853888E+03  0.32641408349E+02  0.88229771067E+03  0.65864270000E+03 0.  1.
    8880022    1    1    2    0    0 -0.23956824526E+03  0.53495853888E+03  0.10763344764E+04  0.12350955998E+04  0.15294330000E+03 0.  0.
<mgrwt>
<rscale>  0 0.80272432E+03</rscale>
<asrwt>0</asrwt>
<pdfrwt beam="1">  1        2 0.24818225E+00 0.88169370E+03</pdfrwt>
<pdfrwt beam="2">  1       -2 0.77570571E-01 0.88169370E+03</pdfrwt>
<totfact> 0.16409119E+01</totfact>
</mgrwt>
</event>
<event>
 4    5  0.2473208E-007  0.7138390E+03  0.7818608E-02  0.9944012E-01
         -2   -1    0    0    0  501 -0.00000000000E+00  0.00000000000E+00  0.19389174253E+03  0.19389174254E+03  0.25500000000E-02 0.  1.
          2   -1    0    0  501    0  0.00000000000E+00 -0.00000000000E+00 -0.19584094180E+04  0.19584094180E+04  0.25500000000E-02 0. -1.
    8880023    1    1    2    0    0  0.25852665223E+03  0.94445483215E+02 -0.55993737724E+03  0.90724641190E+03  0.65864270000E+03 0.  1.
    8880022    1    1    2    0    0 -0.25852665223E+03 -0.94445483215E+02 -0.12045802982E+04  0.12450547486E+04  0.15294330000E+03 0.  0.
<mgrwt>
<rscale>  0 0.58174883E+03</rscale>
<asrwt>0</asrwt>
<pdfrwt beam="1">  1        2 0.30129374E+00 0.71383905E+03</pdfrwt>
<pdfrwt beam="2">  1       -2 0.29829500E-01 0.71383905E+03</pdfrwt>
<totfact> 0.75279656E+01</totfact>
</mgrwt>
</event>
<event>
 4    5  0.2473208E-007  0.7718660E+03  0.7818608E-02  0.9775303E-01
         -2   -1    0    0    0  501 -0.00000000000E+00  0.00000000000E+00  0.77928381491E+03  0.77928381492E+03  0.25500000000E-02 0.  1.
          2   -1    0    0  501    0  0.00000000000E+00 -0.00000000000E+00 -0.15675973719E+04  0.15675973719E+04  0.25500000000E-02 0. -1.
    8880023    1    1    2    0    0  0.38082168235E+03 -0.13016062754E+03  0.54558760746E+03  0.94522113095E+03  0.65864270000E+03 0.  1.
    8880022    1    1    2    0    0 -0.38082168235E+03  0.13016062754E+03 -0.13339011645E+04  0.14016600559E+04  0.15294330000E+03 0.  0.
<mgrwt>
<rscale>  0 0.66704945E+03</rscale>
<asrwt>0</asrwt>
<pdfrwt beam="1">  1        2 0.24116883E+00 0.77186602E+03</pdfrwt>
<pdfrwt beam="2">  1       -2 0.11988982E+00 0.77186602E+03</pdfrwt>
<totfact> 0.63323086E+00</totfact>
</mgrwt>
</event>
<event>
 4    5  0.2473208E-007  0.1174968E+04  0.7818608E-02  0.9181847E-01
          2   -1    0    0  501    0  0.00000000000E+00  0.00000000000E+00  0.93105292602E+03  0.93105292603E+03  0.25500000000E-02 0. -1.
         -2   -1    0    0    0  501 -0.00000000000E+00 -0.00000000000E+00 -0.24677633464E+04  0.24677633464E+04  0.25500000000E-02 0.  1.
    8880023    1    1    2    0    0  0.94989684417E+03  0.21079896502E+03 -0.19927953358E+04  0.23133922441E+04  0.65864270000E+03 0.  0.
    8880022    1    1    2    0    0 -0.94989684417E+03 -0.21079896502E+03  0.45608491545E+03  0.10854240284E+04  0.15294330000E+03 0.  0.
<mgrwt>
<rscale>  0 0.11242773E+04</rscale>
<asrwt>0</asrwt>
<pdfrwt beam="1">  1        2 0.14323891E+00 0.11749683E+04</pdfrwt>
<pdfrwt beam="2">  1       -2 0.37965590E+00 0.11749683E+04</pdfrwt>
<totfact> 0.27816724E-01</totfact>
</mgrwt>
</event>
<event>
 4    5  0.2473208E-007  0.1020319E+04  0.7818608E-02  0.9355444E-01
         -2   -1    0    0    0  501 -0.00000000000E+00  0.00000000000E+00  0.84669018610E+03  0.84669018610E+03  0.25500000000E-02 0.  1.
          2   -1    0    0  501    0  0.00000000000E+00 -0.00000000000E+00 -0.16516116962E+04  0.16516116962E+04  0.25500000000E-02 0. -1.
    8880023    1    1    2    0    0 -0.76273587611E+03  0.15960952198E+03  0.36558227308E+03  0.10838366209E+04  0.65864270000E+03 0.  1.
    8880022    1    1    2    0    0  0.76273587611E+03 -0.15960952198E+03 -0.11705037832E+04  0.14144652614E+04  0.15294330000E+03 0.  0.
<mgrwt>
<rscale>  0 0.95834999E+03</rscale>
<asrwt>0</asrwt>
<pdfrwt beam="1">  1        2 0.25409411E+00 0.10203193E+04</pdfrwt>
<pdfrwt beam="2">  1       -2 0.13026003E+00 0.10203193E+04</pdfrwt>
<totfact> 0.44743290E+00</totfact>
</mgrwt>
</event>
<event>
 4    5  0.2473208E-007  0.1020358E+04  0.7818608E-02  0.9355395E-01
         -2   -1    0    0    0  501 -0.00000000000E+00  0.00000000000E+00  0.78730936636E+03  0.78730936636E+03  0.25500000000E-02 0.  1.
          2   -1    0    0  501    0  0.00000000000E+00 -0.00000000000E+00 -0.14582293033E+04  0.14582293033E+04  0.25500000000E-02 0. -1.
    8880023    1    1    2    0    0 -0.46266564053E+03 -0.62710457368E+03  0.22854876439E+03  0.10456406578E+04  0.65864270000E+03 0.  1.
    8880022    1    1    2    0    0  0.46266564053E+03  0.62710457368E+03 -0.89946870137E+03  0.11998980119E+04  0.15294330000E+03 0.  0.
<mgrwt>
<rscale>  0 0.95839196E+03</rscale>
<asrwt>0</asrwt>
<pdfrwt beam="1">  1        2 0.22434297E+00 0.10203577E+04</pdfrwt>
<pdfrwt beam="2">  1       -2 0.12112452E+00 0.10203577E+04</pdfrwt>
<totfact> 0.68959630E+00</totfact>
</mgrwt>
</event>
<event>
 4    5  0.2473208E-007  0.6980432E+03  0.7818608E-02  0.1000542E+00
         -2   -1    0    0    0  501 -0.00000000000E+00  0.00000000000E+00  0.28092625993E+03  0.28092625994E+03  0.25500000000E-02 0.  1.
          2   -1    0    0  501    0  0.00000000000E+00 -0.00000000000E+00 -0.21347667279E+04  0.21347667279E+04  0.25500000000E-02 0. -1.
    8880023    1    1    2    0    0  0.13600619737E+02 -0.23080101143E+03 -0.18248160765E+03  0.72150109295E+03  0.65864270000E+03 0.  1.
    8880022    1    1    2    0    0 -0.13600619737E+02  0.23080101143E+03 -0.16713588603E+04  0.16941918949E+04  0.15294330000E+03 0.  0.
<mgrwt>
<rscale>  0 0.55413323E+03</rscale>
<asrwt>0</asrwt>
<pdfrwt beam="1">  1        2 0.32842564E+00 0.69804319E+03</pdfrwt>
<pdfrwt beam="2">  1       -2 0.43219426E-01 0.69804319E+03</pdfrwt>
<totfact> 0.29743134E+01</totfact>
</mgrwt>
</event>
<event>
 4    5  0.2473208E-007  0.1052216E+04  0.7818608E-02  0.9316222E-01
          2   -1    0    0  501    0  0.00000000000E+00  0.00000000000E+00  0.35386029943E+04  0.35386029943E+04  0.25500000000E-02 0. -1.
         -2   -1    0    0    0  501 -0.00000000000E+00 -0.00000000000E+00 -0.95392668636E+03  0.95392668636E+03  0.25500000000E-02 0.  1.
    8880023    1    1    2    0    0 -0.20872721676E+03  0.79358767895E+03 -0.59247901173E+03  0.12075553986E+04  0.65864270000E+03 0.  0.
    8880022    1    1    2    0    0  0.20872721676E+03 -0.79358767895E+03  0.31771553196E+04  0.32849742820E+04  0.15294330000E+03 0.  0.
<mgrwt>
<rscale>  0 0.99303041E+03</rscale>
<asrwt>0</asrwt>
<pdfrwt beam="1">  1        2 0.54440046E+00 0.10522161E+04</pdfrwt>
<pdfrwt beam="2">  1       -2 0.14675795E+00 0.10522161E+04</pdfrwt>
<totfact> 0.24765497E-01</totfact>
</mgrwt>
</event>
<event>
 4    5  0.2473208E-007  0.1558389E+04  0.7818608E-02  0.8869469E-01
         -2   -1    0    0    0  501 -0.00000000000E+00  0.00000000000E+00  0.13315362264E+04  0.13315362264E+04  0.25500000000E-02 0.  1.
          2   -1    0    0  501    0  0.00000000000E+00 -0.00000000000E+00 -0.35841713335E+04  0.35841713335E+04  0.25500000000E-02 0. -1.
    8880023    1    1    2    0    0 -0.57884649439E+03 -0.12882943520E+04 -0.29476041950E+04  0.33342084965E+04  0.65864270000E+03 0.  0.
    8880022    1    1    2    0    0  0.57884649439E+03  0.12882943520E+04  0.69496908791E+03  0.15814990634E+04  0.15294330000E+03 0.  0.
<mgrwt>
<rscale>  0 0.15227417E+04</rscale>
<asrwt>0</asrwt>
<pdfrwt beam="1">  1        2 0.55141097E+00 0.15583888E+04</pdfrwt>
<pdfrwt beam="2">  1       -2 0.20485173E+00 0.15583888E+04</pdfrwt>
<totfact> 0.82459271E-02</totfact>
</mgrwt>
</event>
<event>
 4    5  0.2473208E-007  0.9055000E+03  0.7818608E-02  0.9517259E-01
         -2   -1    0    0    0  501 -0.00000000000E+00  0.00000000000E+00  0.56974669373E+03  0.56974669374E+03  0.25500000000E-02 0.  1.
          2   -1    0    0  501    0  0.00000000000E+00 -0.00000000000E+00 -0.17604871121E+04  0.17604871121E+04  0.25500000000E-02 0. -1.
    8880023    1    1    2    0    0  0.56842855509E+03  0.25101604213E+03  0.78398432514E+02  0.90888755968E+03  0.65864270000E+03 0.  0.
    8880022    1    1    2    0    0 -0.56842855509E+03 -0.25101604213E+03 -0.12691388509E+04  0.14213462462E+04  0.15294330000E+03 0.  0.
<mgrwt>
<rscale>  0 0.83023233E+03</rscale>
<asrwt>0</asrwt>
<pdfrwt beam="1">  1        2 0.27084417E+00 0.90550002E+03</pdfrwt>
<pdfrwt beam="2">  1       -2 0.87653338E-01 0.90550002E+03</pdfrwt>
<totfact> 0.10287987E+01</totfact>
</mgrwt>
</event>
<event>
 4    5  0.2473208E-007  0.1007925E+04  0.7818608E-02  0.9371262E-01
         -2   -1    0    0    0  501 -0.00000000000E+00  0.00000000000E+00  0.20047870922E+04  0.20047870922E+04  0.25500000000E-02 0.  1.
          2   -1    0    0  501    0  0.00000000000E+00 -0.00000000000E+00 -0.70899143709E+03  0.70899143709E+03  0.25500000000E-02 0. -1.
    8880023    1    1    2    0    0  0.27863956733E+03  0.71025516714E+03  0.15894391381E+04  0.18820811329E+04  0.65864270000E+03 0.  0.
    8880022    1    1    2    0    0 -0.27863956733E+03 -0.71025516714E+03 -0.29364348303E+03  0.83169739633E+03  0.15294330000E+03 0.  0.
<mgrwt>
<rscale>  0 0.94478909E+03</rscale>
<asrwt>0</asrwt>
<pdfrwt beam="1">  1        2 0.10907561E+00 0.10079249E+04</pdfrwt>
<pdfrwt beam="2">  1       -2 0.30842878E+00 0.10079249E+04</pdfrwt>
<totfact> 0.11436086E+00</totfact>
</mgrwt>
</event>
<event>
 4    5  0.2473208E-007  0.7770870E+03  0.7818608E-02  0.9762725E-01
          2   -1    0    0  501    0  0.00000000000E+00  0.00000000000E+00  0.17792786937E+04  0.17792786937E+04  0.25500000000E-02 0. -1.
         -2   -1    0    0    0  501 -0.00000000000E+00 -0.00000000000E+00 -0.34296671612E+03  0.34296671613E+03  0.25500000000E-02 0.  1.
    8880023    1    1    2    0    0  0.39327464442E+03  0.12405290091E+03  0.18911465946E+03  0.79976785935E+03  0.65864270000E+03 0.  1.
    8880022    1    1    2    0    0 -0.39327464442E+03 -0.12405290091E+03  0.12471973181E+04  0.13224775505E+04  0.15294330000E+03 0.  0.
<mgrwt>
<rscale>  0 0.67401901E+03</rscale>
<asrwt>0</asrwt>
<pdfrwt beam="1">  1        2 0.27373518E+00 0.77708704E+03</pdfrwt>
<pdfrwt beam="2">  1       -2 0.52764110E-01 0.77708704E+03</pdfrwt>
<totfact> 0.30766318E+01</totfact>
</mgrwt>
</event>
<event>
 4    5  0.2473208E-007  0.7002782E+03  0.7818608E-02  0.9996049E-01
         -2   -1    0    0    0  501 -0.00000000000E+00  0.00000000000E+00  0.51449635077E+03  0.51449635077E+03  0.25500000000E-02 0.  1.
          2   -1    0    0  501    0  0.00000000000E+00 -0.00000000000E+00 -0.13398047733E+04  0.13398047733E+04  0.25500000000E-02 0. -1.
    8880023    1    1    2    0    0  0.22092238242E+03 -0.88162427206E+02  0.24912786460E+03  0.74327263626E+03  0.65864270000E+03 0.  1.
    8880022    1    1    2    0    0 -0.22092238242E+03  0.88162427206E+02 -0.10744362871E+04  0.11110284878E+04  0.15294330000E+03 0.  0.
<mgrwt>
<rscale>  0 0.55823811E+03</rscale>
<asrwt>0</asrwt>
<pdfrwt beam="1">  1        2 0.20612381E+00 0.70027817E+03</pdfrwt>
<pdfrwt beam="2">  1       -2 0.79153285E-01 0.70027817E+03</pdfrwt>
<totfact> 0.22791813E+01</totfact>
</mgrwt>
</event>
<event>
 4    5  0.2473208E-007  0.3502944E+04  0.7818608E-02  0.8116621E-01
         -2   -1    0    0    0  501 -0.00000000000E+00  0.00000000000E+00  0.29169757453E+04  0.29169757453E+04  0.25500000000E-02 0.  1.
          2   -1    0    0  501    0  0.00000000000E+00 -0.00000000000E+00 -0.46225906482E+04  0.46225906482E+04  0.25500000000E-02 0. -1.
    8880023    1    1    2    0    0 -0.47907437620E+02  0.34401320077E+04  0.36378000617E+03  0.35217821415E+04  0.65864270000E+03 0.  0.
    8880022    1    1    2    0    0  0.47907437620E+02 -0.34401320077E+04 -0.20693949090E+04  0.40177842520E+04  0.15294330000E+03 0.  0.
<mgrwt>
<rscale>  0 0.34880792E+04</rscale>
<asrwt>0</asrwt>
<pdfrwt beam="1">  1        2 0.71116779E+00 0.35029436E+04</pdfrwt>
<pdfrwt beam="2">  1       -2 0.44876550E+00 0.35029436E+04</pdfrwt>
<totfact> 0.24407002E-04</totfact>
</mgrwt>
</event>
<event>
 4    5  0.4909549E-007  0.8084903E+03  0.7818608E-02  0.9692730E-01
         -2   -1    0    0    0  501 -0.00000000000E+00  0.00000000000E+00  0.17396575376E+04  0.17396575376E+04  0.25500000000E-02 0.  1.
          2   -1    0    0  501    0  0.00000000000E+00 -0.00000000000E+00 -0.27904402668E+04  0.27904402668E+04  0.25500000000E-02 0. -1.
    8880023    1    1    2    0    0 -0.45212593141E+03 -0.12421169403E+03  0.16219270727E+04  0.18122648919E+04  0.65864270000E+03 0.  1.
    8880022    1    1    2    0    0  0.45212593141E+03  0.12421169403E+03 -0.26727098019E+04  0.27178329126E+04  0.15294330000E+03 0.  0.
<mgrwt>
<rscale>  0 0.71451288E+03</rscale>
<asrwt>0</asrwt>
<pdfrwt beam="1">  1        2 0.42929850E+00 0.80849033E+03</pdfrwt>
<pdfrwt beam="2">  1       -2 0.26763962E+00 0.80849033E+03</pdfrwt>
<totfact> 0.12514962E-01</totfact>
</mgrwt>
</event>
<event>
 4    5  0.2473208E-007  0.9191184E+03  0.7818608E-02  0.9496012E-01
         -2   -1    0    0    0  501 -0.00000000000E+00  0.00000000000E+00  0.17957682998E+04  0.17957682998E+04  0.25500000000E-02 0.  1.
          2   -1    0    0  501    0  0.00000000000E+00 -0.00000000000E+00 -0.10652956256E+04  0.10652956256E+04  0.25500000000E-02 0. -1.
    8880023    1    1    2    0    0 -0.62521843366E+01 -0.64103768032E+03  0.15545014407E+04  0.18058940536E+04  0.65864270000E+03 0.  0.
    8880022    1    1    2    0    0  0.62521843366E+01  0.64103768032E+03 -0.82402876648E+03  0.10551698718E+04  0.15294330000E+03 0.  0.
<mgrwt>
<rscale>  0 0.84578470E+03</rscale>
<asrwt>0</asrwt>
<pdfrwt beam="1">  1        2 0.16389164E+00 0.91911838E+03</pdfrwt>
<pdfrwt beam="2">  1       -2 0.27627204E+00 0.91911838E+03</pdfrwt>
<totfact> 0.10283305E+00</totfact>
</mgrwt>
</event>
<event>
 4    5  0.2473208E-007  0.7968158E+03  0.7818608E-02  0.9717724E-01
         -2   -1    0    0    0  501 -0.00000000000E+00  0.00000000000E+00  0.12173067291E+04  0.12173067291E+04  0.25500000000E-02 0.  1.
          2   -1    0    0  501    0  0.00000000000E+00 -0.00000000000E+00 -0.11663404712E+04  0.11663404712E+04  0.25500000000E-02 0. -1.
    8880023    1    1    2    0    0 -0.44692540003E+03 -0.36917642479E+02  0.10263037771E+04  0.12993132319E+04  0.65864270000E+03 0.  1.
    8880022    1    1    2    0    0  0.44692540003E+03  0.36917642479E+02 -0.97533751925E+03  0.10843339684E+04  0.15294330000E+03 0.  0.
<mgrwt>
<rscale>  0 0.69971268E+03</rscale>
<asrwt>0</asrwt>
<pdfrwt beam="1">  1        2 0.17943700E+00 0.79681581E+03</pdfrwt>
<pdfrwt beam="2">  1       -2 0.18727796E+00 0.79681581E+03</pdfrwt>
<totfact> 0.32651536E+00</totfact>
</mgrwt>
</event>
<event>
 4    5  0.2473208E-007  0.7816743E+03  0.7818608E-02  0.9751919E-01
         -2   -1    0    0    0  501 -0.00000000000E+00  0.00000000000E+00  0.10356204043E+04  0.10356204043E+04  0.25500000000E-02 0.  1.
          2   -1    0    0  501    0  0.00000000000E+00 -0.00000000000E+00 -0.18410724207E+04  0.18410724207E+04  0.25500000000E-02 0. -1.
    8880023    1    1    2    0    0  0.25226933312E+03 -0.33699359720E+03  0.85407993019E+03  0.11577854872E+04  0.65864270000E+03 0.  0.
    8880022    1    1    2    0    0 -0.25226933312E+03  0.33699359720E+03 -0.16595319466E+04  0.17189073377E+04  0.15294330000E+03 0.  0.
<mgrwt>
<rscale>  0 0.68007952E+03</rscale>
<asrwt>0</asrwt>
<pdfrwt beam="1">  1        2 0.28324191E+00 0.78167430E+03</pdfrwt>
<pdfrwt beam="2">  1       -2 0.15932622E+00 0.78167430E+03</pdfrwt>
<totfact> 0.21468060E+00</totfact>
</mgrwt>
</event>
<event>
 4    5  0.2473208E-007  0.1213863E+04  0.7818608E-02  0.9143763E-01
         -2   -1    0    0    0  501 -0.00000000000E+00  0.00000000000E+00  0.71864393777E+03  0.71864393777E+03  0.25500000000E-02 0.  1.
          2   -1    0    0  501    0  0.00000000000E+00 -0.00000000000E+00 -0.34238277348E+04  0.34238277348E+04  0.25500000000E-02 0. -1.
    8880023    1    1    2    0    0  0.12281378979E+03  0.10122105858E+04  0.35378905248E+02  0.12143785943E+04  0.65864270000E+03 0.  1.
    8880022    1    1    2    0    0 -0.12281378979E+03 -0.10122105858E+04 -0.27405627022E+04  0.29280930783E+04  0.15294330000E+03 0.  0.
<mgrwt>
<rscale>  0 0.11653228E+04</rscale>
<asrwt>0</asrwt>
<pdfrwt beam="1">  1        2 0.52674272E+00 0.12138631E+04</pdfrwt>
<pdfrwt beam="2">  1       -2 0.11056061E+00 0.12138631E+04</pdfrwt>
<totfact> 0.59308843E-01</totfact>
</mgrwt>
</event>
<event>
 4    5  0.2746690E-007  0.7462299E+03  0.7818608E-02  0.9842158E-01
          2   -1    0    0  501    0  0.00000000000E+00  0.00000000000E+00  0.17063608862E+04  0.17063608862E+04  0.25500000000E-02 0. -1.
         -2   -1    0    0    0  501 -0.00000000000E+00 -0.00000000000E+00 -0.13388368663E+04  0.13388368663E+04  0.25500000000E-02 0.  1.
    8880023    1    1    2    0    0 -0.32830516333E+03 -0.12354998401E+03 -0.12101744877E+04  0.14217529236E+04  0.65864270000E+03 0.  1.
    8880022    1    1    2    0    0  0.32830516333E+03  0.12354998401E+03  0.15776985075E+04  0.16234448289E+04  0.15294330000E+03 0.  0.
<mgrwt>
<rscale>  0 0.63148371E+03</rscale>
<asrwt>0</asrwt>
<pdfrwt beam="1">  1        2 0.26251706E+00 0.74622991E+03</pdfrwt>
<pdfrwt beam="2">  1       -2 0.20597490E+00 0.74622991E+03</pdfrwt>
<totfact> 0.12280946E+00</totfact>
</mgrwt>
</event>
<event>
 4    5  0.2473208E-007  0.7747811E+03  0.7818608E-02  0.9768242E-01
         -2   -1    0    0    0  501 -0.00000000000E+00  0.00000000000E+00  0.27313051095E+03  0.27313051096E+03  0.25500000000E-02 0.  1.
          2   -1    0    0  501    0  0.00000000000E+00 -0.00000000000E+00 -0.31467714963E+04  0.31467714963E+04  0.25500000000E-02 0. -1.
    8880023    1    1    2    0    0 -0.30944538111E+03 -0.26593060079E+03 -0.33494306955E+03  0.84408091699E+03  0.65864270000E+03 0.  0.
    8880022    1    1    2    0    0  0.30944538111E+03  0.26593060079E+03 -0.25386979158E+04  0.25758210903E+04  0.15294330000E+03 0.  0.
<mgrwt>
<rscale>  0 0.67095052E+03</rscale>
<asrwt>0</asrwt>
<pdfrwt beam="1">  1        2 0.48411866E+00 0.77478109E+03</pdfrwt>
<pdfrwt beam="2">  1       -2 0.42020081E-01 0.77478109E+03</pdfrwt>
<totfact> 0.80203204E+00</totfact>
</mgrwt>
</event>
<event>
 4    5  0.2473208E-007  0.7019447E+03  0.7818608E-02  0.9989228E-01
          2   -1    0    0  501    0  0.00000000000E+00  0.00000000000E+00  0.10320863759E+04  0.10320863759E+04  0.25500000000E-02 0. -1.
         -2   -1    0    0    0  501 -0.00000000000E+00 -0.00000000000E+00 -0.10711029448E+04  0.10711029448E+04  0.25500000000E-02 0.  1.
    8880023    1    1    2    0    0 -0.22481982971E+03  0.91499415932E+02 -0.93113315424E+03  0.11660768655E+04  0.65864270000E+03 0.  1.
    8880022    1    1    2    0    0  0.22481982971E+03 -0.91499415932E+02  0.89211658534E+03  0.93711245526E+03  0.15294330000E+03 0.  0.
<mgrwt>
<rscale>  0 0.56125116E+03</rscale>
<asrwt>0</asrwt>
<pdfrwt beam="1">  1        2 0.15878252E+00 0.70194466E+03</pdfrwt>
<pdfrwt beam="2">  1       -2 0.16478507E+00 0.70194466E+03</pdfrwt>
<totfact> 0.57331209E+00</totfact>
</mgrwt>
</event>
<event>
 4    5  0.2473208E-007  0.9054921E+03  0.7818608E-02  0.9517272E-01
         -2   -1    0    0    0  501 -0.00000000000E+00  0.00000000000E+00  0.62220096774E+03  0.62220096775E+03  0.25500000000E-02 0.  1.
          2   -1    0    0  501    0  0.00000000000E+00 -0.00000000000E+00 -0.23031114155E+04  0.23031114155E+04  0.25500000000E-02 0. -1.
    8880023    1    1    2    0    0  0.60656172696E+03  0.13486523908E+03  0.20960045612E+03  0.92943440801E+03  0.65864270000E+03 0.  1.
    8880022    1    1    2    0    0 -0.60656172696E+03 -0.13486523908E+03 -0.18905109039E+04  0.19958779752E+04  0.15294330000E+03 0.  0.
<mgrwt>
<rscale>  0 0.83022327E+03</rscale>
<asrwt>0</asrwt>
<pdfrwt beam="1">  1        2 0.35432483E+00 0.90549211E+03</pdfrwt>
<pdfrwt beam="2">  1       -2 0.95723227E-01 0.90549211E+03</pdfrwt>
<totfact> 0.42108881E+00</totfact>
</mgrwt>
</event>
<event>
 4    5  0.2473208E-007  0.9570646E+03  0.7818608E-02  0.9440022E-01
         -2   -1    0    0    0  501 -0.00000000000E+00  0.00000000000E+00  0.48969261969E+03  0.48969261970E+03  0.25500000000E-02 0.  1.
          2   -1    0    0  501    0  0.00000000000E+00 -0.00000000000E+00 -0.30385553970E+04  0.30385553970E+04  0.25500000000E-02 0. -1.
    8880023    1    1    2    0    0  0.24046010971E+03  0.65141490188E+03 -0.81555430818E+02  0.96053315055E+03  0.65864270000E+03 0.  1.
    8880022    1    1    2    0    0 -0.24046010971E+03 -0.65141490188E+03 -0.24673073465E+04  0.25677148662E+04  0.15294330000E+03 0.  0.
<mgrwt>
<rscale>  0 0.88853981E+03</rscale>
<asrwt>0</asrwt>
<pdfrwt beam="1">  1        2 0.46747005E+00 0.95706460E+03</pdfrwt>
<pdfrwt beam="2">  1       -2 0.75337328E-01 0.95706460E+03</pdfrwt>
<totfact> 0.26797361E+00</totfact>
</mgrwt>
</event>
<event>
 4    5  0.2473208E-007  0.9474137E+03  0.7818608E-02  0.9453845E-01
          2   -1    0    0  501    0  0.00000000000E+00  0.00000000000E+00  0.15990243531E+04  0.15990243531E+04  0.25500000000E-02 0. -1.
         -2   -1    0    0    0  501 -0.00000000000E+00 -0.00000000000E+00 -0.97040609901E+03  0.97040609901E+03  0.25500000000E-02 0.  1.
    8880023    1    1    2    0    0  0.64387925052E+03 -0.22181549933E+03 -0.62472270729E+03  0.11348441621E+04  0.65864270000E+03 0.  0.
    8880022    1    1    2    0    0 -0.64387925052E+03  0.22181549933E+03  0.12533409614E+04  0.14345862900E+04  0.15294330000E+03 0.  0.
<mgrwt>
<rscale>  0 0.87773881E+03</rscale>
<asrwt>0</asrwt>
<pdfrwt beam="1">  1        2 0.24600375E+00 0.94741375E+03</pdfrwt>
<pdfrwt beam="2">  1       -2 0.14929325E+00 0.94741375E+03</pdfrwt>
<totfact> 0.33874723E+00</totfact>
</mgrwt>
</event>
<event>
 4    5  0.2473208E-007  0.1116420E+04  0.7818608E-02  0.9242992E-01
          2   -1    0    0  501    0  0.00000000000E+00  0.00000000000E+00  0.31810250206E+04  0.31810250206E+04  0.25500000000E-02 0. -1.
         -2   -1    0    0    0  501 -0.00000000000E+00 -0.00000000000E+00 -0.10187673661E+04  0.10187673661E+04  0.25500000000E-02 0.  1.
    8880023    1    1    2    0    0  0.58622218130E+03 -0.68478170118E+03 -0.61590549687E+03  0.12750420430E+04  0.65864270000E+03 0.  1.
    8880022    1    1    2    0    0 -0.58622218130E+03  0.68478170118E+03  0.27781631514E+04  0.29247503437E+04  0.15294330000E+03 0.  0.
<mgrwt>
<rscale>  0 0.10620493E+04</rscale>
<asrwt>0</asrwt>
<pdfrwt beam="1">  1        2 0.48938847E+00 0.11164196E+04</pdfrwt>
<pdfrwt beam="2">  1       -2 0.15673344E+00 0.11164196E+04</pdfrwt>
<totfact> 0.35572789E-01</totfact>
</mgrwt>
</event>
<event>
 4    5  0.2473208E-007  0.6958555E+03  0.7818608E-02  0.1001485E+00
         -2   -1    0    0    0  501 -0.00000000000E+00  0.00000000000E+00  0.30078247419E+03  0.30078247420E+03  0.25500000000E-02 0.  1.
          2   -1    0    0  501    0  0.00000000000E+00 -0.00000000000E+00 -0.11949943467E+04  0.11949943467E+04  0.25500000000E-02 0. -1.
    8880023    1    1    2    0    0  0.18303650781E+03 -0.13000877925E+03 -0.16153273382E+03  0.71435822682E+03  0.65864270000E+03 0.  1.
    8880022    1    1    2    0    0 -0.18303650781E+03  0.13000877925E+03 -0.73267913866E+03  0.78141859404E+03  0.15294330000E+03 0.  0.
<mgrwt>
<rscale>  0 0.55003916E+03</rscale>
<asrwt>0</asrwt>
<pdfrwt beam="1">  1        2 0.18384528E+00 0.69585548E+03</pdfrwt>
<pdfrwt beam="2">  1       -2 0.46274227E-01 0.69585548E+03</pdfrwt>
<totfact> 0.86183827E+01</totfact>
</mgrwt>
</event>
<event>
 4    5  0.2473208E-007  0.8316390E+03  0.7818608E-02  0.9646152E-01
          2   -1    0    0  501    0  0.00000000000E+00  0.00000000000E+00  0.46712619546E+04  0.46712619546E+04  0.25500000000E-02 0. -1.
         -2   -1    0    0    0  501 -0.00000000000E+00 -0.00000000000E+00 -0.62619821157E+03  0.62619821158E+03  0.25500000000E-02 0.  1.
    8880023    1    1    2    0    0 -0.44302226721E+03  0.24808164083E+03 -0.32680636893E+03  0.89354677482E+03  0.65864270000E+03 0.  1.
    8880022    1    1    2    0    0  0.44302226721E+03 -0.24808164083E+03  0.43718701120E+04  0.44039133914E+04  0.15294330000E+03 0.  0.
<mgrwt>
<rscale>  0 0.74315430E+03</rscale>
<asrwt>0</asrwt>
<pdfrwt beam="1">  1        2 0.71865566E+00 0.83163901E+03</pdfrwt>
<pdfrwt beam="2">  1       -2 0.96338190E-01 0.83163901E+03</pdfrwt>
<totfact> 0.83913336E-02</totfact>
</mgrwt>
</event>
<event>
 4    5  0.2473208E-007  0.1160971E+04  0.7818608E-02  0.9196027E-01
         -2   -1    0    0    0  501 -0.00000000000E+00  0.00000000000E+00  0.11746479925E+04  0.11746479925E+04  0.25500000000E-02 0.  1.
          2   -1    0    0  501    0  0.00000000000E+00 -0.00000000000E+00 -0.32098713978E+04  0.32098713978E+04  0.25500000000E-02 0. -1.
    8880023    1    1    2    0    0  0.82627178495E+03  0.48095631078E+03  0.78584268711E+03  0.14019283044E+04  0.65864270000E+03 0.  0.
    8880022    1    1    2    0    0 -0.82627178495E+03 -0.48095631078E+03 -0.28210660924E+04  0.29825910859E+04  0.15294330000E+03 0.  0.
<mgrwt>
<rscale>  0 0.11094527E+04</rscale>
<asrwt>0</asrwt>
<pdfrwt beam="1">  1        2 0.49382636E+00 0.11609712E+04</pdfrwt>
<pdfrwt beam="2">  1       -2 0.18071508E+00 0.11609712E+04</pdfrwt>
<totfact> 0.22752053E-01</totfact>
</mgrwt>
</event>
<event>
 4    5  0.2473208E-007  0.6891530E+03  0.7818608E-02  0.1004558E+00
          2   -1    0    0  501    0  0.00000000000E+00  0.00000000000E+00  0.49907233448E+04  0.49907233448E+04  0.25500000000E-02 0. -1.
         -2   -1    0    0    0  501 -0.00000000000E+00 -0.00000000000E+00 -0.70036138413E+02  0.70036138459E+02  0.25500000000E-02 0.  1.
    8880023    1    1    2    0    0 -0.13315080775E+03 -0.15294628248E+03  0.17635290550E+04  0.18934008125E+04  0.65864270000E+03 0.  1.
    8880022    1    1    2    0    0  0.13315080775E+03  0.15294628248E+03  0.31571581514E+04  0.31673586707E+04  0.15294330000E+03 0.  0.
<mgrwt>
<rscale>  0 0.53696127E+03</rscale>
<asrwt>0</asrwt>
<pdfrwt beam="1">  1        2 0.76780394E+00 0.68915304E+03</pdfrwt>
<pdfrwt beam="2">  1       -2 0.10774786E-01 0.68915304E+03</pdfrwt>
<totfact> 0.25497050E+00</totfact>
</mgrwt>
</event>
<event>
 4    5  0.2473208E-007  0.9292424E+03  0.7818608E-02  0.9480631E-01
          2   -1    0    0  501    0  0.00000000000E+00  0.00000000000E+00  0.21583537981E+04  0.21583537981E+04  0.25500000000E-02 0. -1.
         -2   -1    0    0    0  501 -0.00000000000E+00 -0.00000000000E+00 -0.57197007277E+03  0.57197007278E+03  0.25500000000E-02 0.  1.
    8880023    1    1    2    0    0 -0.12402917416E+03  0.64365991107E+03 -0.80443845500E+02  0.93271792933E+03  0.65864270000E+03 0.  0.
    8880022    1    1    2    0    0  0.12402917416E+03 -0.64365991107E+03  0.16668275708E+04  0.17976059415E+04  0.15294330000E+03 0.  0.
<mgrwt>
<rscale>  0 0.85727034E+03</rscale>
<asrwt>0</asrwt>
<pdfrwt beam="1">  1        2 0.33205442E+00 0.92924245E+03</pdfrwt>
<pdfrwt beam="2">  1       -2 0.87995398E-01 0.92924245E+03</pdfrwt>
<totfact> 0.61438092E+00</totfact>
</mgrwt>
</event>
<event>
 4    5  0.2473208E-007  0.1537250E+04  0.7818608E-02  0.8883770E-01
          2   -1    0    0  501    0  0.00000000000E+00  0.00000000000E+00  0.17269803769E+04  0.17269803769E+04  0.25500000000E-02 0. -1.
         -2   -1    0    0    0  501 -0.00000000000E+00 -0.00000000000E+00 -0.16949539985E+04  0.16949539985E+04  0.25500000000E-02 0.  1.
    8880023    1    1    2    0    0  0.13813906968E+04  0.14521606560E+03 -0.86256580881E+03  0.17627132336E+04  0.65864270000E+03 0.  0.
    8880022    1    1    2    0    0 -0.13813906968E+04 -0.14521606560E+03  0.89459218727E+03  0.16592211418E+04  0.15294330000E+03 0.  0.
<mgrwt>
<rscale>  0 0.15010267E+04</rscale>
<asrwt>0</asrwt>
<pdfrwt beam="1">  1        2 0.26568929E+00 0.15372502E+04</pdfrwt>
<pdfrwt beam="2">  1       -2 0.26076215E+00 0.15372502E+04</pdfrwt>
<totfact> 0.48893430E-01</totfact>
</mgrwt>
</event>
<event>
 4    5  0.2473208E-007  0.1191714E+04  0.7818608E-02  0.9165219E-01
         -2   -1    0    0    0  501 -0.00000000000E+00  0.00000000000E+00  0.91995136145E+03  0.91995136146E+03  0.25500000000E-02 0.  1.
          2   -1    0    0  501    0  0.00000000000E+00 -0.00000000000E+00 -0.27798859479E+04  0.27798859479E+04  0.25500000000E-02 0. -1.
    8880023    1    1    2    0    0  0.58144781680E+02  0.99145919447E+03  0.37505472918E+03  0.12493391878E+04  0.65864270000E+03 0.  1.
    8880022    1    1    2    0    0 -0.58144781680E+02 -0.99145919447E+03 -0.22349893156E+04  0.24504981216E+04  0.15294330000E+03 0.  0.
<mgrwt>
<rscale>  0 0.11419748E+04</rscale>
<asrwt>0</asrwt>
<pdfrwt beam="1">  1        2 0.42767476E+00 0.11917140E+04</pdfrwt>
<pdfrwt beam="2">  1       -2 0.14153098E+00 0.11917140E+04</pdfrwt>
<totfact> 0.81635932E-01</totfact>
</mgrwt>
</event>
<event>
 4    5  0.2473208E-007  0.1024472E+04  0.7818608E-02  0.9350218E-01
         -2   -1    0    0    0  501 -0.00000000000E+00  0.00000000000E+00  0.53679609631E+03  0.53679609632E+03  0.25500000000E-02 0.  1.
          2   -1    0    0  501    0  0.00000000000E+00 -0.00000000000E+00 -0.20401811138E+04  0.20401811138E+04  0.25500000000E-02 0. -1.
    8880023    1    1    2    0    0 -0.78461863239E+03  0.10353428328E+02 -0.19377729225E+03  0.10426377305E+04  0.65864270000E+03 0.  0.
    8880022    1    1    2    0    0  0.78461863239E+03 -0.10353428328E+02 -0.13096077253E+04  0.15343394797E+04  0.15294330000E+03 0.  0.
<mgrwt>
<rscale>  0 0.96288287E+03</rscale>
<asrwt>0</asrwt>
<pdfrwt beam="1">  1        2 0.31387401E+00 0.10244724E+04</pdfrwt>
<pdfrwt beam="2">  1       -2 0.82584016E-01 0.10244724E+04</pdfrwt>
<totfact> 0.81609576E+00</totfact>
</mgrwt>
</event>
<event>
 4    5  0.2473208E-007  0.1127673E+04  0.7818608E-02  0.9230854E-01
         -2   -1    0    0    0  501 -0.00000000000E+00  0.00000000000E+00  0.54493107360E+03  0.54493107360E+03  0.25500000000E-02 0.  1.
          2   -1    0    0  501    0  0.00000000000E+00 -0.00000000000E+00 -0.26401658767E+04  0.26401658767E+04  0.25500000000E-02 0. -1.
    8880023    1    1    2    0    0 -0.91022622391E+03 -0.96559717355E+02 -0.30431167626E+03  0.11680117124E+04  0.65864270000E+03 0.  1.
    8880022    1    1    2    0    0  0.91022622391E+03  0.96559717355E+02 -0.17909231268E+04  0.20170852379E+04  0.15294330000E+03 0.  0.
<mgrwt>
<rscale>  0 0.10740562E+04</rscale>
<asrwt>0</asrwt>
<pdfrwt beam="1">  1        2 0.40617936E+00 0.11276727E+04</pdfrwt>
<pdfrwt beam="2">  1       -2 0.83835551E-01 0.11276727E+04</pdfrwt>
<totfact> 0.35687149E+00</totfact>
</mgrwt>
</event>
<event>
 4    5  0.2473208E-007  0.1803419E+04  0.7818608E-02  0.8720647E-01
         -2   -1    0    0    0  501 -0.00000000000E+00  0.00000000000E+00  0.19673340512E+04  0.19673340512E+04  0.25500000000E-02 0.  1.
          2   -1    0    0  501    0  0.00000000000E+00 -0.00000000000E+00 -0.18188848033E+04  0.18188848033E+04  0.25500000000E-02 0. -1.
    8880023    1    1    2    0    0 -0.15012881078E+04  0.75142877174E+03 -0.65508839196E+03  0.19187136809E+04  0.65864270000E+03 0.  0.
    8880022    1    1    2    0    0  0.15012881078E+04 -0.75142877174E+03  0.80353763988E+03  0.18675051736E+04  0.15294330000E+03 0.  0.
<mgrwt>
<rscale>  0 0.17732652E+04</rscale>
<asrwt>0</asrwt>
<pdfrwt beam="1">  1        2 0.27982843E+00 0.18034194E+04</pdfrwt>
<pdfrwt beam="2">  1       -2 0.30266678E+00 0.18034194E+04</pdfrwt>
<totfact> 0.23442258E-01</totfact>
</mgrwt>
</event>
<event>
 4    5  0.2473208E-007  0.7025704E+03  0.7818608E-02  0.9986701E-01
          2   -1    0    0  501    0  0.00000000000E+00  0.00000000000E+00  0.12326043044E+04  0.12326043044E+04  0.25500000000E-02 0. -1.
         -2   -1    0    0    0  501 -0.00000000000E+00 -0.00000000000E+00 -0.35992990923E+03  0.35992990923E+03  0.25500000000E-02 0.  1.
    8880023    1    1    2    0    0  0.24391085014E+03  0.17390557853E+02  0.31488211664E+02  0.70327565581E+03  0.65864270000E+03 0.  0.
    8880022    1    1    2    0    0 -0.24391085014E+03 -0.17390557853E+02  0.84118618349E+03  0.88925855780E+03  0.15294330000E+03 0.  0.
<mgrwt>
<rscale>  0 0.56237246E+03</rscale>
<asrwt>0</asrwt>
<pdfrwt beam="1">  1        2 0.18963143E+00 0.70257038E+03</pdfrwt>
<pdfrwt beam="2">  1       -2 0.55373833E-01 0.70257038E+03</pdfrwt>
<totfact> 0.56764828E+01</totfact>
</mgrwt>
</event>
<event>
 4    5  0.2473208E-007  0.7316428E+03  0.7818608E-02  0.9884996E-01
         -2   -1    0    0    0  501 -0.00000000000E+00  0.00000000000E+00  0.67804673757E+03  0.67804673757E+03  0.25500000000E-02 0.  1.
          2   -1    0    0  501    0  0.00000000000E+00 -0.00000000000E+00 -0.20009110725E+04  0.20009110725E+04  0.25500000000E-02 0. -1.
    8880023    1    1    2    0    0  0.31851699827E+03 -0.61596095841E+01  0.45813100520E+03  0.86324112690E+03  0.65864270000E+03 0.  0.
    8880022    1    1    2    0    0 -0.31851699827E+03  0.61596095841E+01 -0.17809953401E+04  0.18157166832E+04  0.15294330000E+03 0.  0.
<mgrwt>
<rscale>  0 0.60993999E+03</rscale>
<asrwt>0</asrwt>
<pdfrwt beam="1">  1        2 0.30783247E+00 0.73164283E+03</pdfrwt>
<pdfrwt beam="2">  1       -2 0.10431488E+00 0.73164283E+03</pdfrwt>
<totfact> 0.51788029E+00</totfact>
</mgrwt>
</event>
<event>
 4    5  0.2473208E-007  0.9555274E+03  0.7818608E-02  0.9442206E-01
          2   -1    0    0  501    0  0.00000000000E+00  0.00000000000E+00  0.20454619851E+04  0.20454619851E+04  0.25500000000E-02 0. -1.
         -2   -1    0    0    0  501 -0.00000000000E+00 -0.00000000000E+00 -0.53239790229E+03  0.53239790229E+03  0.25500000000E-02 0.  1.
    8880023    1    1    2    0    0 -0.54820629194E+03 -0.42271999991E+03  0.55634590568E+02  0.95714562673E+03  0.65864270000E+03 0.  1.
    8880022    1    1    2    0    0  0.54820629194E+03  0.42271999991E+03  0.14574294922E+04  0.16207142606E+04  0.15294330000E+03 0.  0.
<mgrwt>
<rscale>  0 0.88682243E+03</rscale>
<asrwt>0</asrwt>
<pdfrwt beam="1">  1        2 0.31468646E+00 0.95552736E+03</pdfrwt>
<pdfrwt beam="2">  1       -2 0.81907370E-01 0.95552736E+03</pdfrwt>
<totfact> 0.83263435E+00</totfact>
</mgrwt>
</event>
<event>
 4    5  0.2473208E-007  0.9434590E+03  0.7818608E-02  0.9459588E-01
          2   -1    0    0  501    0  0.00000000000E+00  0.00000000000E+00  0.27066715248E+04  0.27066715248E+04  0.25500000000E-02 0. -1.
         -2   -1    0    0    0  501 -0.00000000000E+00 -0.00000000000E+00 -0.46586997773E+03  0.46586997774E+03  0.25500000000E-02 0.  1.
    8880023    1    1    2    0    0  0.53892563465E+03  0.40726386414E+03  0.22914654916E+04  0.24780897886E+04  0.65864270000E+03 0. -1.
    8880022    1    1    2    0    0 -0.53892563465E+03 -0.40726386414E+03 -0.50663944556E+02  0.69445171395E+03  0.15294330000E+03 0.  0.
<mgrwt>
<rscale>  0 0.87329923E+03</rscale>
<asrwt>0</asrwt>
<pdfrwt beam="1">  1        2 0.41641101E+00 0.94345901E+03</pdfrwt>
<pdfrwt beam="2">  1       -2 0.71672304E-01 0.94345901E+03</pdfrwt>
<totfact> 0.47529228E+00</totfact>
</mgrwt>
</event>
<event>
 4    5  0.2473208E-007  0.1101473E+04  0.7818608E-02  0.9259418E-01
          2   -1    0    0  501    0  0.00000000000E+00  0.00000000000E+00  0.17276324347E+04  0.17276324347E+04  0.25500000000E-02 0. -1.
         -2   -1    0    0    0  501 -0.00000000000E+00 -0.00000000000E+00 -0.15152342560E+04  0.15152342560E+04  0.25500000000E-02 0.  1.
    8880023    1    1    2    0    0  0.88092258097E+03  0.58381567034E+02 -0.11627087581E+04  0.16016038410E+04  0.65864270000E+03 0.  1.
    8880022    1    1    2    0    0 -0.88092258097E+03 -0.58381567034E+02  0.13751069368E+04  0.16412628497E+04  0.15294330000E+03 0.  0.
<mgrwt>
<rscale>  0 0.10460635E+04</rscale>
<asrwt>0</asrwt>
<pdfrwt beam="1">  1        2 0.26578960E+00 0.11014732E+04</pdfrwt>
<pdfrwt beam="2">  1       -2 0.23311296E+00 0.11014732E+04</pdfrwt>
<totfact> 0.76119032E-01</totfact>
</mgrwt>
</event>
<event>
 4    5  0.2473208E-007  0.1080335E+04  0.7818608E-02  0.9283273E-01
          2   -1    0    0  501    0  0.00000000000E+00  0.00000000000E+00  0.14825607184E+04  0.14825607184E+04  0.25500000000E-02 0. -1.
         -2   -1    0    0    0  501 -0.00000000000E+00 -0.00000000000E+00 -0.12147082071E+04  0.12147082071E+04  0.25500000000E-02 0.  1.
    8880023    1    1    2    0    0  0.62486095361E+03  0.58554435116E+03 -0.78214473473E+03  0.13337443499E+04  0.65864270000E+03 0.  0.
    8880022    1    1    2    0    0 -0.62486095361E+03 -0.58554435116E+03  0.10499972460E+04  0.13635245756E+04  0.15294330000E+03 0.  0.
<mgrwt>
<rscale>  0 0.10233746E+04</rscale>
<asrwt>0</asrwt>
<pdfrwt beam="1">  1        2 0.22808626E+00 0.10803350E+04</pdfrwt>
<pdfrwt beam="2">  1       -2 0.18687819E+00 0.10803350E+04</pdfrwt>
<totfact> 0.20772267E+00</totfact>
</mgrwt>
</event>
<event>
 4    5  0.2473208E-007  0.6778710E+03  0.7818608E-02  0.1010554E+00
          2   -1    0    0  501    0  0.00000000000E+00  0.00000000000E+00  0.56938203657E+03  0.56938203658E+03  0.25500000000E-02 0. -1.
         -2   -1    0    0    0  501 -0.00000000000E+00 -0.00000000000E+00 -0.44092540433E+03  0.44092540434E+03  0.25500000000E-02 0.  1.
    8880023    1    1    2    0    0 -0.14546669293E+03 -0.67367217174E+02 -0.10782675447E+03  0.68639326624E+03  0.65864270000E+03 0.  1.
    8880022    1    1    2    0    0  0.14546669293E+03  0.67367217174E+02  0.23628338671E+03  0.32391417467E+03  0.15294330000E+03 0.  0.
<mgrwt>
<rscale>  0 0.51254858E+03</rscale>
<asrwt>0</asrwt>
<pdfrwt beam="1">  1        2 0.87597236E-01 0.67787101E+03</pdfrwt>
<pdfrwt beam="2">  1       -2 0.67834678E-01 0.67787101E+03</pdfrwt>
<totfact> 0.10677913E+02</totfact>
</mgrwt>
</event>
<event>
 4    5  0.2473208E-007  0.8534140E+03  0.7818608E-02  0.9605388E-01
         -2   -1    0    0    0  501 -0.00000000000E+00  0.00000000000E+00  0.47227957452E+03  0.47227957453E+03  0.25500000000E-02 0.  1.
          2   -1    0    0  501    0  0.00000000000E+00 -0.00000000000E+00 -0.16889902555E+04  0.16889902555E+04  0.25500000000E-02 0. -1.
    8880023    1    1    2    0    0 -0.35668105355E+03  0.40900357807E+03 -0.37545173798E+02  0.85423951394E+03  0.65864270000E+03 0.  0.
    8880022    1    1    2    0    0  0.35668105355E+03 -0.40900357807E+03 -0.11791655072E+04  0.13070303161E+04  0.15294330000E+03 0.  0.
<mgrwt>
<rscale>  0 0.76940611E+03</rscale>
<asrwt>0</asrwt>
<pdfrwt beam="1">  1        2 0.25984465E+00 0.85341403E+03</pdfrwt>
<pdfrwt beam="2">  1       -2 0.72658397E-01 0.85341403E+03</pdfrwt>
<totfact> 0.17288657E+01</totfact>
</mgrwt>
</event>
<event>
 4    5  0.2473208E-007  0.6853373E+03  0.7818608E-02  0.1006452E+00
         -2   -1    0    0    0  501 -0.00000000000E+00  0.00000000000E+00  0.73034454984E+03  0.73034454985E+03  0.25500000000E-02 0.  1.
          2   -1    0    0  501    0  0.00000000000E+00 -0.00000000000E+00 -0.22483364913E+04  0.22483364913E+04  0.25500000000E-02 0. -1.
    8880023    1    1    2    0    0  0.23000007599E+02 -0.18801075848E+03  0.56088638218E+03  0.88559628817E+03  0.65864270000E+03 0.  1.
    8880022    1    1    2    0    0 -0.23000007599E+02  0.18801075848E+03 -0.20788783236E+04  0.20930847530E+04  0.15294330000E+03 0.  0.
<mgrwt>
<rscale>  0 0.52909233E+03</rscale>
<asrwt>0</asrwt>
<pdfrwt beam="1">  1        2 0.34589792E+00 0.68533733E+03</pdfrwt>
<pdfrwt beam="2">  1       -2 0.11236070E+00 0.68533733E+03</pdfrwt>
<totfact> 0.31955075E+00</totfact>
</mgrwt>
</event>
<event>
 4    5  0.2473208E-007  0.1228483E+04  0.7818608E-02  0.9129921E-01
          2   -1    0    0  501    0  0.00000000000E+00  0.00000000000E+00  0.14645712394E+04  0.14645712394E+04  0.25500000000E-02 0. -1.
         -2   -1    0    0    0  501 -0.00000000000E+00 -0.00000000000E+00 -0.10540129560E+04  0.10540129560E+04  0.25500000000E-02 0.  1.
    8880023    1    1    2    0    0 -0.19385180336E+03 -0.10187151403E+04 -0.28433279382E+03  0.12609577323E+04  0.65864270000E+03 0.  0.
    8880022    1    1    2    0    0  0.19385180336E+03  0.10187151403E+04  0.69489107719E+03  0.12576264632E+04  0.15294330000E+03 0.  0.
<mgrwt>
<rscale>  0 0.11806988E+04</rscale>
<asrwt>0</asrwt>
<pdfrwt beam="1">  1        2 0.22531865E+00 0.12284825E+04</pdfrwt>
<pdfrwt beam="2">  1       -2 0.16215584E+00 0.12284825E+04</pdfrwt>
<totfact> 0.31270009E+00</totfact>
</mgrwt>
</event>
<event>
 4    5  0.2473208E-007  0.7942167E+03  0.7818608E-02  0.9723443E-01
          2   -1    0    0  501    0  0.00000000000E+00  0.00000000000E+00  0.19849624292E+04  0.19849624292E+04  0.25500000000E-02 0. -1.
         -2   -1    0    0    0  501 -0.00000000000E+00 -0.00000000000E+00 -0.26142583826E+03  0.26142583827E+03  0.25500000000E-02 0.  1.
    8880023    1    1    2    0    0 -0.44274877401E+03 -0.30715353731E+02  0.50655161092E+03  0.94200565319E+03  0.65864270000E+03 0.  1.
    8880022    1    1    2    0    0  0.44274877401E+03  0.30715353731E+02  0.12169849800E+04  0.13043826143E+04  0.15294330000E+03 0.  0.
<mgrwt>
<rscale>  0 0.69637990E+03</rscale>
<asrwt>0</asrwt>
<pdfrwt beam="1">  1        2 0.30537883E+00 0.79421667E+03</pdfrwt>
<pdfrwt beam="2">  1       -2 0.40219361E-01 0.79421667E+03</pdfrwt>
<totfact> 0.40860764E+01</totfact>
</mgrwt>
</event>
<event>
 4    5  0.2473208E-007  0.9783748E+03  0.7818608E-02  0.9410413E-01
          2   -1    0    0  501    0  0.00000000000E+00  0.00000000000E+00  0.90366967163E+03  0.90366967163E+03  0.25500000000E-02 0. -1.
         -2   -1    0    0    0  501 -0.00000000000E+00 -0.00000000000E+00 -0.40354861191E+04  0.40354861191E+04  0.25500000000E-02 0.  1.
    8880023    1    1    2    0    0 -0.54107527914E+03  0.48025471553E+03 -0.38113264707E+04  0.39348985657E+04  0.65864270000E+03 0.  0.
    8880022    1    1    2    0    0  0.54107527914E+03 -0.48025471553E+03  0.67951002321E+03  0.10042572251E+04  0.15294330000E+03 0.  0.
<mgrwt>
<rscale>  0 0.91223636E+03</rscale>
<asrwt>0</asrwt>
<pdfrwt beam="1">  1        2 0.13902611E+00 0.97837480E+03</pdfrwt>
<pdfrwt beam="2">  1       -2 0.62084401E+00 0.97837480E+03</pdfrwt>
<totfact> 0.12151836E-02</totfact>
</mgrwt>
</event>
<event>
 4    5  0.2473208E-007  0.1079944E+04  0.7818608E-02  0.9283722E-01
         -2   -1    0    0    0  501 -0.00000000000E+00  0.00000000000E+00  0.65233129605E+03  0.65233129606E+03  0.25500000000E-02 0.  1.
          2   -1    0    0  501    0  0.00000000000E+00 -0.00000000000E+00 -0.23520076654E+04  0.23520076654E+04  0.25500000000E-02 0. -1.
    8880023    1    1    2    0    0  0.77967403320E+03 -0.35295357338E+03  0.16984432845E+02  0.10800770807E+04  0.65864270000E+03 0.  0.
    8880022    1    1    2    0    0 -0.77967403320E+03  0.35295357338E+03 -0.17166608022E+04  0.19242618808E+04  0.15294330000E+03 0.  0.
<mgrwt>
<rscale>  0 0.10229536E+04</rscale>
<asrwt>0</asrwt>
<pdfrwt beam="1">  1        2 0.36184733E+00 0.10799435E+04</pdfrwt>
<pdfrwt beam="2">  1       -2 0.10035866E+00 0.10799435E+04</pdfrwt>
<totfact> 0.34530293E+00</totfact>
</mgrwt>
</event>
<event>
 4    5  0.2473208E-007  0.1059012E+04  0.7818608E-02  0.9308126E-01
         -2   -1    0    0    0  501 -0.00000000000E+00  0.00000000000E+00  0.96004531195E+03  0.96004531196E+03  0.25500000000E-02 0.  1.
          2   -1    0    0  501    0  0.00000000000E+00 -0.00000000000E+00 -0.18180272468E+04  0.18180272468E+04  0.25500000000E-02 0. -1.
    8880023    1    1    2    0    0 -0.33185803791E+03  0.75997782962E+03  0.50661205945E+03  0.11739514657E+04  0.65864270000E+03 0.  0.
    8880022    1    1    2    0    0  0.33185803791E+03 -0.75997782962E+03 -0.13645939943E+04  0.16041210930E+04  0.15294330000E+03 0.  0.
<mgrwt>
<rscale>  0 0.10003824E+04</rscale>
<asrwt>0</asrwt>
<pdfrwt beam="1">  1        2 0.27969650E+00 0.10590119E+04</pdfrwt>
<pdfrwt beam="2">  1       -2 0.14769928E+00 0.10590119E+04</pdfrwt>
<totfact> 0.26010889E+00</totfact>
</mgrwt>
</event>
<event>
 4    5  0.2473208E-007  0.6588225E+03  0.7818608E-02  0.1025397E+00
          2   -1    0    0  501    0  0.00000000000E+00  0.00000000000E+00  0.37741179467E+03  0.37741179468E+03  0.25500000000E-02 0. -1.
         -2   -1    0    0    0  501 -0.00000000000E+00 -0.00000000000E+00 -0.97811882542E+03  0.97811882542E+03  0.25500000000E-02 0.  1.
    8880023    1    1    2    0    0 -0.72276142482E+01 -0.13586700541E+02 -0.84219490516E+03  0.10692704529E+04  0.65864270000E+03 0.  1.
    8880022    1    1    2    0    0  0.72276142482E+01  0.13586700541E+02  0.24148787442E+03  0.28626016723E+03  0.15294330000E+03 0.  0.
<mgrwt>
<rscale>  0 0.45788435E+03</rscale>
<asrwt>0</asrwt>
<pdfrwt beam="1">  1        2 0.58063353E-01 0.65882247E+03</pdfrwt>
<pdfrwt beam="2">  1       -2 0.15047982E+00 0.65882247E+03</pdfrwt>
<totfact> 0.25735852E+01</totfact>
</mgrwt>
</event>
<event>
 4    5  0.2473208E-007  0.1129829E+04  0.7818608E-02  0.9228550E-01
         -2   -1    0    0    0  501 -0.00000000000E+00  0.00000000000E+00  0.89720206441E+03  0.89720206441E+03  0.25500000000E-02 0.  1.
          2   -1    0    0  501    0  0.00000000000E+00 -0.00000000000E+00 -0.17580165137E+04  0.17580165137E+04  0.25500000000E-02 0. -1.
    8880023    1    1    2    0    0 -0.62660518845E+03  0.67087198862E+03  0.29848143664E+03  0.11685908872E+04  0.65864270000E+03 0.  1.
    8880022    1    1    2    0    0  0.62660518845E+03 -0.67087198862E+03 -0.11592958859E+04  0.14866276909E+04  0.15294330000E+03 0.  0.
<mgrwt>
<rscale>  0 0.10763542E+04</rscale>
<asrwt>0</asrwt>
<pdfrwt beam="1">  1        2 0.27046408E+00 0.11298290E+04</pdfrwt>
<pdfrwt beam="2">  1       -2 0.13803109E+00 0.11298290E+04</pdfrwt>
<totfact> 0.33263878E+00</totfact>
</mgrwt>
</event>
<event>
 4    5  0.2473208E-007  0.6717140E+03  0.7818608E-02  0.1014463E+00
          2   -1    0    0  501    0  0.00000000000E+00  0.00000000000E+00  0.13231971529E+04  0.13231971529E+04  0.25500000000E-02 0. -1.
         -2   -1    0    0    0  501 -0.00000000000E+00 -0.00000000000E+00 -0.75656492942E+03  0.75656492942E+03  0.25500000000E-02 0.  1.
    8880023    1    1    2    0    0  0.19817980615E+02 -0.13037175081E+03 -0.59704005199E+03  0.89869715461E+03  0.65864270000E+03 0.  1.
    8880022    1    1    2    0    0 -0.19817980615E+02  0.13037175081E+03  0.11636722754E+04  0.11810649277E+04  0.15294330000E+03 0.  0.
<mgrwt>
<rscale>  0 0.49738859E+03</rscale>
<asrwt>0</asrwt>
<pdfrwt beam="1">  1        2 0.20356879E+00 0.67171404E+03</pdfrwt>
<pdfrwt beam="2">  1       -2 0.11639460E+00 0.67171404E+03</pdfrwt>
<totfact> 0.94764646E+00</totfact>
</mgrwt>
</event>
<event>
 4    5  0.2473208E-007  0.7275275E+03  0.7818608E-02  0.9897893E-01
          2   -1    0    0  501    0  0.00000000000E+00  0.00000000000E+00  0.30840316519E+04  0.30840316519E+04  0.25500000000E-02 0. -1.
         -2   -1    0    0    0  501 -0.00000000000E+00 -0.00000000000E+00 -0.11561443049E+03  0.11561443052E+03  0.25500000000E-02 0.  1.
    8880023    1    1    2    0    0  0.16559816220E+03 -0.26088940154E+03  0.12442059963E+04  0.14412996908E+04  0.65864270000E+03 0.  1.
    8880022    1    1    2    0    0 -0.16559816220E+03  0.26088940154E+03  0.17242112251E+04  0.17583463917E+04  0.15294330000E+03 0.  0.
<mgrwt>
<rscale>  0 0.60363525E+03</rscale>
<asrwt>0</asrwt>
<pdfrwt beam="1">  1        2 0.47446640E+00 0.72752748E+03</pdfrwt>
<pdfrwt beam="2">  1       -2 0.17786836E-01 0.72752748E+03</pdfrwt>
<totfact> 0.42848106E+01</totfact>
</mgrwt>
</event>
<event>
 4    5  0.2473208E-007  0.1541632E+04  0.7818608E-02  0.8880784E-01
          2   -1    0    0  501    0  0.00000000000E+00  0.00000000000E+00  0.39377151128E+04  0.39377151128E+04  0.25500000000E-02 0. -1.
         -2   -1    0    0    0  501 -0.00000000000E+00 -0.00000000000E+00 -0.82352318799E+03  0.82352318799E+03  0.25500000000E-02 0.  1.
    8880023    1    1    2    0    0 -0.23161694565E+03 -0.13744715656E+04  0.29767994340E+04  0.33523072011E+04  0.65864270000E+03 0.  0.
    8880022    1    1    2    0    0  0.23161694565E+03  0.13744715656E+04  0.13739249077E+03  0.14089310997E+04  0.15294330000E+03 0.  0.
<mgrwt>
<rscale>  0 0.15055294E+04</rscale>
<asrwt>0</asrwt>
<pdfrwt beam="1">  1        2 0.60580232E+00 0.15416318E+04</pdfrwt>
<pdfrwt beam="2">  1       -2 0.12669588E+00 0.15416318E+04</pdfrwt>
<totfact> 0.17050155E-01</totfact>
</mgrwt>
</event>
<event>
 4    5  0.2473208E-007  0.6635953E+03  0.7818608E-02  0.1020742E+00
          2   -1    0    0  501    0  0.00000000000E+00  0.00000000000E+00  0.43343300046E+04  0.43343300046E+04  0.25500000000E-02 0. -1.
         -2   -1    0    0    0  501 -0.00000000000E+00 -0.00000000000E+00 -0.91864752897E+03  0.91864752897E+03  0.25500000000E-02 0.  1.
    8880023    1    1    2    0    0 -0.37022230039E+02 -0.71957399866E+02 -0.79680039179E+03  0.10369424205E+04  0.65864270000E+03 0.  1.
    8880022    1    1    2    0    0  0.37022230039E+02  0.71957399866E+02  0.42124828674E+04  0.42160351130E+04  0.15294330000E+03 0.  0.
<mgrwt>
<rscale>  0 0.47419749E+03</rscale>
<asrwt>0</asrwt>
<pdfrwt beam="1">  1        2 0.66681999E+00 0.66359530E+03</pdfrwt>
<pdfrwt beam="2">  1       -2 0.14133039E+00 0.66359530E+03</pdfrwt>
<totfact> 0.72334284E-02</totfact>
</mgrwt>
</event>
<event>
 4    5  0.2473208E-007  0.1153597E+04  0.7818608E-02  0.9203605E-01
          2   -1    0    0  501    0  0.00000000000E+00  0.00000000000E+00  0.13795521057E+04  0.13795521057E+04  0.25500000000E-02 0. -1.
         -2   -1    0    0    0  501 -0.00000000000E+00 -0.00000000000E+00 -0.15078728322E+04  0.15078728322E+04  0.25500000000E-02 0.  1.
    8880023    1    1    2    0    0  0.36921903369E+02 -0.94636789718E+03 -0.10479232651E+04  0.15585021012E+04  0.65864270000E+03 0.  1.
    8880022    1    1    2    0    0 -0.36921903369E+02  0.94636789718E+03  0.91960253860E+03  0.13289228367E+04  0.15294330000E+03 0.  0.
<mgrwt>
<rscale>  0 0.11016298E+04</rscale>
<asrwt>0</asrwt>
<pdfrwt beam="1">  1        2 0.21223879E+00 0.11535968E+04</pdfrwt>
<pdfrwt beam="2">  1       -2 0.23198044E+00 0.11535968E+04</pdfrwt>
<totfact> 0.12059996E+00</totfact>
</mgrwt>
</event>
<event>
 4    5  0.2473208E-007  0.7335119E+03  0.7818608E-02  0.9879266E-01
         -2   -1    0    0    0  501 -0.00000000000E+00  0.00000000000E+00  0.44939661713E+03  0.44939661713E+03  0.25500000000E-02 0.  1.
          2   -1    0    0  501    0  0.00000000000E+00 -0.00000000000E+00 -0.11797512475E+04  0.11797512475E+04  0.25500000000E-02 0. -1.
    8880023    1    1    2    0    0  0.47496025676E+02  0.31933298683E+03  0.85528722695E+02  0.73848141317E+03  0.65864270000E+03 0.  1.
    8880022    1    1    2    0    0 -0.47496025676E+02 -0.31933298683E+03 -0.81588335311E+03  0.89066645150E+03  0.15294330000E+03 0.  0.
<mgrwt>
<rscale>  0 0.61276740E+03</rscale>
<asrwt>0</asrwt>
<pdfrwt beam="1">  1        2 0.18150019E+00 0.73351185E+03</pdfrwt>
<pdfrwt beam="2">  1       -2 0.69137942E-01 0.73351185E+03</pdfrwt>
<totfact> 0.37935730E+01</totfact>
</mgrwt>
</event>
<event>
 4    5  0.2473208E-007  0.1239201E+04  0.7818608E-02  0.9119927E-01
         -2   -1    0    0    0  501 -0.00000000000E+00  0.00000000000E+00  0.18380221397E+04  0.18380221397E+04  0.25500000000E-02 0.  1.
          2   -1    0    0  501    0  0.00000000000E+00 -0.00000000000E+00 -0.15056446702E+04  0.15056446702E+04  0.25500000000E-02 0. -1.
    8880023    1    1    2    0    0  0.10316835234E+04 -0.19348855801E+03  0.13786595928E+04  0.18537316941E+04  0.65864270000E+03 0.  1.
    8880022    1    1    2    0    0 -0.10316835234E+04  0.19348855801E+03 -0.10462821234E+04  0.14899351158E+04  0.15294330000E+03 0.  0.
<mgrwt>
<rscale>  0 0.11919555E+04</rscale>
<asrwt>0</asrwt>
<pdfrwt beam="1">  1        2 0.23163764E+00 0.12392009E+04</pdfrwt>
<pdfrwt beam="2">  1       -2 0.28277263E+00 0.12392009E+04</pdfrwt>
<totfact> 0.49462989E-01</totfact>
</mgrwt>
</event>
<event>
 4    5  0.2473208E-007  0.6934881E+03  0.7818608E-02  0.1002537E+00
         -2   -1    0    0    0  501 -0.00000000000E+00  0.00000000000E+00  0.21349900586E+04  0.21349900586E+04  0.25500000000E-02 0.  1.
          2   -1    0    0  501    0  0.00000000000E+00 -0.00000000000E+00 -0.65622197556E+03  0.65622197556E+03  0.25500000000E-02 0. -1.
    8880023    1    1    2    0    0  0.13568212933E+03 -0.16942825740E+03  0.20484672690E+04  0.21626705558E+04  0.65864270000E+03 0.  1.
    8880022    1    1    2    0    0 -0.13568212933E+03  0.16942825740E+03 -0.56969918590E+03  0.62854147839E+03  0.15294330000E+03 0.  0.
<mgrwt>
<rscale>  0 0.54551724E+03</rscale>
<asrwt>0</asrwt>
<pdfrwt beam="1">  1        2 0.10095723E+00 0.69348813E+03</pdfrwt>
<pdfrwt beam="2">  1       -2 0.32846001E+00 0.69348813E+03</pdfrwt>
<totfact> 0.10008191E+00</totfact>
</mgrwt>
</event>
<event>
 4    5  0.2473208E-007  0.7159080E+03  0.7818608E-02  0.9936683E-01
          2   -1    0    0  501    0  0.00000000000E+00  0.00000000000E+00  0.70410374678E+03  0.70410374678E+03  0.25500000000E-02 0. -1.
         -2   -1    0    0    0  501 -0.00000000000E+00 -0.00000000000E+00 -0.68257968319E+03  0.68257968319E+03  0.25500000000E-02 0.  1.
    8880023    1    1    2    0    0  0.18063879050E+03 -0.21467110795E+03 -0.42880462000E+03  0.83450444314E+03  0.65864270000E+03 0.  1.
    8880022    1    1    2    0    0 -0.18063879050E+03  0.21467110795E+03  0.45032868359E+03  0.55217898683E+03  0.15294330000E+03 0.  0.
<mgrwt>
<rscale>  0 0.58515937E+03</rscale>
<asrwt>0</asrwt>
<pdfrwt beam="1">  1        2 0.10832365E+00 0.71590800E+03</pdfrwt>
<pdfrwt beam="2">  1       -2 0.10501226E+00 0.71590800E+03</pdfrwt>
<totfact> 0.30379004E+01</totfact>
</mgrwt>
</event>
<event>
 4    5  0.2473208E-007  0.8413369E+03  0.7818608E-02  0.9627664E-01
         -2   -1    0    0    0  501 -0.00000000000E+00  0.00000000000E+00  0.61480232358E+03  0.61480232359E+03  0.25500000000E-02 0.  1.
          2   -1    0    0  501    0  0.00000000000E+00 -0.00000000000E+00 -0.10302464981E+04  0.10302464981E+04  0.25500000000E-02 0. -1.
    8880023    1    1    2    0    0  0.12596469898E+03 -0.50810482601E+03  0.15539108833E+03  0.85556660535E+03  0.65864270000E+03 0.  0.
    8880022    1    1    2    0    0 -0.12596469898E+03  0.50810482601E+03 -0.57083526289E+03  0.78948221638E+03  0.15294330000E+03 0.  0.
<mgrwt>
<rscale>  0 0.75491912E+03</rscale>
<asrwt>0</asrwt>
<pdfrwt beam="1">  1        2 0.15849946E+00 0.84133693E+03</pdfrwt>
<pdfrwt beam="2">  1       -2 0.94584973E-01 0.84133693E+03</pdfrwt>
<totfact> 0.22860704E+01</totfact>
</mgrwt>
</event>
<event>
 4    5  0.2473208E-007  0.6966249E+03  0.7818608E-02  0.1001150E+00
          2   -1    0    0  501    0  0.00000000000E+00  0.00000000000E+00  0.15517821267E+04  0.15517821267E+04  0.25500000000E-02 0. -1.
         -2   -1    0    0    0  501 -0.00000000000E+00 -0.00000000000E+00 -0.13256263503E+04  0.13256263503E+04  0.25500000000E-02 0.  1.
    8880023    1    1    2    0    0 -0.18089789871E+03 -0.13693784991E+03 -0.12203867098E+04  0.14052152690E+04  0.65864270000E+03 0.  1.
    8880022    1    1    2    0    0  0.18089789871E+03  0.13693784991E+03  0.14465424861E+04  0.14721932080E+04  0.15294330000E+03 0.  0.
<mgrwt>
<rscale>  0 0.55148796E+03</rscale>
<asrwt>0</asrwt>
<pdfrwt beam="1">  1        2 0.23873571E+00 0.69662489E+03</pdfrwt>
<pdfrwt beam="2">  1       -2 0.20394252E+00 0.69662489E+03</pdfrwt>
<totfact> 0.15539232E+00</totfact>
</mgrwt>
</event>
<event>
 4    5  0.2473208E-007  0.9257062E+03  0.7818608E-02  0.9485965E-01
          2   -1    0    0  501    0  0.00000000000E+00  0.00000000000E+00  0.30760524483E+04  0.30760524483E+04  0.25500000000E-02 0. -1.
         -2   -1    0    0    0  501 -0.00000000000E+00 -0.00000000000E+00 -0.97747127089E+03  0.97747127089E+03  0.25500000000E-02 0.  1.
    8880023    1    1    2    0    0  0.62657489233E+03  0.17471604884E+03 -0.70994499189E+03  0.11665992848E+04  0.65864270000E+03 0.  0.
    8880022    1    1    2    0    0 -0.62657489233E+03 -0.17471604884E+03  0.28085261693E+04  0.28869244344E+04  0.15294330000E+03 0.  0.
<mgrwt>
<rscale>  0 0.85326553E+03</rscale>
<asrwt>0</asrwt>
<pdfrwt beam="1">  1        2 0.47323883E+00 0.92570622E+03</pdfrwt>
<pdfrwt beam="2">  1       -2 0.15038020E+00 0.92570622E+03</pdfrwt>
<totfact> 0.47912790E-01</totfact>
</mgrwt>
</event>
<event>
 4    5  0.2473208E-007  0.9658799E+03  0.7818608E-02  0.9427625E-01
         -2   -1    0    0    0  501 -0.00000000000E+00  0.00000000000E+00  0.17113990254E+04  0.17113990254E+04  0.25500000000E-02 0.  1.
          2   -1    0    0  501    0  0.00000000000E+00 -0.00000000000E+00 -0.63570262026E+03  0.63570262027E+03  0.25500000000E-02 0. -1.
    8880023    1    1    2    0    0  0.19717870357E+03 -0.67840573561E+03  0.12728677225E+04  0.15978473733E+04  0.65864270000E+03 0.  1.
    8880022    1    1    2    0    0 -0.19717870357E+03  0.67840573561E+03 -0.19717131733E+03  0.74925427235E+03  0.15294330000E+03 0.  0.
<mgrwt>
<rscale>  0 0.89836681E+03</rscale>
<asrwt>0</asrwt>
<pdfrwt beam="1">  1        2 0.97800405E-01 0.96587990E+03</pdfrwt>
<pdfrwt beam="2">  1       -2 0.26329215E+00 0.96587990E+03</pdfrwt>
<totfact> 0.24722393E+00</totfact>
</mgrwt>
</event>
<event>
 4    5  0.2473208E-007  0.9802059E+03  0.7818608E-02  0.9407925E-01
          2   -1    0    0  501    0  0.00000000000E+00  0.00000000000E+00  0.20337864749E+04  0.20337864750E+04  0.25500000000E-02 0. -1.
         -2   -1    0    0    0  501 -0.00000000000E+00 -0.00000000000E+00 -0.90048446576E+03  0.90048446577E+03  0.25500000000E-02 0.  1.
    8880023    1    1    2    0    0  0.60216970839E+03  0.40544428897E+03 -0.52906478947E+03  0.11138730569E+04  0.65864270000E+03 0.  0.
    8880022    1    1    2    0    0 -0.60216970839E+03 -0.40544428897E+03  0.16623667987E+04  0.18203978838E+04  0.15294330000E+03 0.  0.
<mgrwt>
<rscale>  0 0.91426337E+03</rscale>
<asrwt>0</asrwt>
<pdfrwt beam="1">  1        2 0.31289022E+00 0.98020591E+03</pdfrwt>
<pdfrwt beam="2">  1       -2 0.13853607E+00 0.98020591E+03</pdfrwt>
<totfact> 0.23643463E+00</totfact>
</mgrwt>
</event>
<event>
 4    5  0.2473208E-007  0.8060307E+03  0.7818608E-02  0.9697905E-01
          2   -1    0    0  501    0  0.00000000000E+00  0.00000000000E+00  0.28722236335E+04  0.28722236335E+04  0.25500000000E-02 0. -1.
         -2   -1    0    0    0  501 -0.00000000000E+00 -0.00000000000E+00 -0.49811733575E+03  0.49811733576E+03  0.25500000000E-02 0.  1.
    8880023    1    1    2    0    0  0.11818845537E+03  0.44934036523E+03 -0.13215428035E+03  0.81679265110E+03  0.65864270000E+03 0.  1.
    8880022    1    1    2    0    0 -0.11818845537E+03 -0.44934036523E+03  0.25062605781E+04  0.25535483181E+04  0.15294330000E+03 0.  0.
<mgrwt>
<rscale>  0 0.71141664E+03</rscale>
<asrwt>0</asrwt>
<pdfrwt beam="1">  1        2 0.44188055E+00 0.80603069E+03</pdfrwt>
<pdfrwt beam="2">  1       -2 0.76633438E-01 0.80603069E+03</pdfrwt>
<totfact> 0.33432435E+00</totfact>
</mgrwt>
</event>
<event>
 4    5  0.2473208E-007  0.7442085E+03  0.7818608E-02  0.9847853E-01
         -2   -1    0    0    0  501 -0.00000000000E+00  0.00000000000E+00  0.43079330594E+03  0.43079330595E+03  0.25500000000E-02 0.  1.
          2   -1    0    0  501    0  0.00000000000E+00 -0.00000000000E+00 -0.12212129858E+04  0.12212129858E+04  0.25500000000E-02 0. -1.
    8880023    1    1    2    0    0 -0.14173151761E+03 -0.31614585492E+03  0.33764687218E+02  0.74497401635E+03  0.65864270000E+03 0.  1.
    8880022    1    1    2    0    0  0.14173151761E+03  0.31614585492E+03 -0.82418436704E+03  0.90703227537E+03  0.15294330000E+03 0.  0.
<mgrwt>
<rscale>  0 0.62856482E+03</rscale>
<asrwt>0</asrwt>
<pdfrwt beam="1">  1        2 0.18787892E+00 0.74420846E+03</pdfrwt>
<pdfrwt beam="2">  1       -2 0.66275894E-01 0.74420846E+03</pdfrwt>
<totfact> 0.39249721E+01</totfact>
</mgrwt>
</event>
<event>
 4    5  0.2473208E-007  0.1648197E+04  0.7818608E-02  0.8811510E-01
          2   -1    0    0  501    0  0.00000000000E+00  0.00000000000E+00  0.15124792885E+04  0.15124792885E+04  0.25500000000E-02 0. -1.
         -2   -1    0    0    0  501 -0.00000000000E+00 -0.00000000000E+00 -0.19908516353E+04  0.19908516353E+04  0.25500000000E-02 0.  1.
    8880023    1    1    2    0    0 -0.68099028004E+02  0.15093399258E+04 -0.96346126564E+03  0.19091391531E+04  0.65864270000E+03 0.  0.
    8880022    1    1    2    0    0  0.68099028004E+02 -0.15093399258E+04  0.48508891889E+03  0.15941917706E+04  0.15294330000E+03 0.  0.
<mgrwt>
<rscale>  0 0.16147955E+04</rscale>
<asrwt>0</asrwt>
<pdfrwt beam="1">  1        2 0.23268912E+00 0.16481974E+04</pdfrwt>
<pdfrwt beam="2">  1       -2 0.30628487E+00 0.16481974E+04</pdfrwt>
<totfact> 0.33661274E-01</totfact>
</mgrwt>
</event>
<event>
 4    5  0.2473208E-007  0.8637519E+03  0.7818608E-02  0.9586924E-01
          2   -1    0    0  501    0  0.00000000000E+00  0.00000000000E+00  0.20518322724E+04  0.20518322724E+04  0.25500000000E-02 0. -1.
         -2   -1    0    0    0  501 -0.00000000000E+00 -0.00000000000E+00 -0.97942071205E+03  0.97942071205E+03  0.25500000000E-02 0.  1.
    8880023    1    1    2    0    0  0.53822881943E+03  0.15022281539E+03 -0.73444356133E+03  0.11337877700E+04  0.65864270000E+03 0.  0.
    8880022    1    1    2    0    0 -0.53822881943E+03 -0.15022281539E+03  0.18068551217E+04  0.18974652145E+04  0.15294330000E+03 0.  0.
<mgrwt>
<rscale>  0 0.78167713E+03</rscale>
<asrwt>0</asrwt>
<pdfrwt beam="1">  1        2 0.31566650E+00 0.86375191E+03</pdfrwt>
<pdfrwt beam="2">  1       -2 0.15068011E+00 0.86375191E+03</pdfrwt>
<totfact> 0.18856910E+00</totfact>
</mgrwt>
</event>
<event>
 4    5  0.2473208E-007  0.6673857E+03  0.7818608E-02  0.1017611E+00
         -2   -1    0    0    0  501 -0.00000000000E+00  0.00000000000E+00  0.38759132230E+03  0.38759132231E+03  0.25500000000E-02 0.  1.
          2   -1    0    0  501    0  0.00000000000E+00 -0.00000000000E+00 -0.68644309137E+03  0.68644309137E+03  0.25500000000E-02 0. -1.
    8880023    1    1    2    0    0 -0.10728410502E+03  0.91393095544E+01  0.59266914612E+02  0.67001207422E+03  0.65864270000E+03 0.  1.
    8880022    1    1    2    0    0  0.10728410502E+03 -0.91393095544E+01 -0.35811868368E+03  0.40402233946E+03  0.15294330000E+03 0.  0.
<mgrwt>
<rscale>  0 0.48558804E+03</rscale>
<asrwt>0</asrwt>
<pdfrwt beam="1">  1        2 0.10560663E+00 0.66738565E+03</pdfrwt>
<pdfrwt beam="2">  1       -2 0.59629434E-01 0.66738565E+03</pdfrwt>
<totfact> 0.11205753E+02</totfact>
</mgrwt>
</event>
<event>
 4    5  0.2473208E-007  0.1490956E+04  0.7818608E-02  0.8916049E-01
          2   -1    0    0  501    0  0.00000000000E+00  0.00000000000E+00  0.26328141707E+04  0.26328141707E+04  0.25500000000E-02 0. -1.
         -2   -1    0    0    0  501 -0.00000000000E+00 -0.00000000000E+00 -0.13322109602E+04  0.13322109602E+04  0.25500000000E-02 0.  1.
    8880023    1    1    2    0    0  0.10688370588E+04  0.80419331536E+03 -0.62400463530E+03  0.16162708739E+04  0.65864270000E+03 0.  0.
    8880022    1    1    2    0    0 -0.10688370588E+04 -0.80419331536E+03  0.19246078458E+04  0.23487542570E+04  0.15294330000E+03 0.  0.
<mgrwt>
<rscale>  0 0.14533971E+04</rscale>
<asrwt>0</asrwt>
<pdfrwt beam="1">  1        2 0.40504833E+00 0.14909560E+04</pdfrwt>
<pdfrwt beam="2">  1       -2 0.20495554E+00 0.14909560E+04</pdfrwt>
<totfact> 0.33806511E-01</totfact>
</mgrwt>
</event>
<event>
 4    5  0.2473208E-007  0.8238823E+03  0.7818608E-02  0.9661355E-01
         -2   -1    0    0    0  501 -0.00000000000E+00  0.00000000000E+00  0.11894734971E+04  0.11894734971E+04  0.25500000000E-02 0.  1.
          2   -1    0    0  501    0  0.00000000000E+00 -0.00000000000E+00 -0.70098972586E+03  0.70098972586E+03  0.25500000000E-02 0. -1.
    8880023    1    1    2    0    0 -0.24510050248E+03  0.42999725775E+03  0.90638734325E+03  0.12248755530E+04  0.65864270000E+03 0.  0.
    8880022    1    1    2    0    0  0.24510050248E+03 -0.42999725775E+03 -0.41790357199E+03  0.66558767002E+03  0.15294330000E+03 0.  0.
<mgrwt>
<rscale>  0 0.73365070E+03</rscale>
<asrwt>0</asrwt>
<pdfrwt beam="1">  1        2 0.10784457E+00 0.82388234E+03</pdfrwt>
<pdfrwt beam="2">  1       -2 0.18299592E+00 0.82388234E+03</pdfrwt>
<totfact> 0.71432663E+00</totfact>
</mgrwt>
</event>
<event>
 4    5  0.2473208E-007  0.9579122E+03  0.7818608E-02  0.9438820E-01
         -2   -1    0    0    0  501 -0.00000000000E+00  0.00000000000E+00  0.76264006235E+03  0.76264006236E+03  0.25500000000E-02 0.  1.
          2   -1    0    0  501    0  0.00000000000E+00 -0.00000000000E+00 -0.30856216163E+04  0.30856216163E+04  0.25500000000E-02 0. -1.
    8880023    1    1    2    0    0 -0.51869108658E+02 -0.69361018819E+03  0.39675774829E+03  0.10368280545E+04  0.65864270000E+03 0.  0.
    8880022    1    1    2    0    0  0.51869108658E+02  0.69361018819E+03 -0.27197393022E+04  0.28114336241E+04  0.15294330000E+03 0.  0.
<mgrwt>
<rscale>  0 0.88948622E+03</rscale>
<asrwt>0</asrwt>
<pdfrwt beam="1">  1        2 0.47471101E+00 0.95791216E+03</pdfrwt>
<pdfrwt beam="2">  1       -2 0.11732924E+00 0.95791216E+03</pdfrwt>
<totfact> 0.88690807E-01</totfact>
</mgrwt>
</event>
<event>
 4    5  0.2473208E-007  0.9307559E+03  0.7818608E-02  0.9478360E-01
         -2   -1    0    0    0  501 -0.00000000000E+00  0.00000000000E+00  0.52733702257E+03  0.52733702257E+03  0.25500000000E-02 0.  1.
          2   -1    0    0  501    0  0.00000000000E+00 -0.00000000000E+00 -0.24038381085E+04  0.24038381085E+04  0.25500000000E-02 0. -1.
    8880023    1    1    2    0    0 -0.61670241344E+03 -0.22841714773E+03  0.65014399830E+01  0.93077856395E+03  0.65864270000E+03 0.  1.
    8880022    1    1    2    0    0  0.61670241344E+03  0.22841714773E+03 -0.18830025259E+04  0.20003965671E+04  0.15294330000E+03 0.  0.
<mgrwt>
<rscale>  0 0.85898206E+03</rscale>
<asrwt>0</asrwt>
<pdfrwt beam="1">  1        2 0.36982124E+00 0.93075586E+03</pdfrwt>
<pdfrwt beam="2">  1       -2 0.81128774E-01 0.93075586E+03</pdfrwt>
<totfact> 0.53918588E+00</totfact>
</mgrwt>
</event>
<event>
 4    5  0.2473208E-007  0.8189252E+03  0.7818608E-02  0.9671277E-01
         -2   -1    0    0    0  501 -0.00000000000E+00  0.00000000000E+00  0.10563505841E+04  0.10563505841E+04  0.25500000000E-02 0.  1.
          2   -1    0    0  501    0  0.00000000000E+00 -0.00000000000E+00 -0.82016432948E+03  0.82016432949E+03  0.25500000000E-02 0. -1.
    8880023    1    1    2    0    0 -0.48497537875E+03 -0.40338897754E+02  0.77996210702E+03  0.11309197316E+04  0.65864270000E+03 0.  1.
    8880022    1    1    2    0    0  0.48497537875E+03  0.40338897754E+02 -0.54377585243E+03  0.74559518196E+03  0.15294330000E+03 0.  0.
<mgrwt>
<rscale>  0 0.72752978E+03</rscale>
<asrwt>0</asrwt>
<pdfrwt beam="1">  1        2 0.12617913E+00 0.81892524E+03</pdfrwt>
<pdfrwt beam="2">  1       -2 0.16251547E+00 0.81892524E+03</pdfrwt>
<totfact> 0.81179284E+00</totfact>
</mgrwt>
</event>
<event>
 4    5  0.2473208E-007  0.7788459E+03  0.7818608E-02  0.9758555E-01
          2   -1    0    0  501    0  0.00000000000E+00  0.00000000000E+00  0.16061701477E+04  0.16061701477E+04  0.25500000000E-02 0. -1.
         -2   -1    0    0    0  501 -0.00000000000E+00 -0.00000000000E+00 -0.41513339472E+03  0.41513339473E+03  0.25500000000E-02 0.  1.
    8880023    1    1    2    0    0  0.18087119049E+03  0.37426774180E+03  0.30864385076E+02  0.77945721283E+03  0.65864270000E+03 0.  1.
    8880022    1    1    2    0    0 -0.18087119049E+03 -0.37426774180E+03  0.11601723679E+04  0.12418463296E+04  0.15294330000E+03 0.  0.
<mgrwt>
<rscale>  0 0.67634947E+03</rscale>
<asrwt>0</asrwt>
<pdfrwt beam="1">  1        2 0.24710310E+00 0.77884590E+03</pdfrwt>
<pdfrwt beam="2">  1       -2 0.63866675E-01 0.77884590E+03</pdfrwt>
<totfact> 0.25634611E+01</totfact>
</mgrwt>
</event>
<event>
 4    5  0.2473208E-007  0.8462695E+03  0.7818608E-02  0.9618470E-01
          2   -1    0    0  501    0  0.00000000000E+00  0.00000000000E+00  0.14079888561E+04  0.14079888561E+04  0.25500000000E-02 0. -1.
         -2   -1    0    0    0  501 -0.00000000000E+00 -0.00000000000E+00 -0.65388001016E+03  0.65388001016E+03  0.25500000000E-02 0.  1.
    8880023    1    1    2    0    0  0.16770818908E+03 -0.50421803395E+03 -0.27817536779E+03  0.89081625712E+03  0.65864270000E+03 0.  0.
    8880022    1    1    2    0    0 -0.16770818908E+03  0.50421803395E+03  0.10322842137E+04  0.11710526091E+04  0.15294330000E+03 0.  0.
<mgrwt>
<rscale>  0 0.76085684E+03</rscale>
<asrwt>0</asrwt>
<pdfrwt beam="1">  1        2 0.21661367E+00 0.84626950E+03</pdfrwt>
<pdfrwt beam="2">  1       -2 0.10059692E+00 0.84626950E+03</pdfrwt>
<totfact> 0.11789466E+01</totfact>
</mgrwt>
</event>
<event>
 4    5  0.2473208E-007  0.9438796E+03  0.7818608E-02  0.9458975E-01
          2   -1    0    0  501    0  0.00000000000E+00  0.00000000000E+00  0.25368318820E+04  0.25368318820E+04  0.25500000000E-02 0. -1.
         -2   -1    0    0    0  501 -0.00000000000E+00 -0.00000000000E+00 -0.40963760420E+03  0.40963760421E+03  0.25500000000E-02 0.  1.
    8880023    1    1    2    0    0 -0.65981498043E+03 -0.14745426181E+03  0.29715557131E+03  0.98955050783E+03  0.65864270000E+03 0.  1.
    8880022    1    1    2    0    0  0.65981498043E+03  0.14745426181E+03  0.18300387065E+04  0.19569189784E+04  0.15294330000E+03 0.  0.
<mgrwt>
<rscale>  0 0.87377182E+03</rscale>
<asrwt>0</asrwt>
<pdfrwt beam="1">  1        2 0.39028182E+00 0.94387964E+03</pdfrwt>
<pdfrwt beam="2">  1       -2 0.63021171E-01 0.94387964E+03</pdfrwt>
<totfact> 0.78829484E+00</totfact>
</mgrwt>
</event>
<event>
 4    5  0.2473208E-007  0.7824953E+03  0.7818608E-02  0.9750008E-01
         -2   -1    0    0    0  501 -0.00000000000E+00  0.00000000000E+00  0.56670829991E+03  0.56670829991E+03  0.25500000000E-02 0.  1.
          2   -1    0    0  501    0  0.00000000000E+00 -0.00000000000E+00 -0.16656522094E+04  0.16656522094E+04  0.25500000000E-02 0. -1.
    8880023    1    1    2    0    0  0.39671099261E+03 -0.14528952712E+03  0.24126071530E+03  0.81884406169E+03  0.65864270000E+03 0.  0.
    8880022    1    1    2    0    0 -0.39671099261E+03  0.14528952712E+03 -0.13402046247E+04  0.14135164476E+04  0.15294330000E+03 0.  0.
<mgrwt>
<rscale>  0 0.68115828E+03</rscale>
<asrwt>0</asrwt>
<pdfrwt beam="1">  1        2 0.25625418E+00 0.78249528E+03</pdfrwt>
<pdfrwt beam="2">  1       -2 0.87185893E-01 0.78249528E+03</pdfrwt>
<totfact> 0.11923313E+01</totfact>
</mgrwt>
</event>
<event>
 4    5  0.2473208E-007  0.8726291E+03  0.7818608E-02  0.9571482E-01
          2   -1    0    0  501    0  0.00000000000E+00  0.00000000000E+00  0.14934368862E+04  0.14934368862E+04  0.25500000000E-02 0. -1.
         -2   -1    0    0    0  501 -0.00000000000E+00 -0.00000000000E+00 -0.40002161018E+03  0.40002161019E+03  0.25500000000E-02 0.  1.
    8880023    1    1    2    0    0  0.57237663181E+03 -0.75041185326E+01  0.34369735080E+03  0.93787493604E+03  0.65864270000E+03 0.  0.
    8880022    1    1    2    0    0 -0.57237663181E+03  0.75041185326E+01  0.74971792524E+03  0.95558356038E+03  0.15294330000E+03 0.  1.
<mgrwt>
<rscale>  0 0.79212805E+03</rscale>
<asrwt>0</asrwt>
<pdfrwt beam="1">  1        2 0.22975952E+00 0.87262909E+03</pdfrwt>
<pdfrwt beam="2">  1       -2 0.61541787E-01 0.87262909E+03</pdfrwt>
<totfact> 0.31732881E+01</totfact>
</mgrwt>
</event>
<event>
 4    5  0.2473208E-007  0.8137672E+03  0.7818608E-02  0.9681783E-01
         -2   -1    0    0    0  501 -0.00000000000E+00  0.00000000000E+00  0.82777229100E+03  0.82777229100E+03  0.25500000000E-02 0.  1.
          2   -1    0    0  501    0  0.00000000000E+00 -0.00000000000E+00 -0.25256342337E+04  0.25256342337E+04  0.25500000000E-02 0. -1.
    8880023    1    1    2    0    0  0.43118084092E+03 -0.20613103704E+03  0.59384420230E+03  0.10074066035E+04  0.65864270000E+03 0.  1.
    8880022    1    1    2    0    0 -0.43118084092E+03  0.20613103704E+03 -0.22917061450E+04  0.23459999211E+04  0.15294330000E+03 0.  0.
<mgrwt>
<rscale>  0 0.72111879E+03</rscale>
<asrwt>0</asrwt>
<pdfrwt beam="1">  1        2 0.38855911E+00 0.81376724E+03</pdfrwt>
<pdfrwt beam="2">  1       -2 0.12734958E+00 0.81376724E+03</pdfrwt>
<totfact> 0.15989949E+00</totfact>
</mgrwt>
</event>
<event>
 4    5  0.2473208E-007  0.1972389E+04  0.7818608E-02  0.8632731E-01
         -2   -1    0    0    0  501 -0.00000000000E+00  0.00000000000E+00  0.97036483098E+03  0.97036483098E+03  0.25500000000E-02 0.  1.
          2   -1    0    0  501    0  0.00000000000E+00 -0.00000000000E+00 -0.42658131335E+04  0.42658131335E+04  0.25500000000E-02 0. -1.
    8880023    1    1    2    0    0 -0.16968507154E+04 -0.75974026280E+03 -0.81881939830E+03  0.21355989864E+04  0.65864270000E+03 0.  0.
    8880022    1    1    2    0    0  0.16968507154E+04  0.75974026280E+03 -0.24766289042E+04  0.31005789781E+04  0.15294330000E+03 0.  0.
<mgrwt>
<rscale>  0 0.19450924E+04</rscale>
<asrwt>0</asrwt>
<pdfrwt beam="1">  1        2 0.65627893E+00 0.19723889E+04</pdfrwt>
<pdfrwt beam="2">  1       -2 0.14928690E+00 0.19723889E+04</pdfrwt>
<totfact> 0.56196486E-02</totfact>
</mgrwt>
</event>
<event>
 4    5  0.2473208E-007  0.7799067E+03  0.7818608E-02  0.9756056E-01
          2   -1    0    0  501    0  0.00000000000E+00  0.00000000000E+00  0.11703088334E+04  0.11703088334E+04  0.25500000000E-02 0. -1.
         -2   -1    0    0    0  501 -0.00000000000E+00 -0.00000000000E+00 -0.56177438622E+03  0.56177438622E+03  0.25500000000E-02 0.  1.
    8880023    1    1    2    0    0  0.98541091060E+02 -0.40587421475E+03 -0.20367163083E+03  0.80606238238E+03  0.65864270000E+03 0.  1.
    8880022    1    1    2    0    0 -0.98541091060E+02  0.40587421475E+03  0.81220607806E+03  0.92602083728E+03  0.15294330000E+03 0.  0.
<mgrwt>
<rscale>  0 0.67775091E+03</rscale>
<asrwt>0</asrwt>
<pdfrwt beam="1">  1        2 0.18004751E+00 0.77990668E+03</pdfrwt>
<pdfrwt beam="2">  1       -2 0.86426829E-01 0.77990668E+03</pdfrwt>
<totfact> 0.23243397E+01</totfact>
</mgrwt>
</event>
<event>
 4    5  0.2473208E-007  0.1526116E+04  0.7818608E-02  0.8891412E-01
          2   -1    0    0  501    0  0.00000000000E+00  0.00000000000E+00  0.23377430941E+04  0.23377430941E+04  0.25500000000E-02 0. -1.
         -2   -1    0    0    0  501 -0.00000000000E+00 -0.00000000000E+00 -0.20609922294E+04  0.20609922294E+04  0.25500000000E-02 0.  1.
    8880023    1    1    2    0    0 -0.13562902319E+04 -0.23599959279E+03 -0.15040201249E+04  0.21426865715E+04  0.65864270000E+03 0.  0.
    8880022    1    1    2    0    0  0.13562902319E+04  0.23599959279E+03  0.17807709896E+04  0.22560487520E+04  0.15294330000E+03 0.  0.
<mgrwt>
<rscale>  0 0.14895804E+04</rscale>
<asrwt>0</asrwt>
<pdfrwt beam="1">  1        2 0.35965278E+00 0.15261157E+04</pdfrwt>
<pdfrwt beam="2">  1       -2 0.31707573E+00 0.15261157E+04</pdfrwt>
<totfact> 0.10070576E-01</totfact>
</mgrwt>
</event>
<event>
 4    5  0.2473208E-007  0.8580800E+03  0.7818608E-02  0.9596988E-01
          2   -1    0    0  501    0  0.00000000000E+00  0.00000000000E+00  0.27243396242E+04  0.27243396242E+04  0.25500000000E-02 0. -1.
         -2   -1    0    0    0  501 -0.00000000000E+00 -0.00000000000E+00 -0.19844477970E+03  0.19844477971E+03  0.25500000000E-02 0.  1.
    8880023    1    1    2    0    0  0.39392145677E+01 -0.54997780436E+03  0.11641022487E+04  0.14461795719E+04  0.65864270000E+03 0. -1.
    8880022    1    1    2    0    0 -0.39392145677E+01  0.54997780436E+03  0.13617925959E+04  0.14766048320E+04  0.15294330000E+03 0.  0.
<mgrwt>
<rscale>  0 0.77495862E+03</rscale>
<asrwt>0</asrwt>
<pdfrwt beam="1">  1        2 0.41912914E+00 0.85808001E+03</pdfrwt>
<pdfrwt beam="2">  1       -2 0.30529969E-01 0.85808001E+03</pdfrwt>
<totfact> 0.26341263E+01</totfact>
</mgrwt>
</event>
<event>
 4    5  0.2473208E-007  0.1249238E+04  0.7818608E-02  0.9110685E-01
          2   -1    0    0  501    0  0.00000000000E+00  0.00000000000E+00  0.23340536719E+04  0.23340536719E+04  0.25500000000E-02 0. -1.
         -2   -1    0    0    0  501 -0.00000000000E+00 -0.00000000000E+00 -0.11212881973E+04  0.11212881973E+04  0.25500000000E-02 0.  1.
    8880023    1    1    2    0    0  0.12871951433E+02  0.10614229804E+04 -0.57135252021E+03  0.13736951405E+04  0.65864270000E+03 0.  1.
    8880022    1    1    2    0    0 -0.12871951433E+02 -0.10614229804E+04  0.17841179948E+04  0.20816467286E+04  0.15294330000E+03 0.  0.
<mgrwt>
<rscale>  0 0.12024841E+04</rscale>
<asrwt>0</asrwt>
<pdfrwt beam="1">  1        2 0.35908517E+00 0.12492376E+04</pdfrwt>
<pdfrwt beam="2">  1       -2 0.17250588E+00 0.12492376E+04</pdfrwt>
<totfact> 0.85915539E-01</totfact>
</mgrwt>
</event>
<event>
 4    5  0.2473208E-007  0.7092923E+03  0.7818608E-02  0.9960638E-01
          2   -1    0    0  501    0  0.00000000000E+00  0.00000000000E+00  0.96523290937E+03  0.96523290937E+03  0.25500000000E-02 0. -1.
         -2   -1    0    0    0  501 -0.00000000000E+00 -0.00000000000E+00 -0.28013098880E+03  0.28013098881E+03  0.25500000000E-02 0.  1.
    8880023    1    1    2    0    0  0.20426652347E+01  0.26321321092E+03  0.34445502161E+03  0.78850798034E+03  0.65864270000E+03 0.  0.
    8880022    1    1    2    0    0 -0.20426652347E+01 -0.26321321092E+03  0.34064689896E+03  0.45685591784E+03  0.15294330000E+03 0.  1.
<mgrwt>
<rscale>  0 0.57410383E+03</rscale>
<asrwt>0</asrwt>
<pdfrwt beam="1">  1        2 0.14849737E+00 0.70929230E+03</pdfrwt>
<pdfrwt beam="2">  1       -2 0.43097075E-01 0.70929230E+03</pdfrwt>
<totfact> 0.13743177E+02</totfact>
</mgrwt>
</event>
<event>
 4    5  0.2473208E-007  0.8019543E+03  0.7818608E-02  0.9706586E-01
          2   -1    0    0  501    0  0.00000000000E+00  0.00000000000E+00  0.60643325655E+03  0.60643325656E+03  0.25500000000E-02 0. -1.
         -2   -1    0    0    0  501 -0.00000000000E+00 -0.00000000000E+00 -0.11093139587E+04  0.11093139587E+04  0.25500000000E-02 0.  1.
    8880023    1    1    2    0    0 -0.37188595284E+03 -0.26649828205E+03 -0.81323100582E+03  0.11421363191E+04  0.65864270000E+03 0.  0.
    8880022    1    1    2    0    0  0.37188595284E+03  0.26649828205E+03  0.31035030366E+03  0.57361089620E+03  0.15294330000E+03 0.  0.
<mgrwt>
<rscale>  0 0.70625998E+03</rscale>
<asrwt>0</asrwt>
<pdfrwt beam="1">  1        2 0.93297424E-01 0.80195430E+03</pdfrwt>
<pdfrwt beam="2">  1       -2 0.17066369E+00 0.80195430E+03</pdfrwt>
<totfact> 0.10434418E+01</totfact>
</mgrwt>
</event>
<event>
 4    5  0.4166455E-007  0.6735813E+03  0.7818608E-02  0.1013216E+00
         -2   -1    0    0    0  501 -0.00000000000E+00  0.00000000000E+00  0.17125440383E+04  0.17125440383E+04  0.25500000000E-02 0.  1.
          2   -1    0    0  501    0  0.00000000000E+00 -0.00000000000E+00 -0.27288148958E+04  0.27288148958E+04  0.25500000000E-02 0. -1.
    8880023    1    1    2    0    0 -0.13783761862E+03 -0.30040136742E+02  0.16420876277E+04  0.17748700241E+04  0.65864270000E+03 0.  1.
    8880022    1    1    2    0    0  0.13783761862E+03  0.30040136742E+02 -0.26583584852E+04  0.26664889101E+04  0.15294330000E+03 0.  0.
<mgrwt>
<rscale>  0 0.50216344E+03</rscale>
<asrwt>0</asrwt>
<pdfrwt beam="1">  1        2 0.41981768E+00 0.67358134E+03</pdfrwt>
<pdfrwt beam="2">  1       -2 0.26346831E+00 0.67358134E+03</pdfrwt>
<totfact> 0.14970323E-01</totfact>
</mgrwt>
</event>
<event>
 4    5  0.2473208E-007  0.7846531E+03  0.7818608E-02  0.9745018E-01
         -2   -1    0    0    0  501 -0.00000000000E+00  0.00000000000E+00  0.68501571932E+03  0.68501571933E+03  0.25500000000E-02 0.  1.
          2   -1    0    0  501    0  0.00000000000E+00 -0.00000000000E+00 -0.18739770038E+04  0.18739770038E+04  0.25500000000E-02 0. -1.
    8880023    1    1    2    0    0  0.42429945212E+02  0.42434654780E+03  0.41823665403E+03  0.88915825246E+03  0.65864270000E+03 0.  1.
    8880022    1    1    2    0    0 -0.42429945212E+02 -0.42434654780E+03 -0.16071979385E+04  0.16698344707E+04  0.15294330000E+03 0.  0.
<mgrwt>
<rscale>  0 0.68398540E+03</rscale>
<asrwt>0</asrwt>
<pdfrwt beam="1">  1        2 0.28830415E+00 0.78465311E+03</pdfrwt>
<pdfrwt beam="2">  1       -2 0.10538704E+00 0.78465311E+03</pdfrwt>
<totfact> 0.58768324E+00</totfact>
</mgrwt>
</event>
<event>
 4    5  0.2473208E-007  0.1220335E+04  0.7818608E-02  0.9137604E-01
         -2   -1    0    0    0  501 -0.00000000000E+00  0.00000000000E+00  0.90676266652E+03  0.90676266653E+03  0.25500000000E-02 0.  1.
          2   -1    0    0  501    0  0.00000000000E+00 -0.00000000000E+00 -0.24268138809E+04  0.24268138809E+04  0.25500000000E-02 0. -1.
    8880023    1    1    2    0    0 -0.10241976742E+04  0.80164198562E+02  0.28303808585E+03  0.12527281983E+04  0.65864270000E+03 0.  0.
    8880022    1    1    2    0    0  0.10241976742E+04 -0.80164198562E+02 -0.18030893003E+04  0.20808483492E+04  0.15294330000E+03 0.  0.
<mgrwt>
<rscale>  0 0.11721329E+04</rscale>
<asrwt>0</asrwt>
<pdfrwt beam="1">  1        2 0.37335598E+00 0.12203349E+04</pdfrwt>
<pdfrwt beam="2">  1       -2 0.13950195E+00 0.12203349E+04</pdfrwt>
<totfact> 0.13566912E+00</totfact>
</mgrwt>
</event>
<event>
 4    5  0.2473208E-007  0.9999204E+03  0.7818608E-02  0.9381662E-01
          2   -1    0    0  501    0  0.00000000000E+00  0.00000000000E+00  0.16889428585E+04  0.16889428585E+04  0.25500000000E-02 0. -1.
         -2   -1    0    0    0  501 -0.00000000000E+00 -0.00000000000E+00 -0.61451133251E+03  0.61451133251E+03  0.25500000000E-02 0.  1.
    8880023    1    1    2    0    0 -0.68053593725E+03 -0.32078240424E+03  0.21250775610E+02  0.10001461466E+04  0.65864270000E+03 0.  0.
    8880022    1    1    2    0    0  0.68053593725E+03  0.32078240424E+03  0.10531807504E+04  0.13033080445E+04  0.15294330000E+03 0.  0.
<mgrwt>
<rscale>  0 0.93600327E+03</rscale>
<asrwt>0</asrwt>
<pdfrwt beam="1">  1        2 0.25983736E+00 0.99992036E+03</pdfrwt>
<pdfrwt beam="2">  1       -2 0.94540205E-01 0.99992036E+03</pdfrwt>
<totfact> 0.93523913E+00</totfact>
</mgrwt>
</event>
<event>
 4    5  0.2473208E-007  0.7484587E+03  0.7818608E-02  0.9835959E-01
          2   -1    0    0  501    0  0.00000000000E+00  0.00000000000E+00  0.94388150833E+03  0.94388150834E+03  0.25500000000E-02 0. -1.
         -2   -1    0    0    0  501 -0.00000000000E+00 -0.00000000000E+00 -0.97358948297E+03  0.97358948297E+03  0.25500000000E-02 0.  1.
    8880023    1    1    2    0    0 -0.34065969464E+03  0.10164255917E+03 -0.77517335455E+03  0.10775361587E+04  0.65864270000E+03 0.  1.
    8880022    1    1    2    0    0  0.34065969464E+03 -0.10164255917E+03  0.74546537992E+03  0.83993483263E+03  0.15294330000E+03 0.  0.
<mgrwt>
<rscale>  0 0.63467980E+03</rscale>
<asrwt>0</asrwt>
<pdfrwt beam="1">  1        2 0.14521254E+00 0.74845871E+03</pdfrwt>
<pdfrwt beam="2">  1       -2 0.14978300E+00 0.74845871E+03</pdfrwt>
<totfact> 0.83900343E+00</totfact>
</mgrwt>
</event>
<event>
 4    5  0.2473208E-007  0.8713022E+03  0.7818608E-02  0.9573767E-01
          2   -1    0    0  501    0  0.00000000000E+00  0.00000000000E+00  0.11897941045E+04  0.11897941045E+04  0.25500000000E-02 0. -1.
         -2   -1    0    0    0  501 -0.00000000000E+00 -0.00000000000E+00 -0.89800575555E+03  0.89800575555E+03  0.25500000000E-02 0.  1.
    8880023    1    1    2    0    0  0.29333094352E+03  0.48919763323E+03 -0.57138365444E+03  0.10419437862E+04  0.65864270000E+03 0.  0.
    8880022    1    1    2    0    0 -0.29333094352E+03 -0.48919763323E+03  0.86317200338E+03  0.10458560739E+04  0.15294330000E+03 0.  0.
<mgrwt>
<rscale>  0 0.79057075E+03</rscale>
<asrwt>0</asrwt>
<pdfrwt beam="1">  1        2 0.18304525E+00 0.87130223E+03</pdfrwt>
<pdfrwt beam="2">  1       -2 0.13815473E+00 0.87130223E+03</pdfrwt>
<totfact> 0.71788396E+00</totfact>
</mgrwt>
</event>
<event>
 4    5  0.2473208E-007  0.1658122E+04  0.7818608E-02  0.8805365E-01
         -2   -1    0    0    0  501 -0.00000000000E+00  0.00000000000E+00  0.10659719679E+04  0.10659719679E+04  0.25500000000E-02 0.  1.
          2   -1    0    0  501    0  0.00000000000E+00 -0.00000000000E+00 -0.35984401051E+04  0.35984401051E+04  0.25500000000E-02 0. -1.
    8880023    1    1    2    0    0 -0.72496771538E+03  0.13379016240E+04  0.54693820826E+02  0.16590239794E+04  0.65864270000E+03 0.  0.
    8880022    1    1    2    0    0  0.72496771538E+03 -0.13379016240E+04 -0.25871619580E+04  0.30053880937E+04  0.15294330000E+03 0.  0.
<mgrwt>
<rscale>  0 0.16249501E+04</rscale>
<asrwt>0</asrwt>
<pdfrwt beam="1">  1        2 0.55360616E+00 0.16581222E+04</pdfrwt>
<pdfrwt beam="2">  1       -2 0.16399569E+00 0.16581222E+04</pdfrwt>
<totfact> 0.15222191E-01</totfact>
</mgrwt>
</event>
<event>
 4    5  0.2536753E-007  0.1011132E+04  0.7818608E-02  0.9367136E-01
          2   -1    0    0  501    0  0.00000000000E+00  0.00000000000E+00  0.37657885913E+04  0.37657885913E+04  0.25500000000E-02 0. -1.
         -2   -1    0    0    0  501 -0.00000000000E+00 -0.00000000000E+00 -0.11352958615E+04  0.11352958615E+04  0.25500000000E-02 0.  1.
    8880023    1    1    2    0    0 -0.64366826410E+03 -0.41745577849E+03 -0.85790798990E+03  0.13260446775E+04  0.65864270000E+03 0.  1.
    8880022    1    1    2    0    0  0.64366826410E+03  0.41745577849E+03  0.34884007197E+04  0.35750397754E+04  0.15294330000E+03 0.  0.
<mgrwt>
<rscale>  0 0.94830319E+03</rscale>
<asrwt>0</asrwt>
<pdfrwt beam="1">  1        2 0.57935210E+00 0.10111322E+04</pdfrwt>
<pdfrwt beam="2">  1       -2 0.17466090E+00 0.10111322E+04</pdfrwt>
<totfact> 0.10679179E-01</totfact>
</mgrwt>
</event>
<event>
 4    5  0.2473208E-007  0.7049235E+03  0.7818608E-02  0.9977359E-01
          2   -1    0    0  501    0  0.00000000000E+00  0.00000000000E+00  0.14577706177E+04  0.14577706177E+04  0.25500000000E-02 0. -1.
         -2   -1    0    0    0  501 -0.00000000000E+00 -0.00000000000E+00 -0.86669331699E+03  0.86669331700E+03  0.25500000000E-02 0.  1.
    8880023    1    1    2    0    0 -0.66953868396E+02  0.24212411342E+03 -0.70409022789E+03  0.99632332205E+03  0.65864270000E+03 0.  1.
    8880022    1    1    2    0    0  0.66953868396E+02 -0.24212411342E+03  0.12951675286E+04  0.13281406126E+04  0.15294330000E+03 0.  0.
<mgrwt>
<rscale>  0 0.56654263E+03</rscale>
<asrwt>0</asrwt>
<pdfrwt beam="1">  1        2 0.22427240E+00 0.70492348E+03</pdfrwt>
<pdfrwt beam="2">  1       -2 0.13333743E+00 0.70492348E+03</pdfrwt>
<totfact> 0.56354582E+00</totfact>
</mgrwt>
</event>
<event>
 4    5  0.2473208E-007  0.1550077E+04  0.7818608E-02  0.8875061E-01
          2   -1    0    0  501    0  0.00000000000E+00  0.00000000000E+00  0.26778884500E+04  0.26778884500E+04  0.25500000000E-02 0. -1.
         -2   -1    0    0    0  501 -0.00000000000E+00 -0.00000000000E+00 -0.11386773780E+04  0.11386773780E+04  0.25500000000E-02 0.  1.
    8880023    1    1    2    0    0  0.13952726221E+04  0.14879991852E+03 -0.21508513528E+03  0.15649277706E+04  0.65864270000E+03 0.  0.
    8880022    1    1    2    0    0 -0.13952726221E+04 -0.14879991852E+03  0.17542962073E+04  0.22516380574E+04  0.15294330000E+03 0.  0.
<mgrwt>
<rscale>  0 0.15142051E+04</rscale>
<asrwt>0</asrwt>
<pdfrwt beam="1">  1        2 0.41198283E+00 0.15500766E+04</pdfrwt>
<pdfrwt beam="2">  1       -2 0.17518114E+00 0.15500766E+04</pdfrwt>
<totfact> 0.50266480E-01</totfact>
</mgrwt>
</event>
<event>
 4    5  0.2473208E-007  0.1822230E+04  0.7818608E-02  0.8710338E-01
         -2   -1    0    0    0  501 -0.00000000000E+00  0.00000000000E+00  0.22659319652E+04  0.22659319652E+04  0.25500000000E-02 0.  1.
          2   -1    0    0  501    0  0.00000000000E+00 -0.00000000000E+00 -0.16943929665E+04  0.16943929665E+04  0.25500000000E-02 0. -1.
    8880023    1    1    2    0    0 -0.13310486355E+04 -0.10559454575E+04 -0.56814348868E+03  0.19087452709E+04  0.65864270000E+03 0. -1.
    8880022    1    1    2    0    0  0.13310486355E+04  0.10559454575E+04  0.11396824874E+04  0.20515796607E+04  0.15294330000E+03 0.  0.
<mgrwt>
<rscale>  0 0.17924246E+04</rscale>
<asrwt>0</asrwt>
<pdfrwt beam="1">  1        2 0.26067584E+00 0.18222298E+04</pdfrwt>
<pdfrwt beam="2">  1       -2 0.34860492E+00 0.18222298E+04</pdfrwt>
<totfact> 0.14238444E-01</totfact>
</mgrwt>
</event>
<event>
 4    5  0.2699468E-007  0.9183655E+03  0.7818608E-02  0.9497170E-01
          2   -1    0    0  501    0  0.00000000000E+00  0.00000000000E+00  0.21149911046E+04  0.21149911046E+04  0.25500000000E-02 0. -1.
         -2   -1    0    0    0  501 -0.00000000000E+00 -0.00000000000E+00 -0.11857375142E+04  0.11857375142E+04  0.25500000000E-02 0.  1.
    8880023    1    1    2    0    0  0.42285691677E+03 -0.48039247582E+03 -0.94294675930E+03  0.13162612583E+04  0.65864270000E+03 0.  1.
    8880022    1    1    2    0    0 -0.42285691677E+03  0.48039247582E+03  0.18722003497E+04  0.19844673606E+04  0.15294330000E+03 0.  0.
<mgrwt>
<rscale>  0 0.84492800E+03</rscale>
<asrwt>0</asrwt>
<pdfrwt beam="1">  1        2 0.32538324E+00 0.91836546E+03</pdfrwt>
<pdfrwt beam="2">  1       -2 0.18242116E+00 0.91836546E+03</pdfrwt>
<totfact> 0.10182267E+00</totfact>
</mgrwt>
</event>
<event>
 4    5  0.2473208E-007  0.9701834E+03  0.7818608E-02  0.9421651E-01
          2   -1    0    0  501    0  0.00000000000E+00  0.00000000000E+00  0.12782436485E+04  0.12782436485E+04  0.25500000000E-02 0. -1.
         -2   -1    0    0    0  501 -0.00000000000E+00 -0.00000000000E+00 -0.10462883408E+04  0.10462883408E+04  0.25500000000E-02 0.  1.
    8880023    1    1    2    0    0  0.63690692401E+03 -0.31905356445E+03  0.90932666289E+03  0.13297107930E+04  0.65864270000E+03 0. -1.
    8880022    1    1    2    0    0 -0.63690692401E+03  0.31905356445E+03 -0.67737135516E+03  0.99482119632E+03  0.15294330000E+03 0.  0.
<mgrwt>
<rscale>  0 0.90315138E+03</rscale>
<asrwt>0</asrwt>
<pdfrwt beam="1">  1        2 0.19665287E+00 0.97018339E+03</pdfrwt>
<pdfrwt beam="2">  1       -2 0.16096744E+00 0.97018339E+03</pdfrwt>
<totfact> 0.41960005E+00</totfact>
</mgrwt>
</event>
<event>
 4    5  0.2473208E-007  0.8569129E+03  0.7818608E-02  0.9599079E-01
         -2   -1    0    0    0  501 -0.00000000000E+00  0.00000000000E+00  0.11284577555E+04  0.11284577555E+04  0.25500000000E-02 0.  1.
          2   -1    0    0  501    0  0.00000000000E+00 -0.00000000000E+00 -0.21257387312E+04  0.21257387312E+04  0.25500000000E-02 0. -1.
    8880023    1    1    2    0    0  0.33676795172E+03 -0.43252383614E+03  0.91821057323E+03  0.12559499931E+04  0.65864270000E+03 0.  1.
    8880022    1    1    2    0    0 -0.33676795172E+03  0.43252383614E+03 -0.19154915489E+04  0.19982464936E+04  0.15294330000E+03 0.  0.
<mgrwt>
<rscale>  0 0.77357197E+03</rscale>
<asrwt>0</asrwt>
<pdfrwt beam="1">  1        2 0.32703673E+00 0.85691291E+03</pdfrwt>
<pdfrwt beam="2">  1       -2 0.17360889E+00 0.85691291E+03</pdfrwt>
<totfact> 0.11682412E+00</totfact>
</mgrwt>
</event>
<event>
 4    5  0.2473208E-007  0.1210114E+04  0.7818608E-02  0.9147353E-01
          2   -1    0    0  501    0  0.00000000000E+00  0.00000000000E+00  0.14081167891E+04  0.14081167891E+04  0.25500000000E-02 0. -1.
         -2   -1    0    0    0  501 -0.00000000000E+00 -0.00000000000E+00 -0.99923968070E+03  0.99923968070E+03  0.25500000000E-02 0.  1.
    8880023    1    1    2    0    0  0.34549103938E+03  0.95456843113E+03 -0.18062504905E+03  0.12235197434E+04  0.65864270000E+03 0.  1.
    8880022    1    1    2    0    0 -0.34549103938E+03 -0.95456843113E+03  0.58950215742E+03  0.11838367263E+04  0.15294330000E+03 0.  0.
<mgrwt>
<rscale>  0 0.11613750E+04</rscale>
<asrwt>0</asrwt>
<pdfrwt beam="1">  1        2 0.21663335E+00 0.12101137E+04</pdfrwt>
<pdfrwt beam="2">  1       -2 0.15372918E+00 0.12101137E+04</pdfrwt>
<totfact> 0.39013113E+00</totfact>
</mgrwt>
</event>
<event>
 4    5  0.2473208E-007  0.8125577E+03  0.7818608E-02  0.9684274E-01
          2   -1    0    0  501    0  0.00000000000E+00  0.00000000000E+00  0.15169267540E+04  0.15169267540E+04  0.25500000000E-02 0. -1.
         -2   -1    0    0    0  501 -0.00000000000E+00 -0.00000000000E+00 -0.29597694565E+03  0.29597694567E+03  0.25500000000E-02 0.  1.
    8880023    1    1    2    0    0 -0.12595987389E+03  0.45888325350E+03  0.57162783195E+03  0.99348292119E+03  0.65864270000E+03 0.  1.
    8880022    1    1    2    0    0  0.12595987389E+03 -0.45888325350E+03  0.64932197643E+03  0.81942077852E+03  0.15294330000E+03 0. -1.
<mgrwt>
<rscale>  0 0.71960888E+03</rscale>
<asrwt>0</asrwt>
<pdfrwt beam="1">  1        2 0.23337334E+00 0.81255765E+03</pdfrwt>
<pdfrwt beam="2">  1       -2 0.45534915E-01 0.81255765E+03</pdfrwt>
<totfact> 0.57648659E+01</totfact>
</mgrwt>
</event>
<event>
 4    5  0.2473208E-007  0.7197269E+03  0.7818608E-02  0.9923511E-01
         -2   -1    0    0    0  501 -0.00000000000E+00  0.00000000000E+00  0.66915557643E+03  0.66915557644E+03  0.25500000000E-02 0.  1.
          2   -1    0    0  501    0  0.00000000000E+00 -0.00000000000E+00 -0.91412638337E+03  0.91412638337E+03  0.25500000000E-02 0. -1.
    8880023    1    1    2    0    0  0.20164002229E+03  0.20865730050E+03  0.42605516692E+03  0.83637896862E+03  0.65864270000E+03 0.  0.
    8880022    1    1    2    0    0 -0.20164002229E+03 -0.20865730050E+03 -0.67102597385E+03  0.74690299118E+03  0.15294330000E+03 0.  0.
<mgrwt>
<rscale>  0 0.59135242E+03</rscale>
<asrwt>0</asrwt>
<pdfrwt beam="1">  1        2 0.14063483E+00 0.71972687E+03</pdfrwt>
<pdfrwt beam="2">  1       -2 0.10294701E+00 0.71972687E+03</pdfrwt>
<totfact> 0.22519303E+01</totfact>
</mgrwt>
</event>
<event>
 4    5  0.2473208E-007  0.1974895E+04  0.7818608E-02  0.8631501E-01
         -2   -1    0    0    0  501 -0.00000000000E+00  0.00000000000E+00  0.21390568573E+04  0.21390568573E+04  0.25500000000E-02 0.  1.
          2   -1    0    0  501    0  0.00000000000E+00 -0.00000000000E+00 -0.19125776330E+04  0.19125776330E+04  0.25500000000E-02 0. -1.
    8880023    1    1    2    0    0  0.16331777480E+04 -0.89394199450E+03 -0.51632249552E+03  0.20412743499E+04  0.65864270000E+03 0.  0.
    8880022    1    1    2    0    0 -0.16331777480E+04  0.89394199450E+03  0.74280171991E+03  0.20103601404E+04  0.15294330000E+03 0.  0.
<mgrwt>
<rscale>  0 0.19476371E+04</rscale>
<asrwt>0</asrwt>
<pdfrwt beam="1">  1        2 0.29424271E+00 0.19748955E+04</pdfrwt>
<pdfrwt beam="2">  1       -2 0.32908567E+00 0.19748955E+04</pdfrwt>
<totfact> 0.14029805E-01</totfact>
</mgrwt>
</event>
<event>
 4    5  0.2473208E-007  0.8184682E+03  0.7818608E-02  0.9672201E-01
          2   -1    0    0  501    0  0.00000000000E+00  0.00000000000E+00  0.13073105317E+04  0.13073105317E+04  0.25500000000E-02 0. -1.
         -2   -1    0    0    0  501 -0.00000000000E+00 -0.00000000000E+00 -0.46630955626E+03  0.46630955627E+03  0.25500000000E-02 0.  1.
    8880023    1    1    2    0    0  0.14030781217E+03  0.46518131185E+03  0.33840365993E+02  0.81916745033E+03  0.65864270000E+03 0.  1.
    8880022    1    1    2    0    0 -0.14030781217E+03 -0.46518131185E+03  0.80716060948E+03  0.95445263767E+03  0.15294330000E+03 0.  0.
<mgrwt>
<rscale>  0 0.72696344E+03</rscale>
<asrwt>0</asrwt>
<pdfrwt beam="1">  1        2 0.20112469E+00 0.81846817E+03</pdfrwt>
<pdfrwt beam="2">  1       -2 0.71739933E-01 0.81846817E+03</pdfrwt>
<totfact> 0.29211779E+01</totfact>
</mgrwt>
</event>
<event>
 4    5  0.2473208E-007  0.9224054E+03  0.7818608E-02  0.9490981E-01
          2   -1    0    0  501    0  0.00000000000E+00  0.00000000000E+00  0.21994818518E+04  0.21994818519E+04  0.25500000000E-02 0. -1.
         -2   -1    0    0    0  501 -0.00000000000E+00 -0.00000000000E+00 -0.39889562452E+03  0.39889562452E+03  0.25500000000E-02 0.  1.
    8880023    1    1    2    0    0  0.64216997498E+03  0.68112575336E+02  0.32080695697E+03  0.97660069096E+03  0.65864270000E+03 0.  0.
    8880022    1    1    2    0    0 -0.64216997498E+03 -0.68112575336E+02  0.14797792704E+04  0.16217767854E+04  0.15294330000E+03 0.  0.
<mgrwt>
<rscale>  0 0.84952065E+03</rscale>
<asrwt>0</asrwt>
<pdfrwt beam="1">  1        2 0.33838182E+00 0.92240545E+03</pdfrwt>
<pdfrwt beam="2">  1       -2 0.61368558E-01 0.92240545E+03</pdfrwt>
<totfact> 0.12957380E+01</totfact>
</mgrwt>
</event>
<event>
 4    5  0.2473208E-007  0.7429138E+03  0.7818608E-02  0.9851539E-01
          2   -1    0    0  501    0  0.00000000000E+00  0.00000000000E+00  0.66534576907E+03  0.66534576907E+03  0.25500000000E-02 0. -1.
         -2   -1    0    0    0  501 -0.00000000000E+00 -0.00000000000E+00 -0.93098851660E+03  0.93098851661E+03  0.25500000000E-02 0.  1.
    8880023    1    1    2    0    0  0.10258407254E+03 -0.32800481416E+03 -0.70068378736E+03  0.10212142900E+04  0.65864270000E+03 0.  0.
    8880022    1    1    2    0    0 -0.10258407254E+03  0.32800481416E+03  0.43504103982E+03  0.57511999564E+03  0.15294330000E+03 0.  0.
<mgrwt>
<rscale>  0 0.62668491E+03</rscale>
<asrwt>0</asrwt>
<pdfrwt beam="1">  1        2 0.10236089E+00 0.74291376E+03</pdfrwt>
<pdfrwt beam="2">  1       -2 0.14322900E+00 0.74291376E+03</pdfrwt>
<totfact> 0.15005504E+01</totfact>
</mgrwt>
</event>
<event>
 4    5  0.2473208E-007  0.1108761E+04  0.7818608E-02  0.9251364E-01
          2   -1    0    0  501    0  0.00000000000E+00  0.00000000000E+00  0.32247369142E+04  0.32247369142E+04  0.25500000000E-02 0. -1.
         -2   -1    0    0    0  501 -0.00000000000E+00 -0.00000000000E+00 -0.44670403191E+03  0.44670403191E+03  0.25500000000E-02 0.  1.
    8880023    1    1    2    0    0  0.31403029788E+03 -0.83482051111E+03  0.49240309149E+03  0.12131823130E+04  0.65864270000E+03 0.  0.
    8880022    1    1    2    0    0 -0.31403029788E+03  0.83482051111E+03  0.22856297908E+04  0.24582586331E+04  0.15294330000E+03 0.  0.
<mgrwt>
<rscale>  0 0.10538635E+04</rscale>
<asrwt>0</asrwt>
<pdfrwt beam="1">  1        2 0.49611338E+00 0.11087608E+04</pdfrwt>
<pdfrwt beam="2">  1       -2 0.68723695E-01 0.11087608E+04</pdfrwt>
<totfact> 0.24456876E+00</totfact>
</mgrwt>
</event>
<event>
 4    5  0.2473208E-007  0.7661504E+03  0.7818608E-02  0.9789437E-01
         -2   -1    0    0    0  501 -0.00000000000E+00  0.00000000000E+00  0.92742538076E+03  0.92742538077E+03  0.25500000000E-02 0.  1.
          2   -1    0    0  501    0  0.00000000000E+00 -0.00000000000E+00 -0.91745451352E+03  0.91745451352E+03  0.25500000000E-02 0. -1.
    8880023    1    1    2    0    0 -0.39100112515E+03 -0.17157779193E+02  0.69947445816E+03  0.10374251747E+04  0.65864270000E+03 0.  1.
    8880022    1    1    2    0    0  0.39100112515E+03  0.17157779193E+02 -0.68950359091E+03  0.80745471957E+03  0.15294330000E+03 0.  0.
<mgrwt>
<rscale>  0 0.65932495E+03</rscale>
<asrwt>0</asrwt>
<pdfrwt beam="1">  1        2 0.14114685E+00 0.76615043E+03</pdfrwt>
<pdfrwt beam="2">  1       -2 0.14268083E+00 0.76615043E+03</pdfrwt>
<totfact> 0.99017282E+00</totfact>
</mgrwt>
</event>
<event>
 4    5  0.2473208E-007  0.9991735E+03  0.7818608E-02  0.9382640E-01
         -2   -1    0    0    0  501 -0.00000000000E+00  0.00000000000E+00  0.66304159205E+03  0.66304159206E+03  0.25500000000E-02 0.  1.
          2   -1    0    0  501    0  0.00000000000E+00 -0.00000000000E+00 -0.29202459411E+04  0.29202459411E+04  0.25500000000E-02 0. -1.
    8880023    1    1    2    0    0 -0.65782405505E+03 -0.36304957504E+03  0.19148389888E+03  0.10173562656E+04  0.65864270000E+03 0.  1.
    8880022    1    1    2    0    0  0.65782405505E+03  0.36304957504E+03 -0.24486882480E+04  0.25659312676E+04  0.15294330000E+03 0.  0.
<mgrwt>
<rscale>  0 0.93518235E+03</rscale>
<asrwt>0</asrwt>
<pdfrwt beam="1">  1        2 0.44926860E+00 0.99917350E+03</pdfrwt>
<pdfrwt beam="2">  1       -2 0.10200640E+00 0.99917350E+03</pdfrwt>
<totfact> 0.15649604E+00</totfact>
</mgrwt>
</event>
<event>
 4    5  0.2473208E-007  0.1123374E+04  0.7818608E-02  0.9235467E-01
         -2   -1    0    0    0  501 -0.00000000000E+00  0.00000000000E+00  0.80154446200E+03  0.80154446201E+03  0.25500000000E-02 0.  1.
          2   -1    0    0  501    0  0.00000000000E+00 -0.00000000000E+00 -0.22171477604E+04  0.22171477604E+04  0.25500000000E-02 0. -1.
    8880023    1    1    2    0    0 -0.90894476608E+03  0.44489566501E+02  0.21624425154E+03  0.11439981171E+04  0.65864270000E+03 0.  0.
    8880022    1    1    2    0    0  0.90894476608E+03 -0.44489566501E+02 -0.16318475500E+04  0.18746941053E+04  0.15294330000E+03 0.  0.
<mgrwt>
<rscale>  0 0.10694729E+04</rscale>
<asrwt>0</asrwt>
<pdfrwt beam="1">  1        2 0.34109965E+00 0.11233744E+04</pdfrwt>
<pdfrwt beam="2">  1       -2 0.12331453E+00 0.11233744E+04</pdfrwt>
<totfact> 0.24709627E+00</totfact>
</mgrwt>
</event>
<event>
 4    5  0.2473208E-007  0.9573376E+03  0.7818608E-02  0.9439635E-01
          2   -1    0    0  501    0  0.00000000000E+00  0.00000000000E+00  0.29431920380E+04  0.29431920380E+04  0.25500000000E-02 0. -1.
         -2   -1    0    0    0  501 -0.00000000000E+00 -0.00000000000E+00 -0.50436671588E+03  0.50436671589E+03  0.25500000000E-02 0.  1.
    8880023    1    1    2    0    0 -0.51340271466E+03  0.46808405207E+03  0.53965190377E+02  0.95885738004E+03  0.65864270000E+03 0.  1.
    8880022    1    1    2    0    0  0.51340271466E+03 -0.46808405207E+03  0.23848601318E+04  0.24887013739E+04  0.15294330000E+03 0.  0.
<mgrwt>
<rscale>  0 0.88884466E+03</rscale>
<asrwt>0</asrwt>
<pdfrwt beam="1">  1        2 0.45279876E+00 0.95733758E+03</pdfrwt>
<pdfrwt beam="2">  1       -2 0.77594882E-01 0.95733758E+03</pdfrwt>
<totfact> 0.28713264E+00</totfact>
</mgrwt>
</event>
<event>
 4    5  0.2807189E-007  0.1099028E+04  0.7818608E-02  0.9262139E-01
          2   -1    0    0  501    0  0.00000000000E+00  0.00000000000E+00  0.29507508044E+04  0.29507508044E+04  0.25500000000E-02 0. -1.
         -2   -1    0    0    0  501 -0.00000000000E+00 -0.00000000000E+00 -0.10145790301E+04  0.10145790301E+04  0.25500000000E-02 0.  1.
    8880023    1    1    2    0    0  0.79762431320E+03  0.37127888122E+03 -0.61708203060E+03  0.12604177845E+04  0.65864270000E+03 0.  0.
    8880022    1    1    2    0    0 -0.79762431320E+03 -0.37127888122E+03  0.25532538050E+04  0.27049120500E+04  0.15294330000E+03 0.  0.
<mgrwt>
<rscale>  0 0.10434440E+04</rscale>
<asrwt>0</asrwt>
<pdfrwt beam="1">  1        2 0.45396166E+00 0.10990281E+04</pdfrwt>
<pdfrwt beam="2">  1       -2 0.15608908E+00 0.10990281E+04</pdfrwt>
<totfact> 0.50284834E-01</totfact>
</mgrwt>
</event>
<event>
 4    5  0.2473208E-007  0.7151774E+03  0.7818608E-02  0.9939255E-01
         -2   -1    0    0    0  501 -0.00000000000E+00  0.00000000000E+00  0.61862589780E+03  0.61862589780E+03  0.25500000000E-02 0.  1.
          2   -1    0    0  501    0  0.00000000000E+00 -0.00000000000E+00 -0.37991738404E+04  0.37991738404E+04  0.25500000000E-02 0. -1.
    8880023    1    1    2    0    0 -0.15968150319E+03  0.22840828362E+03  0.40251048622E+03  0.82066645129E+03  0.65864270000E+03 0.  1.
    8880022    1    1    2    0    0  0.15968150319E+03 -0.22840828362E+03 -0.35830584289E+04  0.35971332870E+04  0.15294330000E+03 0.  0.
<mgrwt>
<rscale>  0 0.58395967E+03</rscale>
<asrwt>0</asrwt>
<pdfrwt beam="1">  1        2 0.58448827E+00 0.71517741E+03</pdfrwt>
<pdfrwt beam="2">  1       -2 0.95173217E-01 0.71517741E+03</pdfrwt>
<totfact> 0.50822788E-01</totfact>
</mgrwt>
</event>
<event>
 4    5  0.2473208E-007  0.7228743E+03  0.7818608E-02  0.9912978E-01
         -2   -1    0    0    0  501 -0.00000000000E+00  0.00000000000E+00  0.39651408504E+03  0.39651408505E+03  0.25500000000E-02 0.  1.
          2   -1    0    0  501    0  0.00000000000E+00 -0.00000000000E+00 -0.36308502313E+04  0.36308502313E+04  0.25500000000E-02 0. -1.
    8880023    1    1    2    0    0  0.58240694566E+02 -0.29213885318E+03  0.51315424479E+02  0.72469342973E+03  0.65864270000E+03 0.  1.
    8880022    1    1    2    0    0 -0.58240694566E+02  0.29213885318E+03 -0.32856515707E+04  0.33026708866E+04  0.15294330000E+03 0.  0.
<mgrwt>
<rscale>  0 0.59636441E+03</rscale>
<asrwt>0</asrwt>
<pdfrwt beam="1">  1        2 0.55859232E+00 0.72287433E+03</pdfrwt>
<pdfrwt beam="2">  1       -2 0.61002169E-01 0.72287433E+03</pdfrwt>
<totfact> 0.18043826E+00</totfact>
</mgrwt>
</event>
<event>
 4    5  0.2473208E-007  0.1145747E+04  0.7818608E-02  0.9211754E-01
         -2   -1    0    0    0  501 -0.00000000000E+00  0.00000000000E+00  0.12879719832E+04  0.12879719832E+04  0.25500000000E-02 0.  1.
          2   -1    0    0  501    0  0.00000000000E+00 -0.00000000000E+00 -0.13165166849E+04  0.13165166849E+04  0.25500000000E-02 0. -1.
    8880023    1    1    2    0    0 -0.57501820258E+02  0.93574522257E+03  0.75583106974E+03  0.13725947665E+04  0.65864270000E+03 0.  0.
    8880022    1    1    2    0    0  0.57501820258E+02 -0.93574522257E+03 -0.78437577141E+03  0.12318939016E+04  0.15294330000E+03 0.  0.
<mgrwt>
<rscale>  0 0.10932926E+04</rscale>
<asrwt>0</asrwt>
<pdfrwt beam="1">  1        2 0.20254103E+00 0.11457468E+04</pdfrwt>
<pdfrwt beam="2">  1       -2 0.19814954E+00 0.11457468E+04</pdfrwt>
<totfact> 0.21587113E+00</totfact>
</mgrwt>
</event>
<event>
 4    5  0.2473208E-007  0.8701223E+03  0.7818608E-02  0.9575805E-01
          2   -1    0    0  501    0  0.00000000000E+00  0.00000000000E+00  0.23713392239E+04  0.23713392239E+04  0.25500000000E-02 0. -1.
         -2   -1    0    0    0  501 -0.00000000000E+00 -0.00000000000E+00 -0.41532065319E+03  0.41532065320E+03  0.25500000000E-02 0.  1.
    8880023    1    1    2    0    0  0.56845525750E+03  0.12694758054E+02  0.14473795765E+03  0.88207812540E+03  0.65864270000E+03 0.  0.
    8880022    1    1    2    0    0 -0.56845525750E+03 -0.12694758054E+02  0.18112806130E+04  0.19045817517E+04  0.15294330000E+03 0.  0.
<mgrwt>
<rscale>  0 0.78918447E+03</rscale>
<asrwt>0</asrwt>
<pdfrwt beam="1">  1        2 0.36482143E+00 0.87012226E+03</pdfrwt>
<pdfrwt beam="2">  1       -2 0.63895484E-01 0.87012226E+03</pdfrwt>
<totfact> 0.95966831E+00</totfact>
</mgrwt>
</event>
<event>
 4    5  0.2473208E-007  0.7164129E+03  0.7818608E-02  0.9934916E-01
         -2   -1    0    0    0  501 -0.00000000000E+00  0.00000000000E+00  0.57456434757E+03  0.57456434757E+03  0.25500000000E-02 0.  1.
          2   -1    0    0  501    0  0.00000000000E+00 -0.00000000000E+00 -0.17623434865E+04  0.17623434865E+04  0.25500000000E-02 0. -1.
    8880023    1    1    2    0    0  0.25648265988E+03  0.11685007433E+03  0.32775032871E+03  0.78782471332E+03  0.65864270000E+03 0.  1.
    8880022    1    1    2    0    0 -0.25648265988E+03 -0.11685007433E+03 -0.15155294676E+04  0.15490831207E+04  0.15294330000E+03 0.  0.
<mgrwt>
<rscale>  0 0.58598566E+03</rscale>
<asrwt>0</asrwt>
<pdfrwt beam="1">  1        2 0.27112976E+00 0.71641294E+03</pdfrwt>
<pdfrwt beam="2">  1       -2 0.88394516E-01 0.71641294E+03</pdfrwt>
<totfact> 0.10323152E+01</totfact>
</mgrwt>
</event>
<event>
 4    5  0.2473208E-007  0.6691788E+03  0.7818608E-02  0.1016258E+00
          2   -1    0    0  501    0  0.00000000000E+00  0.00000000000E+00  0.29785975960E+04  0.29785975960E+04  0.25500000000E-02 0. -1.
         -2   -1    0    0    0  501 -0.00000000000E+00 -0.00000000000E+00 -0.27870867847E+03  0.27870867848E+03  0.25500000000E-02 0.  1.
    8880023    1    1    2    0    0  0.11447516848E+03  0.29758396028E+02  0.13190619670E+03  0.68205540634E+03  0.65864270000E+03 0.  1.
    8880022    1    1    2    0    0 -0.11447516848E+03 -0.29758396028E+02  0.25679827209E+04  0.25752508682E+04  0.15294330000E+03 0.  0.
<mgrwt>
<rscale>  0 0.49061311E+03</rscale>
<asrwt>0</asrwt>
<pdfrwt beam="1">  1        2 0.45824576E+00 0.66917885E+03</pdfrwt>
<pdfrwt beam="2">  1       -2 0.42878260E-01 0.66917885E+03</pdfrwt>
<totfact> 0.99928550E+00</totfact>
</mgrwt>
</event>
<event>
 4    5  0.2473208E-007  0.9157624E+03  0.7818608E-02  0.9501187E-01
          2   -1    0    0  501    0  0.00000000000E+00  0.00000000000E+00  0.19769823331E+04  0.19769823331E+04  0.25500000000E-02 0. -1.
         -2   -1    0    0    0  501 -0.00000000000E+00 -0.00000000000E+00 -0.49692805160E+03  0.49692805161E+03  0.25500000000E-02 0.  1.
    8880023    1    1    2    0    0  0.10013691981E+03 -0.62831778985E+03  0.68819999038E+02  0.91834473172E+03  0.65864270000E+03 0.  1.
    8880022    1    1    2    0    0 -0.10013691981E+03  0.62831778985E+03  0.14112342824E+04  0.15555656530E+04  0.15294330000E+03 0.  0.
<mgrwt>
<rscale>  0 0.84196346E+03</rscale>
<asrwt>0</asrwt>
<pdfrwt beam="1">  1        2 0.30415113E+00 0.91576244E+03</pdfrwt>
<pdfrwt beam="2">  1       -2 0.76450470E-01 0.91576244E+03</pdfrwt>
<totfact> 0.10655608E+01</totfact>
</mgrwt>
</event>
<event>
 4    5  0.2473208E-007  0.7978992E+03  0.7818608E-02  0.9715357E-01
         -2   -1    0    0    0  501 -0.00000000000E+00  0.00000000000E+00  0.16802273659E+04  0.16802273659E+04  0.25500000000E-02 0.  1.
          2   -1    0    0  501    0  0.00000000000E+00 -0.00000000000E+00 -0.25104735538E+04  0.25104735538E+04  0.25500000000E-02 0. -1.
    8880023    1    1    2    0    0  0.44924170583E+03 -0.31855791929E+02  0.15607379365E+04  0.17528679398E+04  0.65864270000E+03 0.  1.
    8880022    1    1    2    0    0 -0.44924170583E+03  0.31855791929E+02 -0.23909841244E+04  0.24378329799E+04  0.15294330000E+03 0.  0.
<mgrwt>
<rscale>  0 0.70109760E+03</rscale>
<asrwt>0</asrwt>
<pdfrwt beam="1">  1        2 0.38622670E+00 0.79789918E+03</pdfrwt>
<pdfrwt beam="2">  1       -2 0.25849652E+00 0.79789918E+03</pdfrwt>
<totfact> 0.20697841E-01</totfact>
</mgrwt>
</event>
<event>
 4    5  0.2473208E-007  0.7976428E+03  0.7818608E-02  0.9715916E-01
         -2   -1    0    0    0  501 -0.00000000000E+00  0.00000000000E+00  0.45620965195E+03  0.45620965195E+03  0.25500000000E-02 0.  1.
          2   -1    0    0  501    0  0.00000000000E+00 -0.00000000000E+00 -0.17726575404E+04  0.17726575404E+04  0.25500000000E-02 0. -1.
    8880023    1    1    2    0    0  0.42736707931E+02  0.44788096321E+03  0.32867080816E+02  0.79831963190E+03  0.65864270000E+03 0.  1.
    8880022    1    1    2    0    0 -0.42736707931E+02 -0.44788096321E+03 -0.13493149693E+04  0.14305475605E+04  0.15294330000E+03 0.  0.
<mgrwt>
<rscale>  0 0.70077004E+03</rscale>
<asrwt>0</asrwt>
<pdfrwt beam="1">  1        2 0.27271654E+00 0.79764277E+03</pdfrwt>
<pdfrwt beam="2">  1       -2 0.70186101E-01 0.79764277E+03</pdfrwt>
<totfact> 0.16897252E+01</totfact>
</mgrwt>
</event>
<event>
 4    5  0.2473208E-007  0.1014393E+04  0.7818608E-02  0.9362965E-01
         -2   -1    0    0    0  501 -0.00000000000E+00  0.00000000000E+00  0.45812910367E+03  0.45812910368E+03  0.25500000000E-02 0.  1.
          2   -1    0    0  501    0  0.00000000000E+00 -0.00000000000E+00 -0.21123329478E+04  0.21123329478E+04  0.25500000000E-02 0. -1.
    8880023    1    1    2    0    0  0.68427850526E+03  0.35629389270E+03 -0.14288585364E+04  0.17523211275E+04  0.65864270000E+03 0.  0.
    8880022    1    1    2    0    0 -0.68427850526E+03 -0.35629389270E+03 -0.22534530777E+03  0.81814092398E+03  0.15294330000E+03 0.  0.
<mgrwt>
<rscale>  0 0.95187202E+03</rscale>
<asrwt>0</asrwt>
<pdfrwt beam="1">  1        2 0.32497430E+00 0.10143927E+04</pdfrwt>
<pdfrwt beam="2">  1       -2 0.70481402E-01 0.10143927E+04</pdfrwt>
<totfact> 0.10620796E+01</totfact>
</mgrwt>
</event>
<event>
 4    5  0.2473208E-007  0.9907364E+03  0.7818608E-02  0.9393779E-01
         -2   -1    0    0    0  501 -0.00000000000E+00  0.00000000000E+00  0.10411060421E+04  0.10411060422E+04  0.25500000000E-02 0.  1.
          2   -1    0    0  501    0  0.00000000000E+00 -0.00000000000E+00 -0.19637220329E+04  0.19637220329E+04  0.25500000000E-02 0. -1.
    8880023    1    1    2    0    0  0.70855780380E+03 -0.21376217455E+03  0.70119378259E+03  0.12137674224E+04  0.65864270000E+03 0.  1.
    8880022    1    1    2    0    0 -0.70855780380E+03  0.21376217455E+03 -0.16238097733E+04  0.17910606527E+04  0.15294330000E+03 0.  0.
<mgrwt>
<rscale>  0 0.92589433E+03</rscale>
<asrwt>0</asrwt>
<pdfrwt beam="1">  1        2 0.30211108E+00 0.99073641E+03</pdfrwt>
<pdfrwt beam="2">  1       -2 0.16017016E+00 0.99073641E+03</pdfrwt>
<totfact> 0.17550878E+00</totfact>
</mgrwt>
</event>
<event>
 4    5  0.2473208E-007  0.7494606E+03  0.7818608E-02  0.9833199E-01
          2   -1    0    0  501    0  0.00000000000E+00  0.00000000000E+00  0.98089891193E+03  0.98089891193E+03  0.25500000000E-02 0. -1.
         -2   -1    0    0    0  501 -0.00000000000E+00 -0.00000000000E+00 -0.69873068824E+03  0.69873068824E+03  0.25500000000E-02 0.  1.
    8880023    1    1    2    0    0  0.35760442296E+03 -0.16384114704E+00 -0.43299298368E+03  0.86554842750E+03  0.65864270000E+03 0.  0.
    8880022    1    1    2    0    0 -0.35760442296E+03  0.16384114704E+00  0.71516120737E+03  0.81408117268E+03  0.15294330000E+03 0.  0.
<mgrwt>
<rscale>  0 0.63610913E+03</rscale>
<asrwt>0</asrwt>
<pdfrwt beam="1">  1        2 0.15090752E+00 0.74946058E+03</pdfrwt>
<pdfrwt beam="2">  1       -2 0.10749703E+00 0.74946058E+03</pdfrwt>
<totfact> 0.18297776E+01</totfact>
</mgrwt>
</event>
<event>
 4    5  0.2473208E-007  0.1047858E+04  0.7818608E-02  0.9321461E-01
         -2   -1    0    0    0  501 -0.00000000000E+00  0.00000000000E+00  0.20522722069E+04  0.20522722069E+04  0.25500000000E-02 0.  1.
          2   -1    0    0  501    0  0.00000000000E+00 -0.00000000000E+00 -0.88011895694E+03  0.88011895694E+03  0.25500000000E-02 0. -1.
    8880023    1    1    2    0    0  0.80708253302E+03  0.11319607320E+03  0.16653568346E+04  0.19675922237E+04  0.65864270000E+03 0.  0.
    8880022    1    1    2    0    0 -0.80708253302E+03 -0.11319607320E+03 -0.49320358457E+03  0.96479894016E+03  0.15294330000E+03 0.  0.
<mgrwt>
<rscale>  0 0.98830890E+03</rscale>
<asrwt>0</asrwt>
<pdfrwt beam="1">  1        2 0.13540292E+00 0.10478577E+04</pdfrwt>
<pdfrwt beam="2">  1       -2 0.31573418E+00 0.10478577E+04</pdfrwt>
<totfact> 0.76950662E-01</totfact>
</mgrwt>
</event>
<event>
 4    5  0.2473208E-007  0.1022814E+04  0.7818608E-02  0.9352301E-01
         -2   -1    0    0    0  501 -0.00000000000E+00  0.00000000000E+00  0.13813567409E+04  0.13813567409E+04  0.25500000000E-02 0.  1.
          2   -1    0    0  501    0  0.00000000000E+00 -0.00000000000E+00 -0.16256646027E+04  0.16256646027E+04  0.25500000000E-02 0. -1.
    8880023    1    1    2    0    0  0.76721396379E+03 -0.15401331090E+03  0.10633724098E+04  0.14754350051E+04  0.65864270000E+03 0.  1.
    8880022    1    1    2    0    0 -0.76721396379E+03  0.15401331090E+03 -0.13076802716E+04  0.15315863384E+04  0.15294330000E+03 0.  0.
<mgrwt>
<rscale>  0 0.96107297E+03</rscale>
<asrwt>0</asrwt>
<pdfrwt beam="1">  1        2 0.25010225E+00 0.10228136E+04</pdfrwt>
<pdfrwt beam="2">  1       -2 0.21251642E+00 0.10228136E+04</pdfrwt>
<totfact> 0.11809908E+00</totfact>
</mgrwt>
</event>
<event>
 4    5  0.2473208E-007  0.1277371E+04  0.7818608E-02  0.9085352E-01
          2   -1    0    0  501    0  0.00000000000E+00  0.00000000000E+00  0.15750979174E+04  0.15750979174E+04  0.25500000000E-02 0. -1.
         -2   -1    0    0    0  501 -0.00000000000E+00 -0.00000000000E+00 -0.95463700655E+03  0.95463700655E+03  0.25500000000E-02 0.  1.
    8880023    1    1    2    0    0 -0.77020869148E+03  0.77758889023E+03  0.32118045778E+02  0.12777745051E+04  0.65864270000E+03 0.  0.
    8880022    1    1    2    0    0  0.77020869148E+03 -0.77758889023E+03  0.58834286510E+03  0.12519604189E+04  0.15294330000E+03 0.  0.
<mgrwt>
<rscale>  0 0.12319374E+04</rscale>
<asrwt>0</asrwt>
<pdfrwt beam="1">  1        2 0.24232275E+00 0.12773708E+04</pdfrwt>
<pdfrwt beam="2">  1       -2 0.14686723E+00 0.12773708E+04</pdfrwt>
<totfact> 0.35214745E+00</totfact>
</mgrwt>
</event>
<event>
 4    5  0.2473208E-007  0.6991878E+03  0.7818608E-02  0.1000059E+00
         -2   -1    0    0    0  501 -0.00000000000E+00  0.00000000000E+00  0.27578278356E+03  0.27578278357E+03  0.25500000000E-02 0.  1.
          2   -1    0    0  501    0  0.00000000000E+00 -0.00000000000E+00 -0.19223221524E+04  0.19223221524E+04  0.25500000000E-02 0. -1.
    8880023    1    1    2    0    0  0.20631770276E+03  0.11174275017E+03 -0.20359131861E+03  0.72822597315E+03  0.65864270000E+03 0.  1.
    8880022    1    1    2    0    0 -0.20631770276E+03 -0.11174275017E+03 -0.14429480503E+04  0.14698789629E+04  0.15294330000E+03 0.  0.
<mgrwt>
<rscale>  0 0.55624500E+03</rscale>
<asrwt>0</asrwt>
<pdfrwt beam="1">  1        2 0.29574186E+00 0.69918785E+03</pdfrwt>
<pdfrwt beam="2">  1       -2 0.42428122E-01 0.69918785E+03</pdfrwt>
<totfact> 0.40271261E+01</totfact>
</mgrwt>
</event>
<event>
 4    5  0.2473208E-007  0.1272008E+04  0.7818608E-02  0.9090117E-01
         -2   -1    0    0    0  501 -0.00000000000E+00  0.00000000000E+00  0.21845223471E+04  0.21845223471E+04  0.25500000000E-02 0.  1.
          2   -1    0    0  501    0  0.00000000000E+00 -0.00000000000E+00 -0.10906936476E+04  0.10906936476E+04  0.25500000000E-02 0. -1.
    8880023    1    1    2    0    0  0.10721841850E+04 -0.18605503429E+03  0.16176413137E+04  0.20578554440E+04  0.65864270000E+03 0.  1.
    8880022    1    1    2    0    0 -0.10721841850E+04  0.18605503429E+03 -0.52381261421E+03  0.12173605506E+04  0.15294330000E+03 0.  0.
<mgrwt>
<rscale>  0 0.12263299E+04</rscale>
<asrwt>0</asrwt>
<pdfrwt beam="1">  1        2 0.16779902E+00 0.12720085E+04</pdfrwt>
<pdfrwt beam="2">  1       -2 0.33608036E+00 0.12720085E+04</pdfrwt>
<totfact> 0.40814944E-01</totfact>
</mgrwt>
</event>
<event>
 4    5  0.2473208E-007  0.1392955E+04  0.7818608E-02  0.8989177E-01
          2   -1    0    0  501    0  0.00000000000E+00  0.00000000000E+00  0.75058638261E+03  0.75058638262E+03  0.25500000000E-02 0. -1.
         -2   -1    0    0    0  501 -0.00000000000E+00 -0.00000000000E+00 -0.43988505786E+04  0.43988505786E+04  0.25500000000E-02 0.  1.
    8880023    1    1    2    0    0 -0.78654986465E+03  0.94225868968E+03 -0.10548138095E+03  0.13969426101E+04  0.65864270000E+03 0.  0.
    8880022    1    1    2    0    0  0.78654986465E+03 -0.94225868968E+03 -0.35427828150E+04  0.37524943511E+04  0.15294330000E+03 0.  0.
<mgrwt>
<rscale>  0 0.13521838E+04</rscale>
<asrwt>0</asrwt>
<pdfrwt beam="1">  1        2 0.11547483E+00 0.13929545E+04</pdfrwt>
<pdfrwt beam="2">  1       -2 0.67674623E+00 0.13929545E+04</pdfrwt>
<totfact> 0.96734597E-03</totfact>
</mgrwt>
</event>
<event>
 4    5  0.2473208E-007  0.9399389E+03  0.7818608E-02  0.9464740E-01
         -2   -1    0    0    0  501 -0.00000000000E+00  0.00000000000E+00  0.17684721940E+04  0.17684721940E+04  0.25500000000E-02 0.  1.
          2   -1    0    0  501    0  0.00000000000E+00 -0.00000000000E+00 -0.10878330467E+04  0.10878330467E+04  0.25500000000E-02 0. -1.
    8880023    1    1    2    0    0 -0.49210850010E+03  0.45552617274E+03  0.15101265228E+04  0.17787543931E+04  0.65864270000E+03 0.  0.
    8880022    1    1    2    0    0  0.49210850010E+03 -0.45552617274E+03 -0.82948737548E+03  0.10775508475E+04  0.15294330000E+03 0. -1.
<mgrwt>
<rscale>  0 0.86934064E+03</rscale>
<asrwt>0</asrwt>
<pdfrwt beam="1">  1        2 0.16735893E+00 0.93993887E+03</pdfrwt>
<pdfrwt beam="2">  1       -2 0.27207265E+00 0.93993887E+03</pdfrwt>
<totfact> 0.10522070E+00</totfact>
</mgrwt>
</event>
<event>
 4    5  0.2473208E-007  0.1360925E+04  0.7818608E-02  0.9014656E-01
          2   -1    0    0  501    0  0.00000000000E+00  0.00000000000E+00  0.22406703083E+04  0.22406703083E+04  0.25500000000E-02 0. -1.
         -2   -1    0    0    0  501 -0.00000000000E+00 -0.00000000000E+00 -0.15934727031E+04  0.15934727031E+04  0.25500000000E-02 0.  1.
    8880023    1    1    2    0    0  0.33970701517E+03 -0.11414485072E+04  0.17410850003E+04  0.22098626056E+04  0.65864270000E+03 0.  0.
    8880022    1    1    2    0    0 -0.33970701517E+03  0.11414485072E+04 -0.10938873951E+04  0.16242804059E+04  0.15294330000E+03 0.  0.
<mgrwt>
<rscale>  0 0.13189697E+04</rscale>
<asrwt>0</asrwt>
<pdfrwt beam="1">  1        2 0.34471851E+00 0.13609246E+04</pdfrwt>
<pdfrwt beam="2">  1       -2 0.24514965E+00 0.13609246E+04</pdfrwt>
<totfact> 0.32146520E-01</totfact>
</mgrwt>
</event>
<event>
 4    5  0.2473208E-007  0.8728208E+03  0.7818608E-02  0.9571152E-01
          2   -1    0    0  501    0  0.00000000000E+00  0.00000000000E+00  0.11551300824E+04  0.11551300824E+04  0.25500000000E-02 0. -1.
         -2   -1    0    0    0  501 -0.00000000000E+00 -0.00000000000E+00 -0.83986718264E+03  0.83986718264E+03  0.25500000000E-02 0.  1.
    8880023    1    1    2    0    0 -0.56617132779E+03  0.86347587918E+02 -0.48544752909E+03  0.99873689634E+03  0.65864270000E+03 0.  1.
    8880022    1    1    2    0    0  0.56617132779E+03 -0.86347587918E+02  0.80071042884E+03  0.99626036868E+03  0.15294330000E+03 0.  0.
<mgrwt>
<rscale>  0 0.79235288E+03</rscale>
<asrwt>0</asrwt>
<pdfrwt beam="1">  1        2 0.17771232E+00 0.87282076E+03</pdfrwt>
<pdfrwt beam="2">  1       -2 0.12921034E+00 0.87282076E+03</pdfrwt>
<totfact> 0.89338863E+00</totfact>
</mgrwt>
</event>
<event>
 4    5  0.2473208E-007  0.6603530E+03  0.7818608E-02  0.1023798E+00
          2   -1    0    0  501    0  0.00000000000E+00  0.00000000000E+00  0.19812214309E+04  0.19812214309E+04  0.25500000000E-02 0. -1.
         -2   -1    0    0    0  501 -0.00000000000E+00 -0.00000000000E+00 -0.43730292724E+03  0.43730292725E+03  0.25500000000E-02 0.  1.
    8880023    1    1    2    0    0 -0.41699883857E+02  0.22737222538E+02 -0.18217214776E+03  0.68502026195E+03  0.65864270000E+03 0.  1.
    8880022    1    1    2    0    0  0.41699883857E+02 -0.22737222538E+02  0.17260906514E+04  0.17335040962E+04  0.15294330000E+03 0.  0.
<mgrwt>
<rscale>  0 0.46340719E+03</rscale>
<asrwt>0</asrwt>
<pdfrwt beam="1">  1        2 0.30480329E+00 0.66035299E+03</pdfrwt>
<pdfrwt beam="2">  1       -2 0.67277375E-01 0.66035299E+03</pdfrwt>
<totfact> 0.14546950E+01</totfact>
</mgrwt>
</event>
<event>
 4    5  0.2473208E-007  0.6880440E+03  0.7818608E-02  0.1005096E+00
          2   -1    0    0  501    0  0.00000000000E+00  0.00000000000E+00  0.74091408569E+03  0.74091408570E+03  0.25500000000E-02 0. -1.
         -2   -1    0    0    0  501 -0.00000000000E+00 -0.00000000000E+00 -0.41857209052E+03  0.41857209053E+03  0.25500000000E-02 0.  1.
    8880023    1    1    2    0    0 -0.18005082621E+02  0.19816693276E+03 -0.72268380946E+02  0.69182891049E+03  0.65864270000E+03 0.  1.
    8880022    1    1    2    0    0  0.18005082621E+02 -0.19816693276E+03  0.39461037612E+03  0.46765726573E+03  0.15294330000E+03 0. -1.
<mgrwt>
<rscale>  0 0.53470916E+03</rscale>
<asrwt>0</asrwt>
<pdfrwt beam="1">  1        2 0.11398678E+00 0.68804398E+03</pdfrwt>
<pdfrwt beam="2">  1       -2 0.64395707E-01 0.68804398E+03</pdfrwt>
<totfact> 0.86280441E+01</totfact>
</mgrwt>
</event>
<event>
 4    5  0.2473208E-007  0.7148525E+03  0.7818608E-02  0.9940405E-01
          2   -1    0    0  501    0  0.00000000000E+00  0.00000000000E+00  0.34804196837E+04  0.34804196837E+04  0.25500000000E-02 0. -1.
         -2   -1    0    0    0  501 -0.00000000000E+00 -0.00000000000E+00 -0.15396411768E+03  0.15396411770E+03  0.25500000000E-02 0.  1.
    8880023    1    1    2    0    0  0.22661041767E+03 -0.16078418991E+03  0.74122873724E+03  0.10297738025E+04  0.65864270000E+03 0.  1.
    8880022    1    1    2    0    0 -0.22661041767E+03  0.16078418991E+03  0.25852268288E+04  0.26046099989E+04  0.15294330000E+03 0.  0.
<mgrwt>
<rscale>  0 0.58342445E+03</rscale>
<asrwt>0</asrwt>
<pdfrwt beam="1">  1        2 0.53544915E+00 0.71485246E+03</pdfrwt>
<pdfrwt beam="2">  1       -2 0.23686789E-01 0.71485246E+03</pdfrwt>
<totfact> 0.14375247E+01</totfact>
</mgrwt>
</event>
<event>
 4    5  0.2473208E-007  0.1414008E+04  0.7818608E-02  0.8972874E-01
         -2   -1    0    0    0  501 -0.00000000000E+00  0.00000000000E+00  0.20261585179E+04  0.20261585179E+04  0.25500000000E-02 0.  1.
          2   -1    0    0  501    0  0.00000000000E+00 -0.00000000000E+00 -0.19488183385E+04  0.19488183385E+04  0.25500000000E-02 0. -1.
    8880023    1    1    2    0    0 -0.22407385626E+03  0.12310151501E+04  0.15086506403E+04  0.20677147660E+04  0.65864270000E+03 0.  1.
    8880022    1    1    2    0    0  0.22407385626E+03 -0.12310151501E+04 -0.14313104609E+04  0.19072620904E+04  0.15294330000E+03 0.  0.
<mgrwt>
<rscale>  0 0.13739764E+04</rscale>
<asrwt>0</asrwt>
<pdfrwt beam="1">  1        2 0.29981820E+00 0.14140076E+04</pdfrwt>
<pdfrwt beam="2">  1       -2 0.31171670E+00 0.14140076E+04</pdfrwt>
<totfact> 0.18226672E-01</totfact>
</mgrwt>
</event>
<event>
 4    5  0.2473208E-007  0.9965677E+03  0.7818608E-02  0.9386062E-01
          2   -1    0    0  501    0  0.00000000000E+00  0.00000000000E+00  0.13209810470E+04  0.13209810470E+04  0.25500000000E-02 0. -1.
         -2   -1    0    0    0  501 -0.00000000000E+00 -0.00000000000E+00 -0.10291582060E+04  0.10291582060E+04  0.25500000000E-02 0.  1.
    8880023    1    1    2    0    0 -0.57463820179E+03  0.47867313291E+03 -0.61013327715E+03  0.11685075324E+04  0.65864270000E+03 0.  0.
    8880022    1    1    2    0    0  0.57463820179E+03 -0.47867313291E+03  0.90195611809E+03  0.11816317206E+04  0.15294330000E+03 0. -1.
<mgrwt>
<rscale>  0 0.93231659E+03</rscale>
<asrwt>0</asrwt>
<pdfrwt beam="1">  1        2 0.20322785E+00 0.99656773E+03</pdfrwt>
<pdfrwt beam="2">  1       -2 0.15833203E+00 0.99656773E+03</pdfrwt>
<totfact> 0.41323360E+00</totfact>
</mgrwt>
</event>
<event>
 4    5  0.2473208E-007  0.9354874E+03  0.7818608E-02  0.9471309E-01
          2   -1    0    0  501    0  0.00000000000E+00  0.00000000000E+00  0.22262267944E+04  0.22262267944E+04  0.25500000000E-02 0. -1.
         -2   -1    0    0    0  501 -0.00000000000E+00 -0.00000000000E+00 -0.37615549634E+03  0.37615549635E+03  0.25500000000E-02 0.  1.
    8880023    1    1    2    0    0  0.60815082217E+03 -0.26735557045E+03  0.43502400155E+03  0.10316891546E+04  0.65864270000E+03 0.  1.
    8880022    1    1    2    0    0 -0.60815082217E+03  0.26735557045E+03  0.14150472965E+04  0.15706931361E+04  0.15294330000E+03 0.  0.
<mgrwt>
<rscale>  0 0.86432514E+03</rscale>
<asrwt>0</asrwt>
<pdfrwt beam="1">  1        2 0.34249643E+00 0.93548738E+03</pdfrwt>
<pdfrwt beam="2">  1       -2 0.57870076E-01 0.93548738E+03</pdfrwt>
<totfact> 0.14154684E+01</totfact>
</mgrwt>
</event>
<event>
 4    5  0.2473208E-007  0.1551641E+04  0.7818608E-02  0.8874005E-01
         -2   -1    0    0    0  501 -0.00000000000E+00  0.00000000000E+00  0.12042504067E+04  0.12042504067E+04  0.25500000000E-02 0.  1.
          2   -1    0    0  501    0  0.00000000000E+00 -0.00000000000E+00 -0.22592474991E+04  0.22592474991E+04  0.25500000000E-02 0. -1.
    8880023    1    1    2    0    0  0.13969592281E+04 -0.14928279792E+03  0.21128701359E+03  0.15659606786E+04  0.65864270000E+03 0.  0.
    8880022    1    1    2    0    0 -0.13969592281E+04  0.14928279792E+03 -0.12662841060E+04  0.18975372272E+04  0.15294330000E+03 0.  0.
<mgrwt>
<rscale>  0 0.15158123E+04</rscale>
<asrwt>0</asrwt>
<pdfrwt beam="1">  1        2 0.34757654E+00 0.15516413E+04</pdfrwt>
<pdfrwt beam="2">  1       -2 0.18526929E+00 0.15516413E+04</pdfrwt>
<totfact> 0.74623318E-01</totfact>
</mgrwt>
</event>
<event>
 4    5  0.2473208E-007  0.1027364E+04  0.7818608E-02  0.9346602E-01
         -2   -1    0    0    0  501 -0.00000000000E+00  0.00000000000E+00  0.25001251465E+04  0.25001251465E+04  0.25500000000E-02 0.  1.
          2   -1    0    0  501    0  0.00000000000E+00 -0.00000000000E+00 -0.11231527279E+04  0.11231527279E+04  0.25500000000E-02 0. -1.
    8880023    1    1    2    0    0 -0.32844976604E+03  0.71678910316E+03  0.22277834148E+04  0.24532621174E+04  0.65864270000E+03 0.  1.
    8880022    1    1    2    0    0  0.32844976604E+03 -0.71678910316E+03 -0.85081099620E+03  0.11700157569E+04  0.15294330000E+03 0.  0.
<mgrwt>
<rscale>  0 0.96603520E+03</rscale>
<asrwt>0</asrwt>
<pdfrwt beam="1">  1        2 0.17279273E+00 0.10273637E+04</pdfrwt>
<pdfrwt beam="2">  1       -2 0.38463464E+00 0.10273637E+04</pdfrwt>
<totfact> 0.19913934E-01</totfact>
</mgrwt>
</event>
<event>
 4    5  0.2473208E-007  0.1303255E+04  0.7818608E-02  0.9062754E-01
          2   -1    0    0  501    0  0.00000000000E+00  0.00000000000E+00  0.25997247999E+04  0.25997247999E+04  0.25500000000E-02 0. -1.
         -2   -1    0    0    0  501 -0.00000000000E+00 -0.00000000000E+00 -0.13437906252E+04  0.13437906252E+04  0.25500000000E-02 0.  1.
    8880023    1    1    2    0    0 -0.43628968347E+03 -0.10364921360E+04 -0.84669270801E+03  0.15541439393E+04  0.65864270000E+03 0.  1.
    8880022    1    1    2    0    0  0.43628968347E+03  0.10364921360E+04  0.21026268828E+04  0.23893714858E+04  0.15294330000E+03 0.  0.
<mgrwt>
<rscale>  0 0.12589661E+04</rscale>
<asrwt>0</asrwt>
<pdfrwt beam="1">  1        2 0.39995766E+00 0.13032555E+04</pdfrwt>
<pdfrwt beam="2">  1       -2 0.20673702E+00 0.13032555E+04</pdfrwt>
<totfact> 0.35237253E-01</totfact>
</mgrwt>
</event>
<event>
 4    5  0.2473208E-007  0.8177063E+03  0.7818608E-02  0.9673743E-01
          2   -1    0    0  501    0  0.00000000000E+00  0.00000000000E+00  0.10595520392E+04  0.10595520392E+04  0.25500000000E-02 0. -1.
         -2   -1    0    0    0  501 -0.00000000000E+00 -0.00000000000E+00 -0.16151969581E+04  0.16151969581E+04  0.25500000000E-02 0.  1.
    8880023    1    1    2    0    0  0.47763534621E+03 -0.81840895954E+02 -0.14393213227E+04  0.16553819899E+04  0.65864270000E+03 0.  0.
    8880022    1    1    2    0    0 -0.47763534621E+03  0.81840895954E+02  0.88367640381E+03  0.10193670074E+04  0.15294330000E+03 0.  0.
<mgrwt>
<rscale>  0 0.72601874E+03</rscale>
<asrwt>0</asrwt>
<pdfrwt beam="1">  1        2 0.16300801E+00 0.81770634E+03</pdfrwt>
<pdfrwt beam="2">  1       -2 0.24849184E+00 0.81770634E+03</pdfrwt>
<totfact> 0.15503995E+00</totfact>
</mgrwt>
</event>
<event>
 4    5  0.2473208E-007  0.1494325E+04  0.7818608E-02  0.8913653E-01
         -2   -1    0    0    0  501 -0.00000000000E+00  0.00000000000E+00  0.18073441097E+04  0.18073441097E+04  0.25500000000E-02 0.  1.
          2   -1    0    0  501    0  0.00000000000E+00 -0.00000000000E+00 -0.20676979626E+04  0.20676979626E+04  0.25500000000E-02 0. -1.
    8880023    1    1    2    0    0 -0.12207042338E+04  0.55594854500E+03  0.11776694660E+04  0.19026069454E+04  0.65864270000E+03 0.  1.
    8880022    1    1    2    0    0  0.12207042338E+04 -0.55594854500E+03 -0.14380233189E+04  0.19724351269E+04  0.15294330000E+03 0.  0.
<mgrwt>
<rscale>  0 0.14568671E+04</rscale>
<asrwt>0</asrwt>
<pdfrwt beam="1">  1        2 0.31810738E+00 0.14943252E+04</pdfrwt>
<pdfrwt beam="2">  1       -2 0.27805294E+00 0.14943252E+04</pdfrwt>
<totfact> 0.24869117E-01</totfact>
</mgrwt>
</event>
<event>
 4    5  0.2473208E-007  0.6850007E+03  0.7818608E-02  0.1006626E+00
          2   -1    0    0  501    0  0.00000000000E+00  0.00000000000E+00  0.27463643782E+04  0.27463643782E+04  0.25500000000E-02 0. -1.
         -2   -1    0    0    0  501 -0.00000000000E+00 -0.00000000000E+00 -0.19622896384E+03  0.19622896386E+03  0.25500000000E-02 0.  1.
    8880023    1    1    2    0    0  0.67713636737E+02  0.17558641866E+03  0.43031687696E+03  0.80894903911E+03  0.65864270000E+03 0.  1.
    8880022    1    1    2    0    0 -0.67713636737E+02 -0.17558641866E+03  0.21198185374E+04  0.21336443030E+04  0.15294330000E+03 0.  0.
<mgrwt>
<rscale>  0 0.52838105E+03</rscale>
<asrwt>0</asrwt>
<pdfrwt beam="1">  1        2 0.42251757E+00 0.68500068E+03</pdfrwt>
<pdfrwt beam="2">  1       -2 0.30189074E-01 0.68500068E+03</pdfrwt>
<totfact> 0.26792609E+01</totfact>
</mgrwt>
</event>
<event>
 4    5  0.2473208E-007  0.7279166E+03  0.7818608E-02  0.9896656E-01
          2   -1    0    0  501    0  0.00000000000E+00  0.00000000000E+00  0.38676671241E+04  0.38676671241E+04  0.25500000000E-02 0. -1.
         -2   -1    0    0    0  501 -0.00000000000E+00 -0.00000000000E+00 -0.10496354992E+04  0.10496354993E+04  0.25500000000E-02 0.  1.
    8880023    1    1    2    0    0  0.33299448432E+01  0.30990528261E+03 -0.91448356830E+03  0.11688211051E+04  0.65864270000E+03 0.  1.
    8880022    1    1    2    0    0 -0.33299448432E+01 -0.30990528261E+03  0.37325151931E+04  0.37484815183E+04  0.15294330000E+03 0.  0.
<mgrwt>
<rscale>  0 0.60423624E+03</rscale>
<asrwt>0</asrwt>
<pdfrwt beam="1">  1        2 0.59502571E+00 0.72791660E+03</pdfrwt>
<pdfrwt beam="2">  1       -2 0.16148239E+00 0.72791660E+03</pdfrwt>
<totfact> 0.11958100E-01</totfact>
</mgrwt>
</event>
<event>
 4    5  0.2473208E-007  0.1472521E+04  0.7818608E-02  0.8929287E-01
         -2   -1    0    0    0  501 -0.00000000000E+00  0.00000000000E+00  0.80159243694E+03  0.80159243694E+03  0.25500000000E-02 0.  1.
          2   -1    0    0  501    0  0.00000000000E+00 -0.00000000000E+00 -0.36599336727E+04  0.36599336727E+04  0.25500000000E-02 0. -1.
    8880023    1    1    2    0    0  0.13142671919E+04 -0.84912498370E+02 -0.19364166596E+03  0.14851988705E+04  0.65864270000E+03 0.  0.
    8880022    1    1    2    0    0 -0.13142671919E+04  0.84912498370E+02 -0.26646995698E+04  0.29763272391E+04  0.15294330000E+03 0.  0.
<mgrwt>
<rscale>  0 0.14344005E+04</rscale>
<asrwt>0</asrwt>
<pdfrwt beam="1">  1        2 0.56306671E+00 0.14725212E+04</pdfrwt>
<pdfrwt beam="2">  1       -2 0.12332192E+00 0.14725212E+04</pdfrwt>
<totfact> 0.29839599E-01</totfact>
</mgrwt>
</event>
<event>
 4    5  0.2473208E-007  0.7981831E+03  0.7818608E-02  0.9714738E-01
          2   -1    0    0  501    0  0.00000000000E+00  0.00000000000E+00  0.17768198949E+04  0.17768198949E+04  0.25500000000E-02 0. -1.
         -2   -1    0    0    0  501 -0.00000000000E+00 -0.00000000000E+00 -0.19270691589E+04  0.19270691589E+04  0.25500000000E-02 0.  1.
    8880023    1    1    2    0    0 -0.40970128700E+03 -0.18823108605E+03 -0.18094783863E+04  0.19777027893E+04  0.65864270000E+03 0.  1.
    8880022    1    1    2    0    0  0.40970128700E+03  0.18823108605E+03  0.16592291223E+04  0.17261862645E+04  0.15294330000E+03 0.  0.
<mgrwt>
<rscale>  0 0.70146017E+03</rscale>
<asrwt>0</asrwt>
<pdfrwt beam="1">  1        2 0.27335691E+00 0.79818312E+03</pdfrwt>
<pdfrwt beam="2">  1       -2 0.29647218E+00 0.79818312E+03</pdfrwt>
<totfact> 0.31122993E-01</totfact>
</mgrwt>
</event>
<event>
 4    5  0.2473208E-007  0.8545707E+03  0.7818608E-02  0.9603295E-01
          2   -1    0    0  501    0  0.00000000000E+00  0.00000000000E+00  0.93511139393E+03  0.93511139393E+03  0.25500000000E-02 0. -1.
         -2   -1    0    0    0  501 -0.00000000000E+00 -0.00000000000E+00 -0.12064806508E+04  0.12064806508E+04  0.25500000000E-02 0.  1.
    8880023    1    1    2    0    0 -0.53384465110E+03 -0.10719500805E+03 -0.93697171768E+03  0.12681510506E+04  0.65864270000E+03 0.  0.
    8880022    1    1    2    0    0  0.53384465110E+03  0.10719500805E+03  0.66560246082E+03  0.87344099408E+03  0.15294330000E+03 0.  0.
<mgrwt>
<rscale>  0 0.77078476E+03</rscale>
<asrwt>0</asrwt>
<pdfrwt beam="1">  1        2 0.14386329E+00 0.85457070E+03</pdfrwt>
<pdfrwt beam="2">  1       -2 0.18561241E+00 0.85457070E+03</pdfrwt>
<totfact> 0.46444049E+00</totfact>
</mgrwt>
</event>
<event>
 4    5  0.2473208E-007  0.6958978E+03  0.7818608E-02  0.1001466E+00
         -2   -1    0    0    0  501 -0.00000000000E+00  0.00000000000E+00  0.13435304823E+03  0.13435304825E+03  0.25500000000E-02 0.  1.
          2   -1    0    0  501    0  0.00000000000E+00 -0.00000000000E+00 -0.27752285199E+04  0.27752285199E+04  0.25500000000E-02 0. -1.
    8880023    1    1    2    0    0 -0.14998418692E+03  0.16723717193E+03 -0.85153254754E+03  0.10997187885E+04  0.65864270000E+03 0.  1.
    8880022    1    1    2    0    0  0.14998418692E+03 -0.16723717193E+03 -0.17893429242E+04  0.18098627797E+04  0.15294330000E+03 0.  0.
<mgrwt>
<rscale>  0 0.55011909E+03</rscale>
<asrwt>0</asrwt>
<pdfrwt beam="1">  1        2 0.42695819E+00 0.69589779E+03</pdfrwt>
<pdfrwt beam="2">  1       -2 0.20669702E-01 0.69589779E+03</pdfrwt>
<totfact> 0.50928035E+01</totfact>
</mgrwt>
</event>
<event>
 4    5  0.2473208E-007  0.6653840E+03  0.7818608E-02  0.1019213E+00
          2   -1    0    0  501    0  0.00000000000E+00  0.00000000000E+00  0.24497673898E+04  0.24497673898E+04  0.25500000000E-02 0. -1.
         -2   -1    0    0    0  501 -0.00000000000E+00 -0.00000000000E+00 -0.14707527510E+04  0.14707527510E+04  0.25500000000E-02 0.  1.
    8880023    1    1    2    0    0  0.94377323371E+02 -0.43145168718E+01 -0.13919187699E+04  0.15427811778E+04  0.65864270000E+03 0.  1.
    8880022    1    1    2    0    0 -0.94377323371E+02  0.43145168718E+01  0.23709334088E+04  0.23777389630E+04  0.15294330000E+03 0.  0.
<mgrwt>
<rscale>  0 0.47971549E+03</rscale>
<asrwt>0</asrwt>
<pdfrwt beam="1">  1        2 0.37688729E+00 0.66538402E+03</pdfrwt>
<pdfrwt beam="2">  1       -2 0.22626966E+00 0.66538402E+03</pdfrwt>
<totfact> 0.36444743E-01</totfact>
</mgrwt>
</event>
<event>
 4    5  0.2473208E-007  0.9231311E+03  0.7818608E-02  0.9489875E-01
          2   -1    0    0  501    0  0.00000000000E+00  0.00000000000E+00  0.23950338072E+04  0.23950338072E+04  0.25500000000E-02 0. -1.
         -2   -1    0    0    0  501 -0.00000000000E+00 -0.00000000000E+00 -0.59895493897E+03  0.59895493897E+03  0.25500000000E-02 0.  1.
    8880023    1    1    2    0    0 -0.64390383277E+03 -0.61225797051E+02 -0.15207882734E+03  0.93557411255E+03  0.65864270000E+03 0.  0.
    8880022    1    1    2    0    0  0.64390383277E+03  0.61225797051E+02  0.19481576956E+04  0.20584146336E+04  0.15294330000E+03 0. -1.
<mgrwt>
<rscale>  0 0.85034446E+03</rscale>
<asrwt>0</asrwt>
<pdfrwt beam="1">  1        2 0.36846675E+00 0.92313106E+03</pdfrwt>
<pdfrwt beam="2">  1       -2 0.92146912E-01 0.92313106E+03</pdfrwt>
<totfact> 0.40767888E+00</totfact>
</mgrwt>
</event>
<event>
 4    5  0.2473208E-007  0.8300240E+03  0.7818608E-02  0.9649286E-01
          2   -1    0    0  501    0  0.00000000000E+00  0.00000000000E+00  0.21677635380E+04  0.21677635380E+04  0.25500000000E-02 0. -1.
         -2   -1    0    0    0  501 -0.00000000000E+00 -0.00000000000E+00 -0.27067593245E+03  0.27067593246E+03  0.25500000000E-02 0.  1.
    8880023    1    1    2    0    0 -0.46111636980E+03  0.20615855341E+03  0.56081294905E+03  0.10017240267E+04  0.65864270000E+03 0.  0.
    8880022    1    1    2    0    0  0.46111636980E+03 -0.20615855341E+03  0.13362746565E+04  0.14367154438E+04  0.15294330000E+03 0.  0.
<mgrwt>
<rscale>  0 0.74118274E+03</rscale>
<asrwt>0</asrwt>
<pdfrwt beam="1">  1        2 0.33350209E+00 0.83002401E+03</pdfrwt>
<pdfrwt beam="2">  1       -2 0.41642450E-01 0.83002401E+03</pdfrwt>
<totfact> 0.30164372E+01</totfact>
</mgrwt>
</event>
<event>
 4    5  0.2583380E-007  0.1084173E+04  0.7818608E-02  0.9278885E-01
          2   -1    0    0  501    0  0.00000000000E+00  0.00000000000E+00  0.14852132566E+04  0.14852132566E+04  0.25500000000E-02 0. -1.
         -2   -1    0    0    0  501 -0.00000000000E+00 -0.00000000000E+00 -0.18136082740E+04  0.18136082740E+04  0.25500000000E-02 0.  1.
    8880023    1    1    2    0    0  0.76731693894E+03  0.39095497226E+03 -0.14912739358E+04  0.18437269952E+04  0.65864270000E+03 0.  0.
    8880022    1    1    2    0    0 -0.76731693894E+03 -0.39095497226E+03  0.11628789184E+04  0.14550945354E+04  0.15294330000E+03 0.  0.
<mgrwt>
<rscale>  0 0.10275017E+04</rscale>
<asrwt>0</asrwt>
<pdfrwt beam="1">  1        2 0.22849435E+00 0.10841731E+04</pdfrwt>
<pdfrwt beam="2">  1       -2 0.27901666E+00 0.10841731E+04</pdfrwt>
<totfact> 0.54667929E-01</totfact>
</mgrwt>
</event>
<event>
 4    5  0.2473208E-007  0.9041863E+03  0.7818608E-02  0.9519344E-01
          2   -1    0    0  501    0  0.00000000000E+00  0.00000000000E+00  0.16182185633E+04  0.16182185633E+04  0.25500000000E-02 0. -1.
         -2   -1    0    0    0  501 -0.00000000000E+00 -0.00000000000E+00 -0.10120435218E+04  0.10120435218E+04  0.25500000000E-02 0.  1.
    8880023    1    1    2    0    0  0.40862595871E+03 -0.46558303031E+03 -0.72179498474E+03  0.11569533001E+04  0.65864270000E+03 0.  0.
    8880022    1    1    2    0    0 -0.40862595871E+03  0.46558303031E+03  0.13279700263E+04  0.14733087850E+04  0.15294330000E+03 0.  0.
<mgrwt>
<rscale>  0 0.82872546E+03</rscale>
<asrwt>0</asrwt>
<pdfrwt beam="1">  1        2 0.24895670E+00 0.90418634E+03</pdfrwt>
<pdfrwt beam="2">  1       -2 0.15569900E+00 0.90418634E+03</pdfrwt>
<totfact> 0.29717542E+00</totfact>
</mgrwt>
</event>
<event>
 4    5  0.2473208E-007  0.9437244E+03  0.7818608E-02  0.9459201E-01
         -2   -1    0    0    0  501 -0.00000000000E+00  0.00000000000E+00  0.12356575678E+04  0.12356575678E+04  0.25500000000E-02 0.  1.
          2   -1    0    0  501    0  0.00000000000E+00 -0.00000000000E+00 -0.15097871553E+04  0.15097871553E+04  0.25500000000E-02 0. -1.
    8880023    1    1    2    0    0 -0.45431194655E+03  0.50040594791E+03  0.94981815137E+03  0.13389436823E+04  0.65864270000E+03 0.  1.
    8880022    1    1    2    0    0  0.45431194655E+03 -0.50040594791E+03 -0.12239477388E+04  0.14065010408E+04  0.15294330000E+03 0.  0.
<mgrwt>
<rscale>  0 0.87359737E+03</rscale>
<asrwt>0</asrwt>
<pdfrwt beam="1">  1        2 0.23227495E+00 0.94372436E+03</pdfrwt>
<pdfrwt beam="2">  1       -2 0.19010116E+00 0.94372436E+03</pdfrwt>
<totfact> 0.19409169E+00</totfact>
</mgrwt>
</event>
<event>
 4    5  0.2473208E-007  0.9591781E+03  0.7818608E-02  0.9437030E-01
         -2   -1    0    0    0  501 -0.00000000000E+00  0.00000000000E+00  0.73865475843E+03  0.73865475844E+03  0.25500000000E-02 0.  1.
          2   -1    0    0  501    0  0.00000000000E+00 -0.00000000000E+00 -0.11473304153E+04  0.11473304153E+04  0.25500000000E-02 0. -1.
    8880023    1    1    2    0    0 -0.20376047161E+03 -0.66685387904E+03  0.16110037654E+03  0.97261295661E+03  0.65864270000E+03 0.  1.
    8880022    1    1    2    0    0  0.20376047161E+03  0.66685387904E+03 -0.56977603343E+03  0.91337221715E+03  0.15294330000E+03 0.  0.
<mgrwt>
<rscale>  0 0.89089917E+03</rscale>
<asrwt>0</asrwt>
<pdfrwt beam="1">  1        2 0.17651237E+00 0.95917810E+03</pdfrwt>
<pdfrwt beam="2">  1       -2 0.11363919E+00 0.95917810E+03</pdfrwt>
<totfact> 0.12329909E+01</totfact>
</mgrwt>
</event>
<event>
 4    5  0.2473208E-007  0.7101405E+03  0.7818608E-02  0.9957480E-01
         -2   -1    0    0    0  501 -0.00000000000E+00  0.00000000000E+00  0.54077363552E+03  0.54077363552E+03  0.25500000000E-02 0.  1.
          2   -1    0    0  501    0  0.00000000000E+00 -0.00000000000E+00 -0.10972552356E+04  0.10972552356E+04  0.25500000000E-02 0. -1.
    8880023    1    1    2    0    0 -0.24373023112E+03  0.10528479486E+03  0.26755556160E+03  0.75887120014E+03  0.65864270000E+03 0.  1.
    8880022    1    1    2    0    0  0.24373023112E+03 -0.10528479486E+03 -0.82403716167E+03  0.87915767096E+03  0.15294330000E+03 0.  0.
<mgrwt>
<rscale>  0 0.57554648E+03</rscale>
<asrwt>0</asrwt>
<pdfrwt beam="1">  1        2 0.16880850E+00 0.71014049E+03</pdfrwt>
<pdfrwt beam="2">  1       -2 0.83195944E-01 0.71014049E+03</pdfrwt>
<totfact> 0.28268447E+01</totfact>
</mgrwt>
</event>
<event>
 4    5  0.2473208E-007  0.1053296E+04  0.7818608E-02  0.9314930E-01
          2   -1    0    0  501    0  0.00000000000E+00  0.00000000000E+00  0.17740598683E+04  0.17740598683E+04  0.25500000000E-02 0. -1.
         -2   -1    0    0    0  501 -0.00000000000E+00 -0.00000000000E+00 -0.96507061936E+03  0.96507061936E+03  0.25500000000E-02 0.  1.
    8880023    1    1    2    0    0 -0.16176569592E+03 -0.80588664501E+03 -0.51562193639E+03  0.11727308355E+04  0.65864270000E+03 0.  1.
    8880022    1    1    2    0    0  0.16176569592E+03  0.80588664501E+03  0.13246111853E+04  0.15663996521E+04  0.15294330000E+03 0.  0.
<mgrwt>
<rscale>  0 0.99419910E+03</rscale>
<asrwt>0</asrwt>
<pdfrwt beam="1">  1        2 0.27293228E+00 0.10532956E+04</pdfrwt>
<pdfrwt beam="2">  1       -2 0.14847240E+00 0.10532956E+04</pdfrwt>
<totfact> 0.27145259E+00</totfact>
</mgrwt>
</event>
<event>
 4    5  0.2473208E-007  0.9059801E+03  0.7818608E-02  0.9516499E-01
         -2   -1    0    0    0  501 -0.00000000000E+00  0.00000000000E+00  0.43197196334E+03  0.43197196335E+03  0.25500000000E-02 0.  1.
          2   -1    0    0  501    0  0.00000000000E+00 -0.00000000000E+00 -0.38575255609E+04  0.38575255609E+04  0.25500000000E-02 0. -1.
    8880023    1    1    2    0    0 -0.37913001561E+03 -0.49320393359E+03 -0.11001140172E+03  0.91263486873E+03  0.65864270000E+03 0.  1.
    8880022    1    1    2    0    0  0.37913001561E+03  0.49320393359E+03 -0.33155421958E+04  0.33768626555E+04  0.15294330000E+03 0.  0.
<mgrwt>
<rscale>  0 0.83078268E+03</rscale>
<asrwt>0</asrwt>
<pdfrwt beam="1">  1        2 0.59346545E+00 0.90598007E+03</pdfrwt>
<pdfrwt beam="2">  1       -2 0.66457228E-01 0.90598007E+03</pdfrwt>
<totfact> 0.98564249E-01</totfact>
</mgrwt>
</event>
<event>
 4    5  0.2473208E-007  0.1137582E+04  0.7818608E-02  0.9220323E-01
         -2   -1    0    0    0  501 -0.00000000000E+00  0.00000000000E+00  0.55198096830E+03  0.55198096831E+03  0.25500000000E-02 0.  1.
          2   -1    0    0  501    0  0.00000000000E+00 -0.00000000000E+00 -0.20496799624E+04  0.20496799624E+04  0.25500000000E-02 0. -1.
    8880023    1    1    2    0    0  0.24060402382E+03  0.89576340223E+03 -0.53840249715E+03  0.12585586296E+04  0.65864270000E+03 0.  1.
    8880022    1    1    2    0    0 -0.24060402382E+03 -0.89576340223E+03 -0.95929649696E+03  0.13431023011E+04  0.15294330000E+03 0.  0.
<mgrwt>
<rscale>  0 0.10846098E+04</rscale>
<asrwt>0</asrwt>
<pdfrwt beam="1">  1        2 0.31533538E+00 0.11375819E+04</pdfrwt>
<pdfrwt beam="2">  1       -2 0.84920150E-01 0.11375819E+04</pdfrwt>
<totfact> 0.74748487E+00</totfact>
</mgrwt>
</event>
<event>
 4    5  0.2473208E-007  0.1306580E+04  0.7818608E-02  0.9059898E-01
          2   -1    0    0  501    0  0.00000000000E+00  0.00000000000E+00  0.20452250059E+04  0.20452250059E+04  0.25500000000E-02 0. -1.
         -2   -1    0    0    0  501 -0.00000000000E+00 -0.00000000000E+00 -0.10481469838E+04  0.10481469838E+04  0.25500000000E-02 0.  1.
    8880023    1    1    2    0    0  0.11169417004E+04  0.16056841045E+03 -0.32709330474E+03  0.13469005950E+04  0.65864270000E+03 0.  0.
    8880022    1    1    2    0    0 -0.11169417004E+04 -0.16056841045E+03  0.13241713269E+04  0.17464713947E+04  0.15294330000E+03 0.  0.
<mgrwt>
<rscale>  0 0.12624329E+04</rscale>
<asrwt>0</asrwt>
<pdfrwt beam="1">  1        2 0.31465000E+00 0.13065800E+04</pdfrwt>
<pdfrwt beam="2">  1       -2 0.16125338E+00 0.13065800E+04</pdfrwt>
<totfact> 0.14944764E+00</totfact>
</mgrwt>
</event>
<event>
 4    5  0.2473208E-007  0.1019141E+04  0.7818608E-02  0.9356933E-01
         -2   -1    0    0    0  501 -0.00000000000E+00  0.00000000000E+00  0.26856938898E+04  0.26856938898E+04  0.25500000000E-02 0.  1.
          2   -1    0    0  501    0  0.00000000000E+00 -0.00000000000E+00 -0.38615574506E+03  0.38615574507E+03  0.25500000000E-02 0. -1.
    8880023    1    1    2    0    0  0.74640463560E+03  0.21844365671E+03  0.19609070282E+04  0.22099330512E+04  0.65864270000E+03 0.  1.
    8880022    1    1    2    0    0 -0.74640463560E+03 -0.21844365671E+03  0.33863111660E+03  0.86191658375E+03  0.15294330000E+03 0.  0.
<mgrwt>
<rscale>  0 0.95706264E+03</rscale>
<asrwt>0</asrwt>
<pdfrwt beam="1">  1        2 0.59408574E-01 0.10191407E+04</pdfrwt>
<pdfrwt beam="2">  1       -2 0.41318369E+00 0.10191407E+04</pdfrwt>
<totfact> 0.51308735E-01</totfact>
</mgrwt>
</event>
<event>
 4    5  0.2473208E-007  0.7408459E+03  0.7818608E-02  0.9857490E-01
          2   -1    0    0  501    0  0.00000000000E+00  0.00000000000E+00  0.14483525723E+04  0.14483525723E+04  0.25500000000E-02 0. -1.
         -2   -1    0    0    0  501 -0.00000000000E+00 -0.00000000000E+00 -0.50676474098E+03  0.50676474099E+03  0.25500000000E-02 0.  1.
    8880023    1    1    2    0    0  0.24426420285E+03  0.23532426803E+03 -0.18925606297E+03  0.76463754522E+03  0.65864270000E+03 0.  1.
    8880022    1    1    2    0    0 -0.24426420285E+03 -0.23532426803E+03  0.11308438943E+04  0.11904797681E+04  0.15294330000E+03 0.  0.
<mgrwt>
<rscale>  0 0.62366496E+03</rscale>
<asrwt>0</asrwt>
<pdfrwt beam="1">  1        2 0.22282347E+00 0.74084595E+03</pdfrwt>
<pdfrwt beam="2">  1       -2 0.77963807E-01 0.74084595E+03</pdfrwt>
<totfact> 0.20369736E+01</totfact>
</mgrwt>
</event>
<event>
 4    5  0.2473208E-007  0.9821121E+03  0.7818608E-02  0.9405344E-01
          2   -1    0    0  501    0  0.00000000000E+00  0.00000000000E+00  0.22010590441E+04  0.22010590441E+04  0.25500000000E-02 0. -1.
         -2   -1    0    0    0  501 -0.00000000000E+00 -0.00000000000E+00 -0.68752457566E+03  0.68752457566E+03  0.25500000000E-02 0.  1.
    8880023    1    1    2    0    0 -0.50653271311E+02  0.72675179570E+03 -0.21606342960E+03  0.10055980998E+04  0.65864270000E+03 0.  0.
    8880022    1    1    2    0    0  0.50653271311E+02 -0.72675179570E+03  0.17295978980E+04  0.18829855199E+04  0.15294330000E+03 0.  0.
<mgrwt>
<rscale>  0 0.91637201E+03</rscale>
<asrwt>0</asrwt>
<pdfrwt beam="1">  1        2 0.33862446E+00 0.98211208E+03</pdfrwt>
<pdfrwt beam="2">  1       -2 0.10577301E+00 0.98211208E+03</pdfrwt>
<totfact> 0.37442378E+00</totfact>
</mgrwt>
</event>
<event>
 4    5  0.2473208E-007  0.6912788E+03  0.7818608E-02  0.1003551E+00
         -2   -1    0    0    0  501 -0.00000000000E+00  0.00000000000E+00  0.18293587757E+03  0.18293587759E+03  0.25500000000E-02 0.  1.
          2   -1    0    0  501    0  0.00000000000E+00 -0.00000000000E+00 -0.29969267522E+04  0.29969267522E+04  0.25500000000E-02 0. -1.
    8880023    1    1    2    0    0  0.20920470379E+03  0.17017755700E+02 -0.50445206184E+03  0.85576766768E+03  0.65864270000E+03 0.  1.
    8880022    1    1    2    0    0 -0.20920470379E+03 -0.17017755700E+02 -0.23095388128E+04  0.23240949621E+04  0.15294330000E+03 0.  0.
<mgrwt>
<rscale>  0 0.54120396E+03</rscale>
<asrwt>0</asrwt>
<pdfrwt beam="1">  1        2 0.46106562E+00 0.69127883E+03</pdfrwt>
<pdfrwt beam="2">  1       -2 0.28143983E-01 0.69127883E+03</pdfrwt>
<totfact> 0.21588171E+01</totfact>
</mgrwt>
</event>
<event>
 4    5  0.2473208E-007  0.8186672E+03  0.7818608E-02  0.9671798E-01
          2   -1    0    0  501    0  0.00000000000E+00  0.00000000000E+00  0.24660549540E+04  0.24660549540E+04  0.25500000000E-02 0. -1.
         -2   -1    0    0    0  501 -0.00000000000E+00 -0.00000000000E+00 -0.45627202754E+03  0.45627202755E+03  0.25500000000E-02 0.  1.
    8880023    1    1    2    0    0  0.30810391788E+03 -0.37613523034E+03 -0.30604670154E+02  0.81923902972E+03  0.65864270000E+03 0.  1.
    8880022    1    1    2    0    0 -0.30810391788E+03  0.37613523034E+03  0.20403875966E+04  0.21030879518E+04  0.15294330000E+03 0.  0.
<mgrwt>
<rscale>  0 0.72721006E+03</rscale>
<asrwt>0</asrwt>
<pdfrwt beam="1">  1        2 0.37939309E+00 0.81866717E+03</pdfrwt>
<pdfrwt beam="2">  1       -2 0.70195694E-01 0.81866717E+03</pdfrwt>
<totfact> 0.69757607E+00</totfact>
</mgrwt>
</event>
<event>
 4    5  0.2473208E-007  0.1337794E+04  0.7818608E-02  0.9033590E-01
         -2   -1    0    0    0  501 -0.00000000000E+00  0.00000000000E+00  0.73370961563E+03  0.73370961563E+03  0.25500000000E-02 0.  1.
          2   -1    0    0  501    0  0.00000000000E+00 -0.00000000000E+00 -0.38633613336E+04  0.38633613336E+04  0.25500000000E-02 0. -1.
    8880023    1    1    2    0    0 -0.10730985071E+04 -0.45204350066E+03 -0.92765478723E+02  0.13410068504E+04  0.65864270000E+03 0.  0.
    8880022    1    1    2    0    0  0.10730985071E+04  0.45204350066E+03 -0.30368862392E+04  0.32560640988E+04  0.15294330000E+03 0.  0.
<mgrwt>
<rscale>  0 0.12949363E+04</rscale>
<asrwt>0</asrwt>
<pdfrwt beam="1">  1        2 0.59436327E+00 0.13377944E+04</pdfrwt>
<pdfrwt beam="2">  1       -2 0.11287840E+00 0.13377944E+04</pdfrwt>
<totfact> 0.26730666E-01</totfact>
</mgrwt>
</event>
<event>
 4    5  0.2473208E-007  0.1000248E+04  0.7818608E-02  0.9381233E-01
         -2   -1    0    0    0  501 -0.00000000000E+00  0.00000000000E+00  0.60329329220E+03  0.60329329220E+03  0.25500000000E-02 0.  1.
          2   -1    0    0  501    0  0.00000000000E+00 -0.00000000000E+00 -0.22815163227E+04  0.22815163227E+04  0.25500000000E-02 0. -1.
    8880023    1    1    2    0    0  0.81969728419E+02  0.74830922446E+03 -0.18450490501E+04  0.20987381769E+04  0.65864270000E+03 0.  0.
    8880022    1    1    2    0    0 -0.81969728419E+02 -0.74830922446E+03  0.16682601958E+03  0.78607143799E+03  0.15294330000E+03 0.  0.
<mgrwt>
<rscale>  0 0.93636327E+03</rscale>
<asrwt>0</asrwt>
<pdfrwt beam="1">  1        2 0.35100251E+00 0.10002479E+04</pdfrwt>
<pdfrwt beam="2">  1       -2 0.92814354E-01 0.10002479E+04</pdfrwt>
<totfact> 0.45941659E+00</totfact>
</mgrwt>
</event>
<event>
 4    5  0.2473208E-007  0.1492525E+04  0.7818608E-02  0.8914932E-01
          2   -1    0    0  501    0  0.00000000000E+00  0.00000000000E+00  0.19444220872E+04  0.19444220872E+04  0.25500000000E-02 0. -1.
         -2   -1    0    0    0  501 -0.00000000000E+00 -0.00000000000E+00 -0.11329363513E+04  0.11329363513E+04  0.25500000000E-02 0.  1.
    8880023    1    1    2    0    0 -0.49099704852E+03 -0.12460913897E+04 -0.21573747842E+02  0.14926813076E+04  0.65864270000E+03 0.  0.
    8880022    1    1    2    0    0  0.49099704852E+03  0.12460913897E+04  0.83305948374E+03  0.15846771310E+04  0.15294330000E+03 0.  0.
<mgrwt>
<rscale>  0 0.14550136E+04</rscale>
<asrwt>0</asrwt>
<pdfrwt beam="1">  1        2 0.29914186E+00 0.14925254E+04</pdfrwt>
<pdfrwt beam="2">  1       -2 0.17429790E+00 0.14925254E+04</pdfrwt>
<totfact> 0.13436017E+00</totfact>
</mgrwt>
</event>
<event>
 4    5  0.2473208E-007  0.8171797E+03  0.7818608E-02  0.9674812E-01
          2   -1    0    0  501    0  0.00000000000E+00  0.00000000000E+00  0.21524601736E+04  0.21524601736E+04  0.25500000000E-02 0. -1.
         -2   -1    0    0    0  501 -0.00000000000E+00 -0.00000000000E+00 -0.25876071475E+03  0.25876071477E+03  0.25500000000E-02 0.  1.
    8880023    1    1    2    0    0 -0.74969944026E+02  0.47786179100E+03  0.57751841648E+03  0.10006548413E+04  0.65864270000E+03 0.  0.
    8880022    1    1    2    0    0  0.74969944026E+02 -0.47786179100E+03  0.13161810423E+04  0.14105660470E+04  0.15294330000E+03 0.  0.
<mgrwt>
<rscale>  0 0.72536508E+03</rscale>
<asrwt>0</asrwt>
<pdfrwt beam="1">  1        2 0.33114771E+00 0.81717966E+03</pdfrwt>
<pdfrwt beam="2">  1       -2 0.39809341E-01 0.81717966E+03</pdfrwt>
<totfact> 0.33645324E+01</totfact>
</mgrwt>
</event>
<event>
 4    5  0.2473208E-007  0.8205460E+03  0.7818608E-02  0.9668015E-01
          2   -1    0    0  501    0  0.00000000000E+00  0.00000000000E+00  0.24872015857E+04  0.24872015857E+04  0.25500000000E-02 0. -1.
         -2   -1    0    0    0  501 -0.00000000000E+00 -0.00000000000E+00 -0.41810879148E+03  0.41810879149E+03  0.25500000000E-02 0.  1.
    8880023    1    1    2    0    0 -0.27650703903E+03  0.40376906096E+03  0.49924486114E+02  0.82206341471E+03  0.65864270000E+03 0.  1.
    8880022    1    1    2    0    0  0.27650703903E+03 -0.40376906096E+03  0.20191683081E+04  0.20832469625E+04  0.15294330000E+03 0.  0.
<mgrwt>
<rscale>  0 0.72953535E+03</rscale>
<asrwt>0</asrwt>
<pdfrwt beam="1">  1        2 0.38264641E+00 0.82054604E+03</pdfrwt>
<pdfrwt beam="2">  1       -2 0.64324428E-01 0.82054604E+03</pdfrwt>
<totfact> 0.81970446E+00</totfact>
</mgrwt>
</event>
<event>
 4    5  0.2473208E-007  0.3011783E+04  0.7818608E-02  0.8245331E-01
         -2   -1    0    0    0  501 -0.00000000000E+00  0.00000000000E+00  0.23927358601E+04  0.23927358601E+04  0.25500000000E-02 0.  1.
          2   -1    0    0  501    0  0.00000000000E+00 -0.00000000000E+00 -0.38248878580E+04  0.38248878580E+04  0.25500000000E-02 0. -1.
    8880023    1    1    2    0    0 -0.21871881103E+03  0.29307312591E+04 -0.17312444486E+03  0.30167542013E+04  0.65864270000E+03 0.  0.
    8880022    1    1    2    0    0  0.21871881103E+03 -0.29307312591E+04 -0.12590275530E+04  0.32008695168E+04  0.15294330000E+03 0.  0.
<mgrwt>
<rscale>  0 0.29944016E+04</rscale>
<asrwt>0</asrwt>
<pdfrwt beam="1">  1        2 0.58844429E+00 0.30117825E+04</pdfrwt>
<pdfrwt beam="2">  1       -2 0.36811321E+00 0.30117825E+04</pdfrwt>
<totfact> 0.44558107E-03</totfact>
</mgrwt>
</event>
<event>
 4    5  0.2473208E-007  0.1466395E+04  0.7818608E-02  0.8933738E-01
         -2   -1    0    0    0  501 -0.00000000000E+00  0.00000000000E+00  0.94072518550E+03  0.94072518550E+03  0.25500000000E-02 0.  1.
          2   -1    0    0  501    0  0.00000000000E+00 -0.00000000000E+00 -0.23481442346E+04  0.23481442346E+04  0.25500000000E-02 0. -1.
    8880023    1    1    2    0    0  0.66265327943E+02 -0.13084768330E+04 -0.16295027045E+03  0.14754205208E+04  0.65864270000E+03 0.  0.
    8880022    1    1    2    0    0 -0.66265327943E+02  0.13084768330E+04 -0.12444687786E+04  0.18134488993E+04  0.15294330000E+03 0.  0.
<mgrwt>
<rscale>  0 0.14280831E+04</rscale>
<asrwt>0</asrwt>
<pdfrwt beam="1">  1        2 0.36125296E+00 0.14663945E+04</pdfrwt>
<pdfrwt beam="2">  1       -2 0.14472695E+00 0.14663945E+04</pdfrwt>
<totfact> 0.13293175E+00</totfact>
</mgrwt>
</event>
<event>
 4    5  0.2473208E-007  0.1209098E+04  0.7818608E-02  0.9148329E-01
          2   -1    0    0  501    0  0.00000000000E+00  0.00000000000E+00  0.12400962559E+04  0.12400962559E+04  0.25500000000E-02 0. -1.
         -2   -1    0    0    0  501 -0.00000000000E+00 -0.00000000000E+00 -0.10657396245E+04  0.10657396245E+04  0.25500000000E-02 0.  1.
    8880023    1    1    2    0    0  0.62924673981E+03 -0.79508223082E+03  0.36467957633E+03  0.12628969130E+04  0.65864270000E+03 0. -1.
    8880022    1    1    2    0    0 -0.62924673981E+03  0.79508223082E+03 -0.19032294495E+03  0.10429389674E+04  0.15294330000E+03 0.  0.
<mgrwt>
<rscale>  0 0.11603050E+04</rscale>
<asrwt>0</asrwt>
<pdfrwt beam="1">  1        2 0.19078404E+00 0.12090978E+04</pdfrwt>
<pdfrwt beam="2">  1       -2 0.16395994E+00 0.12090978E+04</pdfrwt>
<totfact> 0.41014178E+00</totfact>
</mgrwt>
</event>
<event>
 4    5  0.2473208E-007  0.1613687E+04  0.7818608E-02  0.8833268E-01
         -2   -1    0    0    0  501 -0.00000000000E+00  0.00000000000E+00  0.14312935675E+04  0.14312935675E+04  0.25500000000E-02 0.  1.
          2   -1    0    0  501    0  0.00000000000E+00 -0.00000000000E+00 -0.19257634289E+04  0.19257634289E+04  0.25500000000E-02 0. -1.
    8880023    1    1    2    0    0 -0.10027809613E+04  0.10791685484E+04 -0.86421364475E+03  0.18305326662E+04  0.65864270000E+03 0.  0.
    8880022    1    1    2    0    0  0.10027809613E+04 -0.10791685484E+04  0.36974378335E+03  0.15265243301E+04  0.15294330000E+03 0.  0.
<mgrwt>
<rscale>  0 0.15794586E+04</rscale>
<asrwt>0</asrwt>
<pdfrwt beam="1">  1        2 0.29627130E+00 0.16136867E+04</pdfrwt>
<pdfrwt beam="2">  1       -2 0.22019901E+00 0.16136867E+04</pdfrwt>
<totfact> 0.67207236E-01</totfact>
</mgrwt>
</event>
<event>
 4    5  0.3066535E-007  0.8646661E+03  0.7818608E-02  0.9585317E-01
          2   -1    0    0  501    0  0.00000000000E+00  0.00000000000E+00  0.11934904191E+04  0.11934904191E+04  0.25500000000E-02 0. -1.
         -2   -1    0    0    0  501 -0.00000000000E+00 -0.00000000000E+00 -0.24191718048E+04  0.24191718048E+04  0.25500000000E-02 0.  1.
    8880023    1    1    2    0    0 -0.24953941881E+03 -0.50156489771E+03 -0.22637153896E+04  0.24232323124E+04  0.65864270000E+03 0.  0.
    8880022    1    1    2    0    0  0.24953941881E+03  0.50156489771E+03  0.10380340040E+04  0.11894299116E+04  0.15294330000E+03 0.  0.
<mgrwt>
<rscale>  0 0.78275694E+03</rscale>
<asrwt>0</asrwt>
<pdfrwt beam="1">  1        2 0.18361391E+00 0.86466611E+03</pdfrwt>
<pdfrwt beam="2">  1       -2 0.37218028E+00 0.86466611E+03</pdfrwt>
<totfact> 0.22351492E-01</totfact>
</mgrwt>
</event>
<event>
 4    5  0.2473208E-007  0.8676411E+03  0.7818608E-02  0.9580113E-01
         -2   -1    0    0    0  501 -0.00000000000E+00  0.00000000000E+00  0.16955671014E+04  0.16955671014E+04  0.25500000000E-02 0.  1.
          2   -1    0    0  501    0  0.00000000000E+00 -0.00000000000E+00 -0.88852912009E+03  0.88852912009E+03  0.25500000000E-02 0. -1.
    8880023    1    1    2    0    0  0.52338470402E+03 -0.21227196239E+03  0.14655810544E+04  0.17031526554E+04  0.65864270000E+03 0.  0.
    8880022    1    1    2    0    0 -0.52338470402E+03  0.21227196239E+03 -0.65854307309E+03  0.88094356605E+03  0.15294330000E+03 0.  0.
<mgrwt>
<rscale>  0 0.78626521E+03</rscale>
<asrwt>0</asrwt>
<pdfrwt beam="1">  1        2 0.13669679E+00 0.86764114E+03</pdfrwt>
<pdfrwt beam="2">  1       -2 0.26085648E+00 0.86764114E+03</pdfrwt>
<totfact> 0.16724864E+00</totfact>
</mgrwt>
</event>
<event>
 4    5  0.2473208E-007  0.9813870E+03  0.7818608E-02  0.9406325E-01
         -2   -1    0    0    0  501 -0.00000000000E+00  0.00000000000E+00  0.10843910914E+04  0.10843910914E+04  0.25500000000E-02 0.  1.
          2   -1    0    0  501    0  0.00000000000E+00 -0.00000000000E+00 -0.18559511801E+04  0.18559511801E+04  0.25500000000E-02 0. -1.
    8880023    1    1    2    0    0 -0.66837825284E+03 -0.28736865412E+03  0.75776488604E+03  0.12398903423E+04  0.65864270000E+03 0.  1.
    8880022    1    1    2    0    0  0.66837825284E+03  0.28736865412E+03 -0.15293249747E+04  0.17004519292E+04  0.15294330000E+03 0.  0.
<mgrwt>
<rscale>  0 0.91557008E+03</rscale>
<asrwt>0</asrwt>
<pdfrwt beam="1">  1        2 0.28553095E+00 0.98138700E+03</pdfrwt>
<pdfrwt beam="2">  1       -2 0.16682940E+00 0.98138700E+03</pdfrwt>
<totfact> 0.18011233E+00</totfact>
</mgrwt>
</event>
<event>
 4    5  0.2473208E-007  0.9010240E+03  0.7818608E-02  0.9524390E-01
          2   -1    0    0  501    0  0.00000000000E+00  0.00000000000E+00  0.78227035530E+03  0.78227035531E+03  0.25500000000E-02 0. -1.
         -2   -1    0    0    0  501 -0.00000000000E+00 -0.00000000000E+00 -0.11810959306E+04  0.11810959306E+04  0.25500000000E-02 0.  1.
    8880023    1    1    2    0    0 -0.25697600019E+03  0.55856730390E+03 -0.80708545340E+03  0.12096409521E+04  0.65864270000E+03 0.  1.
    8880022    1    1    2    0    0  0.25697600019E+03 -0.55856730390E+03  0.40825987814E+03  0.75372533377E+03  0.15294330000E+03 0.  0.
<mgrwt>
<rscale>  0 0.82509306E+03</rscale>
<asrwt>0</asrwt>
<pdfrwt beam="1">  1        2 0.12034929E+00 0.90102403E+03</pdfrwt>
<pdfrwt beam="2">  1       -2 0.18170707E+00 0.90102403E+03</pdfrwt>
<totfact> 0.62739622E+00</totfact>
</mgrwt>
</event>
<event>
 4    5  0.2473208E-007  0.9433579E+03  0.7818608E-02  0.9459736E-01
         -2   -1    0    0    0  501 -0.00000000000E+00  0.00000000000E+00  0.50318849035E+03  0.50318849036E+03  0.25500000000E-02 0.  1.
          2   -1    0    0  501    0  0.00000000000E+00 -0.00000000000E+00 -0.15059546977E+04  0.15059546977E+04  0.25500000000E-02 0. -1.
    8880023    1    1    2    0    0 -0.47066243675E+03 -0.48434564445E+03 -0.22897102434E+03  0.97074804605E+03  0.65864270000E+03 0.  0.
    8880022    1    1    2    0    0  0.47066243675E+03  0.48434564445E+03 -0.77379518296E+03  0.10383951420E+04  0.15294330000E+03 0.  0.
<mgrwt>
<rscale>  0 0.87318557E+03</rscale>
<asrwt>0</asrwt>
<pdfrwt beam="1">  1        2 0.23168534E+00 0.94335785E+03</pdfrwt>
<pdfrwt beam="2">  1       -2 0.77413615E-01 0.94335785E+03</pdfrwt>
<totfact> 0.18794288E+01</totfact>
</mgrwt>
</event>
<event>
 4    5  0.2473208E-007  0.7999645E+03  0.7818608E-02  0.9710873E-01
         -2   -1    0    0    0  501 -0.00000000000E+00  0.00000000000E+00  0.64731905913E+03  0.64731905914E+03  0.25500000000E-02 0.  1.
          2   -1    0    0  501    0  0.00000000000E+00 -0.00000000000E+00 -0.97876054819E+03  0.97876054819E+03  0.25500000000E-02 0. -1.
    8880023    1    1    2    0    0  0.41481203022E+03  0.18456419235E+03  0.28156386858E+03  0.84806920700E+03  0.65864270000E+03 0.  1.
    8880022    1    1    2    0    0 -0.41481203022E+03 -0.18456419235E+03 -0.61300535763E+03  0.77801040033E+03  0.15294330000E+03 0.  0.
<mgrwt>
<rscale>  0 0.70373101E+03</rscale>
<asrwt>0</asrwt>
<pdfrwt beam="1">  1        2 0.15057855E+00 0.79996448E+03</pdfrwt>
<pdfrwt beam="2">  1       -2 0.99587547E-01 0.79996448E+03</pdfrwt>
<totfact> 0.21928631E+01</totfact>
</mgrwt>
</event>
<event>
 4    5  0.3095938E-007  0.1309096E+04  0.7818608E-02  0.9057744E-01
         -2   -1    0    0    0  501 -0.00000000000E+00  0.00000000000E+00  0.18647888539E+04  0.18647888539E+04  0.25500000000E-02 0.  1.
          2   -1    0    0  501    0  0.00000000000E+00 -0.00000000000E+00 -0.25569840668E+04  0.25569840668E+04  0.25500000000E-02 0. -1.
    8880023    1    1    2    0    0  0.10988154825E+04  0.26931018087E+03  0.14750779327E+04  0.19722039834E+04  0.65864270000E+03 0.  0.
    8880022    1    1    2    0    0 -0.10988154825E+04 -0.26931018087E+03 -0.21672731456E+04  0.24495689374E+04  0.15294330000E+03 0.  0.
<mgrwt>
<rscale>  0 0.12650565E+04</rscale>
<asrwt>0</asrwt>
<pdfrwt beam="1">  1        2 0.39338216E+00 0.13090965E+04</pdfrwt>
<pdfrwt beam="2">  1       -2 0.28689059E+00 0.13090965E+04</pdfrwt>
<totfact> 0.11883355E-01</totfact>
</mgrwt>
</event>
<event>
 4    5  0.2473208E-007  0.7844306E+03  0.7818608E-02  0.9745531E-01
          2   -1    0    0  501    0  0.00000000000E+00  0.00000000000E+00  0.15221049381E+04  0.15221049381E+04  0.25500000000E-02 0. -1.
         -2   -1    0    0    0  501 -0.00000000000E+00 -0.00000000000E+00 -0.45469739671E+03  0.45469739671E+03  0.25500000000E-02 0.  1.
    8880023    1    1    2    0    0  0.50756169619E+02  0.42301882315E+03 -0.34859240029E+02  0.78520474169E+03  0.65864270000E+03 0.  0.
    8880022    1    1    2    0    0 -0.50756169619E+02 -0.42301882315E+03  0.11022667814E+04  0.11915975931E+04  0.15294330000E+03 0.  0.
<mgrwt>
<rscale>  0 0.68369438E+03</rscale>
<asrwt>0</asrwt>
<pdfrwt beam="1">  1        2 0.23416999E+00 0.78443057E+03</pdfrwt>
<pdfrwt beam="2">  1       -2 0.69953445E-01 0.78443057E+03</pdfrwt>
<totfact> 0.23421218E+01</totfact>
</mgrwt>
</event>
<event>
 4    5  0.2473208E-007  0.1278653E+04  0.7818608E-02  0.9084217E-01
          2   -1    0    0  501    0  0.00000000000E+00  0.00000000000E+00  0.36327985643E+04  0.36327985643E+04  0.25500000000E-02 0. -1.
         -2   -1    0    0    0  501 -0.00000000000E+00 -0.00000000000E+00 -0.70079837952E+03  0.70079837953E+03  0.25500000000E-02 0.  1.
    8880023    1    1    2    0    0 -0.82366509321E+03 -0.72299320481E+03  0.87745835227E+02  0.12816602115E+04  0.65864270000E+03 0.  0.
    8880022    1    1    2    0    0  0.82366509321E+03  0.72299320481E+03  0.28442543496E+04  0.30519367323E+04  0.15294330000E+03 0. -1.
<mgrwt>
<rscale>  0 0.12332779E+04</rscale>
<asrwt>0</asrwt>
<pdfrwt beam="1">  1        2 0.55889209E+00 0.12786530E+04</pdfrwt>
<pdfrwt beam="2">  1       -2 0.10781514E+00 0.12786530E+04</pdfrwt>
<totfact> 0.44672512E-01</totfact>
</mgrwt>
</event>
<event>
 4    5  0.2473208E-007  0.7059953E+03  0.7818608E-02  0.9973184E-01
          2   -1    0    0  501    0  0.00000000000E+00  0.00000000000E+00  0.20441411426E+04  0.20441411426E+04  0.25500000000E-02 0. -1.
         -2   -1    0    0    0  501 -0.00000000000E+00 -0.00000000000E+00 -0.46479474243E+03  0.46479474243E+03  0.25500000000E-02 0.  1.
    8880023    1    1    2    0    0  0.10944933254E+03 -0.22943397014E+03 -0.17689069395E+03  0.72781840243E+03  0.65864270000E+03 0.  1.
    8880022    1    1    2    0    0 -0.10944933254E+03  0.22943397014E+03  0.17562370941E+04  0.17811174826E+04  0.15294330000E+03 0.  0.
<mgrwt>
<rscale>  0 0.56841864E+03</rscale>
<asrwt>0</asrwt>
<pdfrwt beam="1">  1        2 0.31448325E+00 0.70599526E+03</pdfrwt>
<pdfrwt beam="2">  1       -2 0.71506883E-01 0.70599526E+03</pdfrwt>
<totfact> 0.11686246E+01</totfact>
</mgrwt>
</event>
<event>
 4    5  0.2473208E-007  0.7909857E+03  0.7818608E-02  0.9730637E-01
         -2   -1    0    0    0  501 -0.00000000000E+00  0.00000000000E+00  0.85465705503E+03  0.85465705504E+03  0.25500000000E-02 0.  1.
          2   -1    0    0  501    0  0.00000000000E+00 -0.00000000000E+00 -0.63720585460E+03  0.63720585460E+03  0.25500000000E-02 0. -1.
    8880023    1    1    2    0    0  0.40145109538E+03  0.17517172830E+03  0.51207979956E+03  0.94227599129E+03  0.65864270000E+03 0.  1.
    8880022    1    1    2    0    0 -0.40145109538E+03 -0.17517172830E+03 -0.29462859913E+03  0.54958691835E+03  0.15294330000E+03 0.  0.
<mgrwt>
<rscale>  0 0.69221622E+03</rscale>
<asrwt>0</asrwt>
<pdfrwt beam="1">  1        2 0.98031669E-01 0.79098567E+03</pdfrwt>
<pdfrwt beam="2">  1       -2 0.13148570E+00 0.79098567E+03</pdfrwt>
<totfact> 0.19637659E+01</totfact>
</mgrwt>
</event>
<event>
 4    5  0.2473208E-007  0.6942349E+03  0.7818608E-02  0.1002201E+00
          2   -1    0    0  501    0  0.00000000000E+00  0.00000000000E+00  0.30271742247E+04  0.30271742247E+04  0.25500000000E-02 0. -1.
         -2   -1    0    0    0  501 -0.00000000000E+00 -0.00000000000E+00 -0.18347615973E+03  0.18347615975E+03  0.25500000000E-02 0.  1.
    8880023    1    1    2    0    0 -0.36574266504E+02 -0.21636597062E+03  0.50939333264E+03  0.86107124201E+03  0.65864270000E+03 0.  1.
    8880022    1    1    2    0    0  0.36574266504E+02  0.21636597062E+03  0.23343047323E+04  0.23495791425E+04  0.15294330000E+03 0.  0.
<mgrwt>
<rscale>  0 0.54695445E+03</rscale>
<asrwt>0</asrwt>
<pdfrwt beam="1">  1        2 0.46571905E+00 0.69423491E+03</pdfrwt>
<pdfrwt beam="2">  1       -2 0.28227105E-01 0.69423491E+03</pdfrwt>
<totfact> 0.20564961E+01</totfact>
</mgrwt>
</event>
<event>
 4    5  0.2473208E-007  0.1320114E+04  0.7818608E-02  0.9048382E-01
         -2   -1    0    0    0  501 -0.00000000000E+00  0.00000000000E+00  0.12406024645E+04  0.12406024645E+04  0.25500000000E-02 0.  1.
          2   -1    0    0  501    0  0.00000000000E+00 -0.00000000000E+00 -0.15150171587E+04  0.15150171587E+04  0.25500000000E-02 0. -1.
    8880023    1    1    2    0    0  0.23873363655E+03 -0.11188823786E+04  0.44786034609E+03  0.13940160050E+04  0.65864270000E+03 0.  0.
    8880022    1    1    2    0    0 -0.23873363655E+03  0.11188823786E+04 -0.72227504028E+03  0.13616036182E+04  0.15294330000E+03 0.  0.
<mgrwt>
<rscale>  0 0.12765364E+04</rscale>
<asrwt>0</asrwt>
<pdfrwt beam="1">  1        2 0.23307956E+00 0.13201143E+04</pdfrwt>
<pdfrwt beam="2">  1       -2 0.19086192E+00 0.13201143E+04</pdfrwt>
<totfact> 0.18246765E+00</totfact>
</mgrwt>
</event>
<event>
 4    5  0.2473208E-007  0.1462466E+04  0.7818608E-02  0.8936605E-01
         -2   -1    0    0    0  501 -0.00000000000E+00  0.00000000000E+00  0.12509481086E+04  0.12509481086E+04  0.25500000000E-02 0.  1.
          2   -1    0    0  501    0  0.00000000000E+00 -0.00000000000E+00 -0.24907289794E+04  0.24907289794E+04  0.25500000000E-02 0. -1.
    8880023    1    1    2    0    0 -0.54045658226E+03  0.11886558446E+04 -0.17943261765E+04  0.23148245437E+04  0.65864270000E+03 0.  0.
    8880022    1    1    2    0    0  0.54045658226E+03 -0.11886558446E+04  0.55454530572E+03  0.14268525444E+04  0.15294330000E+03 0.  0.
<mgrwt>
<rscale>  0 0.14240310E+04</rscale>
<asrwt>0</asrwt>
<pdfrwt beam="1">  1        2 0.38318907E+00 0.14624658E+04</pdfrwt>
<pdfrwt beam="2">  1       -2 0.19245356E+00 0.14624658E+04</pdfrwt>
<totfact> 0.49663686E-01</totfact>
</mgrwt>
</event>
<event>
 4    5  0.2473208E-007  0.8923911E+03  0.7818608E-02  0.9538358E-01
          2   -1    0    0  501    0  0.00000000000E+00  0.00000000000E+00  0.24718667849E+04  0.24718667849E+04  0.25500000000E-02 0. -1.
         -2   -1    0    0    0  501 -0.00000000000E+00 -0.00000000000E+00 -0.43112559106E+03  0.43112559106E+03  0.25500000000E-02 0.  1.
    8880023    1    1    2    0    0 -0.32160867032E+03 -0.50903776921E+03  0.14000467234E+03  0.90330675955E+03  0.65864270000E+03 0.  0.
    8880022    1    1    2    0    0  0.32160867032E+03  0.50903776921E+03  0.19007365215E+04  0.19996856165E+04  0.15294330000E+03 0.  0.
<mgrwt>
<rscale>  0 0.81513931E+03</rscale>
<asrwt>0</asrwt>
<pdfrwt beam="1">  1        2 0.38028719E+00 0.89239105E+03</pdfrwt>
<pdfrwt beam="2">  1       -2 0.66327016E-01 0.89239105E+03</pdfrwt>
<totfact> 0.77456212E+00</totfact>
</mgrwt>
</event>
<event>
 4    5  0.2473208E-007  0.1492380E+04  0.7818608E-02  0.8915035E-01
         -2   -1    0    0    0  501 -0.00000000000E+00  0.00000000000E+00  0.18868333406E+04  0.18868333406E+04  0.25500000000E-02 0.  1.
          2   -1    0    0  501    0  0.00000000000E+00 -0.00000000000E+00 -0.11211513568E+04  0.11211513569E+04  0.25500000000E-02 0. -1.
    8880023    1    1    2    0    0 -0.11172592497E+04 -0.73832219522E+03  0.72580501803E+03  0.16595152983E+04  0.65864270000E+03 0.  0.
    8880022    1    1    2    0    0  0.11172592497E+04  0.73832219522E+03  0.39876965705E+02  0.13484693991E+04  0.15294330000E+03 0.  0.
<mgrwt>
<rscale>  0 0.14548638E+04</rscale>
<asrwt>0</asrwt>
<pdfrwt beam="1">  1        2 0.17248483E+00 0.14923800E+04</pdfrwt>
<pdfrwt beam="2">  1       -2 0.29028205E+00 0.14923800E+04</pdfrwt>
<totfact> 0.72914483E-01</totfact>
</mgrwt>
</event>
<event>
 4    5  0.2473208E-007  0.9986550E+03  0.7818608E-02  0.9383320E-01
          2   -1    0    0  501    0  0.00000000000E+00  0.00000000000E+00  0.26017042431E+04  0.26017042431E+04  0.25500000000E-02 0. -1.
         -2   -1    0    0    0  501 -0.00000000000E+00 -0.00000000000E+00 -0.31895410489E+03  0.31895410490E+03  0.25500000000E-02 0.  1.
    8880023    1    1    2    0    0  0.68948901569E+03 -0.29682726734E+03  0.92257892424E+03  0.13595821443E+04  0.65864270000E+03 0.  1.
    8880022    1    1    2    0    0 -0.68948901569E+03  0.29682726734E+03  0.13601712139E+04  0.15610762037E+04  0.15294330000E+03 0.  0.
<mgrwt>
<rscale>  0 0.93461228E+03</rscale>
<asrwt>0</asrwt>
<pdfrwt beam="1">  1        2 0.40026220E+00 0.99865496E+03</pdfrwt>
<pdfrwt beam="2">  1       -2 0.49069861E-01 0.99865496E+03</pdfrwt>
<totfact> 0.12109704E+01</totfact>
</mgrwt>
</event>
<event>
 4    5  0.2834318E-007  0.1387996E+04  0.7818608E-02  0.8993067E-01
         -2   -1    0    0    0  501 -0.00000000000E+00  0.00000000000E+00  0.14465708510E+04  0.14465708510E+04  0.25500000000E-02 0.  1.
          2   -1    0    0  501    0  0.00000000000E+00 -0.00000000000E+00 -0.20490765040E+04  0.20490765040E+04  0.25500000000E-02 0. -1.
    8880023    1    1    2    0    0  0.93078547297E+03  0.79142989916E+03  0.82168685308E+03  0.16129793467E+04  0.65864270000E+03 0.  0.
    8880022    1    1    2    0    0 -0.93078547297E+03 -0.79142989916E+03 -0.14241925061E+04  0.18826680083E+04  0.15294330000E+03 0.  0.
<mgrwt>
<rscale>  0 0.13470468E+04</rscale>
<asrwt>0</asrwt>
<pdfrwt beam="1">  1        2 0.31524254E+00 0.13879961E+04</pdfrwt>
<pdfrwt beam="2">  1       -2 0.22254936E+00 0.13879961E+04</pdfrwt>
<totfact> 0.56741865E-01</totfact>
</mgrwt>
</event>
<event>
 4    5  0.2473208E-007  0.1723161E+04  0.7818608E-02  0.8766275E-01
         -2   -1    0    0    0  501 -0.00000000000E+00  0.00000000000E+00  0.22282721202E+04  0.22282721202E+04  0.25500000000E-02 0.  1.
          2   -1    0    0  501    0  0.00000000000E+00 -0.00000000000E+00 -0.52762180683E+04  0.52762180683E+04  0.25500000000E-02 0. -1.
    8880023    1    1    2    0    0  0.10416369523E+04  0.12043532593E+04  0.17445426643E+04  0.24520835278E+04  0.65864270000E+03 0.  0.
    8880022    1    1    2    0    0 -0.10416369523E+04 -0.12043532593E+04 -0.47924886124E+04  0.50524066608E+04  0.15294330000E+03 0.  0.
<mgrwt>
<rscale>  0 0.16914158E+04</rscale>
<asrwt>0</asrwt>
<pdfrwt beam="1">  1        2 0.81172585E+00 0.17231612E+04</pdfrwt>
<pdfrwt beam="2">  1       -2 0.34281110E+00 0.17231612E+04</pdfrwt>
<totfact> 0.23184277E-04</totfact>
</mgrwt>
</event>
<event>
 4    5  0.2473208E-007  0.8447383E+03  0.7818608E-02  0.9621310E-01
         -2   -1    0    0    0  501 -0.00000000000E+00  0.00000000000E+00  0.10135273733E+04  0.10135273733E+04  0.25500000000E-02 0.  1.
          2   -1    0    0  501    0  0.00000000000E+00 -0.00000000000E+00 -0.16666045005E+04  0.16666045005E+04  0.25500000000E-02 0. -1.
    8880023    1    1    2    0    0  0.42751612803E+01  0.52891805767E+03  0.77698657836E+03  0.11477329559E+04  0.65864270000E+03 0.  0.
    8880022    1    1    2    0    0 -0.42751612803E+01 -0.52891805767E+03 -0.14300637056E+04  0.15323989180E+04  0.15294330000E+03 0.  0.
<mgrwt>
<rscale>  0 0.75901679E+03</rscale>
<asrwt>0</asrwt>
<pdfrwt beam="1">  1        2 0.25640069E+00 0.84473830E+03</pdfrwt>
<pdfrwt beam="2">  1       -2 0.15592729E+00 0.84473830E+03</pdfrwt>
<totfact> 0.28071015E+00</totfact>
</mgrwt>
</event>
<event>
 4    5  0.2473208E-007  0.7147696E+03  0.7818608E-02  0.9940698E-01
          2   -1    0    0  501    0  0.00000000000E+00  0.00000000000E+00  0.12578809466E+04  0.12578809467E+04  0.25500000000E-02 0. -1.
         -2   -1    0    0    0  501 -0.00000000000E+00 -0.00000000000E+00 -0.58595145209E+03  0.58595145210E+03  0.25500000000E-02 0.  1.
    8880023    1    1    2    0    0 -0.50251405564E+02  0.27305705759E+03 -0.33413529186E+03  0.78901328252E+03  0.65864270000E+03 0.  1.
    8880022    1    1    2    0    0  0.50251405564E+02 -0.27305705759E+03  0.10060647864E+04  0.10548191162E+04  0.15294330000E+03 0.  0.
<mgrwt>
<rscale>  0 0.58328780E+03</rscale>
<asrwt>0</asrwt>
<pdfrwt beam="1">  1        2 0.19352014E+00 0.71476959E+03</pdfrwt>
<pdfrwt beam="2">  1       -2 0.90146378E-01 0.71476959E+03</pdfrwt>
<totfact> 0.18871038E+01</totfact>
</mgrwt>
</event>
<event>
 4    5  0.2473208E-007  0.8333058E+03  0.7818608E-02  0.9642934E-01
         -2   -1    0    0    0  501 -0.00000000000E+00  0.00000000000E+00  0.79320145980E+03  0.79320145981E+03  0.25500000000E-02 0.  1.
          2   -1    0    0  501    0  0.00000000000E+00 -0.00000000000E+00 -0.12860661127E+04  0.12860661127E+04  0.25500000000E-02 0. -1.
    8880023    1    1    2    0    0 -0.80822049615E+02  0.50403990218E+03  0.48605330882E+03  0.96470018761E+03  0.65864270000E+03 0.  1.
    8880022    1    1    2    0    0  0.80822049615E+02 -0.50403990218E+03 -0.97891796172E+03  0.11145673849E+04  0.15294330000E+03 0.  0.
<mgrwt>
<rscale>  0 0.74518535E+03</rscale>
<asrwt>0</asrwt>
<pdfrwt beam="1">  1        2 0.19785633E+00 0.83330585E+03</pdfrwt>
<pdfrwt beam="2">  1       -2 0.12203099E+00 0.83330585E+03</pdfrwt>
<totfact> 0.86698390E+00</totfact>
</mgrwt>
</event>
<event>
 4    5  0.2473208E-007  0.1146390E+04  0.7818608E-02  0.9211083E-01
          2   -1    0    0  501    0  0.00000000000E+00  0.00000000000E+00  0.32283260088E+04  0.32283260088E+04  0.25500000000E-02 0. -1.
         -2   -1    0    0    0  501 -0.00000000000E+00 -0.00000000000E+00 -0.38595600440E+03  0.38595600441E+03  0.25500000000E-02 0.  1.
    8880023    1    1    2    0    0 -0.83619772862E+03  0.42564493321E+03  0.21556300421E+04  0.24415059564E+04  0.65864270000E+03 0. -1.
    8880022    1    1    2    0    0  0.83619772862E+03 -0.42564493321E+03  0.68673996224E+03  0.11727760567E+04  0.15294330000E+03 0.  0.
<mgrwt>
<rscale>  0 0.10939763E+04</rscale>
<asrwt>0</asrwt>
<pdfrwt beam="1">  1        2 0.49666553E+00 0.11463902E+04</pdfrwt>
<pdfrwt beam="2">  1       -2 0.59377848E-01 0.11463902E+04</pdfrwt>
<totfact> 0.33153310E+00</totfact>
</mgrwt>
</event>
<event>
 4    5  0.2473208E-007  0.7507090E+03  0.7818608E-02  0.9829783E-01
          2   -1    0    0  501    0  0.00000000000E+00  0.00000000000E+00  0.28831164096E+04  0.28831164096E+04  0.25500000000E-02 0. -1.
         -2   -1    0    0    0  501 -0.00000000000E+00 -0.00000000000E+00 -0.73217328477E+03  0.73217328477E+03  0.25500000000E-02 0.  1.
    8880023    1    1    2    0    0  0.33447233738E+03  0.13372393766E+03 -0.52167599542E+03  0.91417169418E+03  0.65864270000E+03 0.  1.
    8880022    1    1    2    0    0 -0.33447233738E+03 -0.13372393766E+03  0.26726191202E+04  0.27011180002E+04  0.15294330000E+03 0.  0.
<mgrwt>
<rscale>  0 0.63788407E+03</rscale>
<asrwt>0</asrwt>
<pdfrwt beam="1">  1        2 0.44355636E+00 0.75070903E+03</pdfrwt>
<pdfrwt beam="2">  1       -2 0.11264205E+00 0.75070903E+03</pdfrwt>
<totfact> 0.13573354E+00</totfact>
</mgrwt>
</event>
<event>
 4    5  0.2473208E-007  0.8385095E+03  0.7818608E-02  0.9632997E-01
         -2   -1    0    0    0  501 -0.00000000000E+00  0.00000000000E+00  0.10214075535E+04  0.10214075535E+04  0.25500000000E-02 0.  1.
          2   -1    0    0  501    0  0.00000000000E+00 -0.00000000000E+00 -0.14651730189E+04  0.14651730189E+04  0.25500000000E-02 0. -1.
    8880023    1    1    2    0    0 -0.25979203055E+03 -0.44921711595E+03  0.78210481058E+03  0.11466412069E+04  0.65864270000E+03 0.  0.
    8880022    1    1    2    0    0  0.25979203055E+03  0.44921711595E+03 -0.12258702760E+04  0.13399393654E+04  0.15294330000E+03 0.  0.
<mgrwt>
<rscale>  0 0.75150180E+03</rscale>
<asrwt>0</asrwt>
<pdfrwt beam="1">  1        2 0.22541123E+00 0.83850946E+03</pdfrwt>
<pdfrwt beam="2">  1       -2 0.15713962E+00 0.83850946E+03</pdfrwt>
<totfact> 0.35600363E+00</totfact>
</mgrwt>
</event>
<event>
 4    5  0.2473208E-007  0.6850013E+03  0.7818608E-02  0.1006625E+00
          2   -1    0    0  501    0  0.00000000000E+00  0.00000000000E+00  0.76285687983E+03  0.76285687984E+03  0.25500000000E-02 0. -1.
         -2   -1    0    0    0  501 -0.00000000000E+00 -0.00000000000E+00 -0.29918607725E+03  0.29918607727E+03  0.25500000000E-02 0.  1.
    8880023    1    1    2    0    0 -0.17916234215E+03 -0.57596942833E+02  0.22300391178E+03  0.72038705124E+03  0.65864270000E+03 0. -1.
    8880022    1    1    2    0    0  0.17916234215E+03  0.57596942833E+02  0.24066689079E+03  0.34165590586E+03  0.15294330000E+03 0.  0.
<mgrwt>
<rscale>  0 0.52838232E+03</rscale>
<asrwt>0</asrwt>
<pdfrwt beam="1">  1        2 0.11736260E+00 0.68500128E+03</pdfrwt>
<pdfrwt beam="2">  1       -2 0.46028627E-01 0.68500128E+03</pdfrwt>
<totfact> 0.16646491E+02</totfact>
</mgrwt>
</event>
<event>
 4    5  0.2473208E-007  0.1592067E+04  0.7818608E-02  0.8847219E-01
          2   -1    0    0  501    0  0.00000000000E+00  0.00000000000E+00  0.29338725708E+04  0.29338725708E+04  0.25500000000E-02 0. -1.
         -2   -1    0    0    0  501 -0.00000000000E+00 -0.00000000000E+00 -0.95539851913E+03  0.95539851914E+03  0.25500000000E-02 0.  1.
    8880023    1    1    2    0    0 -0.11056240172E+04  0.93726376261E+03  0.22298860771E+03  0.16076075247E+04  0.65864270000E+03 0.  0.
    8880022    1    1    2    0    0  0.11056240172E+04 -0.93726376261E+03  0.17554854440E+04  0.22816635652E+04  0.15294330000E+03 0.  0.
<mgrwt>
<rscale>  0 0.15572990E+04</rscale>
<asrwt>0</asrwt>
<pdfrwt beam="1">  1        2 0.45136501E+00 0.15920672E+04</pdfrwt>
<pdfrwt beam="2">  1       -2 0.14698439E+00 0.15920672E+04</pdfrwt>
<totfact> 0.56797183E-01</totfact>
</mgrwt>
</event>
<event>
 4    5  0.2473208E-007  0.1418043E+04  0.7818608E-02  0.8969788E-01
          2   -1    0    0  501    0  0.00000000000E+00  0.00000000000E+00  0.23600740174E+04  0.23600740174E+04  0.25500000000E-02 0. -1.
         -2   -1    0    0    0  501 -0.00000000000E+00 -0.00000000000E+00 -0.12380882120E+04  0.12380882120E+04  0.25500000000E-02 0.  1.
    8880023    1    1    2    0    0  0.10717676399E+04  0.65448515621E+03 -0.53311642280E+03  0.15149455502E+04  0.65864270000E+03 0.  0.
    8880022    1    1    2    0    0 -0.10717676399E+04 -0.65448515621E+03  0.16551022282E+04  0.20832166792E+04  0.15294330000E+03 0.  0.
<mgrwt>
<rscale>  0 0.13781505E+04</rscale>
<asrwt>0</asrwt>
<pdfrwt beam="1">  1        2 0.36308831E+00 0.14180433E+04</pdfrwt>
<pdfrwt beam="2">  1       -2 0.19047511E+00 0.14180433E+04</pdfrwt>
<totfact> 0.61156707E-01</totfact>
</mgrwt>
</event>
<event>
 4    5  0.2473208E-007  0.1033038E+04  0.7818608E-02  0.9339555E-01
         -2   -1    0    0    0  501 -0.00000000000E+00  0.00000000000E+00  0.11714026313E+04  0.11714026313E+04  0.25500000000E-02 0.  1.
          2   -1    0    0  501    0  0.00000000000E+00 -0.00000000000E+00 -0.30648169427E+04  0.30648169427E+04  0.25500000000E-02 0. -1.
    8880023    1    1    2    0    0  0.38662155667E+03 -0.69561590185E+03  0.87364325232E+03  0.13529303196E+04  0.65864270000E+03 0.  0.
    8880022    1    1    2    0    0 -0.38662155667E+03  0.69561590185E+03 -0.27670575637E+04  0.28832892544E+04  0.15294330000E+03 0.  0.
<mgrwt>
<rscale>  0 0.97221483E+03</rscale>
<asrwt>0</asrwt>
<pdfrwt beam="1">  1        2 0.47151029E+00 0.10330382E+04</pdfrwt>
<pdfrwt beam="2">  1       -2 0.18021579E+00 0.10330382E+04</pdfrwt>
<totfact> 0.28982815E-01</totfact>
</mgrwt>
</event>
<event>
 4    5  0.2473208E-007  0.8192965E+03  0.7818608E-02  0.9670528E-01
         -2   -1    0    0    0  501 -0.00000000000E+00  0.00000000000E+00  0.36638047966E+03  0.36638047967E+03  0.25500000000E-02 0.  1.
          2   -1    0    0  501    0  0.00000000000E+00 -0.00000000000E+00 -0.20209615314E+04  0.20209615314E+04  0.25500000000E-02 0. -1.
    8880023    1    1    2    0    0 -0.56785165320E+01  0.48724158257E+03 -0.19667703331E+03  0.84257264792E+03  0.65864270000E+03 0.  1.
    8880022    1    1    2    0    0  0.56785165320E+01 -0.48724158257E+03 -0.14579040185E+04  0.15447693632E+04  0.15294330000E+03 0.  0.
<mgrwt>
<rscale>  0 0.72798959E+03</rscale>
<asrwt>0</asrwt>
<pdfrwt beam="1">  1        2 0.31091715E+00 0.81929653E+03</pdfrwt>
<pdfrwt beam="2">  1       -2 0.56366229E-01 0.81929653E+03</pdfrwt>
<totfact> 0.19692594E+01</totfact>
</mgrwt>
</event>
<event>
 4    5  0.2473208E-007  0.9942803E+03  0.7818608E-02  0.9389079E-01
          2   -1    0    0  501    0  0.00000000000E+00  0.00000000000E+00  0.16360144826E+04  0.16360144826E+04  0.25500000000E-02 0. -1.
         -2   -1    0    0    0  501 -0.00000000000E+00 -0.00000000000E+00 -0.57240484611E+03  0.57240484611E+03  0.25500000000E-02 0.  1.
    8880023    1    1    2    0    0 -0.43623929798E+03 -0.60372044188E+03  0.12752942975E+03  0.10024255876E+04  0.65864270000E+03 0.  1.
    8880022    1    1    2    0    0  0.43623929798E+03  0.60372044188E+03  0.93608020677E+03  0.12059937411E+04  0.15294330000E+03 0. -1.
<mgrwt>
<rscale>  0 0.92979887E+03</rscale>
<asrwt>0</asrwt>
<pdfrwt beam="1">  1        2 0.25169454E+00 0.99428029E+03</pdfrwt>
<pdfrwt beam="2">  1       -2 0.88062283E-01 0.99428029E+03</pdfrwt>
<totfact> 0.11807170E+01</totfact>
</mgrwt>
</event>
<event>
 4    5  0.2473208E-007  0.7977853E+03  0.7818608E-02  0.9715605E-01
         -2   -1    0    0    0  501 -0.00000000000E+00  0.00000000000E+00  0.67591170135E+03  0.67591170135E+03  0.25500000000E-02 0.  1.
          2   -1    0    0  501    0  0.00000000000E+00 -0.00000000000E+00 -0.12751999102E+04  0.12751999102E+04  0.25500000000E-02 0. -1.
    8880023    1    1    2    0    0  0.28103112920E+03 -0.35167119237E+03  0.36398548113E+03  0.87689609410E+03  0.65864270000E+03 0.  0.
    8880022    1    1    2    0    0 -0.28103112920E+03  0.35167119237E+03 -0.96327369002E+03  0.10742155175E+04  0.15294330000E+03 0. -1.
<mgrwt>
<rscale>  0 0.70095209E+03</rscale>
<asrwt>0</asrwt>
<pdfrwt beam="1">  1        2 0.19618460E+00 0.79778527E+03</pdfrwt>
<pdfrwt beam="2">  1       -2 0.10398642E+00 0.79778527E+03</pdfrwt>
<totfact> 0.13052150E+01</totfact>
</mgrwt>
</event>
<event>
 4    5  0.2473208E-007  0.7102598E+03  0.7818608E-02  0.9957038E-01
         -2   -1    0    0    0  501 -0.00000000000E+00  0.00000000000E+00  0.22705428201E+03  0.22705428202E+03  0.25500000000E-02 0.  1.
          2   -1    0    0  501    0  0.00000000000E+00 -0.00000000000E+00 -0.28824291417E+04  0.28824291417E+04  0.25500000000E-02 0. -1.
    8880023    1    1    2    0    0 -0.25846171940E+03 -0.62099027833E+02 -0.36479278451E+03  0.79846273022E+03  0.65864270000E+03 0.  1.
    8880022    1    1    2    0    0  0.25846171940E+03  0.62099027833E+02 -0.22905820752E+04  0.23110206935E+04  0.15294330000E+03 0.  0.
<mgrwt>
<rscale>  0 0.57574874E+03</rscale>
<asrwt>0</asrwt>
<pdfrwt beam="1">  1        2 0.44345061E+00 0.71025978E+03</pdfrwt>
<pdfrwt beam="2">  1       -2 0.34931430E-01 0.71025978E+03</pdfrwt>
<totfact> 0.16851213E+01</totfact>
</mgrwt>
</event>
<event>
 4    5  0.2473208E-007  0.9405048E+03  0.7818608E-02  0.9463909E-01
          2   -1    0    0  501    0  0.00000000000E+00  0.00000000000E+00  0.27515616261E+04  0.27515616261E+04  0.25500000000E-02 0. -1.
         -2   -1    0    0    0  501 -0.00000000000E+00 -0.00000000000E+00 -0.57736253433E+03  0.57736253434E+03  0.25500000000E-02 0.  1.
    8880023    1    1    2    0    0  0.56279918898E+03 -0.36605486433E+03 -0.10652982694E+03  0.94651883294E+03  0.65864270000E+03 0.  1.
    8880022    1    1    2    0    0 -0.56279918898E+03  0.36605486433E+03  0.22807289187E+04  0.23824053275E+04  0.15294330000E+03 0.  0.
<mgrwt>
<rscale>  0 0.86997752E+03</rscale>
<asrwt>0</asrwt>
<pdfrwt beam="1">  1        2 0.42331719E+00 0.94050481E+03</pdfrwt>
<pdfrwt beam="2">  1       -2 0.88825003E-01 0.94050481E+03</pdfrwt>
<totfact> 0.27584965E+00</totfact>
</mgrwt>
</event>
<event>
 4    5  0.2473208E-007  0.8513993E+03  0.7818608E-02  0.9609049E-01
          2   -1    0    0  501    0  0.00000000000E+00  0.00000000000E+00  0.15960975373E+04  0.15960975373E+04  0.25500000000E-02 0. -1.
         -2   -1    0    0    0  501 -0.00000000000E+00 -0.00000000000E+00 -0.53068103098E+03  0.53068103099E+03  0.25500000000E-02 0.  1.
    8880023    1    1    2    0    0  0.25325167785E+03 -0.47637598110E+03 -0.76268918558E+02  0.85480854108E+03  0.65864270000E+03 0.  1.
    8880022    1    1    2    0    0 -0.25325167785E+03  0.47637598110E+03  0.11416854249E+04  0.12719700272E+04  0.15294330000E+03 0.  0.
<mgrwt>
<rscale>  0 0.76700112E+03</rscale>
<asrwt>0</asrwt>
<pdfrwt beam="1">  1        2 0.24555346E+00 0.85139926E+03</pdfrwt>
<pdfrwt beam="2">  1       -2 0.81643237E-01 0.85139926E+03</pdfrwt>
<totfact> 0.14996981E+01</totfact>
</mgrwt>
</event>
<event>
 4    5  0.2473208E-007  0.6600425E+03  0.7818608E-02  0.1024113E+00
          2   -1    0    0  501    0  0.00000000000E+00  0.00000000000E+00  0.11004865116E+04  0.11004865116E+04  0.25500000000E-02 0. -1.
         -2   -1    0    0    0  501 -0.00000000000E+00 -0.00000000000E+00 -0.71711514650E+03  0.71711514651E+03  0.25500000000E-02 0.  1.
    8880023    1    1    2    0    0 -0.32581842296E+01  0.42839983979E+02 -0.55715193423E+03  0.86375596326E+03  0.65864270000E+03 0.  1.
    8880022    1    1    2    0    0  0.32581842296E+01 -0.42839983979E+02  0.94052329930E+03  0.95384569482E+03  0.15294330000E+03 0.  0.
<mgrwt>
<rscale>  0 0.46231159E+03</rscale>
<asrwt>0</asrwt>
<pdfrwt beam="1">  1        2 0.16930562E+00 0.66004249E+03</pdfrwt>
<pdfrwt beam="2">  1       -2 0.11032541E+00 0.66004249E+03</pdfrwt>
<totfact> 0.14619068E+01</totfact>
</mgrwt>
</event>
<event>
 4    5  0.2473208E-007  0.1235508E+04  0.7818608E-02  0.9123356E-01
         -2   -1    0    0    0  501 -0.00000000000E+00  0.00000000000E+00  0.75650054444E+03  0.75650054444E+03  0.25500000000E-02 0.  1.
          2   -1    0    0  501    0  0.00000000000E+00 -0.00000000000E+00 -0.25575106847E+04  0.25575106847E+04  0.25500000000E-02 0. -1.
    8880023    1    1    2    0    0  0.10051738368E+04  0.28687249821E+03 -0.11064039452E+02  0.12355577249E+04  0.65864270000E+03 0.  0.
    8880022    1    1    2    0    0 -0.10051738368E+04 -0.28687249821E+03 -0.17899461008E+04  0.20784535042E+04  0.15294330000E+03 0.  0.
<mgrwt>
<rscale>  0 0.11880788E+04</rscale>
<asrwt>0</asrwt>
<pdfrwt beam="1">  1        2 0.39346318E+00 0.12355082E+04</pdfrwt>
<pdfrwt beam="2">  1       -2 0.11638470E+00 0.12355082E+04</pdfrwt>
<totfact> 0.18043037E+00</totfact>
</mgrwt>
</event>
<event>
 4    5  0.2473208E-007  0.1510112E+04  0.7818608E-02  0.8902529E-01
         -2   -1    0    0    0  501 -0.00000000000E+00  0.00000000000E+00  0.15107823027E+04  0.15107823027E+04  0.25500000000E-02 0.  1.
          2   -1    0    0  501    0  0.00000000000E+00 -0.00000000000E+00 -0.23468393544E+04  0.23468393544E+04  0.25500000000E-02 0. -1.
    8880023    1    1    2    0    0  0.10625750812E+04  0.84708994614E+03  0.81322382841E+03  0.17151589960E+04  0.65864270000E+03 0.  0.
    8880022    1    1    2    0    0 -0.10625750812E+04 -0.84708994614E+03 -0.16492808801E+04  0.21424626612E+04  0.15294330000E+03 0.  0.
<mgrwt>
<rscale>  0 0.14731181E+04</rscale>
<asrwt>0</asrwt>
<pdfrwt beam="1">  1        2 0.36105221E+00 0.15101117E+04</pdfrwt>
<pdfrwt beam="2">  1       -2 0.23242805E+00 0.15101117E+04</pdfrwt>
<totfact> 0.32972042E-01</totfact>
</mgrwt>
</event>
<event>
 4    5  0.2473208E-007  0.1973630E+04  0.7818608E-02  0.8632122E-01
          2   -1    0    0  501    0  0.00000000000E+00  0.00000000000E+00  0.35980692318E+04  0.35980692318E+04  0.25500000000E-02 0. -1.
         -2   -1    0    0    0  501 -0.00000000000E+00 -0.00000000000E+00 -0.12033733314E+04  0.12033733314E+04  0.25500000000E-02 0.  1.
    8880023    1    1    2    0    0 -0.80356598919E+03 -0.16780009831E+04  0.30111444536E+03  0.19964683102E+04  0.65864270000E+03 0.  0.
    8880022    1    1    2    0    0  0.80356598919E+03  0.16780009831E+04  0.20935814550E+04  0.28049742530E+04  0.15294330000E+03 0.  0.
<mgrwt>
<rscale>  0 0.19463526E+04</rscale>
<asrwt>0</asrwt>
<pdfrwt beam="1">  1        2 0.55354911E+00 0.19736301E+04</pdfrwt>
<pdfrwt beam="2">  1       -2 0.18513436E+00 0.19736301E+04</pdfrwt>
<totfact> 0.10411325E-01</totfact>
</mgrwt>
</event>
<event>
 4    5  0.2473208E-007  0.1548105E+04  0.7818608E-02  0.8876394E-01
         -2   -1    0    0    0  501 -0.00000000000E+00  0.00000000000E+00  0.13774819884E+04  0.13774819884E+04  0.25500000000E-02 0.  1.
          2   -1    0    0  501    0  0.00000000000E+00 -0.00000000000E+00 -0.20932964624E+04  0.20932964624E+04  0.25500000000E-02 0. -1.
    8880023    1    1    2    0    0 -0.49642548303E+03 -0.13101069366E+04 -0.12230609269E+04  0.19729436593E+04  0.65864270000E+03 0.  0.
    8880022    1    1    2    0    0  0.49642548303E+03  0.13101069366E+04  0.50724645284E+03  0.14978347915E+04  0.15294330000E+03 0.  0.
<mgrwt>
<rscale>  0 0.15121798E+04</rscale>
<asrwt>0</asrwt>
<pdfrwt beam="1">  1        2 0.32204561E+00 0.15481049E+04</pdfrwt>
<pdfrwt beam="2">  1       -2 0.21192031E+00 0.15481049E+04</pdfrwt>
<totfact> 0.61602396E-01</totfact>
</mgrwt>
</event>
<event>
 4    5  0.2473208E-007  0.2410101E+04  0.7818608E-02  0.8443962E-01
          2   -1    0    0  501    0  0.00000000000E+00  0.00000000000E+00  0.37798856965E+04  0.37798856965E+04  0.25500000000E-02 0. -1.
         -2   -1    0    0    0  501 -0.00000000000E+00 -0.00000000000E+00 -0.17097094976E+04  0.17097094976E+04  0.25500000000E-02 0.  1.
    8880023    1    1    2    0    0  0.63492735097E+03  0.22297181451E+04  0.49792342137E+02  0.24106151147E+04  0.65864270000E+03 0.  0.
    8880022    1    1    2    0    0 -0.63492735097E+03 -0.22297181451E+04  0.20203838567E+04  0.30789800794E+04  0.15294330000E+03 0.  0.
<mgrwt>
<rscale>  0 0.23881258E+04</rscale>
<asrwt>0</asrwt>
<pdfrwt beam="1">  1        2 0.58152088E+00 0.24101008E+04</pdfrwt>
<pdfrwt beam="2">  1       -2 0.26303223E+00 0.24101008E+04</pdfrwt>
<totfact> 0.23140098E-02</totfact>
</mgrwt>
</event>
<event>
 4    5  0.2473208E-007  0.1130550E+04  0.7818608E-02  0.9227781E-01
          2   -1    0    0  501    0  0.00000000000E+00  0.00000000000E+00  0.19295564854E+04  0.19295564854E+04  0.25500000000E-02 0. -1.
         -2   -1    0    0    0  501 -0.00000000000E+00 -0.00000000000E+00 -0.11198960825E+04  0.11198960825E+04  0.25500000000E-02 0.  1.
    8880023    1    1    2    0    0 -0.79479687040E+03  0.46112027689E+03 -0.66025516723E+03  0.13092291881E+04  0.65864270000E+03 0.  0.
    8880022    1    1    2    0    0  0.79479687040E+03 -0.46112027689E+03  0.14699155702E+04  0.17402233798E+04  0.15294330000E+03 0.  0.
<mgrwt>
<rscale>  0 0.10771229E+04</rscale>
<asrwt>0</asrwt>
<pdfrwt beam="1">  1        2 0.29685484E+00 0.11305504E+04</pdfrwt>
<pdfrwt beam="2">  1       -2 0.17229171E+00 0.11305504E+04</pdfrwt>
<totfact> 0.14707359E+00</totfact>
</mgrwt>
</event>
<event>
 4    5  0.2473208E-007  0.7898553E+03  0.7818608E-02  0.9733176E-01
         -2   -1    0    0    0  501 -0.00000000000E+00  0.00000000000E+00  0.87135274069E+03  0.87135274069E+03  0.25500000000E-02 0.  1.
          2   -1    0    0  501    0  0.00000000000E+00 -0.00000000000E+00 -0.12563948358E+04  0.12563948358E+04  0.25500000000E-02 0. -1.
    8880023    1    1    2    0    0 -0.24947360952E+03  0.35752497156E+03  0.63141691246E+03  0.10112164510E+04  0.65864270000E+03 0.  1.
    8880022    1    1    2    0    0  0.24947360952E+03 -0.35752497156E+03 -0.10164590075E+04  0.11165311255E+04  0.15294330000E+03 0.  0.
<mgrwt>
<rscale>  0 0.69075398E+03</rscale>
<asrwt>0</asrwt>
<pdfrwt beam="1">  1        2 0.19329151E+00 0.78985530E+03</pdfrwt>
<pdfrwt beam="2">  1       -2 0.13405427E+00 0.78985530E+03</pdfrwt>
<totfact> 0.71552161E+00</totfact>
</mgrwt>
</event>
<event>
 4    5  0.2473208E-007  0.1590992E+04  0.7818608E-02  0.8847919E-01
          2   -1    0    0  501    0  0.00000000000E+00  0.00000000000E+00  0.24914276561E+04  0.24914276561E+04  0.25500000000E-02 0. -1.
         -2   -1    0    0    0  501 -0.00000000000E+00 -0.00000000000E+00 -0.15527365202E+04  0.15527365202E+04  0.25500000000E-02 0.  1.
    8880023    1    1    2    0    0  0.13129015788E+04 -0.61133961967E+03 -0.79617036688E+03  0.17790851991E+04  0.65864270000E+03 0.  0.
    8880022    1    1    2    0    0 -0.13129015788E+04  0.61133961967E+03  0.17348615028E+04  0.22650789772E+04  0.15294330000E+03 0.  0.
<mgrwt>
<rscale>  0 0.15561968E+04</rscale>
<asrwt>0</asrwt>
<pdfrwt beam="1">  1        2 0.38329656E+00 0.15909924E+04</pdfrwt>
<pdfrwt beam="2">  1       -2 0.23888254E+00 0.15909924E+04</pdfrwt>
<totfact> 0.24598360E-01</totfact>
</mgrwt>
</event>
<event>
 4    5  0.2473208E-007  0.7857499E+03  0.7818608E-02  0.9742500E-01
         -2   -1    0    0    0  501 -0.00000000000E+00  0.00000000000E+00  0.81981305283E+03  0.81981305283E+03  0.25500000000E-02 0.  1.
          2   -1    0    0  501    0  0.00000000000E+00 -0.00000000000E+00 -0.10344154654E+04  0.10344154654E+04  0.25500000000E-02 0. -1.
    8880023    1    1    2    0    0  0.19430703963E+03  0.38188673359E+03  0.55375908584E+03  0.96127625288E+03  0.65864270000E+03 0.  0.
    8880022    1    1    2    0    0 -0.19430703963E+03 -0.38188673359E+03 -0.76836149839E+03  0.89295226534E+03  0.15294330000E+03 0.  0.
<mgrwt>
<rscale>  0 0.68541790E+03</rscale>
<asrwt>0</asrwt>
<pdfrwt beam="1">  1        2 0.15914084E+00 0.78574990E+03</pdfrwt>
<pdfrwt beam="2">  1       -2 0.12612508E+00 0.78574990E+03</pdfrwt>
<totfact> 0.11376520E+01</totfact>
</mgrwt>
</event>
<event>
 4    5  0.2473208E-007  0.1412875E+04  0.7818608E-02  0.8973743E-01
          2   -1    0    0  501    0  0.00000000000E+00  0.00000000000E+00  0.22033616395E+04  0.22033616395E+04  0.25500000000E-02 0. -1.
         -2   -1    0    0    0  501 -0.00000000000E+00 -0.00000000000E+00 -0.13526633767E+04  0.13526633767E+04  0.25500000000E-02 0.  1.
    8880023    1    1    2    0    0  0.61124103861E+03 -0.10903160999E+04  0.15648695575E+04  0.21083243923E+04  0.65864270000E+03 0.  0.
    8880022    1    1    2    0    0 -0.61124103861E+03  0.10903160999E+04 -0.71417129472E+03  0.14477006238E+04  0.15294330000E+03 0.  0.
<mgrwt>
<rscale>  0 0.13728044E+04</rscale>
<asrwt>0</asrwt>
<pdfrwt beam="1">  1        2 0.33897871E+00 0.14128747E+04</pdfrwt>
<pdfrwt beam="2">  1       -2 0.20810206E+00 0.14128747E+04</pdfrwt>
<totfact> 0.57388811E-01</totfact>
</mgrwt>
</event>
<event>
 4    5  0.2473208E-007  0.1001727E+04  0.7818608E-02  0.9379301E-01
          2   -1    0    0  501    0  0.00000000000E+00  0.00000000000E+00  0.23554869176E+04  0.23554869176E+04  0.25500000000E-02 0. -1.
         -2   -1    0    0    0  501 -0.00000000000E+00 -0.00000000000E+00 -0.83618691855E+03  0.83618691855E+03  0.25500000000E-02 0.  1.
    8880023    1    1    2    0    0 -0.47099863929E+03  0.58975247769E+03 -0.43426183234E+03  0.10918064153E+04  0.65864270000E+03 0.  1.
    8880022    1    1    2    0    0  0.47099863929E+03 -0.58975247769E+03  0.19535618314E+04  0.20998674209E+04  0.15294330000E+03 0.  0.
<mgrwt>
<rscale>  0 0.93798874E+03</rscale>
<asrwt>0</asrwt>
<pdfrwt beam="1">  1        2 0.36238259E+00 0.10017275E+04</pdfrwt>
<pdfrwt beam="2">  1       -2 0.12864414E+00 0.10017275E+04</pdfrwt>
<totfact> 0.18871126E+00</totfact>
</mgrwt>
</event>
<event>
 4    5  0.2473208E-007  0.9493069E+03  0.7818608E-02  0.9451112E-01
         -2   -1    0    0    0  501 -0.00000000000E+00  0.00000000000E+00  0.13736577225E+04  0.13736577225E+04  0.25500000000E-02 0.  1.
          2   -1    0    0  501    0  0.00000000000E+00 -0.00000000000E+00 -0.14484304067E+04  0.14484304067E+04  0.25500000000E-02 0. -1.
    8880023    1    1    2    0    0  0.18045948693E+03  0.65939959521E+03  0.11008071595E+04  0.14536024426E+04  0.65864270000E+03 0.  1.
    8880022    1    1    2    0    0 -0.18045948693E+03 -0.65939959521E+03 -0.11755798437E+04  0.13684856866E+04  0.15294330000E+03 0.  0.
<mgrwt>
<rscale>  0 0.87986127E+03</rscale>
<asrwt>0</asrwt>
<pdfrwt beam="1">  1        2 0.22283545E+00 0.94930694E+03</pdfrwt>
<pdfrwt beam="2">  1       -2 0.21133196E+00 0.94930694E+03</pdfrwt>
<totfact> 0.15259236E+00</totfact>
</mgrwt>
</event>
<event>
 4    5  0.2473208E-007  0.1002571E+04  0.7818608E-02  0.9378202E-01
          2   -1    0    0  501    0  0.00000000000E+00  0.00000000000E+00  0.20305223237E+04  0.20305223237E+04  0.25500000000E-02 0. -1.
         -2   -1    0    0    0  501 -0.00000000000E+00 -0.00000000000E+00 -0.20293322900E+04  0.20293322900E+04  0.25500000000E-02 0.  1.
    8880023    1    1    2    0    0 -0.12481474227E+03  0.74549297842E+03 -0.18223603443E+04  0.20799389249E+04  0.65864270000E+03 0.  1.
    8880022    1    1    2    0    0  0.12481474227E+03 -0.74549297842E+03  0.18235503779E+04  0.19799156888E+04  0.15294330000E+03 0.  0.
<mgrwt>
<rscale>  0 0.93891519E+03</rscale>
<asrwt>0</asrwt>
<pdfrwt beam="1">  1        2 0.31238805E+00 0.10025710E+04</pdfrwt>
<pdfrwt beam="2">  1       -2 0.31220497E+00 0.10025710E+04</pdfrwt>
<totfact> 0.17393388E-01</totfact>
</mgrwt>
</event>
<event>
 4    5  0.2473208E-007  0.7516768E+03  0.7818608E-02  0.9827152E-01
          2   -1    0    0  501    0  0.00000000000E+00  0.00000000000E+00  0.10531697758E+04  0.10531697758E+04  0.25500000000E-02 0. -1.
         -2   -1    0    0    0  501 -0.00000000000E+00 -0.00000000000E+00 -0.91822902735E+03  0.91822902735E+03  0.25500000000E-02 0.  1.
    8880023    1    1    2    0    0  0.27637081928E+03 -0.23415155808E+03 -0.71343094581E+03  0.10363405341E+04  0.65864270000E+03 0.  1.
    8880022    1    1    2    0    0 -0.27637081928E+03  0.23415155808E+03  0.84837169429E+03  0.93505826909E+03  0.15294330000E+03 0.  0.
<mgrwt>
<rscale>  0 0.63925530E+03</rscale>
<asrwt>0</asrwt>
<pdfrwt beam="1">  1        2 0.16202612E+00 0.75167678E+03</pdfrwt>
<pdfrwt beam="2">  1       -2 0.14126600E+00 0.75167678E+03</pdfrwt>
<totfact> 0.83250344E+00</totfact>
</mgrwt>
</event>
<event>
 4    5  0.2473208E-007  0.1375411E+04  0.7818608E-02  0.9003029E-01
         -2   -1    0    0    0  501 -0.00000000000E+00  0.00000000000E+00  0.82982853037E+03  0.82982853038E+03  0.25500000000E-02 0.  1.
          2   -1    0    0  501    0  0.00000000000E+00 -0.00000000000E+00 -0.22023052234E+04  0.22023052234E+04  0.25500000000E-02 0. -1.
    8880023    1    1    2    0    0  0.10127131548E+04 -0.65753828058E+03 -0.29515496244E+03  0.14067235629E+04  0.65864270000E+03 0.  0.
    8880022    1    1    2    0    0 -0.10127131548E+04  0.65753828058E+03 -0.10773217306E+04  0.16254101909E+04  0.15294330000E+03 0.  0.
<mgrwt>
<rscale>  0 0.13340006E+04</rscale>
<asrwt>0</asrwt>
<pdfrwt beam="1">  1        2 0.33881619E+00 0.13754107E+04</pdfrwt>
<pdfrwt beam="2">  1       -2 0.12766593E+00 0.13754107E+04</pdfrwt>
<totfact> 0.22448945E+00</totfact>
</mgrwt>
</event>
<event>
 4    5  0.2473208E-007  0.8749456E+03  0.7818608E-02  0.9567512E-01
          2   -1    0    0  501    0  0.00000000000E+00  0.00000000000E+00  0.57479753470E+03  0.57479753471E+03  0.25500000000E-02 0. -1.
         -2   -1    0    0    0  501 -0.00000000000E+00 -0.00000000000E+00 -0.14355830080E+04  0.14355830080E+04  0.25500000000E-02 0.  1.
    8880023    1    1    2    0    0  0.13900301559E+02  0.57578321578E+03 -0.10669410475E+04  0.13798162686E+04  0.65864270000E+03 0.  1.
    8880022    1    1    2    0    0 -0.13900301559E+02 -0.57578321578E+03  0.20615557424E+03  0.63056427409E+03  0.15294330000E+03 0.  0.
<mgrwt>
<rscale>  0 0.79484293E+03</rscale>
<asrwt>0</asrwt>
<pdfrwt beam="1">  1        2 0.88430390E-01 0.87494556E+03</pdfrwt>
<pdfrwt beam="2">  1       -2 0.22085892E+00 0.87494556E+03</pdfrwt>
<totfact> 0.51424411E+00</totfact>
</mgrwt>
</event>
<event>
 4    5  0.2473208E-007  0.6867627E+03  0.7818608E-02  0.1005731E+00
          2   -1    0    0  501    0  0.00000000000E+00  0.00000000000E+00  0.21952143751E+04  0.21952143751E+04  0.25500000000E-02 0. -1.
         -2   -1    0    0    0  501 -0.00000000000E+00 -0.00000000000E+00 -0.13152349084E+03  0.13152349086E+03  0.25500000000E-02 0.  1.
    8880023    1    1    2    0    0 -0.17056341525E+03  0.93492588500E+02  0.87374499577E+03  0.11113385023E+04  0.65864270000E+03 0.  1.
    8880022    1    1    2    0    0  0.17056341525E+03 -0.93492588500E+02  0.11899458885E+04  0.12153993637E+04  0.15294330000E+03 0.  0.
<mgrwt>
<rscale>  0 0.53207220E+03</rscale>
<asrwt>0</asrwt>
<pdfrwt beam="1">  1        2 0.33772528E+00 0.68676266E+03</pdfrwt>
<pdfrwt beam="2">  1       -2 0.20234384E-01 0.68676266E+03</pdfrwt>
<totfact> 0.11269674E+02</totfact>
</mgrwt>
</event>
<event>
 4    5  0.2473208E-007  0.6837972E+03  0.7818608E-02  0.1007252E+00
          2   -1    0    0  501    0  0.00000000000E+00  0.00000000000E+00  0.12295298194E+04  0.12295298194E+04  0.25500000000E-02 0. -1.
         -2   -1    0    0    0  501 -0.00000000000E+00 -0.00000000000E+00 -0.17026686320E+04  0.17026686320E+04  0.25500000000E-02 0.  1.
    8880023    1    1    2    0    0 -0.47029041702E+01 -0.18370166258E+03 -0.16211996767E+04  0.17595076061E+04  0.65864270000E+03 0.  1.
    8880022    1    1    2    0    0  0.47029041702E+01  0.18370166258E+03  0.11480608640E+04  0.11726908453E+04  0.15294330000E+03 0.  0.
<mgrwt>
<rscale>  0 0.52581393E+03</rscale>
<asrwt>0</asrwt>
<pdfrwt beam="1">  1        2 0.18915843E+00 0.68379721E+03</pdfrwt>
<pdfrwt beam="2">  1       -2 0.26194902E+00 0.68379721E+03</pdfrwt>
<totfact> 0.10407642E+00</totfact>
</mgrwt>
</event>
<event>
 4    5  0.2473208E-007  0.1019633E+04  0.7818608E-02  0.9356311E-01
          2   -1    0    0  501    0  0.00000000000E+00  0.00000000000E+00  0.27510826067E+04  0.27510826067E+04  0.25500000000E-02 0. -1.
         -2   -1    0    0    0  501 -0.00000000000E+00 -0.00000000000E+00 -0.15441538493E+04  0.15441538493E+04  0.25500000000E-02 0.  1.
    8880023    1    1    2    0    0  0.40371057133E+03 -0.66547594295E+03 -0.13078314718E+04  0.16583346529E+04  0.65864270000E+03 0.  0.
    8880022    1    1    2    0    0 -0.40371057133E+03  0.66547594295E+03  0.25147602292E+04  0.26369018031E+04  0.15294330000E+03 0.  0.
<mgrwt>
<rscale>  0 0.95760002E+03</rscale>
<asrwt>0</asrwt>
<pdfrwt beam="1">  1        2 0.42324348E+00 0.10196326E+04</pdfrwt>
<pdfrwt beam="2">  1       -2 0.23756213E+00 0.10196326E+04</pdfrwt>
<totfact> 0.19196736E-01</totfact>
</mgrwt>
</event>
<event>
 4    5  0.2473208E-007  0.8097685E+03  0.7818608E-02  0.9690059E-01
          2   -1    0    0  501    0  0.00000000000E+00  0.00000000000E+00  0.13107950208E+04  0.13107950208E+04  0.25500000000E-02 0. -1.
         -2   -1    0    0    0  501 -0.00000000000E+00 -0.00000000000E+00 -0.36435963519E+03  0.36435963520E+03  0.25500000000E-02 0.  1.
    8880023    1    1    2    0    0 -0.33959723574E+02  0.46985274338E+03  0.30624943172E+03  0.86574464132E+03  0.65864270000E+03 0.  0.
    8880022    1    1    2    0    0  0.33959723574E+02 -0.46985274338E+03  0.64018595393E+03  0.80941001471E+03  0.15294330000E+03 0.  0.
<mgrwt>
<rscale>  0 0.71611753E+03</rscale>
<asrwt>0</asrwt>
<pdfrwt beam="1">  1        2 0.20166077E+00 0.80976853E+03</pdfrwt>
<pdfrwt beam="2">  1       -2 0.56055328E-01 0.80976853E+03</pdfrwt>
<totfact> 0.49339286E+01</totfact>
</mgrwt>
</event>
<event>
 4    5  0.2473208E-007  0.1975778E+04  0.7818608E-02  0.8631068E-01
         -2   -1    0    0    0  501 -0.00000000000E+00  0.00000000000E+00  0.11729306622E+04  0.11729306622E+04  0.25500000000E-02 0.  1.
          2   -1    0    0  501    0  0.00000000000E+00 -0.00000000000E+00 -0.34854226918E+04  0.34854226918E+04  0.25500000000E-02 0. -1.
    8880023    1    1    2    0    0 -0.11438396227E+04 -0.14702108916E+04 -0.19067330672E+04  0.27457841037E+04  0.65864270000E+03 0.  0.
    8880022    1    1    2    0    0  0.11438396227E+04  0.14702108916E+04 -0.40575896245E+03  0.19125692503E+04  0.15294330000E+03 0.  0.
<mgrwt>
<rscale>  0 0.19485333E+04</rscale>
<asrwt>0</asrwt>
<pdfrwt beam="1">  1        2 0.53621887E+00 0.19757782E+04</pdfrwt>
<pdfrwt beam="2">  1       -2 0.18045087E+00 0.19757782E+04</pdfrwt>
<totfact> 0.13474406E-01</totfact>
</mgrwt>
</event>
<event>
 4    5  0.2473208E-007  0.9286001E+03  0.7818608E-02  0.9481596E-01
          2   -1    0    0  501    0  0.00000000000E+00  0.00000000000E+00  0.70990089344E+03  0.70990089345E+03  0.25500000000E-02 0. -1.
         -2   -1    0    0    0  501 -0.00000000000E+00 -0.00000000000E+00 -0.16403887816E+04  0.16403887816E+04  0.25500000000E-02 0.  1.
    8880023    1    1    2    0    0 -0.39805482889E+03  0.51965395641E+03 -0.12888359382E+04  0.15885201173E+04  0.65864270000E+03 0.  0.
    8880022    1    1    2    0    0  0.39805482889E+03 -0.51965395641E+03  0.35834805000E+03  0.76176955779E+03  0.15294330000E+03 0.  0.
<mgrwt>
<rscale>  0 0.85654339E+03</rscale>
<asrwt>0</asrwt>
<pdfrwt beam="1">  1        2 0.10921552E+00 0.92860007E+03</pdfrwt>
<pdfrwt beam="2">  1       -2 0.25236750E+00 0.92860007E+03</pdfrwt>
<totfact> 0.25179920E+00</totfact>
</mgrwt>
</event>
<event>
 4    5  0.2473208E-007  0.7458599E+03  0.7818608E-02  0.9843195E-01
          2   -1    0    0  501    0  0.00000000000E+00  0.00000000000E+00  0.17046418649E+04  0.17046418649E+04  0.25500000000E-02 0. -1.
         -2   -1    0    0    0  501 -0.00000000000E+00 -0.00000000000E+00 -0.73546498238E+03  0.73546498239E+03  0.25500000000E-02 0.  1.
    8880023    1    1    2    0    0 -0.25675191408E+03 -0.23785549392E+03 -0.51577159543E+03  0.90682265427E+03  0.65864270000E+03 0.  0.
    8880022    1    1    2    0    0  0.25675191408E+03  0.23785549392E+03  0.14849484779E+04  0.15332841930E+04  0.15294330000E+03 0.  0.
<mgrwt>
<rscale>  0 0.63095088E+03</rscale>
<asrwt>0</asrwt>
<pdfrwt beam="1">  1        2 0.26225259E+00 0.74585990E+03</pdfrwt>
<pdfrwt beam="2">  1       -2 0.11314846E+00 0.74585990E+03</pdfrwt>
<totfact> 0.61590256E+00</totfact>
</mgrwt>
</event>
<event>
 4    5  0.2473208E-007  0.6911731E+03  0.7818608E-02  0.1003600E+00
          2   -1    0    0  501    0  0.00000000000E+00  0.00000000000E+00  0.13924026416E+04  0.13924026416E+04  0.25500000000E-02 0. -1.
         -2   -1    0    0    0  501 -0.00000000000E+00 -0.00000000000E+00 -0.39421315255E+03  0.39421315255E+03  0.25500000000E-02 0.  1.
    8880023    1    1    2    0    0  0.14850374971E+03 -0.14784029355E+03 -0.63129435261E+02  0.69405017681E+03  0.65864270000E+03 0.  1.
    8880022    1    1    2    0    0 -0.14850374971E+03  0.14784029355E+03  0.10613189244E+04  0.10925656174E+04  0.15294330000E+03 0.  0.
<mgrwt>
<rscale>  0 0.54099525E+03</rscale>
<asrwt>0</asrwt>
<pdfrwt beam="1">  1        2 0.21421579E+00 0.69117315E+03</pdfrwt>
<pdfrwt beam="2">  1       -2 0.60648177E-01 0.69117315E+03</pdfrwt>
<totfact> 0.38028673E+01</totfact>
</mgrwt>
</event>
<event>
 4    5  0.2473208E-007  0.7278208E+03  0.7818608E-02  0.9896960E-01
         -2   -1    0    0    0  501 -0.00000000000E+00  0.00000000000E+00  0.75572843630E+03  0.75572843631E+03  0.25500000000E-02 0.  1.
          2   -1    0    0  501    0  0.00000000000E+00 -0.00000000000E+00 -0.15299302926E+04  0.15299302926E+04  0.25500000000E-02 0. -1.
    8880023    1    1    2    0    0  0.26510476805E+03 -0.16010105922E+03  0.55310990267E+03  0.91414093985E+03  0.65864270000E+03 0.  1.
    8880022    1    1    2    0    0 -0.26510476805E+03  0.16010105922E+03 -0.13273117590E+04  0.13715177891E+04  0.15294330000E+03 0.  0.
<mgrwt>
<rscale>  0 0.60408835E+03</rscale>
<asrwt>0</asrwt>
<pdfrwt beam="1">  1        2 0.23537389E+00 0.72782078E+03</pdfrwt>
<pdfrwt beam="2">  1       -2 0.11626591E+00 0.72782078E+03</pdfrwt>
<totfact> 0.72114858E+00</totfact>
</mgrwt>
</event>
<event>
 4    5  0.2473208E-007  0.6641985E+03  0.7818608E-02  0.1020216E+00
          2   -1    0    0  501    0  0.00000000000E+00  0.00000000000E+00  0.27112829028E+04  0.27112829028E+04  0.25500000000E-02 0. -1.
         -2   -1    0    0    0  501 -0.00000000000E+00 -0.00000000000E+00 -0.31031518448E+03  0.31031518449E+03  0.25500000000E-02 0.  1.
    8880023    1    1    2    0    0  0.79775613131E+02  0.31389553960E+02  0.52146901792E+02  0.66624241698E+03  0.65864270000E+03 0.  1.
    8880022    1    1    2    0    0 -0.79775613131E+02 -0.31389553960E+02  0.23488208165E+04  0.23553556703E+04  0.15294330000E+03 0.  0.
<mgrwt>
<rscale>  0 0.47608923E+03</rscale>
<asrwt>0</asrwt>
<pdfrwt beam="1">  1        2 0.41712044E+00 0.66419851E+03</pdfrwt>
<pdfrwt beam="2">  1       -2 0.47740798E-01 0.66419851E+03</pdfrwt>
<totfact> 0.11636962E+01</totfact>
</mgrwt>
</event>
<event>
 4    5  0.2473208E-007  0.8099800E+03  0.7818608E-02  0.9689619E-01
          2   -1    0    0  501    0  0.00000000000E+00  0.00000000000E+00  0.21574232218E+04  0.21574232218E+04  0.25500000000E-02 0. -1.
         -2   -1    0    0    0  501 -0.00000000000E+00 -0.00000000000E+00 -0.49372648267E+03  0.49372648267E+03  0.25500000000E-02 0.  1.
    8880023    1    1    2    0    0 -0.41581038048E+03  0.22216897267E+03 -0.10276563049E+03  0.81647308958E+03  0.65864270000E+03 0.  1.
    8880022    1    1    2    0    0  0.41581038048E+03 -0.22216897267E+03  0.17664623696E+04  0.18346766149E+04  0.15294330000E+03 0.  0.
<mgrwt>
<rscale>  0 0.71638268E+03</rscale>
<asrwt>0</asrwt>
<pdfrwt beam="1">  1        2 0.33191127E+00 0.80997996E+03</pdfrwt>
<pdfrwt beam="2">  1       -2 0.75957920E-01 0.80997996E+03</pdfrwt>
<totfact> 0.87249914E+00</totfact>
</mgrwt>
</event>
<event>
 4    5  0.2473208E-007  0.1721512E+04  0.7818608E-02  0.8767242E-01
          2   -1    0    0  501    0  0.00000000000E+00  0.00000000000E+00  0.19822454122E+04  0.19822454122E+04  0.25500000000E-02 0. -1.
         -2   -1    0    0    0  501 -0.00000000000E+00 -0.00000000000E+00 -0.16075163214E+04  0.16075163215E+04  0.25500000000E-02 0.  1.
    8880023    1    1    2    0    0 -0.10589082416E+04 -0.11868050977E+04  0.85381761355E+03  0.19216159157E+04  0.65864270000E+03 0.  1.
    8880022    1    1    2    0    0  0.10589082416E+04  0.11868050977E+04 -0.47908852280E+03  0.16681458179E+04  0.15294330000E+03 0. -1.
<mgrwt>
<rscale>  0 0.16897319E+04</rscale>
<asrwt>0</asrwt>
<pdfrwt beam="1">  1        2 0.30496083E+00 0.17215119E+04</pdfrwt>
<pdfrwt beam="2">  1       -2 0.24731020E+00 0.17215119E+04</pdfrwt>
<totfact> 0.41840286E-01</totfact>
</mgrwt>
</event>
<event>
 4    5  0.2473208E-007  0.6865726E+03  0.7818608E-02  0.1005826E+00
         -2   -1    0    0    0  501 -0.00000000000E+00  0.00000000000E+00  0.19322596594E+03  0.19322596596E+03  0.25500000000E-02 0.  1.
          2   -1    0    0  501    0  0.00000000000E+00 -0.00000000000E+00 -0.22240655198E+04  0.22240655198E+04  0.25500000000E-02 0. -1.
    8880023    1    1    2    0    0  0.16852728641E+03  0.95761350789E+02 -0.45829057800E+03  0.82547691834E+03  0.65864270000E+03 0.  1.
    8880022    1    1    2    0    0 -0.16852728641E+03 -0.95761350789E+02 -0.15725489759E+04  0.15918145675E+04  0.15294330000E+03 0.  0.
<mgrwt>
<rscale>  0 0.53167767E+03</rscale>
<asrwt>0</asrwt>
<pdfrwt beam="1">  1        2 0.34216391E+00 0.68657257E+03</pdfrwt>
<pdfrwt beam="2">  1       -2 0.29727073E-01 0.68657257E+03</pdfrwt>
<totfact> 0.54409144E+01</totfact>
</mgrwt>
</event>
<event>
 4    5  0.2473208E-007  0.7080939E+03  0.7818608E-02  0.9965148E-01
         -2   -1    0    0    0  501 -0.00000000000E+00  0.00000000000E+00  0.15137928506E+04  0.15137928506E+04  0.25500000000E-02 0.  1.
          2   -1    0    0  501    0  0.00000000000E+00 -0.00000000000E+00 -0.91765402383E+03  0.91765402383E+03  0.25500000000E-02 0. -1.
    8880023    1    1    2    0    0  0.14800875627E+03  0.21372930378E+03  0.14021740247E+04  0.15708243088E+04  0.65864270000E+03 0.  1.
    8880022    1    1    2    0    0 -0.14800875627E+03 -0.21372930378E+03 -0.80603519792E+03  0.86062256567E+03  0.15294330000E+03 0.  0.
<mgrwt>
<rscale>  0 0.57205196E+03</rscale>
<asrwt>0</asrwt>
<pdfrwt beam="1">  1        2 0.14117754E+00 0.70809393E+03</pdfrwt>
<pdfrwt beam="2">  1       -2 0.23289121E+00 0.70809393E+03</pdfrwt>
<totfact> 0.24245587E+00</totfact>
</mgrwt>
</event>
<event>
 4    5  0.2473208E-007  0.7353359E+03  0.7818608E-02  0.9873748E-01
         -2   -1    0    0    0  501 -0.00000000000E+00  0.00000000000E+00  0.39648427570E+03  0.39648427571E+03  0.25500000000E-02 0.  1.
          2   -1    0    0  501    0  0.00000000000E+00 -0.00000000000E+00 -0.12944461077E+04  0.12944461077E+04  0.25500000000E-02 0. -1.
    8880023    1    1    2    0    0  0.29311827898E+03 -0.14488051889E+03 -0.13297658932E+02  0.73545613344E+03  0.65864270000E+03 0.  1.
    8880022    1    1    2    0    0 -0.29311827898E+03  0.14488051889E+03 -0.88466417307E+03  0.95547424996E+03  0.15294330000E+03 0.  0.
<mgrwt>
<rscale>  0 0.61550633E+03</rscale>
<asrwt>0</asrwt>
<pdfrwt beam="1">  1        2 0.19914555E+00 0.73533591E+03</pdfrwt>
<pdfrwt beam="2">  1       -2 0.60997582E-01 0.73533591E+03</pdfrwt>
<totfact> 0.42522638E+01</totfact>
</mgrwt>
</event>
<event>
 4    5  0.2473208E-007  0.6663115E+03  0.7818608E-02  0.1018458E+00
         -2   -1    0    0    0  501 -0.00000000000E+00  0.00000000000E+00  0.48115768837E+03  0.48115768837E+03  0.25500000000E-02 0.  1.
          2   -1    0    0  501    0  0.00000000000E+00 -0.00000000000E+00 -0.10094944434E+04  0.10094944434E+04  0.25500000000E-02 0. -1.
    8880023    1    1    2    0    0  0.98720899221E+02  0.20371260253E+02  0.23431579709E+03  0.70631076957E+03  0.65864270000E+03 0.  1.
    8880022    1    1    2    0    0 -0.98720899221E+02 -0.20371260253E+02 -0.76265255215E+03  0.78434136223E+03  0.15294330000E+03 0.  0.
<mgrwt>
<rscale>  0 0.48247356E+03</rscale>
<asrwt>0</asrwt>
<pdfrwt beam="1">  1        2 0.15530684E+00 0.66631150E+03</pdfrwt>
<pdfrwt beam="2">  1       -2 0.74024260E-01 0.66631150E+03</pdfrwt>
<totfact> 0.41811976E+01</totfact>
</mgrwt>
</event>
<event>
 4    5  0.2473208E-007  0.6640915E+03  0.7818608E-02  0.1020308E+00
          2   -1    0    0  501    0  0.00000000000E+00  0.00000000000E+00  0.58776509421E+03  0.58776509421E+03  0.25500000000E-02 0. -1.
         -2   -1    0    0    0  501 -0.00000000000E+00 -0.00000000000E+00 -0.91888222930E+03  0.91888222931E+03  0.25500000000E-02 0.  1.
    8880023    1    1    2    0    0 -0.27661985042E-01 -0.84895860140E+02 -0.78028013495E+03  0.10246241277E+04  0.65864270000E+03 0.  1.
    8880022    1    1    2    0    0  0.27661985042E-01  0.84895860140E+02  0.44916299986E+03  0.48202319580E+03  0.15294330000E+03 0.  0.
<mgrwt>
<rscale>  0 0.47575600E+03</rscale>
<asrwt>0</asrwt>
<pdfrwt beam="1">  1        2 0.90425400E-01 0.66409150E+03</pdfrwt>
<pdfrwt beam="2">  1       -2 0.14136650E+00 0.66409150E+03</pdfrwt>
<totfact> 0.18203677E+01</totfact>
</mgrwt>
</event>
<event>
 4    5  0.2481123E-007  0.8273008E+03  0.7818608E-02  0.9654607E-01
         -2   -1    0    0    0  501 -0.00000000000E+00  0.00000000000E+00  0.30792598342E+04  0.30792598342E+04  0.25500000000E-02 0.  1.
          2   -1    0    0  501    0  0.00000000000E+00 -0.00000000000E+00 -0.18351876868E+04  0.18351876868E+04  0.25500000000E-02 0. -1.
    8880023    1    1    2    0    0 -0.11640801815E+03  0.48689386249E+03  0.29844809432E+04  0.30970232751E+04  0.65864270000E+03 0.  0.
    8880022    1    1    2    0    0  0.11640801815E+03 -0.48689386249E+03 -0.17404087958E+04  0.18174242459E+04  0.15294330000E+03 0.  0.
<mgrwt>
<rscale>  0 0.73784990E+03</rscale>
<asrwt>0</asrwt>
<pdfrwt beam="1">  1        2 0.28233657E+00 0.82730083E+03</pdfrwt>
<pdfrwt beam="2">  1       -2 0.47373227E+00 0.82730083E+03</pdfrwt>
<totfact> 0.21247771E-02</totfact>
</mgrwt>
</event>
<event>
 4    5  0.2473208E-007  0.1068065E+04  0.7818608E-02  0.9297474E-01
          2   -1    0    0  501    0  0.00000000000E+00  0.00000000000E+00  0.10953717015E+04  0.10953717015E+04  0.25500000000E-02 0. -1.
         -2   -1    0    0    0  501 -0.00000000000E+00 -0.00000000000E+00 -0.10083982602E+04  0.10083982602E+04  0.25500000000E-02 0.  1.
    8880023    1    1    2    0    0 -0.70978919799E+03  0.45072347814E+03 -0.37538551766E+03  0.11321116784E+04  0.65864270000E+03 0.  1.
    8880022    1    1    2    0    0  0.70978919799E+03 -0.45072347814E+03  0.46235895895E+03  0.97165828318E+03  0.15294330000E+03 0.  0.
<mgrwt>
<rscale>  0 0.10101576E+04</rscale>
<asrwt>0</asrwt>
<pdfrwt beam="1">  1        2 0.16851872E+00 0.10680649E+04</pdfrwt>
<pdfrwt beam="2">  1       -2 0.15513819E+00 0.10680649E+04</pdfrwt>
<totfact> 0.59138764E+00</totfact>
</mgrwt>
</event>
<event>
 4    5  0.2473208E-007  0.2008848E+04  0.7818608E-02  0.8615037E-01
          2   -1    0    0  501    0  0.00000000000E+00  0.00000000000E+00  0.29941753835E+04  0.29941753835E+04  0.25500000000E-02 0. -1.
         -2   -1    0    0    0  501 -0.00000000000E+00 -0.00000000000E+00 -0.14083359223E+04  0.14083359223E+04  0.25500000000E-02 0.  1.
    8880023    1    1    2    0    0  0.15277956663E+04  0.11258339539E+04  0.14359977307E+03  0.20139743769E+04  0.65864270000E+03 0.  0.
    8880022    1    1    2    0    0 -0.15277956663E+04 -0.11258339539E+04  0.14422396881E+04  0.23885369289E+04  0.15294330000E+03 0.  0.
<mgrwt>
<rscale>  0 0.19820959E+04</rscale>
<asrwt>0</asrwt>
<pdfrwt beam="1">  1        2 0.46064237E+00 0.20088484E+04</pdfrwt>
<pdfrwt beam="2">  1       -2 0.21666707E+00 0.20088484E+04</pdfrwt>
<totfact> 0.16234706E-01</totfact>
</mgrwt>
</event>
<event>
 4    5  0.2473208E-007  0.6957402E+03  0.7818608E-02  0.1001535E+00
          2   -1    0    0  501    0  0.00000000000E+00  0.00000000000E+00  0.17424273609E+04  0.17424273609E+04  0.25500000000E-02 0. -1.
         -2   -1    0    0    0  501 -0.00000000000E+00 -0.00000000000E+00 -0.18038222256E+04  0.18038222256E+04  0.25500000000E-02 0.  1.
    8880023    1    1    2    0    0  0.17547050676E+03  0.13947888432E+03 -0.17253327172E+04  0.18603299302E+04  0.65864270000E+03 0.  1.
    8880022    1    1    2    0    0 -0.17547050676E+03 -0.13947888432E+03  0.16639378524E+04  0.16859196563E+04  0.15294330000E+03 0.  0.
<mgrwt>
<rscale>  0 0.54982128E+03</rscale>
<asrwt>0</asrwt>
<pdfrwt beam="1">  1        2 0.26806575E+00 0.69574023E+03</pdfrwt>
<pdfrwt beam="2">  1       -2 0.27751111E+00 0.69574023E+03</pdfrwt>
<totfact> 0.43258280E-01</totfact>
</mgrwt>
</event>
<event>
 4    5  0.2473208E-007  0.1281158E+04  0.7818608E-02  0.9082004E-01
         -2   -1    0    0    0  501 -0.00000000000E+00  0.00000000000E+00  0.91639727785E+03  0.91639727786E+03  0.25500000000E-02 0.  1.
          2   -1    0    0  501    0  0.00000000000E+00 -0.00000000000E+00 -0.28299373586E+04  0.28299373586E+04  0.25500000000E-02 0. -1.
    8880023    1    1    2    0    0 -0.16175082885E+03 -0.10869192779E+04  0.25883112927E+03  0.13070426952E+04  0.65864270000E+03 0.  0.
    8880022    1    1    2    0    0  0.16175082885E+03  0.10869192779E+04 -0.21723712100E+04  0.24392919412E+04  0.15294330000E+03 0.  0.
<mgrwt>
<rscale>  0 0.12358966E+04</rscale>
<asrwt>0</asrwt>
<pdfrwt beam="1">  1        2 0.43537497E+00 0.12811585E+04</pdfrwt>
<pdfrwt beam="2">  1       -2 0.14098420E+00 0.12811585E+04</pdfrwt>
<totfact> 0.76051782E-01</totfact>
</mgrwt>
</event>
<event>
 4    5  0.2473208E-007  0.7006584E+03  0.7818608E-02  0.9994481E-01
         -2   -1    0    0    0  501 -0.00000000000E+00  0.00000000000E+00  0.13459128182E+04  0.13459128182E+04  0.25500000000E-02 0.  1.
          2   -1    0    0  501    0  0.00000000000E+00 -0.00000000000E+00 -0.25009763987E+03  0.25009763988E+03  0.25500000000E-02 0. -1.
    8880023    1    1    2    0    0 -0.10602585655E+03 -0.21417412397E+03  0.11092002381E+04  0.13119631901E+04  0.65864270000E+03 0.  1.
    8880022    1    1    2    0    0  0.10602585655E+03  0.21417412397E+03 -0.13385059751E+02  0.28404726803E+03  0.15294330000E+03 0.  0.
<mgrwt>
<rscale>  0 0.55892912E+03</rscale>
<asrwt>0</asrwt>
<pdfrwt beam="1">  1        2 0.38476560E-01 0.70065844E+03</pdfrwt>
<pdfrwt beam="2">  1       -2 0.20706351E+00 0.70065844E+03</pdfrwt>
<totfact> 0.16452854E+01</totfact>
</mgrwt>
</event>
<event>
 4    5  0.2473208E-007  0.9033742E+03  0.7818608E-02  0.9520636E-01
         -2   -1    0    0    0  501 -0.00000000000E+00  0.00000000000E+00  0.93494911676E+03  0.93494911676E+03  0.25500000000E-02 0.  1.
          2   -1    0    0  501    0  0.00000000000E+00 -0.00000000000E+00 -0.10420959253E+04  0.10420959253E+04  0.25500000000E-02 0. -1.
    8880023    1    1    2    0    0 -0.36876591661E+02 -0.61718300913E+03  0.55343371714E+03  0.10594214625E+04  0.65864270000E+03 0.  0.
    8880022    1    1    2    0    0  0.36876591661E+02  0.61718300913E+03 -0.66058052567E+03  0.91762357951E+03  0.15294330000E+03 0.  0.
<mgrwt>
<rscale>  0 0.82779328E+03</rscale>
<asrwt>0</asrwt>
<pdfrwt beam="1">  1        2 0.16032245E+00 0.90337421E+03</pdfrwt>
<pdfrwt beam="2">  1       -2 0.14383833E+00 0.90337421E+03</pdfrwt>
<totfact> 0.79316815E+00</totfact>
</mgrwt>
</event>
<event>
 4    5  0.2473208E-007  0.7184139E+03  0.7818608E-02  0.9927990E-01
         -2   -1    0    0    0  501 -0.00000000000E+00  0.00000000000E+00  0.43040740691E+03  0.43040740692E+03  0.25500000000E-02 0.  1.
          2   -1    0    0  501    0  0.00000000000E+00 -0.00000000000E+00 -0.12622957174E+04  0.12622957174E+04  0.25500000000E-02 0. -1.
    8880023    1    1    2    0    0 -0.15348526217E+03 -0.24238533710E+03  0.81648220402E+02  0.72303873721E+03  0.65864270000E+03 0.  1.
    8880022    1    1    2    0    0  0.15348526217E+03  0.24238533710E+03 -0.91353653087E+03  0.96966438709E+03  0.15294330000E+03 0.  0.
<mgrwt>
<rscale>  0 0.58923760E+03</rscale>
<asrwt>0</asrwt>
<pdfrwt beam="1">  1        2 0.19419934E+00 0.71841394E+03</pdfrwt>
<pdfrwt beam="2">  1       -2 0.66216524E-01 0.71841394E+03</pdfrwt>
<totfact> 0.37309129E+01</totfact>
</mgrwt>
</event>
<event>
 4    5  0.2473208E-007  0.1004409E+04  0.7818608E-02  0.9375812E-01
          2   -1    0    0  501    0  0.00000000000E+00  0.00000000000E+00  0.22058012452E+04  0.22058012452E+04  0.25500000000E-02 0. -1.
         -2   -1    0    0    0  501 -0.00000000000E+00 -0.00000000000E+00 -0.62567175154E+03  0.62567175155E+03  0.25500000000E-02 0.  1.
    8880023    1    1    2    0    0 -0.64995489992E+03 -0.39062220335E+03 -0.72224729267E+02  0.10070023314E+04  0.65864270000E+03 0.  0.
    8880022    1    1    2    0    0  0.64995489992E+03  0.39062220335E+03  0.16523542229E+04  0.18244706653E+04  0.15294330000E+03 0.  0.
<mgrwt>
<rscale>  0 0.94093272E+03</rscale>
<asrwt>0</asrwt>
<pdfrwt beam="1">  1        2 0.33935404E+00 0.10044089E+04</pdfrwt>
<pdfrwt beam="2">  1       -2 0.96257192E-01 0.10044089E+04</pdfrwt>
<totfact> 0.46466775E+00</totfact>
</mgrwt>
</event>
<event>
 4    5  0.2473208E-007  0.8918072E+03  0.7818608E-02  0.9539314E-01
         -2   -1    0    0    0  501 -0.00000000000E+00  0.00000000000E+00  0.11403757682E+04  0.11403757682E+04  0.25500000000E-02 0.  1.
          2   -1    0    0  501    0  0.00000000000E+00 -0.00000000000E+00 -0.19470960526E+04  0.19470960526E+04  0.25500000000E-02 0. -1.
    8880023    1    1    2    0    0  0.44708126262E+03 -0.40203002587E+03  0.90271157741E+03  0.12689397919E+04  0.65864270000E+03 0.  0.
    8880022    1    1    2    0    0 -0.44708126262E+03  0.40203002587E+03 -0.17094318618E+04  0.18185320289E+04  0.15294330000E+03 0. -1.
<mgrwt>
<rscale>  0 0.81446403E+03</rscale>
<asrwt>0</asrwt>
<pdfrwt beam="1">  1        2 0.29955324E+00 0.89180716E+03</pdfrwt>
<pdfrwt beam="2">  1       -2 0.17544243E+00 0.89180716E+03</pdfrwt>
<totfact> 0.14134461E+00</totfact>
</mgrwt>
</event>
<event>
 4    5  0.2473208E-007  0.8779958E+03  0.7818608E-02  0.9562321E-01
         -2   -1    0    0    0  501 -0.00000000000E+00  0.00000000000E+00  0.54418252673E+03  0.54418252674E+03  0.25500000000E-02 0.  1.
          2   -1    0    0  501    0  0.00000000000E+00 -0.00000000000E+00 -0.25699284366E+04  0.25699284366E+04  0.25500000000E-02 0. -1.
    8880023    1    1    2    0    0 -0.93233802611E+02  0.57303912421E+03  0.11981394357E+03  0.88613315431E+03  0.65864270000E+03 0.  1.
    8880022    1    1    2    0    0  0.93233802611E+02 -0.57303912421E+03 -0.21455598534E+04  0.22279778090E+04  0.15294330000E+03 0.  0.
<mgrwt>
<rscale>  0 0.79841035E+03</rscale>
<asrwt>0</asrwt>
<pdfrwt beam="1">  1        2 0.39537360E+00 0.87799578E+03</pdfrwt>
<pdfrwt beam="2">  1       -2 0.83720390E-01 0.87799578E+03</pdfrwt>
<totfact> 0.40694173E+00</totfact>
</mgrwt>
</event>
<event>
 4    5  0.2473208E-007  0.7679617E+03  0.7818608E-02  0.9784915E-01
         -2   -1    0    0    0  501 -0.00000000000E+00  0.00000000000E+00  0.45758035342E+03  0.45758035343E+03  0.25500000000E-02 0.  1.
          2   -1    0    0  501    0  0.00000000000E+00 -0.00000000000E+00 -0.18801482818E+04  0.18801482818E+04  0.25500000000E-02 0. -1.
    8880023    1    1    2    0    0  0.15696101125E+03  0.36237857681E+03  0.84213324345E+02  0.77256526083E+03  0.65864270000E+03 0.  0.
    8880022    1    1    2    0    0 -0.15696101125E+03 -0.36237857681E+03 -0.15067812528E+04  0.15651633744E+04  0.15294330000E+03 0.  0.
<mgrwt>
<rscale>  0 0.66178411E+03</rscale>
<asrwt>0</asrwt>
<pdfrwt beam="1">  1        2 0.28925358E+00 0.76796172E+03</pdfrwt>
<pdfrwt beam="2">  1       -2 0.70396979E-01 0.76796172E+03</pdfrwt>
<totfact> 0.14722278E+01</totfact>
</mgrwt>
</event>
<event>
 4    5  0.2473208E-007  0.6728030E+03  0.7818608E-02  0.1013728E+00
          2   -1    0    0  501    0  0.00000000000E+00  0.00000000000E+00  0.15100322769E+04  0.15100322769E+04  0.25500000000E-02 0. -1.
         -2   -1    0    0    0  501 -0.00000000000E+00 -0.00000000000E+00 -0.12998794151E+03  0.12998794153E+03  0.25500000000E-02 0.  1.
    8880023    1    1    2    0    0 -0.11219285985E+03  0.79160841790E+02  0.95880709037E+03  0.11713133310E+04  0.65864270000E+03 0.  0.
    8880022    1    1    2    0    0  0.11219285985E+03 -0.79160841790E+02  0.42123724501E+03  0.46870688738E+03  0.15294330000E+03 0.  1.
<mgrwt>
<rscale>  0 0.50019377E+03</rscale>
<asrwt>0</asrwt>
<pdfrwt beam="1">  1        2 0.23231265E+00 0.67280300E+03</pdfrwt>
<pdfrwt beam="2">  1       -2 0.19998146E-01 0.67280300E+03</pdfrwt>
<totfact> 0.27261327E+02</totfact>
</mgrwt>
</event>
<event>
 4    5  0.2473208E-007  0.7568626E+03  0.7818608E-02  0.9813299E-01
         -2   -1    0    0    0  501 -0.00000000000E+00  0.00000000000E+00  0.11327484052E+04  0.11327484052E+04  0.25500000000E-02 0.  1.
          2   -1    0    0  501    0  0.00000000000E+00 -0.00000000000E+00 -0.57289902018E+03  0.57289902018E+03  0.25500000000E-02 0. -1.
    8880023    1    1    2    0    0  0.18547058332E+03 -0.32346774099E+03  0.90165030401E+03  0.11772060965E+04  0.65864270000E+03 0.  0.
    8880022    1    1    2    0    0 -0.18547058332E+03  0.32346774099E+03 -0.34180091902E+03  0.52844132881E+03  0.15294330000E+03 0.  0.
<mgrwt>
<rscale>  0 0.64653716E+03</rscale>
<asrwt>0</asrwt>
<pdfrwt beam="1">  1        2 0.88138312E-01 0.75686255E+03</pdfrwt>
<pdfrwt beam="2">  1       -2 0.17426898E+00 0.75686255E+03</pdfrwt>
<totfact> 0.10589415E+01</totfact>
</mgrwt>
</event>
<event>
 4    5  0.2473208E-007  0.9349719E+03  0.7818608E-02  0.9472074E-01
          2   -1    0    0  501    0  0.00000000000E+00  0.00000000000E+00  0.36252289828E+03  0.36252289829E+03  0.25500000000E-02 0. -1.
         -2   -1    0    0    0  501 -0.00000000000E+00 -0.00000000000E+00 -0.22517997657E+04  0.22517997657E+04  0.25500000000E-02 0.  1.
    8880023    1    1    2    0    0 -0.61453782318E+03  0.25041062341E+03 -0.16425485037E+04  0.18900100554E+04  0.65864270000E+03 0.  1.
    8880022    1    1    2    0    0  0.61453782318E+03 -0.25041062341E+03 -0.24672836375E+03  0.72431260857E+03  0.15294330000E+03 0.  1.
<mgrwt>
<rscale>  0 0.86374363E+03</rscale>
<asrwt>0</asrwt>
<pdfrwt beam="1">  1        2 0.55772755E-01 0.93497188E+03</pdfrwt>
<pdfrwt beam="2">  1       -2 0.34643073E+00 0.93497188E+03</pdfrwt>
<totfact> 0.14906795E+00</totfact>
</mgrwt>
</event>
<event>
 4    5  0.2473208E-007  0.8301075E+03  0.7818608E-02  0.9649123E-01
         -2   -1    0    0    0  501 -0.00000000000E+00  0.00000000000E+00  0.15649122941E+04  0.15649122941E+04  0.25500000000E-02 0.  1.
          2   -1    0    0  501    0  0.00000000000E+00 -0.00000000000E+00 -0.13182380192E+04  0.13182380192E+04  0.25500000000E-02 0. -1.
    8880023    1    1    2    0    0 -0.27772960059E+03  0.42205980481E+03  0.13927382678E+04  0.16213569313E+04  0.65864270000E+03 0.  1.
    8880022    1    1    2    0    0  0.27772960059E+03 -0.42205980481E+03 -0.11460639929E+04  0.12617933820E+04  0.15294330000E+03 0.  0.
<mgrwt>
<rscale>  0 0.74128471E+03</rscale>
<asrwt>0</asrwt>
<pdfrwt beam="1">  1        2 0.20280585E+00 0.83010747E+03</pdfrwt>
<pdfrwt beam="2">  1       -2 0.24075574E+00 0.83010747E+03</pdfrwt>
<totfact> 0.12084382E+00</totfact>
</mgrwt>
</event>
<event>
 4    5  0.2473208E-007  0.1525949E+04  0.7818608E-02  0.8891526E-01
          2   -1    0    0  501    0  0.00000000000E+00  0.00000000000E+00  0.28355448234E+04  0.28355448234E+04  0.25500000000E-02 0. -1.
         -2   -1    0    0    0  501 -0.00000000000E+00 -0.00000000000E+00 -0.11237330210E+04  0.11237330210E+04  0.25500000000E-02 0.  1.
    8880023    1    1    2    0    0  0.87933666273E+03 -0.10589985394E+04 -0.26176573784E+03  0.15482384767E+04  0.65864270000E+03 0.  1.
    8880022    1    1    2    0    0 -0.87933666273E+03  0.10589985394E+04  0.19735775402E+04  0.24110393678E+04  0.15294330000E+03 0.  0.
<mgrwt>
<rscale>  0 0.14894092E+04</rscale>
<asrwt>0</asrwt>
<pdfrwt beam="1">  1        2 0.43623767E+00 0.15259492E+04</pdfrwt>
<pdfrwt beam="2">  1       -2 0.17288200E+00 0.15259492E+04</pdfrwt>
<totfact> 0.42096851E-01</totfact>
</mgrwt>
</event>
<event>
 4    5  0.2473208E-007  0.1016634E+04  0.7818608E-02  0.9360112E-01
         -2   -1    0    0    0  501 -0.00000000000E+00  0.00000000000E+00  0.55652932754E+03  0.55652932754E+03  0.25500000000E-02 0.  1.
          2   -1    0    0  501    0  0.00000000000E+00 -0.00000000000E+00 -0.22237800912E+04  0.22237800912E+04  0.25500000000E-02 0. -1.
    8880023    1    1    2    0    0  0.45845715516E+03 -0.62413982285E+03 -0.95052530693E+02  0.10210674177E+04  0.65864270000E+03 0.  0.
    8880022    1    1    2    0    0 -0.45845715516E+03  0.62413982285E+03 -0.15721982330E+04  0.17592420011E+04  0.15294330000E+03 0.  0.
<mgrwt>
<rscale>  0 0.95432263E+03</rscale>
<asrwt>0</asrwt>
<pdfrwt beam="1">  1        2 0.34212001E+00 0.10166335E+04</pdfrwt>
<pdfrwt beam="2">  1       -2 0.85619898E-01 0.10166335E+04</pdfrwt>
<totfact> 0.59508163E+00</totfact>
</mgrwt>
</event>
<event>
 4    5  0.2473208E-007  0.1413811E+04  0.7818608E-02  0.8973025E-01
          2   -1    0    0  501    0  0.00000000000E+00  0.00000000000E+00  0.24816293459E+04  0.24816293459E+04  0.25500000000E-02 0. -1.
         -2   -1    0    0    0  501 -0.00000000000E+00 -0.00000000000E+00 -0.93024488952E+03  0.93024488952E+03  0.25500000000E-02 0.  1.
    8880023    1    1    2    0    0  0.12056765923E+04  0.33376042046E+03  0.96172587955E+00  0.14138115838E+04  0.65864270000E+03 0.  0.
    8880022    1    1    2    0    0 -0.12056765923E+04 -0.33376042046E+03  0.15504227305E+04  0.19980626516E+04  0.15294330000E+03 0.  0.
<mgrwt>
<rscale>  0 0.13737732E+04</rscale>
<asrwt>0</asrwt>
<pdfrwt beam="1">  1        2 0.38178913E+00 0.14138113E+04</pdfrwt>
<pdfrwt beam="2">  1       -2 0.14311460E+00 0.14138113E+04</pdfrwt>
<totfact> 0.11544981E+00</totfact>
</mgrwt>
</event>
<event>
 4    5  0.2473208E-007  0.6690256E+03  0.7818608E-02  0.1016371E+00
          2   -1    0    0  501    0  0.00000000000E+00  0.00000000000E+00  0.20396062165E+04  0.20396062165E+04  0.25500000000E-02 0. -1.
         -2   -1    0    0    0  501 -0.00000000000E+00 -0.00000000000E+00 -0.10911232687E+03  0.10911232690E+03  0.25500000000E-02 0.  1.
    8880023    1    1    2    0    0 -0.11541708177E+03  0.21539504756E+02  0.10328426138E+04  0.12305929970E+04  0.65864270000E+03 0.  0.
    8880022    1    1    2    0    0  0.11541708177E+03 -0.21539504756E+02  0.89765127585E+03  0.91812554647E+03  0.15294330000E+03 0.  0.
<mgrwt>
<rscale>  0 0.49019166E+03</rscale>
<asrwt>0</asrwt>
<pdfrwt beam="1">  1        2 0.31378559E+00 0.66902560E+03</pdfrwt>
<pdfrwt beam="2">  1       -2 0.16786511E-01 0.66902560E+03</pdfrwt>
<totfact> 0.18973035E+02</totfact>
</mgrwt>
</event>
<event>
 4    5  0.2473208E-007  0.1416302E+04  0.7818608E-02  0.8971118E-01
         -2   -1    0    0    0  501 -0.00000000000E+00  0.00000000000E+00  0.14785182071E+04  0.14785182071E+04  0.25500000000E-02 0.  1.
          2   -1    0    0  501    0  0.00000000000E+00 -0.00000000000E+00 -0.13889092904E+04  0.13889092904E+04  0.25500000000E-02 0. -1.
    8880023    1    1    2    0    0  0.90129127116E+03  0.87165012406E+03 -0.46109629541E+03  0.14894696688E+04  0.65864270000E+03 0. -1.
    8880022    1    1    2    0    0 -0.90129127116E+03 -0.87165012406E+03  0.55070521204E+03  0.13779578287E+04  0.15294330000E+03 0.  0.
<mgrwt>
<rscale>  0 0.13763491E+04</rscale>
<asrwt>0</asrwt>
<pdfrwt beam="1">  1        2 0.21367835E+00 0.14163016E+04</pdfrwt>
<pdfrwt beam="2">  1       -2 0.22746434E+00 0.14163016E+04</pdfrwt>
<totfact> 0.12363737E+00</totfact>
</mgrwt>
</event>
<event>
 4    5  0.2779999E-007  0.8626852E+03  0.7818608E-02  0.9588805E-01
         -2   -1    0    0    0  501 -0.00000000000E+00  0.00000000000E+00  0.15686231631E+04  0.15686231631E+04  0.25500000000E-02 0.  1.
          2   -1    0    0  501    0  0.00000000000E+00 -0.00000000000E+00 -0.13976462523E+04  0.13976462523E+04  0.25500000000E-02 0. -1.
    8880023    1    1    2    0    0 -0.55562170103E+03 -0.41232577894E+02  0.13793316748E+04  0.16268932588E+04  0.65864270000E+03 0.  1.
    8880022    1    1    2    0    0  0.55562170103E+03  0.41232577894E+02 -0.12083547640E+04  0.13393761566E+04  0.15294330000E+03 0.  0.
<mgrwt>
<rscale>  0 0.78041614E+03</rscale>
<asrwt>0</asrwt>
<pdfrwt beam="1">  1        2 0.21502250E+00 0.86268523E+03</pdfrwt>
<pdfrwt beam="2">  1       -2 0.24132664E+00 0.86268523E+03</pdfrwt>
<totfact> 0.10737970E+00</totfact>
</mgrwt>
</event>
<event>
 4    5  0.2473208E-007  0.1108624E+04  0.7818608E-02  0.9251515E-01
          2   -1    0    0  501    0  0.00000000000E+00  0.00000000000E+00  0.15344405056E+04  0.15344405056E+04  0.25500000000E-02 0. -1.
         -2   -1    0    0    0  501 -0.00000000000E+00 -0.00000000000E+00 -0.83219662404E+03  0.83219662404E+03  0.25500000000E-02 0.  1.
    8880023    1    1    2    0    0 -0.61645494470E+03 -0.64437517726E+03 -0.15601312323E+03  0.11195473946E+04  0.65864270000E+03 0.  1.
    8880022    1    1    2    0    0  0.61645494470E+03  0.64437517726E+03  0.85825700480E+03  0.12470897350E+04  0.15294330000E+03 0.  0.
<mgrwt>
<rscale>  0 0.10537168E+04</rscale>
<asrwt>0</asrwt>
<pdfrwt beam="1">  1        2 0.23606777E+00 0.11086236E+04</pdfrwt>
<pdfrwt beam="2">  1       -2 0.12803025E+00 0.11086236E+04</pdfrwt>
<totfact> 0.53838909E+00</totfact>
</mgrwt>
</event>
<event>
 4    5  0.2473208E-007  0.1458892E+04  0.7818608E-02  0.8939223E-01
         -2   -1    0    0    0  501 -0.00000000000E+00  0.00000000000E+00  0.83117210097E+03  0.83117210097E+03  0.25500000000E-02 0.  1.
          2   -1    0    0  501    0  0.00000000000E+00 -0.00000000000E+00 -0.28612623177E+04  0.28612623177E+04  0.25500000000E-02 0. -1.
    8880023    1    1    2    0    0 -0.12075463530E+04 -0.48619591483E+03 -0.24733847345E+03  0.14797098327E+04  0.65864270000E+03 0.  0.
    8880022    1    1    2    0    0  0.12075463530E+04  0.48619591483E+03 -0.17827517432E+04  0.22127245860E+04  0.15294330000E+03 0.  0.
<mgrwt>
<rscale>  0 0.14203438E+04</rscale>
<asrwt>0</asrwt>
<pdfrwt beam="1">  1        2 0.44019420E+00 0.14588917E+04</pdfrwt>
<pdfrwt beam="2">  1       -2 0.12787263E+00 0.14588917E+04</pdfrwt>
<totfact> 0.91715450E-01</totfact>
</mgrwt>
</event>
<event>
 4    5  0.2473208E-007  0.8245653E+03  0.7818608E-02  0.9660001E-01
          2   -1    0    0  501    0  0.00000000000E+00  0.00000000000E+00  0.26204876374E+04  0.26204876374E+04  0.25500000000E-02 0. -1.
         -2   -1    0    0    0  501 -0.00000000000E+00 -0.00000000000E+00 -0.23388119795E+03  0.23388119797E+03  0.25500000000E-02 0.  1.
    8880023    1    1    2    0    0  0.45596057728E+03 -0.19544236902E+03  0.67451789258E+03  0.10653085756E+04  0.65864270000E+03 0.  1.
    8880022    1    1    2    0    0 -0.45596057728E+03  0.19544236902E+03  0.17120885469E+04  0.17890602597E+04  0.15294330000E+03 0.  0.
<mgrwt>
<rscale>  0 0.73449106E+03</rscale>
<asrwt>0</asrwt>
<pdfrwt beam="1">  1        2 0.40315196E+00 0.82456532E+03</pdfrwt>
<pdfrwt beam="2">  1       -2 0.35981721E-01 0.82456532E+03</pdfrwt>
<totfact> 0.22292416E+01</totfact>
</mgrwt>
</event>
<event>
 4    5  0.2473208E-007  0.6861732E+03  0.7818608E-02  0.1006027E+00
         -2   -1    0    0    0  501 -0.00000000000E+00  0.00000000000E+00  0.48063619960E+03  0.48063619961E+03  0.25500000000E-02 0.  1.
          2   -1    0    0  501    0  0.00000000000E+00 -0.00000000000E+00 -0.81384460935E+03  0.81384460936E+03  0.25500000000E-02 0. -1.
    8880023    1    1    2    0    0  0.18851150110E+03  0.38559739695E+02  0.19376215272E+03  0.71300590296E+03  0.65864270000E+03 0.  1.
    8880022    1    1    2    0    0 -0.18851150110E+03 -0.38559739695E+02 -0.52697056248E+03  0.58147490600E+03  0.15294330000E+03 0.  0.
<mgrwt>
<rscale>  0 0.53084593E+03</rscale>
<asrwt>0</asrwt>
<pdfrwt beam="1">  1        2 0.12520686E+00 0.68617319E+03</pdfrwt>
<pdfrwt beam="2">  1       -2 0.73944031E-01 0.68617319E+03</pdfrwt>
<totfact> 0.56517920E+01</totfact>
</mgrwt>
</event>
<event>
 4    5  0.2473208E-007  0.1075246E+04  0.7818608E-02  0.9289131E-01
          2   -1    0    0  501    0  0.00000000000E+00  0.00000000000E+00  0.23815062861E+04  0.23815062861E+04  0.25500000000E-02 0. -1.
         -2   -1    0    0    0  501 -0.00000000000E+00 -0.00000000000E+00 -0.60307496658E+03  0.60307496658E+03  0.25500000000E-02 0.  1.
    8880023    1    1    2    0    0 -0.78961054704E+03 -0.31441737454E+03  0.78775087985E+02  0.10781274610E+04  0.65864270000E+03 0.  0.
    8880022    1    1    2    0    0  0.78961054704E+03  0.31441737454E+03  0.16996562315E+04  0.19064537917E+04  0.15294330000E+03 0.  0.
<mgrwt>
<rscale>  0 0.10178970E+04</rscale>
<asrwt>0</asrwt>
<pdfrwt beam="1">  1        2 0.36638559E+00 0.10752457E+04</pdfrwt>
<pdfrwt beam="2">  1       -2 0.92780762E-01 0.10752457E+04</pdfrwt>
<totfact> 0.40013570E+00</totfact>
</mgrwt>
</event>
<event>
 4    5  0.2473208E-007  0.7215255E+03  0.7818608E-02  0.9917458E-01
          2   -1    0    0  501    0  0.00000000000E+00  0.00000000000E+00  0.74213041188E+03  0.74213041189E+03  0.25500000000E-02 0. -1.
         -2   -1    0    0    0  501 -0.00000000000E+00 -0.00000000000E+00 -0.37919882681E+03  0.37919882682E+03  0.25500000000E-02 0.  1.
    8880023    1    1    2    0    0  0.22764840054E+02  0.29371866124E+03  0.18568486347E+03  0.74503554592E+03  0.65864270000E+03 0.  0.
    8880022    1    1    2    0    0 -0.22764840054E+02 -0.29371866124E+03  0.17724672160E+03  0.37629369279E+03  0.15294330000E+03 0.  1.
<mgrwt>
<rscale>  0 0.59422633E+03</rscale>
<asrwt>0</asrwt>
<pdfrwt beam="1">  1        2 0.11417391E+00 0.72152553E+03</pdfrwt>
<pdfrwt beam="2">  1       -2 0.58338282E-01 0.72152553E+03</pdfrwt>
<totfact> 0.10591032E+02</totfact>
</mgrwt>
</event>
<event>
 4    5  0.2473208E-007  0.7134377E+03  0.7818608E-02  0.9945450E-01
          2   -1    0    0  501    0  0.00000000000E+00  0.00000000000E+00  0.13634587852E+04  0.13634587852E+04  0.25500000000E-02 0. -1.
         -2   -1    0    0    0  501 -0.00000000000E+00 -0.00000000000E+00 -0.21255152420E+03  0.21255152421E+03  0.25500000000E-02 0.  1.
    8880023    1    1    2    0    0 -0.14789174231E+03  0.23089201907E+03  0.56036667180E+03  0.90719573689E+03  0.65864270000E+03 0.  1.
    8880022    1    1    2    0    0  0.14789174231E+03 -0.23089201907E+03  0.59054058922E+03  0.66881457254E+03  0.15294330000E+03 0. -1.
<mgrwt>
<rscale>  0 0.58108241E+03</rscale>
<asrwt>0</asrwt>
<pdfrwt beam="1">  1        2 0.20976289E+00 0.71343766E+03</pdfrwt>
<pdfrwt beam="2">  1       -2 0.32700234E-01 0.71343766E+03</pdfrwt>
<totfact> 0.13481126E+02</totfact>
</mgrwt>
</event>
<event>
 4    5  0.2859625E-007  0.1105492E+04  0.7818608E-02  0.9254966E-01
         -2   -1    0    0    0  501 -0.00000000000E+00  0.00000000000E+00  0.11682540055E+04  0.11682540055E+04  0.25500000000E-02 0.  1.
          2   -1    0    0  501    0  0.00000000000E+00 -0.00000000000E+00 -0.23042787913E+04  0.23042787913E+04  0.25500000000E-02 0. -1.
    8880023    1    1    2    0    0 -0.67328122003E+03 -0.57878772955E+03  0.78154877019E+03  0.13538580146E+04  0.65864270000E+03 0.  0.
    8880022    1    1    2    0    0  0.67328122003E+03  0.57878772955E+03 -0.19175735560E+04  0.21186747822E+04  0.15294330000E+03 0.  0.
<mgrwt>
<rscale>  0 0.10503665E+04</rscale>
<asrwt>0</asrwt>
<pdfrwt beam="1">  1        2 0.35450443E+00 0.11054922E+04</pdfrwt>
<pdfrwt beam="2">  1       -2 0.17973139E+00 0.11054922E+04</pdfrwt>
<totfact> 0.81002589E-01</totfact>
</mgrwt>
</event>
<event>
 4    5  0.2473208E-007  0.7071476E+03  0.7818608E-02  0.9968750E-01
         -2   -1    0    0    0  501 -0.00000000000E+00  0.00000000000E+00  0.44153611232E+03  0.44153611233E+03  0.25500000000E-02 0.  1.
          2   -1    0    0  501    0  0.00000000000E+00 -0.00000000000E+00 -0.21485270718E+04  0.21485270718E+04  0.25500000000E-02 0. -1.
    8880023    1    1    2    0    0 -0.91694111645E+02  0.24049880510E+03  0.13838204878E+03  0.72056039515E+03  0.65864270000E+03 0.  1.
    8880022    1    1    2    0    0  0.91694111645E+02 -0.24049880510E+03 -0.18453730083E+04  0.18695027890E+04  0.15294330000E+03 0.  0.
<mgrwt>
<rscale>  0 0.57042001E+03</rscale>
<asrwt>0</asrwt>
<pdfrwt beam="1">  1        2 0.33054262E+00 0.70714757E+03</pdfrwt>
<pdfrwt beam="2">  1       -2 0.67928634E-01 0.70714757E+03</pdfrwt>
<totfact> 0.11457511E+01</totfact>
</mgrwt>
</event>
<event>
 4    5  0.2473208E-007  0.1296492E+04  0.7818608E-02  0.9068595E-01
          2   -1    0    0  501    0  0.00000000000E+00  0.00000000000E+00  0.10130461407E+04  0.10130461407E+04  0.25500000000E-02 0. -1.
         -2   -1    0    0    0  501 -0.00000000000E+00 -0.00000000000E+00 -0.17151011041E+04  0.17151011042E+04  0.25500000000E-02 0.  1.
    8880023    1    1    2    0    0  0.11129963602E+04 -0.91223323028E+02 -0.90733899019E+03  0.15824527929E+04  0.65864270000E+03 0.  0.
    8880022    1    1    2    0    0 -0.11129963602E+04  0.91223323028E+02  0.20528402671E+03  0.11456944519E+04  0.15294330000E+03 0.  0.
<mgrwt>
<rscale>  0 0.12519104E+04</rscale>
<asrwt>0</asrwt>
<pdfrwt beam="1">  1        2 0.15585325E+00 0.12964925E+04</pdfrwt>
<pdfrwt beam="2">  1       -2 0.26386171E+00 0.12964925E+04</pdfrwt>
<totfact> 0.12601678E+00</totfact>
</mgrwt>
</event>
<event>
 4    5  0.2473208E-007  0.8400912E+03  0.7818608E-02  0.9630008E-01
         -2   -1    0    0    0  501 -0.00000000000E+00  0.00000000000E+00  0.61432782035E+03  0.61432782035E+03  0.25500000000E-02 0.  1.
          2   -1    0    0  501    0  0.00000000000E+00 -0.00000000000E+00 -0.16674643794E+04  0.16674643794E+04  0.25500000000E-02 0. -1.
    8880023    1    1    2    0    0  0.46942394792E+03  0.22712138058E+03  0.24450481479E+03  0.87494901286E+03  0.65864270000E+03 0. -1.
    8880022    1    1    2    0    0 -0.46942394792E+03 -0.22712138058E+03 -0.12976413739E+04  0.14068431869E+04  0.15294330000E+03 0.  0.
<mgrwt>
<rscale>  0 0.75341473E+03</rscale>
<asrwt>0</asrwt>
<pdfrwt beam="1">  1        2 0.25653298E+00 0.84009117E+03</pdfrwt>
<pdfrwt beam="2">  1       -2 0.94511973E-01 0.84009117E+03</pdfrwt>
<totfact> 0.97962804E+00</totfact>
</mgrwt>
</event>
<event>
 4    5  0.2473208E-007  0.8215661E+03  0.7818608E-02  0.9665971E-01
          2   -1    0    0  501    0  0.00000000000E+00  0.00000000000E+00  0.72087989369E+03  0.72087989370E+03  0.25500000000E-02 0. -1.
         -2   -1    0    0    0  501 -0.00000000000E+00 -0.00000000000E+00 -0.65453606656E+03  0.65453606657E+03  0.25500000000E-02 0.  1.
    8880023    1    1    2    0    0  0.37244561142E+03 -0.32007009836E+03 -0.11597704451E+03  0.82971168634E+03  0.65864270000E+03 0.  0.
    8880022    1    1    2    0    0 -0.37244561142E+03  0.32007009836E+03  0.18232087164E+03  0.54570427392E+03  0.15294330000E+03 0.  0.
<mgrwt>
<rscale>  0 0.73079540E+03</rscale>
<asrwt>0</asrwt>
<pdfrwt beam="1">  1        2 0.11090460E+00 0.82156607E+03</pdfrwt>
<pdfrwt beam="2">  1       -2 0.10069786E+00 0.82156607E+03</pdfrwt>
<totfact> 0.32309632E+01</totfact>
</mgrwt>
</event>
<event>
 4    5  0.2473208E-007  0.6811262E+03  0.7818608E-02  0.1008694E+00
         -2   -1    0    0    0  501 -0.00000000000E+00  0.00000000000E+00  0.27630851477E+03  0.27630851478E+03  0.25500000000E-02 0.  1.
          2   -1    0    0  501    0  0.00000000000E+00 -0.00000000000E+00 -0.20731231517E+04  0.20731231517E+04  0.25500000000E-02 0. -1.
    8880023    1    1    2    0    0  0.15898785965E+03 -0.69609614707E+02 -0.16437109756E+03  0.70067874376E+03  0.65864270000E+03 0.  0.
    8880022    1    1    2    0    0 -0.15898785965E+03  0.69609614707E+02 -0.16324435393E+04  0.16487529227E+04  0.15294330000E+03 0.  0.
<mgrwt>
<rscale>  0 0.51997132E+03</rscale>
<asrwt>0</asrwt>
<pdfrwt beam="1">  1        2 0.31894201E+00 0.68112616E+03</pdfrwt>
<pdfrwt beam="2">  1       -2 0.42509003E-01 0.68112616E+03</pdfrwt>
<totfact> 0.33292943E+01</totfact>
</mgrwt>
</event>
<event>
 4    5  0.2473208E-007  0.1504739E+04  0.7818608E-02  0.8906297E-01
         -2   -1    0    0    0  501 -0.00000000000E+00  0.00000000000E+00  0.93004972667E+03  0.93004972668E+03  0.25500000000E-02 0.  1.
          2   -1    0    0  501    0  0.00000000000E+00 -0.00000000000E+00 -0.22389228939E+04  0.22389228939E+04  0.25500000000E-02 0. -1.
    8880023    1    1    2    0    0  0.82592317316E+03  0.10715780284E+04 -0.50184844794E+03  0.15862189728E+04  0.65864270000E+03 0.  0.
    8880022    1    1    2    0    0 -0.82592317316E+03 -0.10715780284E+04 -0.80702471925E+03  0.15827536477E+04  0.15294330000E+03 0.  0.
<mgrwt>
<rscale>  0 0.14675884E+04</rscale>
<asrwt>0</asrwt>
<pdfrwt beam="1">  1        2 0.34444967E+00 0.15047388E+04</pdfrwt>
<pdfrwt beam="2">  1       -2 0.14308457E+00 0.15047388E+04</pdfrwt>
<totfact> 0.15740772E+00</totfact>
</mgrwt>
</event>
<event>
 4    5  0.2473208E-007  0.1144484E+04  0.7818608E-02  0.9213073E-01
         -2   -1    0    0    0  501 -0.00000000000E+00  0.00000000000E+00  0.67104646231E+03  0.67104646232E+03  0.25500000000E-02 0.  1.
          2   -1    0    0  501    0  0.00000000000E+00 -0.00000000000E+00 -0.32751074802E+04  0.32751074802E+04  0.25500000000E-02 0. -1.
    8880023    1    1    2    0    0  0.48357858525E+03 -0.80136517579E+03 -0.27573773163E+04  0.29854604777E+04  0.65864270000E+03 0. -1.
    8880022    1    1    2    0    0 -0.48357858525E+03  0.80136517579E+03  0.15331629838E+03  0.96069346487E+03  0.15294330000E+03 0.  0.
<mgrwt>
<rscale>  0 0.10919509E+04</rscale>
<asrwt>0</asrwt>
<pdfrwt beam="1">  1        2 0.50386268E+00 0.11444844E+04</pdfrwt>
<pdfrwt beam="2">  1       -2 0.10323792E+00 0.11444844E+04</pdfrwt>
<totfact> 0.88875646E-01</totfact>
</mgrwt>
</event>
<event>
 4    5  0.2473208E-007  0.7677430E+03  0.7818608E-02  0.9785459E-01
         -2   -1    0    0    0  501 -0.00000000000E+00  0.00000000000E+00  0.46919478551E+03  0.46919478552E+03  0.25500000000E-02 0.  1.
          2   -1    0    0  501    0  0.00000000000E+00 -0.00000000000E+00 -0.22325606498E+04  0.22325606498E+04  0.25500000000E-02 0. -1.
    8880023    1    1    2    0    0 -0.26510662757E+03  0.29212592727E+03  0.11501810230E+03  0.77631079568E+03  0.65864270000E+03 0.  0.
    8880022    1    1    2    0    0  0.26510662757E+03 -0.29212592727E+03 -0.18783839666E+04  0.19254446397E+04  0.15294330000E+03 0.  0.
<mgrwt>
<rscale>  0 0.66148770E+03</rscale>
<asrwt>0</asrwt>
<pdfrwt beam="1">  1        2 0.34347086E+00 0.76774298E+03</pdfrwt>
<pdfrwt beam="2">  1       -2 0.72183814E-01 0.76774298E+03</pdfrwt>
<totfact> 0.89336670E+00</totfact>
</mgrwt>
</event>
<event>
 4    5  0.2473208E-007  0.1257960E+04  0.7818608E-02  0.9102742E-01
          2   -1    0    0  501    0  0.00000000000E+00  0.00000000000E+00  0.26673961816E+04  0.26673961816E+04  0.25500000000E-02 0. -1.
         -2   -1    0    0    0  501 -0.00000000000E+00 -0.00000000000E+00 -0.13871206647E+04  0.13871206647E+04  0.25500000000E-02 0.  1.
    8880023    1    1    2    0    0  0.10140007998E+04 -0.34706751107E+03 -0.94932910431E+03  0.15759725358E+04  0.65864270000E+03 0.  0.
    8880022    1    1    2    0    0 -0.10140007998E+04  0.34706751107E+03  0.22296046212E+04  0.24785443105E+04  0.15294330000E+03 0.  0.
<mgrwt>
<rscale>  0 0.12116249E+04</rscale>
<asrwt>0</asrwt>
<pdfrwt beam="1">  1        2 0.41036864E+00 0.12579601E+04</pdfrwt>
<pdfrwt beam="2">  1       -2 0.21340318E+00 0.12579601E+04</pdfrwt>
<totfact> 0.29316060E-01</totfact>
</mgrwt>
</event>
<event>
 4    5  0.2473208E-007  0.7800118E+03  0.7818608E-02  0.9755809E-01
          2   -1    0    0  501    0  0.00000000000E+00  0.00000000000E+00  0.13656284353E+03  0.13656284355E+03  0.25500000000E-02 0. -1.
         -2   -1    0    0    0  501 -0.00000000000E+00 -0.00000000000E+00 -0.39296096279E+04  0.39296096279E+04  0.25500000000E-02 0.  1.
    8880023    1    1    2    0    0 -0.41742253774E+03 -0.19145881195E+02 -0.33448814412E+04  0.34346251909E+04  0.65864270000E+03 0.  0.
    8880022    1    1    2    0    0  0.41742253774E+03  0.19145881195E+02 -0.44816534319E+03  0.63154728060E+03  0.15294330000E+03 0.  0.
<mgrwt>
<rscale>  0 0.67788957E+03</rscale>
<asrwt>0</asrwt>
<pdfrwt beam="1">  1        2 0.21009671E-01 0.78001176E+03</pdfrwt>
<pdfrwt beam="2">  1       -2 0.60455524E+00 0.78001176E+03</pdfrwt>
<totfact> 0.13271745E-01</totfact>
</mgrwt>
</event>
<event>
 4    5  0.2922373E-007  0.1004246E+04  0.7818608E-02  0.9376023E-01
         -2   -1    0    0    0  501 -0.00000000000E+00  0.00000000000E+00  0.11266694010E+04  0.11266694010E+04  0.25500000000E-02 0.  1.
          2   -1    0    0  501    0  0.00000000000E+00 -0.00000000000E+00 -0.20853375446E+04  0.20853375446E+04  0.25500000000E-02 0. -1.
    8880023    1    1    2    0    0 -0.43037641038E+03  0.62408037269E+03  0.80445837561E+03  0.12867259423E+04  0.65864270000E+03 0.  1.
    8880022    1    1    2    0    0  0.43037641038E+03 -0.62408037269E+03 -0.17631265191E+04  0.19252810033E+04  0.15294330000E+03 0.  0.
<mgrwt>
<rscale>  0 0.94075410E+03</rscale>
<asrwt>0</asrwt>
<pdfrwt beam="1">  1        2 0.32082116E+00 0.10042462E+04</pdfrwt>
<pdfrwt beam="2">  1       -2 0.17333375E+00 0.10042462E+04</pdfrwt>
<totfact> 0.12065048E+00</totfact>
</mgrwt>
</event>
<event>
 4    5  0.2473208E-007  0.7143804E+03  0.7818608E-02  0.9942081E-01
         -2   -1    0    0    0  501 -0.00000000000E+00  0.00000000000E+00  0.25177846152E+03  0.25177846154E+03  0.25500000000E-02 0.  1.
          2   -1    0    0  501    0  0.00000000000E+00 -0.00000000000E+00 -0.16191363416E+04  0.16191363416E+04  0.25500000000E-02 0. -1.
    8880023    1    1    2    0    0 -0.25053842567E+03  0.11730135275E+03 -0.33084389541E+03  0.78727187139E+03  0.65864270000E+03 0.  1.
    8880022    1    1    2    0    0  0.25053842567E+03 -0.11730135275E+03 -0.10365139846E+04  0.10836429317E+04  0.15294330000E+03 0.  0.
<mgrwt>
<rscale>  0 0.58264511E+03</rscale>
<asrwt>0</asrwt>
<pdfrwt beam="1">  1        2 0.24909789E+00 0.71438037E+03</pdfrwt>
<pdfrwt beam="2">  1       -2 0.38735149E-01 0.71438037E+03</pdfrwt>
<totfact> 0.70273727E+01</totfact>
</mgrwt>
</event>
<event>
 4    5  0.2473208E-007  0.1389429E+04  0.7818608E-02  0.8991940E-01
         -2   -1    0    0    0  501 -0.00000000000E+00  0.00000000000E+00  0.13597783164E+04  0.13597783164E+04  0.25500000000E-02 0.  1.
          2   -1    0    0  501    0  0.00000000000E+00 -0.00000000000E+00 -0.27027018376E+04  0.27027018376E+04  0.25500000000E-02 0. -1.
    8880023    1    1    2    0    0 -0.18122657377E+03  0.12099007478E+04  0.79039524378E+03  0.15985111004E+04  0.65864270000E+03 0.  0.
    8880022    1    1    2    0    0  0.18122657377E+03 -0.12099007478E+04 -0.21333187650E+04  0.24639690535E+04  0.15294330000E+03 0.  0.
<mgrwt>
<rscale>  0 0.13485315E+04</rscale>
<asrwt>0</asrwt>
<pdfrwt beam="1">  1        2 0.41580028E+00 0.13894291E+04</pdfrwt>
<pdfrwt beam="2">  1       -2 0.20919666E+00 0.13894291E+04</pdfrwt>
<totfact> 0.29217102E-01</totfact>
</mgrwt>
</event>
<event>
 4    5  0.2473208E-007  0.1019123E+04  0.7818608E-02  0.9356956E-01
          2   -1    0    0  501    0  0.00000000000E+00  0.00000000000E+00  0.78915090631E+03  0.78915090632E+03  0.25500000000E-02 0. -1.
         -2   -1    0    0    0  501 -0.00000000000E+00 -0.00000000000E+00 -0.20637212533E+04  0.20637212533E+04  0.25500000000E-02 0.  1.
    8880023    1    1    2    0    0  0.12241437498E+03 -0.76799493908E+03 -0.16782164354E+04  0.19634210236E+04  0.65864270000E+03 0.  0.
    8880022    1    1    2    0    0 -0.12241437498E+03  0.76799493908E+03  0.40364608841E+03  0.88945113601E+03  0.15294330000E+03 0.  0.
<mgrwt>
<rscale>  0 0.95704334E+03</rscale>
<asrwt>0</asrwt>
<pdfrwt beam="1">  1        2 0.12140783E+00 0.10191230E+04</pdfrwt>
<pdfrwt beam="2">  1       -2 0.31749558E+00 0.10191230E+04</pdfrwt>
<totfact> 0.87438723E-01</totfact>
</mgrwt>
</event>
<event>
 4    5  0.2473208E-007  0.1277355E+04  0.7818608E-02  0.9085366E-01
         -2   -1    0    0    0  501 -0.00000000000E+00  0.00000000000E+00  0.94744712618E+03  0.94744712618E+03  0.25500000000E-02 0.  1.
          2   -1    0    0  501    0  0.00000000000E+00 -0.00000000000E+00 -0.30292530222E+04  0.30292530222E+04  0.25500000000E-02 0. -1.
    8880023    1    1    2    0    0  0.74022969313E+03 -0.80615426937E+03  0.33385905511E+03  0.13202639053E+04  0.65864270000E+03 0.  1.
    8880022    1    1    2    0    0 -0.74022969313E+03  0.80615426937E+03 -0.24156649511E+04  0.26564362431E+04  0.15294330000E+03 0.  0.
<mgrwt>
<rscale>  0 0.12319205E+04</rscale>
<asrwt>0</asrwt>
<pdfrwt beam="1">  1        2 0.46603892E+00 0.12773547E+04</pdfrwt>
<pdfrwt beam="2">  1       -2 0.14576110E+00 0.12773547E+04</pdfrwt>
<totfact> 0.52595689E-01</totfact>
</mgrwt>
</event>
<event>
 4    5  0.2473208E-007  0.1019749E+04  0.7818608E-02  0.9356164E-01
          2   -1    0    0  501    0  0.00000000000E+00  0.00000000000E+00  0.31009891469E+04  0.31009891469E+04  0.25500000000E-02 0. -1.
         -2   -1    0    0    0  501 -0.00000000000E+00 -0.00000000000E+00 -0.41949155204E+03  0.41949155205E+03  0.25500000000E-02 0.  1.
    8880023    1    1    2    0    0 -0.18006530151E+03 -0.75739949683E+03  0.38366738581E+03  0.10895358552E+04  0.65864270000E+03 0.  0.
    8880022    1    1    2    0    0  0.18006530151E+03  0.75739949683E+03  0.22978302090E+04  0.24309448437E+04  0.15294330000E+03 0.  0.
<mgrwt>
<rscale>  0 0.95772699E+03</rscale>
<asrwt>0</asrwt>
<pdfrwt beam="1">  1        2 0.47707527E+00 0.10197488E+04</pdfrwt>
<pdfrwt beam="2">  1       -2 0.64537159E-01 0.10197488E+04</pdfrwt>
<totfact> 0.34046595E+00</totfact>
</mgrwt>
</event>
<event>
 4    5  0.2473208E-007  0.1731657E+04  0.7818608E-02  0.8761314E-01
         -2   -1    0    0    0  501 -0.00000000000E+00  0.00000000000E+00  0.73352616539E+03  0.73352616539E+03  0.25500000000E-02 0.  1.
          2   -1    0    0  501    0  0.00000000000E+00 -0.00000000000E+00 -0.45565637221E+04  0.45565637221E+04  0.25500000000E-02 0. -1.
    8880023    1    1    2    0    0 -0.92885233296E+03  0.13046294252E+04 -0.30451996976E+04  0.35031237486E+04  0.65864270000E+03 0.  0.
    8880022    1    1    2    0    0  0.92885233296E+03 -0.13046294252E+04 -0.77783785913E+03  0.17869661389E+04  0.15294330000E+03 0.  0.
<mgrwt>
<rscale>  0 0.17000880E+04</rscale>
<asrwt>0</asrwt>
<pdfrwt beam="1">  1        2 0.70100978E+00 0.17316567E+04</pdfrwt>
<pdfrwt beam="2">  1       -2 0.11285018E+00 0.17316567E+04</pdfrwt>
<totfact> 0.63329242E-02</totfact>
</mgrwt>
</event>
<event>
 4    5  0.2473208E-007  0.8413564E+03  0.7818608E-02  0.9627628E-01
          2   -1    0    0  501    0  0.00000000000E+00  0.00000000000E+00  0.23596583080E+04  0.23596583080E+04  0.25500000000E-02 0. -1.
         -2   -1    0    0    0  501 -0.00000000000E+00 -0.00000000000E+00 -0.30292867048E+03  0.30292867049E+03  0.25500000000E-02 0.  1.
    8880023    1    1    2    0    0 -0.15033387405E+03 -0.50146791935E+03  0.42597534776E+03  0.94304589018E+03  0.65864270000E+03 0.  0.
    8880022    1    1    2    0    0  0.15033387405E+03  0.50146791935E+03  0.16307542898E+04  0.17195410884E+04  0.15294330000E+03 0.  0.
<mgrwt>
<rscale>  0 0.75494260E+03</rscale>
<asrwt>0</asrwt>
<pdfrwt beam="1">  1        2 0.36302436E+00 0.84135638E+03</pdfrwt>
<pdfrwt beam="2">  1       -2 0.46604411E-01 0.84135638E+03</pdfrwt>
<totfact> 0.18833825E+01</totfact>
</mgrwt>
</event>
<event>
 4    5  0.2473208E-007  0.7004657E+03  0.7818608E-02  0.9995275E-01
          2   -1    0    0  501    0  0.00000000000E+00  0.00000000000E+00  0.56018377945E+03  0.56018377945E+03  0.25500000000E-02 0. -1.
         -2   -1    0    0    0  501 -0.00000000000E+00 -0.00000000000E+00 -0.64958537727E+03  0.64958537728E+03  0.25500000000E-02 0.  1.
    8880023    1    1    2    0    0  0.69819890604E+02 -0.22796315011E+03 -0.38588545846E+03  0.79972483283E+03  0.65864270000E+03 0.  0.
    8880022    1    1    2    0    0 -0.69819890604E+02  0.22796315011E+03  0.29648386063E+03  0.41004432390E+03  0.15294330000E+03 0.  0.
<mgrwt>
<rscale>  0 0.55857918E+03</rscale>
<asrwt>0</asrwt>
<pdfrwt beam="1">  1        2 0.86182119E-01 0.70046572E+03</pdfrwt>
<pdfrwt beam="2">  1       -2 0.99936213E-01 0.70046572E+03</pdfrwt>
<totfact> 0.45265093E+01</totfact>
</mgrwt>
</event>
<event>
 4    5  0.2473208E-007  0.7258227E+03  0.7818608E-02  0.9903355E-01
          2   -1    0    0  501    0  0.00000000000E+00  0.00000000000E+00  0.16543861751E+04  0.16543861751E+04  0.25500000000E-02 0. -1.
         -2   -1    0    0    0  501 -0.00000000000E+00 -0.00000000000E+00 -0.79529838845E+03  0.79529838846E+03  0.25500000000E-02 0.  1.
    8880023    1    1    2    0    0  0.30477721570E+03  0.10920576381E+02 -0.60590833821E+03  0.94548587022E+03  0.65864270000E+03 0.  1.
    8880022    1    1    2    0    0 -0.30477721570E+03 -0.10920576381E+02  0.14649961249E+04  0.15041986933E+04  0.15294330000E+03 0.  0.
<mgrwt>
<rscale>  0 0.60098976E+03</rscale>
<asrwt>0</asrwt>
<pdfrwt beam="1">  1        2 0.25452095E+00 0.72582272E+03</pdfrwt>
<pdfrwt beam="2">  1       -2 0.12235360E+00 0.72582272E+03</pdfrwt>
<totfact> 0.54297196E+00</totfact>
</mgrwt>
</event>
<event>
 4    5  0.2473208E-007  0.9228194E+03  0.7818608E-02  0.9490349E-01
          2   -1    0    0  501    0  0.00000000000E+00  0.00000000000E+00  0.92481719681E+03  0.92481719681E+03  0.25500000000E-02 0. -1.
         -2   -1    0    0    0  501 -0.00000000000E+00 -0.00000000000E+00 -0.11122623788E+04  0.11122623788E+04  0.25500000000E-02 0.  1.
    8880023    1    1    2    0    0  0.19425029831E+03  0.61648379076E+03 -0.73222875332E+03  0.11780299640E+04  0.65864270000E+03 0.  1.
    8880022    1    1    2    0    0 -0.19425029831E+03 -0.61648379076E+03  0.54478357130E+03  0.85904961163E+03  0.15294330000E+03 0.  0.
<mgrwt>
<rscale>  0 0.84999067E+03</rscale>
<asrwt>0</asrwt>
<pdfrwt beam="1">  1        2 0.14227957E+00 0.92281940E+03</pdfrwt>
<pdfrwt beam="2">  1       -2 0.17111729E+00 0.92281940E+03</pdfrwt>
<totfact> 0.58992764E+00</totfact>
</mgrwt>
</event>
<event>
 4    5  0.2473208E-007  0.1904613E+04  0.7818608E-02  0.8666774E-01
          2   -1    0    0  501    0  0.00000000000E+00  0.00000000000E+00  0.29662227131E+04  0.29662227131E+04  0.25500000000E-02 0. -1.
         -2   -1    0    0    0  501 -0.00000000000E+00 -0.00000000000E+00 -0.14758162641E+04  0.14758162641E+04  0.25500000000E-02 0.  1.
    8880023    1    1    2    0    0  0.32606866200E+03 -0.17571059071E+04 -0.27615056022E+03  0.19245288460E+04  0.65864270000E+03 0.  0.
    8880022    1    1    2    0    0 -0.32606866200E+03  0.17571059071E+04  0.17665570091E+04  0.25175101312E+04  0.15294330000E+03 0.  0.
<mgrwt>
<rscale>  0 0.18762416E+04</rscale>
<asrwt>0</asrwt>
<pdfrwt beam="1">  1        2 0.45634195E+00 0.19046134E+04</pdfrwt>
<pdfrwt beam="2">  1       -2 0.22704866E+00 0.19046134E+04</pdfrwt>
<totfact> 0.14657911E-01</totfact>
</mgrwt>
</event>
<event>
 4    5  0.2473208E-007  0.6631819E+03  0.7818608E-02  0.1021110E+00
         -2   -1    0    0    0  501 -0.00000000000E+00  0.00000000000E+00  0.58651274777E+03  0.58651274778E+03  0.25500000000E-02 0.  1.
          2   -1    0    0  501    0  0.00000000000E+00 -0.00000000000E+00 -0.46358150262E+03  0.46358150262E+03  0.25500000000E-02 0. -1.
    8880023    1    1    2    0    0 -0.10695713683E+02  0.76717580954E+02  0.36227795517E+03  0.75568214785E+03  0.65864270000E+03 0.  1.
    8880022    1    1    2    0    0  0.10695713683E+02 -0.76717580954E+02 -0.23934671001E+03  0.29441210255E+03  0.15294330000E+03 0.  0.
<mgrwt>
<rscale>  0 0.47288165E+03</rscale>
<asrwt>0</asrwt>
<pdfrwt beam="1">  1        2 0.71320231E-01 0.66318187E+03</pdfrwt>
<pdfrwt beam="2">  1       -2 0.90232730E-01 0.66318187E+03</pdfrwt>
<totfact> 0.71783457E+01</totfact>
</mgrwt>
</event>
<event>
 4    5  0.2473208E-007  0.9896078E+03  0.7818608E-02  0.9395282E-01
          2   -1    0    0  501    0  0.00000000000E+00  0.00000000000E+00  0.16427743092E+04  0.16427743092E+04  0.25500000000E-02 0. -1.
         -2   -1    0    0    0  501 -0.00000000000E+00 -0.00000000000E+00 -0.89016517494E+03  0.89016517494E+03  0.25500000000E-02 0.  1.
    8880023    1    1    2    0    0  0.65043565031E+03 -0.34992413940E+03 -0.47065722132E+03  0.10958293046E+04  0.65864270000E+03 0.  0.
    8880022    1    1    2    0    0 -0.65043565031E+03  0.34992413940E+03  0.12232663556E+04  0.14371101796E+04  0.15294330000E+03 0.  0.
<mgrwt>
<rscale>  0 0.92464988E+03</rscale>
<asrwt>0</asrwt>
<pdfrwt beam="1">  1        2 0.25273451E+00 0.98960782E+03</pdfrwt>
<pdfrwt beam="2">  1       -2 0.13694849E+00 0.98960782E+03</pdfrwt>
<totfact> 0.39953353E+00</totfact>
</mgrwt>
</event>
<event>
 4    5  0.2473208E-007  0.8259786E+03  0.7818608E-02  0.9657208E-01
         -2   -1    0    0    0  501 -0.00000000000E+00  0.00000000000E+00  0.23763574863E+03  0.23763574865E+03  0.25500000000E-02 0.  1.
          2   -1    0    0  501    0  0.00000000000E+00 -0.00000000000E+00 -0.22178729931E+04  0.22178729931E+04  0.25500000000E-02 0. -1.
    8880023    1    1    2    0    0 -0.45396715995E+02  0.49635630483E+03 -0.73546577975E+03  0.11059613748E+04  0.65864270000E+03 0.  0.
    8880022    1    1    2    0    0  0.45396715995E+02 -0.49635630483E+03 -0.12447714647E+04  0.13495473669E+04  0.15294330000E+03 0.  0.
<mgrwt>
<rscale>  0 0.73622776E+03</rscale>
<asrwt>0</asrwt>
<pdfrwt beam="1">  1        2 0.34121122E+00 0.82597860E+03</pdfrwt>
<pdfrwt beam="2">  1       -2 0.36559348E-01 0.82597860E+03</pdfrwt>
<totfact> 0.36471337E+01</totfact>
</mgrwt>
</event>
<event>
 4    5  0.2473208E-007  0.1397609E+04  0.7818608E-02  0.8985543E-01
          2   -1    0    0  501    0  0.00000000000E+00  0.00000000000E+00  0.14373751783E+04  0.14373751783E+04  0.25500000000E-02 0. -1.
         -2   -1    0    0    0  501 -0.00000000000E+00 -0.00000000000E+00 -0.13089788246E+04  0.13089788246E+04  0.25500000000E-02 0.  1.
    8880023    1    1    2    0    0  0.88666340556E+03  0.85634624547E+03  0.44091717737E+03  0.14655098261E+04  0.65864270000E+03 0.  0.
    8880022    1    1    2    0    0 -0.88666340556E+03 -0.85634624547E+03 -0.31252082369E+03  0.12808441768E+04  0.15294330000E+03 0.  0.
<mgrwt>
<rscale>  0 0.13570044E+04</rscale>
<asrwt>0</asrwt>
<pdfrwt beam="1">  1        2 0.22113464E+00 0.13976091E+04</pdfrwt>
<pdfrwt beam="2">  1       -2 0.20138136E+00 0.13976091E+04</pdfrwt>
<totfact> 0.17072244E+00</totfact>
</mgrwt>
</event>
<event>
 4    5  0.2473208E-007  0.1091814E+04  0.7818608E-02  0.9270225E-01
          2   -1    0    0  501    0  0.00000000000E+00  0.00000000000E+00  0.26690481623E+04  0.26690481623E+04  0.25500000000E-02 0. -1.
         -2   -1    0    0    0  501 -0.00000000000E+00 -0.00000000000E+00 -0.37230196745E+03  0.37230196746E+03  0.25500000000E-02 0.  1.
    8880023    1    1    2    0    0  0.81778228533E+03 -0.29913204677E+03  0.10655054171E+04  0.15255686965E+04  0.65864270000E+03 0.  0.
    8880022    1    1    2    0    0 -0.81778228533E+03  0.29913204677E+03  0.12312407778E+04  0.15157814333E+04  0.15294330000E+03 0.  0.
<mgrwt>
<rscale>  0 0.10357080E+04</rscale>
<asrwt>0</asrwt>
<pdfrwt beam="1">  1        2 0.41062278E+00 0.10918141E+04</pdfrwt>
<pdfrwt beam="2">  1       -2 0.57277228E-01 0.10918141E+04</pdfrwt>
<totfact> 0.79440049E+00</totfact>
</mgrwt>
</event>
<event>
 4    5  0.2473208E-007  0.7692724E+03  0.7818608E-02  0.9781668E-01
         -2   -1    0    0    0  501 -0.00000000000E+00  0.00000000000E+00  0.70470071435E+03  0.70470071435E+03  0.25500000000E-02 0.  1.
          2   -1    0    0  501    0  0.00000000000E+00 -0.00000000000E+00 -0.21480776787E+04  0.21480776787E+04  0.25500000000E-02 0. -1.
    8880023    1    1    2    0    0  0.39696853749E+03 -0.19641011904E+02  0.46404249026E+03  0.89839603079E+03  0.65864270000E+03 0.  1.
    8880022    1    1    2    0    0 -0.39696853749E+03  0.19641011904E+02 -0.19074194546E+04  0.19543823622E+04  0.15294330000E+03 0.  0.
<mgrwt>
<rscale>  0 0.66355698E+03</rscale>
<asrwt>0</asrwt>
<pdfrwt beam="1">  1        2 0.33047349E+00 0.76927238E+03</pdfrwt>
<pdfrwt beam="2">  1       -2 0.10841549E+00 0.76927238E+03</pdfrwt>
<totfact> 0.38960414E+00</totfact>
</mgrwt>
</event>
<event>
 4    5  0.2473208E-007  0.6752700E+03  0.7818608E-02  0.1012137E+00
         -2   -1    0    0    0  501 -0.00000000000E+00  0.00000000000E+00  0.17423232053E+03  0.17423232055E+03  0.25500000000E-02 0.  1.
          2   -1    0    0  501    0  0.00000000000E+00 -0.00000000000E+00 -0.37867463945E+04  0.37867463945E+04  0.25500000000E-02 0. -1.
    8880023    1    1    2    0    0 -0.13304016689E+03  0.66930581039E+02 -0.49771789558E+03  0.83887585406E+03  0.65864270000E+03 0.  1.
    8880022    1    1    2    0    0  0.13304016689E+03 -0.66930581039E+02 -0.31147961784E+04  0.31221028610E+04  0.15294330000E+03 0.  0.
<mgrwt>
<rscale>  0 0.50634231E+03</rscale>
<asrwt>0</asrwt>
<pdfrwt beam="1">  1        2 0.58257631E+00 0.67527002E+03</pdfrwt>
<pdfrwt beam="2">  1       -2 0.26804975E-01 0.67527002E+03</pdfrwt>
<totfact> 0.70507781E+00</totfact>
</mgrwt>
</event>
<event>
 4    5  0.2473208E-007  0.7924619E+03  0.7818608E-02  0.9727338E-01
          2   -1    0    0  501    0  0.00000000000E+00  0.00000000000E+00  0.22004149077E+04  0.22004149077E+04  0.25500000000E-02 0. -1.
         -2   -1    0    0    0  501 -0.00000000000E+00 -0.00000000000E+00 -0.46752229870E+03  0.46752229870E+03  0.25500000000E-02 0.  1.
    8880023    1    1    2    0    0 -0.24226769699E+03 -0.36809241201E+03 -0.79539719103E+02  0.79644361631E+03  0.65864270000E+03 0.  0.
    8880022    1    1    2    0    0  0.24226769699E+03  0.36809241201E+03  0.18124323281E+04  0.18714935901E+04  0.15294330000E+03 0.  0.
<mgrwt>
<rscale>  0 0.69412150E+03</rscale>
<asrwt>0</asrwt>
<pdfrwt beam="1">  1        2 0.33852537E+00 0.79246190E+03</pdfrwt>
<pdfrwt beam="2">  1       -2 0.71926508E-01 0.79246190E+03</pdfrwt>
<totfact> 0.93445129E+00</totfact>
</mgrwt>
</event>
<event>
 4    5  0.2473208E-007  0.7290155E+03  0.7818608E-02  0.9893183E-01
         -2   -1    0    0    0  501 -0.00000000000E+00  0.00000000000E+00  0.18217681706E+04  0.18217681706E+04  0.25500000000E-02 0.  1.
          2   -1    0    0  501    0  0.00000000000E+00 -0.00000000000E+00 -0.28747277171E+03  0.28747277172E+03  0.25500000000E-02 0. -1.
    8880023    1    1    2    0    0  0.79329327003E+02  0.30225858882E+03  0.15971783226E+04  0.17556885251E+04  0.65864270000E+03 0.  1.
    8880022    1    1    2    0    0 -0.79329327003E+02 -0.30225858882E+03 -0.62882923700E+02  0.35355241725E+03  0.15294330000E+03 0.  0.
<mgrwt>
<rscale>  0 0.60592790E+03</rscale>
<asrwt>0</asrwt>
<pdfrwt beam="1">  1        2 0.44226581E-01 0.72901550E+03</pdfrwt>
<pdfrwt beam="2">  1       -2 0.28027202E+00 0.72901550E+03</pdfrwt>
<totfact> 0.50098090E+00</totfact>
</mgrwt>
</event>
<event>
 4    5  0.2473208E-007  0.6981641E+03  0.7818608E-02  0.1000490E+00
          2   -1    0    0  501    0  0.00000000000E+00  0.00000000000E+00  0.13172843063E+04  0.13172843063E+04  0.25500000000E-02 0. -1.
         -2   -1    0    0    0  501 -0.00000000000E+00 -0.00000000000E+00 -0.63834201729E+03  0.63834201730E+03  0.25500000000E-02 0.  1.
    8880023    1    1    2    0    0  0.14111813458E+03 -0.18359905320E+03 -0.42499228198E+03  0.81734422751E+03  0.65864270000E+03 0.  0.
    8880022    1    1    2    0    0 -0.14111813458E+03  0.18359905320E+03  0.11039345709E+04  0.11382820960E+04  0.15294330000E+03 0. -1.
<mgrwt>
<rscale>  0 0.55435731E+03</rscale>
<asrwt>0</asrwt>
<pdfrwt beam="1">  1        2 0.20265912E+00 0.69816413E+03</pdfrwt>
<pdfrwt beam="2">  1       -2 0.98206465E-01 0.69816413E+03</pdfrwt>
<totfact> 0.14314381E+01</totfact>
</mgrwt>
</event>
<event>
 4    5  0.2473208E-007  0.9044336E+03  0.7818608E-02  0.9518951E-01
         -2   -1    0    0    0  501 -0.00000000000E+00  0.00000000000E+00  0.40547512845E+03  0.40547512845E+03  0.25500000000E-02 0.  1.
          2   -1    0    0  501    0  0.00000000000E+00 -0.00000000000E+00 -0.15809611409E+04  0.15809611409E+04  0.25500000000E-02 0. -1.
    8880023    1    1    2    0    0  0.61983023864E+03  0.59332222832E+00 -0.94401037266E+03  0.13073468043E+04  0.65864270000E+03 0.  1.
    8880022    1    1    2    0    0 -0.61983023864E+03 -0.59332222832E+00 -0.23147563984E+03  0.67908946510E+03  0.15294330000E+03 0.  0.
<mgrwt>
<rscale>  0 0.82900914E+03</rscale>
<asrwt>0</asrwt>
<pdfrwt beam="1">  1        2 0.24322479E+00 0.90443357E+03</pdfrwt>
<pdfrwt beam="2">  1       -2 0.62380790E-01 0.90443357E+03</pdfrwt>
<totfact> 0.27467603E+01</totfact>
</mgrwt>
</event>
<event>
 4    5  0.2473208E-007  0.6703403E+03  0.7818608E-02  0.1015420E+00
          2   -1    0    0  501    0  0.00000000000E+00  0.00000000000E+00  0.20121585525E+04  0.20121585525E+04  0.25500000000E-02 0. -1.
         -2   -1    0    0    0  501 -0.00000000000E+00 -0.00000000000E+00 -0.34297647670E+03  0.34297647671E+03  0.25500000000E-02 0.  1.
    8880023    1    1    2    0    0 -0.12284746459E+03  0.21316796059E+02 -0.40051284857E+01  0.67035226014E+03  0.65864270000E+03 0.  1.
    8880022    1    1    2    0    0  0.12284746459E+03 -0.21316796059E+02  0.16731872043E+04  0.16847827691E+04  0.15294330000E+03 0.  0.
<mgrwt>
<rscale>  0 0.49376191E+03</rscale>
<asrwt>0</asrwt>
<pdfrwt beam="1">  1        2 0.30956285E+00 0.67034030E+03</pdfrwt>
<pdfrwt beam="2">  1       -2 0.52765612E-01 0.67034030E+03</pdfrwt>
<totfact> 0.23306799E+01</totfact>
</mgrwt>
</event>
<event>
 4    5  0.4932835E-007  0.9540807E+03  0.7818608E-02  0.9444267E-01
         -2   -1    0    0    0  501 -0.00000000000E+00  0.00000000000E+00  0.13180751332E+04  0.13180751332E+04  0.25500000000E-02 0.  1.
          2   -1    0    0  501    0  0.00000000000E+00 -0.00000000000E+00 -0.18108596775E+04  0.18108596775E+04  0.25500000000E-02 0. -1.
    8880023    1    1    2    0    0  0.61792627857E+03  0.30761469146E+03  0.10579636380E+04  0.14246251962E+04  0.65864270000E+03 0.  1.
    8880022    1    1    2    0    0 -0.61792627857E+03 -0.30761469146E+03 -0.15507481822E+04  0.17043096145E+04  0.15294330000E+03 0.  0.
<mgrwt>
<rscale>  0 0.88520513E+03</rscale>
<asrwt>0</asrwt>
<pdfrwt beam="1">  1        2 0.27859380E+00 0.95408065E+03</pdfrwt>
<pdfrwt beam="2">  1       -2 0.20278079E+00 0.95408065E+03</pdfrwt>
<totfact> 0.10890064E+00</totfact>
</mgrwt>
</event>
<event>
 4    5  0.2473208E-007  0.1376358E+04  0.7818608E-02  0.9002275E-01
         -2   -1    0    0    0  501 -0.00000000000E+00  0.00000000000E+00  0.17766566832E+04  0.17766566832E+04  0.25500000000E-02 0.  1.
          2   -1    0    0  501    0  0.00000000000E+00 -0.00000000000E+00 -0.23830671668E+04  0.23830671668E+04  0.25500000000E-02 0. -1.
    8880023    1    1    2    0    0 -0.97337839965E+03 -0.71629916184E+03  0.13026850582E+04  0.18950853715E+04  0.65864270000E+03 0.  1.
    8880022    1    1    2    0    0  0.97337839965E+03  0.71629916184E+03 -0.19090955417E+04  0.22646384785E+04  0.15294330000E+03 0.  0.
<mgrwt>
<rscale>  0 0.13349825E+04</rscale>
<asrwt>0</asrwt>
<pdfrwt beam="1">  1        2 0.36662571E+00 0.13763576E+04</pdfrwt>
<pdfrwt beam="2">  1       -2 0.27333180E+00 0.13763576E+04</pdfrwt>
<totfact> 0.17914336E-01</totfact>
</mgrwt>
</event>
<event>
 4    5  0.2473208E-007  0.6998387E+03  0.7818608E-02  0.9997871E-01
          2   -1    0    0  501    0  0.00000000000E+00  0.00000000000E+00  0.16776549393E+04  0.16776549393E+04  0.25500000000E-02 0. -1.
         -2   -1    0    0    0  501 -0.00000000000E+00 -0.00000000000E+00 -0.11394252690E+04  0.11394252690E+04  0.25500000000E-02 0.  1.
    8880023    1    1    2    0    0  0.17768553169E+03 -0.15617903288E+03 -0.10181141612E+04  0.12354475667E+04  0.65864270000E+03 0.  1.
    8880022    1    1    2    0    0 -0.17768553169E+03  0.15617903288E+03  0.15563438315E+04  0.15816326417E+04  0.15294330000E+03 0.  0.
<mgrwt>
<rscale>  0 0.55743693E+03</rscale>
<asrwt>0</asrwt>
<pdfrwt beam="1">  1        2 0.25810076E+00 0.69983873E+03</pdfrwt>
<pdfrwt beam="2">  1       -2 0.17529619E+00 0.69983873E+03</pdfrwt>
<totfact> 0.20568063E+00</totfact>
</mgrwt>
</event>
<event>
 4    5  0.2473208E-007  0.1321639E+04  0.7818608E-02  0.9047095E-01
          2   -1    0    0  501    0  0.00000000000E+00  0.00000000000E+00  0.15725789531E+04  0.15725789531E+04  0.25500000000E-02 0. -1.
         -2   -1    0    0    0  501 -0.00000000000E+00 -0.00000000000E+00 -0.13590777634E+04  0.13590777634E+04  0.25500000000E-02 0.  1.
    8880023    1    1    2    0    0 -0.10925186619E+04 -0.34543032575E+03 -0.66521240380E+03  0.14796070035E+04  0.65864270000E+03 0.  0.
    8880022    1    1    2    0    0  0.10925186619E+04  0.34543032575E+03  0.87871359349E+03  0.14520497130E+04  0.15294330000E+03 0.  0.
<mgrwt>
<rscale>  0 0.12781241E+04</rscale>
<asrwt>0</asrwt>
<pdfrwt beam="1">  1        2 0.24193522E+00 0.13216389E+04</pdfrwt>
<pdfrwt beam="2">  1       -2 0.20908889E+00 0.13216389E+04</pdfrwt>
<totfact> 0.12838898E+00</totfact>
</mgrwt>
</event>
<event>
 4    5  0.2473208E-007  0.9466014E+03  0.7818608E-02  0.9455021E-01
         -2   -1    0    0    0  501 -0.00000000000E+00  0.00000000000E+00  0.80139543302E+03  0.80139543302E+03  0.25500000000E-02 0.  1.
          2   -1    0    0  501    0  0.00000000000E+00 -0.00000000000E+00 -0.20448803830E+04  0.20448803830E+04  0.25500000000E-02 0. -1.
    8880023    1    1    2    0    0  0.56005266050E+03  0.38546718253E+03  0.42535619458E+03  0.10377774472E+04  0.65864270000E+03 0.  0.
    8880022    1    1    2    0    0 -0.56005266050E+03 -0.38546718253E+03 -0.16688411445E+04  0.18084983688E+04  0.15294330000E+03 0.  0.
<mgrwt>
<rscale>  0 0.87682749E+03</rscale>
<asrwt>0</asrwt>
<pdfrwt beam="1">  1        2 0.31459698E+00 0.94660136E+03</pdfrwt>
<pdfrwt beam="2">  1       -2 0.12329161E+00 0.94660136E+03</pdfrwt>
<totfact> 0.31511915E+00</totfact>
</mgrwt>
</event>
<event>
 4    5  0.2473208E-007  0.1639167E+04  0.7818608E-02  0.8817144E-01
          2   -1    0    0  501    0  0.00000000000E+00  0.00000000000E+00  0.23673072507E+04  0.23673072507E+04  0.25500000000E-02 0. -1.
         -2   -1    0    0    0  501 -0.00000000000E+00 -0.00000000000E+00 -0.12795054995E+04  0.12795054995E+04  0.25500000000E-02 0.  1.
    8880023    1    1    2    0    0  0.13273662531E+04 -0.70082580788E+03  0.13398813573E+04  0.21171089345E+04  0.65864270000E+03 0.  0.
    8880022    1    1    2    0    0 -0.13273662531E+04  0.70082580788E+03 -0.25207960608E+03  0.15297038156E+04  0.15294330000E+03 0.  0.
<mgrwt>
<rscale>  0 0.16055530E+04</rscale>
<asrwt>0</asrwt>
<pdfrwt beam="1">  1        2 0.36420111E+00 0.16391669E+04</pdfrwt>
<pdfrwt beam="2">  1       -2 0.19684700E+00 0.16391669E+04</pdfrwt>
<totfact> 0.53639900E-01</totfact>
</mgrwt>
</event>
<event>
 4    5  0.2473208E-007  0.1598961E+04  0.7818608E-02  0.8842743E-01
         -2   -1    0    0    0  501 -0.00000000000E+00  0.00000000000E+00  0.12398199836E+04  0.12398199836E+04  0.25500000000E-02 0.  1.
          2   -1    0    0  501    0  0.00000000000E+00 -0.00000000000E+00 -0.26962760946E+04  0.26962760946E+04  0.25500000000E-02 0. -1.
    8880023    1    1    2    0    0  0.11528261620E+04  0.89098619256E+03  0.32290087173E+03  0.16312387116E+04  0.65864270000E+03 0.  0.
    8880022    1    1    2    0    0 -0.11528261620E+04 -0.89098619256E+03 -0.17793569828E+04  0.23048573666E+04  0.15294330000E+03 0.  0.
<mgrwt>
<rscale>  0 0.15643665E+04</rscale>
<asrwt>0</asrwt>
<pdfrwt beam="1">  1        2 0.41481170E+00 0.15989605E+04</pdfrwt>
<pdfrwt beam="2">  1       -2 0.19074154E+00 0.15989605E+04</pdfrwt>
<totfact> 0.38077168E-01</totfact>
</mgrwt>
</event>
<event>
 4    5  0.2473208E-007  0.1204469E+04  0.7818608E-02  0.9152791E-01
         -2   -1    0    0    0  501 -0.00000000000E+00  0.00000000000E+00  0.17048144195E+04  0.17048144195E+04  0.25500000000E-02 0.  1.
          2   -1    0    0  501    0  0.00000000000E+00 -0.00000000000E+00 -0.15649620645E+04  0.15649620645E+04  0.25500000000E-02 0. -1.
    8880023    1    1    2    0    0 -0.89121677326E+03 -0.47187588571E+03  0.12680211460E+04  0.17488916551E+04  0.65864270000E+03 0.  1.
    8880022    1    1    2    0    0  0.89121677326E+03  0.47187588571E+03 -0.11281687911E+04  0.15208848289E+04  0.15294330000E+03 0.  0.
<mgrwt>
<rscale>  0 0.11554277E+04</rscale>
<asrwt>0</asrwt>
<pdfrwt beam="1">  1        2 0.24076340E+00 0.12044685E+04</pdfrwt>
<pdfrwt beam="2">  1       -2 0.26227914E+00 0.12044685E+04</pdfrwt>
<totfact> 0.61271536E-01</totfact>
</mgrwt>
</event>
<event>
 4    5  0.2473208E-007  0.1107688E+04  0.7818608E-02  0.9252545E-01
          2   -1    0    0  501    0  0.00000000000E+00  0.00000000000E+00  0.33022608956E+04  0.33022608956E+04  0.25500000000E-02 0. -1.
         -2   -1    0    0    0  501 -0.00000000000E+00 -0.00000000000E+00 -0.66923714319E+03  0.66923714320E+03  0.25500000000E-02 0.  1.
    8880023    1    1    2    0    0  0.66437649153E+03  0.59309844414E+03 -0.81342020296E+02  0.11106703460E+04  0.65864270000E+03 0.  0.
    8880022    1    1    2    0    0 -0.66437649153E+03 -0.59309844414E+03  0.27143657727E+04  0.28608276929E+04  0.15294330000E+03 0.  0.
<mgrwt>
<rscale>  0 0.10527157E+04</rscale>
<asrwt>0</asrwt>
<pdfrwt beam="1">  1        2 0.50804014E+00 0.11076877E+04</pdfrwt>
<pdfrwt beam="2">  1       -2 0.10295956E+00 0.11076877E+04</pdfrwt>
<totfact> 0.86337034E-01</totfact>
</mgrwt>
</event>
<event>
 4    5  0.2473208E-007  0.1490927E+04  0.7818608E-02  0.8916070E-01
         -2   -1    0    0    0  501 -0.00000000000E+00  0.00000000000E+00  0.16670263516E+04  0.16670263516E+04  0.25500000000E-02 0.  1.
          2   -1    0    0  501    0  0.00000000000E+00 -0.00000000000E+00 -0.13952550074E+04  0.13952550074E+04  0.25500000000E-02 0. -1.
    8880023    1    1    2    0    0  0.68332664477E+03 -0.11498332089E+04  0.70338135378E+03  0.16485166808E+04  0.65864270000E+03 0.  0.
    8880022    1    1    2    0    0 -0.68332664477E+03  0.11498332089E+04 -0.43161000959E+03  0.14137646782E+04  0.15294330000E+03 0.  0.
<mgrwt>
<rscale>  0 0.14533668E+04</rscale>
<asrwt>0</asrwt>
<pdfrwt beam="1">  1        2 0.21465462E+00 0.14909265E+04</pdfrwt>
<pdfrwt beam="2">  1       -2 0.25646559E+00 0.14909265E+04</pdfrwt>
<totfact> 0.80471985E-01</totfact>
</mgrwt>
</event>
<event>
 4    5  0.2473208E-007  0.8829308E+03  0.7818608E-02  0.9554008E-01
          2   -1    0    0  501    0  0.00000000000E+00  0.00000000000E+00  0.20502882431E+04  0.20502882431E+04  0.25500000000E-02 0. -1.
         -2   -1    0    0    0  501 -0.00000000000E+00 -0.00000000000E+00 -0.44510540537E+03  0.44510540537E+03  0.25500000000E-02 0.  1.
    8880023    1    1    2    0    0  0.22290973032E+03 -0.54412111777E+03  0.12039085536E+03  0.89110083773E+03  0.65864270000E+03 0.  1.
    8880022    1    1    2    0    0 -0.22290973032E+03  0.54412111777E+03  0.14847919824E+04  0.16042928108E+04  0.15294330000E+03 0.  0.
<mgrwt>
<rscale>  0 0.80416484E+03</rscale>
<asrwt>0</asrwt>
<pdfrwt beam="1">  1        2 0.31542896E+00 0.88293077E+03</pdfrwt>
<pdfrwt beam="2">  1       -2 0.68477756E-01 0.88293077E+03</pdfrwt>
<totfact> 0.12431150E+01</totfact>
</mgrwt>
</event>
<event>
 4    5  0.2473208E-007  0.7119058E+03  0.7818608E-02  0.9950991E-01
          2   -1    0    0  501    0  0.00000000000E+00  0.00000000000E+00  0.24614353883E+04  0.24614353883E+04  0.25500000000E-02 0. -1.
         -2   -1    0    0    0  501 -0.00000000000E+00 -0.00000000000E+00 -0.37456164626E+03  0.37456164627E+03  0.25500000000E-02 0.  1.
    8880023    1    1    2    0    0 -0.24519239249E+02  0.26906963230E+03 -0.14260611584E+02  0.71204861592E+03  0.65864270000E+03 0.  1.
    8880022    1    1    2    0    0  0.24519239249E+02 -0.26906963230E+03  0.21011343536E+04  0.21239484186E+04  0.15294330000E+03 0.  0.
<mgrwt>
<rscale>  0 0.57852434E+03</rscale>
<asrwt>0</asrwt>
<pdfrwt beam="1">  1        2 0.37868236E+00 0.71190580E+03</pdfrwt>
<pdfrwt beam="2">  1       -2 0.57624869E-01 0.71190580E+03</pdfrwt>
<totfact> 0.10892594E+01</totfact>
</mgrwt>
</event>
<event>
 4    5  0.2473208E-007  0.1681447E+04  0.7818608E-02  0.8791115E-01
         -2   -1    0    0    0  501 -0.00000000000E+00  0.00000000000E+00  0.16282868252E+04  0.16282868252E+04  0.25500000000E-02 0.  1.
          2   -1    0    0  501    0  0.00000000000E+00 -0.00000000000E+00 -0.26004739139E+04  0.26004739139E+04  0.25500000000E-02 0. -1.
    8880023    1    1    2    0    0  0.62552295240E+03 -0.14149826381E+04 -0.18035735450E+04  0.24657945106E+04  0.65864270000E+03 0.  0.
    8880022    1    1    2    0    0 -0.62552295240E+03  0.14149826381E+04  0.83138645631E+03  0.17629662285E+04  0.15294330000E+03 0.  0.
<mgrwt>
<rscale>  0 0.16488023E+04</rscale>
<asrwt>0</asrwt>
<pdfrwt beam="1">  1        2 0.40007291E+00 0.16814473E+04</pdfrwt>
<pdfrwt beam="2">  1       -2 0.25050567E+00 0.16814473E+04</pdfrwt>
<totfact> 0.17822498E-01</totfact>
</mgrwt>
</event>
<event>
 4    5  0.2473208E-007  0.9760549E+03  0.7818608E-02  0.9413578E-01
          2   -1    0    0  501    0  0.00000000000E+00  0.00000000000E+00  0.18405322592E+04  0.18405322592E+04  0.25500000000E-02 0. -1.
         -2   -1    0    0    0  501 -0.00000000000E+00 -0.00000000000E+00 -0.57690008026E+03  0.57690008026E+03  0.25500000000E-02 0.  1.
    8880023    1    1    2    0    0 -0.24418584474E+03  0.67767706472E+03  0.24928441065E+02  0.97637316855E+03  0.65864270000E+03 0.  1.
    8880022    1    1    2    0    0  0.24418584474E+03 -0.67767706472E+03  0.12387037378E+04  0.14410591709E+04  0.15294330000E+03 0.  0.
<mgrwt>
<rscale>  0 0.90966625E+03</rscale>
<asrwt>0</asrwt>
<pdfrwt beam="1">  1        2 0.28315881E+00 0.97605488E+03</pdfrwt>
<pdfrwt beam="2">  1       -2 0.88753860E-01 0.97605488E+03</pdfrwt>
<totfact> 0.89606685E+00</totfact>
</mgrwt>
</event>
<event>
 4    5  0.2473208E-007  0.8452522E+03  0.7818608E-02  0.9620355E-01
         -2   -1    0    0    0  501 -0.00000000000E+00  0.00000000000E+00  0.12166141657E+04  0.12166141657E+04  0.25500000000E-02 0.  1.
          2   -1    0    0  501    0  0.00000000000E+00 -0.00000000000E+00 -0.26607116934E+04  0.26607116934E+04  0.25500000000E-02 0. -1.
    8880023    1    1    2    0    0 -0.46602889033E+03 -0.25190895550E+03  0.10357752309E+04  0.13368925101E+04  0.65864270000E+03 0.  0.
    8880022    1    1    2    0    0  0.46602889033E+03  0.25190895550E+03 -0.24798727586E+04  0.25404333489E+04  0.15294330000E+03 0.  0.
<mgrwt>
<rscale>  0 0.75963464E+03</rscale>
<asrwt>0</asrwt>
<pdfrwt beam="1">  1        2 0.40934026E+00 0.84525218E+03</pdfrwt>
<pdfrwt beam="2">  1       -2 0.18717141E+00 0.84525218E+03</pdfrwt>
<totfact> 0.47174192E-01</totfact>
</mgrwt>
</event>
<event>
 4    5  0.2473208E-007  0.7072480E+03  0.7818608E-02  0.9968366E-01
         -2   -1    0    0    0  501 -0.00000000000E+00  0.00000000000E+00  0.15051312306E+03  0.15051312308E+03  0.25500000000E-02 0.  1.
          2   -1    0    0  501    0  0.00000000000E+00 -0.00000000000E+00 -0.29886261014E+04  0.29886261014E+04  0.25500000000E-02 0. -1.
    8880023    1    1    2    0    0  0.21038937379E+03  0.14874744964E+03 -0.75473018511E+03  0.10343197528E+04  0.65864270000E+03 0.  0.
    8880022    1    1    2    0    0 -0.21038937379E+03 -0.14874744964E+03 -0.20833827932E+04  0.21048194717E+04  0.15294330000E+03 0.  0.
<mgrwt>
<rscale>  0 0.57059364E+03</rscale>
<asrwt>0</asrwt>
<pdfrwt beam="1">  1        2 0.45978859E+00 0.70724798E+03</pdfrwt>
<pdfrwt beam="2">  1       -2 0.23155867E-01 0.70724798E+03</pdfrwt>
<totfact> 0.30993267E+01</totfact>
</mgrwt>
</event>
<event>
 4    5  0.2473208E-007  0.7951388E+03  0.7818608E-02  0.9721407E-01
         -2   -1    0    0    0  501 -0.00000000000E+00  0.00000000000E+00  0.81529649851E+03  0.81529649851E+03  0.25500000000E-02 0.  1.
          2   -1    0    0  501    0  0.00000000000E+00 -0.00000000000E+00 -0.19799171861E+04  0.19799171861E+04  0.25500000000E-02 0. -1.
    8880023    1    1    2    0    0  0.44258390996E+03  0.50546502105E+02  0.58253168124E+03  0.98569205746E+03  0.65864270000E+03 0.  1.
    8880022    1    1    2    0    0 -0.44258390996E+03 -0.50546502105E+02 -0.17471523688E+04  0.18095216271E+04  0.15294330000E+03 0.  0.
<mgrwt>
<rscale>  0 0.69756395E+03</rscale>
<asrwt>0</asrwt>
<pdfrwt beam="1">  1        2 0.30460264E+00 0.79513878E+03</pdfrwt>
<pdfrwt beam="2">  1       -2 0.12543023E+00 0.79513878E+03</pdfrwt>
<totfact> 0.33511045E+00</totfact>
</mgrwt>
</event>
<event>
 4    5  0.2473208E-007  0.1137426E+04  0.7818608E-02  0.9220488E-01
          2   -1    0    0  501    0  0.00000000000E+00  0.00000000000E+00  0.10469346775E+04  0.10469346775E+04  0.25500000000E-02 0. -1.
         -2   -1    0    0    0  501 -0.00000000000E+00 -0.00000000000E+00 -0.11528175863E+04  0.11528175863E+04  0.25500000000E-02 0.  1.
    8880023    1    1    2    0    0  0.19717319599E+03  0.90611835879E+03 -0.41439314456E+03  0.12105617018E+04  0.65864270000E+03 0. -1.
    8880022    1    1    2    0    0 -0.19717319599E+03 -0.90611835879E+03  0.30851023576E+03  0.98919056199E+03  0.15294330000E+03 0.  0.
<mgrwt>
<rscale>  0 0.10844439E+04</rscale>
<asrwt>0</asrwt>
<pdfrwt beam="1">  1        2 0.16106687E+00 0.11374260E+04</pdfrwt>
<pdfrwt beam="2">  1       -2 0.17735655E+00 0.11374260E+04</pdfrwt>
<totfact> 0.43499088E+00</totfact>
</mgrwt>
</event>
<event>
 4    5  0.2473208E-007  0.6763613E+03  0.7818608E-02  0.1011462E+00
          2   -1    0    0  501    0  0.00000000000E+00  0.00000000000E+00  0.26289762329E+04  0.26289762329E+04  0.25500000000E-02 0. -1.
         -2   -1    0    0    0  501 -0.00000000000E+00 -0.00000000000E+00 -0.13589652660E+03  0.13589652663E+03  0.25500000000E-02 0.  1.
    8880023    1    1    2    0    0  0.14053855097E+03 -0.62476618223E+02  0.75637644676E+03  0.10146772628E+04  0.65864270000E+03 0.  1.
    8880022    1    1    2    0    0 -0.14053855097E+03  0.62476618223E+02  0.17367032595E+04  0.17501954967E+04  0.15294330000E+03 0.  0.
<mgrwt>
<rscale>  0 0.50897855E+03</rscale>
<asrwt>0</asrwt>
<pdfrwt beam="1">  1        2 0.40445784E+00 0.67636131E+03</pdfrwt>
<pdfrwt beam="2">  1       -2 0.20907160E-01 0.67636131E+03</pdfrwt>
<totfact> 0.60878485E+01</totfact>
</mgrwt>
</event>
<event>
 4    5  0.2473208E-007  0.9517979E+03  0.7818608E-02  0.9447532E-01
         -2   -1    0    0    0  501 -0.00000000000E+00  0.00000000000E+00  0.10320780323E+04  0.10320780323E+04  0.25500000000E-02 0.  1.
          2   -1    0    0  501    0  0.00000000000E+00 -0.00000000000E+00 -0.12285465608E+04  0.12285465608E+04  0.25500000000E-02 0. -1.
    8880023    1    1    2    0    0  0.44807629787E+03 -0.52089986817E+03  0.65534728436E+03  0.11555947866E+04  0.65864270000E+03 0.  1.
    8880022    1    1    2    0    0 -0.44807629787E+03  0.52089986817E+03 -0.85181581287E+03  0.11050298066E+04  0.15294330000E+03 0.  0.
<mgrwt>
<rscale>  0 0.88265115E+03</rscale>
<asrwt>0</asrwt>
<pdfrwt beam="1">  1        2 0.18900716E+00 0.95179790E+03</pdfrwt>
<pdfrwt beam="2">  1       -2 0.15878124E+00 0.95179790E+03</pdfrwt>
<totfact> 0.46681527E+00</totfact>
</mgrwt>
</event>
<event>
 4    5  0.2473208E-007  0.6655349E+03  0.7818608E-02  0.1019089E+00
          2   -1    0    0  501    0  0.00000000000E+00  0.00000000000E+00  0.23174896358E+04  0.23174896358E+04  0.25500000000E-02 0. -1.
         -2   -1    0    0    0  501 -0.00000000000E+00 -0.00000000000E+00 -0.23340554562E+03  0.23340554563E+03  0.25500000000E-02 0.  1.
    8880023    1    1    2    0    0  0.93439863453E+02  0.19887692182E+02  0.25464077301E+03  0.71258589512E+03  0.65864270000E+03 0.  1.
    8880022    1    1    2    0    0 -0.93439863453E+02 -0.19887692182E+02  0.18294433171E+04  0.18383092863E+04  0.15294330000E+03 0.  0.
<mgrwt>
<rscale>  0 0.48016878E+03</rscale>
<asrwt>0</asrwt>
<pdfrwt beam="1">  1        2 0.35653685E+00 0.66553492E+03</pdfrwt>
<pdfrwt beam="2">  1       -2 0.35908548E-01 0.66553492E+03</pdfrwt>
<totfact> 0.33978349E+01</totfact>
</mgrwt>
</event>
<event>
 4    5  0.2473208E-007  0.7040681E+03  0.7818608E-02  0.9980726E-01
          2   -1    0    0  501    0  0.00000000000E+00  0.00000000000E+00  0.42462387538E+04  0.42462387538E+04  0.25500000000E-02 0. -1.
         -2   -1    0    0    0  501 -0.00000000000E+00 -0.00000000000E+00 -0.52215900648E+03  0.52215900649E+03  0.25500000000E-02 0.  1.
    8880023    1    1    2    0    0 -0.24818828371E+03 -0.17442736081E+02 -0.27705511993E+03  0.75661841040E+03  0.65864270000E+03 0.  0.
    8880022    1    1    2    0    0  0.24818828371E+03  0.17442736081E+02  0.40011348673E+04  0.40117793499E+04  0.15294330000E+03 0.  0.
<mgrwt>
<rscale>  0 0.56503504E+03</rscale>
<asrwt>0</asrwt>
<pdfrwt beam="1">  1        2 0.65326751E+00 0.70406809E+03</pdfrwt>
<pdfrwt beam="2">  1       -2 0.80332153E-01 0.70406809E+03</pdfrwt>
<totfact> 0.33162929E-01</totfact>
</mgrwt>
</event>
<event>
 4    5  0.2473208E-007  0.7273826E+03  0.7818608E-02  0.9898354E-01
         -2   -1    0    0    0  501 -0.00000000000E+00  0.00000000000E+00  0.57506642192E+03  0.57506642192E+03  0.25500000000E-02 0.  1.
          2   -1    0    0  501    0  0.00000000000E+00 -0.00000000000E+00 -0.20105585053E+04  0.20105585053E+04  0.25500000000E-02 0. -1.
    8880023    1    1    2    0    0  0.28488200049E+03  0.11881713440E+03  0.32143905712E+03  0.79524118313E+03  0.65864270000E+03 0.  1.
    8880022    1    1    2    0    0 -0.28488200049E+03 -0.11881713440E+03 -0.17569311405E+04  0.17903837441E+04  0.15294330000E+03 0.  0.
<mgrwt>
<rscale>  0 0.60341124E+03</rscale>
<asrwt>0</asrwt>
<pdfrwt beam="1">  1        2 0.30931669E+00 0.72738262E+03</pdfrwt>
<pdfrwt beam="2">  1       -2 0.88471758E-01 0.72738262E+03</pdfrwt>
<totfact> 0.75339663E+00</totfact>
</mgrwt>
</event>
<event>
 4    5  0.2473208E-007  0.6655883E+03  0.7818608E-02  0.1019045E+00
          2   -1    0    0  501    0  0.00000000000E+00  0.00000000000E+00  0.36449629721E+03  0.36449629722E+03  0.25500000000E-02 0. -1.
         -2   -1    0    0    0  501 -0.00000000000E+00 -0.00000000000E+00 -0.79593139716E+03  0.79593139716E+03  0.25500000000E-02 0.  1.
    8880023    1    1    2    0    0 -0.32655886190E+02 -0.90172989500E+02 -0.61265924076E+03  0.90463203928E+03  0.65864270000E+03 0.  1.
    8880022    1    1    2    0    0  0.32655886190E+02  0.90172989500E+02  0.18122414081E+03  0.25579565510E+03  0.15294330000E+03 0.  0.
<mgrwt>
<rscale>  0 0.48032868E+03</rscale>
<asrwt>0</asrwt>
<pdfrwt beam="1">  1        2 0.56076354E-01 0.66558830E+03</pdfrwt>
<pdfrwt beam="2">  1       -2 0.12245098E+00 0.66558830E+03</pdfrwt>
<totfact> 0.45329946E+01</totfact>
</mgrwt>
</event>
<event>
 4    5  0.2473208E-007  0.6848918E+03  0.7818608E-02  0.1006682E+00
          2   -1    0    0  501    0  0.00000000000E+00  0.00000000000E+00  0.13403710413E+04  0.13403710413E+04  0.25500000000E-02 0. -1.
         -2   -1    0    0    0  501 -0.00000000000E+00 -0.00000000000E+00 -0.79476610444E+03  0.79476610444E+03  0.25500000000E-02 0.  1.
    8880023    1    1    2    0    0 -0.35429454665E+02 -0.18442166772E+03 -0.63257334183E+03  0.93232281793E+03  0.65864270000E+03 0.  1.
    8880022    1    1    2    0    0  0.35429454665E+02  0.18442166772E+03  0.11781782787E+04  0.12028143278E+04  0.15294330000E+03 0.  0.
<mgrwt>
<rscale>  0 0.52815041E+03</rscale>
<asrwt>0</asrwt>
<pdfrwt beam="1">  1        2 0.20621093E+00 0.68489182E+03</pdfrwt>
<pdfrwt beam="2">  1       -2 0.12227171E+00 0.68489182E+03</pdfrwt>
<totfact> 0.81876461E+00</totfact>
</mgrwt>
</event>
<event>
 4    5  0.2473208E-007  0.1223938E+04  0.7818608E-02  0.9134197E-01
          2   -1    0    0  501    0  0.00000000000E+00  0.00000000000E+00  0.17255764179E+04  0.17255764179E+04  0.25500000000E-02 0. -1.
         -2   -1    0    0    0  501 -0.00000000000E+00 -0.00000000000E+00 -0.20454548072E+04  0.20454548072E+04  0.25500000000E-02 0.  1.
    8880023    1    1    2    0    0  0.10191374040E+04  0.15991173859E+03 -0.16665839734E+04  0.20677343057E+04  0.65864270000E+03 0.  0.
    8880022    1    1    2    0    0 -0.10191374040E+04 -0.15991173859E+03  0.13467055841E+04  0.17032969194E+04  0.15294330000E+03 0.  0.
<mgrwt>
<rscale>  0 0.11759214E+04</rscale>
<asrwt>0</asrwt>
<pdfrwt beam="1">  1        2 0.26547330E+00 0.12239375E+04</pdfrwt>
<pdfrwt beam="2">  1       -2 0.31468535E+00 0.12239375E+04</pdfrwt>
<totfact> 0.23863036E-01</totfact>
</mgrwt>
</event>
<event>
 4    5  0.2473208E-007  0.1082342E+04  0.7818608E-02  0.9280976E-01
          2   -1    0    0  501    0  0.00000000000E+00  0.00000000000E+00  0.15608886078E+04  0.15608886078E+04  0.25500000000E-02 0. -1.
         -2   -1    0    0    0  501 -0.00000000000E+00 -0.00000000000E+00 -0.67520027871E+03  0.67520027871E+03  0.25500000000E-02 0.  1.
    8880023    1    1    2    0    0 -0.13680093584E+03  0.84790257659E+03  0.14563794920E+03  0.10920961011E+04  0.65864270000E+03 0.  1.
    8880022    1    1    2    0    0  0.13680093584E+03 -0.84790257659E+03  0.74005037993E+03  0.11439927855E+04  0.15294330000E+03 0.  0.
<mgrwt>
<rscale>  0 0.10255328E+04</rscale>
<asrwt>0</asrwt>
<pdfrwt beam="1">  1        2 0.24013671E+00 0.10823417E+04</pdfrwt>
<pdfrwt beam="2">  1       -2 0.10387697E+00 0.10823417E+04</pdfrwt>
<totfact> 0.87370482E+00</totfact>
</mgrwt>
</event>
<event>
 4    5  0.2473208E-007  0.1192233E+04  0.7818608E-02  0.9164710E-01
         -2   -1    0    0    0  501 -0.00000000000E+00  0.00000000000E+00  0.50197202158E+03  0.50197202158E+03  0.25500000000E-02 0.  1.
          2   -1    0    0  501    0  0.00000000000E+00 -0.00000000000E+00 -0.31202833206E+04  0.31202833206E+04  0.25500000000E-02 0. -1.
    8880023    1    1    2    0    0 -0.26839100864E+03  0.95685690901E+03 -0.53048790851E+03  0.13049277778E+04  0.65864270000E+03 0.  0.
    8880022    1    1    2    0    0  0.26839100864E+03 -0.95685690901E+03 -0.20878233905E+04  0.23173275644E+04  0.15294330000E+03 0.  0.
<mgrwt>
<rscale>  0 0.11425224E+04</rscale>
<asrwt>0</asrwt>
<pdfrwt beam="1">  1        2 0.48004358E+00 0.11922328E+04</pdfrwt>
<pdfrwt beam="2">  1       -2 0.77226466E-01 0.11922328E+04</pdfrwt>
<totfact> 0.21786232E+00</totfact>
</mgrwt>
</event>
<event>
 4    5  0.2473208E-007  0.7448670E+03  0.7818608E-02  0.9845990E-01
          2   -1    0    0  501    0  0.00000000000E+00  0.00000000000E+00  0.18031002936E+04  0.18031002936E+04  0.25500000000E-02 0. -1.
         -2   -1    0    0    0  501 -0.00000000000E+00 -0.00000000000E+00 -0.49964655928E+03  0.49964655929E+03  0.25500000000E-02 0.  1.
    8880023    1    1    2    0    0 -0.34768832248E+03 -0.11377319480E+02 -0.18421637485E+03  0.76730860285E+03  0.65864270000E+03 0.  0.
    8880022    1    1    2    0    0  0.34768832248E+03  0.11377319480E+02  0.14876701092E+04  0.15354382500E+04  0.15294330000E+03 0.  0.
<mgrwt>
<rscale>  0 0.62951785E+03</rscale>
<asrwt>0</asrwt>
<pdfrwt beam="1">  1        2 0.27740005E+00 0.74486698E+03</pdfrwt>
<pdfrwt beam="2">  1       -2 0.76868700E-01 0.74486698E+03</pdfrwt>
<totfact> 0.13398529E+01</totfact>
</mgrwt>
</event>
<event>
 4    5  0.2473208E-007  0.7335183E+03  0.7818608E-02  0.9879247E-01
          2   -1    0    0  501    0  0.00000000000E+00  0.00000000000E+00  0.16989513339E+04  0.16989513339E+04  0.25500000000E-02 0. -1.
         -2   -1    0    0    0  501 -0.00000000000E+00 -0.00000000000E+00 -0.26723334609E+03  0.26723334610E+03  0.25500000000E-02 0.  1.
    8880023    1    1    2    0    0 -0.23905312881E+03  0.21700804380E+03  0.32328214865E+03  0.80159867974E+03  0.65864270000E+03 0.  1.
    8880022    1    1    2    0    0  0.23905312881E+03 -0.21700804380E+03  0.11084358392E+04  0.11645860003E+04  0.15294330000E+03 0.  0.
<mgrwt>
<rscale>  0 0.61277712E+03</rscale>
<asrwt>0</asrwt>
<pdfrwt beam="1">  1        2 0.26137713E+00 0.73351830E+03</pdfrwt>
<pdfrwt beam="2">  1       -2 0.41112823E-01 0.73351830E+03</pdfrwt>
<totfact> 0.56459527E+01</totfact>
</mgrwt>
</event>
<event>
 4    5  0.2473208E-007  0.6914573E+03  0.7818608E-02  0.1003467E+00
          2   -1    0    0  501    0  0.00000000000E+00  0.00000000000E+00  0.80891404750E+03  0.80891404750E+03  0.25500000000E-02 0. -1.
         -2   -1    0    0    0  501 -0.00000000000E+00 -0.00000000000E+00 -0.33425692903E+03  0.33425692904E+03  0.25500000000E-02 0.  1.
    8880023    1    1    2    0    0  0.20742230414E+03  0.35763093556E+02  0.11761925640E+03  0.70138969686E+03  0.65864270000E+03 0.  0.
    8880022    1    1    2    0    0 -0.20742230414E+03 -0.35763093556E+02  0.35703786206E+03  0.44178127968E+03  0.15294330000E+03 0.  1.
<mgrwt>
<rscale>  0 0.54155596E+03</rscale>
<asrwt>0</asrwt>
<pdfrwt beam="1">  1        2 0.12444831E+00 0.69145731E+03</pdfrwt>
<pdfrwt beam="2">  1       -2 0.51424143E-01 0.69145731E+03</pdfrwt>
<totfact> 0.12313965E+02</totfact>
</mgrwt>
</event>
<event>
 4    5  0.2473208E-007  0.9193698E+03  0.7818608E-02  0.9495626E-01
          2   -1    0    0  501    0  0.00000000000E+00  0.00000000000E+00  0.12473524870E+04  0.12473524870E+04  0.25500000000E-02 0. -1.
         -2   -1    0    0    0  501 -0.00000000000E+00 -0.00000000000E+00 -0.76370016089E+03  0.76370016090E+03  0.25500000000E-02 0.  1.
    8880023    1    1    2    0    0  0.40094687601E+03  0.50067178351E+03 -0.31820729530E+03  0.97288063052E+03  0.65864270000E+03 0.  1.
    8880022    1    1    2    0    0 -0.40094687601E+03 -0.50067178351E+03  0.80185962137E+03  0.10381720173E+04  0.15294330000E+03 0.  0.
<mgrwt>
<rscale>  0 0.84607069E+03</rscale>
<asrwt>0</asrwt>
<pdfrwt beam="1">  1        2 0.19190038E+00 0.91936981E+03</pdfrwt>
<pdfrwt beam="2">  1       -2 0.11749233E+00 0.91936981E+03</pdfrwt>
<totfact> 0.99406662E+00</totfact>
</mgrwt>
</event>
<event>
 4    5  0.2473208E-007  0.1152934E+04  0.7818608E-02  0.9204289E-01
         -2   -1    0    0    0  501 -0.00000000000E+00  0.00000000000E+00  0.11090344451E+04  0.11090344451E+04  0.25500000000E-02 0.  1.
          2   -1    0    0  501    0  0.00000000000E+00 -0.00000000000E+00 -0.17180824738E+04  0.17180824738E+04  0.25500000000E-02 0. -1.
    8880023    1    1    2    0    0 -0.92307889046E+03 -0.20826109659E+03  0.58747560345E+03  0.12939803373E+04  0.65864270000E+03 0.  0.
    8880022    1    1    2    0    0  0.92307889046E+03  0.20826109659E+03 -0.11965236322E+04  0.15331365816E+04  0.15294330000E+03 0.  0.
<mgrwt>
<rscale>  0 0.11009266E+04</rscale>
<asrwt>0</asrwt>
<pdfrwt beam="1">  1        2 0.26432038E+00 0.11529343E+04</pdfrwt>
<pdfrwt beam="2">  1       -2 0.17062068E+00 0.11529343E+04</pdfrwt>
<totfact> 0.19731641E+00</totfact>
</mgrwt>
</event>
<event>
 4    5  0.2473208E-007  0.6783675E+03  0.7818608E-02  0.1010263E+00
         -2   -1    0    0    0  501 -0.00000000000E+00  0.00000000000E+00  0.91449253120E+03  0.91449253121E+03  0.25500000000E-02 0.  1.
          2   -1    0    0  501    0  0.00000000000E+00 -0.00000000000E+00 -0.42898338944E+03  0.42898338945E+03  0.25500000000E-02 0. -1.
    8880023    1    1    2    0    0  0.51290717243E+02  0.15408282947E+03  0.74078543391E+03  0.10044628024E+04  0.65864270000E+03 0.  0.
    8880022    1    1    2    0    0 -0.51290717243E+02 -0.15408282947E+03 -0.25527629215E+03  0.33901311827E+03  0.15294330000E+03 0. -1.
<mgrwt>
<rscale>  0 0.51370416E+03</rscale>
<asrwt>0</asrwt>
<pdfrwt beam="1">  1        2 0.65997445E-01 0.67836750E+03</pdfrwt>
<pdfrwt beam="2">  1       -2 0.14069116E+00 0.67836750E+03</pdfrwt>
<totfact> 0.26526215E+01</totfact>
</mgrwt>
</event>
<event>
 4    5  0.2473208E-007  0.1026539E+04  0.7818608E-02  0.9347631E-01
          2   -1    0    0  501    0  0.00000000000E+00  0.00000000000E+00  0.16846539104E+04  0.16846539104E+04  0.25500000000E-02 0. -1.
         -2   -1    0    0    0  501 -0.00000000000E+00 -0.00000000000E+00 -0.10975834796E+04  0.10975834796E+04  0.25500000000E-02 0.  1.
    8880023    1    1    2    0    0  0.62615712649E+03  0.47738886564E+03 -0.71636057218E+03  0.12517809520E+04  0.65864270000E+03 0.  1.
    8880022    1    1    2    0    0 -0.62615712649E+03 -0.47738886564E+03  0.13034310030E+04  0.15304564380E+04  0.15294330000E+03 0.  0.
<mgrwt>
<rscale>  0 0.96513674E+03</rscale>
<asrwt>0</asrwt>
<pdfrwt beam="1">  1        2 0.25917753E+00 0.10265394E+04</pdfrwt>
<pdfrwt beam="2">  1       -2 0.16885900E+00 0.10265394E+04</pdfrwt>
<totfact> 0.21517716E+00</totfact>
</mgrwt>
</event>
<event>
 4    5  0.2473208E-007  0.1337795E+04  0.7818608E-02  0.9033590E-01
          2   -1    0    0  501    0  0.00000000000E+00  0.00000000000E+00  0.30106247713E+04  0.30106247713E+04  0.25500000000E-02 0. -1.
         -2   -1    0    0    0  501 -0.00000000000E+00 -0.00000000000E+00 -0.89391687634E+03  0.89391687634E+03  0.25500000000E-02 0.  1.
    8880023    1    1    2    0    0 -0.10545990099E+04 -0.49366517598E+03 -0.15546667216E+03  0.13467978579E+04  0.65864270000E+03 0.  0.
    8880022    1    1    2    0    0  0.10545990099E+04  0.49366517598E+03  0.22721745672E+04  0.25577437898E+04  0.15294330000E+03 0.  0.
<mgrwt>
<rscale>  0 0.12949366E+04</rscale>
<asrwt>0</asrwt>
<pdfrwt beam="1">  1        2 0.46317304E+00 0.13377947E+04</pdfrwt>
<pdfrwt beam="2">  1       -2 0.13752567E+00 0.13377947E+04</pdfrwt>
<totfact> 0.62447307E-01</totfact>
</mgrwt>
</event>
<event>
 4    5  0.2473208E-007  0.1533488E+04  0.7818608E-02  0.8886344E-01
         -2   -1    0    0    0  501 -0.00000000000E+00  0.00000000000E+00  0.26287722160E+04  0.26287722160E+04  0.25500000000E-02 0.  1.
          2   -1    0    0  501    0  0.00000000000E+00 -0.00000000000E+00 -0.15311025883E+04  0.15311025883E+04  0.25500000000E-02 0. -1.
    8880023    1    1    2    0    0 -0.13188404841E+04  0.42241651842E+03  0.19847760121E+04  0.25081710392E+04  0.65864270000E+03 0.  0.
    8880022    1    1    2    0    0  0.13188404841E+04 -0.42241651842E+03 -0.88710638431E+03  0.16517037651E+04  0.15294330000E+03 0.  0.
<mgrwt>
<rscale>  0 0.14971600E+04</rscale>
<asrwt>0</asrwt>
<pdfrwt beam="1">  1        2 0.23555424E+00 0.15334882E+04</pdfrwt>
<pdfrwt beam="2">  1       -2 0.40442650E+00 0.15334882E+04</pdfrwt>
<totfact> 0.79429561E-02</totfact>
</mgrwt>
</event>
<event>
 4    5  0.2473208E-007  0.7082765E+03  0.7818608E-02  0.9964458E-01
         -2   -1    0    0    0  501 -0.00000000000E+00  0.00000000000E+00  0.21563888063E+03  0.21563888064E+03  0.25500000000E-02 0.  1.
          2   -1    0    0  501    0  0.00000000000E+00 -0.00000000000E+00 -0.13457748390E+04  0.13457748390E+04  0.25500000000E-02 0. -1.
    8880023    1    1    2    0    0 -0.24965063813E+03 -0.74296104093E+02 -0.51370554295E+03  0.87495653796E+03  0.65864270000E+03 0.  0.
    8880022    1    1    2    0    0  0.24965063813E+03  0.74296104093E+02 -0.61643041539E+03  0.68645718165E+03  0.15294330000E+03 0.  0.
<mgrwt>
<rscale>  0 0.57236555E+03</rscale>
<asrwt>0</asrwt>
<pdfrwt beam="1">  1        2 0.20704228E+00 0.70827647E+03</pdfrwt>
<pdfrwt beam="2">  1       -2 0.33175213E-01 0.70827647E+03</pdfrwt>
<totfact> 0.13433321E+02</totfact>
</mgrwt>
</event>
<event>
 4    5  0.2473208E-007  0.6722395E+03  0.7818608E-02  0.1014106E+00
         -2   -1    0    0    0  501 -0.00000000000E+00  0.00000000000E+00  0.32581715723E+04  0.32581715723E+04  0.25500000000E-02 0.  1.
          2   -1    0    0  501    0  0.00000000000E+00 -0.00000000000E+00 -0.17693514264E+04  0.17693514264E+04  0.25500000000E-02 0. -1.
    8880023    1    1    2    0    0  0.13056843422E+03 -0.32366051772E+02  0.32174536780E+04  0.32869307954E+04  0.65864270000E+03 0.  1.
    8880022    1    1    2    0    0 -0.13056843422E+03  0.32366051772E+02 -0.17286335320E+04  0.17405922034E+04  0.15294330000E+03 0.  0.
<mgrwt>
<rscale>  0 0.49874946E+03</rscale>
<asrwt>0</asrwt>
<pdfrwt beam="1">  1        2 0.27220792E+00 0.67223945E+03</pdfrwt>
<pdfrwt beam="2">  1       -2 0.50125716E+00 0.67223945E+03</pdfrwt>
<totfact> 0.16041285E-02</totfact>
</mgrwt>
</event>
<event>
 4    5  0.2473208E-007  0.8584338E+03  0.7818608E-02  0.9596355E-01
         -2   -1    0    0    0  501 -0.00000000000E+00  0.00000000000E+00  0.70669640073E+03  0.70669640074E+03  0.25500000000E-02 0.  1.
          2   -1    0    0  501    0  0.00000000000E+00 -0.00000000000E+00 -0.78405034502E+03  0.78405034502E+03  0.25500000000E-02 0. -1.
    8880023    1    1    2    0    0 -0.26094478176E+03 -0.48477445890E+03  0.15787162088E+03  0.87282994339E+03  0.65864270000E+03 0.  1.
    8880022    1    1    2    0    0  0.26094478176E+03  0.48477445890E+03 -0.23522556516E+03  0.61791680237E+03  0.15294330000E+03 0.  0.
<mgrwt>
<rscale>  0 0.77537872E+03</rscale>
<asrwt>0</asrwt>
<pdfrwt beam="1">  1        2 0.12062313E+00 0.85843384E+03</pdfrwt>
<pdfrwt beam="2">  1       -2 0.10872252E+00 0.85843384E+03</pdfrwt>
<totfact> 0.24025875E+01</totfact>
</mgrwt>
</event>
<event>
 4    5  0.2473208E-007  0.6942275E+03  0.7818608E-02  0.1002205E+00
          2   -1    0    0  501    0  0.00000000000E+00  0.00000000000E+00  0.17571156827E+04  0.17571156827E+04  0.25500000000E-02 0. -1.
         -2   -1    0    0    0  501 -0.00000000000E+00 -0.00000000000E+00 -0.40801584359E+03  0.40801584360E+03  0.25500000000E-02 0.  1.
    8880023    1    1    2    0    0  0.16368014186E+03 -0.14611764275E+03 -0.91215394455E+02  0.70019426505E+03  0.65864270000E+03 0.  1.
    8880022    1    1    2    0    0 -0.16368014186E+03  0.14611764275E+03  0.14403152336E+04  0.14649372613E+04  0.15294330000E+03 0.  0.
<mgrwt>
<rscale>  0 0.54694015E+03</rscale>
<asrwt>0</asrwt>
<pdfrwt beam="1">  1        2 0.27032550E+00 0.69422746E+03</pdfrwt>
<pdfrwt beam="2">  1       -2 0.62771667E-01 0.69422746E+03</pdfrwt>
<totfact> 0.22226384E+01</totfact>
</mgrwt>
</event>
<event>
 4    5  0.2473208E-007  0.1625920E+04  0.7818608E-02  0.8825484E-01
          2   -1    0    0  501    0  0.00000000000E+00  0.00000000000E+00  0.41473399894E+04  0.41473399894E+04  0.25500000000E-02 0. -1.
         -2   -1    0    0    0  501 -0.00000000000E+00 -0.00000000000E+00 -0.70966750940E+03  0.70966750940E+03  0.25500000000E-02 0.  1.
    8880023    1    1    2    0    0  0.13840260629E+04 -0.54247254375E+03  0.76943224141E+03  0.17987886990E+04  0.65864270000E+03 0.  0.
    8880022    1    1    2    0    0 -0.13840260629E+04  0.54247254375E+03  0.26682402386E+04  0.30582187998E+04  0.15294330000E+03 0.  0.
<mgrwt>
<rscale>  0 0.15919894E+04</rscale>
<asrwt>0</asrwt>
<pdfrwt beam="1">  1        2 0.63805230E+00 0.16259197E+04</pdfrwt>
<pdfrwt beam="2">  1       -2 0.10917962E+00 0.16259197E+04</pdfrwt>
<totfact> 0.16494322E-01</totfact>
</mgrwt>
</event>
<event>
 4    5  0.2473208E-007  0.1042203E+04  0.7818608E-02  0.9328314E-01
          2   -1    0    0  501    0  0.00000000000E+00  0.00000000000E+00  0.10756008127E+04  0.10756008127E+04  0.25500000000E-02 0. -1.
         -2   -1    0    0    0  501 -0.00000000000E+00 -0.00000000000E+00 -0.10957966539E+04  0.10957966539E+04  0.25500000000E-02 0.  1.
    8880023    1    1    2    0    0  0.20537334170E+03  0.78115168097E+03 -0.56471093539E+03  0.11853627314E+04  0.65864270000E+03 0.  0.
    8880022    1    1    2    0    0 -0.20537334170E+03 -0.78115168097E+03  0.54451509422E+03  0.98603473520E+03  0.15294330000E+03 0.  0.
<mgrwt>
<rscale>  0 0.98217487E+03</rscale>
<asrwt>0</asrwt>
<pdfrwt beam="1">  1        2 0.16547705E+00 0.10422027E+04</pdfrwt>
<pdfrwt beam="2">  1       -2 0.16858410E+00 0.10422027E+04</pdfrwt>
<totfact> 0.48568023E+00</totfact>
</mgrwt>
</event>
<event>
 4    5  0.2473208E-007  0.1009492E+04  0.7818608E-02  0.9369244E-01
          2   -1    0    0  501    0  0.00000000000E+00  0.00000000000E+00  0.47242576460E+04  0.47242576460E+04  0.25500000000E-02 0. -1.
         -2   -1    0    0    0  501 -0.00000000000E+00 -0.00000000000E+00 -0.29116393004E+03  0.29116393005E+03  0.25500000000E-02 0.  1.
    8880023    1    1    2    0    0  0.27167967748E+03 -0.71515959525E+03  0.76856228348E+03  0.12687636831E+04  0.65864270000E+03 0.  0.
    8880022    1    1    2    0    0 -0.27167967748E+03  0.71515959525E+03  0.36645314325E+04  0.37466578929E+04  0.15294330000E+03 0.  0.
<mgrwt>
<rscale>  0 0.94650609E+03</rscale>
<asrwt>0</asrwt>
<pdfrwt beam="1">  1        2 0.72680888E+00 0.10094916E+04</pdfrwt>
<pdfrwt beam="2">  1       -2 0.44794450E-01 0.10094916E+04</pdfrwt>
<totfact> 0.37079536E-01</totfact>
</mgrwt>
</event>
<event>
 4    5  0.2473208E-007  0.6959367E+03  0.7818608E-02  0.1001449E+00
          2   -1    0    0  501    0  0.00000000000E+00  0.00000000000E+00  0.22259486571E+04  0.22259486571E+04  0.25500000000E-02 0. -1.
         -2   -1    0    0    0  501 -0.00000000000E+00 -0.00000000000E+00 -0.51053127388E+03  0.51053127388E+03  0.25500000000E-02 0.  1.
    8880023    1    1    2    0    0 -0.12517005211E+03 -0.18668175059E+03 -0.25964533034E+03  0.74279440075E+03  0.65864270000E+03 0.  1.
    8880022    1    1    2    0    0  0.12517005211E+03  0.18668175059E+03  0.19750627135E+04  0.19936855302E+04  0.15294330000E+03 0.  0.
<mgrwt>
<rscale>  0 0.55019248E+03</rscale>
<asrwt>0</asrwt>
<pdfrwt beam="1">  1        2 0.34245364E+00 0.69593665E+03</pdfrwt>
<pdfrwt beam="2">  1       -2 0.78543274E-01 0.69593665E+03</pdfrwt>
<totfact> 0.75604720E+00</totfact>
</mgrwt>
</event>
<event>
 4    5  0.2473208E-007  0.8291322E+03  0.7818608E-02  0.9651023E-01
         -2   -1    0    0    0  501 -0.00000000000E+00  0.00000000000E+00  0.22013519099E+03  0.22013519100E+03  0.25500000000E-02 0.  1.
          2   -1    0    0  501    0  0.00000000000E+00 -0.00000000000E+00 -0.24800132427E+04  0.24800132427E+04  0.25500000000E-02 0. -1.
    8880023    1    1    2    0    0  0.46590305898E+03 -0.19127018589E+03 -0.81598277539E+03  0.11633090906E+04  0.65864270000E+03 0.  1.
    8880022    1    1    2    0    0 -0.46590305898E+03  0.19127018589E+03 -0.14438952764E+04  0.15368393431E+04  0.15294330000E+03 0.  0.
<mgrwt>
<rscale>  0 0.74009240E+03</rscale>
<asrwt>0</asrwt>
<pdfrwt beam="1">  1        2 0.38154048E+00 0.82913217E+03</pdfrwt>
<pdfrwt beam="2">  1       -2 0.33866954E-01 0.82913217E+03</pdfrwt>
<totfact> 0.30089934E+01</totfact>
</mgrwt>
</event>
<event>
 4    5  0.2473208E-007  0.1350237E+04  0.7818608E-02  0.9023347E-01
          2   -1    0    0  501    0  0.00000000000E+00  0.00000000000E+00  0.16553188112E+04  0.16553188112E+04  0.25500000000E-02 0. -1.
         -2   -1    0    0    0  501 -0.00000000000E+00 -0.00000000000E+00 -0.11827913453E+04  0.11827913453E+04  0.25500000000E-02 0.  1.
    8880023    1    1    2    0    0  0.66011820614E+03 -0.97651095930E+03 -0.34733215524E+03  0.13941949405E+04  0.65864270000E+03 0.  0.
    8880022    1    1    2    0    0 -0.66011820614E+03  0.97651095930E+03  0.81985962116E+03  0.14439152161E+04  0.15294330000E+03 0.  0.
<mgrwt>
<rscale>  0 0.13078700E+04</rscale>
<asrwt>0</asrwt>
<pdfrwt beam="1">  1        2 0.25466443E+00 0.13502370E+04</pdfrwt>
<pdfrwt beam="2">  1       -2 0.18196790E+00 0.13502370E+04</pdfrwt>
<totfact> 0.17440900E+00</totfact>
</mgrwt>
</event>
<event>
 4    5  0.2473208E-007  0.7526417E+03  0.7818608E-02  0.9824544E-01
          2   -1    0    0  501    0  0.00000000000E+00  0.00000000000E+00  0.11895997738E+04  0.11895997738E+04  0.25500000000E-02 0. -1.
         -2   -1    0    0    0  501 -0.00000000000E+00 -0.00000000000E+00 -0.62355422219E+03  0.62355422220E+03  0.25500000000E-02 0.  1.
    8880023    1    1    2    0    0 -0.16004927457E+03  0.32717510356E+03 -0.33914245265E+03  0.82552233654E+03  0.65864270000E+03 0.  1.
    8880022    1    1    2    0    0  0.16004927457E+03 -0.32717510356E+03  0.90518800426E+03  0.98763165945E+03  0.15294330000E+03 0.  0.
<mgrwt>
<rscale>  0 0.64061856E+03</rscale>
<asrwt>0</asrwt>
<pdfrwt beam="1">  1        2 0.18301535E+00 0.75264170E+03</pdfrwt>
<pdfrwt beam="2">  1       -2 0.95931420E-01 0.75264170E+03</pdfrwt>
<totfact> 0.17832080E+01</totfact>
</mgrwt>
</event>
<event>
 4    5  0.2473208E-007  0.8818814E+03  0.7818608E-02  0.9555767E-01
          2   -1    0    0  501    0  0.00000000000E+00  0.00000000000E+00  0.35307465034E+03  0.35307465035E+03  0.25500000000E-02 0. -1.
         -2   -1    0    0    0  501 -0.00000000000E+00 -0.00000000000E+00 -0.15692425061E+04  0.15692425061E+04  0.25500000000E-02 0.  1.
    8880023    1    1    2    0    0  0.21302411103E+03 -0.54637475591E+03 -0.75111929516E+03  0.11584019370E+04  0.65864270000E+03 0.  0.
    8880022    1    1    2    0    0 -0.21302411103E+03  0.54637475591E+03 -0.46504856056E+03  0.76391521942E+03  0.15294330000E+03 0. -1.
<mgrwt>
<rscale>  0 0.80294300E+03</rscale>
<asrwt>0</asrwt>
<pdfrwt beam="1">  1        2 0.54319178E-01 0.88188143E+03</pdfrwt>
<pdfrwt beam="2">  1       -2 0.24142192E+00 0.88188143E+03</pdfrwt>
<totfact> 0.67201241E+00</totfact>
</mgrwt>
</event>
<event>
 4    5  0.2473208E-007  0.6868935E+03  0.7818608E-02  0.1005665E+00
          2   -1    0    0  501    0  0.00000000000E+00  0.00000000000E+00  0.18864375286E+04  0.18864375286E+04  0.25500000000E-02 0. -1.
         -2   -1    0    0    0  501 -0.00000000000E+00 -0.00000000000E+00 -0.73149271706E+03  0.73149271707E+03  0.25500000000E-02 0.  1.
    8880023    1    1    2    0    0 -0.60995883494E+02 -0.18518099857E+03 -0.55934283166E+03  0.88582566549E+03  0.65864270000E+03 0.  1.
    8880022    1    1    2    0    0  0.60995883494E+02  0.18518099857E+03  0.17142876432E+04  0.17321045802E+04  0.15294330000E+03 0.  0.
<mgrwt>
<rscale>  0 0.53234329E+03</rscale>
<asrwt>0</asrwt>
<pdfrwt beam="1">  1        2 0.29022116E+00 0.68689352E+03</pdfrwt>
<pdfrwt beam="2">  1       -2 0.11253734E+00 0.68689352E+03</pdfrwt>
<totfact> 0.50167177E+00</totfact>
</mgrwt>
</event>
<event>
 4    5  0.2473208E-007  0.8664858E+03  0.7818608E-02  0.9582129E-01
         -2   -1    0    0    0  501 -0.00000000000E+00  0.00000000000E+00  0.40722207925E+03  0.40722207926E+03  0.25500000000E-02 0.  1.
          2   -1    0    0  501    0  0.00000000000E+00 -0.00000000000E+00 -0.20282351540E+04  0.20282351540E+04  0.25500000000E-02 0. -1.
    8880023    1    1    2    0    0 -0.51041326454E+03 -0.23762530729E+03 -0.18578349894E+03  0.88617898984E+03  0.65864270000E+03 0.  1.
    8880022    1    1    2    0    0  0.51041326454E+03  0.23762530729E+03 -0.14352295758E+04  0.15492782434E+04  0.15294330000E+03 0.  0.
<mgrwt>
<rscale>  0 0.78490386E+03</rscale>
<asrwt>0</asrwt>
<pdfrwt beam="1">  1        2 0.31203617E+00 0.86648583E+03</pdfrwt>
<pdfrwt beam="2">  1       -2 0.62649552E-01 0.86648583E+03</pdfrwt>
<totfact> 0.15517271E+01</totfact>
</mgrwt>
</event>
<event>
 4    5  0.2473208E-007  0.8365772E+03  0.7818608E-02  0.9636668E-01
         -2   -1    0    0    0  501 -0.00000000000E+00  0.00000000000E+00  0.86247999806E+03  0.86247999807E+03  0.25500000000E-02 0.  1.
          2   -1    0    0  501    0  0.00000000000E+00 -0.00000000000E+00 -0.91805109775E+03  0.91805109775E+03  0.25500000000E-02 0. -1.
    8880023    1    1    2    0    0  0.38593838939E+03 -0.34220276373E+03  0.52606094024E+03  0.98823149668E+03  0.65864270000E+03 0. -1.
    8880022    1    1    2    0    0 -0.38593838939E+03  0.34220276373E+03 -0.58163203993E+03  0.79229959914E+03  0.15294330000E+03 0.  0.
<mgrwt>
<rscale>  0 0.74916048E+03</rscale>
<asrwt>0</asrwt>
<pdfrwt beam="1">  1        2 0.14123863E+00 0.83657718E+03</pdfrwt>
<pdfrwt beam="2">  1       -2 0.13268923E+00 0.83657718E+03</pdfrwt>
<totfact> 0.11838196E+01</totfact>
</mgrwt>
</event>
<event>
 4    5  0.2473208E-007  0.8439345E+03  0.7818608E-02  0.9622806E-01
         -2   -1    0    0    0  501 -0.00000000000E+00  0.00000000000E+00  0.37329487960E+03  0.37329487961E+03  0.25500000000E-02 0.  1.
          2   -1    0    0  501    0  0.00000000000E+00 -0.00000000000E+00 -0.15577727155E+04  0.15577727155E+04  0.25500000000E-02 0. -1.
    8880023    1    1    2    0    0 -0.51754615541E+03  0.10276784683E+03 -0.31144772474E+03  0.89956942191E+03  0.65864270000E+03 0.  0.
    8880022    1    1    2    0    0  0.51754615541E+03 -0.10276784683E+03 -0.87303011118E+03  0.10314981732E+04  0.15294330000E+03 0.  0.
<mgrwt>
<rscale>  0 0.75804975E+03</rscale>
<asrwt>0</asrwt>
<pdfrwt beam="1">  1        2 0.23965734E+00 0.84393451E+03</pdfrwt>
<pdfrwt beam="2">  1       -2 0.57429982E-01 0.84393451E+03</pdfrwt>
<totfact> 0.33906441E+01</totfact>
</mgrwt>
</event>
<event>
 4    5  0.2473208E-007  0.1347047E+04  0.7818608E-02  0.9025961E-01
          2   -1    0    0  501    0  0.00000000000E+00  0.00000000000E+00  0.17481120788E+04  0.17481120788E+04  0.25500000000E-02 0. -1.
         -2   -1    0    0    0  501 -0.00000000000E+00 -0.00000000000E+00 -0.94659300470E+03  0.94659300470E+03  0.25500000000E-02 0.  1.
    8880023    1    1    2    0    0 -0.10391768677E+04  0.54848556439E+03  0.18725377766E+03  0.13599996913E+04  0.65864270000E+03 0.  0.
    8880022    1    1    2    0    0  0.10391768677E+04 -0.54848556439E+03  0.61426529648E+03  0.13347053923E+04  0.15294330000E+03 0.  0.
<mgrwt>
<rscale>  0 0.13045551E+04</rscale>
<asrwt>0</asrwt>
<pdfrwt beam="1">  1        2 0.26894032E+00 0.13470468E+04</pdfrwt>
<pdfrwt beam="2">  1       -2 0.14562970E+00 0.13470468E+04</pdfrwt>
<totfact> 0.28643404E+00</totfact>
</mgrwt>
</event>
<event>
 4    5  0.2473208E-007  0.1027397E+04  0.7818608E-02  0.9346560E-01
         -2   -1    0    0    0  501 -0.00000000000E+00  0.00000000000E+00  0.25592566964E+04  0.25592566964E+04  0.25500000000E-02 0.  1.
          2   -1    0    0  501    0  0.00000000000E+00 -0.00000000000E+00 -0.73143674482E+03  0.73143674483E+03  0.25500000000E-02 0. -1.
    8880023    1    1    2    0    0  0.10551335583E+03 -0.78140956891E+03  0.21828373508E+04  0.24125345778E+04  0.65864270000E+03 0.  0.
    8880022    1    1    2    0    0 -0.10551335583E+03  0.78140956891E+03 -0.35501739925E+03  0.87815886343E+03  0.15294330000E+03 0.  0.
<mgrwt>
<rscale>  0 0.96607133E+03</rscale>
<asrwt>0</asrwt>
<pdfrwt beam="1">  1        2 0.11252873E+00 0.10273968E+04</pdfrwt>
<pdfrwt beam="2">  1       -2 0.39373180E+00 0.10273968E+04</pdfrwt>
<totfact> 0.32011076E-01</totfact>
</mgrwt>
</event>
<event>
 4    5  0.2473208E-007  0.1716814E+04  0.7818608E-02  0.8770003E-01
          2   -1    0    0  501    0  0.00000000000E+00  0.00000000000E+00  0.30164025757E+04  0.30164025757E+04  0.25500000000E-02 0. -1.
         -2   -1    0    0    0  501 -0.00000000000E+00 -0.00000000000E+00 -0.98976266434E+03  0.98976266434E+03  0.25500000000E-02 0.  1.
    8880023    1    1    2    0    0  0.78743465253E+03 -0.13760769361E+04  0.16240719836E+04  0.23632733825E+04  0.65864270000E+03 0.  1.
    8880022    1    1    2    0    0 -0.78743465253E+03  0.13760769361E+04  0.40256792777E+03  0.16428918576E+04  0.15294330000E+03 0. -1.
<mgrwt>
<rscale>  0 0.16849354E+04</rscale>
<asrwt>0</asrwt>
<pdfrwt beam="1">  1        2 0.46406193E+00 0.17168143E+04</pdfrwt>
<pdfrwt beam="2">  1       -2 0.15227118E+00 0.17168143E+04</pdfrwt>
<totfact> 0.45325777E-01</totfact>
</mgrwt>
</event>
<event>
 4    5  0.2473208E-007  0.1090726E+04  0.7818608E-02  0.9271453E-01
         -2   -1    0    0    0  501 -0.00000000000E+00  0.00000000000E+00  0.11372098264E+04  0.11372098264E+04  0.25500000000E-02 0.  1.
          2   -1    0    0  501    0  0.00000000000E+00 -0.00000000000E+00 -0.18322587768E+04  0.18322587768E+04  0.25500000000E-02 0. -1.
    8880023    1    1    2    0    0  0.70386863037E+03 -0.51033433331E+03 -0.14454917946E+04  0.18108365235E+04  0.65864270000E+03 0.  0.
    8880022    1    1    2    0    0 -0.70386863037E+03  0.51033433331E+03  0.75044284423E+03  0.11586320797E+04  0.15294330000E+03 0.  0.
<mgrwt>
<rscale>  0 0.10345398E+04</rscale>
<asrwt>0</asrwt>
<pdfrwt beam="1">  1        2 0.28188597E+00 0.10907256E+04</pdfrwt>
<pdfrwt beam="2">  1       -2 0.17495536E+00 0.10907256E+04</pdfrwt>
<totfact> 0.16017215E+00</totfact>
</mgrwt>
</event>
<event>
 4    5  0.2473208E-007  0.1401619E+04  0.7818608E-02  0.8982425E-01
         -2   -1    0    0    0  501 -0.00000000000E+00  0.00000000000E+00  0.10850866165E+04  0.10850866165E+04  0.25500000000E-02 0.  1.
          2   -1    0    0  501    0  0.00000000000E+00 -0.00000000000E+00 -0.25106061552E+04  0.25106061552E+04  0.25500000000E-02 0. -1.
    8880023    1    1    2    0    0  0.98178610598E+03  0.75287625712E+03  0.33250573850E+03  0.14405196593E+04  0.65864270000E+03 0.  0.
    8880022    1    1    2    0    0 -0.98178610598E+03 -0.75287625712E+03 -0.17580252772E+04  0.21551731124E+04  0.15294330000E+03 0.  0.
<mgrwt>
<rscale>  0 0.13611565E+04</rscale>
<asrwt>0</asrwt>
<pdfrwt beam="1">  1        2 0.38624710E+00 0.14016194E+04</pdfrwt>
<pdfrwt beam="2">  1       -2 0.16693640E+00 0.14016194E+04</pdfrwt>
<totfact> 0.73320743E-01</totfact>
</mgrwt>
</event>
<event>
 4    5  0.2473208E-007  0.1683533E+04  0.7818608E-02  0.8789854E-01
          2   -1    0    0  501    0  0.00000000000E+00  0.00000000000E+00  0.31651748698E+04  0.31651748698E+04  0.25500000000E-02 0. -1.
         -2   -1    0    0    0  501 -0.00000000000E+00 -0.00000000000E+00 -0.24016570342E+04  0.24016570342E+04  0.25500000000E-02 0.  1.
    8880023    1    1    2    0    0 -0.10254431684E+04  0.11614383977E+04 -0.18646070969E+04  0.25121788701E+04  0.65864270000E+03 0.  0.
    8880022    1    1    2    0    0  0.10254431684E+04 -0.11614383977E+04  0.26281249326E+04  0.30546530339E+04  0.15294330000E+03 0.  0.
<mgrwt>
<rscale>  0 0.16509341E+04</rscale>
<asrwt>0</asrwt>
<pdfrwt beam="1">  1        2 0.48694998E+00 0.16835329E+04</pdfrwt>
<pdfrwt beam="2">  1       -2 0.36948570E+00 0.16835329E+04</pdfrwt>
<totfact> 0.14677557E-02</totfact>
</mgrwt>
</event>
<event>
 4    5  0.2473208E-007  0.1107644E+04  0.7818608E-02  0.9252593E-01
         -2   -1    0    0    0  501 -0.00000000000E+00  0.00000000000E+00  0.41787863911E+03  0.41787863912E+03  0.25500000000E-02 0.  1.
          2   -1    0    0  501    0  0.00000000000E+00 -0.00000000000E+00 -0.25993637985E+04  0.25993637985E+04  0.25500000000E-02 0. -1.
    8880023    1    1    2    0    0 -0.26388291173E+03  0.85054719114E+03 -0.79935784571E+03  0.13659604267E+04  0.65864270000E+03 0.  1.
    8880022    1    1    2    0    0  0.26388291173E+03 -0.85054719114E+03 -0.13821273137E+04  0.16512820110E+04  0.15294330000E+03 0.  0.
<mgrwt>
<rscale>  0 0.10526688E+04</rscale>
<asrwt>0</asrwt>
<pdfrwt beam="1">  1        2 0.39990211E+00 0.11076439E+04</pdfrwt>
<pdfrwt beam="2">  1       -2 0.64289023E-01 0.11076439E+04</pdfrwt>
<totfact> 0.68097493E+00</totfact>
</mgrwt>
</event>
<event>
 4    5  0.2473208E-007  0.7056605E+03  0.7818608E-02  0.9974483E-01
          2   -1    0    0  501    0  0.00000000000E+00  0.00000000000E+00  0.71006615352E+03  0.71006615353E+03  0.25500000000E-02 0. -1.
         -2   -1    0    0    0  501 -0.00000000000E+00 -0.00000000000E+00 -0.59932793899E+03  0.59932793899E+03  0.25500000000E-02 0.  1.
    8880023    1    1    2    0    0  0.20158057192E+03 -0.15333538605E+03 -0.32963838220E+03  0.77885694249E+03  0.65864270000E+03 0.  1.
    8880022    1    1    2    0    0 -0.20158057192E+03  0.15333538605E+03  0.44037659673E+03  0.53053715003E+03  0.15294330000E+03 0.  0.
<mgrwt>
<rscale>  0 0.56783412E+03</rscale>
<asrwt>0</asrwt>
<pdfrwt beam="1">  1        2 0.10924095E+00 0.70566045E+03</pdfrwt>
<pdfrwt beam="2">  1       -2 0.92204299E-01 0.70566045E+03</pdfrwt>
<totfact> 0.40882569E+01</totfact>
</mgrwt>
</event>
<event>
 4    5  0.2473208E-007  0.8908336E+03  0.7818608E-02  0.9540910E-01
         -2   -1    0    0    0  501 -0.00000000000E+00  0.00000000000E+00  0.11444871235E+04  0.11444871235E+04  0.25500000000E-02 0.  1.
          2   -1    0    0  501    0  0.00000000000E+00 -0.00000000000E+00 -0.62267071887E+03  0.62267071888E+03  0.25500000000E-02 0. -1.
    8880023    1    1    2    0    0 -0.26293099626E+03  0.53911186615E+03  0.68875191668E+03  0.11260389523E+04  0.65864270000E+03 0.  0.
    8880022    1    1    2    0    0  0.26293099626E+03 -0.53911186615E+03 -0.16693551209E+03  0.64111889009E+03  0.15294330000E+03 0.  0.
<mgrwt>
<rscale>  0 0.81333753E+03</rscale>
<asrwt>0</asrwt>
<pdfrwt beam="1">  1        2 0.95795496E-01 0.89083361E+03</pdfrwt>
<pdfrwt beam="2">  1       -2 0.17607494E+00 0.89083361E+03</pdfrwt>
<totfact> 0.91785857E+00</totfact>
</mgrwt>
</event>
<event>
 4    5  0.2473208E-007  0.6919926E+03  0.7818608E-02  0.1003220E+00
          2   -1    0    0  501    0  0.00000000000E+00  0.00000000000E+00  0.26961724698E+04  0.26961724698E+04  0.25500000000E-02 0. -1.
         -2   -1    0    0    0  501 -0.00000000000E+00 -0.00000000000E+00 -0.58646974995E+03  0.58646974996E+03  0.25500000000E-02 0.  1.
    8880023    1    1    2    0    0 -0.20699682830E+03 -0.46859626993E+02 -0.37305199731E+03  0.78614344144E+03  0.65864270000E+03 0.  1.
    8880022    1    1    2    0    0  0.20699682830E+03  0.46859626993E+02  0.24827547171E+04  0.24964987783E+04  0.15294330000E+03 0.  0.
<mgrwt>
<rscale>  0 0.54260774E+03</rscale>
<asrwt>0</asrwt>
<pdfrwt beam="1">  1        2 0.41479576E+00 0.69199257E+03</pdfrwt>
<pdfrwt beam="2">  1       -2 0.90226115E-01 0.69199257E+03</pdfrwt>
<totfact> 0.29988023E+00</totfact>
</mgrwt>
</event>
<event>
 4    5  0.2473208E-007  0.1229167E+04  0.7818608E-02  0.9129278E-01
          2   -1    0    0  501    0  0.00000000000E+00  0.00000000000E+00  0.98736013618E+03  0.98736013618E+03  0.25500000000E-02 0. -1.
         -2   -1    0    0    0  501 -0.00000000000E+00 -0.00000000000E+00 -0.26148265105E+04  0.26148265105E+04  0.25500000000E-02 0.  1.
    8880023    1    1    2    0    0  0.64060146719E+03  0.81649951759E+03 -0.21143598876E+04  0.24456838804E+04  0.65864270000E+03 0.  0.
    8880022    1    1    2    0    0 -0.64060146719E+03 -0.81649951759E+03  0.48689351337E+03  0.11565027663E+04  0.15294330000E+03 0.  0.
<mgrwt>
<rscale>  0 0.11814183E+04</rscale>
<asrwt>0</asrwt>
<pdfrwt beam="1">  1        2 0.15190156E+00 0.12291672E+04</pdfrwt>
<pdfrwt beam="2">  1       -2 0.40228100E+00 0.12291672E+04</pdfrwt>
<totfact> 0.18077584E-01</totfact>
</mgrwt>
</event>
<event>
 4    5  0.2473208E-007  0.8898895E+03  0.7818608E-02  0.9542461E-01
          2   -1    0    0  501    0  0.00000000000E+00  0.00000000000E+00  0.42904189164E+04  0.42904189164E+04  0.25500000000E-02 0. -1.
         -2   -1    0    0    0  501 -0.00000000000E+00 -0.00000000000E+00 -0.85214197748E+03  0.85214197748E+03  0.25500000000E-02 0.  1.
    8880023    1    1    2    0    0  0.24972095908E+03 -0.54381294499E+03 -0.58967474588E+03  0.10675296664E+04  0.65864270000E+03 0.  1.
    8880022    1    1    2    0    0 -0.24972095908E+03  0.54381294499E+03  0.40279516848E+04  0.40750312274E+04  0.15294330000E+03 0.  0.
<mgrwt>
<rscale>  0 0.81224435E+03</rscale>
<asrwt>0</asrwt>
<pdfrwt beam="1">  1        2 0.66006446E+00 0.88988948E+03</pdfrwt>
<pdfrwt beam="2">  1       -2 0.13109876E+00 0.88988948E+03</pdfrwt>
<totfact> 0.89577866E-02</totfact>
</mgrwt>
</event>
<event>
 4    5  0.2473208E-007  0.1409963E+04  0.7818608E-02  0.8975980E-01
         -2   -1    0    0    0  501 -0.00000000000E+00  0.00000000000E+00  0.17757052223E+04  0.17757052223E+04  0.25500000000E-02 0.  1.
          2   -1    0    0  501    0  0.00000000000E+00 -0.00000000000E+00 -0.24204329278E+04  0.24204329278E+04  0.25500000000E-02 0. -1.
    8880023    1    1    2    0    0 -0.97718803412E+03 -0.77413718658E+03  0.12757149210E+04  0.19014319876E+04  0.65864270000E+03 0.  1.
    8880022    1    1    2    0    0  0.97718803412E+03  0.77413718658E+03 -0.19204426265E+04  0.22947061625E+04  0.15294330000E+03 0.  0.
<mgrwt>
<rscale>  0 0.13697917E+04</rscale>
<asrwt>0</asrwt>
<pdfrwt beam="1">  1        2 0.37237430E+00 0.14099628E+04</pdfrwt>
<pdfrwt beam="2">  1       -2 0.27318542E+00 0.14099628E+04</pdfrwt>
<totfact> 0.17012594E-01</totfact>
</mgrwt>
</event>
<event>
 4    5  0.2473208E-007  0.6810059E+03  0.7818608E-02  0.1008760E+00
         -2   -1    0    0    0  501 -0.00000000000E+00  0.00000000000E+00  0.73299377127E+03  0.73299377127E+03  0.25500000000E-02 0.  1.
          2   -1    0    0  501    0  0.00000000000E+00 -0.00000000000E+00 -0.63332981158E+03  0.63332981159E+03  0.25500000000E-02 0. -1.
    8880023    1    1    2    0    0 -0.17307174466E+03 -0.22246456849E+01  0.53997696435E+03  0.86910534813E+03  0.65864270000E+03 0.  0.
    8880022    1    1    2    0    0  0.17307174466E+03  0.22246456849E+01 -0.44031300467E+03  0.49721823473E+03  0.15294330000E+03 0.  0.
<mgrwt>
<rscale>  0 0.51970319E+03</rscale>
<asrwt>0</asrwt>
<pdfrwt beam="1">  1        2 0.97435356E-01 0.68100586E+03</pdfrwt>
<pdfrwt beam="2">  1       -2 0.11276827E+00 0.68100586E+03</pdfrwt>
<totfact> 0.29266452E+01</totfact>
</mgrwt>
</event>
<event>
 4    5  0.2473208E-007  0.7917438E+03  0.7818608E-02  0.9728940E-01
         -2   -1    0    0    0  501 -0.00000000000E+00  0.00000000000E+00  0.17392770956E+03  0.17392770958E+03  0.25500000000E-02 0.  1.
          2   -1    0    0  501    0  0.00000000000E+00 -0.00000000000E+00 -0.26153562717E+04  0.26153562717E+04  0.25500000000E-02 0. -1.
    8880023    1    1    2    0    0  0.41348915526E+03 -0.14857566339E+03 -0.10050784712E+04  0.12794690105E+04  0.65864270000E+03 0.  1.
    8880022    1    1    2    0    0 -0.41348915526E+03  0.14857566339E+03 -0.14363500909E+04  0.15098149708E+04  0.15294330000E+03 0.  0.
<mgrwt>
<rscale>  0 0.69319529E+03</rscale>
<asrwt>0</asrwt>
<pdfrwt beam="1">  1        2 0.40236248E+00 0.79174378E+03</pdfrwt>
<pdfrwt beam="2">  1       -2 0.26758111E-01 0.79174378E+03</pdfrwt>
<totfact> 0.39219218E+01</totfact>
</mgrwt>
</event>
<event>
 4    5  0.2473208E-007  0.7980135E+03  0.7818608E-02  0.9715108E-01
          2   -1    0    0  501    0  0.00000000000E+00  0.00000000000E+00  0.32918239928E+03  0.32918239929E+03  0.25500000000E-02 0. -1.
         -2   -1    0    0    0  501 -0.00000000000E+00 -0.00000000000E+00 -0.16103495272E+04  0.16103495272E+04  0.25500000000E-02 0.  1.
    8880023    1    1    2    0    0 -0.45031667230E+03  0.15175465018E+02 -0.12227770506E+04  0.14601401720E+04  0.65864270000E+03 0.  1.
    8880022    1    1    2    0    0  0.45031667230E+03 -0.15175465018E+02 -0.58390077250E+02  0.47939175444E+03  0.15294330000E+03 0.  0.
<mgrwt>
<rscale>  0 0.70124364E+03</rscale>
<asrwt>0</asrwt>
<pdfrwt beam="1">  1        2 0.50643447E-01 0.79801354E+03</pdfrwt>
<pdfrwt beam="2">  1       -2 0.24774608E+00 0.79801354E+03</pdfrwt>
<totfact> 0.67089844E+00</totfact>
</mgrwt>
</event>
<event>
 4    5  0.2473208E-007  0.8954775E+03  0.7818608E-02  0.9533331E-01
          2   -1    0    0  501    0  0.00000000000E+00  0.00000000000E+00  0.14726947912E+04  0.14726947912E+04  0.25500000000E-02 0. -1.
         -2   -1    0    0    0  501 -0.00000000000E+00 -0.00000000000E+00 -0.49373349849E+03  0.49373349850E+03  0.25500000000E-02 0.  1.
    8880023    1    1    2    0    0  0.20410597032E+03  0.57132344921E+03  0.11959713956E+03  0.90342869823E+03  0.65864270000E+03 0.  0.
    8880022    1    1    2    0    0 -0.20410597032E+03 -0.57132344921E+03  0.85936415311E+03  0.10629995914E+04  0.15294330000E+03 0.  0.
<mgrwt>
<rscale>  0 0.81870439E+03</rscale>
<asrwt>0</asrwt>
<pdfrwt beam="1">  1        2 0.22656843E+00 0.89547749E+03</pdfrwt>
<pdfrwt beam="2">  1       -2 0.75959000E-01 0.89547749E+03</pdfrwt>
<totfact> 0.20566247E+01</totfact>
</mgrwt>
</event>
<event>
 4    5  0.2473208E-007  0.7724162E+03  0.7818608E-02  0.9773963E-01
         -2   -1    0    0    0  501 -0.00000000000E+00  0.00000000000E+00  0.65128841349E+03  0.65128841349E+03  0.25500000000E-02 0.  1.
          2   -1    0    0  501    0  0.00000000000E+00 -0.00000000000E+00 -0.11843035560E+04  0.11843035560E+04  0.25500000000E-02 0. -1.
    8880023    1    1    2    0    0  0.19536028756E+03 -0.35305937310E+03  0.35362765505E+03  0.84951709081E+03  0.65864270000E+03 0.  1.
    8880022    1    1    2    0    0 -0.19536028756E+03  0.35305937310E+03 -0.88664279752E+03  0.98607487865E+03  0.15294330000E+03 0.  0.
<mgrwt>
<rscale>  0 0.66778765E+03</rscale>
<asrwt>0</asrwt>
<pdfrwt beam="1">  1        2 0.18220055E+00 0.77241619E+03</pdfrwt>
<pdfrwt beam="2">  1       -2 0.10019822E+00 0.77241619E+03</pdfrwt>
<totfact> 0.16175631E+01</totfact>
</mgrwt>
</event>
<event>
 4    5  0.2553901E-007  0.7003274E+03  0.7818608E-02  0.9995846E-01
         -2   -1    0    0    0  501 -0.00000000000E+00  0.00000000000E+00  0.12383579706E+04  0.12383579706E+04  0.25500000000E-02 0.  1.
          2   -1    0    0  501    0  0.00000000000E+00 -0.00000000000E+00 -0.19230775461E+04  0.19230775461E+04  0.25500000000E-02 0. -1.
    8880023    1    1    2    0    0 -0.22645767415E+03  0.73246939410E+02  0.11274834084E+04  0.13272818972E+04  0.65864270000E+03 0.  1.
    8880022    1    1    2    0    0  0.22645767415E+03 -0.73246939410E+02 -0.18122029838E+04  0.18341536195E+04  0.15294330000E+03 0.  0.
<mgrwt>
<rscale>  0 0.55832760E+03</rscale>
<asrwt>0</asrwt>
<pdfrwt beam="1">  1        2 0.29585808E+00 0.70032735E+03</pdfrwt>
<pdfrwt beam="2">  1       -2 0.19051661E+00 0.70032735E+03</pdfrwt>
<totfact> 0.11915996E+00</totfact>
</mgrwt>
</event>
<event>
 4    5  0.2473208E-007  0.1450422E+04  0.7818608E-02  0.8945462E-01
          2   -1    0    0  501    0  0.00000000000E+00  0.00000000000E+00  0.18904057120E+04  0.18904057120E+04  0.25500000000E-02 0. -1.
         -2   -1    0    0    0  501 -0.00000000000E+00 -0.00000000000E+00 -0.38755396416E+04  0.38755396416E+04  0.25500000000E-02 0.  1.
    8880023    1    1    2    0    0 -0.29452443167E+03  0.12582399168E+04 -0.34882717778E+04  0.37777986355E+04  0.65864270000E+03 0.  0.
    8880022    1    1    2    0    0  0.29452443167E+03 -0.12582399168E+04  0.15031378481E+04  0.19881467180E+04  0.15294330000E+03 0.  0.
<mgrwt>
<rscale>  0 0.14116029E+04</rscale>
<asrwt>0</asrwt>
<pdfrwt beam="1">  1        2 0.29083165E+00 0.14504215E+04</pdfrwt>
<pdfrwt beam="2">  1       -2 0.59623687E+00 0.14504215E+04</pdfrwt>
<totfact> 0.36939814E-03</totfact>
</mgrwt>
</event>
<event>
 4    5  0.2473208E-007  0.8935626E+03  0.7818608E-02  0.9536446E-01
          2   -1    0    0  501    0  0.00000000000E+00  0.00000000000E+00  0.88883336450E+03  0.88883336451E+03  0.25500000000E-02 0. -1.
         -2   -1    0    0    0  501 -0.00000000000E+00 -0.00000000000E+00 -0.90834345850E+03  0.90834345851E+03  0.25500000000E-02 0.  1.
    8880023    1    1    2    0    0 -0.49090546785E+03 -0.35164714254E+03 -0.48763667721E+03  0.10179605230E+04  0.65864270000E+03 0.  0.
    8880022    1    1    2    0    0  0.49090546785E+03  0.35164714254E+03  0.46812658321E+03  0.77921629998E+03  0.15294330000E+03 0.  0.
<mgrwt>
<rscale>  0 0.81649339E+03</rscale>
<asrwt>0</asrwt>
<pdfrwt beam="1">  1        2 0.13674359E+00 0.89356259E+03</pdfrwt>
<pdfrwt beam="2">  1       -2 0.13974515E+00 0.89356259E+03</pdfrwt>
<totfact> 0.10782758E+01</totfact>
</mgrwt>
</event>
<event>
 4    5  0.2473208E-007  0.1305356E+04  0.7818608E-02  0.9060948E-01
         -2   -1    0    0    0  501 -0.00000000000E+00  0.00000000000E+00  0.15559781956E+04  0.15559781956E+04  0.25500000000E-02 0.  1.
          2   -1    0    0  501    0  0.00000000000E+00 -0.00000000000E+00 -0.28427241246E+04  0.28427241246E+04  0.25500000000E-02 0. -1.
    8880023    1    1    2    0    0 -0.53512681603E+02 -0.11257358916E+04  0.11307663956E+04  0.17270170099E+04  0.65864270000E+03 0.  0.
    8880022    1    1    2    0    0  0.53512681603E+02  0.11257358916E+04 -0.24175123246E+04  0.26716853103E+04  0.15294330000E+03 0.  0.
<mgrwt>
<rscale>  0 0.12611570E+04</rscale>
<asrwt>0</asrwt>
<pdfrwt beam="1">  1        2 0.43734217E+00 0.13053563E+04</pdfrwt>
<pdfrwt beam="2">  1       -2 0.23938126E+00 0.13053563E+04</pdfrwt>
<totfact> 0.15714742E-01</totfact>
</mgrwt>
</event>
<event>
 4    5  0.2473208E-007  0.1858115E+04  0.7818608E-02  0.8691053E-01
         -2   -1    0    0    0  501 -0.00000000000E+00  0.00000000000E+00  0.19769355607E+04  0.19769355607E+04  0.25500000000E-02 0.  1.
          2   -1    0    0  501    0  0.00000000000E+00 -0.00000000000E+00 -0.21691220180E+04  0.21691220180E+04  0.25500000000E-02 0. -1.
    8880023    1    1    2    0    0  0.12907400967E+02 -0.17374156281E+04  0.92412180503E+03  0.20752327539E+04  0.65864270000E+03 0.  0.
    8880022    1    1    2    0    0 -0.12907400967E+02  0.17374156281E+04 -0.11163082623E+04  0.20708248249E+04  0.15294330000E+03 0.  0.
<mgrwt>
<rscale>  0 0.18289521E+04</rscale>
<asrwt>0</asrwt>
<pdfrwt beam="1">  1        2 0.33371108E+00 0.18581146E+04</pdfrwt>
<pdfrwt beam="2">  1       -2 0.30414393E+00 0.18581146E+04</pdfrwt>
<totfact> 0.14517614E-01</totfact>
</mgrwt>
</event>
<event>
 4    5  0.2473208E-007  0.9489279E+03  0.7818608E-02  0.9451658E-01
         -2   -1    0    0    0  501 -0.00000000000E+00  0.00000000000E+00  0.39405046386E+03  0.39405046387E+03  0.25500000000E-02 0.  1.
          2   -1    0    0  501    0  0.00000000000E+00 -0.00000000000E+00 -0.32783510869E+04  0.32783510869E+04  0.25500000000E-02 0. -1.
    8880023    1    1    2    0    0  0.55453260397E+03  0.39893302109E+03 -0.30038213187E+03  0.99533592098E+03  0.65864270000E+03 0.  0.
    8880022    1    1    2    0    0 -0.55453260397E+03 -0.39893302109E+03 -0.25839184911E+04  0.26770656298E+04  0.15294330000E+03 0.  0.
<mgrwt>
<rscale>  0 0.87943648E+03</rscale>
<asrwt>0</asrwt>
<pdfrwt beam="1">  1        2 0.50436169E+00 0.94892791E+03</pdfrwt>
<pdfrwt beam="2">  1       -2 0.60623150E-01 0.94892791E+03</pdfrwt>
<totfact> 0.30299995E+00</totfact>
</mgrwt>
</event>
<event>
 4    5  0.2473208E-007  0.7032215E+03  0.7818608E-02  0.9984091E-01
         -2   -1    0    0    0  501 -0.00000000000E+00  0.00000000000E+00  0.47903664259E+03  0.47903664260E+03  0.25500000000E-02 0.  1.
          2   -1    0    0  501    0  0.00000000000E+00 -0.00000000000E+00 -0.15892936597E+04  0.15892936597E+04  0.25500000000E-02 0. -1.
    8880023    1    1    2    0    0 -0.18922527303E+03  0.15781006335E+03  0.19619568367E+03  0.73007751137E+03  0.65864270000E+03 0.  0.
    8880022    1    1    2    0    0  0.18922527303E+03 -0.15781006335E+03 -0.13064527008E+04  0.13382527910E+04  0.15294330000E+03 0.  0.
<mgrwt>
<rscale>  0 0.56353358E+03</rscale>
<asrwt>0</asrwt>
<pdfrwt beam="1">  1        2 0.24450671E+00 0.70322146E+03</pdfrwt>
<pdfrwt beam="2">  1       -2 0.73697946E-01 0.70322146E+03</pdfrwt>
<totfact> 0.19368517E+01</totfact>
</mgrwt>
</event>
<event>
 4    5  0.2473208E-007  0.9733971E+03  0.7818608E-02  0.9417221E-01
         -2   -1    0    0    0  501 -0.00000000000E+00  0.00000000000E+00  0.10931638767E+04  0.10931638767E+04  0.25500000000E-02 0.  1.
          2   -1    0    0  501    0  0.00000000000E+00 -0.00000000000E+00 -0.84496566191E+03  0.84496566192E+03  0.25500000000E-02 0. -1.
    8880023    1    1    2    0    0 -0.66809391270E+03 -0.25950376833E+03  0.58060902438E+03  0.11334058088E+04  0.65864270000E+03 0.  1.
    8880022    1    1    2    0    0  0.66809391270E+03  0.25950376833E+03 -0.33241080961E+03  0.80472372981E+03  0.15294330000E+03 0.  0.
<mgrwt>
<rscale>  0 0.90671905E+03</rscale>
<asrwt>0</asrwt>
<pdfrwt beam="1">  1        2 0.12999472E+00 0.97339709E+03</pdfrwt>
<pdfrwt beam="2">  1       -2 0.16817906E+00 0.97339709E+03</pdfrwt>
<totfact> 0.69854451E+00</totfact>
</mgrwt>
</event>
<event>
 4    5  0.2473208E-007  0.2353735E+04  0.7818608E-02  0.8465721E-01
         -2   -1    0    0    0  501 -0.00000000000E+00  0.00000000000E+00  0.19549482025E+04  0.19549482025E+04  0.25500000000E-02 0.  1.
          2   -1    0    0  501    0  0.00000000000E+00 -0.00000000000E+00 -0.27974119176E+04  0.27974119176E+04  0.25500000000E-02 0. -1.
    8880023    1    1    2    0    0  0.22527040386E+04 -0.17770966435E+03 -0.54606668314E+02  0.23543679205E+04  0.65864270000E+03 0.  1.
    8880022    1    1    2    0    0 -0.22527040386E+04  0.17770966435E+03 -0.78785704676E+03  0.23979921996E+04  0.15294330000E+03 0. -1.
<mgrwt>
<rscale>  0 0.23311974E+04</rscale>
<asrwt>0</asrwt>
<pdfrwt beam="1">  1        2 0.43037107E+00 0.23537346E+04</pdfrwt>
<pdfrwt beam="2">  1       -2 0.30076126E+00 0.23537346E+04</pdfrwt>
<totfact> 0.62469889E-02</totfact>
</mgrwt>
</event>
<event>
 4    5  0.2473208E-007  0.6828413E+03  0.7818608E-02  0.1007760E+00
         -2   -1    0    0    0  501 -0.00000000000E+00  0.00000000000E+00  0.67876309978E+03  0.67876309979E+03  0.25500000000E-02 0.  1.
          2   -1    0    0  501    0  0.00000000000E+00 -0.00000000000E+00 -0.59938513981E+03  0.59938513981E+03  0.25500000000E-02 0. -1.
    8880023    1    1    2    0    0 -0.14492475604E+03 -0.10704621422E+03  0.46481157848E+03  0.82602789701E+03  0.65864270000E+03 0.  1.
    8880022    1    1    2    0    0  0.14492475604E+03  0.10704621422E+03 -0.38543361851E+03  0.45212034259E+03  0.15294330000E+03 0.  0.
<mgrwt>
<rscale>  0 0.52374679E+03</rscale>
<asrwt>0</asrwt>
<pdfrwt beam="1">  1        2 0.92213099E-01 0.68284133E+03</pdfrwt>
<pdfrwt beam="2">  1       -2 0.10442509E+00 0.68284133E+03</pdfrwt>
<totfact> 0.37654225E+01</totfact>
</mgrwt>
</event>
<event>
 4    5  0.2473208E-007  0.1136257E+04  0.7818608E-02  0.9221723E-01
         -2   -1    0    0    0  501 -0.00000000000E+00  0.00000000000E+00  0.32882735400E+03  0.32882735401E+03  0.25500000000E-02 0.  1.
          2   -1    0    0  501    0  0.00000000000E+00 -0.00000000000E+00 -0.38375453926E+04  0.38375453926E+04  0.25500000000E-02 0. -1.
    8880023    1    1    2    0    0  0.54001032436E+03  0.75210329360E+03 -0.11007513509E+04  0.15820032419E+04  0.65864270000E+03 0.  0.
    8880022    1    1    2    0    0 -0.54001032436E+03 -0.75210329360E+03 -0.24079666877E+04  0.25843695047E+04  0.15294330000E+03 0.  0.
<mgrwt>
<rscale>  0 0.10832001E+04</rscale>
<asrwt>0</asrwt>
<pdfrwt beam="1">  1        2 0.59039157E+00 0.11362573E+04</pdfrwt>
<pdfrwt beam="2">  1       -2 0.50588826E-01 0.11362573E+04</pdfrwt>
<totfact> 0.17423782E+00</totfact>
</mgrwt>
</event>
<event>
 4    5  0.2473208E-007  0.7624846E+03  0.7818608E-02  0.9798717E-01
          2   -1    0    0  501    0  0.00000000000E+00  0.00000000000E+00  0.26428356372E+04  0.26428356372E+04  0.25500000000E-02 0. -1.
         -2   -1    0    0    0  501 -0.00000000000E+00 -0.00000000000E+00 -0.85996064440E+03  0.85996064440E+03  0.25500000000E-02 0.  1.
    8880023    1    1    2    0    0 -0.31527331381E+03 -0.21948864660E+03 -0.67017446409E+03  0.10151436090E+04  0.65864270000E+03 0.  1.
    8880022    1    1    2    0    0  0.31527331381E+03  0.21948864660E+03  0.24530494569E+04  0.24876526726E+04  0.15294330000E+03 0.  0.
<mgrwt>
<rscale>  0 0.65431434E+03</rscale>
<asrwt>0</asrwt>
<pdfrwt beam="1">  1        2 0.40659010E+00 0.76248458E+03</pdfrwt>
<pdfrwt beam="2">  1       -2 0.13230164E+00 0.76248458E+03</pdfrwt>
<totfact> 0.12561833E+00</totfact>
</mgrwt>
</event>
<event>
 4    5  0.2473208E-007  0.1380085E+04  0.7818608E-02  0.8999314E-01
         -2   -1    0    0    0  501 -0.00000000000E+00  0.00000000000E+00  0.16756617088E+04  0.16756617088E+04  0.25500000000E-02 0.  1.
          2   -1    0    0  501    0  0.00000000000E+00 -0.00000000000E+00 -0.18496122424E+04  0.18496122424E+04  0.25500000000E-02 0. -1.
    8880023    1    1    2    0    0  0.89095101255E+02  0.12094983703E+04  0.10961981209E+04  0.17624655377E+04  0.65864270000E+03 0.  0.
    8880022    1    1    2    0    0 -0.89095101255E+02 -0.12094983703E+04 -0.12701486546E+04  0.17628084135E+04  0.15294330000E+03 0.  0.
<mgrwt>
<rscale>  0 0.13388473E+04</rscale>
<asrwt>0</asrwt>
<pdfrwt beam="1">  1        2 0.28455573E+00 0.13800849E+04</pdfrwt>
<pdfrwt beam="2">  1       -2 0.25779411E+00 0.13800849E+04</pdfrwt>
<totfact> 0.44319999E-01</totfact>
</mgrwt>
</event>
<event>
 4    5  0.2473208E-007  0.1021542E+04  0.7818608E-02  0.9353901E-01
          2   -1    0    0  501    0  0.00000000000E+00  0.00000000000E+00  0.19138448237E+04  0.19138448237E+04  0.25500000000E-02 0. -1.
         -2   -1    0    0    0  501 -0.00000000000E+00 -0.00000000000E+00 -0.55085608200E+03  0.55085608200E+03  0.25500000000E-02 0.  1.
    8880023    1    1    2    0    0 -0.70592251413E+03 -0.33378428668E+03  0.13182729200E+04  0.16677506540E+04  0.65864270000E+03 0.  0.
    8880022    1    1    2    0    0  0.70592251413E+03  0.33378428668E+03  0.44715821696E+02  0.79695025172E+03  0.15294330000E+03 0.  0.
<mgrwt>
<rscale>  0 0.95968544E+03</rscale>
<asrwt>0</asrwt>
<pdfrwt beam="1">  1        2 0.29443767E+00 0.10215423E+04</pdfrwt>
<pdfrwt beam="2">  1       -2 0.84747089E-01 0.10215423E+04</pdfrwt>
<totfact> 0.90345549E+00</totfact>
</mgrwt>
</event>
<event>
 4    5  0.2473208E-007  0.8376028E+03  0.7818608E-02  0.9634717E-01
         -2   -1    0    0    0  501 -0.00000000000E+00  0.00000000000E+00  0.40147405856E+03  0.40147405857E+03  0.25500000000E-02 0.  1.
          2   -1    0    0  501    0  0.00000000000E+00 -0.00000000000E+00 -0.14526845625E+04  0.14526845625E+04  0.25500000000E-02 0. -1.
    8880023    1    1    2    0    0  0.40699869382E+03 -0.31956269748E+03 -0.22490104459E+03  0.86727097294E+03  0.65864270000E+03 0.  0.
    8880022    1    1    2    0    0 -0.40699869382E+03  0.31956269748E+03 -0.82630945930E+03  0.98688764808E+03  0.15294330000E+03 0.  0.
<mgrwt>
<rscale>  0 0.75040383E+03</rscale>
<asrwt>0</asrwt>
<pdfrwt beam="1">  1        2 0.22348993E+00 0.83760281E+03</pdfrwt>
<pdfrwt beam="2">  1       -2 0.61765240E-01 0.83760281E+03</pdfrwt>
<totfact> 0.33307027E+01</totfact>
</mgrwt>
</event>
<event>
 4    5  0.2473208E-007  0.1694483E+04  0.7818608E-02  0.8783266E-01
         -2   -1    0    0    0  501 -0.00000000000E+00  0.00000000000E+00  0.10248444787E+04  0.10248444787E+04  0.25500000000E-02 0.  1.
          2   -1    0    0  501    0  0.00000000000E+00 -0.00000000000E+00 -0.28295625047E+04  0.28295625047E+04  0.25500000000E-02 0. -1.
    8880023    1    1    2    0    0  0.52718834945E+03  0.14695354777E+04 -0.38283730879E+03  0.17371921849E+04  0.65864270000E+03 0.  0.
    8880022    1    1    2    0    0 -0.52718834945E+03 -0.14695354777E+04 -0.14218807172E+04  0.21172147985E+04  0.15294330000E+03 0.  0.
<mgrwt>
<rscale>  0 0.16621248E+04</rscale>
<asrwt>0</asrwt>
<pdfrwt beam="1">  1        2 0.43531731E+00 0.16944829E+04</pdfrwt>
<pdfrwt beam="2">  1       -2 0.15766838E+00 0.16944829E+04</pdfrwt>
<totfact> 0.53895398E-01</totfact>
</mgrwt>
</event>
<event>
 4    5  0.2473208E-007  0.8097491E+03  0.7818608E-02  0.9690100E-01
          2   -1    0    0  501    0  0.00000000000E+00  0.00000000000E+00  0.96339963900E+03  0.96339963900E+03  0.25500000000E-02 0. -1.
         -2   -1    0    0    0  501 -0.00000000000E+00 -0.00000000000E+00 -0.44200663696E+03  0.44200663697E+03  0.25500000000E-02 0.  1.
    8880023    1    1    2    0    0 -0.32817539095E+03 -0.33791164270E+03  0.33236576186E+03  0.87530598731E+03  0.65864270000E+03 0.  0.
    8880022    1    1    2    0    0  0.32817539095E+03  0.33791164270E+03  0.18902724017E+03  0.53010028866E+03  0.15294330000E+03 0. -1.
<mgrwt>
<rscale>  0 0.71609314E+03</rscale>
<asrwt>0</asrwt>
<pdfrwt beam="1">  1        2 0.14821533E+00 0.80974908E+03</pdfrwt>
<pdfrwt beam="2">  1       -2 0.68001021E-01 0.80974908E+03</pdfrwt>
<totfact> 0.53212236E+01</totfact>
</mgrwt>
</event>
<event>
 4    5  0.2473208E-007  0.7593258E+03  0.7818608E-02  0.9806856E-01
          2   -1    0    0  501    0  0.00000000000E+00  0.00000000000E+00  0.17928056686E+04  0.17928056686E+04  0.25500000000E-02 0. -1.
         -2   -1    0    0    0  501 -0.00000000000E+00 -0.00000000000E+00 -0.84013008263E+03  0.84013008264E+03  0.25500000000E-02 0.  1.
    8880023    1    1    2    0    0  0.21174720714E+03  0.31293547640E+03 -0.63743296131E+03  0.99141135688E+03  0.65864270000E+03 0.  1.
    8880022    1    1    2    0    0 -0.21174720714E+03 -0.31293547640E+03  0.15901085473E+04  0.16415243944E+04  0.15294330000E+03 0.  0.
<mgrwt>
<rscale>  0 0.64995906E+03</rscale>
<asrwt>0</asrwt>
<pdfrwt beam="1">  1        2 0.27581626E+00 0.75932582E+03</pdfrwt>
<pdfrwt beam="2">  1       -2 0.12925078E+00 0.75932582E+03</pdfrwt>
<totfact> 0.39536461E+00</totfact>
</mgrwt>
</event>
<event>
 4    5  0.2473208E-007  0.8380344E+03  0.7818608E-02  0.9633898E-01
          2   -1    0    0  501    0  0.00000000000E+00  0.00000000000E+00  0.10156845271E+04  0.10156845271E+04  0.25500000000E-02 0. -1.
         -2   -1    0    0    0  501 -0.00000000000E+00 -0.00000000000E+00 -0.21410916414E+04  0.21410916414E+04  0.25500000000E-02 0.  1.
    8880023    1    1    2    0    0  0.43232796932E+02  0.51635492033E+03 -0.19775558031E+04  0.21477962285E+04  0.65864270000E+03 0.  0.
    8880022    1    1    2    0    0 -0.43232796932E+02 -0.51635492033E+03  0.85214868878E+03  0.10089799400E+04  0.15294330000E+03 0.  0.
<mgrwt>
<rscale>  0 0.75092665E+03</rscale>
<asrwt>0</asrwt>
<pdfrwt beam="1">  1        2 0.15625916E+00 0.83803442E+03</pdfrwt>
<pdfrwt beam="2">  1       -2 0.32939871E+00 0.83803442E+03</pdfrwt>
<totfact> 0.53395301E-01</totfact>
</mgrwt>
</event>
<event>
 4    5  0.2635996E-007  0.8184715E+03  0.7818608E-02  0.9672194E-01
          2   -1    0    0  501    0  0.00000000000E+00  0.00000000000E+00  0.20026570766E+04  0.20026570766E+04  0.25500000000E-02 0. -1.
         -2   -1    0    0    0  501 -0.00000000000E+00 -0.00000000000E+00 -0.77228200908E+03  0.77228200908E+03  0.25500000000E-02 0.  1.
    8880023    1    1    2    0    0 -0.31532481389E+03 -0.36966969610E+03 -0.50810900163E+03  0.96336409850E+03  0.65864270000E+03 0.  1.
    8880022    1    1    2    0    0  0.31532481389E+03  0.36966969610E+03  0.17384840691E+04  0.18115749872E+04  0.15294330000E+03 0.  0.
<mgrwt>
<rscale>  0 0.72696760E+03</rscale>
<asrwt>0</asrwt>
<pdfrwt beam="1">  1        2 0.30810108E+00 0.81847152E+03</pdfrwt>
<pdfrwt beam="2">  1       -2 0.11881262E+00 0.81847152E+03</pdfrwt>
<totfact> 0.37145205E+00</totfact>
</mgrwt>
</event>
<event>
 4    5  0.2473208E-007  0.7004242E+03  0.7818608E-02  0.9995446E-01
          2   -1    0    0  501    0  0.00000000000E+00  0.00000000000E+00  0.16034655490E+04  0.16034655490E+04  0.25500000000E-02 0. -1.
         -2   -1    0    0    0  501 -0.00000000000E+00 -0.00000000000E+00 -0.73145622622E+03  0.73145622623E+03  0.25500000000E-02 0.  1.
    8880023    1    1    2    0    0 -0.21083402027E+03 -0.11105358805E+03 -0.54651691965E+03  0.88841140991E+03  0.65864270000E+03 0.  1.
    8880022    1    1    2    0    0  0.21083402027E+03  0.11105358805E+03  0.14185262424E+04  0.14465103653E+04  0.15294330000E+03 0.  0.
<mgrwt>
<rscale>  0 0.55850376E+03</rscale>
<asrwt>0</asrwt>
<pdfrwt beam="1">  1        2 0.24668701E+00 0.70042422E+03</pdfrwt>
<pdfrwt beam="2">  1       -2 0.11253173E+00 0.70042422E+03</pdfrwt>
<totfact> 0.71418419E+00</totfact>
</mgrwt>
</event>
<event>
 4    5  0.2473208E-007  0.9215013E+03  0.7818608E-02  0.9492361E-01
         -2   -1    0    0    0  501 -0.00000000000E+00  0.00000000000E+00  0.50667779763E+03  0.50667779764E+03  0.25500000000E-02 0.  1.
          2   -1    0    0  501    0  0.00000000000E+00 -0.00000000000E+00 -0.19964384001E+04  0.19964384001E+04  0.25500000000E-02 0. -1.
    8880023    1    1    2    0    0  0.26612497397E+02  0.64393021666E+03 -0.55359211880E+02  0.92316260624E+03  0.65864270000E+03 0.  0.
    8880022    1    1    2    0    0 -0.26612497397E+02 -0.64393021666E+03 -0.14344013906E+04  0.15799535915E+04  0.15294330000E+03 0.  0.
<mgrwt>
<rscale>  0 0.84849364E+03</rscale>
<asrwt>0</asrwt>
<pdfrwt beam="1">  1        2 0.30714436E+00 0.92150125E+03</pdfrwt>
<pdfrwt beam="2">  1       -2 0.77950432E-01 0.92150125E+03</pdfrwt>
<totfact> 0.99474667E+00</totfact>
</mgrwt>
</event>
<event>
 4    5  0.2473208E-007  0.1330803E+04  0.7818608E-02  0.9039405E-01
          2   -1    0    0  501    0  0.00000000000E+00  0.00000000000E+00  0.18167155156E+04  0.18167155156E+04  0.25500000000E-02 0. -1.
         -2   -1    0    0    0  501 -0.00000000000E+00 -0.00000000000E+00 -0.14510078471E+04  0.14510078471E+04  0.25500000000E-02 0.  1.
    8880023    1    1    2    0    0 -0.79818031964E+02  0.11536275198E+04 -0.85303382603E+03  0.15807290366E+04  0.65864270000E+03 0.  1.
    8880022    1    1    2    0    0  0.79818031964E+02 -0.11536275198E+04  0.12187414946E+04  0.16869943261E+04  0.15294330000E+03 0.  0.
<mgrwt>
<rscale>  0 0.12876638E+04</rscale>
<asrwt>0</asrwt>
<pdfrwt beam="1">  1        2 0.27949469E+00 0.13308034E+04</pdfrwt>
<pdfrwt beam="2">  1       -2 0.22323198E+00 0.13308034E+04</pdfrwt>
<totfact> 0.76126051E-01</totfact>
</mgrwt>
</event>
<event>
 4    5  0.2473208E-007  0.8658047E+03  0.7818608E-02  0.9583320E-01
          2   -1    0    0  501    0  0.00000000000E+00  0.00000000000E+00  0.23919528853E+04  0.23919528853E+04  0.25500000000E-02 0. -1.
         -2   -1    0    0    0  501 -0.00000000000E+00 -0.00000000000E+00 -0.47071653859E+03  0.47071653859E+03  0.25500000000E-02 0.  1.
    8880023    1    1    2    0    0  0.26087381365E+03 -0.49774728056E+03  0.11268575783E+02  0.86587798737E+03  0.65864270000E+03 0.  1.
    8880022    1    1    2    0    0 -0.26087381365E+03  0.49774728056E+03  0.19099677709E+04  0.19967914365E+04  0.15294330000E+03 0.  0.
<mgrwt>
<rscale>  0 0.78410060E+03</rscale>
<asrwt>0</asrwt>
<pdfrwt beam="1">  1        2 0.36799275E+00 0.86580466E+03</pdfrwt>
<pdfrwt beam="2">  1       -2 0.72417929E-01 0.86580466E+03</pdfrwt>
<totfact> 0.71216686E+00</totfact>
</mgrwt>
</event>
<event>
 4    5  0.2473208E-007  0.9601102E+03  0.7818608E-02  0.9435715E-01
          2   -1    0    0  501    0  0.00000000000E+00  0.00000000000E+00  0.74678001753E+03  0.74678001754E+03  0.25500000000E-02 0. -1.
         -2   -1    0    0    0  501 -0.00000000000E+00 -0.00000000000E+00 -0.14421897367E+04  0.14421897367E+04  0.25500000000E-02 0.  1.
    8880023    1    1    2    0    0  0.21459792943E+03  0.66479252658E+03 -0.10224882772E+04  0.14026025303E+04  0.65864270000E+03 0.  1.
    8880022    1    1    2    0    0 -0.21459792943E+03 -0.66479252658E+03  0.32707855806E+03  0.78636722393E+03  0.15294330000E+03 0.  0.
<mgrwt>
<rscale>  0 0.89193901E+03</rscale>
<asrwt>0</asrwt>
<pdfrwt beam="1">  1        2 0.11488923E+00 0.96011019E+03</pdfrwt>
<pdfrwt beam="2">  1       -2 0.22187534E+00 0.96011019E+03</pdfrwt>
<totfact> 0.36231409E+00</totfact>
</mgrwt>
</event>
<event>
 4    5  0.2502042E-007  0.1402682E+04  0.7818608E-02  0.8981601E-01
         -2   -1    0    0    0  501 -0.00000000000E+00  0.00000000000E+00  0.27469632295E+04  0.27469632295E+04  0.25500000000E-02 0.  1.
          2   -1    0    0  501    0  0.00000000000E+00 -0.00000000000E+00 -0.26434797609E+04  0.26434797609E+04  0.25500000000E-02 0. -1.
    8880023    1    1    2    0    0  0.85097019603E+03  0.89975403505E+03  0.23982586281E+04  0.27783380377E+04  0.65864270000E+03 0.  1.
    8880022    1    1    2    0    0 -0.85097019603E+03 -0.89975403505E+03 -0.22947751595E+04  0.26121049527E+04  0.15294330000E+03 0.  0.
<mgrwt>
<rscale>  0 0.13622570E+04</rscale>
<asrwt>0</asrwt>
<pdfrwt beam="1">  1        2 0.40668920E+00 0.14026824E+04</pdfrwt>
<pdfrwt beam="2">  1       -2 0.42260973E+00 0.14026824E+04</pdfrwt>
<totfact> 0.14440791E-02</totfact>
</mgrwt>
</event>
<event>
 4    5  0.2473208E-007  0.9227796E+03  0.7818608E-02  0.9490410E-01
         -2   -1    0    0    0  501 -0.00000000000E+00  0.00000000000E+00  0.36342900763E+03  0.36342900764E+03  0.25500000000E-02 0.  1.
          2   -1    0    0  501    0  0.00000000000E+00 -0.00000000000E+00 -0.35032464280E+04  0.35032464280E+04  0.25500000000E-02 0. -1.
    8880023    1    1    2    0    0 -0.55053741369E+03 -0.33855650712E+03 -0.33091159728E+03  0.98031864404E+03  0.65864270000E+03 0.  1.
    8880022    1    1    2    0    0  0.55053741369E+03  0.33855650712E+03 -0.28089058231E+04  0.28863567916E+04  0.15294330000E+03 0.  0.
<mgrwt>
<rscale>  0 0.84994546E+03</rscale>
<asrwt>0</asrwt>
<pdfrwt beam="1">  1        2 0.53896097E+00 0.92277958E+03</pdfrwt>
<pdfrwt beam="2">  1       -2 0.55912157E-01 0.92277958E+03</pdfrwt>
<totfact> 0.25525779E+00</totfact>
</mgrwt>
</event>
<event>
 4    5  0.2473208E-007  0.6967764E+03  0.7818608E-02  0.1001085E+00
          2   -1    0    0  501    0  0.00000000000E+00  0.00000000000E+00  0.28922532472E+04  0.28922532472E+04  0.25500000000E-02 0. -1.
         -2   -1    0    0    0  501 -0.00000000000E+00 -0.00000000000E+00 -0.37620055860E+03  0.37620055861E+03  0.25500000000E-02 0.  1.
    8880023    1    1    2    0    0  0.22597247290E+03  0.24970800746E+02 -0.39841215379E+02  0.69791448481E+03  0.65864270000E+03 0.  1.
    8880022    1    1    2    0    0 -0.22597247290E+03 -0.24970800746E+02  0.25558939040E+04  0.25705393210E+04  0.15294330000E+03 0.  0.
<mgrwt>
<rscale>  0 0.55177204E+03</rscale>
<asrwt>0</asrwt>
<pdfrwt beam="1">  1        2 0.44496203E+00 0.69677637E+03</pdfrwt>
<pdfrwt beam="2">  1       -2 0.57877011E-01 0.69677637E+03</pdfrwt>
<totfact> 0.60900136E+00</totfact>
</mgrwt>
</event>
<event>
 4    5  0.2473208E-007  0.7723015E+03  0.7818608E-02  0.9774242E-01
          2   -1    0    0  501    0  0.00000000000E+00  0.00000000000E+00  0.88818910293E+03  0.88818910293E+03  0.25500000000E-02 0. -1.
         -2   -1    0    0    0  501 -0.00000000000E+00 -0.00000000000E+00 -0.13122391945E+04  0.13122391945E+04  0.25500000000E-02 0.  1.
    8880023    1    1    2    0    0  0.28294443757E+03 -0.28737068012E+03 -0.11326446303E+04  0.13708878609E+04  0.65864270000E+03 0.  1.
    8880022    1    1    2    0    0 -0.28294443757E+03  0.28737068012E+03  0.70859453868E+03  0.82954043651E+03  0.15294330000E+03 0.  0.
<mgrwt>
<rscale>  0 0.66763389E+03</rscale>
<asrwt>0</asrwt>
<pdfrwt beam="1">  1        2 0.13664448E+00 0.77230154E+03</pdfrwt>
<pdfrwt beam="2">  1       -2 0.20188295E+00 0.77230154E+03</pdfrwt>
<totfact> 0.39383444E+00</totfact>
</mgrwt>
</event>
<event>
 4    5  0.2473208E-007  0.1174024E+04  0.7818608E-02  0.9182795E-01
         -2   -1    0    0    0  501 -0.00000000000E+00  0.00000000000E+00  0.17521288549E+04  0.17521288549E+04  0.25500000000E-02 0.  1.
          2   -1    0    0  501    0  0.00000000000E+00 -0.00000000000E+00 -0.73219082150E+03  0.73219082151E+03  0.25500000000E-02 0. -1.
    8880023    1    1    2    0    0  0.61279768515E+02  0.96993180289E+03  0.92744010274E+03  0.14961544916E+04  0.65864270000E+03 0.  0.
    8880022    1    1    2    0    0 -0.61279768515E+02 -0.96993180289E+03  0.92497930659E+02  0.98816518481E+03  0.15294330000E+03 0.  0.
<mgrwt>
<rscale>  0 0.11232785E+04</rscale>
<asrwt>0</asrwt>
<pdfrwt beam="1">  1        2 0.11264474E+00 0.11740243E+04</pdfrwt>
<pdfrwt beam="2">  1       -2 0.26955828E+00 0.11740243E+04</pdfrwt>
<totfact> 0.18518775E+00</totfact>
</mgrwt>
</event>
<event>
 4    5  0.2473208E-007  0.8824063E+03  0.7818608E-02  0.9554887E-01
          2   -1    0    0  501    0  0.00000000000E+00  0.00000000000E+00  0.36528949171E+04  0.36528949171E+04  0.25500000000E-02 0. -1.
         -2   -1    0    0    0  501 -0.00000000000E+00 -0.00000000000E+00 -0.28959231051E+03  0.28959231053E+03  0.25500000000E-02 0.  1.
    8880023    1    1    2    0    0 -0.20642362930E+03 -0.54974538327E+03  0.49718069144E+03  0.10128324379E+04  0.65864270000E+03 0.  1.
    8880022    1    1    2    0    0  0.20642362930E+03  0.54974538327E+03  0.28661219151E+04  0.29296547897E+04  0.15294330000E+03 0.  0.
<mgrwt>
<rscale>  0 0.80355429E+03</rscale>
<asrwt>0</asrwt>
<pdfrwt beam="1">  1        2 0.56198385E+00 0.88240632E+03</pdfrwt>
<pdfrwt beam="2">  1       -2 0.44552662E-01 0.88240632E+03</pdfrwt>
<totfact> 0.32112978E+00</totfact>
</mgrwt>
</event>
<event>
 4    5  0.2473208E-007  0.1250149E+04  0.7818608E-02  0.9109851E-01
          2   -1    0    0  501    0  0.00000000000E+00  0.00000000000E+00  0.29429919687E+04  0.29429919687E+04  0.25500000000E-02 0. -1.
         -2   -1    0    0    0  501 -0.00000000000E+00 -0.00000000000E+00 -0.70847970425E+03  0.70847970426E+03  0.25500000000E-02 0.  1.
    8880023    1    1    2    0    0  0.72421789133E+03  0.77754111729E+03  0.90142668097E+02  0.12533944511E+04  0.65864270000E+03 0.  0.
    8880022    1    1    2    0    0 -0.72421789133E+03 -0.77754111729E+03  0.21443695964E+04  0.23980772219E+04  0.15294330000E+03 0.  0.
<mgrwt>
<rscale>  0 0.12034393E+04</rscale>
<asrwt>0</asrwt>
<pdfrwt beam="1">  1        2 0.45276798E+00 0.12501488E+04</pdfrwt>
<pdfrwt beam="2">  1       -2 0.10899688E+00 0.12501488E+04</pdfrwt>
<totfact> 0.12465515E+00</totfact>
</mgrwt>
</event>
<event>
 4    5  0.2473208E-007  0.6982515E+03  0.7818608E-02  0.1000453E+00
          2   -1    0    0  501    0  0.00000000000E+00  0.00000000000E+00  0.51768278557E+03  0.51768278558E+03  0.25500000000E-02 0. -1.
         -2   -1    0    0    0  501 -0.00000000000E+00 -0.00000000000E+00 -0.10271944328E+04  0.10271944328E+04  0.25500000000E-02 0.  1.
    8880023    1    1    2    0    0 -0.15180771110E+03 -0.17521245484E+03 -0.85352035683E+03  0.11027475646E+04  0.65864270000E+03 0.  1.
    8880022    1    1    2    0    0  0.15180771110E+03  0.17521245484E+03  0.34400870958E+03  0.44212965379E+03  0.15294330000E+03 0. -1.
<mgrwt>
<rscale>  0 0.55451910E+03</rscale>
<asrwt>0</asrwt>
<pdfrwt beam="1">  1        2 0.79643506E-01 0.69825152E+03</pdfrwt>
<pdfrwt beam="2">  1       -2 0.15802991E+00 0.69825152E+03</pdfrwt>
<totfact> 0.15705129E+01</totfact>
</mgrwt>
</event>
<event>
 4    5  0.2473208E-007  0.8457756E+03  0.7818608E-02  0.9619385E-01
          2   -1    0    0  501    0  0.00000000000E+00  0.00000000000E+00  0.10197066990E+04  0.10197066990E+04  0.25500000000E-02 0. -1.
         -2   -1    0    0    0  501 -0.00000000000E+00 -0.00000000000E+00 -0.13071849010E+04  0.13071849010E+04  0.25500000000E-02 0.  1.
    8880023    1    1    2    0    0  0.51710653140E+03  0.11885700622E+03 -0.10732764499E+04  0.13664767459E+04  0.65864270000E+03 0.  1.
    8880022    1    1    2    0    0 -0.51710653140E+03 -0.11885700622E+03  0.78579824793E+03  0.96041485422E+03  0.15294330000E+03 0.  0.
<mgrwt>
<rscale>  0 0.76026362E+03</rscale>
<asrwt>0</asrwt>
<pdfrwt beam="1">  1        2 0.15687795E+00 0.84577560E+03</pdfrwt>
<pdfrwt beam="2">  1       -2 0.20110537E+00 0.84577560E+03</pdfrwt>
<totfact> 0.32350430E+00</totfact>
</mgrwt>
</event>
<event>
 4    5  0.2473208E-007  0.8038899E+03  0.7818608E-02  0.9702448E-01
         -2   -1    0    0    0  501 -0.00000000000E+00  0.00000000000E+00  0.15610208571E+04  0.15610208571E+04  0.25500000000E-02 0.  1.
          2   -1    0    0  501    0  0.00000000000E+00 -0.00000000000E+00 -0.52479385410E+03  0.52479385410E+03  0.25500000000E-02 0. -1.
    8880023    1    1    2    0    0 -0.56392944246E+02 -0.45743697759E+03  0.13035409877E+04  0.15314888395E+04  0.65864270000E+03 0.  0.
    8880022    1    1    2    0    0  0.56392944246E+02  0.45743697759E+03 -0.26731398469E+03  0.55432587171E+03  0.15294330000E+03 0.  0.
<mgrwt>
<rscale>  0 0.70871251E+03</rscale>
<asrwt>0</asrwt>
<pdfrwt beam="1">  1        2 0.80737517E-01 0.80388989E+03</pdfrwt>
<pdfrwt beam="2">  1       -2 0.24015705E+00 0.80388989E+03</pdfrwt>
<totfact> 0.43875719E+00</totfact>
</mgrwt>
</event>
<event>
 4    5  0.2473208E-007  0.8034007E+03  0.7818608E-02  0.9703491E-01
          2   -1    0    0  501    0  0.00000000000E+00  0.00000000000E+00  0.17672921841E+04  0.17672921841E+04  0.25500000000E-02 0. -1.
         -2   -1    0    0    0  501 -0.00000000000E+00 -0.00000000000E+00 -0.87765912761E+03  0.87765912761E+03  0.25500000000E-02 0.  1.
    8880023    1    1    2    0    0 -0.42717417690E+03 -0.17077677473E+03 -0.64834160472E+03  0.10323756714E+04  0.65864270000E+03 0.  1.
    8880022    1    1    2    0    0  0.42717417690E+03  0.17077677473E+03  0.15379746612E+04  0.16125756403E+04  0.15294330000E+03 0.  0.
<mgrwt>
<rscale>  0 0.70809336E+03</rscale>
<asrwt>0</asrwt>
<pdfrwt beam="1">  1        2 0.27189110E+00 0.80340070E+03</pdfrwt>
<pdfrwt beam="2">  1       -2 0.13502448E+00 0.80340070E+03</pdfrwt>
<totfact> 0.36282976E+00</totfact>
</mgrwt>
</event>
<event>
 4    5  0.2473208E-007  0.7646844E+03  0.7818608E-02  0.9793128E-01
         -2   -1    0    0    0  501 -0.00000000000E+00  0.00000000000E+00  0.17091736359E+03  0.17091736361E+03  0.25500000000E-02 0.  1.
          2   -1    0    0  501    0  0.00000000000E+00 -0.00000000000E+00 -0.30097553021E+04  0.30097553021E+04  0.25500000000E-02 0. -1.
    8880023    1    1    2    0    0 -0.27177830043E+03  0.27761219040E+03 -0.82857860094E+03  0.11275126062E+04  0.65864270000E+03 0.  1.
    8880022    1    1    2    0    0  0.27177830043E+03 -0.27761219040E+03 -0.20102593376E+04  0.20531600596E+04  0.15294330000E+03 0.  0.
<mgrwt>
<rscale>  0 0.65732657E+03</rscale>
<asrwt>0</asrwt>
<pdfrwt beam="1">  1        2 0.46303924E+00 0.76468437E+03</pdfrwt>
<pdfrwt beam="2">  1       -2 0.26294981E-01 0.76468437E+03</pdfrwt>
<totfact> 0.23710200E+01</totfact>
</mgrwt>
</event>
<event>
 4    5  0.2473208E-007  0.6708324E+03  0.7818608E-02  0.1015073E+00
         -2   -1    0    0    0  501 -0.00000000000E+00  0.00000000000E+00  0.89452033434E+02  0.89452033470E+02  0.25500000000E-02 0.  1.
          2   -1    0    0  501    0  0.00000000000E+00 -0.00000000000E+00 -0.44324139880E+04  0.44324139880E+04  0.25500000000E-02 0. -1.
    8880023    1    1    2    0    0 -0.88497710175E+02 -0.91509634879E+02 -0.12175340524E+04  0.13901097917E+04  0.65864270000E+03 0.  1.
    8880022    1    1    2    0    0  0.88497710175E+02  0.91509634879E+02 -0.31254279022E+04  0.31317562298E+04  0.15294330000E+03 0.  0.
<mgrwt>
<rscale>  0 0.49507272E+03</rscale>
<asrwt>0</asrwt>
<pdfrwt beam="1">  1        2 0.68190967E+00 0.67083237E+03</pdfrwt>
<pdfrwt beam="2">  1       -2 0.13761855E-01 0.67083237E+03</pdfrwt>
<totfact> 0.66523928E+00</totfact>
</mgrwt>
</event>
<event>
 4    5  0.2473208E-007  0.7091388E+03  0.7818608E-02  0.9961213E-01
         -2   -1    0    0    0  501 -0.00000000000E+00  0.00000000000E+00  0.69336365686E+03  0.69336365686E+03  0.25500000000E-02 0.  1.
          2   -1    0    0  501    0  0.00000000000E+00 -0.00000000000E+00 -0.25654320138E+04  0.25654320138E+04  0.25500000000E-02 0. -1.
    8880023    1    1    2    0    0 -0.50842584888E+02 -0.25784223209E+03  0.49976547688E+03  0.86755018485E+03  0.65864270000E+03 0.  1.
    8880022    1    1    2    0    0  0.50842584888E+02  0.25784223209E+03 -0.23718338338E+04  0.23912454858E+04  0.15294330000E+03 0.  0.
<mgrwt>
<rscale>  0 0.57384184E+03</rscale>
<asrwt>0</asrwt>
<pdfrwt beam="1">  1        2 0.39468184E+00 0.70913877E+03</pdfrwt>
<pdfrwt beam="2">  1       -2 0.10667133E+00 0.70913877E+03</pdfrwt>
<totfact> 0.23948478E+00</totfact>
</mgrwt>
</event>
<event>
 4    5  0.2473208E-007  0.7209013E+03  0.7818608E-02  0.9919548E-01
          2   -1    0    0  501    0  0.00000000000E+00  0.00000000000E+00  0.84110064687E+03  0.84110064687E+03  0.25500000000E-02 0. -1.
         -2   -1    0    0    0  501 -0.00000000000E+00 -0.00000000000E+00 -0.11641953861E+04  0.11641953861E+04  0.25500000000E-02 0.  1.
    8880023    1    1    2    0    0 -0.19167119499E+03  0.22169957492E+03 -0.10112231521E+04  0.12418820468E+04  0.65864270000E+03 0.  1.
    8880022    1    1    2    0    0  0.19167119499E+03 -0.22169957492E+03  0.68812841294E+03  0.76341398613E+03  0.15294330000E+03 0.  0.
<mgrwt>
<rscale>  0 0.59323199E+03</rscale>
<asrwt>0</asrwt>
<pdfrwt beam="1">  1        2 0.12940010E+00 0.72090135E+03</pdfrwt>
<pdfrwt beam="2">  1       -2 0.17910698E+00 0.72090135E+03</pdfrwt>
<totfact> 0.60598553E+00</totfact>
</mgrwt>
</event>
<event>
 4    5  0.2473208E-007  0.1022191E+04  0.7818608E-02  0.9353083E-01
          2   -1    0    0  501    0  0.00000000000E+00  0.00000000000E+00  0.10690386898E+04  0.10690386898E+04  0.25500000000E-02 0. -1.
         -2   -1    0    0    0  501 -0.00000000000E+00 -0.00000000000E+00 -0.26305303722E+04  0.26305303722E+04  0.25500000000E-02 0.  1.
    8880023    1    1    2    0    0  0.34822287302E+02 -0.78093060261E+03 -0.23599046211E+04  0.25717747228E+04  0.65864270000E+03 0.  1.
    8880022    1    1    2    0    0 -0.34822287302E+02  0.78093060261E+03  0.79841293875E+03  0.11277943392E+04  0.15294330000E+03 0.  0.
<mgrwt>
<rscale>  0 0.96039403E+03</rscale>
<asrwt>0</asrwt>
<pdfrwt beam="1">  1        2 0.16446749E+00 0.10221915E+04</pdfrwt>
<pdfrwt beam="2">  1       -2 0.40469698E+00 0.10221915E+04</pdfrwt>
<totfact> 0.15955941E-01</totfact>
</mgrwt>
</event>
<event>
 4    5  0.2473208E-007  0.7798032E+03  0.7818608E-02  0.9756300E-01
          2   -1    0    0  501    0  0.00000000000E+00  0.00000000000E+00  0.21857405221E+04  0.21857405221E+04  0.25500000000E-02 0. -1.
         -2   -1    0    0    0  501 -0.00000000000E+00 -0.00000000000E+00 -0.45848528935E+03  0.45848528935E+03  0.25500000000E-02 0.  1.
    8880023    1    1    2    0    0  0.16438909935E+03  0.38374339455E+03 -0.79243685492E+02  0.78381919905E+03  0.65864270000E+03 0.  1.
    8880022    1    1    2    0    0 -0.16438909935E+03 -0.38374339455E+03  0.18064989182E+04  0.18604066124E+04  0.15294330000E+03 0.  0.
<mgrwt>
<rscale>  0 0.67761429E+03</rscale>
<asrwt>0</asrwt>
<pdfrwt beam="1">  1        2 0.33626776E+00 0.77980316E+03</pdfrwt>
<pdfrwt beam="2">  1       -2 0.70536201E-01 0.77980316E+03</pdfrwt>
<totfact> 0.99556474E+00</totfact>
</mgrwt>
</event>
<event>
 4    5  0.2473208E-007  0.8334415E+03  0.7818608E-02  0.9642673E-01
         -2   -1    0    0    0  501 -0.00000000000E+00  0.00000000000E+00  0.81251078931E+03  0.81251078931E+03  0.25500000000E-02 0.  1.
          2   -1    0    0  501    0  0.00000000000E+00 -0.00000000000E+00 -0.10802677923E+04  0.10802677923E+04  0.25500000000E-02 0. -1.
    8880023    1    1    2    0    0  0.17721303110E+03  0.47896774839E+03  0.48959766709E+03  0.96660780271E+03  0.65864270000E+03 0.  0.
    8880022    1    1    2    0    0 -0.17721303110E+03 -0.47896774839E+03 -0.75735467011E+03  0.92617077893E+03  0.15294330000E+03 0.  0.
<mgrwt>
<rscale>  0 0.74535050E+03</rscale>
<asrwt>0</asrwt>
<pdfrwt beam="1">  1        2 0.16619505E+00 0.83344152E+03</pdfrwt>
<pdfrwt beam="2">  1       -2 0.12500166E+00 0.83344152E+03</pdfrwt>
<totfact> 0.10836465E+01</totfact>
</mgrwt>
</event>
<event>
 4    5  0.2473208E-007  0.7795466E+03  0.7818608E-02  0.9756903E-01
         -2   -1    0    0    0  501 -0.00000000000E+00  0.00000000000E+00  0.24450273982E+03  0.24450273983E+03  0.25500000000E-02 0.  1.
          2   -1    0    0  501    0  0.00000000000E+00 -0.00000000000E+00 -0.16064675729E+04  0.16064675729E+04  0.25500000000E-02 0. -1.
    8880023    1    1    2    0    0  0.26312663597E+03 -0.32349191423E+03 -0.10520012120E+04  0.13093507557E+04  0.65864270000E+03 0.  0.
    8880022    1    1    2    0    0 -0.26312663597E+03  0.32349191423E+03 -0.30996362104E+03  0.54161955699E+03  0.15294330000E+03 0.  0.
<mgrwt>
<rscale>  0 0.67727549E+03</rscale>
<asrwt>0</asrwt>
<pdfrwt beam="1">  1        2 0.24714885E+00 0.77954657E+03</pdfrwt>
<pdfrwt beam="2">  1       -2 0.37615807E-01 0.77954657E+03</pdfrwt>
<totfact> 0.75082778E+01</totfact>
</mgrwt>
</event>
<event>
 4    5  0.2473208E-007  0.1569015E+04  0.7818608E-02  0.8862379E-01
          2   -1    0    0  501    0  0.00000000000E+00  0.00000000000E+00  0.37205126014E+04  0.37205126014E+04  0.25500000000E-02 0. -1.
         -2   -1    0    0    0  501 -0.00000000000E+00 -0.00000000000E+00 -0.63971625706E+03  0.63971625706E+03  0.25500000000E-02 0.  1.
    8880023    1    1    2    0    0  0.13619491381E+04 -0.41604248546E+03  0.11014269730E+04  0.19170154896E+04  0.65864270000E+03 0.  0.
    8880022    1    1    2    0    0 -0.13619491381E+04  0.41604248546E+03  0.19793693713E+04  0.24432133688E+04  0.15294330000E+03 0.  0.
<mgrwt>
<rscale>  0 0.15336499E+04</rscale>
<asrwt>0</asrwt>
<pdfrwt beam="1">  1        2 0.57238655E+00 0.15690147E+04</pdfrwt>
<pdfrwt beam="2">  1       -2 0.98417887E-01 0.15690147E+04</pdfrwt>
<totfact> 0.46296261E-01</totfact>
</mgrwt>
</event>
<event>
 4    5  0.2473208E-007  0.1554133E+04  0.7818608E-02  0.8872327E-01
         -2   -1    0    0    0  501 -0.00000000000E+00  0.00000000000E+00  0.13059884312E+04  0.13059884312E+04  0.25500000000E-02 0.  1.
          2   -1    0    0  501    0  0.00000000000E+00 -0.00000000000E+00 -0.26280388909E+04  0.26280388909E+04  0.25500000000E-02 0. -1.
    8880023    1    1    2    0    0  0.71739535015E+03  0.12111412360E+04  0.49441927564E+03  0.16308831376E+04  0.65864270000E+03 0.  0.
    8880022    1    1    2    0    0 -0.71739535015E+03 -0.12111412360E+04 -0.18164697354E+04  0.23031441845E+04  0.15294330000E+03 0.  0.
<mgrwt>
<rscale>  0 0.15183714E+04</rscale>
<asrwt>0</asrwt>
<pdfrwt beam="1">  1        2 0.40431368E+00 0.15541330E+04</pdfrwt>
<pdfrwt beam="2">  1       -2 0.20092130E+00 0.15541330E+04</pdfrwt>
<totfact> 0.35904599E-01</totfact>
</mgrwt>
</event>
<event>
 4    5  0.2473208E-007  0.1249245E+04  0.7818608E-02  0.9110679E-01
          2   -1    0    0  501    0  0.00000000000E+00  0.00000000000E+00  0.27367570305E+04  0.27367570305E+04  0.25500000000E-02 0. -1.
         -2   -1    0    0    0  501 -0.00000000000E+00 -0.00000000000E+00 -0.72993643910E+03  0.72993643910E+03  0.25500000000E-02 0.  1.
    8880023    1    1    2    0    0  0.10599661089E+04  0.57218337586E+02  0.68092999338E+02  0.12510990980E+04  0.65864270000E+03 0.  1.
    8880022    1    1    2    0    0 -0.10599661089E+04 -0.57218337586E+02  0.19387275921E+04  0.22155943716E+04  0.15294330000E+03 0.  0.
<mgrwt>
<rscale>  0 0.12024915E+04</rscale>
<asrwt>0</asrwt>
<pdfrwt beam="1">  1        2 0.42103954E+00 0.12492447E+04</pdfrwt>
<pdfrwt beam="2">  1       -2 0.11229791E+00 0.12492447E+04</pdfrwt>
<totfact> 0.15439164E+00</totfact>
</mgrwt>
</event>
<event>
 4    5  0.2473208E-007  0.1028898E+04  0.7818608E-02  0.9344689E-01
          2   -1    0    0  501    0  0.00000000000E+00  0.00000000000E+00  0.10338766875E+04  0.10338766876E+04  0.25500000000E-02 0. -1.
         -2   -1    0    0    0  501 -0.00000000000E+00 -0.00000000000E+00 -0.14824545122E+04  0.14824545122E+04  0.25500000000E-02 0.  1.
    8880023    1    1    2    0    0 -0.20706296901E+03  0.76285412238E+03 -0.10811123592E+04  0.14924595889E+04  0.65864270000E+03 0.  0.
    8880022    1    1    2    0    0  0.20706296901E+03 -0.76285412238E+03  0.63253453450E+03  0.10238716109E+04  0.15294330000E+03 0.  0.
<mgrwt>
<rscale>  0 0.96770740E+03</rscale>
<asrwt>0</asrwt>
<pdfrwt beam="1">  1        2 0.15905795E+00 0.10288983E+04</pdfrwt>
<pdfrwt beam="2">  1       -2 0.22806993E+00 0.10288983E+04</pdfrwt>
<totfact> 0.20876680E+00</totfact>
</mgrwt>
</event>
<event>
 4    5  0.2473208E-007  0.7651826E+03  0.7818608E-02  0.9791870E-01
          2   -1    0    0  501    0  0.00000000000E+00  0.00000000000E+00  0.16244342941E+04  0.16244342941E+04  0.25500000000E-02 0. -1.
         -2   -1    0    0    0  501 -0.00000000000E+00 -0.00000000000E+00 -0.83928486972E+03  0.83928486972E+03  0.25500000000E-02 0.  1.
    8880023    1    1    2    0    0 -0.34505512894E+03 -0.18064105897E+03 -0.62801830102E+03  0.98990475647E+03  0.65864270000E+03 0.  0.
    8880022    1    1    2    0    0  0.34505512894E+03  0.18064105897E+03  0.14131677254E+04  0.14738144073E+04  0.15294330000E+03 0.  0.
<mgrwt>
<rscale>  0 0.65800655E+03</rscale>
<asrwt>0</asrwt>
<pdfrwt beam="1">  1        2 0.24991297E+00 0.76518262E+03</pdfrwt>
<pdfrwt beam="2">  1       -2 0.12912075E+00 0.76518262E+03</pdfrwt>
<totfact> 0.48967704E+00</totfact>
</mgrwt>
</event>
<event>
 4    5  0.2473208E-007  0.1372865E+04  0.7818608E-02  0.9005059E-01
          2   -1    0    0  501    0  0.00000000000E+00  0.00000000000E+00  0.16239795672E+04  0.16239795672E+04  0.25500000000E-02 0. -1.
         -2   -1    0    0    0  501 -0.00000000000E+00 -0.00000000000E+00 -0.25561789259E+04  0.25561789259E+04  0.25500000000E-02 0.  1.
    8880023    1    1    2    0    0 -0.37383510193E+03 -0.11450742604E+04 -0.20912043049E+04  0.25015781811E+04  0.65864270000E+03 0.  0.
    8880022    1    1    2    0    0  0.37383510193E+03  0.11450742604E+04  0.11590049461E+04  0.16785803119E+04  0.15294330000E+03 0.  0.
<mgrwt>
<rscale>  0 0.13313601E+04</rscale>
<asrwt>0</asrwt>
<pdfrwt beam="1">  1        2 0.24984301E+00 0.13728649E+04</pdfrwt>
<pdfrwt beam="2">  1       -2 0.39325830E+00 0.13728649E+04</pdfrwt>
<totfact> 0.85077004E-02</totfact>
</mgrwt>
</event>
<event>
 4    5  0.2473208E-007  0.1356773E+04  0.7818608E-02  0.9018020E-01
          2   -1    0    0  501    0  0.00000000000E+00  0.00000000000E+00  0.31010541903E+04  0.31010541903E+04  0.25500000000E-02 0. -1.
         -2   -1    0    0    0  501 -0.00000000000E+00 -0.00000000000E+00 -0.60554498116E+03  0.60554498117E+03  0.25500000000E-02 0.  1.
    8880023    1    1    2    0    0 -0.88035316650E+03  0.79498520889E+03  0.64268074179E+03  0.15012900860E+04  0.65864270000E+03 0.  0.
    8880022    1    1    2    0    0  0.88035316650E+03 -0.79498520889E+03  0.18528284674E+04  0.22053090855E+04  0.15294330000E+03 0.  0.
<mgrwt>
<rscale>  0 0.13146592E+04</rscale>
<asrwt>0</asrwt>
<pdfrwt beam="1">  1        2 0.47708525E+00 0.13567732E+04</pdfrwt>
<pdfrwt beam="2">  1       -2 0.93160767E-01 0.13567732E+04</pdfrwt>
<totfact> 0.14279394E+00</totfact>
</mgrwt>
</event>
<event>
 4    5  0.2473208E-007  0.9086678E+03  0.7818608E-02  0.9512258E-01
          2   -1    0    0  501    0  0.00000000000E+00  0.00000000000E+00  0.17542082080E+04  0.17542082080E+04  0.25500000000E-02 0. -1.
         -2   -1    0    0    0  501 -0.00000000000E+00 -0.00000000000E+00 -0.44818980736E+03  0.44818980737E+03  0.25500000000E-02 0.  1.
    8880023    1    1    2    0    0  0.56129367402E+03 -0.27715760759E+03  0.21258591794E+03  0.93320410774E+03  0.65864270000E+03 0.  0.
    8880022    1    1    2    0    0 -0.56129367402E+03  0.27715760759E+03  0.10934324827E+04  0.12691939076E+04  0.15294330000E+03 0.  0.
<mgrwt>
<rscale>  0 0.83386102E+03</rscale>
<asrwt>0</asrwt>
<pdfrwt beam="1">  1        2 0.26987818E+00 0.90866778E+03</pdfrwt>
<pdfrwt beam="2">  1       -2 0.68952279E-01 0.90866778E+03</pdfrwt>
<totfact> 0.17746305E+01</totfact>
</mgrwt>
</event>
<event>
 4    5  0.2473208E-007  0.9206955E+03  0.7818608E-02  0.9493593E-01
         -2   -1    0    0    0  501 -0.00000000000E+00  0.00000000000E+00  0.46549377161E+03  0.46549377162E+03  0.25500000000E-02 0.  1.
          2   -1    0    0  501    0  0.00000000000E+00 -0.00000000000E+00 -0.16884419561E+04  0.16884419561E+04  0.25500000000E-02 0. -1.
    8880023    1    1    2    0    0 -0.34838796265E+03 -0.54082881970E+03 -0.21013887831E+03  0.94437203431E+03  0.65864270000E+03 0.  1.
    8880022    1    1    2    0    0  0.34838796265E+03  0.54082881970E+03 -0.10128093062E+04  0.12095636934E+04  0.15294330000E+03 0.  0.
<mgrwt>
<rscale>  0 0.84757802E+03</rscale>
<asrwt>0</asrwt>
<pdfrwt beam="1">  1        2 0.25976030E+00 0.92069549E+03</pdfrwt>
<pdfrwt beam="2">  1       -2 0.71614427E-01 0.92069549E+03</pdfrwt>
<totfact> 0.17729848E+01</totfact>
</mgrwt>
</event>
<event>
 4    5  0.2473208E-007  0.8307159E+03  0.7818608E-02  0.9647941E-01
         -2   -1    0    0    0  501 -0.00000000000E+00  0.00000000000E+00  0.71993606880E+03  0.71993606880E+03  0.25500000000E-02 0.  1.
          2   -1    0    0  501    0  0.00000000000E+00 -0.00000000000E+00 -0.11607486435E+04  0.11607486435E+04  0.25500000000E-02 0. -1.
    8880023    1    1    2    0    0  0.34379344830E+03 -0.37159756239E+03  0.37261840868E+03  0.91045777948E+03  0.65864270000E+03 0.  0.
    8880022    1    1    2    0    0 -0.34379344830E+03  0.37159756239E+03 -0.81343098342E+03  0.97022693287E+03  0.15294330000E+03 0.  0.
<mgrwt>
<rscale>  0 0.74202782E+03</rscale>
<asrwt>0</asrwt>
<pdfrwt beam="1">  1        2 0.17857671E+00 0.83071589E+03</pdfrwt>
<pdfrwt beam="2">  1       -2 0.11075940E+00 0.83071589E+03</pdfrwt>
<totfact> 0.13048728E+01</totfact>
</mgrwt>
</event>
<event>
 4    5  0.2473208E-007  0.1149428E+04  0.7818608E-02  0.9207921E-01
         -2   -1    0    0    0  501 -0.00000000000E+00  0.00000000000E+00  0.43955153581E+03  0.43955153582E+03  0.25500000000E-02 0.  1.
          2   -1    0    0  501    0  0.00000000000E+00 -0.00000000000E+00 -0.31241713541E+04  0.31241713541E+04  0.25500000000E-02 0. -1.
    8880023    1    1    2    0    0 -0.73953920684E+02  0.93909856831E+03 -0.65996290057E+03  0.13254193826E+04  0.65864270000E+03 0.  0.
    8880022    1    1    2    0    0  0.73953920684E+02 -0.93909856831E+03 -0.20246569177E+04  0.22383035073E+04  0.15294330000E+03 0.  0.
<mgrwt>
<rscale>  0 0.10972039E+04</rscale>
<asrwt>0</asrwt>
<pdfrwt beam="1">  1        2 0.48064173E+00 0.11494283E+04</pdfrwt>
<pdfrwt beam="2">  1       -2 0.67623315E-01 0.11494283E+04</pdfrwt>
<totfact> 0.29222466E+00</totfact>
</mgrwt>
</event>
<event>
 4    5  0.2473208E-007  0.9728414E+03  0.7818608E-02  0.9417985E-01
         -2   -1    0    0    0  501 -0.00000000000E+00  0.00000000000E+00  0.59117813843E+03  0.59117813843E+03  0.25500000000E-02 0.  1.
          2   -1    0    0  501    0  0.00000000000E+00 -0.00000000000E+00 -0.27450559036E+04  0.27450559036E+04  0.25500000000E-02 0. -1.
    8880023    1    1    2    0    0 -0.70994103456E+03 -0.92703210837E+02  0.88986962821E+02  0.97690278108E+03  0.65864270000E+03 0.  0.
    8880022    1    1    2    0    0  0.70994103456E+03  0.92703210837E+02 -0.22428647280E+04  0.23593312610E+04  0.15294330000E+03 0. -1.
<mgrwt>
<rscale>  0 0.90610246E+03</rscale>
<asrwt>0</asrwt>
<pdfrwt beam="1">  1        2 0.42231629E+00 0.97284139E+03</pdfrwt>
<pdfrwt beam="2">  1       -2 0.90950484E-01 0.97284139E+03</pdfrwt>
<totfact> 0.26217636E+00</totfact>
</mgrwt>
</event>
<event>
 4    5  0.2473208E-007  0.7682089E+03  0.7818608E-02  0.9784301E-01
          2   -1    0    0  501    0  0.00000000000E+00  0.00000000000E+00  0.11403683104E+04  0.11403683104E+04  0.25500000000E-02 0. -1.
         -2   -1    0    0    0  501 -0.00000000000E+00 -0.00000000000E+00 -0.35982270259E+03  0.35982270260E+03  0.25500000000E-02 0.  1.
    8880023    1    1    2    0    0  0.33601689357E+03 -0.20839234345E+03  0.22328401112E+03  0.80000042341E+03  0.65864270000E+03 0.  1.
    8880022    1    1    2    0    0 -0.33601689357E+03  0.20839234345E+03  0.55726159664E+03  0.70019058954E+03  0.15294330000E+03 0.  0.
<mgrwt>
<rscale>  0 0.66211889E+03</rscale>
<asrwt>0</asrwt>
<pdfrwt beam="1">  1        2 0.17544127E+00 0.76820891E+03</pdfrwt>
<pdfrwt beam="2">  1       -2 0.55357340E-01 0.76820891E+03</pdfrwt>
<totfact> 0.64050299E+01</totfact>
</mgrwt>
</event>
<event>
 4    5  0.2473208E-007  0.9159936E+03  0.7818608E-02  0.9500830E-01
         -2   -1    0    0    0  501 -0.00000000000E+00  0.00000000000E+00  0.41205358788E+03  0.41205358789E+03  0.25500000000E-02 0.  1.
          2   -1    0    0  501    0  0.00000000000E+00 -0.00000000000E+00 -0.18584678582E+04  0.18584678582E+04  0.25500000000E-02 0. -1.
    8880023    1    1    2    0    0 -0.59554060688E+03 -0.22486768535E+03 -0.32491598723E+03  0.97191290525E+03  0.65864270000E+03 0.  1.
    8880022    1    1    2    0    0  0.59554060688E+03  0.22486768535E+03 -0.11214982830E+04  0.12986085408E+04  0.15294330000E+03 0.  0.
<mgrwt>
<rscale>  0 0.84222691E+03</rscale>
<asrwt>0</asrwt>
<pdfrwt beam="1">  1        2 0.28591813E+00 0.91599361E+03</pdfrwt>
<pdfrwt beam="2">  1       -2 0.63392861E-01 0.91599361E+03</pdfrwt>
<totfact> 0.18640973E+01</totfact>
</mgrwt>
</event>
<event>
 4    5  0.2473208E-007  0.8601942E+03  0.7818608E-02  0.9593218E-01
         -2   -1    0    0    0  501 -0.00000000000E+00  0.00000000000E+00  0.11972103578E+04  0.11972103578E+04  0.25500000000E-02 0.  1.
          2   -1    0    0  501    0  0.00000000000E+00 -0.00000000000E+00 -0.70692847848E+03  0.70692847849E+03  0.25500000000E-02 0. -1.
    8880023    1    1    2    0    0  0.48460724177E+03 -0.26698265176E+03  0.86398301231E+03  0.12191803669E+04  0.65864270000E+03 0.  1.
    8880022    1    1    2    0    0 -0.48460724177E+03  0.26698265176E+03 -0.37370113295E+03  0.68495846947E+03  0.15294330000E+03 0.  0.
<mgrwt>
<rscale>  0 0.77746686E+03</rscale>
<asrwt>0</asrwt>
<pdfrwt beam="1">  1        2 0.10875823E+00 0.86019423E+03</pdfrwt>
<pdfrwt beam="2">  1       -2 0.18418621E+00 0.86019423E+03</pdfrwt>
<totfact> 0.69097516E+00</totfact>
</mgrwt>
</event>
<event>
 4    5  0.2473208E-007  0.7658459E+03  0.7818608E-02  0.9790202E-01
          2   -1    0    0  501    0  0.00000000000E+00  0.00000000000E+00  0.68813385744E+03  0.68813385744E+03  0.25500000000E-02 0. -1.
         -2   -1    0    0    0  501 -0.00000000000E+00 -0.00000000000E+00 -0.88370808817E+03  0.88370808817E+03  0.25500000000E-02 0.  1.
    8880023    1    1    2    0    0  0.20151780197E+03  0.33481384905E+03 -0.61223179632E+03  0.98048340971E+03  0.65864270000E+03 0.  0.
    8880022    1    1    2    0    0 -0.20151780197E+03 -0.33481384905E+03  0.41665756558E+03  0.59135853591E+03  0.15294330000E+03 0.  0.
<mgrwt>
<rscale>  0 0.65891045E+03</rscale>
<asrwt>0</asrwt>
<pdfrwt beam="1">  1        2 0.10586675E+00 0.76584590E+03</pdfrwt>
<pdfrwt beam="2">  1       -2 0.13595509E+00 0.76584590E+03</pdfrwt>
<totfact> 0.16428975E+01</totfact>
</mgrwt>
</event>
<event>
 4    5  0.2473208E-007  0.1031191E+04  0.7818608E-02  0.9341842E-01
         -2   -1    0    0    0  501 -0.00000000000E+00  0.00000000000E+00  0.23022263085E+04  0.23022263085E+04  0.25500000000E-02 0.  1.
          2   -1    0    0  501    0  0.00000000000E+00 -0.00000000000E+00 -0.71054386745E+03  0.71054386745E+03  0.25500000000E-02 0. -1.
    8880023    1    1    2    0    0  0.66974207801E+03 -0.42542957817E+03  0.18886971416E+04  0.21518670674E+04  0.65864270000E+03 0.  0.
    8880022    1    1    2    0    0 -0.66974207801E+03  0.42542957817E+03 -0.29701470046E+03  0.86090310858E+03  0.15294330000E+03 0.  0.
<mgrwt>
<rscale>  0 0.97020434E+03</rscale>
<asrwt>0</asrwt>
<pdfrwt beam="1">  1        2 0.10931444E+00 0.10311911E+04</pdfrwt>
<pdfrwt beam="2">  1       -2 0.35418866E+00 0.10311911E+04</pdfrwt>
<totfact> 0.59359982E-01</totfact>
</mgrwt>
</event>
<event>
 4    5  0.2473208E-007  0.1136827E+04  0.7818608E-02  0.9221121E-01
          2   -1    0    0  501    0  0.00000000000E+00  0.00000000000E+00  0.18081647050E+04  0.18081647050E+04  0.25500000000E-02 0. -1.
         -2   -1    0    0    0  501 -0.00000000000E+00 -0.00000000000E+00 -0.12418740925E+04  0.12418740925E+04  0.25500000000E-02 0.  1.
    8880023    1    1    2    0    0  0.92011943295E+03 -0.10929202008E+03 -0.80144114625E+03  0.13909286947E+04  0.65864270000E+03 0.  0.
    8880022    1    1    2    0    0 -0.92011943295E+03  0.10929202008E+03  0.13677317587E+04  0.16591101029E+04  0.15294330000E+03 0.  0.
<mgrwt>
<rscale>  0 0.10838060E+04</rscale>
<asrwt>0</asrwt>
<pdfrwt beam="1">  1        2 0.27817918E+00 0.11368266E+04</pdfrwt>
<pdfrwt beam="2">  1       -2 0.19105755E+00 0.11368266E+04</pdfrwt>
<totfact> 0.12734737E+00</totfact>
</mgrwt>
</event>
<event>
 4    5  0.2473208E-007  0.9403448E+03  0.7818608E-02  0.9464144E-01
          2   -1    0    0  501    0  0.00000000000E+00  0.00000000000E+00  0.13150606891E+04  0.13150606891E+04  0.25500000000E-02 0. -1.
         -2   -1    0    0    0  501 -0.00000000000E+00 -0.00000000000E+00 -0.89835644790E+03  0.89835644790E+03  0.25500000000E-02 0.  1.
    8880023    1    1    2    0    0 -0.43446136644E+03  0.51154807543E+03 -0.50159912876E+03  0.10657626399E+04  0.65864270000E+03 0.  0.
    8880022    1    1    2    0    0  0.43446136644E+03 -0.51154807543E+03  0.91830336999E+03  0.11476544971E+04  0.15294330000E+03 0.  0.
<mgrwt>
<rscale>  0 0.86979746E+03</rscale>
<asrwt>0</asrwt>
<pdfrwt beam="1">  1        2 0.20231703E+00 0.94034479E+03</pdfrwt>
<pdfrwt beam="2">  1       -2 0.13820868E+00 0.94034479E+03</pdfrwt>
<totfact> 0.60072815E+00</totfact>
</mgrwt>
</event>
<event>
 4    5  0.2473208E-007  0.7935174E+03  0.7818608E-02  0.9724992E-01
          2   -1    0    0  501    0  0.00000000000E+00  0.00000000000E+00  0.39232771363E+04  0.39232771363E+04  0.25500000000E-02 0. -1.
         -2   -1    0    0    0  501 -0.00000000000E+00 -0.00000000000E+00 -0.10167536685E+03  0.10167536688E+03  0.25500000000E-02 0.  1.
    8880023    1    1    2    0    0  0.32025176548E+03  0.30544789392E+03  0.23103893923E+04  0.24428608146E+04  0.65864270000E+03 0.  0.
    8880022    1    1    2    0    0 -0.32025176548E+03 -0.30544789392E+03  0.15112123771E+04  0.15820916886E+04  0.15294330000E+03 0.  1.
<mgrwt>
<rscale>  0 0.69548071E+03</rscale>
<asrwt>0</asrwt>
<pdfrwt beam="1">  1        2 0.60358108E+00 0.79351737E+03</pdfrwt>
<pdfrwt beam="2">  1       -2 0.15642365E-01 0.79351737E+03</pdfrwt>
<totfact> 0.13991875E+01</totfact>
</mgrwt>
</event>
<event>
 4    5  0.2473208E-007  0.8804460E+03  0.7818608E-02  0.9558181E-01
         -2   -1    0    0    0  501 -0.00000000000E+00  0.00000000000E+00  0.57650179735E+03  0.57650179736E+03  0.25500000000E-02 0.  1.
          2   -1    0    0  501    0  0.00000000000E+00 -0.00000000000E+00 -0.17840646135E+04  0.17840646135E+04  0.25500000000E-02 0. -1.
    8880023    1    1    2    0    0 -0.49585840900E+03 -0.30902978156E+03  0.13281139910E+03  0.89040667207E+03  0.65864270000E+03 0.  1.
    8880022    1    1    2    0    0  0.49585840900E+03  0.30902978156E+03 -0.13403742153E+04  0.14701597388E+04  0.15294330000E+03 0.  0.
<mgrwt>
<rscale>  0 0.80127009E+03</rscale>
<asrwt>0</asrwt>
<pdfrwt beam="1">  1        2 0.27447148E+00 0.88044601E+03</pdfrwt>
<pdfrwt beam="2">  1       -2 0.88692585E-01 0.88044601E+03</pdfrwt>
<totfact> 0.97476817E+00</totfact>
</mgrwt>
</event>
<event>
 4    5  0.2473208E-007  0.9394816E+03  0.7818608E-02  0.9465412E-01
         -2   -1    0    0    0  501 -0.00000000000E+00  0.00000000000E+00  0.33360930211E+04  0.33360930211E+04  0.25500000000E-02 0.  1.
          2   -1    0    0  501    0  0.00000000000E+00 -0.00000000000E+00 -0.45804282692E+03  0.45804282693E+03  0.25500000000E-02 0. -1.
    8880023    1    1    2    0    0  0.46359484408E+03 -0.48362731387E+03  0.29567994350E+04  0.31024649334E+04  0.65864270000E+03 0.  0.
    8880022    1    1    2    0    0 -0.46359484408E+03  0.48362731387E+03 -0.78749240798E+02  0.69167091461E+03  0.15294330000E+03 0.  0.
<mgrwt>
<rscale>  0 0.86882599E+03</rscale>
<asrwt>0</asrwt>
<pdfrwt beam="1">  1        2 0.70468128E-01 0.93948165E+03</pdfrwt>
<pdfrwt beam="2">  1       -2 0.51324507E+00 0.93948165E+03</pdfrwt>
<totfact> 0.95084671E-02</totfact>
</mgrwt>
</event>
<event>
 4    5  0.2473208E-007  0.1032785E+04  0.7818608E-02  0.9339868E-01
         -2   -1    0    0    0  501 -0.00000000000E+00  0.00000000000E+00  0.26742913460E+03  0.26742913461E+03  0.25500000000E-02 0.  1.
          2   -1    0    0  501    0  0.00000000000E+00 -0.00000000000E+00 -0.42284876362E+04  0.42284876363E+04  0.25500000000E-02 0. -1.
    8880023    1    1    2    0    0 -0.32453697623E+03 -0.72629905384E+03 -0.10442528627E+04  0.14687099142E+04  0.65864270000E+03 0.  1.
    8880022    1    1    2    0    0  0.32453697623E+03  0.72629905384E+03 -0.29168056390E+04  0.30272068567E+04  0.15294330000E+03 0. -1.
<mgrwt>
<rscale>  0 0.97193926E+03</rscale>
<asrwt>0</asrwt>
<pdfrwt beam="1">  1        2 0.65053651E+00 0.10327850E+04</pdfrwt>
<pdfrwt beam="2">  1       -2 0.41142947E-01 0.10327850E+04</pdfrwt>
<totfact> 0.12996328E+00</totfact>
</mgrwt>
</event>
<event>
 4    5  0.2473208E-007  0.1221682E+04  0.7818608E-02  0.9136329E-01
         -2   -1    0    0    0  501 -0.00000000000E+00  0.00000000000E+00  0.18896012743E+04  0.18896012743E+04  0.25500000000E-02 0.  1.
          2   -1    0    0  501    0  0.00000000000E+00 -0.00000000000E+00 -0.14492257981E+04  0.14492257981E+04  0.25500000000E-02 0. -1.
    8880023    1    1    2    0    0  0.97881819953E+03 -0.31719332074E+03  0.14453048787E+04  0.18924621712E+04  0.65864270000E+03 0.  1.
    8880022    1    1    2    0    0 -0.97881819953E+03  0.31719332074E+03 -0.10049294025E+04  0.14463649013E+04  0.15294330000E+03 0.  0.
<mgrwt>
<rscale>  0 0.11735496E+04</rscale>
<asrwt>0</asrwt>
<pdfrwt beam="1">  1        2 0.22295782E+00 0.12216820E+04</pdfrwt>
<pdfrwt beam="2">  1       -2 0.29070789E+00 0.12216820E+04</pdfrwt>
<totfact> 0.47766129E-01</totfact>
</mgrwt>
</event>
<event>
 4    5  0.2473208E-007  0.8362683E+03  0.7818608E-02  0.9637257E-01
          2   -1    0    0  501    0  0.00000000000E+00  0.00000000000E+00  0.18048836326E+04  0.18048836326E+04  0.25500000000E-02 0. -1.
         -2   -1    0    0    0  501 -0.00000000000E+00 -0.00000000000E+00 -0.75999257220E+03  0.75999257221E+03  0.25500000000E-02 0.  1.
    8880023    1    1    2    0    0  0.33684262302E+03  0.38996354973E+03 -0.46871176443E+03  0.95866336489E+03  0.65864270000E+03 0.  1.
    8880022    1    1    2    0    0 -0.33684262302E+03 -0.38996354973E+03  0.15136028248E+04  0.16062128399E+04  0.15294330000E+03 0.  0.
<mgrwt>
<rscale>  0 0.74878580E+03</rscale>
<asrwt>0</asrwt>
<pdfrwt beam="1">  1        2 0.27767440E+00 0.83626834E+03</pdfrwt>
<pdfrwt beam="2">  1       -2 0.11692193E+00 0.83626834E+03</pdfrwt>
<totfact> 0.49438104E+00</totfact>
</mgrwt>
</event>
<event>
 4    5  0.2473208E-007  0.1380554E+04  0.7818608E-02  0.8998942E-01
         -2   -1    0    0    0  501 -0.00000000000E+00  0.00000000000E+00  0.10911471316E+04  0.10911471316E+04  0.25500000000E-02 0.  1.
          2   -1    0    0  501    0  0.00000000000E+00 -0.00000000000E+00 -0.17537501102E+04  0.17537501102E+04  0.25500000000E-02 0. -1.
    8880023    1    1    2    0    0  0.97554552163E+03 -0.72140831846E+03  0.13146231513E+03  0.13867990385E+04  0.65864270000E+03 0.  0.
    8880022    1    1    2    0    0 -0.97554552163E+03  0.72140831846E+03 -0.79406529367E+03  0.14580982033E+04  0.15294330000E+03 0.  0.
<mgrwt>
<rscale>  0 0.13393335E+04</rscale>
<asrwt>0</asrwt>
<pdfrwt beam="1">  1        2 0.26980771E+00 0.13805540E+04</pdfrwt>
<pdfrwt beam="2">  1       -2 0.16786879E+00 0.13805540E+04</pdfrwt>
<totfact> 0.19269772E+00</totfact>
</mgrwt>
</event>
<event>
 4    5  0.2473208E-007  0.7923476E+03  0.7818608E-02  0.9727593E-01
         -2   -1    0    0    0  501 -0.00000000000E+00  0.00000000000E+00  0.44986969521E+03  0.44986969521E+03  0.25500000000E-02 0.  1.
          2   -1    0    0  501    0  0.00000000000E+00 -0.00000000000E+00 -0.13487671550E+04  0.13487671550E+04  0.25500000000E-02 0. -1.
    8880023    1    1    2    0    0  0.10622916652E+03  0.42745740348E+03 -0.71819859932E+01  0.79238012014E+03  0.65864270000E+03 0.  0.
    8880022    1    1    2    0    0 -0.10622916652E+03 -0.42745740348E+03 -0.89171547384E+03  0.10062567301E+04  0.15294330000E+03 0.  0.
<mgrwt>
<rscale>  0 0.69397412E+03</rscale>
<asrwt>0</asrwt>
<pdfrwt beam="1">  1        2 0.20750264E+00 0.79234757E+03</pdfrwt>
<pdfrwt beam="2">  1       -2 0.69210723E-01 0.79234757E+03</pdfrwt>
<totfact> 0.29991498E+01</totfact>
</mgrwt>
</event>
<event>
 4    5  0.2473208E-007  0.7399986E+03  0.7818608E-02  0.9859951E-01
          2   -1    0    0  501    0  0.00000000000E+00  0.00000000000E+00  0.15037184827E+04  0.15037184827E+04  0.25500000000E-02 0. -1.
         -2   -1    0    0    0  501 -0.00000000000E+00 -0.00000000000E+00 -0.41357237557E+03  0.41357237558E+03  0.25500000000E-02 0.  1.
    8880023    1    1    2    0    0  0.32325363930E+03  0.96409861979E+02 -0.26854704659E+02  0.74048575829E+03  0.65864270000E+03 0.  1.
    8880022    1    1    2    0    0 -0.32325363930E+03 -0.96409861979E+02  0.11170008118E+04  0.11768051000E+04  0.15294330000E+03 0.  0.
<mgrwt>
<rscale>  0 0.62242111E+03</rscale>
<asrwt>0</asrwt>
<pdfrwt beam="1">  1        2 0.23134131E+00 0.73999864E+03</pdfrwt>
<pdfrwt beam="2">  1       -2 0.63626518E-01 0.73999864E+03</pdfrwt>
<totfact> 0.29581796E+01</totfact>
</mgrwt>
</event>
<event>
 4    5  0.2473208E-007  0.9430043E+03  0.7818608E-02  0.9460252E-01
          2   -1    0    0  501    0  0.00000000000E+00  0.00000000000E+00  0.46984481867E+03  0.46984481867E+03  0.25500000000E-02 0. -1.
         -2   -1    0    0    0  501 -0.00000000000E+00 -0.00000000000E+00 -0.15848808153E+04  0.15848808153E+04  0.25500000000E-02 0.  1.
    8880023    1    1    2    0    0 -0.14219985568E+03  0.65971663143E+03 -0.95981440135E+03  0.13455484845E+04  0.65864270000E+03 0.  0.
    8880022    1    1    2    0    0  0.14219985568E+03 -0.65971663143E+03 -0.15522159528E+03  0.70917714951E+03  0.15294330000E+03 0.  0.
<mgrwt>
<rscale>  0 0.87278821E+03</rscale>
<asrwt>0</asrwt>
<pdfrwt beam="1">  1        2 0.72283819E-01 0.94300426E+03</pdfrwt>
<pdfrwt beam="2">  1       -2 0.24382782E+00 0.94300426E+03</pdfrwt>
<totfact> 0.46669213E+00</totfact>
</mgrwt>
</event>
<event>
 4    5  0.2473208E-007  0.8961152E+03  0.7818608E-02  0.9532297E-01
         -2   -1    0    0    0  501 -0.00000000000E+00  0.00000000000E+00  0.14674101867E+04  0.14674101867E+04  0.25500000000E-02 0.  1.
          2   -1    0    0  501    0  0.00000000000E+00 -0.00000000000E+00 -0.12237710622E+04  0.12237710622E+04  0.25500000000E-02 0. -1.
    8880023    1    1    2    0    0  0.50608086214E+03 -0.33629507831E+03  0.12304929990E+04  0.15222139947E+04  0.65864270000E+03 0.  0.
    8880022    1    1    2    0    0 -0.50608086214E+03  0.33629507831E+03 -0.98685387458E+03  0.11689672542E+04  0.15294330000E+03 0.  0.
<mgrwt>
<rscale>  0 0.81944008E+03</rscale>
<asrwt>0</asrwt>
<pdfrwt beam="1">  1        2 0.18827247E+00 0.89611519E+03</pdfrwt>
<pdfrwt beam="2">  1       -2 0.22575541E+00 0.89611519E+03</pdfrwt>
<totfact> 0.16805952E+00</totfact>
</mgrwt>
</event>
<event>
 4    5  0.3246452E-007  0.1785670E+04  0.7818608E-02  0.8730505E-01
         -2   -1    0    0    0  501 -0.00000000000E+00  0.00000000000E+00  0.18317008265E+04  0.18317008265E+04  0.25500000000E-02 0.  1.
          2   -1    0    0  501    0  0.00000000000E+00 -0.00000000000E+00 -0.35406223629E+04  0.35406223629E+04  0.25500000000E-02 0. -1.
    8880023    1    1    2    0    0 -0.16595662785E+04 -0.25440176330E+02  0.11063557423E+04  0.21006286369E+04  0.65864270000E+03 0.  0.
    8880022    1    1    2    0    0  0.16595662785E+04  0.25440176330E+02 -0.28152772788E+04  0.32716945525E+04  0.15294330000E+03 0.  0.
<mgrwt>
<rscale>  0 0.17551787E+04</rscale>
<asrwt>0</asrwt>
<pdfrwt beam="1">  1        2 0.54471113E+00 0.17856701E+04</pdfrwt>
<pdfrwt beam="2">  1       -2 0.28180013E+00 0.17856701E+04</pdfrwt>
<totfact> 0.28416381E-02</totfact>
</mgrwt>
</event>
<event>
 4    5  0.2473208E-007  0.8352487E+03  0.7818608E-02  0.9639205E-01
          2   -1    0    0  501    0  0.00000000000E+00  0.00000000000E+00  0.16785315338E+04  0.16785315338E+04  0.25500000000E-02 0. -1.
         -2   -1    0    0    0  501 -0.00000000000E+00 -0.00000000000E+00 -0.55147379226E+03  0.55147379227E+03  0.25500000000E-02 0.  1.
    8880023    1    1    2    0    0  0.23799255439E+03  0.45518093405E+03 -0.14675448880E+03  0.84804317397E+03  0.65864270000E+03 0.  1.
    8880022    1    1    2    0    0 -0.23799255439E+03 -0.45518093405E+03  0.12738122303E+04  0.13819621521E+04  0.15294330000E+03 0.  0.
<mgrwt>
<rscale>  0 0.74754789E+03</rscale>
<asrwt>0</asrwt>
<pdfrwt beam="1">  1        2 0.25823562E+00 0.83524867E+03</pdfrwt>
<pdfrwt beam="2">  1       -2 0.84842123E-01 0.83524867E+03</pdfrwt>
<totfact> 0.12400870E+01</totfact>
</mgrwt>
</event>
<event>
 4    5  0.3020905E-007  0.1538597E+04  0.7818608E-02  0.8882851E-01
         -2   -1    0    0    0  501 -0.00000000000E+00  0.00000000000E+00  0.22286645725E+04  0.22286645725E+04  0.25500000000E-02 0.  1.
          2   -1    0    0  501    0  0.00000000000E+00 -0.00000000000E+00 -0.34736985903E+04  0.34736985903E+04  0.25500000000E-02 0. -1.
    8880023    1    1    2    0    0 -0.11931168162E+04  0.71410265160E+03  0.17900517715E+04  0.23604164643E+04  0.65864270000E+03 0.  0.
    8880022    1    1    2    0    0  0.11931168162E+04 -0.71410265160E+03 -0.30350857893E+04  0.33419466985E+04  0.15294330000E+03 0.  0.
<mgrwt>
<rscale>  0 0.15024107E+04</rscale>
<asrwt>0</asrwt>
<pdfrwt beam="1">  1        2 0.53441517E+00 0.15385969E+04</pdfrwt>
<pdfrwt beam="2">  1       -2 0.34287147E+00 0.15385969E+04</pdfrwt>
<totfact> 0.13770374E-02</totfact>
</mgrwt>
</event>
<event>
 4    5  0.2473208E-007  0.1021205E+04  0.7818608E-02  0.9354326E-01
          2   -1    0    0  501    0  0.00000000000E+00  0.00000000000E+00  0.17272310773E+04  0.17272310773E+04  0.25500000000E-02 0. -1.
         -2   -1    0    0    0  501 -0.00000000000E+00 -0.00000000000E+00 -0.58153039146E+03  0.58153039146E+03  0.25500000000E-02 0.  1.
    8880023    1    1    2    0    0  0.64409767927E+03 -0.44066690199E+03  0.14641056840E+03  0.10316469356E+04  0.65864270000E+03 0.  0.
    8880022    1    1    2    0    0 -0.64409767927E+03  0.44066690199E+03  0.99929011744E+03  0.12771145331E+04  0.15294330000E+03 0.  0.
<mgrwt>
<rscale>  0 0.95931699E+03</rscale>
<asrwt>0</asrwt>
<pdfrwt beam="1">  1        2 0.26572786E+00 0.10212048E+04</pdfrwt>
<pdfrwt beam="2">  1       -2 0.89466215E-01 0.10212048E+04</pdfrwt>
<totfact> 0.10106455E+01</totfact>
</mgrwt>
</event>
<event>
 4    5  0.2473208E-007  0.1050173E+04  0.7818608E-02  0.9318673E-01
          2   -1    0    0  501    0  0.00000000000E+00  0.00000000000E+00  0.26409048706E+04  0.26409048706E+04  0.25500000000E-02 0. -1.
         -2   -1    0    0    0  501 -0.00000000000E+00 -0.00000000000E+00 -0.39036310620E+03  0.39036310621E+03  0.25500000000E-02 0.  1.
    8880023    1    1    2    0    0  0.27212711747E+03 -0.77136245293E+03  0.67185658170E+03  0.12466975072E+04  0.65864270000E+03 0.  0.
    8880022    1    1    2    0    0 -0.27212711747E+03  0.77136245293E+03  0.15786851827E+04  0.17845704696E+04  0.15294330000E+03 0.  0.
<mgrwt>
<rscale>  0 0.99081779E+03</rscale>
<asrwt>0</asrwt>
<pdfrwt beam="1">  1        2 0.40629306E+00 0.10501730E+04</pdfrwt>
<pdfrwt beam="2">  1       -2 0.60055863E-01 0.10501730E+04</pdfrwt>
<totfact> 0.75019277E+00</totfact>
</mgrwt>
</event>
<event>
 4    5  0.2473208E-007  0.6848368E+03  0.7818608E-02  0.1006710E+00
          2   -1    0    0  501    0  0.00000000000E+00  0.00000000000E+00  0.27583524967E+04  0.27583524967E+04  0.25500000000E-02 0. -1.
         -2   -1    0    0    0  501 -0.00000000000E+00 -0.00000000000E+00 -0.24142615789E+03  0.24142615790E+03  0.25500000000E-02 0.  1.
    8880023    1    1    2    0    0 -0.17517845810E+03 -0.67110090195E+02  0.26411350593E+03  0.73400095822E+03  0.65864270000E+03 0.  1.
    8880022    1    1    2    0    0  0.17517845810E+03  0.67110090195E+02  0.22528128329E+04  0.22657776964E+04  0.15294330000E+03 0.  0.
<mgrwt>
<rscale>  0 0.52803376E+03</rscale>
<asrwt>0</asrwt>
<pdfrwt beam="1">  1        2 0.42436190E+00 0.68483681E+03</pdfrwt>
<pdfrwt beam="2">  1       -2 0.37142487E-01 0.68483681E+03</pdfrwt>
<totfact> 0.17827042E+01</totfact>
</mgrwt>
</event>
<event>
 4    5  0.2473208E-007  0.9721704E+03  0.7818608E-02  0.9418909E-01
          2   -1    0    0  501    0  0.00000000000E+00  0.00000000000E+00  0.35295057027E+04  0.35295057027E+04  0.25500000000E-02 0. -1.
         -2   -1    0    0    0  501 -0.00000000000E+00 -0.00000000000E+00 -0.10835454169E+04  0.10835454169E+04  0.25500000000E-02 0.  1.
    8880023    1    1    2    0    0  0.57781323967E+03 -0.42123273026E+03 -0.81655318248E+03  0.12695961795E+04  0.65864270000E+03 0.  0.
    8880022    1    1    2    0    0 -0.57781323967E+03  0.42123273026E+03  0.32625134683E+04  0.33434549401E+04  0.15294330000E+03 0.  0.
<mgrwt>
<rscale>  0 0.90535782E+03</rscale>
<asrwt>0</asrwt>
<pdfrwt beam="1">  1        2 0.54300088E+00 0.97217044E+03</pdfrwt>
<pdfrwt beam="2">  1       -2 0.16669930E+00 0.97217044E+03</pdfrwt>
<totfact> 0.18094862E-01</totfact>
</mgrwt>
</event>
<event>
 4    5  0.2473208E-007  0.1522292E+04  0.7818608E-02  0.8894053E-01
         -2   -1    0    0    0  501 -0.00000000000E+00  0.00000000000E+00  0.18109840897E+04  0.18109840897E+04  0.25500000000E-02 0.  1.
          2   -1    0    0  501    0  0.00000000000E+00 -0.00000000000E+00 -0.13855753310E+04  0.13855753310E+04  0.25500000000E-02 0. -1.
    8880023    1    1    2    0    0  0.13692446602E+04  0.93444703151E+02  0.86055926433E+03  0.17486953153E+04  0.65864270000E+03 0.  1.
    8880022    1    1    2    0    0 -0.13692446602E+04 -0.93444703151E+02 -0.43515050563E+03  0.14478641054E+04  0.15294330000E+03 0.  0.
<mgrwt>
<rscale>  0 0.14856483E+04</rscale>
<asrwt>0</asrwt>
<pdfrwt beam="1">  1        2 0.21316544E+00 0.15222920E+04</pdfrwt>
<pdfrwt beam="2">  1       -2 0.27861293E+00 0.15222920E+04</pdfrwt>
<totfact> 0.59509940E-01</totfact>
</mgrwt>
</event>
<event>
 4    5  0.2473208E-007  0.1371290E+04  0.7818608E-02  0.9006318E-01
         -2   -1    0    0    0  501 -0.00000000000E+00  0.00000000000E+00  0.90434702011E+03  0.90434702012E+03  0.25500000000E-02 0.  1.
          2   -1    0    0  501    0  0.00000000000E+00 -0.00000000000E+00 -0.26711395616E+04  0.26711395616E+04  0.25500000000E-02 0. -1.
    8880023    1    1    2    0    0 -0.20941676211E+03  0.11843867115E+04 -0.19135764522E+04  0.23541903719E+04  0.65864270000E+03 0. -1.
    8880022    1    1    2    0    0  0.20941676211E+03 -0.11843867115E+04  0.14678391070E+03  0.12212962098E+04  0.15294330000E+03 0.  0.
<mgrwt>
<rscale>  0 0.13297269E+04</rscale>
<asrwt>0</asrwt>
<pdfrwt beam="1">  1        2 0.41094455E+00 0.13712904E+04</pdfrwt>
<pdfrwt beam="2">  1       -2 0.13913031E+00 0.13712904E+04</pdfrwt>
<totfact> 0.96865540E-01</totfact>
</mgrwt>
</event>
<event>
 4    5  0.2473208E-007  0.9191535E+03  0.7818608E-02  0.9495958E-01
         -2   -1    0    0    0  501 -0.00000000000E+00  0.00000000000E+00  0.10626521870E+04  0.10626521870E+04  0.25500000000E-02 0.  1.
          2   -1    0    0  501    0  0.00000000000E+00 -0.00000000000E+00 -0.18122168976E+04  0.18122168976E+04  0.25500000000E-02 0. -1.
    8880023    1    1    2    0    0 -0.12129889479E+03 -0.62953919849E+03  0.78244740997E+03  0.12070903777E+04  0.65864270000E+03 0.  1.
    8880022    1    1    2    0    0  0.12129889479E+03  0.62953919849E+03 -0.15320121206E+04  0.16677787068E+04  0.15294330000E+03 0.  0.
<mgrwt>
<rscale>  0 0.84582469E+03</rscale>
<asrwt>0</asrwt>
<pdfrwt beam="1">  1        2 0.27880260E+00 0.91915354E+03</pdfrwt>
<pdfrwt beam="2">  1       -2 0.16348495E+00 0.91915354E+03</pdfrwt>
<totfact> 0.20306085E+00</totfact>
</mgrwt>
</event>
<event>
 4    5  0.2473208E-007  0.7483647E+03  0.7818608E-02  0.9836219E-01
          2   -1    0    0  501    0  0.00000000000E+00  0.00000000000E+00  0.43332114993E+03  0.43332114994E+03  0.25500000000E-02 0. -1.
         -2   -1    0    0    0  501 -0.00000000000E+00 -0.00000000000E+00 -0.83586683003E+03  0.83586683003E+03  0.25500000000E-02 0.  1.
    8880023    1    1    2    0    0  0.31448216794E+03 -0.16534968658E+03 -0.45953199670E+03  0.87819099008E+03  0.65864270000E+03 0.  1.
    8880022    1    1    2    0    0 -0.31448216794E+03  0.16534968658E+03  0.56986316607E+02  0.39099698989E+03  0.15294330000E+03 0. -1.
<mgrwt>
<rscale>  0 0.63454548E+03</rscale>
<asrwt>0</asrwt>
<pdfrwt beam="1">  1        2 0.66664793E-01 0.74836472E+03</pdfrwt>
<pdfrwt beam="2">  1       -2 0.12859490E+00 0.74836472E+03</pdfrwt>
<totfact> 0.32808831E+01</totfact>
</mgrwt>
</event>
<event>
 4    5  0.2473208E-007  0.7490484E+03  0.7818608E-02  0.9834332E-01
          2   -1    0    0  501    0  0.00000000000E+00  0.00000000000E+00  0.22347446023E+04  0.22347446023E+04  0.25500000000E-02 0. -1.
         -2   -1    0    0    0  501 -0.00000000000E+00 -0.00000000000E+00 -0.44946104977E+03  0.44946104978E+03  0.25500000000E-02 0.  1.
    8880023    1    1    2    0    0  0.18415564390E+03  0.30553242710E+03 -0.10330988904E+03  0.75613920982E+03  0.65864270000E+03 0.  0.
    8880022    1    1    2    0    0 -0.18415564390E+03 -0.30553242710E+03  0.18885934415E+04  0.19280664422E+04  0.15294330000E+03 0.  0.
<mgrwt>
<rscale>  0 0.63552169E+03</rscale>
<asrwt>0</asrwt>
<pdfrwt beam="1">  1        2 0.34380686E+00 0.74904844E+03</pdfrwt>
<pdfrwt beam="2">  1       -2 0.69147854E-01 0.74904844E+03</pdfrwt>
<totfact> 0.98158108E+00</totfact>
</mgrwt>
</event>
<event>
 4    5  0.2473208E-007  0.9616458E+03  0.7818608E-02  0.9433553E-01
         -2   -1    0    0    0  501 -0.00000000000E+00  0.00000000000E+00  0.10900346893E+04  0.10900346893E+04  0.25500000000E-02 0.  1.
          2   -1    0    0  501    0  0.00000000000E+00 -0.00000000000E+00 -0.14159103345E+04  0.14159103345E+04  0.25500000000E-02 0. -1.
    8880023    1    1    2    0    0  0.69948761645E+03  0.40859002236E+02  0.74544052506E+03  0.12167350436E+04  0.65864270000E+03 0.  0.
    8880022    1    1    2    0    0 -0.69948761645E+03 -0.40859002236E+02 -0.10713161703E+04  0.12892099803E+04  0.15294330000E+03 0.  0.
<mgrwt>
<rscale>  0 0.89365123E+03</rscale>
<asrwt>0</asrwt>
<pdfrwt beam="1">  1        2 0.21783236E+00 0.96164577E+03</pdfrwt>
<pdfrwt beam="2">  1       -2 0.16769764E+00 0.96164577E+03</pdfrwt>
<totfact> 0.31264234E+00</totfact>
</mgrwt>
</event>
<event>
 4    5  0.2473208E-007  0.9521537E+03  0.7818608E-02  0.9447022E-01
          2   -1    0    0  501    0  0.00000000000E+00  0.00000000000E+00  0.12993073115E+04  0.12993073115E+04  0.25500000000E-02 0. -1.
         -2   -1    0    0    0  501 -0.00000000000E+00 -0.00000000000E+00 -0.76780708535E+03  0.76780708536E+03  0.25500000000E-02 0.  1.
    8880023    1    1    2    0    0 -0.22758796458E+03 -0.64883751061E+03  0.86623214893E+03  0.12872275397E+04  0.65864270000E+03 0. -1.
    8880022    1    1    2    0    0  0.22758796458E+03  0.64883751061E+03 -0.33473192282E+03  0.77988685715E+03  0.15294330000E+03 0.  0.
<mgrwt>
<rscale>  0 0.88304935E+03</rscale>
<asrwt>0</asrwt>
<pdfrwt beam="1">  1        2 0.19989343E+00 0.95215367E+03</pdfrwt>
<pdfrwt beam="2">  1       -2 0.11812417E+00 0.95215367E+03</pdfrwt>
<totfact> 0.91168188E+00</totfact>
</mgrwt>
</event>
<event>
 4    5  0.2473208E-007  0.8617939E+03  0.7818608E-02  0.9590380E-01
          2   -1    0    0  501    0  0.00000000000E+00  0.00000000000E+00  0.29204799375E+04  0.29204799375E+04  0.25500000000E-02 0. -1.
         -2   -1    0    0    0  501 -0.00000000000E+00 -0.00000000000E+00 -0.28698921901E+03  0.28698921902E+03  0.25500000000E-02 0.  1.
    8880023    1    1    2    0    0  0.26746022243E+03 -0.48717915148E+03  0.49754107942E+03  0.99510593818E+03  0.65864270000E+03 0. -1.
    8880022    1    1    2    0    0 -0.26746022243E+03  0.48717915148E+03  0.21359496390E+04  0.22123632183E+04  0.15294330000E+03 0.  0.
<mgrwt>
<rscale>  0 0.77936154E+03</rscale>
<asrwt>0</asrwt>
<pdfrwt beam="1">  1        2 0.44930462E+00 0.86179389E+03</pdfrwt>
<pdfrwt beam="2">  1       -2 0.44152186E-01 0.86179389E+03</pdfrwt>
<totfact> 0.98855977E+00</totfact>
</mgrwt>
</event>
<event>
 4    5  0.2473208E-007  0.7656822E+03  0.7818608E-02  0.9790613E-01
         -2   -1    0    0    0  501 -0.00000000000E+00  0.00000000000E+00  0.57903178684E+03  0.57903178685E+03  0.25500000000E-02 0.  1.
          2   -1    0    0  501    0  0.00000000000E+00 -0.00000000000E+00 -0.25363097002E+04  0.25363097002E+04  0.25500000000E-02 0. -1.
    8880023    1    1    2    0    0 -0.10691362519E+03  0.37553761729E+03  0.29783649918E+03  0.82156911563E+03  0.65864270000E+03 0.  0.
    8880022    1    1    2    0    0  0.10691362519E+03 -0.37553761729E+03 -0.22551144126E+04  0.22937723715E+04  0.15294330000E+03 0.  0.
<mgrwt>
<rscale>  0 0.65868750E+03</rscale>
<asrwt>0</asrwt>
<pdfrwt beam="1">  1        2 0.39020148E+00 0.76568220E+03</pdfrwt>
<pdfrwt beam="2">  1       -2 0.89081815E-01 0.76568220E+03</pdfrwt>
<totfact> 0.37613120E+00</totfact>
</mgrwt>
</event>
<event>
 4    5  0.2473208E-007  0.9643722E+03  0.7818608E-02  0.9429730E-01
         -2   -1    0    0    0  501 -0.00000000000E+00  0.00000000000E+00  0.18561248876E+04  0.18561248876E+04  0.25500000000E-02 0.  1.
          2   -1    0    0  501    0  0.00000000000E+00 -0.00000000000E+00 -0.10541988306E+04  0.10541988306E+04  0.25500000000E-02 0. -1.
    8880023    1    1    2    0    0  0.57777195150E+03  0.40296778082E+03  0.15791233453E+04  0.18503092191E+04  0.65864270000E+03 0.  1.
    8880022    1    1    2    0    0 -0.57777195150E+03 -0.40296778082E+03 -0.77719728831E+03  0.10600144991E+04  0.15294330000E+03 0.  0.
<mgrwt>
<rscale>  0 0.89668856E+03</rscale>
<asrwt>0</asrwt>
<pdfrwt beam="1">  1        2 0.16218444E+00 0.96437216E+03</pdfrwt>
<pdfrwt beam="2">  1       -2 0.28555767E+00 0.96437216E+03</pdfrwt>
<totfact> 0.91237517E-01</totfact>
</mgrwt>
</event>
<event>
 4    5  0.2473208E-007  0.6796253E+03  0.7818608E-02  0.1009536E+00
         -2   -1    0    0    0  501 -0.00000000000E+00  0.00000000000E+00  0.34896922478E+03  0.34896922478E+03  0.25500000000E-02 0.  1.
          2   -1    0    0  501    0  0.00000000000E+00 -0.00000000000E+00 -0.29892564103E+04  0.29892564103E+04  0.25500000000E-02 0. -1.
    8880023    1    1    2    0    0  0.33136073274E+02 -0.16426304148E+03  0.85610611414E+01  0.67967922153E+03  0.65864270000E+03 0.  1.
    8880022    1    1    2    0    0 -0.33136073274E+02  0.16426304148E+03 -0.26488482467E+04  0.26585464136E+04  0.15294330000E+03 0.  0.
<mgrwt>
<rscale>  0 0.51659302E+03</rscale>
<asrwt>0</asrwt>
<pdfrwt beam="1">  1        2 0.45988558E+00 0.67962530E+03</pdfrwt>
<pdfrwt beam="2">  1       -2 0.53687575E-01 0.67962530E+03</pdfrwt>
<totfact> 0.62433015E+00</totfact>
</mgrwt>
</event>
<event>
 4    5  0.2473208E-007  0.1265949E+04  0.7818608E-02  0.9095538E-01
         -2   -1    0    0    0  501 -0.00000000000E+00  0.00000000000E+00  0.11168642468E+04  0.11168642468E+04  0.25500000000E-02 0.  1.
          2   -1    0    0  501    0  0.00000000000E+00 -0.00000000000E+00 -0.16259951227E+04  0.16259951227E+04  0.25500000000E-02 0. -1.
    8880023    1    1    2    0    0 -0.33716008442E+03 -0.10271994162E+04  0.39403041050E+03  0.13258528326E+04  0.65864270000E+03 0.  0.
    8880022    1    1    2    0    0  0.33716008442E+03  0.10271994162E+04 -0.90316128638E+03  0.14170065368E+04  0.15294330000E+03 0.  0.
<mgrwt>
<rscale>  0 0.12199893E+04</rscale>
<asrwt>0</asrwt>
<pdfrwt beam="1">  1        2 0.25015310E+00 0.12659486E+04</pdfrwt>
<pdfrwt beam="2">  1       -2 0.17182527E+00 0.12659486E+04</pdfrwt>
<totfact> 0.21509417E+00</totfact>
</mgrwt>
</event>
<event>
 4    5  0.2473208E-007  0.1201779E+04  0.7818608E-02  0.9155395E-01
         -2   -1    0    0    0  501 -0.00000000000E+00  0.00000000000E+00  0.80111701879E+03  0.80111701879E+03  0.25500000000E-02 0.  1.
          2   -1    0    0  501    0  0.00000000000E+00 -0.00000000000E+00 -0.22988206985E+04  0.22988206985E+04  0.25500000000E-02 0. -1.
    8880023    1    1    2    0    0 -0.18727547161E+03  0.98761889975E+03  0.10021183278E+03  0.12059501694E+04  0.65864270000E+03 0.  0.
    8880022    1    1    2    0    0  0.18727547161E+03 -0.98761889975E+03 -0.15979155125E+04  0.18939875479E+04  0.15294330000E+03 0.  0.
<mgrwt>
<rscale>  0 0.11525930E+04</rscale>
<asrwt>0</asrwt>
<pdfrwt beam="1">  1        2 0.35366472E+00 0.12017793E+04</pdfrwt>
<pdfrwt beam="2">  1       -2 0.12324877E+00 0.12017793E+04</pdfrwt>
<totfact> 0.22060094E+00</totfact>
</mgrwt>
</event>
<event>
 4    5  0.2473208E-007  0.1104746E+04  0.7818608E-02  0.9255790E-01
         -2   -1    0    0    0  501 -0.00000000000E+00  0.00000000000E+00  0.43626938071E+03  0.43626938072E+03  0.25500000000E-02 0.  1.
          2   -1    0    0  501    0  0.00000000000E+00 -0.00000000000E+00 -0.34333031040E+04  0.34333031040E+04  0.25500000000E-02 0. -1.
    8880023    1    1    2    0    0 -0.39929084938E+03  0.79197270190E+03 -0.27073545400E+04  0.29240781034E+04  0.65864270000E+03 0.  0.
    8880022    1    1    2    0    0  0.39929084938E+03 -0.79197270190E+03 -0.28967918329E+03  0.94549438137E+03  0.15294330000E+03 0.  0.
<mgrwt>
<rscale>  0 0.10495680E+04</rscale>
<asrwt>0</asrwt>
<pdfrwt beam="1">  1        2 0.52820046E+00 0.11047462E+04</pdfrwt>
<pdfrwt beam="2">  1       -2 0.67118369E-01 0.11047462E+04</pdfrwt>
<totfact> 0.18748658E+00</totfact>
</mgrwt>
</event>
<event>
 4    5  0.2473208E-007  0.1095883E+04  0.7818608E-02  0.9265654E-01
         -2   -1    0    0    0  501 -0.00000000000E+00  0.00000000000E+00  0.16003038130E+04  0.16003038130E+04  0.25500000000E-02 0.  1.
          2   -1    0    0  501    0  0.00000000000E+00 -0.00000000000E+00 -0.85213561410E+03  0.85213561411E+03  0.25500000000E-02 0. -1.
    8880023    1    1    2    0    0 -0.85680782438E+03  0.18173874443E+03  0.10458103542E+04  0.15148195016E+04  0.65864270000E+03 0.  0.
    8880022    1    1    2    0    0  0.85680782438E+03 -0.18173874443E+03 -0.29764215531E+03  0.93761992554E+03  0.15294330000E+03 0.  0.
<mgrwt>
<rscale>  0 0.10400723E+04</rscale>
<asrwt>0</asrwt>
<pdfrwt beam="1">  1        2 0.13109779E+00 0.10958827E+04</pdfrwt>
<pdfrwt beam="2">  1       -2 0.24620059E+00 0.10958827E+04</pdfrwt>
<totfact> 0.21153964E+00</totfact>
</mgrwt>
</event>
<event>
 4    5  0.2473208E-007  0.8066871E+03  0.7818608E-02  0.9696519E-01
          2   -1    0    0  501    0  0.00000000000E+00  0.00000000000E+00  0.42827080824E+03  0.42827080825E+03  0.25500000000E-02 0. -1.
         -2   -1    0    0    0  501 -0.00000000000E+00 -0.00000000000E+00 -0.14128287658E+04  0.14128287658E+04  0.25500000000E-02 0.  1.
    8880023    1    1    2    0    0 -0.44829009863E+03 -0.12637171201E+03 -0.10735549181E+04  0.13428567275E+04  0.65864270000E+03 0.  0.
    8880022    1    1    2    0    0  0.44829009863E+03  0.12637171201E+03  0.88996960550E+02  0.49824284654E+03  0.15294330000E+03 0.  0.
<mgrwt>
<rscale>  0 0.71224400E+03</rscale>
<asrwt>0</asrwt>
<pdfrwt beam="1">  1        2 0.65887817E-01 0.80668707E+03</pdfrwt>
<pdfrwt beam="2">  1       -2 0.21735827E+00 0.80668707E+03</pdfrwt>
<totfact> 0.76779066E+00</totfact>
</mgrwt>
</event>
<event>
 4    5  0.2473208E-007  0.1168870E+04  0.7818608E-02  0.9187993E-01
          2   -1    0    0  501    0  0.00000000000E+00  0.00000000000E+00  0.78226171878E+03  0.78226171879E+03  0.25500000000E-02 0. -1.
         -2   -1    0    0    0  501 -0.00000000000E+00 -0.00000000000E+00 -0.21474386681E+04  0.21474386681E+04  0.25500000000E-02 0.  1.
    8880023    1    1    2    0    0 -0.53348111932E+03  0.80488789242E+03 -0.15432522577E+04  0.19359453404E+04  0.65864270000E+03 0.  1.
    8880022    1    1    2    0    0  0.53348111932E+03 -0.80488789242E+03  0.17807530830E+03  0.99375504652E+03  0.15294330000E+03 0.  0.
<mgrwt>
<rscale>  0 0.11178221E+04</rscale>
<asrwt>0</asrwt>
<pdfrwt beam="1">  1        2 0.12034796E+00 0.11688699E+04</pdfrwt>
<pdfrwt beam="2">  1       -2 0.33037518E+00 0.11688699E+04</pdfrwt>
<totfact> 0.72344431E-01</totfact>
</mgrwt>
</event>
<event>
 4    5  0.2473208E-007  0.1797988E+04  0.7818608E-02  0.8723650E-01
         -2   -1    0    0    0  501 -0.00000000000E+00  0.00000000000E+00  0.42127830781E+04  0.42127830781E+04  0.25500000000E-02 0.  1.
          2   -1    0    0  501    0  0.00000000000E+00 -0.00000000000E+00 -0.11527959745E+04  0.11527959745E+04  0.25500000000E-02 0. -1.
    8880023    1    1    2    0    0  0.84219175181E+03 -0.14455665196E+04  0.32096515560E+04  0.36789431670E+04  0.65864270000E+03 0.  0.
    8880022    1    1    2    0    0 -0.84219175181E+03  0.14455665196E+04 -0.14966445240E+03  0.16866358856E+04  0.15294330000E+03 0.  0.
<mgrwt>
<rscale>  0 0.17677312E+04</rscale>
<asrwt>0</asrwt>
<pdfrwt beam="1">  1        2 0.17735322E+00 0.17979877E+04</pdfrwt>
<pdfrwt beam="2">  1       -2 0.64812048E+00 0.17979877E+04</pdfrwt>
<totfact> 0.61301515E-03</totfact>
</mgrwt>
</event>
<event>
 4    5  0.2473208E-007  0.8381157E+03  0.7818608E-02  0.9633743E-01
         -2   -1    0    0    0  501 -0.00000000000E+00  0.00000000000E+00  0.19937145598E+03  0.19937145599E+03  0.25500000000E-02 0.  1.
          2   -1    0    0  501    0  0.00000000000E+00 -0.00000000000E+00 -0.25578238200E+04  0.25578238200E+04  0.25500000000E-02 0. -1.
    8880023    1    1    2    0    0  0.24735322273E+03  0.45546039120E+03 -0.10638214033E+04  0.13543094068E+04  0.65864270000E+03 0.  0.
    8880022    1    1    2    0    0 -0.24735322273E+03 -0.45546039120E+03 -0.12946309607E+04  0.14028858692E+04  0.15294330000E+03 0.  0.
<mgrwt>
<rscale>  0 0.75102513E+03</rscale>
<asrwt>0</asrwt>
<pdfrwt beam="1">  1        2 0.39351133E+00 0.83811574E+03</pdfrwt>
<pdfrwt beam="2">  1       -2 0.30672533E-01 0.83811574E+03</pdfrwt>
<totfact> 0.32696450E+01</totfact>
</mgrwt>
</event>
<event>
 4    5  0.2473208E-007  0.6891325E+03  0.7818608E-02  0.1004568E+00
         -2   -1    0    0    0  501 -0.00000000000E+00  0.00000000000E+00  0.87674839030E+02  0.87674839067E+02  0.25500000000E-02 0.  1.
          2   -1    0    0  501    0  0.00000000000E+00 -0.00000000000E+00 -0.26370960428E+04  0.26370960428E+04  0.25500000000E-02 0. -1.
    8880023    1    1    2    0    0 -0.75698601773E+02  0.18805082716E+03 -0.16025610925E+04  0.17444499573E+04  0.65864270000E+03 0.  1.
    8880022    1    1    2    0    0  0.75698601773E+02 -0.18805082716E+03 -0.94686011129E+03  0.98032092464E+03  0.15294330000E+03 0. -1.
<mgrwt>
<rscale>  0 0.53691980E+03</rscale>
<asrwt>0</asrwt>
<pdfrwt beam="1">  1        2 0.40570702E+00 0.68913250E+03</pdfrwt>
<pdfrwt beam="2">  1       -2 0.13488439E-01 0.68913250E+03</pdfrwt>
<totfact> 0.12728608E+02</totfact>
</mgrwt>
</event>
<event>
 4    5  0.2473208E-007  0.1116382E+04  0.7818608E-02  0.9243033E-01
          2   -1    0    0  501    0  0.00000000000E+00  0.00000000000E+00  0.70303380407E+03  0.70303380408E+03  0.25500000000E-02 0. -1.
         -2   -1    0    0    0  501 -0.00000000000E+00 -0.00000000000E+00 -0.19523800635E+04  0.19523800635E+04  0.25500000000E-02 0.  1.
    8880023    1    1    2    0    0 -0.28066241908E+03 -0.85657829114E+03 -0.13313548093E+04  0.17374733370E+04  0.65864270000E+03 0.  0.
    8880022    1    1    2    0    0  0.28066241908E+03  0.85657829114E+03  0.82008549890E+02  0.91794053054E+03  0.15294330000E+03 0.  0.
<mgrwt>
<rscale>  0 0.10620088E+04</rscale>
<asrwt>0</asrwt>
<pdfrwt beam="1">  1        2 0.10815905E+00 0.11163816E+04</pdfrwt>
<pdfrwt beam="2">  1       -2 0.30036616E+00 0.11163816E+04</pdfrwt>
<totfact> 0.12771671E+00</totfact>
</mgrwt>
</event>
<event>
 4    5  0.2473208E-007  0.1740256E+04  0.7818608E-02  0.8756325E-01
         -2   -1    0    0    0  501 -0.00000000000E+00  0.00000000000E+00  0.22095060825E+04  0.22095060825E+04  0.25500000000E-02 0.  1.
          2   -1    0    0  501    0  0.00000000000E+00 -0.00000000000E+00 -0.13765109974E+04  0.13765109974E+04  0.25500000000E-02 0. -1.
    8880023    1    1    2    0    0 -0.85796720506E+03 -0.13632951468E+04  0.91451862074E+03  0.19659185884E+04  0.65864270000E+03 0.  0.
    8880022    1    1    2    0    0  0.85796720506E+03  0.13632951468E+04 -0.81523535668E+02  0.16200984915E+04  0.15294330000E+03 0.  0.
<mgrwt>
<rscale>  0 0.17088644E+04</rscale>
<asrwt>0</asrwt>
<pdfrwt beam="1">  1        2 0.21177092E+00 0.17402562E+04</pdfrwt>
<pdfrwt beam="2">  1       -2 0.33992401E+00 0.17402562E+04</pdfrwt>
<totfact> 0.24725922E-01</totfact>
</mgrwt>
</event>
<event>
 4    5  0.2473208E-007  0.7845987E+03  0.7818608E-02  0.9745143E-01
          2   -1    0    0  501    0  0.00000000000E+00  0.00000000000E+00  0.20639621983E+04  0.20639621984E+04  0.25500000000E-02 0. -1.
         -2   -1    0    0    0  501 -0.00000000000E+00 -0.00000000000E+00 -0.34446860366E+03  0.34446860367E+03  0.25500000000E-02 0.  1.
    8880023    1    1    2    0    0 -0.55036072771E+02  0.42279530813E+03  0.18176802835E+03  0.80537858444E+03  0.65864270000E+03 0.  1.
    8880022    1    1    2    0    0  0.55036072771E+02 -0.42279530813E+03  0.15377255663E+04  0.16030522176E+04  0.15294330000E+03 0.  0.
<mgrwt>
<rscale>  0 0.68391420E+03</rscale>
<asrwt>0</asrwt>
<pdfrwt beam="1">  1        2 0.31753265E+00 0.78459865E+03</pdfrwt>
<pdfrwt beam="2">  1       -2 0.52995169E-01 0.78459865E+03</pdfrwt>
<totfact> 0.21294529E+01</totfact>
</mgrwt>
</event>
<event>
 4    5  0.2473208E-007  0.9437729E+03  0.7818608E-02  0.9459131E-01
         -2   -1    0    0    0  501 -0.00000000000E+00  0.00000000000E+00  0.41560398004E+03  0.41560398004E+03  0.25500000000E-02 0.  1.
          2   -1    0    0  501    0  0.00000000000E+00 -0.00000000000E+00 -0.17328562250E+04  0.17328562250E+04  0.25500000000E-02 0. -1.
    8880023    1    1    2    0    0  0.54857161874E+03  0.39492554448E+03 -0.47139438589E+03  0.10549501789E+04  0.65864270000E+03 0.  0.
    8880022    1    1    2    0    0 -0.54857161874E+03 -0.39492554448E+03 -0.84585785905E+03  0.10935100262E+04  0.15294330000E+03 0.  0.
<mgrwt>
<rscale>  0 0.87365186E+03</rscale>
<asrwt>0</asrwt>
<pdfrwt beam="1">  1        2 0.26659326E+00 0.94377286E+03</pdfrwt>
<pdfrwt beam="2">  1       -2 0.63939075E-01 0.94377286E+03</pdfrwt>
<totfact> 0.21390441E+01</totfact>
</mgrwt>
</event>
<event>
 4    5  0.2473208E-007  0.1106392E+04  0.7818608E-02  0.9253973E-01
          2   -1    0    0  501    0  0.00000000000E+00  0.00000000000E+00  0.34981166187E+04  0.34981166187E+04  0.25500000000E-02 0. -1.
         -2   -1    0    0    0  501 -0.00000000000E+00 -0.00000000000E+00 -0.34163252691E+03  0.34163252692E+03  0.25500000000E-02 0.  1.
    8880023    1    1    2    0    0 -0.86206428361E+03 -0.21711142615E+03  0.95839800272E+03  0.14637722290E+04  0.65864270000E+03 0.  0.
    8880022    1    1    2    0    0  0.86206428361E+03  0.21711142615E+03  0.21980860891E+04  0.23759769167E+04  0.15294330000E+03 0.  0.
<mgrwt>
<rscale>  0 0.10513289E+04</rscale>
<asrwt>0</asrwt>
<pdfrwt beam="1">  1        2 0.53817181E+00 0.11063916E+04</pdfrwt>
<pdfrwt beam="2">  1       -2 0.52558848E-01 0.11063916E+04</pdfrwt>
<totfact> 0.28425088E+00</totfact>
</mgrwt>
</event>
<event>
 4    5  0.2473208E-007  0.1092276E+04  0.7818608E-02  0.9269705E-01
         -2   -1    0    0    0  501 -0.00000000000E+00  0.00000000000E+00  0.11943712243E+04  0.11943712243E+04  0.25500000000E-02 0.  1.
          2   -1    0    0  501    0  0.00000000000E+00 -0.00000000000E+00 -0.17496202256E+04  0.17496202256E+04  0.25500000000E-02 0. -1.
    8880023    1    1    2    0    0 -0.75601038775E+03  0.43324957255E+03  0.78005243717E+03  0.13422179069E+04  0.65864270000E+03 0.  1.
    8880022    1    1    2    0    0  0.75601038775E+03 -0.43324957255E+03 -0.13353014385E+04  0.16017735430E+04  0.15294330000E+03 0.  0.
<mgrwt>
<rscale>  0 0.10362038E+04</rscale>
<asrwt>0</asrwt>
<pdfrwt beam="1">  1        2 0.26917234E+00 0.10922761E+04</pdfrwt>
<pdfrwt beam="2">  1       -2 0.18374942E+00 0.10922761E+04</pdfrwt>
<totfact> 0.15459094E+00</totfact>
</mgrwt>
</event>
<event>
 4    5  0.2473208E-007  0.9312778E+03  0.7818608E-02  0.9477579E-01
         -2   -1    0    0    0  501 -0.00000000000E+00  0.00000000000E+00  0.10589556536E+04  0.10589556537E+04  0.25500000000E-02 0.  1.
          2   -1    0    0  501    0  0.00000000000E+00 -0.00000000000E+00 -0.73196034900E+03  0.73196034900E+03  0.25500000000E-02 0. -1.
    8880023    1    1    2    0    0 -0.59730637886E+02 -0.65566786762E+03  0.54707091592E+03  0.10800763376E+04  0.65864270000E+03 0.  0.
    8880022    1    1    2    0    0  0.59730637886E+02  0.65566786762E+03 -0.22007561127E+03  0.71083966506E+03  0.15294330000E+03 0.  0.
<mgrwt>
<rscale>  0 0.85957207E+03</rscale>
<asrwt>0</asrwt>
<pdfrwt beam="1">  1        2 0.11260929E+00 0.93127778E+03</pdfrwt>
<pdfrwt beam="2">  1       -2 0.16291625E+00 0.93127778E+03</pdfrwt>
<totfact> 0.92617624E+00</totfact>
</mgrwt>
</event>
<event>
 4    5  0.2473208E-007  0.1201244E+04  0.7818608E-02  0.9155914E-01
          2   -1    0    0  501    0  0.00000000000E+00  0.00000000000E+00  0.21441427742E+04  0.21441427742E+04  0.25500000000E-02 0. -1.
         -2   -1    0    0    0  501 -0.00000000000E+00 -0.00000000000E+00 -0.16835250561E+04  0.16835250561E+04  0.25500000000E-02 0.  1.
    8880023    1    1    2    0    0 -0.26013559542E+03 -0.97031203569E+03 -0.13154831014E+04  0.17814269480E+04  0.65864270000E+03 0.  1.
    8880022    1    1    2    0    0  0.26013559542E+03  0.97031203569E+03  0.17761008195E+04  0.20462408824E+04  0.15294330000E+03 0.  0.
<mgrwt>
<rscale>  0 0.11520282E+04</rscale>
<asrwt>0</asrwt>
<pdfrwt beam="1">  1        2 0.32986812E+00 0.12012436E+04</pdfrwt>
<pdfrwt beam="2">  1       -2 0.25900386E+00 0.12012436E+04</pdfrwt>
<totfact> 0.30602313E-01</totfact>
</mgrwt>
</event>
<event>
 4    5  0.2473208E-007  0.1055580E+04  0.7818608E-02  0.9312204E-01
         -2   -1    0    0    0  501 -0.00000000000E+00  0.00000000000E+00  0.85858736081E+03  0.85858736081E+03  0.25500000000E-02 0.  1.
          2   -1    0    0  501    0  0.00000000000E+00 -0.00000000000E+00 -0.12571116710E+04  0.12571116710E+04  0.25500000000E-02 0. -1.
    8880023    1    1    2    0    0 -0.65753350662E+03  0.49808469924E+03 -0.65026702721E+03  0.12397967950E+04  0.65864270000E+03 0. -1.
    8880022    1    1    2    0    0  0.65753350662E+03 -0.49808469924E+03  0.25174271699E+03  0.87590223685E+03  0.15294330000E+03 0.  0.
<mgrwt>
<rscale>  0 0.99667101E+03</rscale>
<asrwt>0</asrwt>
<pdfrwt beam="1">  1        2 0.19340180E+00 0.10555799E+04</pdfrwt>
<pdfrwt beam="2">  1       -2 0.13209036E+00 0.10555799E+04</pdfrwt>
<totfact> 0.72095371E+00</totfact>
</mgrwt>
</event>
<event>
 4    5  0.2473208E-007  0.7717655E+03  0.7818608E-02  0.9775548E-01
         -2   -1    0    0    0  501 -0.00000000000E+00  0.00000000000E+00  0.19351380215E+03  0.19351380217E+03  0.25500000000E-02 0.  1.
          2   -1    0    0  501    0  0.00000000000E+00 -0.00000000000E+00 -0.20903174947E+04  0.20903174947E+04  0.25500000000E-02 0. -1.
    8880023    1    1    2    0    0 -0.14966027736E+03 -0.37338125366E+03 -0.82934693831E+03  0.11328893633E+04  0.65864270000E+03 0.  0.
    8880022    1    1    2    0    0  0.14966027736E+03  0.37338125366E+03 -0.10674567543E+04  0.11509419336E+04  0.15294330000E+03 0.  1.
<mgrwt>
<rscale>  0 0.66691447E+03</rscale>
<asrwt>0</asrwt>
<pdfrwt beam="1">  1        2 0.32158729E+00 0.77176549E+03</pdfrwt>
<pdfrwt beam="2">  1       -2 0.29771356E-01 0.77176549E+03</pdfrwt>
<totfact> 0.63581966E+01</totfact>
</mgrwt>
</event>
<event>
 4    5  0.2473208E-007  0.6880997E+03  0.7818608E-02  0.1005069E+00
         -2   -1    0    0    0  501 -0.00000000000E+00  0.00000000000E+00  0.14276091871E+04  0.14276091871E+04  0.25500000000E-02 0.  1.
          2   -1    0    0  501    0  0.00000000000E+00 -0.00000000000E+00 -0.87649678468E+03  0.87649678468E+03  0.25500000000E-02 0. -1.
    8880023    1    1    2    0    0  0.59873975248E+02  0.18996334861E+03  0.13236264238E+04  0.14918002824E+04  0.65864270000E+03 0.  1.
    8880022    1    1    2    0    0 -0.59873975248E+02 -0.18996334861E+03 -0.77251402136E+03  0.81230568934E+03  0.15294330000E+03 0.  0.
<mgrwt>
<rscale>  0 0.53482293E+03</rscale>
<asrwt>0</asrwt>
<pdfrwt beam="1">  1        2 0.13484566E+00 0.68809968E+03</pdfrwt>
<pdfrwt beam="2">  1       -2 0.21963218E+00 0.68809968E+03</pdfrwt>
<totfact> 0.31322347E+00</totfact>
</mgrwt>
</event>
<event>
 4    5  0.2473208E-007  0.1539858E+04  0.7818608E-02  0.8881992E-01
         -2   -1    0    0    0  501 -0.00000000000E+00  0.00000000000E+00  0.82430177202E+03  0.82430177203E+03  0.25500000000E-02 0.  1.
          2   -1    0    0  501    0  0.00000000000E+00 -0.00000000000E+00 -0.36629498891E+04  0.36629498891E+04  0.25500000000E-02 0. -1.
    8880023    1    1    2    0    0  0.60335481247E+03 -0.12543190964E+04 -0.27230483690E+03  0.15637498380E+04  0.65864270000E+03 0.  1.
    8880022    1    1    2    0    0 -0.60335481247E+03  0.12543190964E+04 -0.25663432802E+04  0.29235018232E+04  0.15294330000E+03 0.  0.
<mgrwt>
<rscale>  0 0.15037070E+04</rscale>
<asrwt>0</asrwt>
<pdfrwt beam="1">  1        2 0.56353074E+00 0.15398583E+04</pdfrwt>
<pdfrwt beam="2">  1       -2 0.12681566E+00 0.15398583E+04</pdfrwt>
<totfact> 0.27425033E-01</totfact>
</mgrwt>
</event>
<event>
 4    5  0.2473208E-007  0.7555523E+03  0.7818608E-02  0.9816761E-01
          2   -1    0    0  501    0  0.00000000000E+00  0.00000000000E+00  0.35877814006E+04  0.35877814006E+04  0.25500000000E-02 0. -1.
         -2   -1    0    0    0  501 -0.00000000000E+00 -0.00000000000E+00 -0.24332122782E+03  0.24332122783E+03  0.25500000000E-02 0.  1.
    8880023    1    1    2    0    0 -0.33472669627E+03  0.15813642578E+03  0.39123445490E+03  0.85083705568E+03  0.65864270000E+03 0.  1.
    8880022    1    1    2    0    0  0.33472669627E+03 -0.15813642578E+03  0.29532257179E+04  0.29802655728E+04  0.15294330000E+03 0.  0.
<mgrwt>
<rscale>  0 0.64470752E+03</rscale>
<asrwt>0</asrwt>
<pdfrwt beam="1">  1        2 0.55196636E+00 0.75555231E+03</pdfrwt>
<pdfrwt beam="2">  1       -2 0.37434035E-01 0.75555231E+03</pdfrwt>
<totfact> 0.51475763E+00</totfact>
</mgrwt>
</event>
<event>
 4    5  0.2473208E-007  0.1171907E+04  0.7818608E-02  0.9184927E-01
          2   -1    0    0  501    0  0.00000000000E+00  0.00000000000E+00  0.18894715230E+04  0.18894715230E+04  0.25500000000E-02 0. -1.
         -2   -1    0    0    0  501 -0.00000000000E+00 -0.00000000000E+00 -0.66311318653E+03  0.66311318653E+03  0.25500000000E-02 0.  1.
    8880023    1    1    2    0    0 -0.95322426571E+03  0.17583643208E+03  0.10114481531E+04  0.15480285928E+04  0.65864270000E+03 0.  0.
    8880022    1    1    2    0    0  0.95322426571E+03 -0.17583643208E+03  0.21491018335E+03  0.10045561167E+04  0.15294330000E+03 0.  0.
<mgrwt>
<rscale>  0 0.11210372E+04</rscale>
<asrwt>0</asrwt>
<pdfrwt beam="1">  1        2 0.29068793E+00 0.11719066E+04</pdfrwt>
<pdfrwt beam="2">  1       -2 0.10201741E+00 0.11719066E+04</pdfrwt>
<totfact> 0.59452073E+00</totfact>
</mgrwt>
</event>
<event>
 4    5  0.2473208E-007  0.8318476E+03  0.7818608E-02  0.9645748E-01
         -2   -1    0    0    0  501 -0.00000000000E+00  0.00000000000E+00  0.14383137027E+04  0.14383137027E+04  0.25500000000E-02 0.  1.
          2   -1    0    0  501    0  0.00000000000E+00 -0.00000000000E+00 -0.82470043526E+03  0.82470043527E+03  0.25500000000E-02 0. -1.
    8880023    1    1    2    0    0 -0.36484667463E+02 -0.50678301997E+03  0.12077020275E+04  0.14664632807E+04  0.65864270000E+03 0.  1.
    8880022    1    1    2    0    0  0.36484667463E+02  0.50678301997E+03 -0.59408876007E+03  0.79655085722E+03  0.15294330000E+03 0.  0.
<mgrwt>
<rscale>  0 0.74340864E+03</rscale>
<asrwt>0</asrwt>
<pdfrwt beam="1">  1        2 0.12687699E+00 0.83184756E+03</pdfrwt>
<pdfrwt beam="2">  1       -2 0.22127903E+00 0.83184756E+03</pdfrwt>
<totfact> 0.32540900E+00</totfact>
</mgrwt>
</event>
<event>
 4    5  0.2473208E-007  0.7252236E+03  0.7818608E-02  0.9905292E-01
         -2   -1    0    0    0  501 -0.00000000000E+00  0.00000000000E+00  0.54957530567E+03  0.54957530568E+03  0.25500000000E-02 0.  1.
          2   -1    0    0  501    0  0.00000000000E+00 -0.00000000000E+00 -0.24319125332E+04  0.24319125332E+04  0.25500000000E-02 0. -1.
    8880023    1    1    2    0    0  0.16540132679E+03 -0.25452197384E+03  0.29122326059E+03  0.78151150205E+03  0.65864270000E+03 0.  1.
    8880022    1    1    2    0    0 -0.16540132679E+03  0.25452197384E+03 -0.21735604881E+04  0.21999763368E+04  0.15294330000E+03 0.  0.
<mgrwt>
<rscale>  0 0.60005507E+03</rscale>
<asrwt>0</asrwt>
<pdfrwt beam="1">  1        2 0.37414038E+00 0.72522358E+03</pdfrwt>
<pdfrwt beam="2">  1       -2 0.84550048E-01 0.72522358E+03</pdfrwt>
<totfact> 0.48920054E+00</totfact>
</mgrwt>
</event>
<event>
 4    5  0.2473208E-007  0.7026167E+03  0.7818608E-02  0.9986514E-01
          2   -1    0    0  501    0  0.00000000000E+00  0.00000000000E+00  0.11564030096E+04  0.11564030096E+04  0.25500000000E-02 0. -1.
         -2   -1    0    0    0  501 -0.00000000000E+00 -0.00000000000E+00 -0.31278593424E+03  0.31278593425E+03  0.25500000000E-02 0.  1.
    8880023    1    1    2    0    0 -0.17833331889E+03  0.16750308653E+03  0.15069680809E+03  0.71859570751E+03  0.65864270000E+03 0.  1.
    8880022    1    1    2    0    0  0.17833331889E+03 -0.16750308653E+03  0.69292026728E+03  0.75059323634E+03  0.15294330000E+03 0. -1.
<mgrwt>
<rscale>  0 0.56245529E+03</rscale>
<asrwt>0</asrwt>
<pdfrwt beam="1">  1        2 0.17790816E+00 0.70261673E+03</pdfrwt>
<pdfrwt beam="2">  1       -2 0.48120913E-01 0.70261673E+03</pdfrwt>
<totfact> 0.83937554E+01</totfact>
</mgrwt>
</event>
<event>
 4    5  0.2473208E-007  0.1136920E+04  0.7818608E-02  0.9221023E-01
         -2   -1    0    0    0  501 -0.00000000000E+00  0.00000000000E+00  0.95191010576E+03  0.95191010576E+03  0.25500000000E-02 0.  1.
          2   -1    0    0  501    0  0.00000000000E+00 -0.00000000000E+00 -0.16376421541E+04  0.16376421541E+04  0.25500000000E-02 0. -1.
    8880023    1    1    2    0    0  0.78763092171E+03 -0.48827601490E+03  0.35173553928E+03  0.11900857244E+04  0.65864270000E+03 0.  0.
    8880022    1    1    2    0    0 -0.78763092171E+03  0.48827601490E+03 -0.10374675877E+04  0.13994665355E+04  0.15294330000E+03 0.  0.
<mgrwt>
<rscale>  0 0.10839049E+04</rscale>
<asrwt>0</asrwt>
<pdfrwt beam="1">  1        2 0.25194495E+00 0.11369196E+04</pdfrwt>
<pdfrwt beam="2">  1       -2 0.14644771E+00 0.11369196E+04</pdfrwt>
<totfact> 0.33191230E+00</totfact>
</mgrwt>
</event>
<event>
 4    5  0.2473208E-007  0.7158287E+03  0.7818608E-02  0.9936961E-01
          2   -1    0    0  501    0  0.00000000000E+00  0.00000000000E+00  0.21637727543E+04  0.21637727543E+04  0.25500000000E-02 0. -1.
         -2   -1    0    0    0  501 -0.00000000000E+00 -0.00000000000E+00 -0.13860638251E+03  0.13860638254E+03  0.25500000000E-02 0.  1.
    8880023    1    1    2    0    0  0.23342824855E+03 -0.15527961357E+03  0.10084287826E+04  0.12366645954E+04  0.65864270000E+03 0.  1.
    8880022    1    1    2    0    0 -0.23342824855E+03  0.15527961357E+03  0.10167375892E+04  0.10657145414E+04  0.15294330000E+03 0.  0.
<mgrwt>
<rscale>  0 0.58502937E+03</rscale>
<asrwt>0</asrwt>
<pdfrwt beam="1">  1        2 0.33288810E+00 0.71582869E+03</pdfrwt>
<pdfrwt beam="2">  1       -2 0.21324060E-01 0.71582869E+03</pdfrwt>
<totfact> 0.10658407E+02</totfact>
</mgrwt>
</event>
<event>
 4    5  0.2473208E-007  0.9207503E+03  0.7818608E-02  0.9493509E-01
          2   -1    0    0  501    0  0.00000000000E+00  0.00000000000E+00  0.14948452969E+04  0.14948452969E+04  0.25500000000E-02 0. -1.
         -2   -1    0    0    0  501 -0.00000000000E+00 -0.00000000000E+00 -0.50932949782E+03  0.50932949782E+03  0.25500000000E-02 0.  1.
    8880023    1    1    2    0    0  0.88728396787E+02  0.63725837662E+03  0.14092942402E+03  0.93147317502E+03  0.65864270000E+03 0.  1.
    8880022    1    1    2    0    0 -0.88728396787E+02 -0.63725837662E+03  0.84458637509E+03  0.10727016197E+04  0.15294330000E+03 0.  0.
<mgrwt>
<rscale>  0 0.84764035E+03</rscale>
<asrwt>0</asrwt>
<pdfrwt beam="1">  1        2 0.22997619E+00 0.92075033E+03</pdfrwt>
<pdfrwt beam="2">  1       -2 0.78358386E-01 0.92075033E+03</pdfrwt>
<totfact> 0.18595631E+01</totfact>
</mgrwt>
</event>
<event>
 4    5  0.2473208E-007  0.9358550E+03  0.7818608E-02  0.9470765E-01
         -2   -1    0    0    0  501 -0.00000000000E+00  0.00000000000E+00  0.41474552280E+03  0.41474552281E+03  0.25500000000E-02 0.  1.
          2   -1    0    0  501    0  0.00000000000E+00 -0.00000000000E+00 -0.44270460296E+04  0.44270460296E+04  0.25500000000E-02 0. -1.
    8880023    1    1    2    0    0 -0.54750143313E+03 -0.37716916332E+03 -0.18474649585E+03  0.95391607127E+03  0.65864270000E+03 0.  1.
    8880022    1    1    2    0    0  0.54750143313E+03  0.37716916332E+03 -0.38275540110E+04  0.38878754811E+04  0.15294330000E+03 0.  0.
<mgrwt>
<rscale>  0 0.86473977E+03</rscale>
<asrwt>0</asrwt>
<pdfrwt beam="1">  1        2 0.68108397E+00 0.93585501E+03</pdfrwt>
<pdfrwt beam="2">  1       -2 0.63807007E-01 0.93585501E+03</pdfrwt>
<totfact> 0.35742345E-01</totfact>
</mgrwt>
</event>
<event>
 4    5  0.2473208E-007  0.7985693E+03  0.7818608E-02  0.9713898E-01
          2   -1    0    0  501    0  0.00000000000E+00  0.00000000000E+00  0.14537579186E+04  0.14537579186E+04  0.25500000000E-02 0. -1.
         -2   -1    0    0    0  501 -0.00000000000E+00 -0.00000000000E+00 -0.77378186529E+03  0.77378186529E+03  0.25500000000E-02 0.  1.
    8880023    1    1    2    0    0 -0.26685350094E+03 -0.36426907780E+03 -0.50869206673E+03  0.94682658234E+03  0.65864270000E+03 0.  1.
    8880022    1    1    2    0    0  0.26685350094E+03  0.36426907780E+03  0.11886681201E+04  0.12807132016E+04  0.15294330000E+03 0.  0.
<mgrwt>
<rscale>  0 0.70195304E+03</rscale>
<asrwt>0</asrwt>
<pdfrwt beam="1">  1        2 0.22365506E+00 0.79856932E+03</pdfrwt>
<pdfrwt beam="2">  1       -2 0.11904337E+00 0.79856932E+03</pdfrwt>
<totfact> 0.74310055E+00</totfact>
</mgrwt>
</event>
<event>
 4    5  0.2473208E-007  0.8030131E+03  0.7818608E-02  0.9704319E-01
         -2   -1    0    0    0  501 -0.00000000000E+00  0.00000000000E+00  0.89949340471E+03  0.89949340471E+03  0.25500000000E-02 0.  1.
          2   -1    0    0  501    0  0.00000000000E+00 -0.00000000000E+00 -0.82500691182E+03  0.82500691183E+03  0.25500000000E-02 0. -1.
    8880023    1    1    2    0    0  0.18315150182E+02  0.45900363088E+03  0.60563865878E+03  0.10057972803E+04  0.65864270000E+03 0.  0.
    8880022    1    1    2    0    0 -0.18315150182E+02 -0.45900363088E+03 -0.53115216589E+03  0.71870303619E+03  0.15294330000E+03 0.  0.
<mgrwt>
<rscale>  0 0.70760242E+03</rscale>
<asrwt>0</asrwt>
<pdfrwt beam="1">  1        2 0.12692414E+00 0.80301307E+03</pdfrwt>
<pdfrwt beam="2">  1       -2 0.13838360E+00 0.80301307E+03</pdfrwt>
<totfact> 0.12357632E+01</totfact>
</mgrwt>
</event>
<event>
 4    5  0.2473208E-007  0.9350374E+03  0.7818608E-02  0.9471977E-01
          2   -1    0    0  501    0  0.00000000000E+00  0.00000000000E+00  0.24495150284E+04  0.24495150284E+04  0.25500000000E-02 0. -1.
         -2   -1    0    0    0  501 -0.00000000000E+00 -0.00000000000E+00 -0.46917577584E+03  0.46917577584E+03  0.25500000000E-02 0.  1.
    8880023    1    1    2    0    0 -0.28815976294E+03 -0.59787006169E+03  0.12632290964E+03  0.94353184546E+03  0.65864270000E+03 0.  1.
    8880022    1    1    2    0    0  0.28815976294E+03  0.59787006169E+03  0.18540163430E+04  0.19751589588E+04  0.15294330000E+03 0.  0.
<mgrwt>
<rscale>  0 0.86381750E+03</rscale>
<asrwt>0</asrwt>
<pdfrwt beam="1">  1        2 0.37684846E+00 0.93503736E+03</pdfrwt>
<pdfrwt beam="2">  1       -2 0.72180889E-01 0.93503736E+03</pdfrwt>
<totfact> 0.65914213E+00</totfact>
</mgrwt>
</event>
<event>
 4    5  0.2473208E-007  0.1360779E+04  0.7818608E-02  0.9014774E-01
          2   -1    0    0  501    0  0.00000000000E+00  0.00000000000E+00  0.19868777235E+04  0.19868777235E+04  0.25500000000E-02 0. -1.
         -2   -1    0    0    0  501 -0.00000000000E+00 -0.00000000000E+00 -0.11621947004E+04  0.11621947004E+04  0.25500000000E-02 0.  1.
    8880023    1    1    2    0    0  0.25817690960E+03 -0.11624342396E+04 -0.41569004775E+03  0.14228552632E+04  0.65864270000E+03 0.  0.
    8880022    1    1    2    0    0 -0.25817690960E+03  0.11624342396E+04  0.12403730708E+04  0.17262171607E+04  0.15294330000E+03 0.  0.
<mgrwt>
<rscale>  0 0.13188183E+04</rscale>
<asrwt>0</asrwt>
<pdfrwt beam="1">  1        2 0.30567350E+00 0.13607788E+04</pdfrwt>
<pdfrwt beam="2">  1       -2 0.17879918E+00 0.13607788E+04</pdfrwt>
<totfact> 0.11985540E+00</totfact>
</mgrwt>
</event>
<event>
 4    5  0.2473208E-007  0.8941022E+03  0.7818608E-02  0.9535567E-01
         -2   -1    0    0    0  501 -0.00000000000E+00  0.00000000000E+00  0.65691850747E+03  0.65691850748E+03  0.25500000000E-02 0.  1.
          2   -1    0    0  501    0  0.00000000000E+00 -0.00000000000E+00 -0.11146322706E+04  0.11146322706E+04  0.25500000000E-02 0. -1.
    8880023    1    1    2    0    0 -0.16376277477E+03  0.58205693449E+03  0.14316711864E+03  0.90549188374E+03  0.65864270000E+03 0.  0.
    8880022    1    1    2    0    0  0.16376277477E+03 -0.58205693449E+03 -0.60088088180E+03  0.86605889437E+03  0.15294330000E+03 0.  0.
<mgrwt>
<rscale>  0 0.81711671E+03</rscale>
<asrwt>0</asrwt>
<pdfrwt beam="1">  1        2 0.17148189E+00 0.89410219E+03</pdfrwt>
<pdfrwt beam="2">  1       -2 0.10106439E+00 0.89410219E+03</pdfrwt>
<totfact> 0.17242692E+01</totfact>
</mgrwt>
</event>
<event>
 4    5  0.2473208E-007  0.7272473E+03  0.7818608E-02  0.9898785E-01
          2   -1    0    0  501    0  0.00000000000E+00  0.00000000000E+00  0.22432951398E+04  0.22432951398E+04  0.25500000000E-02 0. -1.
         -2   -1    0    0    0  501 -0.00000000000E+00 -0.00000000000E+00 -0.28029791763E+03  0.28029791764E+03  0.25500000000E-02 0.  1.
    8880023    1    1    2    0    0  0.15214965676E+03  0.26819563555E+03  0.23891056589E+03  0.76548473645E+03  0.65864270000E+03 0.  1.
    8880022    1    1    2    0    0 -0.15214965676E+03 -0.26819563555E+03  0.17240866563E+04  0.17581083210E+04  0.15294330000E+03 0.  0.
<mgrwt>
<rscale>  0 0.60320185E+03</rscale>
<asrwt>0</asrwt>
<pdfrwt beam="1">  1        2 0.34512232E+00 0.72724729E+03</pdfrwt>
<pdfrwt beam="2">  1       -2 0.43122757E-01 0.72724729E+03</pdfrwt>
<totfact> 0.25928302E+01</totfact>
</mgrwt>
</event>
<event>
 4    5  0.2473208E-007  0.1069262E+04  0.7818608E-02  0.9296076E-01
          2   -1    0    0  501    0  0.00000000000E+00  0.00000000000E+00  0.14809791894E+04  0.14809791894E+04  0.25500000000E-02 0. -1.
         -2   -1    0    0    0  501 -0.00000000000E+00 -0.00000000000E+00 -0.14120229851E+04  0.14120229851E+04  0.25500000000E-02 0.  1.
    8880023    1    1    2    0    0  0.29999338408E+03  0.78709308930E+03 -0.10402858963E+04  0.14918165149E+04  0.65864270000E+03 0.  0.
    8880022    1    1    2    0    0 -0.29999338408E+03 -0.78709308930E+03  0.11092421007E+04  0.14011856596E+04  0.15294330000E+03 0.  0.
<mgrwt>
<rscale>  0 0.10114490E+04</rscale>
<asrwt>0</asrwt>
<pdfrwt beam="1">  1        2 0.22784295E+00 0.10692623E+04</pdfrwt>
<pdfrwt beam="2">  1       -2 0.21723430E+00 0.10692623E+04</pdfrwt>
<totfact> 0.13199200E+00</totfact>
</mgrwt>
</event>
<event>
 4    5  0.2473208E-007  0.8118391E+03  0.7818608E-02  0.9685759E-01
         -2   -1    0    0    0  501 -0.00000000000E+00  0.00000000000E+00  0.19619763766E+03  0.19619763767E+03  0.25500000000E-02 0.  1.
          2   -1    0    0  501    0  0.00000000000E+00 -0.00000000000E+00 -0.28515835280E+04  0.28515835280E+04  0.25500000000E-02 0. -1.
    8880023    1    1    2    0    0  0.46467609904E+03 -0.96688226492E+02 -0.85255568192E+03  0.11772569334E+04  0.65864270000E+03 0.  0.
    8880022    1    1    2    0    0 -0.46467609904E+03  0.96688226492E+02 -0.18028302084E+04  0.18705242323E+04  0.15294330000E+03 0.  0.
<mgrwt>
<rscale>  0 0.71871070E+03</rscale>
<asrwt>0</asrwt>
<pdfrwt beam="1">  1        2 0.43870513E+00 0.81183908E+03</pdfrwt>
<pdfrwt beam="2">  1       -2 0.30184254E-01 0.81183908E+03</pdfrwt>
<totfact> 0.22769535E+01</totfact>
</mgrwt>
</event>
<event>
 4    5  0.2473208E-007  0.1843587E+04  0.7818608E-02  0.8698801E-01
          2   -1    0    0  501    0  0.00000000000E+00  0.00000000000E+00  0.30332173168E+04  0.30332173168E+04  0.25500000000E-02 0. -1.
         -2   -1    0    0    0  501 -0.00000000000E+00 -0.00000000000E+00 -0.11564372000E+04  0.11564372000E+04  0.25500000000E-02 0.  1.
    8880023    1    1    2    0    0 -0.25017720310E+03 -0.17036471664E+04  0.15957069911E+04  0.24382562024E+04  0.65864270000E+03 0.  0.
    8880022    1    1    2    0    0  0.25017720310E+03  0.17036471664E+04  0.28107312563E+03  0.17513983144E+04  0.15294330000E+03 0.  0.
<mgrwt>
<rscale>  0 0.18141677E+04</rscale>
<asrwt>0</asrwt>
<pdfrwt beam="1">  1        2 0.46664882E+00 0.18435869E+04</pdfrwt>
<pdfrwt beam="2">  1       -2 0.17791342E+00 0.18435869E+04</pdfrwt>
<totfact> 0.28318911E-01</totfact>
</mgrwt>
</event>
<event>
 4    5  0.2473208E-007  0.9474094E+03  0.7818608E-02  0.9453851E-01
         -2   -1    0    0    0  501 -0.00000000000E+00  0.00000000000E+00  0.60089641802E+03  0.60089641803E+03  0.25500000000E-02 0.  1.
          2   -1    0    0  501    0  0.00000000000E+00 -0.00000000000E+00 -0.25754652527E+04  0.25754652527E+04  0.25500000000E-02 0. -1.
    8880023    1    1    2    0    0 -0.66559989714E+03  0.14405238135E+03 -0.22380451608E+04  0.24303149301E+04  0.65864270000E+03 0.  0.
    8880022    1    1    2    0    0  0.66559989714E+03 -0.14405238135E+03  0.26347632615E+03  0.74604674056E+03  0.15294330000E+03 0.  0.
<mgrwt>
<rscale>  0 0.87773391E+03</rscale>
<asrwt>0</asrwt>
<pdfrwt beam="1">  1        2 0.39622542E+00 0.94740937E+03</pdfrwt>
<pdfrwt beam="2">  1       -2 0.92445604E-01 0.94740937E+03</pdfrwt>
<totfact> 0.31818061E+00</totfact>
</mgrwt>
</event>
<event>
 4    5  0.2473208E-007  0.1257804E+04  0.7818608E-02  0.9102883E-01
         -2   -1    0    0    0  501 -0.00000000000E+00  0.00000000000E+00  0.89173020029E+03  0.89173020029E+03  0.25500000000E-02 0.  1.
          2   -1    0    0  501    0  0.00000000000E+00 -0.00000000000E+00 -0.19076976071E+04  0.19076976071E+04  0.25500000000E-02 0. -1.
    8880023    1    1    2    0    0 -0.62881005678E+03 -0.86767455337E+03  0.78311842847E+02  0.12602397268E+04  0.65864270000E+03 0.  0.
    8880022    1    1    2    0    0  0.62881005678E+03  0.86767455337E+03 -0.10942792496E+04  0.15391880805E+04  0.15294330000E+03 0.  0.
<mgrwt>
<rscale>  0 0.12114616E+04</rscale>
<asrwt>0</asrwt>
<pdfrwt beam="1">  1        2 0.29349194E+00 0.12578042E+04</pdfrwt>
<pdfrwt beam="2">  1       -2 0.13718926E+00 0.12578042E+04</pdfrwt>
<totfact> 0.27556174E+00</totfact>
</mgrwt>
</event>
<event>
 4    5  0.2473208E-007  0.8871010E+03  0.7818608E-02  0.9547064E-01
          2   -1    0    0  501    0  0.00000000000E+00  0.00000000000E+00  0.10556912079E+04  0.10556912079E+04  0.25500000000E-02 0. -1.
         -2   -1    0    0    0  501 -0.00000000000E+00 -0.00000000000E+00 -0.14537650348E+04  0.14537650348E+04  0.25500000000E-02 0.  1.
    8880023    1    1    2    0    0  0.64696756125E+02 -0.59072178830E+03 -0.12046259137E+04  0.14960186160E+04  0.65864270000E+03 0.  0.
    8880022    1    1    2    0    0 -0.64696756125E+02  0.59072178830E+03  0.80655208677E+03  0.10134376267E+04  0.15294330000E+03 0.  0.
<mgrwt>
<rscale>  0 0.80901145E+03</rscale>
<asrwt>0</asrwt>
<pdfrwt beam="1">  1        2 0.16241403E+00 0.88710096E+03</pdfrwt>
<pdfrwt beam="2">  1       -2 0.22365616E+00 0.88710096E+03</pdfrwt>
<totfact> 0.21938522E+00</totfact>
</mgrwt>
</event>
<event>
 4    5  0.2473208E-007  0.7156205E+03  0.7818608E-02  0.9937693E-01
         -2   -1    0    0    0  501 -0.00000000000E+00  0.00000000000E+00  0.57351973511E+03  0.57351973512E+03  0.25500000000E-02 0.  1.
          2   -1    0    0  501    0  0.00000000000E+00 -0.00000000000E+00 -0.13165605897E+04  0.13165605897E+04  0.25500000000E-02 0. -1.
    8880023    1    1    2    0    0 -0.27533763879E+03 -0.49916790203E+02  0.31730993289E+03  0.78281434648E+03  0.65864270000E+03 0.  1.
    8880022    1    1    2    0    0  0.27533763879E+03  0.49916790203E+02 -0.10603507875E+04  0.11072659783E+04  0.15294330000E+03 0.  0.
<mgrwt>
<rscale>  0 0.58468787E+03</rscale>
<asrwt>0</asrwt>
<pdfrwt beam="1">  1        2 0.20254778E+00 0.71562051E+03</pdfrwt>
<pdfrwt beam="2">  1       -2 0.88233806E-01 0.71562051E+03</pdfrwt>
<totfact> 0.18335408E+01</totfact>
</mgrwt>
</event>
<event>
 4    5  0.2473208E-007  0.1128848E+04  0.7818608E-02  0.9229597E-01
         -2   -1    0    0    0  501 -0.00000000000E+00  0.00000000000E+00  0.25424355843E+04  0.25424355844E+04  0.25500000000E-02 0.  1.
          2   -1    0    0  501    0  0.00000000000E+00 -0.00000000000E+00 -0.51151234372E+03  0.51151234373E+03  0.25500000000E-02 0. -1.
    8880023    1    1    2    0    0 -0.49427601430E+03 -0.77212666576E+03  0.17508558266E+04  0.20832173909E+04  0.65864270000E+03 0.  0.
    8880022    1    1    2    0    0  0.49427601430E+03  0.77212666576E+03  0.28006741407E+03  0.97073053713E+03  0.15294330000E+03 0.  0.
<mgrwt>
<rscale>  0 0.10753092E+04</rscale>
<asrwt>0</asrwt>
<pdfrwt beam="1">  1        2 0.78694207E-01 0.11288483E+04</pdfrwt>
<pdfrwt beam="2">  1       -2 0.39114393E+00 0.11288483E+04</pdfrwt>
<totfact> 0.50942007E-01</totfact>
</mgrwt>
</event>
<event>
 4    5  0.2473208E-007  0.7513960E+03  0.7818608E-02  0.9827914E-01
         -2   -1    0    0    0  501 -0.00000000000E+00  0.00000000000E+00  0.99487670827E+03  0.99487670828E+03  0.25500000000E-02 0.  1.
          2   -1    0    0  501    0  0.00000000000E+00 -0.00000000000E+00 -0.16559316318E+04  0.16559316318E+04  0.25500000000E-02 0. -1.
    8880023    1    1    2    0    0 -0.26918216308E+03  0.24150937867E+03  0.82374494979E+03  0.11149671589E+04  0.65864270000E+03 0.  1.
    8880022    1    1    2    0    0  0.26918216308E+03 -0.24150937867E+03 -0.14847998733E+04  0.15358411812E+04  0.15294330000E+03 0.  0.
<mgrwt>
<rscale>  0 0.63885794E+03</rscale>
<asrwt>0</asrwt>
<pdfrwt beam="1">  1        2 0.25475871E+00 0.75139605E+03</pdfrwt>
<pdfrwt beam="2">  1       -2 0.15305796E+00 0.75139605E+03</pdfrwt>
<totfact> 0.30344659E+00</totfact>
</mgrwt>
</event>
<event>
 4    5  0.2473208E-007  0.8200249E+03  0.7818608E-02  0.9669062E-01
          2   -1    0    0  501    0  0.00000000000E+00  0.00000000000E+00  0.12966822794E+04  0.12966822794E+04  0.25500000000E-02 0. -1.
         -2   -1    0    0    0  501 -0.00000000000E+00 -0.00000000000E+00 -0.64573973545E+03  0.64573973546E+03  0.25500000000E-02 0.  1.
    8880023    1    1    2    0    0 -0.12469730644E+03  0.47231468386E+03 -0.29120666347E+03  0.87019659039E+03  0.65864270000E+03 0.  0.
    8880022    1    1    2    0    0  0.12469730644E+03 -0.47231468386E+03  0.94214920742E+03  0.10722254245E+04  0.15294330000E+03 0.  0.
<mgrwt>
<rscale>  0 0.72889091E+03</rscale>
<asrwt>0</asrwt>
<pdfrwt beam="1">  1        2 0.19948958E+00 0.82002487E+03</pdfrwt>
<pdfrwt beam="2">  1       -2 0.99344575E-01 0.82002487E+03</pdfrwt>
<totfact> 0.14106779E+01</totfact>
</mgrwt>
</event>
<event>
 4    5  0.2473208E-007  0.1940040E+04  0.7818608E-02  0.8648787E-01
         -2   -1    0    0    0  501 -0.00000000000E+00  0.00000000000E+00  0.19525845274E+04  0.19525845275E+04  0.25500000000E-02 0.  1.
          2   -1    0    0  501    0  0.00000000000E+00 -0.00000000000E+00 -0.33814893891E+04  0.33814893891E+04  0.25500000000E-02 0. -1.
    8880023    1    1    2    0    0  0.12402925642E+04 -0.13385142936E+04  0.10858394855E+04  0.22232417218E+04  0.65864270000E+03 0.  0.
    8880022    1    1    2    0    0 -0.12402925642E+04  0.13385142936E+04 -0.25147443472E+04  0.31108321948E+04  0.15294330000E+03 0.  0.
<mgrwt>
<rscale>  0 0.19122414E+04</rscale>
<asrwt>0</asrwt>
<pdfrwt beam="1">  1        2 0.52022914E+00 0.19400403E+04</pdfrwt>
<pdfrwt beam="2">  1       -2 0.30039762E+00 0.19400403E+04</pdfrwt>
<totfact> 0.27630538E-02</totfact>
</mgrwt>
</event>
<event>
 4    5  0.2473208E-007  0.1142529E+04  0.7818608E-02  0.9215120E-01
         -2   -1    0    0    0  501 -0.00000000000E+00  0.00000000000E+00  0.87056959238E+03  0.87056959239E+03  0.25500000000E-02 0.  1.
          2   -1    0    0  501    0  0.00000000000E+00 -0.00000000000E+00 -0.16786639020E+04  0.16786639020E+04  0.25500000000E-02 0. -1.
    8880023    1    1    2    0    0  0.93042348980E+03  0.76644917022E+02  0.20757890281E+03  0.11612327591E+04  0.65864270000E+03 0.  0.
    8880022    1    1    2    0    0 -0.93042348980E+03 -0.76644917022E+02 -0.10156732125E+04  0.13880007353E+04  0.15294330000E+03 0.  0.
<mgrwt>
<rscale>  0 0.10898720E+04</rscale>
<asrwt>0</asrwt>
<pdfrwt beam="1">  1        2 0.25825599E+00 0.11425290E+04</pdfrwt>
<pdfrwt beam="2">  1       -2 0.13393378E+00 0.11425290E+04</pdfrwt>
<totfact> 0.39732088E+00</totfact>
</mgrwt>
</event>
<event>
 4    5  0.2473208E-007  0.2094256E+04  0.7818608E-02  0.8575161E-01
          2   -1    0    0  501    0  0.00000000000E+00  0.00000000000E+00  0.25971417901E+04  0.25971417901E+04  0.25500000000E-02 0. -1.
         -2   -1    0    0    0  501 -0.00000000000E+00 -0.00000000000E+00 -0.20685596528E+04  0.20685596528E+04  0.25500000000E-02 0.  1.
    8880023    1    1    2    0    0 -0.67275549512E+03 -0.18706943317E+04 -0.83026265279E+03  0.22528301129E+04  0.65864270000E+03 0.  0.
    8880022    1    1    2    0    0  0.67275549512E+03  0.18706943317E+04  0.13588447901E+04  0.24128713300E+04  0.15294330000E+03 0.  0.
<mgrwt>
<rscale>  0 0.20686933E+04</rscale>
<asrwt>0</asrwt>
<pdfrwt beam="1">  1        2 0.39956028E+00 0.20942558E+04</pdfrwt>
<pdfrwt beam="2">  1       -2 0.31823995E+00 0.20942558E+04</pdfrwt>
<totfact> 0.65763814E-02</totfact>
</mgrwt>
</event>
<event>
 4    5  0.2473208E-007  0.1068445E+04  0.7818608E-02  0.9297030E-01
         -2   -1    0    0    0  501 -0.00000000000E+00  0.00000000000E+00  0.11844995931E+04  0.11844995931E+04  0.25500000000E-02 0.  1.
          2   -1    0    0  501    0  0.00000000000E+00 -0.00000000000E+00 -0.15997411498E+04  0.15997411498E+04  0.25500000000E-02 0. -1.
    8880023    1    1    2    0    0 -0.49563920491E+03  0.67978417864E+03  0.77411962626E+03  0.13194075007E+04  0.65864270000E+03 0.  0.
    8880022    1    1    2    0    0  0.49563920491E+03 -0.67978417864E+03 -0.11893611830E+04  0.14648332422E+04  0.15294330000E+03 0.  0.
<mgrwt>
<rscale>  0 0.10105678E+04</rscale>
<asrwt>0</asrwt>
<pdfrwt beam="1">  1        2 0.24611402E+00 0.10684451E+04</pdfrwt>
<pdfrwt beam="2">  1       -2 0.18223071E+00 0.10684451E+04</pdfrwt>
<totfact> 0.19232111E+00</totfact>
</mgrwt>
</event>
<event>
 4    5  0.2473208E-007  0.1061964E+04  0.7818608E-02  0.9304635E-01
         -2   -1    0    0    0  501 -0.00000000000E+00  0.00000000000E+00  0.81779632891E+03  0.81779632892E+03  0.25500000000E-02 0.  1.
          2   -1    0    0  501    0  0.00000000000E+00 -0.00000000000E+00 -0.19995020797E+04  0.19995020797E+04  0.25500000000E-02 0. -1.
    8880023    1    1    2    0    0 -0.66846829021E+03 -0.49709978982E+03  0.30619370757E+03  0.11052252480E+04  0.65864270000E+03 0.  0.
    8880022    1    1    2    0    0  0.66846829021E+03  0.49709978982E+03 -0.14878994584E+04  0.17120731606E+04  0.15294330000E+03 0.  0.
<mgrwt>
<rscale>  0 0.10035726E+04</rscale>
<asrwt>0</asrwt>
<pdfrwt beam="1">  1        2 0.30761570E+00 0.10619643E+04</pdfrwt>
<pdfrwt beam="2">  1       -2 0.12581482E+00 0.10619643E+04</pdfrwt>
<totfact> 0.31251579E+00</totfact>
</mgrwt>
</event>
<event>
 4    5  0.2473208E-007  0.6602413E+03  0.7818608E-02  0.1023911E+00
          2   -1    0    0  501    0  0.00000000000E+00  0.00000000000E+00  0.33701100613E+04  0.33701100613E+04  0.25500000000E-02 0. -1.
         -2   -1    0    0    0  501 -0.00000000000E+00 -0.00000000000E+00 -0.22075704999E+03  0.22075705000E+03  0.25500000000E-02 0.  1.
    8880023    1    1    2    0    0 -0.37207811907E+02  0.26906752941E+02  0.28014158861E+03  0.71721538644E+03  0.65864270000E+03 0.  1.
    8880022    1    1    2    0    0  0.37207811907E+02 -0.26906752941E+02  0.28692114227E+04  0.28736517248E+04  0.15294330000E+03 0.  0.
<mgrwt>
<rscale>  0 0.46301456E+03</rscale>
<asrwt>0</asrwt>
<pdfrwt beam="1">  1        2 0.51847844E+00 0.66024132E+03</pdfrwt>
<pdfrwt beam="2">  1       -2 0.33962625E-01 0.66024132E+03</pdfrwt>
<totfact> 0.88846554E+00</totfact>
</mgrwt>
</event>
<event>
 4    5  0.2672048E-007  0.1451320E+04  0.7818608E-02  0.8944798E-01
         -2   -1    0    0    0  501 -0.00000000000E+00  0.00000000000E+00  0.15454346503E+04  0.15454346503E+04  0.25500000000E-02 0.  1.
          2   -1    0    0  501    0  0.00000000000E+00 -0.00000000000E+00 -0.21568069022E+04  0.21568069022E+04  0.25500000000E-02 0. -1.
    8880023    1    1    2    0    0  0.13472320724E+03  0.12862231005E+04  0.89959636882E+03  0.17075139940E+04  0.65864270000E+03 0.  0.
    8880022    1    1    2    0    0 -0.13472320724E+03 -0.12862231005E+04 -0.15109686208E+04  0.19947275585E+04  0.15294330000E+03 0.  0.
<mgrwt>
<rscale>  0 0.14125305E+04</rscale>
<asrwt>0</asrwt>
<pdfrwt beam="1">  1        2 0.33181645E+00 0.14513202E+04</pdfrwt>
<pdfrwt beam="2">  1       -2 0.23775918E+00 0.14513202E+04</pdfrwt>
<totfact> 0.39374446E-01</totfact>
</mgrwt>
</event>
<event>
 4    5  0.2473208E-007  0.1355409E+04  0.7818608E-02  0.9019129E-01
          2   -1    0    0  501    0  0.00000000000E+00  0.00000000000E+00  0.12672192191E+04  0.12672192191E+04  0.25500000000E-02 0. -1.
         -2   -1    0    0    0  501 -0.00000000000E+00 -0.00000000000E+00 -0.16972113568E+04  0.16972113568E+04  0.25500000000E-02 0.  1.
    8880023    1    1    2    0    0 -0.11706734840E+04  0.18123458250E+03 -0.95666649516E+03  0.16590187972E+04  0.65864270000E+03 0.  1.
    8880022    1    1    2    0    0  0.11706734840E+04 -0.18123458250E+03  0.52667435747E+03  0.13054117787E+04  0.15294330000E+03 0.  0.
<mgrwt>
<rscale>  0 0.13132421E+04</rscale>
<asrwt>0</asrwt>
<pdfrwt beam="1">  1        2 0.19495680E+00 0.13554086E+04</pdfrwt>
<pdfrwt beam="2">  1       -2 0.26110944E+00 0.13554086E+04</pdfrwt>
<totfact> 0.90787746E-01</totfact>
</mgrwt>
</event>
<event>
 4    5  0.2473208E-007  0.1674464E+04  0.7818608E-02  0.8795354E-01
          2   -1    0    0  501    0  0.00000000000E+00  0.00000000000E+00  0.12603559989E+04  0.12603559990E+04  0.25500000000E-02 0. -1.
         -2   -1    0    0    0  501 -0.00000000000E+00 -0.00000000000E+00 -0.20924631450E+04  0.20924631450E+04  0.25500000000E-02 0.  1.
    8880023    1    1    2    0    0 -0.10523317161E+04  0.11236628419E+04 -0.21912871190E+03  0.16887414905E+04  0.65864270000E+03 0.  1.
    8880022    1    1    2    0    0  0.10523317161E+04 -0.11236628419E+04 -0.61297843416E+03  0.16640776535E+04  0.15294330000E+03 0.  0.
<mgrwt>
<rscale>  0 0.16416633E+04</rscale>
<asrwt>0</asrwt>
<pdfrwt beam="1">  1        2 0.19390092E+00 0.16744642E+04</pdfrwt>
<pdfrwt beam="2">  1       -2 0.32191741E+00 0.16744642E+04</pdfrwt>
<totfact> 0.37714697E-01</totfact>
</mgrwt>
</event>
<event>
 4    5  0.2473208E-007  0.9461119E+03  0.7818608E-02  0.9455730E-01
         -2   -1    0    0    0  501 -0.00000000000E+00  0.00000000000E+00  0.10881881722E+04  0.10881881722E+04  0.25500000000E-02 0.  1.
          2   -1    0    0  501    0  0.00000000000E+00 -0.00000000000E+00 -0.13444084981E+04  0.13444084981E+04  0.25500000000E-02 0. -1.
    8880023    1    1    2    0    0 -0.59667642005E+03  0.32449161092E+03  0.75116173202E+03  0.12080445810E+04  0.65864270000E+03 0.  1.
    8880022    1    1    2    0    0  0.59667642005E+03 -0.32449161092E+03 -0.10073820580E+04  0.12245520893E+04  0.15294330000E+03 0.  0.
<mgrwt>
<rscale>  0 0.87627827E+03</rscale>
<asrwt>0</asrwt>
<pdfrwt beam="1">  1        2 0.20683208E+00 0.94611192E+03</pdfrwt>
<pdfrwt beam="2">  1       -2 0.16741357E+00 0.94611192E+03</pdfrwt>
<totfact> 0.34578748E+00</totfact>
</mgrwt>
</event>
<event>
 4    5  0.2473208E-007  0.1472714E+04  0.7818608E-02  0.8929148E-01
          2   -1    0    0  501    0  0.00000000000E+00  0.00000000000E+00  0.12301919924E+04  0.12301919924E+04  0.25500000000E-02 0. -1.
         -2   -1    0    0    0  501 -0.00000000000E+00 -0.00000000000E+00 -0.17139724973E+04  0.17139724973E+04  0.25500000000E-02 0.  1.
    8880023    1    1    2    0    0 -0.15288109155E+03  0.13083211630E+04 -0.64607434028E+03  0.16081974857E+04  0.65864270000E+03 0.  0.
    8880022    1    1    2    0    0  0.15288109155E+03 -0.13083211630E+04  0.16229383542E+03  0.13359670040E+04  0.15294330000E+03 0.  0.
<mgrwt>
<rscale>  0 0.14345995E+04</rscale>
<asrwt>0</asrwt>
<pdfrwt beam="1">  1        2 0.18926031E+00 0.14727142E+04</pdfrwt>
<pdfrwt beam="2">  1       -2 0.26368808E+00 0.14727142E+04</pdfrwt>
<totfact> 0.91060541E-01</totfact>
</mgrwt>
</event>
<event>
 4    5  0.2473208E-007  0.1407070E+04  0.7818608E-02  0.8978209E-01
          2   -1    0    0  501    0  0.00000000000E+00  0.00000000000E+00  0.24505592920E+04  0.24505592920E+04  0.25500000000E-02 0. -1.
         -2   -1    0    0    0  501 -0.00000000000E+00 -0.00000000000E+00 -0.11608835161E+04  0.11608835161E+04  0.25500000000E-02 0.  1.
    8880023    1    1    2    0    0  0.49372157858E+03 -0.11411722102E+04 -0.44133842916E+03  0.14746609189E+04  0.65864270000E+03 0.  0.
    8880022    1    1    2    0    0 -0.49372157858E+03  0.11411722102E+04  0.17310142051E+04  0.21367818892E+04  0.15294330000E+03 0.  0.
<mgrwt>
<rscale>  0 0.13667980E+04</rscale>
<asrwt>0</asrwt>
<pdfrwt beam="1">  1        2 0.37700912E+00 0.14070697E+04</pdfrwt>
<pdfrwt beam="2">  1       -2 0.17859746E+00 0.14070697E+04</pdfrwt>
<totfact> 0.65566848E-01</totfact>
</mgrwt>
</event>
<event>
 4    5  0.2473208E-007  0.9711630E+03  0.7818608E-02  0.9420297E-01
          2   -1    0    0  501    0  0.00000000000E+00  0.00000000000E+00  0.54262727934E+03  0.54262727935E+03  0.25500000000E-02 0. -1.
         -2   -1    0    0    0  501 -0.00000000000E+00 -0.00000000000E+00 -0.24055486634E+04  0.24055486634E+04  0.25500000000E-02 0.  1.
    8880023    1    1    2    0    0 -0.47812475904E+03  0.52985291767E+03 -0.19834085510E+04  0.22084082698E+04  0.65864270000E+03 0.  0.
    8880022    1    1    2    0    0  0.47812475904E+03 -0.52985291767E+03  0.12048716694E+03  0.73976767298E+03  0.15294330000E+03 0.  0.
<mgrwt>
<rscale>  0 0.90423938E+03</rscale>
<asrwt>0</asrwt>
<pdfrwt beam="1">  1        2 0.83481121E-01 0.97116302E+03</pdfrwt>
<pdfrwt beam="2">  1       -2 0.37008440E+00 0.97116302E+03</pdfrwt>
<totfact> 0.66225290E-01</totfact>
</mgrwt>
</event>
<event>
 4    5  0.2473208E-007  0.1228854E+04  0.7818608E-02  0.9129572E-01
          2   -1    0    0  501    0  0.00000000000E+00  0.00000000000E+00  0.18058456321E+04  0.18058456321E+04  0.25500000000E-02 0. -1.
         -2   -1    0    0    0  501 -0.00000000000E+00 -0.00000000000E+00 -0.81463098095E+03  0.81463098095E+03  0.25500000000E-02 0.  1.
    8880023    1    1    2    0    0 -0.66905975122E+03  0.79286179387E+03  0.80361344336E+02  0.12314783501E+04  0.65864270000E+03 0.  1.
    8880022    1    1    2    0    0  0.66905975122E+03 -0.79286179387E+03  0.91085330678E+03  0.13889982629E+04  0.15294330000E+03 0.  0.
<mgrwt>
<rscale>  0 0.11810887E+04</rscale>
<asrwt>0</asrwt>
<pdfrwt beam="1">  1        2 0.27782240E+00 0.12288535E+04</pdfrwt>
<pdfrwt beam="2">  1       -2 0.12532784E+00 0.12288535E+04</pdfrwt>
<totfact> 0.39654430E+00</totfact>
</mgrwt>
</event>
<event>
 4    5  0.2473208E-007  0.6761448E+03  0.7818608E-02  0.1011594E+00
         -2   -1    0    0    0  501 -0.00000000000E+00  0.00000000000E+00  0.19279542427E+03  0.19279542428E+03  0.25500000000E-02 0.  1.
          2   -1    0    0  501    0  0.00000000000E+00 -0.00000000000E+00 -0.12917337717E+04  0.12917337717E+04  0.25500000000E-02 0. -1.
    8880023    1    1    2    0    0 -0.15163378996E+03 -0.19203994473E+02 -0.48079652010E+03  0.82966083411E+03  0.65864270000E+03 0.  1.
    8880022    1    1    2    0    0  0.15163378996E+03  0.19203994473E+02 -0.61814182733E+03  0.65486836187E+03  0.15294330000E+03 0. -1.
<mgrwt>
<rscale>  0 0.50845939E+03</rscale>
<asrwt>0</asrwt>
<pdfrwt beam="1">  1        2 0.19872827E+00 0.67614481E+03</pdfrwt>
<pdfrwt beam="2">  1       -2 0.29660835E-01 0.67614481E+03</pdfrwt>
<totfact> 0.17827356E+02</totfact>
</mgrwt>
</event>
<event>
 4    5  0.2473208E-007  0.1399671E+04  0.7818608E-02  0.8983939E-01
          2   -1    0    0  501    0  0.00000000000E+00  0.00000000000E+00  0.19223299136E+04  0.19223299136E+04  0.25500000000E-02 0. -1.
         -2   -1    0    0    0  501 -0.00000000000E+00 -0.00000000000E+00 -0.10820785394E+04  0.10820785394E+04  0.25500000000E-02 0.  1.
    8880023    1    1    2    0    0 -0.12349499651E+04  0.12892956145E+02 -0.15866493239E+03  0.14086349462E+04  0.65864270000E+03 0.  0.
    8880022    1    1    2    0    0  0.12349499651E+04 -0.12892956145E+02  0.99891630654E+03  0.15957735068E+04  0.15294330000E+03 0.  0.
<mgrwt>
<rscale>  0 0.13591390E+04</rscale>
<asrwt>0</asrwt>
<pdfrwt beam="1">  1        2 0.29574307E+00 0.13996706E+04</pdfrwt>
<pdfrwt beam="2">  1       -2 0.16647362E+00 0.13996706E+04</pdfrwt>
<totfact> 0.15865219E+00</totfact>
</mgrwt>
</event>
<event>
 4    5  0.2473208E-007  0.7189862E+03  0.7818608E-02  0.9926031E-01
         -2   -1    0    0    0  501 -0.00000000000E+00  0.00000000000E+00  0.10957283940E+04  0.10957283940E+04  0.25500000000E-02 0.  1.
          2   -1    0    0  501    0  0.00000000000E+00 -0.00000000000E+00 -0.36481051053E+03  0.36481051054E+03  0.25500000000E-02 0. -1.
    8880023    1    1    2    0    0  0.16064168098E+03 -0.23942687611E+03  0.84983123122E+03  0.11131730802E+04  0.65864270000E+03 0.  0.
    8880022    1    1    2    0    0 -0.16064168098E+03  0.23942687611E+03 -0.11891334770E+03  0.34736582438E+03  0.15294330000E+03 0. -1.
<mgrwt>
<rscale>  0 0.59016121E+03</rscale>
<asrwt>0</asrwt>
<pdfrwt beam="1">  1        2 0.56124695E-01 0.71898622E+03</pdfrwt>
<pdfrwt beam="2">  1       -2 0.16857360E+00 0.71898622E+03</pdfrwt>
<totfact> 0.19570297E+01</totfact>
</mgrwt>
</event>
<event>
 4    5  0.2473208E-007  0.1072982E+04  0.7818608E-02  0.9291751E-01
         -2   -1    0    0    0  501 -0.00000000000E+00  0.00000000000E+00  0.83659054569E+03  0.83659054569E+03  0.25500000000E-02 0.  1.
          2   -1    0    0  501    0  0.00000000000E+00 -0.00000000000E+00 -0.21619191412E+04  0.21619191412E+04  0.25500000000E-02 0. -1.
    8880023    1    1    2    0    0 -0.75930461508E+03  0.37541578915E+03  0.33859603803E+03  0.11251391009E+04  0.65864270000E+03 0.  0.
    8880022    1    1    2    0    0  0.75930461508E+03 -0.37541578915E+03 -0.16639246335E+04  0.18733705860E+04  0.15294330000E+03 0.  0.
<mgrwt>
<rscale>  0 0.10154588E+04</rscale>
<asrwt>0</asrwt>
<pdfrwt beam="1">  1        2 0.33260294E+00 0.10729822E+04</pdfrwt>
<pdfrwt beam="2">  1       -2 0.12870624E+00 0.10729822E+04</pdfrwt>
<totfact> 0.23953261E+00</totfact>
</mgrwt>
</event>
<event>
 4    5  0.2473208E-007  0.1137430E+04  0.7818608E-02  0.9220484E-01
         -2   -1    0    0    0  501 -0.00000000000E+00  0.00000000000E+00  0.13842546367E+04  0.13842546367E+04  0.25500000000E-02 0.  1.
          2   -1    0    0  501    0  0.00000000000E+00 -0.00000000000E+00 -0.23213519354E+04  0.23213519354E+04  0.25500000000E-02 0. -1.
    8880023    1    1    2    0    0 -0.69956177283E+03  0.60872816635E+03  0.10242941930E+04  0.15306617702E+04  0.65864270000E+03 0.  1.
    8880022    1    1    2    0    0  0.69956177283E+03 -0.60872816635E+03 -0.19613914918E+04  0.21749448020E+04  0.15294330000E+03 0.  0.
<mgrwt>
<rscale>  0 0.10844481E+04</rscale>
<asrwt>0</asrwt>
<pdfrwt beam="1">  1        2 0.35713107E+00 0.11374299E+04</pdfrwt>
<pdfrwt beam="2">  1       -2 0.21296225E+00 0.11374299E+04</pdfrwt>
<totfact> 0.47486006E-01</totfact>
</mgrwt>
</event>
<event>
 4    5  0.2473208E-007  0.7746901E+03  0.7818608E-02  0.9768461E-01
          2   -1    0    0  501    0  0.00000000000E+00  0.00000000000E+00  0.21677217322E+04  0.21677217322E+04  0.25500000000E-02 0. -1.
         -2   -1    0    0    0  501 -0.00000000000E+00 -0.00000000000E+00 -0.44382714961E+03  0.44382714962E+03  0.25500000000E-02 0.  1.
    8880023    1    1    2    0    0  0.15447757295E+03 -0.37745362713E+03 -0.58316539736E+02  0.77688196417E+03  0.65864270000E+03 0.  1.
    8880022    1    1    2    0    0 -0.15447757295E+03  0.37745362713E+03  0.17822111224E+04  0.18346669177E+04  0.15294330000E+03 0.  0.
<mgrwt>
<rscale>  0 0.67082915E+03</rscale>
<asrwt>0</asrwt>
<pdfrwt beam="1">  1        2 0.33349566E+00 0.77469011E+03</pdfrwt>
<pdfrwt beam="2">  1       -2 0.68281098E-01 0.77469011E+03</pdfrwt>
<totfact> 0.10941952E+01</totfact>
</mgrwt>
</event>
<event>
 4    5  0.2473208E-007  0.2031663E+04  0.7818608E-02  0.8604175E-01
         -2   -1    0    0    0  501 -0.00000000000E+00  0.00000000000E+00  0.15635838103E+04  0.15635838103E+04  0.25500000000E-02 0.  1.
          2   -1    0    0  501    0  0.00000000000E+00 -0.00000000000E+00 -0.27882529102E+04  0.27882529102E+04  0.25500000000E-02 0. -1.
    8880023    1    1    2    0    0  0.13046795949E+04  0.14112596423E+04  0.64231376200E+02  0.20326776674E+04  0.65864270000E+03 0.  0.
    8880022    1    1    2    0    0 -0.13046795949E+04 -0.14112596423E+04 -0.12889004761E+04  0.23191590531E+04  0.15294330000E+03 0.  0.
<mgrwt>
<rscale>  0 0.20052392E+04</rscale>
<asrwt>0</asrwt>
<pdfrwt beam="1">  1        2 0.42896198E+00 0.20316626E+04</pdfrwt>
<pdfrwt beam="2">  1       -2 0.24055136E+00 0.20316626E+04</pdfrwt>
<totfact> 0.15323137E-01</totfact>
</mgrwt>
</event>
<event>
 4    5  0.2473208E-007  0.7888543E+03  0.7818608E-02  0.9735435E-01
         -2   -1    0    0    0  501 -0.00000000000E+00  0.00000000000E+00  0.10384298578E+04  0.10384298578E+04  0.25500000000E-02 0.  1.
          2   -1    0    0  501    0  0.00000000000E+00 -0.00000000000E+00 -0.39241256540E+03  0.39241256541E+03  0.25500000000E-02 0. -1.
    8880023    1    1    2    0    0 -0.99844450387E+02 -0.42250686028E+03  0.54719042247E+03  0.96005652228E+03  0.65864270000E+03 0.  1.
    8880022    1    1    2    0    0  0.99844450387E+02  0.42250686028E+03  0.98826869894E+02  0.47078590090E+03  0.15294330000E+03 0.  0.
<mgrwt>
<rscale>  0 0.68945665E+03</rscale>
<asrwt>0</asrwt>
<pdfrwt beam="1">  1        2 0.60371164E-01 0.78885434E+03</pdfrwt>
<pdfrwt beam="2">  1       -2 0.15975844E+00 0.78885434E+03</pdfrwt>
<totfact> 0.20766462E+01</totfact>
</mgrwt>
</event>
<event>
 4    5  0.2473208E-007  0.7350505E+03  0.7818608E-02  0.9874606E-01
         -2   -1    0    0    0  501 -0.00000000000E+00  0.00000000000E+00  0.13874040104E+04  0.13874040104E+04  0.25500000000E-02 0.  1.
          2   -1    0    0  501    0  0.00000000000E+00 -0.00000000000E+00 -0.49272575000E+03  0.49272575001E+03  0.25500000000E-02 0. -1.
    8880023    1    1    2    0    0  0.11841325346E+03  0.30408449118E+03  0.12003747116E+04  0.14075506140E+04  0.65864270000E+03 0.  1.
    8880022    1    1    2    0    0 -0.11841325346E+03 -0.30408449118E+03 -0.30569645119E+03  0.47257914645E+03  0.15294330000E+03 0.  0.
<mgrwt>
<rscale>  0 0.61507912E+03</rscale>
<asrwt>0</asrwt>
<pdfrwt beam="1">  1        2 0.75803960E-01 0.73505053E+03</pdfrwt>
<pdfrwt beam="2">  1       -2 0.21344678E+00 0.73505053E+03</pdfrwt>
<totfact> 0.69753055E+00</totfact>
</mgrwt>
</event>
<event>
 4    5  0.2756457E-007  0.1072860E+04  0.7818608E-02  0.9291893E-01
          2   -1    0    0  501    0  0.00000000000E+00  0.00000000000E+00  0.30785292217E+04  0.30785292217E+04  0.25500000000E-02 0. -1.
         -2   -1    0    0    0  501 -0.00000000000E+00 -0.00000000000E+00 -0.14278436879E+04  0.14278436879E+04  0.25500000000E-02 0.  1.
    8880023    1    1    2    0    0  0.71790308876E+03  0.44925794694E+03 -0.11521954030E+04  0.15743512952E+04  0.65864270000E+03 0.  0.
    8880022    1    1    2    0    0 -0.71790308876E+03 -0.44925794694E+03  0.28028809369E+04  0.29320216143E+04  0.15294330000E+03 0.  0.
<mgrwt>
<rscale>  0 0.10153267E+04</rscale>
<asrwt>0</asrwt>
<pdfrwt beam="1">  1        2 0.47361988E+00 0.10728596E+04</pdfrwt>
<pdfrwt beam="2">  1       -2 0.21966826E+00 0.10728596E+04</pdfrwt>
<totfact> 0.15528279E-01</totfact>
</mgrwt>
</event>
<event>
 4    5  0.2473208E-007  0.8487776E+03  0.7818608E-02  0.9613846E-01
         -2   -1    0    0    0  501 -0.00000000000E+00  0.00000000000E+00  0.56109132702E+03  0.56109132703E+03  0.25500000000E-02 0.  1.
          2   -1    0    0  501    0  0.00000000000E+00 -0.00000000000E+00 -0.20068016129E+04  0.20068016129E+04  0.25500000000E-02 0. -1.
    8880023    1    1    2    0    0 -0.13566375697E+03 -0.51788854719E+03  0.16411792932E+03  0.86449875839E+03  0.65864270000E+03 0.  1.
    8880022    1    1    2    0    0  0.13566375697E+03  0.51788854719E+03 -0.16098282152E+04  0.17033941816E+04  0.15294330000E+03 0.  0.
<mgrwt>
<rscale>  0 0.76386479E+03</rscale>
<asrwt>0</asrwt>
<pdfrwt beam="1">  1        2 0.30873871E+00 0.84877760E+03</pdfrwt>
<pdfrwt beam="2">  1       -2 0.86321744E-01 0.84877760E+03</pdfrwt>
<totfact> 0.78653433E+00</totfact>
</mgrwt>
</event>
<event>
 4    5  0.2473208E-007  0.8998471E+03  0.7818608E-02  0.9526277E-01
         -2   -1    0    0    0  501 -0.00000000000E+00  0.00000000000E+00  0.43854922571E+03  0.43854922572E+03  0.25500000000E-02 0.  1.
          2   -1    0    0  501    0  0.00000000000E+00 -0.00000000000E+00 -0.23108318495E+04  0.23108318495E+04  0.25500000000E-02 0. -1.
    8880023    1    1    2    0    0 -0.53921953433E+03  0.29181646173E+03 -0.14668886125E+03  0.91172494856E+03  0.65864270000E+03 0.  1.
    8880022    1    1    2    0    0  0.53921953433E+03 -0.29181646173E+03 -0.17255937626E+04  0.18376561267E+04  0.15294330000E+03 0.  0.
<mgrwt>
<rscale>  0 0.82373931E+03</rscale>
<asrwt>0</asrwt>
<pdfrwt beam="1">  1        2 0.35551259E+00 0.89984708E+03</pdfrwt>
<pdfrwt beam="2">  1       -2 0.67469113E-01 0.89984708E+03</pdfrwt>
<totfact> 0.91893270E+00</totfact>
</mgrwt>
</event>
<event>
 4    5  0.2473208E-007  0.7670742E+03  0.7818608E-02  0.9787126E-01
         -2   -1    0    0    0  501 -0.00000000000E+00  0.00000000000E+00  0.86684703447E+03  0.86684703448E+03  0.25500000000E-02 0.  1.
          2   -1    0    0  501    0  0.00000000000E+00 -0.00000000000E+00 -0.14098222517E+04  0.14098222517E+04  0.25500000000E-02 0. -1.
    8880023    1    1    2    0    0 -0.24186156164E+03 -0.30999298320E+03  0.65368282600E+03  0.10078214663E+04  0.65864270000E+03 0.  0.
    8880022    1    1    2    0    0  0.24186156164E+03  0.30999298320E+03 -0.11966580432E+04  0.12688478199E+04  0.15294330000E+03 0.  0.
<mgrwt>
<rscale>  0 0.66058052E+03</rscale>
<asrwt>0</asrwt>
<pdfrwt beam="1">  1        2 0.21689573E+00 0.76707423E+03</pdfrwt>
<pdfrwt beam="2">  1       -2 0.13336108E+00 0.76707423E+03</pdfrwt>
<totfact> 0.59384845E+00</totfact>
</mgrwt>
</event>
<event>
 4    5  0.2473208E-007  0.6907529E+03  0.7818608E-02  0.1003797E+00
          2   -1    0    0  501    0  0.00000000000E+00  0.00000000000E+00  0.17788114974E+04  0.17788114974E+04  0.25500000000E-02 0. -1.
         -2   -1    0    0    0  501 -0.00000000000E+00 -0.00000000000E+00 -0.30152792887E+03  0.30152792888E+03  0.25500000000E-02 0.  1.
    8880023    1    1    2    0    0  0.15922780985E+03 -0.13407398918E+03  0.12297016392E+03  0.70161328200E+03  0.65864270000E+03 0.  1.
    8880022    1    1    2    0    0 -0.15922780985E+03  0.13407398918E+03  0.13543134046E+04  0.13787261443E+04  0.15294330000E+03 0.  0.
<mgrwt>
<rscale>  0 0.54016300E+03</rscale>
<asrwt>0</asrwt>
<pdfrwt beam="1">  1        2 0.27366331E+00 0.69075288E+03</pdfrwt>
<pdfrwt beam="2">  1       -2 0.46388911E-01 0.69075288E+03</pdfrwt>
<totfact> 0.40412210E+01</totfact>
</mgrwt>
</event>
<event>
 4    5  0.2473208E-007  0.8015672E+03  0.7818608E-02  0.9707418E-01
          2   -1    0    0  501    0  0.00000000000E+00  0.00000000000E+00  0.86560445175E+03  0.86560445175E+03  0.25500000000E-02 0. -1.
         -2   -1    0    0    0  501 -0.00000000000E+00 -0.00000000000E+00 -0.54453346421E+03  0.54453346422E+03  0.25500000000E-02 0.  1.
    8880023    1    1    2    0    0  0.68298320086E+02 -0.45170253458E+03 -0.48379283125E+02  0.80302590343E+03  0.65864270000E+03 0.  1.
    8880022    1    1    2    0    0 -0.68298320086E+02  0.45170253458E+03  0.36945027066E+03  0.60711201255E+03  0.15294330000E+03 0. -1.
<mgrwt>
<rscale>  0 0.70576867E+03</rscale>
<asrwt>0</asrwt>
<pdfrwt beam="1">  1        2 0.13316991E+00 0.80156724E+03</pdfrwt>
<pdfrwt beam="2">  1       -2 0.83774380E-01 0.80156724E+03</pdfrwt>
<totfact> 0.38942512E+01</totfact>
</mgrwt>
</event>
<event>
 4    5  0.2473208E-007  0.1407510E+04  0.7818608E-02  0.8977869E-01
          2   -1    0    0  501    0  0.00000000000E+00  0.00000000000E+00  0.35412199754E+04  0.35412199754E+04  0.25500000000E-02 0. -1.
         -2   -1    0    0    0  501 -0.00000000000E+00 -0.00000000000E+00 -0.10797677553E+04  0.10797677553E+04  0.25500000000E-02 0.  1.
    8880023    1    1    2    0    0 -0.96095606448E+03 -0.78983471318E+03 -0.42825007531E+03  0.14712184628E+04  0.65864270000E+03 0.  0.
    8880022    1    1    2    0    0  0.96095606448E+03  0.78983471318E+03  0.28897022954E+04  0.31497692679E+04  0.15294330000E+03 0.  0.
<mgrwt>
<rscale>  0 0.13672541E+04</rscale>
<asrwt>0</asrwt>
<pdfrwt beam="1">  1        2 0.54480307E+00 0.14075104E+04</pdfrwt>
<pdfrwt beam="2">  1       -2 0.16611812E+00 0.14075104E+04</pdfrwt>
<totfact> 0.16652072E-01</totfact>
</mgrwt>
</event>
<event>
 4    5  0.2473208E-007  0.8462239E+03  0.7818608E-02  0.9618554E-01
          2   -1    0    0  501    0  0.00000000000E+00  0.00000000000E+00  0.69551630532E+03  0.69551630533E+03  0.25500000000E-02 0. -1.
         -2   -1    0    0    0  501 -0.00000000000E+00 -0.00000000000E+00 -0.10089625592E+04  0.10089625592E+04  0.25500000000E-02 0.  1.
    8880023    1    1    2    0    0  0.36833720718E+03  0.38289985930E+03 -0.64123529935E+03  0.10617332602E+04  0.65864270000E+03 0.  1.
    8880022    1    1    2    0    0 -0.36833720718E+03 -0.38289985930E+03  0.32778904551E+03  0.64274560428E+03  0.15294330000E+03 0.  0.
<mgrwt>
<rscale>  0 0.76080202E+03</rscale>
<asrwt>0</asrwt>
<pdfrwt beam="1">  1        2 0.10700251E+00 0.84622385E+03</pdfrwt>
<pdfrwt beam="2">  1       -2 0.15522501E+00 0.84622385E+03</pdfrwt>
<totfact> 0.11361935E+01</totfact>
</mgrwt>
</event>
<event>
 4    5  0.2473208E-007  0.9941850E+03  0.7818608E-02  0.9389205E-01
         -2   -1    0    0    0  501 -0.00000000000E+00  0.00000000000E+00  0.72115697551E+03  0.72115697552E+03  0.25500000000E-02 0.  1.
          2   -1    0    0  501    0  0.00000000000E+00 -0.00000000000E+00 -0.15883107406E+04  0.15883107406E+04  0.25500000000E-02 0. -1.
    8880023    1    1    2    0    0  0.72399131308E+03  0.17444260144E+03  0.18513702180E+03  0.10112762064E+04  0.65864270000E+03 0.  1.
    8880022    1    1    2    0    0 -0.72399131308E+03 -0.17444260144E+03 -0.10522907869E+04  0.12981915097E+04  0.15294330000E+03 0.  0.
<mgrwt>
<rscale>  0 0.92969396E+03</rscale>
<asrwt>0</asrwt>
<pdfrwt beam="1">  1        2 0.24435550E+00 0.99418502E+03</pdfrwt>
<pdfrwt beam="2">  1       -2 0.11094723E+00 0.99418502E+03</pdfrwt>
<totfact> 0.72555564E+00</totfact>
</mgrwt>
</event>
<event>
 4    5  0.2473208E-007  0.1116202E+04  0.7818608E-02  0.9243228E-01
          2   -1    0    0  501    0  0.00000000000E+00  0.00000000000E+00  0.16443764751E+04  0.16443764751E+04  0.25500000000E-02 0. -1.
         -2   -1    0    0    0  501 -0.00000000000E+00 -0.00000000000E+00 -0.87702871913E+03  0.87702871913E+03  0.25500000000E-02 0.  1.
    8880023    1    1    2    0    0 -0.75556895817E+03 -0.49113424264E+03 -0.26021546665E+03  0.11461324488E+04  0.65864270000E+03 0.  0.
    8880022    1    1    2    0    0  0.75556895817E+03  0.49113424264E+03  0.10275632226E+04  0.13752727454E+04  0.15294330000E+03 0.  0.
<mgrwt>
<rscale>  0 0.10618172E+04</rscale>
<asrwt>0</asrwt>
<pdfrwt beam="1">  1        2 0.25298099E+00 0.11162023E+04</pdfrwt>
<pdfrwt beam="2">  1       -2 0.13492750E+00 0.11162023E+04</pdfrwt>
<totfact> 0.40845894E+00</totfact>
</mgrwt>
</event>
<event>
 4    5  0.2473208E-007  0.6684960E+03  0.7818608E-02  0.1016765E+00
         -2   -1    0    0    0  501 -0.00000000000E+00  0.00000000000E+00  0.43674517712E+03  0.43674517713E+03  0.25500000000E-02 0.  1.
          2   -1    0    0  501    0  0.00000000000E+00 -0.00000000000E+00 -0.27661547995E+04  0.27661547995E+04  0.25500000000E-02 0. -1.
    8880023    1    1    2    0    0  0.10181507294E+03 -0.52061749824E+02  0.17515808852E+03  0.69106244082E+03  0.65864270000E+03 0.  1.
    8880022    1    1    2    0    0 -0.10181507294E+03  0.52061749824E+02 -0.25045677109E+04  0.25118375359E+04  0.15294330000E+03 0.  0.
<mgrwt>
<rscale>  0 0.48872403E+03</rscale>
<asrwt>0</asrwt>
<pdfrwt beam="1">  1        2 0.42556227E+00 0.66849603E+03</pdfrwt>
<pdfrwt beam="2">  1       -2 0.67191567E-01 0.66849603E+03</pdfrwt>
<totfact> 0.52971551E+00</totfact>
</mgrwt>
</event>
<event>
 4    5  0.2473208E-007  0.8906636E+03  0.7818608E-02  0.9541189E-01
         -2   -1    0    0    0  501 -0.00000000000E+00  0.00000000000E+00  0.91499368976E+03  0.91499368977E+03  0.25500000000E-02 0.  1.
          2   -1    0    0  501    0  0.00000000000E+00 -0.00000000000E+00 -0.97263612801E+03  0.97263612802E+03  0.25500000000E-02 0. -1.
    8880023    1    1    2    0    0  0.52843885912E+03  0.28323795198E+03  0.52821823447E+03  0.10355172981E+04  0.65864270000E+03 0.  0.
    8880022    1    1    2    0    0 -0.52843885912E+03 -0.28323795198E+03 -0.58586067272E+03  0.85211251964E+03  0.15294330000E+03 0.  0.
<mgrwt>
<rscale>  0 0.81314068E+03</rscale>
<asrwt>0</asrwt>
<pdfrwt beam="1">  1        2 0.14963633E+00 0.89066356E+03</pdfrwt>
<pdfrwt beam="2">  1       -2 0.14076826E+00 0.89066356E+03</pdfrwt>
<totfact> 0.93080709E+00</totfact>
</mgrwt>
</event>
<event>
 4    5  0.2473209E-007  0.1261574E+04  0.7818608E-02  0.9099474E-01
          2   -1    0    0  501    0  0.00000000000E+00  0.00000000000E+00  0.19087755601E+04  0.19087755601E+04  0.25500000000E-02 0. -1.
         -2   -1    0    0    0  501 -0.00000000000E+00 -0.00000000000E+00 -0.13481702798E+04  0.13481702798E+04  0.25500000000E-02 0.  1.
    8880023    1    1    2    0    0  0.95404567324E+03 -0.49755049468E+03 -0.81642508072E+03  0.15027041492E+04  0.65864270000E+03 0.  1.
    8880022    1    1    2    0    0 -0.95404567324E+03  0.49755049468E+03  0.13770303610E+04  0.17542416907E+04  0.15294330000E+03 0.  0.
<mgrwt>
<rscale>  0 0.12154101E+04</rscale>
<asrwt>0</asrwt>
<pdfrwt beam="1">  1        2 0.29365778E+00 0.12615744E+04</pdfrwt>
<pdfrwt beam="2">  1       -2 0.20741081E+00 0.12615744E+04</pdfrwt>
<totfact> 0.86103800E-01</totfact>
</mgrwt>
</event>
<event>
 4    5  0.3301628E-007  0.9300939E+03  0.7818608E-02  0.9479352E-01
         -2   -1    0    0    0  501 -0.00000000000E+00  0.00000000000E+00  0.94121393296E+03  0.94121393296E+03  0.25500000000E-02 0.  1.
          2   -1    0    0  501    0  0.00000000000E+00 -0.00000000000E+00 -0.28634599974E+04  0.28634599974E+04  0.25500000000E-02 0. -1.
    8880023    1    1    2    0    0 -0.45794789402E+03 -0.47068909408E+03  0.65700597631E+03  0.11387412156E+04  0.65864270000E+03 0.  1.
    8880022    1    1    2    0    0  0.45794789402E+03  0.47068909408E+03 -0.25792520408E+04  0.26659327148E+04  0.15294330000E+03 0.  0.
<mgrwt>
<rscale>  0 0.85823355E+03</rscale>
<asrwt>0</asrwt>
<pdfrwt beam="1">  1        2 0.44053230E+00 0.93009392E+03</pdfrwt>
<pdfrwt beam="2">  1       -2 0.14480215E+00 0.93009392E+03</pdfrwt>
<totfact> 0.71387846E-01</totfact>
</mgrwt>
</event>
<event>
 4    5  0.2473208E-007  0.1063477E+04  0.7818608E-02  0.9302853E-01
         -2   -1    0    0    0  501 -0.00000000000E+00  0.00000000000E+00  0.13152452584E+04  0.13152452584E+04  0.25500000000E-02 0.  1.
          2   -1    0    0  501    0  0.00000000000E+00 -0.00000000000E+00 -0.98413695585E+03  0.98413695585E+03  0.25500000000E-02 0. -1.
    8880023    1    1    2    0    0  0.32203045842E+03 -0.77036949058E+03  0.79893434626E+03  0.13301424977E+04  0.65864270000E+03 0.  0.
    8880022    1    1    2    0    0 -0.32203045842E+03  0.77036949058E+03 -0.46782604367E+03  0.96923971664E+03  0.15294330000E+03 0.  0.
<mgrwt>
<rscale>  0 0.10052061E+04</rscale>
<asrwt>0</asrwt>
<pdfrwt beam="1">  1        2 0.15140569E+00 0.10634768E+04</pdfrwt>
<pdfrwt beam="2">  1       -2 0.20234542E+00 0.10634768E+04</pdfrwt>
<totfact> 0.32632973E+00</totfact>
</mgrwt>
</event>
<event>
 4    5  0.2473208E-007  0.9235653E+03  0.7818608E-02  0.9489214E-01
          2   -1    0    0  501    0  0.00000000000E+00  0.00000000000E+00  0.11457013714E+04  0.11457013714E+04  0.25500000000E-02 0. -1.
         -2   -1    0    0    0  501 -0.00000000000E+00 -0.00000000000E+00 -0.18971892332E+04  0.18971892332E+04  0.25500000000E-02 0.  1.
    8880023    1    1    2    0    0  0.46014425026E+03 -0.45544481601E+03 -0.16702406538E+04  0.19085797755E+04  0.65864270000E+03 0.  0.
    8880022    1    1    2    0    0 -0.46014425026E+03  0.45544481601E+03  0.91875279195E+03  0.11343108292E+04  0.15294330000E+03 0.  0.
<mgrwt>
<rscale>  0 0.85083735E+03</rscale>
<asrwt>0</asrwt>
<pdfrwt beam="1">  1        2 0.17626175E+00 0.92356533E+03</pdfrwt>
<pdfrwt beam="2">  1       -2 0.29187527E+00 0.92356533E+03</pdfrwt>
<totfact> 0.73842622E-01</totfact>
</mgrwt>
</event>
<event>
 4    5  0.3039771E-007  0.6922820E+03  0.7818608E-02  0.1003086E+00
         -2   -1    0    0    0  501 -0.00000000000E+00  0.00000000000E+00  0.15839349629E+04  0.15839349629E+04  0.25500000000E-02 0.  1.
          2   -1    0    0  501    0  0.00000000000E+00 -0.00000000000E+00 -0.16994651912E+04  0.16994651912E+04  0.25500000000E-02 0. -1.
    8880023    1    1    2    0    0 -0.19484549959E+03  0.86483460639E+02  0.14971811472E+04  0.16494865115E+04  0.65864270000E+03 0.  1.
    8880022    1    1    2    0    0  0.19484549959E+03 -0.86483460639E+02 -0.16127113755E+04  0.16339136426E+04  0.15294330000E+03 0.  0.
<mgrwt>
<rscale>  0 0.54317414E+03</rscale>
<asrwt>0</asrwt>
<pdfrwt beam="1">  1        2 0.26145618E+00 0.69228200E+03</pdfrwt>
<pdfrwt beam="2">  1       -2 0.24368230E+00 0.69228200E+03</pdfrwt>
<totfact> 0.73010991E-01</totfact>
</mgrwt>
</event>
<event>
 4    5  0.2473208E-007  0.1093832E+04  0.7818608E-02  0.9267954E-01
         -2   -1    0    0    0  501 -0.00000000000E+00  0.00000000000E+00  0.39871239703E+03  0.39871239704E+03  0.25500000000E-02 0.  1.
          2   -1    0    0  501    0  0.00000000000E+00 -0.00000000000E+00 -0.33855354668E+04  0.33855354668E+04  0.25500000000E-02 0. -1.
    8880023    1    1    2    0    0  0.45160881409E+03 -0.74746812213E+03 -0.62114760580E+03  0.12578925507E+04  0.65864270000E+03 0.  0.
    8880022    1    1    2    0    0 -0.45160881409E+03  0.74746812213E+03 -0.23656754640E+04  0.25263553132E+04  0.15294330000E+03 0.  0.
<mgrwt>
<rscale>  0 0.10378735E+04</rscale>
<asrwt>0</asrwt>
<pdfrwt beam="1">  1        2 0.52085159E+00 0.10938324E+04</pdfrwt>
<pdfrwt beam="2">  1       -2 0.61340371E-01 0.10938324E+04</pdfrwt>
<totfact> 0.24550511E+00</totfact>
</mgrwt>
</event>
<event>
 4    5  0.2473208E-007  0.9339395E+03  0.7818608E-02  0.9473608E-01
          2   -1    0    0  501    0  0.00000000000E+00  0.00000000000E+00  0.77131021181E+03  0.77131021182E+03  0.25500000000E-02 0. -1.
         -2   -1    0    0    0  501 -0.00000000000E+00 -0.00000000000E+00 -0.10331442303E+04  0.10331442303E+04  0.25500000000E-02 0.  1.
    8880023    1    1    2    0    0  0.46589223148E+03 -0.47050740966E+03 -0.53004196437E+03  0.10738656732E+04  0.65864270000E+03 0.  0.
    8880022    1    1    2    0    0 -0.46589223148E+03  0.47050740966E+03  0.26820794591E+03  0.73058876885E+03  0.15294330000E+03 0.  0.
<mgrwt>
<rscale>  0 0.86257859E+03</rscale>
<asrwt>0</asrwt>
<pdfrwt beam="1">  1        2 0.11866311E+00 0.93393951E+03</pdfrwt>
<pdfrwt beam="2">  1       -2 0.15894527E+00 0.93393951E+03</pdfrwt>
<totfact> 0.92512882E+00</totfact>
</mgrwt>
</event>
<event>
 4    5  0.2473208E-007  0.1334863E+04  0.7818608E-02  0.9036023E-01
         -2   -1    0    0    0  501 -0.00000000000E+00  0.00000000000E+00  0.11916277632E+04  0.11916277632E+04  0.25500000000E-02 0.  1.
          2   -1    0    0  501    0  0.00000000000E+00 -0.00000000000E+00 -0.14440226434E+04  0.14440226434E+04  0.25500000000E-02 0. -1.
    8880023    1    1    2    0    0  0.38899407823E+02  0.11604035829E+04  0.25562993418E+03  0.13591197551E+04  0.65864270000E+03 0.  0.
    8880022    1    1    2    0    0 -0.38899407823E+02 -0.11604035829E+04 -0.50802481445E+03  0.12765306515E+04  0.15294330000E+03 0.  0.
<mgrwt>
<rscale>  0 0.12918876E+04</rscale>
<asrwt>0</asrwt>
<pdfrwt beam="1">  1        2 0.22215733E+00 0.13348632E+04</pdfrwt>
<pdfrwt beam="2">  1       -2 0.18332735E+00 0.13348632E+04</pdfrwt>
<totfact> 0.22500040E+00</totfact>
</mgrwt>
</event>
<event>
 4    5  0.2473208E-007  0.7953126E+03  0.7818608E-02  0.9721024E-01
          2   -1    0    0  501    0  0.00000000000E+00  0.00000000000E+00  0.23070329667E+04  0.23070329667E+04  0.25500000000E-02 0. -1.
         -2   -1    0    0    0  501 -0.00000000000E+00 -0.00000000000E+00 -0.21016315820E+03  0.21016315822E+03  0.25500000000E-02 0.  1.
    8880023    1    1    2    0    0  0.48067060683E+02 -0.44317200222E+03  0.76145237923E+03  0.11010593980E+04  0.65864270000E+03 0.  0.
    8880022    1    1    2    0    0 -0.48067060683E+02  0.44317200222E+03  0.13354174292E+04  0.14161367269E+04  0.15294330000E+03 0.  0.
<mgrwt>
<rscale>  0 0.69778690E+03</rscale>
<asrwt>0</asrwt>
<pdfrwt beam="1">  1        2 0.35492814E+00 0.79531256E+03</pdfrwt>
<pdfrwt beam="2">  1       -2 0.32332795E-01 0.79531256E+03</pdfrwt>
<totfact> 0.41258494E+01</totfact>
</mgrwt>
</event>
<event>
 4    5  0.2473208E-007  0.8067186E+03  0.7818608E-02  0.9696453E-01
         -2   -1    0    0    0  501 -0.00000000000E+00  0.00000000000E+00  0.46642977536E+03  0.46642977536E+03  0.25500000000E-02 0.  1.
          2   -1    0    0  501    0  0.00000000000E+00 -0.00000000000E+00 -0.27620536546E+04  0.27620536546E+04  0.25500000000E-02 0. -1.
    8880023    1    1    2    0    0 -0.25383450936E+02  0.46512404506E+03  0.72658785205E+02  0.80998407528E+03  0.65864270000E+03 0.  1.
    8880022    1    1    2    0    0  0.25383450936E+02 -0.46512404506E+03 -0.23682826644E+04  0.24184993547E+04  0.15294330000E+03 0.  0.
<mgrwt>
<rscale>  0 0.71228372E+03</rscale>
<asrwt>0</asrwt>
<pdfrwt beam="1">  1        2 0.42493132E+00 0.80671860E+03</pdfrwt>
<pdfrwt beam="2">  1       -2 0.71758429E-01 0.80671860E+03</pdfrwt>
<totfact> 0.44950576E+00</totfact>
</mgrwt>
</event>
<event>
 4    5  0.2473208E-007  0.6854022E+03  0.7818608E-02  0.1006419E+00
         -2   -1    0    0    0  501 -0.00000000000E+00  0.00000000000E+00  0.31759828567E+03  0.31759828568E+03  0.25500000000E-02 0.  1.
          2   -1    0    0  501    0  0.00000000000E+00 -0.00000000000E+00 -0.22518791872E+04  0.22518791872E+04  0.25500000000E-02 0. -1.
    8880023    1    1    2    0    0  0.18902353436E+03  0.15365235184E+02 -0.69576791891E+02  0.68892461360E+03  0.65864270000E+03 0.  1.
    8880022    1    1    2    0    0 -0.18902353436E+03 -0.15365235184E+02 -0.18647041096E+04  0.18805528592E+04  0.15294330000E+03 0.  0.
<mgrwt>
<rscale>  0 0.52922909E+03</rscale>
<asrwt>0</asrwt>
<pdfrwt beam="1">  1        2 0.34644294E+00 0.68540221E+03</pdfrwt>
<pdfrwt beam="2">  1       -2 0.48861276E-01 0.68540221E+03</pdfrwt>
<totfact> 0.20105201E+01</totfact>
</mgrwt>
</event>
<event>
 4    5  0.2473208E-007  0.6992373E+03  0.7818608E-02  0.1000038E+00
          2   -1    0    0  501    0  0.00000000000E+00  0.00000000000E+00  0.31810428721E+04  0.31810428721E+04  0.25500000000E-02 0. -1.
         -2   -1    0    0    0  501 -0.00000000000E+00 -0.00000000000E+00 -0.20755310552E+03  0.20755310554E+03  0.25500000000E-02 0.  1.
    8880023    1    1    2    0    0  0.22271177592E+03  0.74310910163E+02  0.41151342350E+03  0.81134219075E+03  0.65864270000E+03 0.  1.
    8880022    1    1    2    0    0 -0.22271177592E+03 -0.74310910163E+02  0.25619763430E+04  0.25772537868E+04  0.15294330000E+03 0.  0.
<mgrwt>
<rscale>  0 0.55633586E+03</rscale>
<asrwt>0</asrwt>
<pdfrwt beam="1">  1        2 0.48939123E+00 0.69923734E+03</pdfrwt>
<pdfrwt beam="2">  1       -2 0.31931245E-01 0.69923734E+03</pdfrwt>
<totfact> 0.13108926E+01</totfact>
</mgrwt>
</event>
<event>
 4    5  0.2473208E-007  0.8960558E+03  0.7818608E-02  0.9532393E-01
          2   -1    0    0  501    0  0.00000000000E+00  0.00000000000E+00  0.12147435150E+04  0.12147435150E+04  0.25500000000E-02 0. -1.
         -2   -1    0    0    0  501 -0.00000000000E+00 -0.00000000000E+00 -0.70507717321E+03  0.70507717321E+03  0.25500000000E-02 0.  1.
    8880023    1    1    2    0    0 -0.60730391699E+03  0.16961167867E+02 -0.25466272959E+03  0.93154121804E+03  0.65864270000E+03 0.  0.
    8880022    1    1    2    0    0  0.60730391699E+03 -0.16961167867E+02  0.76432907141E+03  0.98827947021E+03  0.15294330000E+03 0.  0.
<mgrwt>
<rscale>  0 0.81937154E+03</rscale>
<asrwt>0</asrwt>
<pdfrwt beam="1">  1        2 0.18688362E+00 0.89605577E+03</pdfrwt>
<pdfrwt beam="2">  1       -2 0.10847341E+00 0.89605577E+03</pdfrwt>
<totfact> 0.12657533E+01</totfact>
</mgrwt>
</event>
<event>
 4    5  0.2473208E-007  0.1305168E+04  0.7818608E-02  0.9061110E-01
         -2   -1    0    0    0  501 -0.00000000000E+00  0.00000000000E+00  0.68795017281E+03  0.68795017281E+03  0.25500000000E-02 0.  1.
          2   -1    0    0  501    0  0.00000000000E+00 -0.00000000000E+00 -0.24430195683E+04  0.24430195683E+04  0.25500000000E-02 0. -1.
    8880023    1    1    2    0    0 -0.27888722674E+02  0.11264441326E+04 -0.40657204460E+03  0.13670278704E+04  0.65864270000E+03 0.  0.
    8880022    1    1    2    0    0  0.27888722674E+02 -0.11264441326E+04 -0.13484973509E+04  0.17639418707E+04  0.15294330000E+03 0.  0.
<mgrwt>
<rscale>  0 0.12609609E+04</rscale>
<asrwt>0</asrwt>
<pdfrwt beam="1">  1        2 0.37584916E+00 0.13051683E+04</pdfrwt>
<pdfrwt beam="2">  1       -2 0.10583849E+00 0.13051683E+04</pdfrwt>
<totfact> 0.26286717E+00</totfact>
</mgrwt>
</event>
<event>
 4    5  0.2473208E-007  0.7568985E+03  0.7818608E-02  0.9813204E-01
         -2   -1    0    0    0  501 -0.00000000000E+00  0.00000000000E+00  0.57843214149E+03  0.57843214149E+03  0.25500000000E-02 0.  1.
          2   -1    0    0  501    0  0.00000000000E+00 -0.00000000000E+00 -0.10205695886E+04  0.10205695886E+04  0.25500000000E-02 0. -1.
    8880023    1    1    2    0    0  0.23962178723E+03 -0.28577360042E+03  0.25078796652E+03  0.79736438473E+03  0.65864270000E+03 0.  1.
    8880022    1    1    2    0    0 -0.23962178723E+03  0.28577360042E+03 -0.69292541367E+03  0.80163734540E+03  0.15294330000E+03 0.  0.
<mgrwt>
<rscale>  0 0.64658728E+03</rscale>
<asrwt>0</asrwt>
<pdfrwt beam="1">  1        2 0.15701071E+00 0.75689851E+03</pdfrwt>
<pdfrwt beam="2">  1       -2 0.88989560E-01 0.75689851E+03</pdfrwt>
<totfact> 0.26923702E+01</totfact>
</mgrwt>
</event>
<event>
 4    5  0.2473208E-007  0.8408013E+03  0.7818608E-02  0.9628671E-01
         -2   -1    0    0    0  501 -0.00000000000E+00  0.00000000000E+00  0.20421135352E+03  0.20421135353E+03  0.25500000000E-02 0.  1.
          2   -1    0    0  501    0  0.00000000000E+00 -0.00000000000E+00 -0.27887412321E+04  0.27887412321E+04  0.25500000000E-02 0. -1.
    8880023    1    1    2    0    0 -0.21016793918E+03  0.47850395440E+03 -0.94274152212E+03  0.12632135136E+04  0.65864270000E+03 0.  0.
    8880022    1    1    2    0    0  0.21016793918E+03 -0.47850395440E+03 -0.16417883564E+04  0.17297390721E+04  0.15294330000E+03 0.  0.
<mgrwt>
<rscale>  0 0.75427252E+03</rscale>
<asrwt>0</asrwt>
<pdfrwt beam="1">  1        2 0.42903708E+00 0.84080129E+03</pdfrwt>
<pdfrwt beam="2">  1       -2 0.31417133E-01 0.84080129E+03</pdfrwt>
<totfact> 0.22932969E+01</totfact>
</mgrwt>
</event>
<event>
 4    5  0.2473208E-007  0.9667393E+03  0.7818608E-02  0.9426428E-01
          2   -1    0    0  501    0  0.00000000000E+00  0.00000000000E+00  0.14029027611E+04  0.14029027611E+04  0.25500000000E-02 0. -1.
         -2   -1    0    0    0  501 -0.00000000000E+00 -0.00000000000E+00 -0.63604624251E+03  0.63604624251E+03  0.25500000000E-02 0.  1.
    8880023    1    1    2    0    0  0.60048539864E+03 -0.37442225694E+03  0.87865266869E+03  0.13063749305E+04  0.65864270000E+03 0. -1.
    8880022    1    1    2    0    0 -0.60048539864E+03  0.37442225694E+03 -0.11179615009E+03  0.73257407316E+03  0.15294330000E+03 0.  0.
<mgrwt>
<rscale>  0 0.89932298E+03</rscale>
<asrwt>0</asrwt>
<pdfrwt beam="1">  1        2 0.21583119E+00 0.96673934E+03</pdfrwt>
<pdfrwt beam="2">  1       -2 0.97853268E-01 0.96673934E+03</pdfrwt>
<totfact> 0.12511949E+01</totfact>
</mgrwt>
</event>
<event>
 4    5  0.2473208E-007  0.1217187E+04  0.7818608E-02  0.9140594E-01
         -2   -1    0    0    0  501 -0.00000000000E+00  0.00000000000E+00  0.95197964454E+03  0.95197964455E+03  0.25500000000E-02 0.  1.
          2   -1    0    0  501    0  0.00000000000E+00 -0.00000000000E+00 -0.33569682210E+04  0.33569682210E+04  0.25500000000E-02 0. -1.
    8880023    1    1    2    0    0 -0.85840534577E+03  0.55756125075E+03 -0.29122401308E+04  0.31563724545E+04  0.65864270000E+03 0. -1.
    8880022    1    1    2    0    0  0.85840534577E+03 -0.55756125075E+03  0.50725155425E+03  0.11525754111E+04  0.15294330000E+03 0.  0.
<mgrwt>
<rscale>  0 0.11688212E+04</rscale>
<asrwt>0</asrwt>
<pdfrwt beam="1">  1        2 0.51645664E+00 0.12171871E+04</pdfrwt>
<pdfrwt beam="2">  1       -2 0.14645841E+00 0.12171871E+04</pdfrwt>
<totfact> 0.32201967E-01</totfact>
</mgrwt>
</event>
<event>
 4    5  0.2473208E-007  0.7140475E+03  0.7818608E-02  0.9943267E-01
          2   -1    0    0  501    0  0.00000000000E+00  0.00000000000E+00  0.29869987712E+03  0.29869987713E+03  0.25500000000E-02 0. -1.
         -2   -1    0    0    0  501 -0.00000000000E+00 -0.00000000000E+00 -0.10625425053E+04  0.10625425053E+04  0.25500000000E-02 0.  1.
    8880023    1    1    2    0    0  0.22412218496E+03  0.16069481105E+03 -0.76421720262E+03  0.10458927838E+04  0.65864270000E+03 0.  0.
    8880022    1    1    2    0    0 -0.22412218496E+03 -0.16069481105E+03  0.37457439353E+00  0.31534959872E+03  0.15294330000E+03 0.  0.
<mgrwt>
<rscale>  0 0.58209424E+03</rscale>
<asrwt>0</asrwt>
<pdfrwt beam="1">  1        2 0.45953828E-01 0.71404747E+03</pdfrwt>
<pdfrwt beam="2">  1       -2 0.16346808E+00 0.71404747E+03</pdfrwt>
<totfact> 0.26615852E+01</totfact>
</mgrwt>
</event>
<event>
 4    5  0.2473208E-007  0.1398223E+04  0.7818608E-02  0.8985065E-01
          2   -1    0    0  501    0  0.00000000000E+00  0.00000000000E+00  0.24031257632E+04  0.24031257632E+04  0.25500000000E-02 0. -1.
         -2   -1    0    0    0  501 -0.00000000000E+00 -0.00000000000E+00 -0.83130191025E+03  0.83130191026E+03  0.25500000000E-02 0.  1.
    8880023    1    1    2    0    0 -0.84715110354E+03  0.89641094936E+03  0.25055914496E+03  0.14204955733E+04  0.65864270000E+03 0.  0.
    8880022    1    1    2    0    0  0.84715110354E+03 -0.89641094936E+03  0.13212647079E+04  0.18139321001E+04  0.15294330000E+03 0.  0.
<mgrwt>
<rscale>  0 0.13576402E+04</rscale>
<asrwt>0</asrwt>
<pdfrwt beam="1">  1        2 0.36971166E+00 0.13982231E+04</pdfrwt>
<pdfrwt beam="2">  1       -2 0.12789260E+00 0.13982231E+04</pdfrwt>
<totfact> 0.17160939E+00</totfact>
</mgrwt>
</event>
<event>
 4    5  0.2473208E-007  0.7341551E+03  0.7818608E-02  0.9877312E-01
         -2   -1    0    0    0  501 -0.00000000000E+00  0.00000000000E+00  0.16542404220E+04  0.16542404220E+04  0.25500000000E-02 0.  1.
          2   -1    0    0  501    0  0.00000000000E+00 -0.00000000000E+00 -0.18890122877E+03  0.18890122879E+03  0.25500000000E-02 0. -1.
    8880023    1    1    2    0    0 -0.25355929051E+03 -0.20219111351E+03  0.78963472508E+03  0.10781960701E+04  0.65864270000E+03 0.  1.
    8880022    1    1    2    0    0  0.25355929051E+03  0.20219111351E+03  0.67570446820E+03  0.76494558077E+03  0.15294330000E+03 0.  0.
<mgrwt>
<rscale>  0 0.61373560E+03</rscale>
<asrwt>0</asrwt>
<pdfrwt beam="1">  1        2 0.29061727E-01 0.73415514E+03</pdfrwt>
<pdfrwt beam="2">  1       -2 0.25449853E+00 0.73415514E+03</pdfrwt>
<totfact> 0.11446261E+01</totfact>
</mgrwt>
</event>
<event>
 4    5  0.2473208E-007  0.1159338E+04  0.7818608E-02  0.9197699E-01
          2   -1    0    0  501    0  0.00000000000E+00  0.00000000000E+00  0.30923082902E+04  0.30923082902E+04  0.25500000000E-02 0. -1.
         -2   -1    0    0    0  501 -0.00000000000E+00 -0.00000000000E+00 -0.43000278149E+03  0.43000278150E+03  0.25500000000E-02 0.  1.
    8880023    1    1    2    0    0  0.63746436641E+02  0.95194065964E+03  0.21147773697E+04  0.24117106289E+04  0.65864270000E+03 0.  0.
    8880022    1    1    2    0    0 -0.63746436641E+02 -0.95194065964E+03  0.54752813901E+03  0.11106004429E+04  0.15294330000E+03 0.  0.
<mgrwt>
<rscale>  0 0.11077210E+04</rscale>
<asrwt>0</asrwt>
<pdfrwt beam="1">  1        2 0.47573975E+00 0.11593381E+04</pdfrwt>
<pdfrwt beam="2">  1       -2 0.66154272E-01 0.11593381E+04</pdfrwt>
<totfact> 0.32065928E+00</totfact>
</mgrwt>
</event>
<event>
 4    5  0.2473208E-007  0.7898792E+03  0.7818608E-02  0.9733122E-01
          2   -1    0    0  501    0  0.00000000000E+00  0.00000000000E+00  0.28192222505E+04  0.28192222505E+04  0.25500000000E-02 0. -1.
         -2   -1    0    0    0  501 -0.00000000000E+00 -0.00000000000E+00 -0.26406812214E+03  0.26406812215E+03  0.25500000000E-02 0.  1.
    8880023    1    1    2    0    0  0.41285277330E+03 -0.14018367129E+03  0.41195670642E+03  0.89085206872E+03  0.65864270000E+03 0.  1.
    8880022    1    1    2    0    0 -0.41285277330E+03  0.14018367129E+03  0.21431974219E+04  0.21924383039E+04  0.15294330000E+03 0.  0.
<mgrwt>
<rscale>  0 0.69078487E+03</rscale>
<asrwt>0</asrwt>
<pdfrwt beam="1">  1        2 0.43372652E+00 0.78987916E+03</pdfrwt>
<pdfrwt beam="2">  1       -2 0.40625863E-01 0.78987916E+03</pdfrwt>
<totfact> 0.13551934E+01</totfact>
</mgrwt>
</event>
<event>
 4    5  0.2473208E-007  0.1252711E+04  0.7818608E-02  0.9107512E-01
          2   -1    0    0  501    0  0.00000000000E+00  0.00000000000E+00  0.10721733268E+04  0.10721733268E+04  0.25500000000E-02 0. -1.
         -2   -1    0    0    0  501 -0.00000000000E+00 -0.00000000000E+00 -0.19577104294E+04  0.19577104294E+04  0.25500000000E-02 0.  1.
    8880023    1    1    2    0    0  0.10410249133E+04 -0.22746918363E+03 -0.13638865812E+04  0.18518833419E+04  0.65864270000E+03 0.  0.
    8880022    1    1    2    0    0 -0.10410249133E+04  0.22746918363E+03  0.47834947852E+03  0.11780004143E+04  0.15294330000E+03 0.  0.
<mgrwt>
<rscale>  0 0.12061252E+04</rscale>
<asrwt>0</asrwt>
<pdfrwt beam="1">  1        2 0.16494974E+00 0.12527112E+04</pdfrwt>
<pdfrwt beam="2">  1       -2 0.30118622E+00 0.12527112E+04</pdfrwt>
<totfact> 0.68841941E-01</totfact>
</mgrwt>
</event>
<event>
 4    5  0.2473208E-007  0.1133785E+04  0.7818608E-02  0.9224341E-01
         -2   -1    0    0    0  501 -0.00000000000E+00  0.00000000000E+00  0.48328405880E+03  0.48328405881E+03  0.25500000000E-02 0.  1.
          2   -1    0    0  501    0  0.00000000000E+00 -0.00000000000E+00 -0.28530365918E+04  0.28530365918E+04  0.25500000000E-02 0. -1.
    8880023    1    1    2    0    0 -0.59980406469E+03 -0.70135127026E+03 -0.48693051520E+03  0.12339246546E+04  0.65864270000E+03 0.  1.
    8880022    1    1    2    0    0  0.59980406469E+03  0.70135127026E+03 -0.18828220177E+04  0.21023959960E+04  0.15294330000E+03 0. -1.
<mgrwt>
<rscale>  0 0.10805682E+04</rscale>
<asrwt>0</asrwt>
<pdfrwt beam="1">  1        2 0.43892870E+00 0.11337851E+04</pdfrwt>
<pdfrwt beam="2">  1       -2 0.74351395E-01 0.11337851E+04</pdfrwt>
<totfact> 0.34949813E+00</totfact>
</mgrwt>
</event>
<event>
 4    5  0.2473208E-007  0.7619286E+03  0.7818608E-02  0.9800140E-01
         -2   -1    0    0    0  501 -0.00000000000E+00  0.00000000000E+00  0.35386731197E+03  0.35386731198E+03  0.25500000000E-02 0.  1.
          2   -1    0    0  501    0  0.00000000000E+00 -0.00000000000E+00 -0.29333864679E+04  0.29333864679E+04  0.25500000000E-02 0. -1.
    8880023    1    1    2    0    0  0.37217059255E+03 -0.90630988575E+02 -0.93953273492E+02  0.76769938772E+03  0.65864270000E+03 0.  0.
    8880022    1    1    2    0    0 -0.37217059255E+03  0.90630988575E+02 -0.24855658824E+04  0.25195543921E+04  0.15294330000E+03 0.  0.
<mgrwt>
<rscale>  0 0.65355030E+03</rscale>
<asrwt>0</asrwt>
<pdfrwt beam="1">  1        2 0.45129021E+00 0.76192856E+03</pdfrwt>
<pdfrwt beam="2">  1       -2 0.54441127E-01 0.76192856E+03</pdfrwt>
<totfact> 0.64533932E+00</totfact>
</mgrwt>
</event>
<event>
 4    5  0.2473208E-007  0.8464862E+03  0.7818608E-02  0.9618069E-01
         -2   -1    0    0    0  501 -0.00000000000E+00  0.00000000000E+00  0.55603240625E+03  0.55603240625E+03  0.25500000000E-02 0.  1.
          2   -1    0    0  501    0  0.00000000000E+00 -0.00000000000E+00 -0.16148463505E+04  0.16148463505E+04  0.25500000000E-02 0. -1.
    8880023    1    1    2    0    0  0.10426956821E+03  0.52139856039E+03  0.13302715643E+03  0.85687515557E+03  0.65864270000E+03 0.  1.
    8880022    1    1    2    0    0 -0.10426956821E+03 -0.52139856039E+03 -0.11918411007E+04  0.13140036012E+04  0.15294330000E+03 0.  0.
<mgrwt>
<rscale>  0 0.76111696E+03</rscale>
<asrwt>0</asrwt>
<pdfrwt beam="1">  1        2 0.24843790E+00 0.84648615E+03</pdfrwt>
<pdfrwt beam="2">  1       -2 0.85543448E-01 0.84648615E+03</pdfrwt>
<totfact> 0.13176795E+01</totfact>
</mgrwt>
</event>
<event>
 4    5  0.2473208E-007  0.6664146E+03  0.7818608E-02  0.1018375E+00
          2   -1    0    0  501    0  0.00000000000E+00  0.00000000000E+00  0.19651843062E+04  0.19651843062E+04  0.25500000000E-02 0. -1.
         -2   -1    0    0    0  501 -0.00000000000E+00 -0.00000000000E+00 -0.49634146872E+03  0.49634146873E+03  0.25500000000E-02 0.  1.
    8880023    1    1    2    0    0 -0.36496710257E+02  0.94690108637E+02 -0.26560410602E+03  0.71739387643E+03  0.65864270000E+03 0.  1.
    8880022    1    1    2    0    0  0.36496710257E+02 -0.94690108637E+02  0.17344469435E+04  0.17441318985E+04  0.15294330000E+03 0.  0.
<mgrwt>
<rscale>  0 0.48277616E+03</rscale>
<asrwt>0</asrwt>
<pdfrwt beam="1">  1        2 0.30233605E+00 0.66641461E+03</pdfrwt>
<pdfrwt beam="2">  1       -2 0.76360226E-01 0.66641461E+03</pdfrwt>
<totfact> 0.11234743E+01</totfact>
</mgrwt>
</event>
<event>
 4    5  0.2473208E-007  0.9083305E+03  0.7818608E-02  0.9512789E-01
         -2   -1    0    0    0  501 -0.00000000000E+00  0.00000000000E+00  0.26291728089E+03  0.26291728090E+03  0.25500000000E-02 0.  1.
          2   -1    0    0  501    0  0.00000000000E+00 -0.00000000000E+00 -0.27854436924E+04  0.27854436924E+04  0.25500000000E-02 0. -1.
    8880023    1    1    2    0    0  0.43531769588E+03  0.44916884254E+03 -0.80359930266E+03  0.12127803556E+04  0.65864270000E+03 0.  1.
    8880022    1    1    2    0    0 -0.43531769588E+03 -0.44916884254E+03 -0.17189271089E+04  0.18355806177E+04  0.15294330000E+03 0.  0.
<mgrwt>
<rscale>  0 0.83347503E+03</rscale>
<asrwt>0</asrwt>
<pdfrwt beam="1">  1        2 0.42852978E+00 0.90833053E+03</pdfrwt>
<pdfrwt beam="2">  1       -2 0.40448814E-01 0.90833053E+03</pdfrwt>
<totfact> 0.14065787E+01</totfact>
</mgrwt>
</event>
<event>
 4    5  0.2473208E-007  0.8819493E+03  0.7818608E-02  0.9555653E-01
          2   -1    0    0  501    0  0.00000000000E+00  0.00000000000E+00  0.29156078585E+04  0.29156078585E+04  0.25500000000E-02 0. -1.
         -2   -1    0    0    0  501 -0.00000000000E+00 -0.00000000000E+00 -0.62957911585E+03  0.62957911586E+03  0.25500000000E-02 0.  1.
    8880023    1    1    2    0    0  0.35046211684E+03  0.47031965849E+03 -0.26676938688E+03  0.92141217082E+03  0.65864270000E+03 0.  1.
    8880022    1    1    2    0    0 -0.35046211684E+03 -0.47031965849E+03  0.25527981296E+04  0.26237748036E+04  0.15294330000E+03 0.  0.
<mgrwt>
<rscale>  0 0.80302200E+03</rscale>
<asrwt>0</asrwt>
<pdfrwt beam="1">  1        2 0.44855505E+00 0.88194925E+03</pdfrwt>
<pdfrwt beam="2">  1       -2 0.96858326E-01 0.88194925E+03</pdfrwt>
<totfact> 0.18161994E+00</totfact>
</mgrwt>
</event>
<event>
 4    5  0.2473208E-007  0.1314562E+04  0.7818608E-02  0.9053086E-01
         -2   -1    0    0    0  501 -0.00000000000E+00  0.00000000000E+00  0.16556129718E+04  0.16556129718E+04  0.25500000000E-02 0.  1.
          2   -1    0    0  501    0  0.00000000000E+00 -0.00000000000E+00 -0.21234221566E+04  0.21234221566E+04  0.25500000000E-02 0. -1.
    8880023    1    1    2    0    0  0.11290655728E+04 -0.13954582570E+03  0.11829101959E+04  0.17684311813E+04  0.65864270000E+03 0.  1.
    8880022    1    1    2    0    0 -0.11290655728E+04  0.13954582570E+03 -0.16507193807E+04  0.20106039471E+04  0.15294330000E+03 0.  0.
<mgrwt>
<rscale>  0 0.12707522E+04</rscale>
<asrwt>0</asrwt>
<pdfrwt beam="1">  1        2 0.32668033E+00 0.13145616E+04</pdfrwt>
<pdfrwt beam="2">  1       -2 0.25470969E+00 0.13145616E+04</pdfrwt>
<totfact> 0.32863379E-01</totfact>
</mgrwt>
</event>
<event>
 4    5  0.2473208E-007  0.1096550E+04  0.7818608E-02  0.9264907E-01
         -2   -1    0    0    0  501 -0.00000000000E+00  0.00000000000E+00  0.27006536822E+04  0.27006536822E+04  0.25500000000E-02 0.  1.
          2   -1    0    0  501    0  0.00000000000E+00 -0.00000000000E+00 -0.15032595467E+04  0.15032595467E+04  0.25500000000E-02 0. -1.
    8880023    1    1    2    0    0 -0.57260715836E+03 -0.66387668531E+03  0.24402420997E+04  0.26752949226E+04  0.65864270000E+03 0.  0.
    8880022    1    1    2    0    0  0.57260715836E+03  0.66387668531E+03 -0.12428479643E+04  0.15286183063E+04  0.15294330000E+03 0.  0.
<mgrwt>
<rscale>  0 0.10407876E+04</rscale>
<asrwt>0</asrwt>
<pdfrwt beam="1">  1        2 0.23127070E+00 0.10965498E+04</pdfrwt>
<pdfrwt beam="2">  1       -2 0.41548518E+00 0.10965498E+04</pdfrwt>
<totfact> 0.74307308E-02</totfact>
</mgrwt>
</event>
<event>
 4    5  0.2473208E-007  0.8504988E+03  0.7818608E-02  0.9610693E-01
          2   -1    0    0  501    0  0.00000000000E+00  0.00000000000E+00  0.90044598302E+03  0.90044598302E+03  0.25500000000E-02 0. -1.
         -2   -1    0    0    0  501 -0.00000000000E+00 -0.00000000000E+00 -0.13173627290E+04  0.13173627290E+04  0.25500000000E-02 0.  1.
    8880023    1    1    2    0    0 -0.13501867959E+03 -0.52087226604E+03 -0.10641941403E+04  0.13622985487E+04  0.65864270000E+03 0.  1.
    8880022    1    1    2    0    0  0.13501867959E+03  0.52087226604E+03  0.64727739430E+03  0.85551016332E+03  0.15294330000E+03 0.  0.
<mgrwt>
<rscale>  0 0.76592475E+03</rscale>
<asrwt>0</asrwt>
<pdfrwt beam="1">  1        2 0.13853015E+00 0.85049878E+03</pdfrwt>
<pdfrwt beam="2">  1       -2 0.20267119E+00 0.85049878E+03</pdfrwt>
<totfact> 0.37796589E+00</totfact>
</mgrwt>
</event>
<event>
 4    5  0.3020048E-007  0.1203499E+04  0.7818608E-02  0.9153729E-01
          2   -1    0    0  501    0  0.00000000000E+00  0.00000000000E+00  0.26454130479E+04  0.26454130479E+04  0.25500000000E-02 0. -1.
         -2   -1    0    0    0  501 -0.00000000000E+00 -0.00000000000E+00 -0.10022657527E+04  0.10022657527E+04  0.25500000000E-02 0.  1.
    8880023    1    1    2    0    0  0.83546255122E+03 -0.56267383288E+03 -0.47767868186E+03  0.12948307403E+04  0.65864270000E+03 0.  0.
    8880022    1    1    2    0    0 -0.83546255122E+03  0.56267383288E+03  0.21208259771E+04  0.23528480603E+04  0.15294330000E+03 0.  0.
<mgrwt>
<rscale>  0 0.11544058E+04</rscale>
<asrwt>0</asrwt>
<pdfrwt beam="1">  1        2 0.40698662E+00 0.12034990E+04</pdfrwt>
<pdfrwt beam="2">  1       -2 0.15419473E+00 0.12034990E+04</pdfrwt>
<totfact> 0.77964163E-01</totfact>
</mgrwt>
</event>
<event>
 4    5  0.2473208E-007  0.1807766E+04  0.7818608E-02  0.8718253E-01
         -2   -1    0    0    0  501 -0.00000000000E+00  0.00000000000E+00  0.27329460863E+04  0.27329460863E+04  0.25500000000E-02 0.  1.
          2   -1    0    0  501    0  0.00000000000E+00 -0.00000000000E+00 -0.18461114469E+04  0.18461114469E+04  0.25500000000E-02 0. -1.
    8880023    1    1    2    0    0  0.93746568778E+03  0.13983434352E+04  0.18883818087E+04  0.26141924834E+04  0.65864270000E+03 0.  0.
    8880022    1    1    2    0    0 -0.93746568778E+03 -0.13983434352E+04 -0.10015471693E+04  0.19648650498E+04  0.15294330000E+03 0.  0.
<mgrwt>
<rscale>  0 0.17776929E+04</rscale>
<asrwt>0</asrwt>
<pdfrwt beam="1">  1        2 0.28401714E+00 0.18077656E+04</pdfrwt>
<pdfrwt beam="2">  1       -2 0.42045325E+00 0.18077656E+04</pdfrwt>
<totfact> 0.40088884E-02</totfact>
</mgrwt>
</event>
<event>
 4    5  0.2473208E-007  0.1470012E+04  0.7818608E-02  0.8931107E-01
         -2   -1    0    0    0  501 -0.00000000000E+00  0.00000000000E+00  0.24317155372E+04  0.24317155372E+04  0.25500000000E-02 0.  1.
          2   -1    0    0  501    0  0.00000000000E+00 -0.00000000000E+00 -0.16235256628E+04  0.16235256628E+04  0.25500000000E-02 0. -1.
    8880023    1    1    2    0    0  0.12788362382E+04 -0.30282471933E+03  0.18559176191E+04  0.23675652789E+04  0.65864270000E+03 0.  0.
    8880022    1    1    2    0    0 -0.12788362382E+04  0.30282471933E+03 -0.10477277446E+04  0.16876759211E+04  0.15294330000E+03 0.  0.
<mgrwt>
<rscale>  0 0.14318134E+04</rscale>
<asrwt>0</asrwt>
<pdfrwt beam="1">  1        2 0.24977318E+00 0.14700120E+04</pdfrwt>
<pdfrwt beam="2">  1       -2 0.37411008E+00 0.14700120E+04</pdfrwt>
<totfact> 0.11173034E-01</totfact>
</mgrwt>
</event>
<event>
 4    5  0.2473208E-007  0.1331873E+04  0.7818608E-02  0.9038513E-01
         -2   -1    0    0    0  501 -0.00000000000E+00  0.00000000000E+00  0.23309154199E+04  0.23309154199E+04  0.25500000000E-02 0.  1.
          2   -1    0    0  501    0  0.00000000000E+00 -0.00000000000E+00 -0.92362100700E+03  0.92362100700E+03  0.25500000000E-02 0. -1.
    8880023    1    1    2    0    0  0.22927798917E+03 -0.11346834333E+04 -0.11403842166E+03  0.13367459961E+04  0.65864270000E+03 0. -1.
    8880022    1    1    2    0    0 -0.22927798917E+03  0.11346834333E+04  0.15213328345E+04  0.19177904308E+04  0.15294330000E+03 0.  0.
<mgrwt>
<rscale>  0 0.12887765E+04</rscale>
<asrwt>0</asrwt>
<pdfrwt beam="1">  1        2 0.14209554E+00 0.13318728E+04</pdfrwt>
<pdfrwt beam="2">  1       -2 0.35860236E+00 0.13318728E+04</pdfrwt>
<totfact> 0.37578187E-01</totfact>
</mgrwt>
</event>
<event>
 4    5  0.2473208E-007  0.1080171E+04  0.7818608E-02  0.9283461E-01
          2   -1    0    0  501    0  0.00000000000E+00  0.00000000000E+00  0.85911692212E+03  0.85911692212E+03  0.25500000000E-02 0. -1.
         -2   -1    0    0    0  501 -0.00000000000E+00 -0.00000000000E+00 -0.18094091589E+04  0.18094091589E+04  0.25500000000E-02 0.  1.
    8880023    1    1    2    0    0 -0.51743115224E+03  0.68207299291E+03 -0.13352447331E+04  0.17174537165E+04  0.65864270000E+03 0.  0.
    8880022    1    1    2    0    0  0.51743115224E+03 -0.68207299291E+03  0.38495249634E+03  0.95107236445E+03  0.15294330000E+03 0.  0.
<mgrwt>
<rscale>  0 0.10231980E+04</rscale>
<asrwt>0</asrwt>
<pdfrwt beam="1">  1        2 0.13217183E+00 0.10801707E+04</pdfrwt>
<pdfrwt beam="2">  1       -2 0.27837064E+00 0.10801707E+04</pdfrwt>
<totfact> 0.13357424E+00</totfact>
</mgrwt>
</event>
<event>
 4    5  0.2473208E-007  0.6642595E+03  0.7818608E-02  0.1020163E+00
         -2   -1    0    0    0  501 -0.00000000000E+00  0.00000000000E+00  0.16513704909E+04  0.16513704909E+04  0.25500000000E-02 0.  1.
          2   -1    0    0  501    0  0.00000000000E+00 -0.00000000000E+00 -0.10678240435E+03  0.10678240438E+03  0.25500000000E-02 0. -1.
    8880023    1    1    2    0    0 -0.85590763393E+02 -0.10231695331E+02  0.12276006528E+04  0.13957951266E+04  0.65864270000E+03 0.  0.
    8880022    1    1    2    0    0  0.85590763393E+02  0.10231695331E+02  0.31698743378E+03  0.36235776873E+03  0.15294330000E+03 0.  1.
<mgrwt>
<rscale>  0 0.47627868E+03</rscale>
<asrwt>0</asrwt>
<pdfrwt beam="1">  1        2 0.16428063E-01 0.66425949E+03</pdfrwt>
<pdfrwt beam="2">  1       -2 0.25405698E+00 0.66425949E+03</pdfrwt>
<totfact> 0.22567464E+01</totfact>
</mgrwt>
</event>
<event>
 4    5  0.2473208E-007  0.1309403E+04  0.7818608E-02  0.9057482E-01
         -2   -1    0    0    0  501 -0.00000000000E+00  0.00000000000E+00  0.20869204012E+04  0.20869204012E+04  0.25500000000E-02 0.  1.
          2   -1    0    0  501    0  0.00000000000E+00 -0.00000000000E+00 -0.16924239624E+04  0.16924239624E+04  0.25500000000E-02 0. -1.
    8880023    1    1    2    0    0  0.11314964118E+04 -0.21001107886E+02  0.16340346593E+04  0.20939447582E+04  0.65864270000E+03 0.  0.
    8880022    1    1    2    0    0 -0.11314964118E+04  0.21001107886E+02 -0.12395382205E+04  0.16853996053E+04  0.15294330000E+03 0.  0.
<mgrwt>
<rscale>  0 0.12653757E+04</rscale>
<asrwt>0</asrwt>
<pdfrwt beam="1">  1        2 0.26037292E+00 0.13094027E+04</pdfrwt>
<pdfrwt beam="2">  1       -2 0.32106468E+00 0.13094027E+04</pdfrwt>
<totfact> 0.22482136E-01</totfact>
</mgrwt>
</event>
<event>
 4    5  0.2473208E-007  0.1228281E+04  0.7818608E-02  0.9130110E-01
          2   -1    0    0  501    0  0.00000000000E+00  0.00000000000E+00  0.22351065114E+04  0.22351065114E+04  0.25500000000E-02 0. -1.
         -2   -1    0    0    0  501 -0.00000000000E+00 -0.00000000000E+00 -0.84000274752E+03  0.84000274752E+03  0.25500000000E-02 0.  1.
    8880023    1    1    2    0    0  0.39555253475E+03  0.95833312755E+03  0.15899906821E+04  0.20091651915E+04  0.65864270000E+03 0. -1.
    8880022    1    1    2    0    0 -0.39555253475E+03 -0.95833312755E+03 -0.19488691821E+03  0.10659440675E+04  0.15294330000E+03 0.  0.
<mgrwt>
<rscale>  0 0.11804871E+04</rscale>
<asrwt>0</asrwt>
<pdfrwt beam="1">  1        2 0.34386254E+00 0.12282811E+04</pdfrwt>
<pdfrwt beam="2">  1       -2 0.12923119E+00 0.12282811E+04</pdfrwt>
<totfact> 0.21182942E+00</totfact>
</mgrwt>
</event>
<event>
 4    5  0.2473208E-007  0.7992583E+03  0.7818608E-02  0.9712402E-01
          2   -1    0    0  501    0  0.00000000000E+00  0.00000000000E+00  0.10036885145E+04  0.10036885145E+04  0.25500000000E-02 0. -1.
         -2   -1    0    0    0  501 -0.00000000000E+00 -0.00000000000E+00 -0.12518503851E+04  0.12518503851E+04  0.25500000000E-02 0.  1.
    8880023    1    1    2    0    0  0.18674688088E+03 -0.41246717938E+03 -0.10515072452E+04  0.13207881225E+04  0.65864270000E+03 0.  0.
    8880022    1    1    2    0    0 -0.18674688088E+03  0.41246717938E+03  0.80334537456E+03  0.93475077717E+03  0.15294330000E+03 0.  0.
<mgrwt>
<rscale>  0 0.70283152E+03</rscale>
<asrwt>0</asrwt>
<pdfrwt beam="1">  1        2 0.15441362E+00 0.79925827E+03</pdfrwt>
<pdfrwt beam="2">  1       -2 0.19259237E+00 0.79925827E+03</pdfrwt>
<totfact> 0.37907432E+00</totfact>
</mgrwt>
</event>
<event>
 4    5  0.2473208E-007  0.7506583E+03  0.7818608E-02  0.9829922E-01
          2   -1    0    0  501    0  0.00000000000E+00  0.00000000000E+00  0.63267287673E+03  0.63267287674E+03  0.25500000000E-02 0. -1.
         -2   -1    0    0    0  501 -0.00000000000E+00 -0.00000000000E+00 -0.16221086356E+04  0.16221086356E+04  0.25500000000E-02 0.  1.
    8880023    1    1    2    0    0 -0.33339981735E+03  0.13609620271E+03 -0.14606904937E+04  0.16422863755E+04  0.65864270000E+03 0.  1.
    8880022    1    1    2    0    0  0.33339981735E+03 -0.13609620271E+03  0.47125473478E+03  0.61249513686E+03  0.15294330000E+03 0.  0.
<mgrwt>
<rscale>  0 0.63781202E+03</rscale>
<asrwt>0</asrwt>
<pdfrwt beam="1">  1        2 0.97334289E-01 0.75065826E+03</pdfrwt>
<pdfrwt beam="2">  1       -2 0.24955517E+00 0.75065826E+03</pdfrwt>
<totfact> 0.30965009E+00</totfact>
</mgrwt>
</event>
<event>
 4    5  0.2473208E-007  0.8438260E+03  0.7818608E-02  0.9623008E-01
         -2   -1    0    0    0  501 -0.00000000000E+00  0.00000000000E+00  0.14123043667E+04  0.14123043667E+04  0.25500000000E-02 0.  1.
          2   -1    0    0  501    0  0.00000000000E+00 -0.00000000000E+00 -0.13084883282E+04  0.13084883282E+04  0.25500000000E-02 0. -1.
    8880023    1    1    2    0    0  0.38584345322E+03 -0.35966219647E+03  0.12161734853E+04  0.14802432971E+04  0.65864270000E+03 0.  1.
    8880022    1    1    2    0    0 -0.38584345322E+03  0.35966219647E+03 -0.11123574468E+04  0.12405493978E+04  0.15294330000E+03 0.  0.
<mgrwt>
<rscale>  0 0.75791910E+03</rscale>
<asrwt>0</asrwt>
<pdfrwt beam="1">  1        2 0.20130590E+00 0.84382597E+03</pdfrwt>
<pdfrwt beam="2">  1       -2 0.21727760E+00 0.84382597E+03</pdfrwt>
<totfact> 0.17079191E+00</totfact>
</mgrwt>
</event>
<event>
 4    5  0.2473208E-007  0.8913913E+03  0.7818608E-02  0.9539995E-01
         -2   -1    0    0    0  501 -0.00000000000E+00  0.00000000000E+00  0.39501295128E+03  0.39501295129E+03  0.25500000000E-02 0.  1.
          2   -1    0    0  501    0  0.00000000000E+00 -0.00000000000E+00 -0.16802298214E+04  0.16802298214E+04  0.25500000000E-02 0. -1.
    8880023    1    1    2    0    0 -0.32898331208E+03 -0.50253177028E+03 -0.11244799730E+04  0.14349333140E+04  0.65864270000E+03 0. -1.
    8880022    1    1    2    0    0  0.32898331208E+03  0.50253177028E+03 -0.16073689714E+03  0.64030945869E+03  0.15294330000E+03 0.  0.
<mgrwt>
<rscale>  0 0.81398290E+03</rscale>
<asrwt>0</asrwt>
<pdfrwt beam="1">  1        2 0.25849689E+00 0.89139128E+03</pdfrwt>
<pdfrwt beam="2">  1       -2 0.60771224E-01 0.89139128E+03</pdfrwt>
<totfact> 0.25623742E+01</totfact>
</mgrwt>
</event>
<event>
 4    5  0.2473208E-007  0.1004798E+04  0.7818608E-02  0.9375307E-01
         -2   -1    0    0    0  501 -0.00000000000E+00  0.00000000000E+00  0.15887197420E+04  0.15887197420E+04  0.25500000000E-02 0.  1.
          2   -1    0    0  501    0  0.00000000000E+00 -0.00000000000E+00 -0.52678010995E+03  0.52678010996E+03  0.25500000000E-02 0. -1.
    8880023    1    1    2    0    0 -0.71999907956E+03 -0.23960600275E+03  0.84154370625E+03  0.13106546940E+04  0.65864270000E+03 0. -1.
    8880022    1    1    2    0    0  0.71999907956E+03  0.23960600275E+03  0.22039592577E+03  0.80484515793E+03  0.15294330000E+03 0.  0.
<mgrwt>
<rscale>  0 0.94136016E+03</rscale>
<asrwt>0</asrwt>
<pdfrwt beam="1">  1        2 0.81043096E-01 0.10047984E+04</pdfrwt>
<pdfrwt beam="2">  1       -2 0.24441841E+00 0.10047984E+04</pdfrwt>
<totfact> 0.40239828E+00</totfact>
</mgrwt>
</event>
<event>
 4    5  0.2473208E-007  0.7470808E+03  0.7818608E-02  0.9839781E-01
          2   -1    0    0  501    0  0.00000000000E+00  0.00000000000E+00  0.46529489509E+04  0.46529489509E+04  0.25500000000E-02 0. -1.
         -2   -1    0    0    0  501 -0.00000000000E+00 -0.00000000000E+00 -0.40338877871E+03  0.40338877871E+03  0.25500000000E-02 0.  1.
    8880023    1    1    2    0    0  0.14354838469E+03 -0.32204563005E+03 -0.41374321956E+02  0.74822561261E+03  0.65864270000E+03 0.  1.
    8880022    1    1    2    0    0 -0.14354838469E+03  0.32204563005E+03  0.42909344941E+04  0.43081121170E+04  0.15294330000E+03 0.  0.
<mgrwt>
<rscale>  0 0.63270659E+03</rscale>
<asrwt>0</asrwt>
<pdfrwt beam="1">  1        2 0.71583831E+00 0.74708081E+03</pdfrwt>
<pdfrwt beam="2">  1       -2 0.62059811E-01 0.74708081E+03</pdfrwt>
<totfact> 0.23990890E-01</totfact>
</mgrwt>
</event>
<event>
 4    5  0.2473208E-007  0.6616601E+03  0.7818608E-02  0.1022517E+00
          2   -1    0    0  501    0  0.00000000000E+00  0.00000000000E+00  0.15079143009E+04  0.15079143009E+04  0.25500000000E-02 0. -1.
         -2   -1    0    0    0  501 -0.00000000000E+00 -0.00000000000E+00 -0.52492371988E+03  0.52492371988E+03  0.25500000000E-02 0.  1.
    8880023    1    1    2    0    0 -0.54934832997E+02 -0.31080479488E+02 -0.30902783509E+03  0.73026860894E+03  0.65864270000E+03 0.  1.
    8880022    1    1    2    0    0  0.54934832997E+02  0.31080479488E+02  0.12920184161E+04  0.13025694119E+04  0.15294330000E+03 0.  0.
<mgrwt>
<rscale>  0 0.46789286E+03</rscale>
<asrwt>0</asrwt>
<pdfrwt beam="1">  1        2 0.23198682E+00 0.66166006E+03</pdfrwt>
<pdfrwt beam="2">  1       -2 0.80757495E-01 0.66166006E+03</pdfrwt>
<totfact> 0.17621504E+01</totfact>
</mgrwt>
</event>
<event>
 4    5  0.2473208E-007  0.9424706E+03  0.7818608E-02  0.9461031E-01
         -2   -1    0    0    0  501 -0.00000000000E+00  0.00000000000E+00  0.30931897902E+03  0.30931897903E+03  0.25500000000E-02 0.  1.
          2   -1    0    0  501    0  0.00000000000E+00 -0.00000000000E+00 -0.24259886230E+04  0.24259886230E+04  0.25500000000E-02 0. -1.
    8880023    1    1    2    0    0  0.21803941405E+03  0.63788668278E+03 -0.16534658103E+04  0.19032078179E+04  0.65864270000E+03 0.  0.
    8880022    1    1    2    0    0 -0.21803941405E+03 -0.63788668278E+03 -0.46320383370E+03  0.83209978411E+03  0.15294330000E+03 0.  0.
<mgrwt>
<rscale>  0 0.87218836E+03</rscale>
<asrwt>0</asrwt>
<pdfrwt beam="1">  1        2 0.37322901E+00 0.94247059E+03</pdfrwt>
<pdfrwt beam="2">  1       -2 0.47587537E-01 0.94247059E+03</pdfrwt>
<totfact> 0.16358011E+01</totfact>
</mgrwt>
</event>
<event>
 4    5  0.2473208E-007  0.1704319E+04  0.7818608E-02  0.8777396E-01
         -2   -1    0    0    0  501 -0.00000000000E+00  0.00000000000E+00  0.12253588065E+04  0.12253588065E+04  0.25500000000E-02 0.  1.
          2   -1    0    0  501    0  0.00000000000E+00 -0.00000000000E+00 -0.35189362916E+04  0.35189362916E+04  0.25500000000E-02 0. -1.
    8880023    1    1    2    0    0  0.15592170326E+04  0.19933856978E+03  0.27762694318E+03  0.17267832945E+04  0.65864270000E+03 0.  0.
    8880022    1    1    2    0    0 -0.15592170326E+04 -0.19933856978E+03 -0.25712044282E+04  0.30175118036E+04  0.15294330000E+03 0.  0.
<mgrwt>
<rscale>  0 0.16721740E+04</rscale>
<asrwt>0</asrwt>
<pdfrwt beam="1">  1        2 0.54137481E+00 0.17043192E+04</pdfrwt>
<pdfrwt beam="2">  1       -2 0.18851674E+00 0.17043192E+04</pdfrwt>
<totfact> 0.11566972E-01</totfact>
</mgrwt>
</event>
<event>
 4    5  0.2473208E-007  0.1103289E+04  0.7818608E-02  0.9257403E-01
          2   -1    0    0  501    0  0.00000000000E+00  0.00000000000E+00  0.15878152729E+04  0.15878152729E+04  0.25500000000E-02 0. -1.
         -2   -1    0    0    0  501 -0.00000000000E+00 -0.00000000000E+00 -0.68896864621E+03  0.68896864622E+03  0.25500000000E-02 0.  1.
    8880023    1    1    2    0    0  0.39278829543E+03  0.79319175573E+03  0.16226825505E+03  0.11151578360E+04  0.65864270000E+03 0.  0.
    8880022    1    1    2    0    0 -0.39278829543E+03 -0.79319175573E+03  0.73657837167E+03  0.11616260831E+04  0.15294330000E+03 0.  0.
<mgrwt>
<rscale>  0 0.10480077E+04</rscale>
<asrwt>0</asrwt>
<pdfrwt beam="1">  1        2 0.24427927E+00 0.11032887E+04</pdfrwt>
<pdfrwt beam="2">  1       -2 0.10599518E+00 0.11032887E+04</pdfrwt>
<totfact> 0.80220020E+00</totfact>
</mgrwt>
</event>
<event>
 4    5  0.2473208E-007  0.1070877E+04  0.7818608E-02  0.9294195E-01
          2   -1    0    0  501    0  0.00000000000E+00  0.00000000000E+00  0.77438650586E+03  0.77438650586E+03  0.25500000000E-02 0. -1.
         -2   -1    0    0    0  501 -0.00000000000E+00 -0.00000000000E+00 -0.25101225092E+04  0.25101225092E+04  0.25500000000E-02 0.  1.
    8880023    1    1    2    0    0  0.38775402180E+03 -0.75007666347E+03 -0.20960923230E+04  0.23538014818E+04  0.65864270000E+03 0.  0.
    8880022    1    1    2    0    0 -0.38775402180E+03  0.75007666347E+03  0.36035631966E+03  0.93070753335E+03  0.15294330000E+03 0.  0.
<mgrwt>
<rscale>  0 0.10131904E+04</rscale>
<asrwt>0</asrwt>
<pdfrwt beam="1">  1        2 0.11913639E+00 0.10708774E+04</pdfrwt>
<pdfrwt beam="2">  1       -2 0.38617269E+00 0.10708774E+04</pdfrwt>
<totfact> 0.33032581E-01</totfact>
</mgrwt>
</event>
<event>
 4    5  0.2473208E-007  0.1322091E+04  0.7818608E-02  0.9046714E-01
          2   -1    0    0  501    0  0.00000000000E+00  0.00000000000E+00  0.91202952436E+03  0.91202952436E+03  0.25500000000E-02 0. -1.
         -2   -1    0    0    0  501 -0.00000000000E+00 -0.00000000000E+00 -0.21379936541E+04  0.21379936541E+04  0.25500000000E-02 0.  1.
    8880023    1    1    2    0    0  0.15871400990E+03  0.11353078658E+04 -0.13467389390E+04  0.18872281429E+04  0.65864270000E+03 0.  0.
    8880022    1    1    2    0    0 -0.15871400990E+03 -0.11353078658E+04  0.12077480929E+03  0.11627950356E+04  0.15294330000E+03 0.  0.
<mgrwt>
<rscale>  0 0.12785948E+04</rscale>
<asrwt>0</asrwt>
<pdfrwt beam="1">  1        2 0.14031224E+00 0.13220909E+04</pdfrwt>
<pdfrwt beam="2">  1       -2 0.32892210E+00 0.13220909E+04</pdfrwt>
<totfact> 0.58730780E-01</totfact>
</mgrwt>
</event>
<event>
 4    5  0.2473208E-007  0.7117654E+03  0.7818608E-02  0.9951503E-01
         -2   -1    0    0    0  501 -0.00000000000E+00  0.00000000000E+00  0.34340749398E+03  0.34340749399E+03  0.25500000000E-02 0.  1.
          2   -1    0    0  501    0  0.00000000000E+00 -0.00000000000E+00 -0.14428512018E+04  0.14428512018E+04  0.25500000000E-02 0. -1.
    8880023    1    1    2    0    0 -0.26114390492E+03  0.67849895735E+02 -0.74777021921E+02  0.71568258097E+03  0.65864270000E+03 0.  1.
    8880022    1    1    2    0    0  0.26114390492E+03 -0.67849895735E+02 -0.10246666859E+04  0.10705761148E+04  0.15294330000E+03 0.  0.
<mgrwt>
<rscale>  0 0.57828866E+03</rscale>
<asrwt>0</asrwt>
<pdfrwt beam="1">  1        2 0.22197711E+00 0.71176538E+03</pdfrwt>
<pdfrwt beam="2">  1       -2 0.52831923E-01 0.71176538E+03</pdfrwt>
<totfact> 0.47388728E+01</totfact>
</mgrwt>
</event>
<event>
 4    5  0.2473208E-007  0.1004416E+04  0.7818608E-02  0.9375803E-01
          2   -1    0    0  501    0  0.00000000000E+00  0.00000000000E+00  0.29865453134E+04  0.29865453134E+04  0.25500000000E-02 0. -1.
         -2   -1    0    0    0  501 -0.00000000000E+00 -0.00000000000E+00 -0.11218057922E+04  0.11218057922E+04  0.25500000000E-02 0.  1.
    8880023    1    1    2    0    0 -0.33598810846E+03  0.67981787013E+03 -0.83112290680E+03  0.13036931533E+04  0.65864270000E+03 0.  1.
    8880022    1    1    2    0    0  0.33598810846E+03 -0.67981787013E+03  0.26958624280E+04  0.28046579523E+04  0.15294330000E+03 0.  0.
<mgrwt>
<rscale>  0 0.94093996E+03</rscale>
<asrwt>0</asrwt>
<pdfrwt beam="1">  1        2 0.45946850E+00 0.10044155E+04</pdfrwt>
<pdfrwt beam="2">  1       -2 0.17258551E+00 0.10044155E+04</pdfrwt>
<totfact> 0.36834804E-01</totfact>
</mgrwt>
</event>
<event>
 4    5  0.2473208E-007  0.9658592E+03  0.7818608E-02  0.9427654E-01
         -2   -1    0    0    0  501 -0.00000000000E+00  0.00000000000E+00  0.53973274954E+03  0.53973274955E+03  0.25500000000E-02 0.  1.
          2   -1    0    0  501    0  0.00000000000E+00 -0.00000000000E+00 -0.37715641698E+04  0.37715641698E+04  0.25500000000E-02 0. -1.
    8880023    1    1    2    0    0 -0.65117585714E+03 -0.27394118393E+03  0.33975008064E+02  0.96645655702E+03  0.65864270000E+03 0.  0.
    8880022    1    1    2    0    0  0.65117585714E+03  0.27394118393E+03 -0.32658064283E+04  0.33448403623E+04  0.15294330000E+03 0.  0.
<mgrwt>
<rscale>  0 0.89834376E+03</rscale>
<asrwt>0</asrwt>
<pdfrwt beam="1">  1        2 0.58024062E+00 0.96585919E+03</pdfrwt>
<pdfrwt beam="2">  1       -2 0.83035810E-01 0.96585919E+03</pdfrwt>
<totfact> 0.68912028E-01</totfact>
</mgrwt>
</event>
<event>
 4    5  0.2473208E-007  0.1328055E+04  0.7818608E-02  0.9041703E-01
         -2   -1    0    0    0  501 -0.00000000000E+00  0.00000000000E+00  0.17937157306E+04  0.17937157306E+04  0.25500000000E-02 0.  1.
          2   -1    0    0  501    0  0.00000000000E+00 -0.00000000000E+00 -0.19057696640E+04  0.19057696640E+04  0.25500000000E-02 0. -1.
    8880023    1    1    2    0    0 -0.15303116710E+03 -0.11430232068E+04  0.13078234687E+04  0.18639026318E+04  0.65864270000E+03 0.  1.
    8880022    1    1    2    0    0  0.15303116710E+03  0.11430232068E+04 -0.14198774020E+04  0.18355827628E+04  0.15294330000E+03 0.  0.
<mgrwt>
<rscale>  0 0.12848039E+04</rscale>
<asrwt>0</asrwt>
<pdfrwt beam="1">  1        2 0.29319533E+00 0.13280553E+04</pdfrwt>
<pdfrwt beam="2">  1       -2 0.27595627E+00 0.13280553E+04</pdfrwt>
<totfact> 0.32172063E-01</totfact>
</mgrwt>
</event>
<event>
 4    5  0.2473208E-007  0.9498652E+03  0.7818608E-02  0.9450308E-01
          2   -1    0    0  501    0  0.00000000000E+00  0.00000000000E+00  0.26659305477E+04  0.26659305477E+04  0.25500000000E-02 0. -1.
         -2   -1    0    0    0  501 -0.00000000000E+00 -0.00000000000E+00 -0.70203738421E+03  0.70203738422E+03  0.25500000000E-02 0.  1.
    8880023    1    1    2    0    0 -0.25364232618E+03  0.63568798580E+03 -0.30145141169E+03  0.99655245963E+03  0.65864270000E+03 0.  1.
    8880022    1    1    2    0    0  0.25364232618E+03 -0.63568798580E+03  0.22653445752E+04  0.23714154723E+04  0.15294330000E+03 0.  0.
<mgrwt>
<rscale>  0 0.88048676E+03</rscale>
<asrwt>0</asrwt>
<pdfrwt beam="1">  1        2 0.41014317E+00 0.94986518E+03</pdfrwt>
<pdfrwt beam="2">  1       -2 0.10800575E+00 0.94986518E+03</pdfrwt>
<totfact> 0.19473500E+00</totfact>
</mgrwt>
</event>
<event>
 4    5  0.2473208E-007  0.7356764E+03  0.7818608E-02  0.9872725E-01
          2   -1    0    0  501    0  0.00000000000E+00  0.00000000000E+00  0.37862800538E+04  0.37862800538E+04  0.25500000000E-02 0. -1.
         -2   -1    0    0    0  501 -0.00000000000E+00 -0.00000000000E+00 -0.25859287184E+03  0.25859287186E+03  0.25500000000E-02 0.  1.
    8880023    1    1    2    0    0 -0.16750239070E+03 -0.28169574867E+03  0.29596813297E+03  0.79297975239E+03  0.65864270000E+03 0.  1.
    8880022    1    1    2    0    0  0.16750239070E+03  0.28169574867E+03  0.32317190490E+04  0.32518931733E+04  0.15294330000E+03 0.  0.
<mgrwt>
<rscale>  0 0.61601541E+03</rscale>
<asrwt>0</asrwt>
<pdfrwt beam="1">  1        2 0.58250457E+00 0.73567639E+03</pdfrwt>
<pdfrwt beam="2">  1       -2 0.39783523E-01 0.73567639E+03</pdfrwt>
<totfact> 0.33104726E+00</totfact>
</mgrwt>
</event>
<event>
 4    5  0.2473208E-007  0.1496393E+04  0.7818608E-02  0.8912187E-01
          2   -1    0    0  501    0  0.00000000000E+00  0.00000000000E+00  0.23117393651E+04  0.23117393651E+04  0.25500000000E-02 0. -1.
         -2   -1    0    0    0  501 -0.00000000000E+00 -0.00000000000E+00 -0.15705593106E+04  0.15705593106E+04  0.25500000000E-02 0.  1.
    8880023    1    1    2    0    0  0.34264909540E+03 -0.12992203521E+04 -0.90740478599E+03  0.17500215936E+04  0.65864270000E+03 0.  0.
    8880022    1    1    2    0    0 -0.34264909540E+03  0.12992203521E+04  0.16485848405E+04  0.21322770822E+04  0.15294330000E+03 0.  0.
<mgrwt>
<rscale>  0 0.14589965E+04</rscale>
<asrwt>0</asrwt>
<pdfrwt beam="1">  1        2 0.35565221E+00 0.14963930E+04</pdfrwt>
<pdfrwt beam="2">  1       -2 0.24162451E+00 0.14963930E+04</pdfrwt>
<totfact> 0.30307184E-01</totfact>
</mgrwt>
</event>
<event>
 4    5  0.2473208E-007  0.1706498E+04  0.7818608E-02  0.8776101E-01
          2   -1    0    0  501    0  0.00000000000E+00  0.00000000000E+00  0.24053202956E+04  0.24053202956E+04  0.25500000000E-02 0. -1.
         -2   -1    0    0    0  501 -0.00000000000E+00 -0.00000000000E+00 -0.22815834005E+04  0.22815834005E+04  0.25500000000E-02 0.  1.
    8880023    1    1    2    0    0  0.11969402333E+04  0.10225755271E+04  0.17318183392E+04  0.24313230137E+04  0.65864270000E+03 0.  0.
    8880022    1    1    2    0    0 -0.11969402333E+04 -0.10225755271E+04 -0.16080814442E+04  0.22555806824E+04  0.15294330000E+03 0.  0.
<mgrwt>
<rscale>  0 0.16744000E+04</rscale>
<asrwt>0</asrwt>
<pdfrwt beam="1">  1        2 0.37004928E+00 0.17064984E+04</pdfrwt>
<pdfrwt beam="2">  1       -2 0.35101283E+00 0.17064984E+04</pdfrwt>
<totfact> 0.55337654E-02</totfact>
</mgrwt>
</event>
<event>
 4    5  0.2473208E-007  0.1695477E+04  0.7818608E-02  0.8782670E-01
         -2   -1    0    0    0  501 -0.00000000000E+00  0.00000000000E+00  0.28839025996E+04  0.28839025996E+04  0.25500000000E-02 0.  1.
          2   -1    0    0  501    0  0.00000000000E+00 -0.00000000000E+00 -0.98353086565E+03  0.98353086566E+03  0.25500000000E-02 0. -1.
    8880023    1    1    2    0    0  0.12480610626E+04 -0.93977505073E+03  0.14589151710E+04  0.22367559644E+04  0.65864270000E+03 0.  1.
    8880022    1    1    2    0    0 -0.12480610626E+04  0.93977505073E+03  0.44145656296E+03  0.16306775009E+04  0.15294330000E+03 0.  0.
<mgrwt>
<rscale>  0 0.16631410E+04</rscale>
<asrwt>0</asrwt>
<pdfrwt beam="1">  1        2 0.15131244E+00 0.16954774E+04</pdfrwt>
<pdfrwt beam="2">  1       -2 0.44367731E+00 0.16954774E+04</pdfrwt>
<totfact> 0.91647903E-02</totfact>
</mgrwt>
</event>
<event>
 4    5  0.2473208E-007  0.1434816E+04  0.7818608E-02  0.8957091E-01
         -2   -1    0    0    0  501 -0.00000000000E+00  0.00000000000E+00  0.19562315941E+04  0.19562315941E+04  0.25500000000E-02 0.  1.
          2   -1    0    0  501    0  0.00000000000E+00 -0.00000000000E+00 -0.18647130792E+04  0.18647130792E+04  0.25500000000E-02 0. -1.
    8880023    1    1    2    0    0 -0.22558669499E+03  0.12545907746E+04  0.13880310770E+04  0.19963285916E+04  0.65864270000E+03 0.  0.
    8880022    1    1    2    0    0  0.22558669499E+03 -0.12545907746E+04 -0.12965125621E+04  0.18246160816E+04  0.15294330000E+03 0.  0.
<mgrwt>
<rscale>  0 0.13954878E+04</rscale>
<asrwt>0</asrwt>
<pdfrwt beam="1">  1        2 0.28687893E+00 0.14348162E+04</pdfrwt>
<pdfrwt beam="2">  1       -2 0.30095871E+00 0.14348162E+04</pdfrwt>
<totfact> 0.23561466E-01</totfact>
</mgrwt>
</event>
<event>
 4    5  0.2473208E-007  0.7078729E+03  0.7818608E-02  0.9965986E-01
          2   -1    0    0  501    0  0.00000000000E+00  0.00000000000E+00  0.25780652799E+04  0.25780652799E+04  0.25500000000E-02 0. -1.
         -2   -1    0    0    0  501 -0.00000000000E+00 -0.00000000000E+00 -0.15067527205E+03  0.15067527207E+03  0.25500000000E-02 0.  1.
    8880023    1    1    2    0    0  0.24022332532E+03  0.97809071253E+02  0.77697298407E+03  0.10510809125E+04  0.65864270000E+03 0.  1.
    8880022    1    1    2    0    0 -0.24022332532E+03 -0.97809071253E+02  0.16504170238E+04  0.16776596395E+04  0.15294330000E+03 0.  0.
<mgrwt>
<rscale>  0 0.57167176E+03</rscale>
<asrwt>0</asrwt>
<pdfrwt beam="1">  1        2 0.39662545E+00 0.70787292E+03</pdfrwt>
<pdfrwt beam="2">  1       -2 0.23180810E-01 0.70787292E+03</pdfrwt>
<totfact> 0.53985810E+01</totfact>
</mgrwt>
</event>
<event>
 4    5  0.2473208E-007  0.7338636E+03  0.7818608E-02  0.9878196E-01
          2   -1    0    0  501    0  0.00000000000E+00  0.00000000000E+00  0.17756860582E+04  0.17756860582E+04  0.25500000000E-02 0. -1.
         -2   -1    0    0    0  501 -0.00000000000E+00 -0.00000000000E+00 -0.17029627326E+03  0.17029627328E+03  0.25500000000E-02 0.  1.
    8880023    1    1    2    0    0  0.31199500415E+03 -0.86050469558E+02  0.96511336751E+03  0.12124353939E+04  0.65864270000E+03 0.  1.
    8880022    1    1    2    0    0 -0.31199500415E+03  0.86050469558E+02  0.64027641743E+03  0.73354693760E+03  0.15294330000E+03 0. -1.
<mgrwt>
<rscale>  0 0.61329711E+03</rscale>
<asrwt>0</asrwt>
<pdfrwt beam="1">  1        2 0.27318246E+00 0.73386359E+03</pdfrwt>
<pdfrwt beam="2">  1       -2 0.26199427E-01 0.73386359E+03</pdfrwt>
<totfact> 0.11984759E+02</totfact>
</mgrwt>
</event>
<event>
 4    5  0.2473208E-007  0.6782840E+03  0.7818608E-02  0.1010311E+00
          2   -1    0    0  501    0  0.00000000000E+00  0.00000000000E+00  0.14266649188E+04  0.14266649188E+04  0.25500000000E-02 0. -1.
         -2   -1    0    0    0  501 -0.00000000000E+00 -0.00000000000E+00 -0.20249135435E+03  0.20249135437E+03  0.25500000000E-02 0.  1.
    8880023    1    1    2    0    0 -0.15898378490E+03 -0.31355648787E+02  0.42716469967E+03  0.80158524655E+03  0.65864270000E+03 0.  1.
    8880022    1    1    2    0    0  0.15898378490E+03  0.31355648787E+02  0.79700886481E+03  0.82757102667E+03  0.15294330000E+03 0.  0.
<mgrwt>
<rscale>  0 0.51351051E+03</rscale>
<asrwt>0</asrwt>
<pdfrwt beam="1">  1        2 0.21948690E+00 0.67828403E+03</pdfrwt>
<pdfrwt beam="2">  1       -2 0.31152517E-01 0.67828403E+03</pdfrwt>
<totfact> 0.13640186E+02</totfact>
</mgrwt>
</event>
<event>
 4    5  0.2473208E-007  0.6905584E+03  0.7818608E-02  0.1003888E+00
          2   -1    0    0  501    0  0.00000000000E+00  0.00000000000E+00  0.68231152649E+03  0.68231152649E+03  0.25500000000E-02 0. -1.
         -2   -1    0    0    0  501 -0.00000000000E+00 -0.00000000000E+00 -0.84748005242E+03  0.84748005242E+03  0.25500000000E-02 0.  1.
    8880023    1    1    2    0    0  0.19259444595E+03 -0.77253556989E+02 -0.67049270339E+03  0.96251306705E+03  0.65864270000E+03 0.  1.
    8880022    1    1    2    0    0 -0.19259444595E+03  0.77253556989E+02  0.50532417746E+03  0.56727851186E+03  0.15294330000E+03 0.  0.
<mgrwt>
<rscale>  0 0.53977671E+03</rscale>
<asrwt>0</asrwt>
<pdfrwt beam="1">  1        2 0.10497100E+00 0.69055843E+03</pdfrwt>
<pdfrwt beam="2">  1       -2 0.13038155E+00 0.69055843E+03</pdfrwt>
<totfact> 0.18607593E+01</totfact>
</mgrwt>
</event>
<event>
 4    5  0.2473208E-007  0.8345570E+03  0.7818608E-02  0.9640530E-01
          2   -1    0    0  501    0  0.00000000000E+00  0.00000000000E+00  0.11587478054E+04  0.11587478054E+04  0.25500000000E-02 0. -1.
         -2   -1    0    0    0  501 -0.00000000000E+00 -0.00000000000E+00 -0.13261961595E+04  0.13261961595E+04  0.25500000000E-02 0.  1.
    8880023    1    1    2    0    0  0.31706067619E+02  0.51153672899E+03 -0.11174687813E+04  0.13947120790E+04  0.65864270000E+03 0.  1.
    8880022    1    1    2    0    0 -0.31706067619E+02 -0.51153672899E+03  0.95002042725E+03  0.10902318859E+04  0.15294330000E+03 0.  0.
<mgrwt>
<rscale>  0 0.74670732E+03</rscale>
<asrwt>0</asrwt>
<pdfrwt beam="1">  1        2 0.17826889E+00 0.83455695E+03</pdfrwt>
<pdfrwt beam="2">  1       -2 0.20403018E+00 0.83455695E+03</pdfrwt>
<totfact> 0.25454900E+00</totfact>
</mgrwt>
</event>
<event>
 4    5  0.2473208E-007  0.8759423E+03  0.7818608E-02  0.9565811E-01
         -2   -1    0    0    0  501 -0.00000000000E+00  0.00000000000E+00  0.61140793001E+03  0.61140793001E+03  0.25500000000E-02 0.  1.
          2   -1    0    0  501    0  0.00000000000E+00 -0.00000000000E+00 -0.94174894037E+03  0.94174894038E+03  0.25500000000E-02 0. -1.
    8880023    1    1    2    0    0  0.54384500836E+03 -0.19415784531E+03 -0.11497631873E+02  0.87601773031E+03  0.65864270000E+03 0.  1.
    8880022    1    1    2    0    0 -0.54384500836E+03  0.19415784531E+03 -0.31884337849E+03  0.67713914008E+03  0.15294330000E+03 0.  0.
<mgrwt>
<rscale>  0 0.79600957E+03</rscale>
<asrwt>0</asrwt>
<pdfrwt beam="1">  1        2 0.14488445E+00 0.87594227E+03</pdfrwt>
<pdfrwt beam="2">  1       -2 0.94062758E-01 0.87594227E+03</pdfrwt>
<totfact> 0.26335120E+01</totfact>
</mgrwt>
</event>
<event>
 4    5  0.2473208E-007  0.6923885E+03  0.7818608E-02  0.1003037E+00
          2   -1    0    0  501    0  0.00000000000E+00  0.00000000000E+00  0.12764845436E+04  0.12764845436E+04  0.25500000000E-02 0. -1.
         -2   -1    0    0    0  501 -0.00000000000E+00 -0.00000000000E+00 -0.49705516149E+03  0.49705516150E+03  0.25500000000E-02 0.  1.
    8880023    1    1    2    0    0  0.81675080462E+02  0.19728360803E+03 -0.23070917950E+03  0.72981406710E+03  0.65864270000E+03 0.  1.
    8880022    1    1    2    0    0 -0.81675080462E+02 -0.19728360803E+03  0.10101385617E+04  0.10437256380E+04  0.15294330000E+03 0.  0.
<mgrwt>
<rscale>  0 0.54338216E+03</rscale>
<asrwt>0</asrwt>
<pdfrwt beam="1">  1        2 0.19638224E+00 0.69238851E+03</pdfrwt>
<pdfrwt beam="2">  1       -2 0.76470025E-01 0.69238851E+03</pdfrwt>
<totfact> 0.26791085E+01</totfact>
</mgrwt>
</event>
<event>
 4    5  0.2473208E-007  0.7446858E+03  0.7818608E-02  0.9846502E-01
          2   -1    0    0  501    0  0.00000000000E+00  0.00000000000E+00  0.11120640948E+04  0.11120640948E+04  0.25500000000E-02 0. -1.
         -2   -1    0    0    0  501 -0.00000000000E+00 -0.00000000000E+00 -0.56433810141E+03  0.56433810141E+03  0.25500000000E-02 0.  1.
    8880023    1    1    2    0    0 -0.69344296211E+02 -0.34049676832E+03 -0.25604796728E+03  0.78747536372E+03  0.65864270000E+03 0.  1.
    8880022    1    1    2    0    0  0.69344296211E+02  0.34049676832E+03  0.80377396063E+03  0.88892683245E+03  0.15294330000E+03 0.  0.
<mgrwt>
<rscale>  0 0.62925580E+03</rscale>
<asrwt>0</asrwt>
<pdfrwt beam="1">  1        2 0.17108678E+00 0.74468576E+03</pdfrwt>
<pdfrwt beam="2">  1       -2 0.86821247E-01 0.74468576E+03</pdfrwt>
<totfact> 0.25032991E+01</totfact>
</mgrwt>
</event>
<event>
 4    5  0.2473208E-007  0.1789188E+04  0.7818608E-02  0.8728541E-01
          2   -1    0    0  501    0  0.00000000000E+00  0.00000000000E+00  0.20963137591E+04  0.20963137591E+04  0.25500000000E-02 0. -1.
         -2   -1    0    0    0  501 -0.00000000000E+00 -0.00000000000E+00 -0.22409098374E+04  0.22409098374E+04  0.25500000000E-02 0.  1.
    8880023    1    1    2    0    0  0.13502485435E+02  0.16634905911E+04 -0.13799410478E+04  0.22595200299E+04  0.65864270000E+03 0.  1.
    8880022    1    1    2    0    0 -0.13502485435E+02 -0.16634905911E+04  0.12353449695E+04  0.20777035666E+04  0.15294330000E+03 0.  0.
<mgrwt>
<rscale>  0 0.17587640E+04</rscale>
<asrwt>0</asrwt>
<pdfrwt beam="1">  1        2 0.32250981E+00 0.17891879E+04</pdfrwt>
<pdfrwt beam="2">  1       -2 0.34475536E+00 0.17891879E+04</pdfrwt>
<totfact> 0.89901984E-02</totfact>
</mgrwt>
</event>
<event>
 4    5  0.2473208E-007  0.8026396E+03  0.7818608E-02  0.9705117E-01
          2   -1    0    0  501    0  0.00000000000E+00  0.00000000000E+00  0.87008343692E+03  0.87008343692E+03  0.25500000000E-02 0. -1.
         -2   -1    0    0    0  501 -0.00000000000E+00 -0.00000000000E+00 -0.94023704758E+03  0.94023704759E+03  0.25500000000E-02 0.  1.
    8880023    1    1    2    0    0 -0.33870748541E+03 -0.30934998746E+03 -0.66599173306E+03  0.10429647023E+04  0.65864270000E+03 0.  0.
    8880022    1    1    2    0    0  0.33870748541E+03  0.30934998746E+03  0.59583812240E+03  0.76735578224E+03  0.15294330000E+03 0.  0.
<mgrwt>
<rscale>  0 0.70712918E+03</rscale>
<asrwt>0</asrwt>
<pdfrwt beam="1">  1        2 0.13385899E+00 0.80263963E+03</pdfrwt>
<pdfrwt beam="2">  1       -2 0.14465185E+00 0.80263963E+03</pdfrwt>
<totfact> 0.10243072E+01</totfact>
</mgrwt>
</event>
<event>
 4    5  0.2473208E-007  0.8193010E+03  0.7818608E-02  0.9670519E-01
         -2   -1    0    0    0  501 -0.00000000000E+00  0.00000000000E+00  0.67818608894E+03  0.67818608894E+03  0.25500000000E-02 0.  1.
          2   -1    0    0  501    0  0.00000000000E+00 -0.00000000000E+00 -0.73166700619E+03  0.73166700620E+03  0.25500000000E-02 0. -1.
    8880023    1    1    2    0    0 -0.30139654648E+03  0.38288913719E+03  0.19456035740E+03  0.84208545204E+03  0.65864270000E+03 0.  1.
    8880022    1    1    2    0    0  0.30139654648E+03 -0.38288913719E+03 -0.24804127465E+03  0.56776764310E+03  0.15294330000E+03 0. -1.
<mgrwt>
<rscale>  0 0.72799515E+03</rscale>
<asrwt>0</asrwt>
<pdfrwt beam="1">  1        2 0.11256415E+00 0.81930103E+03</pdfrwt>
<pdfrwt beam="2">  1       -2 0.10433632E+00 0.81930103E+03</pdfrwt>
<totfact> 0.29125680E+01</totfact>
</mgrwt>
</event>
<event>
 4    5  0.2473208E-007  0.1025681E+04  0.7818608E-02  0.9348704E-01
          2   -1    0    0  501    0  0.00000000000E+00  0.00000000000E+00  0.21262042635E+04  0.21262042635E+04  0.25500000000E-02 0. -1.
         -2   -1    0    0    0  501 -0.00000000000E+00 -0.00000000000E+00 -0.63014610662E+03  0.63014610662E+03  0.25500000000E-02 0.  1.
    8880023    1    1    2    0    0 -0.68649662506E+03 -0.38331992273E+03 -0.37324640066E+02  0.10263601290E+04  0.65864270000E+03 0.  1.
    8880022    1    1    2    0    0  0.68649662506E+03  0.38331992273E+03  0.15333827970E+04  0.17299902412E+04  0.15294330000E+03 0.  0.
<mgrwt>
<rscale>  0 0.96420114E+03</rscale>
<asrwt>0</asrwt>
<pdfrwt beam="1">  1        2 0.32710835E+00 0.10256812E+04</pdfrwt>
<pdfrwt beam="2">  1       -2 0.96945556E-01 0.10256812E+04</pdfrwt>
<totfact> 0.50454097E+00</totfact>
</mgrwt>
</event>
<event>
 4    5  0.2473208E-007  0.9364771E+03  0.7818608E-02  0.9469843E-01
          2   -1    0    0  501    0  0.00000000000E+00  0.00000000000E+00  0.51809446806E+03  0.51809446806E+03  0.25500000000E-02 0. -1.
         -2   -1    0    0    0  501 -0.00000000000E+00 -0.00000000000E+00 -0.14248994590E+04  0.14248994590E+04  0.25500000000E-02 0.  1.
    8880023    1    1    2    0    0  0.56186192534E+03  0.35705786737E+03 -0.83765017374E+03  0.12564422643E+04  0.65864270000E+03 0.  0.
    8880022    1    1    2    0    0 -0.56186192534E+03 -0.35705786737E+03 -0.69154817169E+02  0.68655166269E+03  0.15294330000E+03 0.  0.
<mgrwt>
<rscale>  0 0.86544120E+03</rscale>
<asrwt>0</asrwt>
<pdfrwt beam="1">  1        2 0.79706842E-01 0.93647710E+03</pdfrwt>
<pdfrwt beam="2">  1       -2 0.21921530E+00 0.93647710E+03</pdfrwt>
<totfact> 0.59206393E+00</totfact>
</mgrwt>
</event>
<event>
 4    5  0.2473208E-007  0.6983297E+03  0.7818608E-02  0.1000420E+00
          2   -1    0    0  501    0  0.00000000000E+00  0.00000000000E+00  0.70585734867E+03  0.70585734867E+03  0.25500000000E-02 0. -1.
         -2   -1    0    0    0  501 -0.00000000000E+00 -0.00000000000E+00 -0.10105435933E+04  0.10105435934E+04  0.25500000000E-02 0.  1.
    8880023    1    1    2    0    0  0.21484481594E+03  0.87725751376E+02 -0.85256530002E+03  0.11020580291E+04  0.65864270000E+03 0.  1.
    8880022    1    1    2    0    0 -0.21484481594E+03 -0.87725751376E+02  0.54787905534E+03  0.61434291294E+03  0.15294330000E+03 0.  0.
<mgrwt>
<rscale>  0 0.55466363E+03</rscale>
<asrwt>0</asrwt>
<pdfrwt beam="1">  1        2 0.10859344E+00 0.69832966E+03</pdfrwt>
<pdfrwt beam="2">  1       -2 0.15546825E+00 0.69832966E+03</pdfrwt>
<totfact> 0.11277805E+01</totfact>
</mgrwt>
</event>
<event>
 4    5  0.2473208E-007  0.1140707E+04  0.7818608E-02  0.9217032E-01
         -2   -1    0    0    0  501 -0.00000000000E+00  0.00000000000E+00  0.11306060807E+04  0.11306060807E+04  0.25500000000E-02 0.  1.
          2   -1    0    0  501    0  0.00000000000E+00 -0.00000000000E+00 -0.99688935048E+03  0.99688935048E+03  0.25500000000E-02 0. -1.
    8880023    1    1    2    0    0  0.58060707029E+03  0.72821554489E+03  0.27440631448E+03  0.11732482608E+04  0.65864270000E+03 0.  0.
    8880022    1    1    2    0    0 -0.58060707029E+03 -0.72821554489E+03 -0.14068958429E+03  0.95424717030E+03  0.15294330000E+03 0.  0.
<mgrwt>
<rscale>  0 0.10879346E+04</rscale>
<asrwt>0</asrwt>
<pdfrwt beam="1">  1        2 0.15336759E+00 0.11407071E+04</pdfrwt>
<pdfrwt beam="2">  1       -2 0.17393940E+00 0.11407071E+04</pdfrwt>
<totfact> 0.49476660E+00</totfact>
</mgrwt>
</event>
<event>
 4    5  0.2473208E-007  0.9427822E+03  0.7818608E-02  0.9460576E-01
          2   -1    0    0  501    0  0.00000000000E+00  0.00000000000E+00  0.13375224533E+04  0.13375224533E+04  0.25500000000E-02 0. -1.
         -2   -1    0    0    0  501 -0.00000000000E+00 -0.00000000000E+00 -0.12578671469E+04  0.12578671469E+04  0.25500000000E-02 0.  1.
    8880023    1    1    2    0    0 -0.65107567889E+03 -0.17643273601E+03 -0.96073973744E+03  0.13460531562E+04  0.65864270000E+03 0.  1.
    8880022    1    1    2    0    0  0.65107567889E+03  0.17643273601E+03  0.10403950438E+04  0.12493364439E+04  0.15294330000E+03 0.  0.
<mgrwt>
<rscale>  0 0.87253862E+03</rscale>
<asrwt>0</asrwt>
<pdfrwt beam="1">  1        2 0.20577268E+00 0.94278219E+03</pdfrwt>
<pdfrwt beam="2">  1       -2 0.19351802E+00 0.94278219E+03</pdfrwt>
<totfact> 0.23072652E+00</totfact>
</mgrwt>
</event>
<event>
 4    5  0.2473208E-007  0.7366125E+03  0.7818608E-02  0.9869927E-01
         -2   -1    0    0    0  501 -0.00000000000E+00  0.00000000000E+00  0.51528660999E+03  0.51528661000E+03  0.25500000000E-02 0.  1.
          2   -1    0    0  501    0  0.00000000000E+00 -0.00000000000E+00 -0.23017915419E+04  0.23017915419E+04  0.25500000000E-02 0. -1.
    8880023    1    1    2    0    0 -0.26567979888E+03  0.19545348857E+03  0.22716961882E+03  0.77084632950E+03  0.65864270000E+03 0.  1.
    8880022    1    1    2    0    0  0.26567979888E+03 -0.19545348857E+03 -0.20136745507E+04  0.20462318224E+04  0.15294330000E+03 0.  0.
<mgrwt>
<rscale>  0 0.61741167E+03</rscale>
<asrwt>0</asrwt>
<pdfrwt beam="1">  1        2 0.35412177E+00 0.73661254E+03</pdfrwt>
<pdfrwt beam="2">  1       -2 0.79274864E-01 0.73661254E+03</pdfrwt>
<totfact> 0.66756478E+00</totfact>
</mgrwt>
</event>
<event>
 4    5  0.2473208E-007  0.1400588E+04  0.7818608E-02  0.8983226E-01
         -2   -1    0    0    0  501 -0.00000000000E+00  0.00000000000E+00  0.22440577903E+04  0.22440577903E+04  0.25500000000E-02 0.  1.
          2   -1    0    0  501    0  0.00000000000E+00 -0.00000000000E+00 -0.14493065179E+04  0.14493065179E+04  0.25500000000E-02 0. -1.
    8880023    1    1    2    0    0  0.96532747960E+03 -0.77199733957E+03  0.16636713624E+04  0.21747297863E+04  0.65864270000E+03 0.  0.
    8880022    1    1    2    0    0 -0.96532747960E+03  0.77199733957E+03 -0.86892009000E+03  0.15186345219E+04  0.15294330000E+03 0.  0.
<mgrwt>
<rscale>  0 0.13600890E+04</rscale>
<asrwt>0</asrwt>
<pdfrwt beam="1">  1        2 0.22297023E+00 0.14005882E+04</pdfrwt>
<pdfrwt beam="2">  1       -2 0.34523966E+00 0.14005882E+04</pdfrwt>
<totfact> 0.21565844E-01</totfact>
</mgrwt>
</event>
<event>
 4    5  0.2473208E-007  0.9511044E+03  0.7818608E-02  0.9448527E-01
          2   -1    0    0  501    0  0.00000000000E+00  0.00000000000E+00  0.41640426543E+04  0.41640426543E+04  0.25500000000E-02 0. -1.
         -2   -1    0    0    0  501 -0.00000000000E+00 -0.00000000000E+00 -0.25275006680E+03  0.25275006682E+03  0.25500000000E-02 0.  1.
    8880023    1    1    2    0    0  0.46450869264E+01  0.68612525551E+03  0.84920757571E+03  0.12750502563E+04  0.65864270000E+03 0.  0.
    8880022    1    1    2    0    0 -0.46450869264E+01 -0.68612525551E+03  0.30620850118E+04  0.31417424648E+04  0.15294330000E+03 0.  0.
<mgrwt>
<rscale>  0 0.88187478E+03</rscale>
<asrwt>0</asrwt>
<pdfrwt beam="1">  1        2 0.64062194E+00 0.95110444E+03</pdfrwt>
<pdfrwt beam="2">  1       -2 0.38884626E-01 0.95110444E+03</pdfrwt>
<totfact> 0.16718064E+00</totfact>
</mgrwt>
</event>
<event>
 4    5  0.2473208E-007  0.6666805E+03  0.7818608E-02  0.1018163E+00
         -2   -1    0    0    0  501 -0.00000000000E+00  0.00000000000E+00  0.37192474698E+03  0.37192474699E+03  0.25500000000E-02 0.  1.
          2   -1    0    0  501    0  0.00000000000E+00 -0.00000000000E+00 -0.14860031420E+04  0.14860031420E+04  0.25500000000E-02 0. -1.
    8880023    1    1    2    0    0 -0.93470210045E+02 -0.43772438920E+02  0.60059925627E+02  0.66938039074E+03  0.65864270000E+03 0.  0.
    8880022    1    1    2    0    0  0.93470210045E+02  0.43772438920E+02 -0.11741383207E+04  0.11885474983E+04  0.15294330000E+03 0. -1.
<mgrwt>
<rscale>  0 0.48355287E+03</rscale>
<asrwt>0</asrwt>
<pdfrwt beam="1">  1        2 0.22861586E+00 0.66668052E+03</pdfrwt>
<pdfrwt beam="2">  1       -2 0.57219193E-01 0.66668052E+03</pdfrwt>
<totfact> 0.38201248E+01</totfact>
</mgrwt>
</event>
<event>
 4    5  0.2473208E-007  0.9210588E+03  0.7818608E-02  0.9493038E-01
         -2   -1    0    0    0  501 -0.00000000000E+00  0.00000000000E+00  0.12197676914E+04  0.12197676914E+04  0.25500000000E-02 0.  1.
          2   -1    0    0  501    0  0.00000000000E+00 -0.00000000000E+00 -0.76844265087E+03  0.76844265087E+03  0.25500000000E-02 0. -1.
    8880023    1    1    2    0    0 -0.42375770109E+03  0.48473544681E+03 -0.31709086610E+03  0.97411286115E+03  0.65864270000E+03 0.  0.
    8880022    1    1    2    0    0  0.42375770109E+03 -0.48473544681E+03  0.76841590662E+03  0.10140974811E+04  0.15294330000E+03 0.  0.
<mgrwt>
<rscale>  0 0.84799087E+03</rscale>
<asrwt>0</asrwt>
<pdfrwt beam="1">  1        2 0.11822195E+00 0.92105877E+03</pdfrwt>
<pdfrwt beam="2">  1       -2 0.18765657E+00 0.92105877E+03</pdfrwt>
<totfact> 0.58405371E+00</totfact>
</mgrwt>
</event>
<event>
 4    5  0.2473208E-007  0.9665152E+03  0.7818608E-02  0.9426740E-01
         -2   -1    0    0    0  501 -0.00000000000E+00  0.00000000000E+00  0.68189888049E+03  0.68189888049E+03  0.25500000000E-02 0.  1.
          2   -1    0    0  501    0  0.00000000000E+00 -0.00000000000E+00 -0.17044201157E+04  0.17044201157E+04  0.25500000000E-02 0. -1.
    8880023    1    1    2    0    0 -0.41328553423E+03 -0.57405269223E+03  0.17970492292E+03  0.98307959588E+03  0.65864270000E+03 0.  0.
    8880022    1    1    2    0    0  0.41328553423E+03  0.57405269223E+03 -0.12022261581E+04  0.14032394003E+04  0.15294330000E+03 0.  0.
<mgrwt>
<rscale>  0 0.89907364E+03</rscale>
<asrwt>0</asrwt>
<pdfrwt beam="1">  1        2 0.26221848E+00 0.96651520E+03</pdfrwt>
<pdfrwt beam="2">  1       -2 0.10490752E+00 0.96651520E+03</pdfrwt>
<totfact> 0.71870936E+00</totfact>
</mgrwt>
</event>
<event>
 4    5  0.2473208E-007  0.9341063E+03  0.7818608E-02  0.9473360E-01
         -2   -1    0    0    0  501 -0.00000000000E+00  0.00000000000E+00  0.76133577021E+03  0.76133577021E+03  0.25500000000E-02 0.  1.
          2   -1    0    0  501    0  0.00000000000E+00 -0.00000000000E+00 -0.18823113268E+04  0.18823113268E+04  0.25500000000E-02 0. -1.
    8880023    1    1    2    0    0 -0.53507889752E+03  0.39042927259E+03  0.37022681653E+03  0.10047997539E+04  0.65864270000E+03 0.  0.
    8880022    1    1    2    0    0  0.53507889752E+03 -0.39042927259E+03 -0.14912023732E+04  0.16388473432E+04  0.15294330000E+03 0.  0.
<mgrwt>
<rscale>  0 0.86276690E+03</rscale>
<asrwt>0</asrwt>
<pdfrwt beam="1">  1        2 0.28958636E+00 0.93410634E+03</pdfrwt>
<pdfrwt beam="2">  1       -2 0.11712858E+00 0.93410634E+03</pdfrwt>
<totfact> 0.44053033E+00</totfact>
</mgrwt>
</event>
<event>
 4    5  0.2473208E-007  0.1044318E+04  0.7818608E-02  0.9325744E-01
          2   -1    0    0  501    0  0.00000000000E+00  0.00000000000E+00  0.25253200615E+04  0.25253200615E+04  0.25500000000E-02 0. -1.
         -2   -1    0    0    0  501 -0.00000000000E+00 -0.00000000000E+00 -0.35078272436E+03  0.35078272436E+03  0.25500000000E-02 0.  1.
    8880023    1    1    2    0    0  0.24192703775E+03 -0.77347284914E+03  0.13828864372E+04  0.17329091276E+04  0.65864270000E+03 0.  0.
    8880022    1    1    2    0    0 -0.24192703775E+03  0.77347284914E+03  0.79165089988E+03  0.11431936582E+04  0.15294330000E+03 0.  0.
<mgrwt>
<rscale>  0 0.98446995E+03</rscale>
<asrwt>0</asrwt>
<pdfrwt beam="1">  1        2 0.38851078E+00 0.10443176E+04</pdfrwt>
<pdfrwt beam="2">  1       -2 0.53966572E-01 0.10443176E+04</pdfrwt>
<totfact> 0.10960795E+01</totfact>
</mgrwt>
</event>
<event>
 4    5  0.3300844E-007  0.8132011E+03  0.7818608E-02  0.9682947E-01
         -2   -1    0    0    0  501 -0.00000000000E+00  0.00000000000E+00  0.18973163978E+04  0.18973163978E+04  0.25500000000E-02 0.  1.
          2   -1    0    0  501    0  0.00000000000E+00 -0.00000000000E+00 -0.12196254340E+04  0.12196254340E+04  0.25500000000E-02 0. -1.
    8880023    1    1    2    0    0 -0.47675610350E+03  0.13761274661E+02  0.17520439435E+04  0.19315677418E+04  0.65864270000E+03 0.  0.
    8880022    1    1    2    0    0  0.47675610350E+03 -0.13761274661E+02 -0.10743529798E+04  0.11853740899E+04  0.15294330000E+03 0.  0.
<mgrwt>
<rscale>  0 0.72041234E+03</rscale>
<asrwt>0</asrwt>
<pdfrwt beam="1">  1        2 0.18763468E+00 0.81320106E+03</pdfrwt>
<pdfrwt beam="2">  1       -2 0.29189483E+00 0.81320106E+03</pdfrwt>
<totfact> 0.67965248E-01</totfact>
</mgrwt>
</event>
<event>
 4    5  0.2473208E-007  0.7814347E+03  0.7818608E-02  0.9752478E-01
         -2   -1    0    0    0  501 -0.00000000000E+00  0.00000000000E+00  0.86907940068E+03  0.86907940069E+03  0.25500000000E-02 0.  1.
          2   -1    0    0  501    0  0.00000000000E+00 -0.00000000000E+00 -0.65112943157E+03  0.65112943157E+03  0.25500000000E-02 0. -1.
    8880023    1    1    2    0    0 -0.46532094958E+02 -0.41792903411E+03  0.55630164419E+03  0.95922449875E+03  0.65864270000E+03 0.  1.
    8880022    1    1    2    0    0  0.46532094958E+02  0.41792903411E+03 -0.33835167507E+03  0.56098433351E+03  0.15294330000E+03 0.  0.
<mgrwt>
<rscale>  0 0.67976431E+03</rscale>
<asrwt>0</asrwt>
<pdfrwt beam="1">  1        2 0.10017376E+00 0.78143465E+03</pdfrwt>
<pdfrwt beam="2">  1       -2 0.13370452E+00 0.78143465E+03</pdfrwt>
<totfact> 0.18340233E+01</totfact>
</mgrwt>
</event>
<event>
 4    5  0.2473208E-007  0.7690935E+03  0.7818608E-02  0.9782110E-01
          2   -1    0    0  501    0  0.00000000000E+00  0.00000000000E+00  0.18823533888E+03  0.18823533889E+03  0.25500000000E-02 0. -1.
         -2   -1    0    0    0  501 -0.00000000000E+00 -0.00000000000E+00 -0.23930442396E+04  0.23930442396E+04  0.25500000000E-02 0.  1.
    8880023    1    1    2    0    0 -0.38083658820E+03 -0.11250800868E+03 -0.19224423064E+04  0.20705770178E+04  0.65864270000E+03 0.  0.
    8880022    1    1    2    0    0  0.38083658820E+03  0.11250800868E+03 -0.28236659439E+03  0.51070256076E+03  0.15294330000E+03 0.  0.
<mgrwt>
<rscale>  0 0.66331530E+03</rscale>
<asrwt>0</asrwt>
<pdfrwt beam="1">  1        2 0.28959285E-01 0.76909347E+03</pdfrwt>
<pdfrwt beam="2">  1       -2 0.36816063E+00 0.76909347E+03</pdfrwt>
<totfact> 0.23249293E+00</totfact>
</mgrwt>
</event>
<event>
 4    5  0.5573930E-007  0.6833279E+03  0.7818608E-02  0.1007501E+00
         -2   -1    0    0    0  501 -0.00000000000E+00  0.00000000000E+00  0.15443398441E+04  0.15443398441E+04  0.25500000000E-02 0.  1.
          2   -1    0    0  501    0  0.00000000000E+00 -0.00000000000E+00 -0.33309798960E+04  0.33309798960E+04  0.25500000000E-02 0. -1.
    8880023    1    1    2    0    0  0.18194943697E+03  0.46090015499E+01  0.14641976751E+04  0.16158006927E+04  0.65864270000E+03 0.  1.
    8880022    1    1    2    0    0 -0.18194943697E+03 -0.46090015499E+01 -0.32508377269E+04  0.32595190474E+04  0.15294330000E+03 0.  0.
<mgrwt>
<rscale>  0 0.52480226E+03</rscale>
<asrwt>0</asrwt>
<pdfrwt beam="1">  1        2 0.51245844E+00 0.68332792E+03</pdfrwt>
<pdfrwt beam="2">  1       -2 0.23759075E+00 0.68332792E+03</pdfrwt>
<totfact> 0.91183509E-02</totfact>
</mgrwt>
</event>
<event>
 4    5  0.2473208E-007  0.1813607E+04  0.7818608E-02  0.8715046E-01
         -2   -1    0    0    0  501 -0.00000000000E+00  0.00000000000E+00  0.20652917029E+04  0.20652917029E+04  0.25500000000E-02 0.  1.
          2   -1    0    0  501    0  0.00000000000E+00 -0.00000000000E+00 -0.17008379269E+04  0.17008379269E+04  0.25500000000E-02 0. -1.
    8880023    1    1    2    0    0 -0.10345876012E+04 -0.13360351376E+04 -0.47263420888E+03  0.18741810732E+04  0.65864270000E+03 0.  0.
    8880022    1    1    2    0    0  0.10345876012E+04  0.13360351376E+04  0.83708798487E+03  0.18919485567E+04  0.15294330000E+03 0.  0.
<mgrwt>
<rscale>  0 0.17836433E+04</rscale>
<asrwt>0</asrwt>
<pdfrwt beam="1">  1        2 0.26166737E+00 0.18136073E+04</pdfrwt>
<pdfrwt beam="2">  1       -2 0.31773718E+00 0.18136073E+04</pdfrwt>
<totfact> 0.22027570E-01</totfact>
</mgrwt>
</event>
<event>
 4    5  0.2473208E-007  0.9754436E+03  0.7818608E-02  0.9414414E-01
          2   -1    0    0  501    0  0.00000000000E+00  0.00000000000E+00  0.39079574661E+04  0.39079574661E+04  0.25500000000E-02 0. -1.
         -2   -1    0    0    0  501 -0.00000000000E+00 -0.00000000000E+00 -0.25001117567E+03  0.25001117568E+03  0.25500000000E-02 0.  1.
    8880023    1    1    2    0    0  0.23361537987E+03  0.68051728456E+03  0.98738069161E+03  0.13879520009E+04  0.65864270000E+03 0.  0.
    8880022    1    1    2    0    0 -0.23361537987E+03 -0.68051728456E+03  0.26705655988E+04  0.27700166409E+04  0.15294330000E+03 0.  0.
<mgrwt>
<rscale>  0 0.90898862E+03</rscale>
<asrwt>0</asrwt>
<pdfrwt beam="1">  1        2 0.60122418E+00 0.97544355E+03</pdfrwt>
<pdfrwt beam="2">  1       -2 0.38463260E-01 0.97544355E+03</pdfrwt>
<totfact> 0.27306621E+00</totfact>
</mgrwt>
</event>
<event>
 4    5  0.2473208E-007  0.9603673E+03  0.7818608E-02  0.9435352E-01
         -2   -1    0    0    0  501 -0.00000000000E+00  0.00000000000E+00  0.59824922567E+03  0.59824922567E+03  0.25500000000E-02 0.  1.
          2   -1    0    0  501    0  0.00000000000E+00 -0.00000000000E+00 -0.17167829357E+04  0.17167829357E+04  0.25500000000E-02 0. -1.
    8880023    1    1    2    0    0 -0.60276009984E+03 -0.35380123986E+03  0.31187523669E+02  0.96087352091E+03  0.65864270000E+03 0.  1.
    8880022    1    1    2    0    0  0.60276009984E+03  0.35380123986E+03 -0.11497212337E+04  0.13541586404E+04  0.15294330000E+03 0.  0.
<mgrwt>
<rscale>  0 0.89222572E+03</rscale>
<asrwt>0</asrwt>
<pdfrwt beam="1">  1        2 0.26412045E+00 0.96036725E+03</pdfrwt>
<pdfrwt beam="2">  1       -2 0.92038343E-01 0.96036725E+03</pdfrwt>
<totfact> 0.96520965E+00</totfact>
</mgrwt>
</event>
<event>
 4    5  0.2473208E-007  0.1300973E+04  0.7818608E-02  0.9064720E-01
         -2   -1    0    0    0  501 -0.00000000000E+00  0.00000000000E+00  0.49338171750E+03  0.49338171751E+03  0.25500000000E-02 0.  1.
          2   -1    0    0  501    0  0.00000000000E+00 -0.00000000000E+00 -0.35866222994E+04  0.35866222994E+04  0.25500000000E-02 0. -1.
    8880023    1    1    2    0    0  0.80398577862E+03  0.78251403557E+03 -0.24595705373E+04  0.27824483432E+04  0.65864270000E+03 0.  0.
    8880022    1    1    2    0    0 -0.80398577862E+03 -0.78251403557E+03 -0.63367004463E+03  0.12975556738E+04  0.15294330000E+03 0.  0.
<mgrwt>
<rscale>  0 0.12565856E+04</rscale>
<asrwt>0</asrwt>
<pdfrwt beam="1">  1        2 0.55178803E+00 0.13009733E+04</pdfrwt>
<pdfrwt beam="2">  1       -2 0.75904882E-01 0.13009733E+04</pdfrwt>
<totfact> 0.10889562E+00</totfact>
</mgrwt>
</event>
<event>
 4    5  0.2473208E-007  0.1310508E+04  0.7818608E-02  0.9056538E-01
          2   -1    0    0  501    0  0.00000000000E+00  0.00000000000E+00  0.16734174530E+04  0.16734174530E+04  0.25500000000E-02 0. -1.
         -2   -1    0    0    0  501 -0.00000000000E+00 -0.00000000000E+00 -0.13422831052E+04  0.13422831052E+04  0.25500000000E-02 0.  1.
    8880023    1    1    2    0    0  0.11204747295E+04 -0.16780036298E+03 -0.69155475668E+03  0.14817822948E+04  0.65864270000E+03 0.  0.
    8880022    1    1    2    0    0 -0.11204747295E+04  0.16780036298E+03  0.10226891045E+04  0.15339182634E+04  0.15294330000E+03 0.  0.
<mgrwt>
<rscale>  0 0.12665276E+04</rscale>
<asrwt>0</asrwt>
<pdfrwt beam="1">  1        2 0.25744884E+00 0.13105078E+04</pdfrwt>
<pdfrwt beam="2">  1       -2 0.20650509E+00 0.13105078E+04</pdfrwt>
<totfact> 0.11728584E+00</totfact>
</mgrwt>
</event>
<event>
 4    5  0.2473208E-007  0.1206627E+04  0.7818608E-02  0.9150707E-01
         -2   -1    0    0    0  501 -0.00000000000E+00  0.00000000000E+00  0.10298085041E+04  0.10298085041E+04  0.25500000000E-02 0.  1.
          2   -1    0    0  501    0  0.00000000000E+00 -0.00000000000E+00 -0.18442841550E+04  0.18442841550E+04  0.25500000000E-02 0. -1.
    8880023    1    1    2    0    0 -0.97967427705E+03  0.24975539329E+03  0.41407348805E+03  0.12756984383E+04  0.65864270000E+03 0.  0.
    8880022    1    1    2    0    0  0.97967427705E+03 -0.24975539329E+03 -0.12285491389E+04  0.15983942209E+04  0.15294330000E+03 0.  0.
<mgrwt>
<rscale>  0 0.11577026E+04</rscale>
<asrwt>0</asrwt>
<pdfrwt beam="1">  1        2 0.28373602E+00 0.12066274E+04</pdfrwt>
<pdfrwt beam="2">  1       -2 0.15843208E+00 0.12066274E+04</pdfrwt>
<totfact> 0.20490908E+00</totfact>
</mgrwt>
</event>
<event>
 4    5  0.2473208E-007  0.8425711E+03  0.7818608E-02  0.9625351E-01
          2   -1    0    0  501    0  0.00000000000E+00  0.00000000000E+00  0.15542938488E+04  0.15542938488E+04  0.25500000000E-02 0. -1.
         -2   -1    0    0    0  501 -0.00000000000E+00 -0.00000000000E+00 -0.42306916817E+03  0.42306916818E+03  0.25500000000E-02 0.  1.
    8880023    1    1    2    0    0 -0.34110167585E+03 -0.39970683620E+03  0.15284618531E+03  0.85632241054E+03  0.65864270000E+03 0.  0.
    8880022    1    1    2    0    0  0.34110167585E+03  0.39970683620E+03  0.97837849536E+03  0.11210406065E+04  0.15294330000E+03 0.  0.
<mgrwt>
<rscale>  0 0.75640764E+03</rscale>
<asrwt>0</asrwt>
<pdfrwt beam="1">  1        2 0.23912213E+00 0.84257113E+03</pdfrwt>
<pdfrwt beam="2">  1       -2 0.65087564E-01 0.84257113E+03</pdfrwt>
<totfact> 0.26110719E+01</totfact>
</mgrwt>
</event>
<event>
 4    5  0.2473208E-007  0.1603341E+04  0.7818608E-02  0.8839912E-01
          2   -1    0    0  501    0  0.00000000000E+00  0.00000000000E+00  0.18287656344E+04  0.18287656344E+04  0.25500000000E-02 0. -1.
         -2   -1    0    0    0  501 -0.00000000000E+00 -0.00000000000E+00 -0.18396537009E+04  0.18396537009E+04  0.25500000000E-02 0.  1.
    8880023    1    1    2    0    0 -0.10308434639E+03 -0.14581724288E+04 -0.10065792946E+04  0.18931205184E+04  0.65864270000E+03 0.  1.
    8880022    1    1    2    0    0  0.10308434639E+03  0.14581724288E+04  0.99569122815E+03  0.17752988169E+04  0.15294330000E+03 0.  0.
<mgrwt>
<rscale>  0 0.15688570E+04</rscale>
<asrwt>0</asrwt>
<pdfrwt beam="1">  1        2 0.28134856E+00 0.16033413E+04</pdfrwt>
<pdfrwt beam="2">  1       -2 0.28302365E+00 0.16033413E+04</pdfrwt>
<totfact> 0.31147910E-01</totfact>
</mgrwt>
</event>
<event>
 4    5  0.2473208E-007  0.8337663E+03  0.7818608E-02  0.9642048E-01
          2   -1    0    0  501    0  0.00000000000E+00  0.00000000000E+00  0.86410533088E+03  0.86410533088E+03  0.25500000000E-02 0. -1.
         -2   -1    0    0    0  501 -0.00000000000E+00 -0.00000000000E+00 -0.96717457568E+03  0.96717457569E+03  0.25500000000E-02 0.  1.
    8880023    1    1    2    0    0  0.49804128046E+03 -0.11537271852E+03 -0.65746104224E+03  0.10618009275E+04  0.65864270000E+03 0.  1.
    8880022    1    1    2    0    0 -0.49804128046E+03  0.11537271852E+03  0.55439179744E+03  0.76947897911E+03  0.15294330000E+03 0.  0.
<mgrwt>
<rscale>  0 0.74574570E+03</rscale>
<asrwt>0</asrwt>
<pdfrwt beam="1">  1        2 0.13293928E+00 0.83376627E+03</pdfrwt>
<pdfrwt beam="2">  1       -2 0.14879609E+00 0.83376627E+03</pdfrwt>
<totfact> 0.95684238E+00</totfact>
</mgrwt>
</event>
<event>
 4    5  0.2473208E-007  0.1614475E+04  0.7818608E-02  0.8832764E-01
         -2   -1    0    0    0  501 -0.00000000000E+00  0.00000000000E+00  0.18923673799E+04  0.18923673799E+04  0.25500000000E-02 0.  1.
          2   -1    0    0  501    0  0.00000000000E+00 -0.00000000000E+00 -0.24420732011E+04  0.24420732011E+04  0.25500000000E-02 0. -1.
    8880023    1    1    2    0    0  0.14706577657E+04  0.99422573871E+02  0.12219035388E+04  0.20247413604E+04  0.65864270000E+03 0. -1.
    8880022    1    1    2    0    0 -0.14706577657E+04 -0.99422573871E+02 -0.17716093601E+04  0.23096992206E+04  0.15294330000E+03 0.  0.
<mgrwt>
<rscale>  0 0.15802662E+04</rscale>
<asrwt>0</asrwt>
<pdfrwt beam="1">  1        2 0.37570357E+00 0.16144749E+04</pdfrwt>
<pdfrwt beam="2">  1       -2 0.29113344E+00 0.16144749E+04</pdfrwt>
<totfact> 0.12520866E-01</totfact>
</mgrwt>
</event>
<event>
 4    5  0.2473208E-007  0.6920001E+03  0.7818608E-02  0.1003216E+00
          2   -1    0    0  501    0  0.00000000000E+00  0.00000000000E+00  0.28994085557E+04  0.28994085557E+04  0.25500000000E-02 0. -1.
         -2   -1    0    0    0  501 -0.00000000000E+00 -0.00000000000E+00 -0.53844689486E+03  0.53844689487E+03  0.25500000000E-02 0.  1.
    8880023    1    1    2    0    0  0.28763639018E+02  0.21030126143E+03 -0.30703909866E+03  0.75705824205E+03  0.65864270000E+03 0.  1.
    8880022    1    1    2    0    0 -0.28763639018E+02 -0.21030126143E+03  0.26680007595E+04  0.26807972085E+04  0.15294330000E+03 0.  0.
<mgrwt>
<rscale>  0 0.54262255E+03</rscale>
<asrwt>0</asrwt>
<pdfrwt beam="1">  1        2 0.44606286E+00 0.69200013E+03</pdfrwt>
<pdfrwt beam="2">  1       -2 0.82837983E-01 0.69200013E+03</pdfrwt>
<totfact> 0.27659206E+00</totfact>
</mgrwt>
</event>
<event>
 4    5  0.2473208E-007  0.7493806E+03  0.7818608E-02  0.9833419E-01
         -2   -1    0    0    0  501 -0.00000000000E+00  0.00000000000E+00  0.43979619715E+03  0.43979619715E+03  0.25500000000E-02 0.  1.
          2   -1    0    0  501    0  0.00000000000E+00 -0.00000000000E+00 -0.19664388373E+04  0.19664388373E+04  0.25500000000E-02 0. -1.
    8880023    1    1    2    0    0 -0.31533778922E+03 -0.16829478608E+03  0.79613076011E+02  0.75359770731E+03  0.65864270000E+03 0.  0.
    8880022    1    1    2    0    0  0.31533778922E+03  0.16829478608E+03 -0.16062557162E+04  0.16526373271E+04  0.15294330000E+03 0.  0.
<mgrwt>
<rscale>  0 0.63599517E+03</rscale>
<asrwt>0</asrwt>
<pdfrwt beam="1">  1        2 0.30252905E+00 0.74938059E+03</pdfrwt>
<pdfrwt beam="2">  1       -2 0.67660955E-01 0.74938059E+03</pdfrwt>
<totfact> 0.14438521E+01</totfact>
</mgrwt>
</event>
<event>
 4    5  0.2473208E-007  0.1034214E+04  0.7818608E-02  0.9338104E-01
         -2   -1    0    0    0  501 -0.00000000000E+00  0.00000000000E+00  0.68106104506E+03  0.68106104507E+03  0.25500000000E-02 0.  1.
          2   -1    0    0  501    0  0.00000000000E+00 -0.00000000000E+00 -0.24000656299E+04  0.24000656299E+04  0.25500000000E-02 0. -1.
    8880023    1    1    2    0    0 -0.64839725965E+03 -0.46407891733E+03  0.14845084306E+03  0.10448139102E+04  0.65864270000E+03 0.  0.
    8880022    1    1    2    0    0  0.64839725965E+03  0.46407891733E+03 -0.18674554279E+04  0.20363127648E+04  0.15294330000E+03 0.  0.
<mgrwt>
<rscale>  0 0.97349401E+03</rscale>
<asrwt>0</asrwt>
<pdfrwt beam="1">  1        2 0.36924086E+00 0.10342139E+04</pdfrwt>
<pdfrwt beam="2">  1       -2 0.10477862E+00 0.10342139E+04</pdfrwt>
<totfact> 0.29419290E+00</totfact>
</mgrwt>
</event>
<event>
 4    5  0.2473208E-007  0.7060268E+03  0.7818608E-02  0.9973062E-01
          2   -1    0    0  501    0  0.00000000000E+00  0.00000000000E+00  0.10369132602E+04  0.10369132602E+04  0.25500000000E-02 0. -1.
         -2   -1    0    0    0  501 -0.00000000000E+00 -0.00000000000E+00 -0.11332921051E+04  0.11332921051E+04  0.25500000000E-02 0.  1.
    8880023    1    1    2    0    0  0.24941345850E+03  0.49563422587E+02 -0.99716168245E+03  0.12218040896E+04  0.65864270000E+03 0.  1.
    8880022    1    1    2    0    0 -0.24941345850E+03 -0.49563422587E+02  0.90078283758E+03  0.94840127564E+03  0.15294330000E+03 0.  0.
<mgrwt>
<rscale>  0 0.56847359E+03</rscale>
<asrwt>0</asrwt>
<pdfrwt beam="1">  1        2 0.15952512E+00 0.70602678E+03</pdfrwt>
<pdfrwt beam="2">  1       -2 0.17435263E+00 0.70602678E+03</pdfrwt>
<totfact> 0.48678819E+00</totfact>
</mgrwt>
</event>
<event>
 4    5  0.2473208E-007  0.8206941E+03  0.7818608E-02  0.9667717E-01
          2   -1    0    0  501    0  0.00000000000E+00  0.00000000000E+00  0.13483705069E+04  0.13483705069E+04  0.25500000000E-02 0. -1.
         -2   -1    0    0    0  501 -0.00000000000E+00 -0.00000000000E+00 -0.65507164691E+03  0.65507164692E+03  0.25500000000E-02 0.  1.
    8880023    1    1    2    0    0  0.47417218578E+02 -0.48731946797E+03 -0.30946038502E+03  0.87710010411E+03  0.65864270000E+03 0.  1.
    8880022    1    1    2    0    0 -0.47417218578E+02  0.48731946797E+03  0.10027592450E+04  0.11263420497E+04  0.15294330000E+03 0.  0.
<mgrwt>
<rscale>  0 0.72971839E+03</rscale>
<asrwt>0</asrwt>
<pdfrwt beam="1">  1        2 0.20744161E+00 0.82069413E+03</pdfrwt>
<pdfrwt beam="2">  1       -2 0.10078026E+00 0.82069413E+03</pdfrwt>
<totfact> 0.12730475E+01</totfact>
</mgrwt>
</event>
<event>
 4    5  0.2473208E-007  0.1125059E+04  0.7818608E-02  0.9233656E-01
          2   -1    0    0  501    0  0.00000000000E+00  0.00000000000E+00  0.21325666265E+04  0.21325666265E+04  0.25500000000E-02 0. -1.
         -2   -1    0    0    0  501 -0.00000000000E+00 -0.00000000000E+00 -0.98285941245E+03  0.98285941245E+03  0.25500000000E-02 0.  1.
    8880023    1    1    2    0    0 -0.45721146694E+03 -0.78924309234E+03 -0.49451724972E+03  0.12289444661E+04  0.65864270000E+03 0.  0.
    8880022    1    1    2    0    0  0.45721146694E+03  0.78924309234E+03  0.16442244637E+04  0.18864815728E+04  0.15294330000E+03 0.  0.
<mgrwt>
<rscale>  0 0.10712693E+04</rscale>
<asrwt>0</asrwt>
<pdfrwt beam="1">  1        2 0.32808717E+00 0.11250587E+04</pdfrwt>
<pdfrwt beam="2">  1       -2 0.15120914E+00 0.11250587E+04</pdfrwt>
<totfact> 0.16244794E+00</totfact>
</mgrwt>
</event>
<event>
 4    5  0.2473208E-007  0.1974228E+04  0.7818608E-02  0.8631828E-01
          2   -1    0    0  501    0  0.00000000000E+00  0.00000000000E+00  0.34823286257E+04  0.34823286257E+04  0.25500000000E-02 0. -1.
         -2   -1    0    0    0  501 -0.00000000000E+00 -0.00000000000E+00 -0.12296990220E+04  0.12296990220E+04  0.25500000000E-02 0.  1.
    8880023    1    1    2    0    0 -0.14306913464E+04  0.11903317099E+04  0.27707481662E+03  0.19935766774E+04  0.65864270000E+03 0.  0.
    8880022    1    1    2    0    0  0.14306913464E+04 -0.11903317099E+04  0.19755547871E+04  0.27184509703E+04  0.15294330000E+03 0.  0.
<mgrwt>
<rscale>  0 0.19469599E+04</rscale>
<asrwt>0</asrwt>
<pdfrwt beam="1">  1        2 0.53574286E+00 0.19742283E+04</pdfrwt>
<pdfrwt beam="2">  1       -2 0.18918447E+00 0.19742283E+04</pdfrwt>
<totfact> 0.11790107E-01</totfact>
</mgrwt>
</event>
<event>
 4    5  0.2473208E-007  0.1056578E+04  0.7818608E-02  0.9311015E-01
         -2   -1    0    0    0  501 -0.00000000000E+00  0.00000000000E+00  0.99003901635E+03  0.99003901635E+03  0.25500000000E-02 0.  1.
          2   -1    0    0  501    0  0.00000000000E+00 -0.00000000000E+00 -0.14106893320E+04  0.14106893320E+04  0.25500000000E-02 0. -1.
    8880023    1    1    2    0    0  0.28615278067E+03 -0.77502485037E+03  0.48741568808E+03  0.11635854897E+04  0.65864270000E+03 0.  0.
    8880022    1    1    2    0    0 -0.28615278067E+03  0.77502485037E+03 -0.90806600371E+03  0.12371428586E+04  0.15294330000E+03 0.  0.
<mgrwt>
<rscale>  0 0.99775072E+03</rscale>
<asrwt>0</asrwt>
<pdfrwt beam="1">  1        2 0.21702913E+00 0.10565780E+04</pdfrwt>
<pdfrwt beam="2">  1       -2 0.15231369E+00 0.10565780E+04</pdfrwt>
<totfact> 0.40468024E+00</totfact>
</mgrwt>
</event>
<event>
 4    5  0.2473208E-007  0.1133836E+04  0.7818608E-02  0.9224287E-01
         -2   -1    0    0    0  501 -0.00000000000E+00  0.00000000000E+00  0.37835070893E+03  0.37835070893E+03  0.25500000000E-02 0.  1.
          2   -1    0    0  501    0  0.00000000000E+00 -0.00000000000E+00 -0.34241706430E+04  0.34241706430E+04  0.25500000000E-02 0. -1.
    8880023    1    1    2    0    0  0.50055922812E+03 -0.77538082396E+03 -0.85420959603E+03  0.14195982542E+04  0.65864270000E+03 0.  0.
    8880022    1    1    2    0    0 -0.50055922812E+03  0.77538082396E+03 -0.21916103380E+04  0.23829230977E+04  0.15294330000E+03 0.  0.
<mgrwt>
<rscale>  0 0.10806229E+04</rscale>
<asrwt>0</asrwt>
<pdfrwt beam="1">  1        2 0.52679546E+00 0.11338365E+04</pdfrwt>
<pdfrwt beam="2">  1       -2 0.58207804E-01 0.11338365E+04</pdfrwt>
<totfact> 0.25697578E+00</totfact>
</mgrwt>
</event>
<event>
 4    5  0.2473208E-007  0.1056331E+04  0.7818608E-02  0.9311309E-01
          2   -1    0    0  501    0  0.00000000000E+00  0.00000000000E+00  0.51207570186E+03  0.51207570187E+03  0.25500000000E-02 0. -1.
         -2   -1    0    0    0  501 -0.00000000000E+00 -0.00000000000E+00 -0.26019743246E+04  0.26019743246E+04  0.25500000000E-02 0.  1.
    8880023    1    1    2    0    0 -0.64348954248E+03  0.51763605252E+03 -0.20096180983E+04  0.22703305886E+04  0.65864270000E+03 0.  0.
    8880022    1    1    2    0    0  0.64348954248E+03 -0.51763605252E+03 -0.80280524370E+02  0.84371943782E+03  0.15294330000E+03 0.  0.
<mgrwt>
<rscale>  0 0.99748398E+03</rscale>
<asrwt>0</asrwt>
<pdfrwt beam="1">  1        2 0.78780879E-01 0.10563314E+04</pdfrwt>
<pdfrwt beam="2">  1       -2 0.40030374E+00 0.10563314E+04</pdfrwt>
<totfact> 0.44778379E-01</totfact>
</mgrwt>
</event>
<event>
 4    5  0.2473208E-007  0.1323739E+04  0.7818608E-02  0.9045326E-01
          2   -1    0    0  501    0  0.00000000000E+00  0.00000000000E+00  0.31449969541E+04  0.31449969541E+04  0.25500000000E-02 0. -1.
         -2   -1    0    0    0  501 -0.00000000000E+00 -0.00000000000E+00 -0.49784799502E+03  0.49784799502E+03  0.25500000000E-02 0.  1.
    8880023    1    1    2    0    0 -0.94530615862E+03  0.65182096075E+03  0.16422044009E+04  0.21092936730E+04  0.65864270000E+03 0.  0.
    8880022    1    1    2    0    0  0.94530615862E+03 -0.65182096075E+03  0.10049445581E+04  0.15335512761E+04  0.15294330000E+03 0.  0.
<mgrwt>
<rscale>  0 0.12803107E+04</rscale>
<asrwt>0</asrwt>
<pdfrwt beam="1">  1        2 0.48384569E+00 0.13237388E+04</pdfrwt>
<pdfrwt beam="2">  1       -2 0.76591999E-01 0.13237388E+04</pdfrwt>
<totfact> 0.21062216E+00</totfact>
</mgrwt>
</event>
<event>
 4    5  0.2473208E-007  0.9970649E+03  0.7818608E-02  0.9385408E-01
         -2   -1    0    0    0  501 -0.00000000000E+00  0.00000000000E+00  0.52810393780E+03  0.52810393780E+03  0.25500000000E-02 0.  1.
          2   -1    0    0  501    0  0.00000000000E+00 -0.00000000000E+00 -0.20202791903E+04  0.20202791903E+04  0.25500000000E-02 0. -1.
    8880023    1    1    2    0    0 -0.57415763349E+03 -0.48028238385E+03 -0.15599259656E+03  0.10091937637E+04  0.65864270000E+03 0.  0.
    8880022    1    1    2    0    0  0.57415763349E+03  0.48028238385E+03 -0.13361826560E+04  0.15391893644E+04  0.15294330000E+03 0.  0.
<mgrwt>
<rscale>  0 0.93286353E+03</rscale>
<asrwt>0</asrwt>
<pdfrwt beam="1">  1        2 0.31081218E+00 0.99706487E+03</pdfrwt>
<pdfrwt beam="2">  1       -2 0.81246761E-01 0.99706487E+03</pdfrwt>
<totfact> 0.87131372E+00</totfact>
</mgrwt>
</event>
<event>
 4    5  0.2473208E-007  0.8432656E+03  0.7818608E-02  0.9624053E-01
         -2   -1    0    0    0  501 -0.00000000000E+00  0.00000000000E+00  0.87589451910E+03  0.87589451910E+03  0.25500000000E-02 0.  1.
          2   -1    0    0  501    0  0.00000000000E+00 -0.00000000000E+00 -0.17707550970E+04  0.17707550970E+04  0.25500000000E-02 0. -1.
    8880023    1    1    2    0    0  0.49182934852E+03  0.18812399587E+03  0.61277196079E+03  0.10423945645E+04  0.65864270000E+03 0.  1.
    8880022    1    1    2    0    0 -0.49182934852E+03 -0.18812399587E+03 -0.15076325387E+04  0.16042550517E+04  0.15294330000E+03 0.  0.
<mgrwt>
<rscale>  0 0.75724443E+03</rscale>
<asrwt>0</asrwt>
<pdfrwt beam="1">  1        2 0.27242386E+00 0.84326565E+03</pdfrwt>
<pdfrwt beam="2">  1       -2 0.13475300E+00 0.84326565E+03</pdfrwt>
<totfact> 0.36093659E+00</totfact>
</mgrwt>
</event>
<event>
 4    5  0.2473208E-007  0.9943942E+03  0.7818608E-02  0.9388929E-01
          2   -1    0    0  501    0  0.00000000000E+00  0.00000000000E+00  0.19587515242E+04  0.19587515242E+04  0.25500000000E-02 0. -1.
         -2   -1    0    0    0  501 -0.00000000000E+00 -0.00000000000E+00 -0.42474720573E+03  0.42474720574E+03  0.25500000000E-02 0.  1.
    8880023    1    1    2    0    0 -0.85796447818E+02  0.74003286433E+03  0.53885066173E+03  0.11310083610E+04  0.65864270000E+03 0.  1.
    8880022    1    1    2    0    0  0.85796447818E+02 -0.74003286433E+03  0.99515365679E+03  0.12524903690E+04  0.15294330000E+03 0. -1.
<mgrwt>
<rscale>  0 0.92992432E+03</rscale>
<asrwt>0</asrwt>
<pdfrwt beam="1">  1        2 0.30134638E+00 0.99439423E+03</pdfrwt>
<pdfrwt beam="2">  1       -2 0.65345726E-01 0.99439423E+03</pdfrwt>
<totfact> 0.15253770E+01</totfact>
</mgrwt>
</event>
<event>
 4    5  0.2473208E-007  0.1342767E+04  0.7818608E-02  0.9029481E-01
         -2   -1    0    0    0  501 -0.00000000000E+00  0.00000000000E+00  0.69013784696E+03  0.69013784696E+03  0.25500000000E-02 0.  1.
          2   -1    0    0  501    0  0.00000000000E+00 -0.00000000000E+00 -0.33001245851E+04  0.33001245851E+04  0.25500000000E-02 0. -1.
    8880023    1    1    2    0    0 -0.95352220517E+03  0.67823859763E+03 -0.27013614381E+03  0.13696700090E+04  0.65864270000E+03 0.  0.
    8880022    1    1    2    0    0  0.95352220517E+03 -0.67823859763E+03 -0.23398505944E+04  0.26205924231E+04  0.15294330000E+03 0.  0.
<mgrwt>
<rscale>  0 0.13001063E+04</rscale>
<asrwt>0</asrwt>
<pdfrwt beam="1">  1        2 0.50771147E+00 0.13427667E+04</pdfrwt>
<pdfrwt beam="2">  1       -2 0.10617506E+00 0.13427667E+04</pdfrwt>
<totfact> 0.77821711E-01</totfact>
</mgrwt>
</event>
<event>
 4    5  0.2473208E-007  0.8412916E+03  0.7818608E-02  0.9627750E-01
          2   -1    0    0  501    0  0.00000000000E+00  0.00000000000E+00  0.49639149017E+03  0.49639149017E+03  0.25500000000E-02 0. -1.
         -2   -1    0    0    0  501 -0.00000000000E+00 -0.00000000000E+00 -0.11780285007E+04  0.11780285007E+04  0.25500000000E-02 0.  1.
    8880023    1    1    2    0    0  0.50140017548E+03 -0.15019735951E+03 -0.74718711818E+03  0.11251933961E+04  0.65864270000E+03 0.  1.
    8880022    1    1    2    0    0 -0.50140017548E+03  0.15019735951E+03  0.65550107665E+02  0.54922659477E+03  0.15294330000E+03 0.  0.
<mgrwt>
<rscale>  0 0.75486444E+03</rscale>
<asrwt>0</asrwt>
<pdfrwt beam="1">  1        2 0.76367922E-01 0.84129162E+03</pdfrwt>
<pdfrwt beam="2">  1       -2 0.18123515E+00 0.84129162E+03</pdfrwt>
<totfact> 0.11128126E+01</totfact>
</mgrwt>
</event>
<event>
 4    5  0.2473208E-007  0.8491072E+03  0.7818608E-02  0.9613241E-01
          2   -1    0    0  501    0  0.00000000000E+00  0.00000000000E+00  0.82631727796E+03  0.82631727797E+03  0.25500000000E-02 0. -1.
         -2   -1    0    0    0  501 -0.00000000000E+00 -0.00000000000E+00 -0.60626816452E+03  0.60626816452E+03  0.25500000000E-02 0.  1.
    8880023    1    1    2    0    0  0.53576709112E+03  0.11243544093E+02  0.52803812502E+02  0.85074746082E+03  0.65864270000E+03 0.  1.
    8880022    1    1    2    0    0 -0.53576709112E+03 -0.11243544093E+02  0.16724530094E+03  0.58183798167E+03  0.15294330000E+03 0. -1.
<mgrwt>
<rscale>  0 0.76425951E+03</rscale>
<asrwt>0</asrwt>
<pdfrwt beam="1">  1        2 0.12712574E+00 0.84910718E+03</pdfrwt>
<pdfrwt beam="2">  1       -2 0.93272025E-01 0.84910718E+03</pdfrwt>
<totfact> 0.32277315E+01</totfact>
</mgrwt>
</event>
<event>
 4    5  0.2473208E-007  0.1699765E+04  0.7818608E-02  0.8780108E-01
          2   -1    0    0  501    0  0.00000000000E+00  0.00000000000E+00  0.14312313799E+04  0.14312313799E+04  0.25500000000E-02 0. -1.
         -2   -1    0    0    0  501 -0.00000000000E+00 -0.00000000000E+00 -0.20234113952E+04  0.20234113952E+04  0.25500000000E-02 0.  1.
    8880023    1    1    2    0    0  0.12343097621E+04  0.96533482727E+03 -0.77789733044E+03  0.18693117398E+04  0.65864270000E+03 0.  0.
    8880022    1    1    2    0    0 -0.12343097621E+04 -0.96533482727E+03  0.18571731505E+03  0.15853310353E+04  0.15294330000E+03 0.  0.
<mgrwt>
<rscale>  0 0.16675219E+04</rscale>
<asrwt>0</asrwt>
<pdfrwt beam="1">  1        2 0.22018944E+00 0.16997653E+04</pdfrwt>
<pdfrwt beam="2">  1       -2 0.31129406E+00 0.16997653E+04</pdfrwt>
<totfact> 0.34736895E-01</totfact>
</mgrwt>
</event>
<event>
 4    5  0.2473208E-007  0.1311931E+04  0.7818608E-02  0.9055325E-01
         -2   -1    0    0    0  501 -0.00000000000E+00  0.00000000000E+00  0.89094845939E+03  0.89094845939E+03  0.25500000000E-02 0.  1.
          2   -1    0    0  501    0  0.00000000000E+00 -0.00000000000E+00 -0.23001081812E+04  0.23001081812E+04  0.25500000000E-02 0. -1.
    8880023    1    1    2    0    0  0.11192172581E+04  0.18629371530E+03  0.78007432463E+02  0.13142480683E+04  0.65864270000E+03 0.  0.
    8880022    1    1    2    0    0 -0.11192172581E+04 -0.18629371530E+03 -0.14871671543E+04  0.18768085723E+04  0.15294330000E+03 0.  0.
<mgrwt>
<rscale>  0 0.12680109E+04</rscale>
<asrwt>0</asrwt>
<pdfrwt beam="1">  1        2 0.35386280E+00 0.13119310E+04</pdfrwt>
<pdfrwt beam="2">  1       -2 0.13706899E+00 0.13119310E+04</pdfrwt>
<totfact> 0.16587359E+00</totfact>
</mgrwt>
</event>
<event>
 4    5  0.2473208E-007  0.6699373E+03  0.7818608E-02  0.1015708E+00
         -2   -1    0    0    0  501 -0.00000000000E+00  0.00000000000E+00  0.43853973067E+03  0.43853973068E+03  0.25500000000E-02 0.  1.
          2   -1    0    0  501    0  0.00000000000E+00 -0.00000000000E+00 -0.16839005506E+04  0.16839005506E+04  0.25500000000E-02 0. -1.
    8880023    1    1    2    0    0 -0.24761032759E+02 -0.11996964852E+03  0.17194632084E+03  0.69165133472E+03  0.65864270000E+03 0.  1.
    8880022    1    1    2    0    0  0.24761032759E+02  0.11996964852E+03 -0.14173071407E+04  0.14307889465E+04  0.15294330000E+03 0.  0.
<mgrwt>
<rscale>  0 0.49267834E+03</rscale>
<asrwt>0</asrwt>
<pdfrwt beam="1">  1        2 0.25906162E+00 0.66993733E+03</pdfrwt>
<pdfrwt beam="2">  1       -2 0.67467652E-01 0.66993733E+03</pdfrwt>
<totfact> 0.20943415E+01</totfact>
</mgrwt>
</event>
<event>
 4    5  0.2473208E-007  0.7169930E+03  0.7818608E-02  0.9932895E-01
          2   -1    0    0  501    0  0.00000000000E+00  0.00000000000E+00  0.16736350090E+04  0.16736350090E+04  0.25500000000E-02 0. -1.
         -2   -1    0    0    0  501 -0.00000000000E+00 -0.00000000000E+00 -0.71704390586E+03  0.71704390586E+03  0.25500000000E-02 0.  1.
    8880023    1    1    2    0    0 -0.28227408432E+03 -0.24291318084E+02 -0.51595925167E+03  0.88334188311E+03  0.65864270000E+03 0.  1.
    8880022    1    1    2    0    0  0.28227408432E+03  0.24291318084E+02  0.14725503549E+04  0.15073370318E+04  0.15294330000E+03 0.  0.
<mgrwt>
<rscale>  0 0.58693198E+03</rscale>
<asrwt>0</asrwt>
<pdfrwt beam="1">  1        2 0.25748231E+00 0.71699298E+03</pdfrwt>
<pdfrwt beam="2">  1       -2 0.11031445E+00 0.71699298E+03</pdfrwt>
<totfact> 0.68414620E+00</totfact>
</mgrwt>
</event>
<event>
 4    5  0.2473208E-007  0.8212375E+03  0.7818608E-02  0.9666628E-01
          2   -1    0    0  501    0  0.00000000000E+00  0.00000000000E+00  0.21583057168E+04  0.21583057168E+04  0.25500000000E-02 0. -1.
         -2   -1    0    0    0  501 -0.00000000000E+00 -0.00000000000E+00 -0.27424995795E+03  0.27424995796E+03  0.25500000000E-02 0.  1.
    8880023    1    1    2    0    0  0.28369067228E+03  0.40017550535E+03  0.51279374989E+03  0.96818824038E+03  0.65864270000E+03 0.  1.
    8880022    1    1    2    0    0 -0.28369067228E+03 -0.40017550535E+03  0.13712620089E+04  0.14643674344E+04  0.15294330000E+03 0.  0.
<mgrwt>
<rscale>  0 0.73038970E+03</rscale>
<asrwt>0</asrwt>
<pdfrwt beam="1">  1        2 0.33204704E+00 0.82123750E+03</pdfrwt>
<pdfrwt beam="2">  1       -2 0.42192301E-01 0.82123750E+03</pdfrwt>
<totfact> 0.29782098E+01</totfact>
</mgrwt>
</event>
<event>
 4    5  0.2473208E-007  0.9237797E+03  0.7818608E-02  0.9488888E-01
         -2   -1    0    0    0  501 -0.00000000000E+00  0.00000000000E+00  0.38753529862E+03  0.38753529863E+03  0.25500000000E-02 0.  1.
          2   -1    0    0  501    0  0.00000000000E+00 -0.00000000000E+00 -0.16591603777E+04  0.16591603777E+04  0.25500000000E-02 0. -1.
    8880023    1    1    2    0    0  0.31600814626E+03 -0.56541808005E+03 -0.87231514669E+03  0.12705521143E+04  0.65864270000E+03 0.  0.
    8880022    1    1    2    0    0 -0.31600814626E+03  0.56541808005E+03 -0.39930993237E+03  0.77614356201E+03  0.15294330000E+03 0.  0.
<mgrwt>
<rscale>  0 0.85108063E+03</rscale>
<asrwt>0</asrwt>
<pdfrwt beam="1">  1        2 0.25525544E+00 0.92377971E+03</pdfrwt>
<pdfrwt beam="2">  1       -2 0.59620816E-01 0.92377971E+03</pdfrwt>
<totfact> 0.27318201E+01</totfact>
</mgrwt>
</event>
<event>
 4    5  0.2473208E-007  0.8540470E+03  0.7818608E-02  0.9604242E-01
          2   -1    0    0  501    0  0.00000000000E+00  0.00000000000E+00  0.61156937378E+03  0.61156937379E+03  0.25500000000E-02 0. -1.
         -2   -1    0    0    0  501 -0.00000000000E+00 -0.00000000000E+00 -0.14369782223E+04  0.14369782223E+04  0.25500000000E-02 0.  1.
    8880023    1    1    2    0    0  0.48346643555E+03  0.24868910024E+03 -0.11224457078E+04  0.14104186032E+04  0.65864270000E+03 0.  1.
    8880022    1    1    2    0    0 -0.48346643555E+03 -0.24868910024E+03  0.29703685927E+03  0.63812899296E+03  0.15294330000E+03 0.  0.
<mgrwt>
<rscale>  0 0.77016073E+03</rscale>
<asrwt>0</asrwt>
<pdfrwt beam="1">  1        2 0.94087597E-01 0.85404699E+03</pdfrwt>
<pdfrwt beam="2">  1       -2 0.22107357E+00 0.85404699E+03</pdfrwt>
<totfact> 0.47672508E+00</totfact>
</mgrwt>
</event>
<event>
 4    5  0.2473208E-007  0.7938695E+03  0.7818608E-02  0.9724212E-01
         -2   -1    0    0    0  501 -0.00000000000E+00  0.00000000000E+00  0.20692893200E+03  0.20692893201E+03  0.25500000000E-02 0.  1.
          2   -1    0    0  501    0  0.00000000000E+00 -0.00000000000E+00 -0.36191096921E+04  0.36191096921E+04  0.25500000000E-02 0. -1.
    8880023    1    1    2    0    0  0.31525929524E+03 -0.31149665008E+03 -0.65477126180E+03  0.10290550023E+04  0.65864270000E+03 0.  1.
    8880022    1    1    2    0    0 -0.31525929524E+03  0.31149665008E+03 -0.27574094983E+04  0.27969836218E+04  0.15294330000E+03 0.  0.
<mgrwt>
<rscale>  0 0.69593364E+03</rscale>
<asrwt>0</asrwt>
<pdfrwt beam="1">  1        2 0.55678606E+00 0.79386951E+03</pdfrwt>
<pdfrwt beam="2">  1       -2 0.31835223E-01 0.79386951E+03</pdfrwt>
<totfact> 0.66084483E+00</totfact>
</mgrwt>
</event>
<event>
 4    5  0.2473208E-007  0.7443342E+03  0.7818608E-02  0.9847497E-01
          2   -1    0    0  501    0  0.00000000000E+00  0.00000000000E+00  0.20814177631E+04  0.20814177631E+04  0.25500000000E-02 0. -1.
         -2   -1    0    0    0  501 -0.00000000000E+00 -0.00000000000E+00 -0.65875786292E+03  0.65875786292E+03  0.25500000000E-02 0.  1.
    8880023    1    1    2    0    0  0.29490295329E+03 -0.18236076574E+03 -0.42291791112E+03  0.85609168116E+03  0.65864270000E+03 0.  1.
    8880022    1    1    2    0    0 -0.29490295329E+03  0.18236076574E+03  0.18455778113E+04  0.18840839449E+04  0.15294330000E+03 0.  0.
<mgrwt>
<rscale>  0 0.62874697E+03</rscale>
<asrwt>0</asrwt>
<pdfrwt beam="1">  1        2 0.32021812E+00 0.74433420E+03</pdfrwt>
<pdfrwt beam="2">  1       -2 0.10134736E+00 0.74433420E+03</pdfrwt>
<totfact> 0.50034272E+00</totfact>
</mgrwt>
</event>
<event>
 4    5  0.2473208E-007  0.8367177E+03  0.7818608E-02  0.9636401E-01
          2   -1    0    0  501    0  0.00000000000E+00  0.00000000000E+00  0.18659508412E+04  0.18659508412E+04  0.25500000000E-02 0. -1.
         -2   -1    0    0    0  501 -0.00000000000E+00 -0.00000000000E+00 -0.25328199025E+03  0.25328199027E+03  0.25500000000E-02 0.  1.
    8880023    1    1    2    0    0 -0.19473249813E+03  0.47787604011E+03  0.98077198456E+03  0.12891897252E+04  0.65864270000E+03 0.  0.
    8880022    1    1    2    0    0  0.19473249813E+03 -0.47787604011E+03  0.63189686641E+03  0.83004310631E+03  0.15294330000E+03 0.  1.
<mgrwt>
<rscale>  0 0.74933088E+03</rscale>
<asrwt>0</asrwt>
<pdfrwt beam="1">  1        2 0.28706936E+00 0.83671767E+03</pdfrwt>
<pdfrwt beam="2">  1       -2 0.38966460E-01 0.83671767E+03</pdfrwt>
<totfact> 0.50247616E+01</totfact>
</mgrwt>
</event>
<event>
 4    5  0.2473208E-007  0.8328304E+03  0.7818608E-02  0.9643850E-01
          2   -1    0    0  501    0  0.00000000000E+00  0.00000000000E+00  0.81793691623E+03  0.81793691623E+03  0.25500000000E-02 0. -1.
         -2   -1    0    0    0  501 -0.00000000000E+00 -0.00000000000E+00 -0.21128218450E+04  0.21128218450E+04  0.25500000000E-02 0.  1.
    8880023    1    1    2    0    0  0.38191474634E+03 -0.33754622758E+03 -0.19300865028E+04  0.21021038138E+04  0.65864270000E+03 0.  1.
    8880022    1    1    2    0    0 -0.38191474634E+03  0.33754622758E+03  0.63520157406E+03  0.82865494745E+03  0.15294330000E+03 0.  0.
<mgrwt>
<rscale>  0 0.74460645E+03</rscale>
<asrwt>0</asrwt>
<pdfrwt beam="1">  1        2 0.12583645E+00 0.83283044E+03</pdfrwt>
<pdfrwt beam="2">  1       -2 0.32504951E+00 0.83283044E+03</pdfrwt>
<totfact> 0.77110511E-01</totfact>
</mgrwt>
</event>
<event>
 4    5  0.2473208E-007  0.7605534E+03  0.7818608E-02  0.9803677E-01
          2   -1    0    0  501    0  0.00000000000E+00  0.00000000000E+00  0.54049652534E+03  0.54049652534E+03  0.25500000000E-02 0. -1.
         -2   -1    0    0    0  501 -0.00000000000E+00 -0.00000000000E+00 -0.21320243039E+04  0.21320243039E+04  0.25500000000E-02 0.  1.
    8880023    1    1    2    0    0 -0.16647312364E+03  0.34193264954E+03 -0.19717957318E+04  0.21133906056E+04  0.65864270000E+03 0.  1.
    8880022    1    1    2    0    0  0.16647312364E+03 -0.34193264954E+03  0.38026795323E+03  0.55913022363E+03  0.15294330000E+03 0.  0.
<mgrwt>
<rscale>  0 0.65165590E+03</rscale>
<asrwt>0</asrwt>
<pdfrwt beam="1">  1        2 0.83153313E-01 0.76055338E+03</pdfrwt>
<pdfrwt beam="2">  1       -2 0.32800373E+00 0.76055338E+03</pdfrwt>
<totfact> 0.12570078E+00</totfact>
</mgrwt>
</event>
<event>
 4    5  0.2473208E-007  0.6993616E+03  0.7818608E-02  0.9999860E-01
          2   -1    0    0  501    0  0.00000000000E+00  0.00000000000E+00  0.70318065832E+03  0.70318065832E+03  0.25500000000E-02 0. -1.
         -2   -1    0    0    0  501 -0.00000000000E+00 -0.00000000000E+00 -0.75775221735E+03  0.75775221735E+03  0.25500000000E-02 0.  1.
    8880023    1    1    2    0    0 -0.18500247576E+03 -0.14515697899E+03 -0.55126210220E+03  0.89050355203E+03  0.65864270000E+03 0.  1.
    8880022    1    1    2    0    0  0.18500247576E+03  0.14515697899E+03  0.49669054317E+03  0.57042932365E+03  0.15294330000E+03 0.  0.
<mgrwt>
<rscale>  0 0.55656384E+03</rscale>
<asrwt>0</asrwt>
<pdfrwt beam="1">  1        2 0.10818164E+00 0.69936162E+03</pdfrwt>
<pdfrwt beam="2">  1       -2 0.11657726E+00 0.69936162E+03</pdfrwt>
<totfact> 0.23663107E+01</totfact>
</mgrwt>
</event>
<event>
 4    5  0.2473208E-007  0.1044196E+04  0.7818608E-02  0.9325891E-01
         -2   -1    0    0    0  501 -0.00000000000E+00  0.00000000000E+00  0.72429622899E+03  0.72429622900E+03  0.25500000000E-02 0.  1.
          2   -1    0    0  501    0  0.00000000000E+00 -0.00000000000E+00 -0.26109680602E+04  0.26109680602E+04  0.25500000000E-02 0. -1.
    8880023    1    1    2    0    0 -0.43871552556E+03 -0.68122234917E+03  0.22512884609E+03  0.10681893114E+04  0.65864270000E+03 0.  0.
    8880022    1    1    2    0    0  0.43871552556E+03  0.68122234917E+03 -0.21118006773E+04  0.22670749778E+04  0.15294330000E+03 0.  0.
<mgrwt>
<rscale>  0 0.98433814E+03</rscale>
<asrwt>0</asrwt>
<pdfrwt beam="1">  1        2 0.40168739E+00 0.10441961E+04</pdfrwt>
<pdfrwt beam="2">  1       -2 0.11143019E+00 0.10441961E+04</pdfrwt>
<totfact> 0.19157243E+00</totfact>
</mgrwt>
</event>
<event>
 4    5  0.2473208E-007  0.1344897E+04  0.7818608E-02  0.9027727E-01
          2   -1    0    0  501    0  0.00000000000E+00  0.00000000000E+00  0.14170220294E+04  0.14170220294E+04  0.25500000000E-02 0. -1.
         -2   -1    0    0    0  501 -0.00000000000E+00 -0.00000000000E+00 -0.14014525557E+04  0.14014525557E+04  0.25500000000E-02 0.  1.
    8880023    1    1    2    0    0  0.73936703061E+03 -0.91009501806E+03  0.63081425031E+03  0.14854875875E+04  0.65864270000E+03 0.  0.
    8880022    1    1    2    0    0 -0.73936703061E+03  0.91009501806E+03 -0.61524477658E+03  0.13329869977E+04  0.15294330000E+03 0.  0.
<mgrwt>
<rscale>  0 0.13023203E+04</rscale>
<asrwt>0</asrwt>
<pdfrwt beam="1">  1        2 0.21800339E+00 0.13448966E+04</pdfrwt>
<pdfrwt beam="2">  1       -2 0.21560808E+00 0.13448966E+04</pdfrwt>
<totfact> 0.14256300E+00</totfact>
</mgrwt>
</event>
<event>
 4    5  0.2473208E-007  0.6833118E+03  0.7818608E-02  0.1007509E+00
         -2   -1    0    0    0  501 -0.00000000000E+00  0.00000000000E+00  0.12337449566E+04  0.12337449566E+04  0.25500000000E-02 0.  1.
          2   -1    0    0  501    0  0.00000000000E+00 -0.00000000000E+00 -0.73118210410E+03  0.73118210410E+03  0.25500000000E-02 0. -1.
    8880023    1    1    2    0    0  0.32458197032E+02 -0.17902874448E+03  0.11151454377E+04  0.13078472309E+04  0.65864270000E+03 0.  1.
    8880022    1    1    2    0    0 -0.32458197032E+02  0.17902874448E+03 -0.61258258525E+03  0.65707982975E+03  0.15294330000E+03 0.  0.
<mgrwt>
<rscale>  0 0.52476743E+03</rscale>
<asrwt>0</asrwt>
<pdfrwt beam="1">  1        2 0.11248956E+00 0.68331181E+03</pdfrwt>
<pdfrwt beam="2">  1       -2 0.18980692E+00 0.68331181E+03</pdfrwt>
<totfact> 0.61974091E+00</totfact>
</mgrwt>
</event>
<event>
 4    5  0.2473208E-007  0.1159428E+04  0.7818608E-02  0.9197607E-01
         -2   -1    0    0    0  501 -0.00000000000E+00  0.00000000000E+00  0.62259692178E+03  0.62259692178E+03  0.25500000000E-02 0.  1.
          2   -1    0    0  501    0  0.00000000000E+00 -0.00000000000E+00 -0.22148252488E+04  0.22148252488E+04  0.25500000000E-02 0. -1.
    8880023    1    1    2    0    0 -0.56437854734E+03  0.76937670364E+03 -0.25428838136E+03  0.11869862863E+04  0.65864270000E+03 0.  0.
    8880022    1    1    2    0    0  0.56437854734E+03 -0.76937670364E+03 -0.13379399457E+04  0.16504358843E+04  0.15294330000E+03 0.  0.
<mgrwt>
<rscale>  0 0.11078166E+04</rscale>
<asrwt>0</asrwt>
<pdfrwt beam="1">  1        2 0.34074234E+00 0.11594282E+04</pdfrwt>
<pdfrwt beam="2">  1       -2 0.95784143E-01 0.11594282E+04</pdfrwt>
<totfact> 0.45631936E+00</totfact>
</mgrwt>
</event>
<event>
 4    5  0.2473208E-007  0.7816986E+03  0.7818608E-02  0.9751862E-01
         -2   -1    0    0    0  501 -0.00000000000E+00  0.00000000000E+00  0.36872069334E+03  0.36872069335E+03  0.25500000000E-02 0.  1.
          2   -1    0    0  501    0  0.00000000000E+00 -0.00000000000E+00 -0.23638190930E+04  0.23638190930E+04  0.25500000000E-02 0. -1.
    8880023    1    1    2    0    0 -0.40387516706E+03  0.11885880502E+03 -0.10336827767E+03  0.78850350233E+03  0.65864270000E+03 0.  0.
    8880022    1    1    2    0    0  0.40387516706E+03 -0.11885880502E+03 -0.18917301220E+04  0.19440362840E+04  0.15294330000E+03 0. -1.
<mgrwt>
<rscale>  0 0.68011154E+03</rscale>
<asrwt>0</asrwt>
<pdfrwt beam="1">  1        2 0.36366447E+00 0.78169865E+03</pdfrwt>
<pdfrwt beam="2">  1       -2 0.56726262E-01 0.78169865E+03</pdfrwt>
<totfact> 0.12628086E+01</totfact>
</mgrwt>
</event>
<event>
 4    5  0.2473208E-007  0.7582715E+03  0.7818608E-02  0.9809603E-01
         -2   -1    0    0    0  501 -0.00000000000E+00  0.00000000000E+00  0.41492824826E+03  0.41492824827E+03  0.25500000000E-02 0.  1.
          2   -1    0    0  501    0  0.00000000000E+00 -0.00000000000E+00 -0.98431474667E+03  0.98431474667E+03  0.25500000000E-02 0. -1.
    8880023    1    1    2    0    0  0.22015647944E+03 -0.30446124477E+03 -0.78336654702E+02  0.76230726268E+03  0.65864270000E+03 0.  0.
    8880022    1    1    2    0    0 -0.22015647944E+03  0.30446124477E+03 -0.49104984371E+03  0.63693573226E+03  0.15294330000E+03 0.  0.
<mgrwt>
<rscale>  0 0.64849730E+03</rscale>
<asrwt>0</asrwt>
<pdfrwt beam="1">  1        2 0.15143304E+00 0.75827154E+03</pdfrwt>
<pdfrwt beam="2">  1       -2 0.63835115E-01 0.75827154E+03</pdfrwt>
<totfact> 0.59354164E+01</totfact>
</mgrwt>
</event>
<event>
 4    5  0.2473208E-007  0.1650139E+04  0.7818608E-02  0.8810304E-01
         -2   -1    0    0    0  501 -0.00000000000E+00  0.00000000000E+00  0.15670861773E+04  0.15670861773E+04  0.25500000000E-02 0.  1.
          2   -1    0    0  501    0  0.00000000000E+00 -0.00000000000E+00 -0.18394738348E+04  0.18394738348E+04  0.25500000000E-02 0. -1.
    8880023    1    1    2    0    0 -0.14214794623E+04  0.51821437746E+03  0.46796297331E+03  0.17152112271E+04  0.65864270000E+03 0.  0.
    8880022    1    1    2    0    0  0.14214794623E+04 -0.51821437746E+03 -0.74035063082E+03  0.16913487850E+04  0.15294330000E+03 0.  0.
<mgrwt>
<rscale>  0 0.16167828E+04</rscale>
<asrwt>0</asrwt>
<pdfrwt beam="1">  1        2 0.28299597E+00 0.16501395E+04</pdfrwt>
<pdfrwt beam="2">  1       -2 0.24109018E+00 0.16501395E+04</pdfrwt>
<totfact> 0.55317540E-01</totfact>
</mgrwt>
</event>
<event>
 4    5  0.2473208E-007  0.7740952E+03  0.7818608E-02  0.9769895E-01
          2   -1    0    0  501    0  0.00000000000E+00  0.00000000000E+00  0.24112309470E+04  0.24112309470E+04  0.25500000000E-02 0. -1.
         -2   -1    0    0    0  501 -0.00000000000E+00 -0.00000000000E+00 -0.16141162074E+03  0.16141162076E+03  0.25500000000E-02 0.  1.
    8880023    1    1    2    0    0 -0.39858644578E+03 -0.80883023893E+02  0.11140061233E+04  0.13565519037E+04  0.65864270000E+03 0.  0.
    8880022    1    1    2    0    0  0.39858644578E+03  0.80883023893E+02  0.11358132029E+04  0.12160906641E+04  0.15294330000E+03 0.  0.
<mgrwt>
<rscale>  0 0.67003493E+03</rscale>
<asrwt>0</asrwt>
<pdfrwt beam="1">  1        2 0.37095858E+00 0.77409523E+03</pdfrwt>
<pdfrwt beam="2">  1       -2 0.24832559E-01 0.77409523E+03</pdfrwt>
<totfact> 0.58803863E+01</totfact>
</mgrwt>
</event>
<event>
 4    5  0.2473208E-007  0.8228740E+03  0.7818608E-02  0.9663360E-01
          2   -1    0    0  501    0  0.00000000000E+00  0.00000000000E+00  0.68120524771E+03  0.68120524771E+03  0.25500000000E-02 0. -1.
         -2   -1    0    0    0  501 -0.00000000000E+00 -0.00000000000E+00 -0.94104343148E+03  0.94104343149E+03  0.25500000000E-02 0.  1.
    8880023    1    1    2    0    0  0.48910236718E+03 -0.63955108715E+02 -0.58710798390E+03  0.10108498269E+04  0.65864270000E+03 0.  1.
    8880022    1    1    2    0    0 -0.48910236718E+03  0.63955108715E+02  0.32726980012E+03  0.61139885230E+03  0.15294330000E+03 0.  0.
<mgrwt>
<rscale>  0 0.73240870E+03</rscale>
<asrwt>0</asrwt>
<pdfrwt beam="1">  1        2 0.10480081E+00 0.82287398E+03</pdfrwt>
<pdfrwt beam="2">  1       -2 0.14477591E+00 0.82287398E+03</pdfrwt>
<totfact> 0.14058630E+01</totfact>
</mgrwt>
</event>
<event>
 4    5  0.2473208E-007  0.1900724E+04  0.7818608E-02  0.8668775E-01
         -2   -1    0    0    0  501 -0.00000000000E+00  0.00000000000E+00  0.16940408980E+04  0.16940408980E+04  0.25500000000E-02 0.  1.
          2   -1    0    0  501    0  0.00000000000E+00 -0.00000000000E+00 -0.26503458350E+04  0.26503458350E+04  0.25500000000E-02 0. -1.
    8880023    1    1    2    0    0 -0.13602573849E+04 -0.11526666100E+04  0.57854749152E+03  0.19868235637E+04  0.65864270000E+03 0.  0.
    8880022    1    1    2    0    0  0.13602573849E+04  0.11526666100E+04 -0.15348524285E+04  0.23575631693E+04  0.15294330000E+03 0.  0.
<mgrwt>
<rscale>  0 0.18722875E+04</rscale>
<asrwt>0</asrwt>
<pdfrwt beam="1">  1        2 0.40774551E+00 0.19007237E+04</pdfrwt>
<pdfrwt beam="2">  1       -2 0.26062168E+00 0.19007237E+04</pdfrwt>
<totfact> 0.14098441E-01</totfact>
</mgrwt>
</event>
<event>
 4    5  0.2473208E-007  0.1217821E+04  0.7818608E-02  0.9139991E-01
         -2   -1    0    0    0  501 -0.00000000000E+00  0.00000000000E+00  0.16325506702E+04  0.16325506702E+04  0.25500000000E-02 0.  1.
          2   -1    0    0  501    0  0.00000000000E+00 -0.00000000000E+00 -0.13490862903E+04  0.13490862903E+04  0.25500000000E-02 0. -1.
    8880023    1    1    2    0    0 -0.10243269111E+04 -0.56652491507E+01  0.11167509669E+04  0.16523379328E+04  0.65864270000E+03 0.  1.
    8880022    1    1    2    0    0  0.10243269111E+04  0.56652491507E+01 -0.83328658699E+03  0.13292990277E+04  0.15294330000E+03 0.  0.
<mgrwt>
<rscale>  0 0.11694881E+04</rscale>
<asrwt>0</asrwt>
<pdfrwt beam="1">  1        2 0.20755174E+00 0.12178210E+04</pdfrwt>
<pdfrwt beam="2">  1       -2 0.25116164E+00 0.12178210E+04</pdfrwt>
<totfact> 0.94926165E-01</totfact>
</mgrwt>
</event>
<event>
 4    5  0.2473208E-007  0.9096191E+03  0.7818608E-02  0.9510763E-01
         -2   -1    0    0    0  501 -0.00000000000E+00  0.00000000000E+00  0.70335348828E+03  0.70335348829E+03  0.25500000000E-02 0.  1.
          2   -1    0    0  501    0  0.00000000000E+00 -0.00000000000E+00 -0.10336996159E+04  0.10336996159E+04  0.25500000000E-02 0. -1.
    8880023    1    1    2    0    0  0.21278966480E+03  0.59018415271E+03  0.16339285476E+03  0.92417758402E+03  0.65864270000E+03 0.  0.
    8880022    1    1    2    0    0 -0.21278966480E+03 -0.59018415271E+03 -0.49373898237E+03  0.81287552016E+03  0.15294330000E+03 0.  0.
<mgrwt>
<rscale>  0 0.83494947E+03</rscale>
<asrwt>0</asrwt>
<pdfrwt beam="1">  1        2 0.15903071E+00 0.90961914E+03</pdfrwt>
<pdfrwt beam="2">  1       -2 0.10820823E+00 0.90961914E+03</pdfrwt>
<totfact> 0.16406071E+01</totfact>
</mgrwt>
</event>
<event>
 4    5  0.2473208E-007  0.8836566E+03  0.7818608E-02  0.9552794E-01
         -2   -1    0    0    0  501 -0.00000000000E+00  0.00000000000E+00  0.70131973230E+03  0.70131973230E+03  0.25500000000E-02 0.  1.
          2   -1    0    0  501    0  0.00000000000E+00 -0.00000000000E+00 -0.28812045509E+04  0.28812045509E+04  0.25500000000E-02 0. -1.
    8880023    1    1    2    0    0 -0.44172242033E+03  0.38976926250E+03  0.37221832583E+03  0.95885111616E+03  0.65864270000E+03 0.  0.
    8880022    1    1    2    0    0  0.44172242033E+03 -0.38976926250E+03 -0.25521031445E+04  0.26236731671E+04  0.15294330000E+03 0.  0.
<mgrwt>
<rscale>  0 0.80500944E+03</rscale>
<asrwt>0</asrwt>
<pdfrwt beam="1">  1        2 0.44326223E+00 0.88365660E+03</pdfrwt>
<pdfrwt beam="2">  1       -2 0.10789535E+00 0.88365660E+03</pdfrwt>
<totfact> 0.14717103E+00</totfact>
</mgrwt>
</event>
<event>
 4    5  0.2473208E-007  0.1116556E+04  0.7818608E-02  0.9242844E-01
          2   -1    0    0  501    0  0.00000000000E+00  0.00000000000E+00  0.13750274303E+04  0.13750274303E+04  0.25500000000E-02 0. -1.
         -2   -1    0    0    0  501 -0.00000000000E+00 -0.00000000000E+00 -0.76465631135E+03  0.76465631135E+03  0.25500000000E-02 0.  1.
    8880023    1    1    2    0    0  0.88109860240E+03  0.19118517732E+03  0.48233066169E+03  0.12162810500E+04  0.65864270000E+03 0. -1.
    8880022    1    1    2    0    0 -0.88109860240E+03 -0.19118517732E+03  0.12804045725E+03  0.92340269162E+03  0.15294330000E+03 0.  0.
<mgrwt>
<rscale>  0 0.10621948E+04</rscale>
<asrwt>0</asrwt>
<pdfrwt beam="1">  1        2 0.21154268E+00 0.11165557E+04</pdfrwt>
<pdfrwt beam="2">  1       -2 0.11763943E+00 0.11165557E+04</pdfrwt>
<totfact> 0.81967660E+00</totfact>
</mgrwt>
</event>
<event>
 4    5  0.2473208E-007  0.8873276E+03  0.7818608E-02  0.9546689E-01
          2   -1    0    0  501    0  0.00000000000E+00  0.00000000000E+00  0.13218015805E+04  0.13218015805E+04  0.25500000000E-02 0. -1.
         -2   -1    0    0    0  501 -0.00000000000E+00 -0.00000000000E+00 -0.11257048672E+04  0.11257048672E+04  0.25500000000E-02 0.  1.
    8880023    1    1    2    0    0 -0.16529579891E+03  0.57115446019E+03 -0.85372629523E+03  0.12313402909E+04  0.65864270000E+03 0.  0.
    8880022    1    1    2    0    0  0.16529579891E+03 -0.57115446019E+03  0.10498230086E+04  0.12161661568E+04  0.15294330000E+03 0.  0.
<mgrwt>
<rscale>  0 0.80927448E+03</rscale>
<asrwt>0</asrwt>
<pdfrwt beam="1">  1        2 0.20335409E+00 0.88732763E+03</pdfrwt>
<pdfrwt beam="2">  1       -2 0.17318536E+00 0.88732763E+03</pdfrwt>
<totfact> 0.32665134E+00</totfact>
</mgrwt>
</event>
<event>
 4    5  0.2473208E-007  0.8233198E+03  0.7818608E-02  0.9662473E-01
          2   -1    0    0  501    0  0.00000000000E+00  0.00000000000E+00  0.15290148162E+04  0.15290148162E+04  0.25500000000E-02 0. -1.
         -2   -1    0    0    0  501 -0.00000000000E+00 -0.00000000000E+00 -0.32177875820E+03  0.32177875821E+03  0.25500000000E-02 0.  1.
    8880023    1    1    2    0    0 -0.24924501673E+03 -0.42652335328E+03  0.99584043587E+03  0.12921120808E+04  0.65864270000E+03 0.  0.
    8880022    1    1    2    0    0  0.24924501673E+03  0.42652335328E+03  0.21139562211E+03  0.55868149363E+03  0.15294330000E+03 0.  0.
<mgrwt>
<rscale>  0 0.73295798E+03</rscale>
<asrwt>0</asrwt>
<pdfrwt beam="1">  1        2 0.23523305E+00 0.82331978E+03</pdfrwt>
<pdfrwt beam="2">  1       -2 0.49504425E-01 0.82331978E+03</pdfrwt>
<totfact> 0.47904386E+01</totfact>
</mgrwt>
</event>
<event>
 4    5  0.2473208E-007  0.1440093E+04  0.7818608E-02  0.8953140E-01
          2   -1    0    0  501    0  0.00000000000E+00  0.00000000000E+00  0.25031576910E+04  0.25031576910E+04  0.25500000000E-02 0. -1.
         -2   -1    0    0    0  501 -0.00000000000E+00 -0.00000000000E+00 -0.10092162323E+04  0.10092162323E+04  0.25500000000E-02 0.  1.
    8880023    1    1    2    0    0  0.12634086872E+04 -0.20941764562E+03 -0.12151951925E+03  0.14452108708E+04  0.65864270000E+03 0.  0.
    8880022    1    1    2    0    0 -0.12634086872E+04  0.20941764562E+03  0.16154609779E+04  0.20671630525E+04  0.15294330000E+03 0.  0.
<mgrwt>
<rscale>  0 0.14009385E+04</rscale>
<asrwt>0</asrwt>
<pdfrwt beam="1">  1        2 0.38510118E+00 0.14400929E+04</pdfrwt>
<pdfrwt beam="2">  1       -2 0.15526404E+00 0.14400929E+04</pdfrwt>
<totfact> 0.90006037E-01</totfact>
</mgrwt>
</event>
<event>
 4    5  0.2473208E-007  0.7389466E+03  0.7818608E-02  0.9863026E-01
         -2   -1    0    0    0  501 -0.00000000000E+00  0.00000000000E+00  0.66132961296E+03  0.66132961297E+03  0.25500000000E-02 0.  1.
          2   -1    0    0  501    0  0.00000000000E+00 -0.00000000000E+00 -0.10424447923E+04  0.10424447923E+04  0.25500000000E-02 0. -1.
    8880023    1    1    2    0    0 -0.29348521528E+03 -0.16154952724E+03  0.39995278578E+03  0.84024059558E+03  0.65864270000E+03 0.  1.
    8880022    1    1    2    0    0  0.29348521528E+03  0.16154952724E+03 -0.78106796507E+03  0.86353380966E+03  0.15294330000E+03 0.  0.
<mgrwt>
<rscale>  0 0.62087137E+03</rscale>
<asrwt>0</asrwt>
<pdfrwt beam="1">  1        2 0.16037612E+00 0.73894657E+03</pdfrwt>
<pdfrwt beam="2">  1       -2 0.10174302E+00 0.73894657E+03</pdfrwt>
<totfact> 0.19103502E+01</totfact>
</mgrwt>
</event>
<event>
 4    5  0.2473208E-007  0.1593339E+04  0.7818608E-02  0.8846391E-01
         -2   -1    0    0    0  501 -0.00000000000E+00  0.00000000000E+00  0.70831819970E+03  0.70831819971E+03  0.25500000000E-02 0.  1.
          2   -1    0    0  501    0  0.00000000000E+00 -0.00000000000E+00 -0.37674757104E+04  0.37674757104E+04  0.25500000000E-02 0. -1.
    8880023    1    1    2    0    0 -0.95232993690E+03  0.10945260845E+04 -0.23860135628E+04  0.28691097202E+04  0.65864270000E+03 0.  0.
    8880022    1    1    2    0    0  0.95232993690E+03 -0.10945260845E+04 -0.67314394783E+03  0.16066841898E+04  0.15294330000E+03 0.  0.
<mgrwt>
<rscale>  0 0.15586033E+04</rscale>
<asrwt>0</asrwt>
<pdfrwt beam="1">  1        2 0.57961163E+00 0.15933392E+04</pdfrwt>
<pdfrwt beam="2">  1       -2 0.10897203E+00 0.15933392E+04</pdfrwt>
<totfact> 0.33304419E-01</totfact>
</mgrwt>
</event>
<event>
 4    5  0.2473208E-007  0.6912236E+03  0.7818608E-02  0.1003576E+00
          2   -1    0    0  501    0  0.00000000000E+00  0.00000000000E+00  0.35201360013E+04  0.35201360013E+04  0.25500000000E-02 0. -1.
         -2   -1    0    0    0  501 -0.00000000000E+00 -0.00000000000E+00 -0.29426362459E+03  0.29426362460E+03  0.25500000000E-02 0.  1.
    8880023    1    1    2    0    0 -0.16172392313E+03 -0.13351108290E+03  0.12469732890E+03  0.70238128297E+03  0.65864270000E+03 0.  1.
    8880022    1    1    2    0    0  0.16172392313E+03  0.13351108290E+03  0.31011750479E+04  0.31120183430E+04  0.15294330000E+03 0.  0.
<mgrwt>
<rscale>  0 0.54109489E+03</rscale>
<asrwt>0</asrwt>
<pdfrwt beam="1">  1        2 0.54155937E+00 0.69122358E+03</pdfrwt>
<pdfrwt beam="2">  1       -2 0.45271328E-01 0.69122358E+03</pdfrwt>
<totfact> 0.40053303E+00</totfact>
</mgrwt>
</event>
<event>
 4    5  0.2473208E-007  0.1092623E+04  0.7818608E-02  0.9269314E-01
          2   -1    0    0  501    0  0.00000000000E+00  0.00000000000E+00  0.14319465543E+04  0.14319465543E+04  0.25500000000E-02 0. -1.
         -2   -1    0    0    0  501 -0.00000000000E+00 -0.00000000000E+00 -0.10768917294E+04  0.10768917294E+04  0.25500000000E-02 0.  1.
    8880023    1    1    2    0    0 -0.84721640586E+03 -0.20552185026E+03 -0.56677747535E+03  0.12308784595E+04  0.65864270000E+03 0.  1.
    8880022    1    1    2    0    0  0.84721640586E+03  0.20552185026E+03  0.92183230024E+03  0.12779598241E+04  0.15294330000E+03 0.  0.
<mgrwt>
<rscale>  0 0.10365760E+04</rscale>
<asrwt>0</asrwt>
<pdfrwt beam="1">  1        2 0.22029947E+00 0.10926230E+04</pdfrwt>
<pdfrwt beam="2">  1       -2 0.16567565E+00 0.10926230E+04</pdfrwt>
<totfact> 0.31185864E+00</totfact>
</mgrwt>
</event>
<event>
 4    5  0.2473208E-007  0.8882280E+03  0.7818608E-02  0.9545200E-01
          2   -1    0    0  501    0  0.00000000000E+00  0.00000000000E+00  0.27372869941E+04  0.27372869941E+04  0.25500000000E-02 0. -1.
         -2   -1    0    0    0  501 -0.00000000000E+00 -0.00000000000E+00 -0.38873995573E+03  0.38873995573E+03  0.25500000000E-02 0.  1.
    8880023    1    1    2    0    0 -0.22811928971E+03  0.55054543787E+03  0.22658785804E+03  0.91667385322E+03  0.65864270000E+03 0.  0.
    8880022    1    1    2    0    0  0.22811928971E+03 -0.55054543787E+03  0.21219591804E+04  0.22093530967E+04  0.15294330000E+03 0.  0.
<mgrwt>
<rscale>  0 0.81031880E+03</rscale>
<asrwt>0</asrwt>
<pdfrwt beam="1">  1        2 0.42112108E+00 0.88822795E+03</pdfrwt>
<pdfrwt beam="2">  1       -2 0.59806147E-01 0.88822795E+03</pdfrwt>
<totfact> 0.67940370E+00</totfact>
</mgrwt>
</event>
<event>
 4    5  0.2511211E-007  0.1045231E+04  0.7818608E-02  0.9324637E-01
         -2   -1    0    0    0  501 -0.00000000000E+00  0.00000000000E+00  0.12787919981E+04  0.12787919981E+04  0.25500000000E-02 0.  1.
          2   -1    0    0  501    0  0.00000000000E+00 -0.00000000000E+00 -0.19646004352E+04  0.19646004352E+04  0.25500000000E-02 0. -1.
    8880023    1    1    2    0    0 -0.24709798660E+03  0.77307144661E+03  0.94902372666E+03  0.14117907482E+04  0.65864270000E+03 0.  0.
    8880022    1    1    2    0    0  0.24709798660E+03 -0.77307144661E+03 -0.16348321638E+04  0.18316016852E+04  0.15294330000E+03 0.  0.
<mgrwt>
<rscale>  0 0.98546043E+03</rscale>
<asrwt>0</asrwt>
<pdfrwt beam="1">  1        2 0.30224622E+00 0.10452306E+04</pdfrwt>
<pdfrwt beam="2">  1       -2 0.19673723E+00 0.10452306E+04</pdfrwt>
<totfact> 0.96859579E-01</totfact>
</mgrwt>
</event>
<event>
 4    5  0.2473208E-007  0.8969725E+03  0.7818608E-02  0.9530909E-01
          2   -1    0    0  501    0  0.00000000000E+00  0.00000000000E+00  0.32681083599E+04  0.32681083599E+04  0.25500000000E-02 0. -1.
         -2   -1    0    0    0  501 -0.00000000000E+00 -0.00000000000E+00 -0.29394220520E+03  0.29394220521E+03  0.25500000000E-02 0.  1.
    8880023    1    1    2    0    0 -0.19793269658E+03 -0.57582303720E+03  0.53724149964E+03  0.10455563867E+04  0.65864270000E+03 0.  1.
    8880022    1    1    2    0    0  0.19793269658E+03  0.57582303720E+03  0.24369246551E+04  0.25164941784E+04  0.15294330000E+03 0.  0.
<mgrwt>
<rscale>  0 0.82042868E+03</rscale>
<asrwt>0</asrwt>
<pdfrwt beam="1">  1        2 0.50278592E+00 0.89697254E+03</pdfrwt>
<pdfrwt beam="2">  1       -2 0.45221876E-01 0.89697254E+03</pdfrwt>
<totfact> 0.56772934E+00</totfact>
</mgrwt>
</event>
<event>
 4    5  0.2473208E-007  0.7193689E+03  0.7818608E-02  0.9924727E-01
         -2   -1    0    0    0  501 -0.00000000000E+00  0.00000000000E+00  0.72119166494E+03  0.72119166494E+03  0.25500000000E-02 0.  1.
          2   -1    0    0  501    0  0.00000000000E+00 -0.00000000000E+00 -0.80946000339E+03  0.80946000339E+03  0.25500000000E-02 0. -1.
    8880023    1    1    2    0    0  0.26458219534E+03 -0.11695141823E+03  0.48708316115E+03  0.86875864569E+03  0.65864270000E+03 0.  1.
    8880022    1    1    2    0    0 -0.26458219534E+03  0.11695141823E+03 -0.57535149960E+03  0.66189302265E+03  0.15294330000E+03 0.  0.
<mgrwt>
<rscale>  0 0.59077722E+03</rscale>
<asrwt>0</asrwt>
<pdfrwt beam="1">  1        2 0.12453231E+00 0.71936888E+03</pdfrwt>
<pdfrwt beam="2">  1       -2 0.11095256E+00 0.71936888E+03</pdfrwt>
<totfact> 0.22201491E+01</totfact>
</mgrwt>
</event>
<event>
 4    5  0.2473208E-007  0.9381342E+03  0.7818608E-02  0.9467396E-01
         -2   -1    0    0    0  501 -0.00000000000E+00  0.00000000000E+00  0.71198950175E+03  0.71198950176E+03  0.25500000000E-02 0.  1.
          2   -1    0    0  501    0  0.00000000000E+00 -0.00000000000E+00 -0.45143280082E+04  0.45143280082E+04  0.25500000000E-02 0. -1.
    8880023    1    1    2    0    0  0.16396919744E+03  0.64761075782E+03  0.36230329628E+03  0.10056636993E+04  0.65864270000E+03 0.  1.
    8880022    1    1    2    0    0 -0.16396919744E+03 -0.64761075782E+03 -0.41646418027E+04  0.42206538106E+04  0.15294330000E+03 0.  0.
<mgrwt>
<rscale>  0 0.86730863E+03</rscale>
<asrwt>0</asrwt>
<pdfrwt beam="1">  1        2 0.69451198E+00 0.93813421E+03</pdfrwt>
<pdfrwt beam="2">  1       -2 0.10953685E+00 0.93813421E+03</pdfrwt>
<totfact> 0.86088072E-02</totfact>
</mgrwt>
</event>
<event>
 4    5  0.2473208E-007  0.7546519E+03  0.7818608E-02  0.9819155E-01
          2   -1    0    0  501    0  0.00000000000E+00  0.00000000000E+00  0.14770784731E+04  0.14770784731E+04  0.25500000000E-02 0. -1.
         -2   -1    0    0    0  501 -0.00000000000E+00 -0.00000000000E+00 -0.66921389289E+03  0.66921389290E+03  0.25500000000E-02 0.  1.
    8880023    1    1    2    0    0 -0.16018257968E+03 -0.33170899439E+03 -0.41415696847E+03  0.86082838975E+03  0.65864270000E+03 0.  0.
    8880022    1    1    2    0    0  0.16018257968E+03  0.33170899439E+03  0.12220215487E+04  0.12854639763E+04  0.15294330000E+03 0.  0.
<mgrwt>
<rscale>  0 0.64344627E+03</rscale>
<asrwt>0</asrwt>
<pdfrwt beam="1">  1        2 0.22724284E+00 0.75465192E+03</pdfrwt>
<pdfrwt beam="2">  1       -2 0.10295598E+00 0.75465192E+03</pdfrwt>
<totfact> 0.10315829E+01</totfact>
</mgrwt>
</event>
<event>
 4    5  0.2473208E-007  0.2129599E+04  0.7818608E-02  0.8559265E-01
          2   -1    0    0  501    0  0.00000000000E+00  0.00000000000E+00  0.28172975412E+04  0.28172975412E+04  0.25500000000E-02 0. -1.
         -2   -1    0    0    0  501 -0.00000000000E+00 -0.00000000000E+00 -0.23459592010E+04  0.23459592010E+04  0.25500000000E-02 0.  1.
    8880023    1    1    2    0    0  0.18785132017E+04 -0.75668261710E+03  0.17559172472E+04  0.27601514483E+04  0.65864270000E+03 0.  0.
    8880022    1    1    2    0    0 -0.18785132017E+04  0.75668261710E+03 -0.12845789070E+04  0.24031052939E+04  0.15294330000E+03 0.  0.
<mgrwt>
<rscale>  0 0.21044971E+04</rscale>
<asrwt>0</asrwt>
<pdfrwt beam="1">  1        2 0.43343039E+00 0.21295987E+04</pdfrwt>
<pdfrwt beam="2">  1       -2 0.36091680E+00 0.21295987E+04</pdfrwt>
<totfact> 0.26053119E-02</totfact>
</mgrwt>
</event>
<event>
 4    5  0.2473208E-007  0.9146948E+03  0.7818608E-02  0.9502842E-01
         -2   -1    0    0    0  501 -0.00000000000E+00  0.00000000000E+00  0.49858806588E+03  0.49858806589E+03  0.25500000000E-02 0.  1.
          2   -1    0    0  501    0  0.00000000000E+00 -0.00000000000E+00 -0.19427610901E+04  0.19427610901E+04  0.25500000000E-02 0. -1.
    8880023    1    1    2    0    0  0.59573521081E+03 -0.21898853003E+03 -0.66864304897E+02  0.91713546394E+03  0.65864270000E+03 0.  1.
    8880022    1    1    2    0    0 -0.59573521081E+03  0.21898853003E+03 -0.13773087193E+04  0.15242136920E+04  0.15294330000E+03 0.  0.
<mgrwt>
<rscale>  0 0.84074631E+03</rscale>
<asrwt>0</asrwt>
<pdfrwt beam="1">  1        2 0.29888632E+00 0.91469483E+03</pdfrwt>
<pdfrwt beam="2">  1       -2 0.76705857E-01 0.91469483E+03</pdfrwt>
<totfact> 0.11045416E+01</totfact>
</mgrwt>
</event>
<event>
 4    5  0.2473208E-007  0.9692344E+03  0.7818608E-02  0.9422964E-01
         -2   -1    0    0    0  501 -0.00000000000E+00  0.00000000000E+00  0.38864735728E+04  0.38864735728E+04  0.25500000000E-02 0.  1.
          2   -1    0    0  501    0  0.00000000000E+00 -0.00000000000E+00 -0.10645554159E+04  0.10645554159E+04  0.25500000000E-02 0. -1.
    8880023    1    1    2    0    0  0.56752152643E+03  0.42839747354E+03  0.36919358929E+04  0.38170415143E+04  0.65864270000E+03 0.  1.
    8880022    1    1    2    0    0 -0.56752152643E+03 -0.42839747354E+03 -0.87001773596E+03  0.11339874744E+04  0.15294330000E+03 0.  0.
<mgrwt>
<rscale>  0 0.90209699E+03</rscale>
<asrwt>0</asrwt>
<pdfrwt beam="1">  1        2 0.16377776E+00 0.96923438E+03</pdfrwt>
<pdfrwt beam="2">  1       -2 0.59791901E+00 0.96923438E+03</pdfrwt>
<totfact> 0.11679401E-02</totfact>
</mgrwt>
</event>
<event>
 4    5  0.2473208E-007  0.6944883E+03  0.7818608E-02  0.1002088E+00
         -2   -1    0    0    0  501 -0.00000000000E+00  0.00000000000E+00  0.24133587803E+03  0.24133587804E+03  0.25500000000E-02 0.  1.
          2   -1    0    0  501    0  0.00000000000E+00 -0.00000000000E+00 -0.16697621892E+04  0.16697621892E+04  0.25500000000E-02 0. -1.
    8880023    1    1    2    0    0  0.11591416564E+03  0.18726353681E+03 -0.30921424817E+03  0.76021535340E+03  0.65864270000E+03 0.  0.
    8880022    1    1    2    0    0 -0.11591416564E+03 -0.18726353681E+03 -0.11192120630E+04  0.11508827138E+04  0.15294330000E+03 0.  0.
<mgrwt>
<rscale>  0 0.54743971E+03</rscale>
<asrwt>0</asrwt>
<pdfrwt beam="1">  1        2 0.25688648E+00 0.69448825E+03</pdfrwt>
<pdfrwt beam="2">  1       -2 0.37128598E-01 0.69448825E+03</pdfrwt>
<totfact> 0.71695073E+01</totfact>
</mgrwt>
</event>
<event>
 4    5  0.2473208E-007  0.7875814E+03  0.7818608E-02  0.9738320E-01
          2   -1    0    0  501    0  0.00000000000E+00  0.00000000000E+00  0.51376754769E+03  0.51376754770E+03  0.25500000000E-02 0. -1.
         -2   -1    0    0    0  501 -0.00000000000E+00 -0.00000000000E+00 -0.12167121058E+04  0.12167121058E+04  0.25500000000E-02 0.  1.
    8880023    1    1    2    0    0 -0.37419122632E+03  0.21553478161E+03  0.11209328820E+03  0.79551833886E+03  0.65864270000E+03 0.  0.
    8880022    1    1    2    0    0  0.37419122632E+03 -0.21553478161E+03 -0.81503784631E+03  0.93496131464E+03  0.15294330000E+03 0.  0.
<mgrwt>
<rscale>  0 0.68780346E+03</rscale>
<asrwt>0</asrwt>
<pdfrwt beam="1">  1        2 0.79041161E-01 0.78758144E+03</pdfrwt>
<pdfrwt beam="2">  1       -2 0.18718648E+00 0.78758144E+03</pdfrwt>
<totfact> 0.97916797E+00</totfact>
</mgrwt>
</event>
<event>
 4    5  0.2473208E-007  0.7213339E+03  0.7818608E-02  0.9918098E-01
         -2   -1    0    0    0  501 -0.00000000000E+00  0.00000000000E+00  0.38654126974E+03  0.38654126975E+03  0.25500000000E-02 0.  1.
          2   -1    0    0  501    0  0.00000000000E+00 -0.00000000000E+00 -0.18659124149E+04  0.18659124149E+04  0.25500000000E-02 0. -1.
    8880023    1    1    2    0    0  0.23827765959E+03  0.17244181696E+03  0.15262350036E+02  0.72149536997E+03  0.65864270000E+03 0.  0.
    8880022    1    1    2    0    0 -0.23827765959E+03 -0.17244181696E+03 -0.14946334952E+04  0.15309583147E+04  0.15294330000E+03 0.  0.
<mgrwt>
<rscale>  0 0.59392143E+03</rscale>
<asrwt>0</asrwt>
<pdfrwt beam="1">  1        2 0.28706344E+00 0.72133392E+03</pdfrwt>
<pdfrwt beam="2">  1       -2 0.59467889E-01 0.72133392E+03</pdfrwt>
<totfact> 0.21664219E+01</totfact>
</mgrwt>
</event>
<event>
 4    5  0.2473208E-007  0.1053831E+04  0.7818608E-02  0.9314291E-01
          2   -1    0    0  501    0  0.00000000000E+00  0.00000000000E+00  0.15331131635E+04  0.15331131635E+04  0.25500000000E-02 0. -1.
         -2   -1    0    0    0  501 -0.00000000000E+00 -0.00000000000E+00 -0.80591426532E+03  0.80591426533E+03  0.25500000000E-02 0.  1.
    8880023    1    1    2    0    0  0.59382361092E+03 -0.56931728212E+03 -0.21855628786E+03  0.10762554092E+04  0.65864270000E+03 0. -1.
    8880022    1    1    2    0    0 -0.59382361092E+03  0.56931728212E+03  0.94575518605E+03  0.12627720196E+04  0.15294330000E+03 0.  0.
<mgrwt>
<rscale>  0 0.99477813E+03</rscale>
<asrwt>0</asrwt>
<pdfrwt beam="1">  1        2 0.23586356E+00 0.10538306E+04</pdfrwt>
<pdfrwt beam="2">  1       -2 0.12398681E+00 0.10538306E+04</pdfrwt>
<totfact> 0.58809640E+00</totfact>
</mgrwt>
</event>
<event>
 4    5  0.2473208E-007  0.6771354E+03  0.7818608E-02  0.1010993E+00
          2   -1    0    0  501    0  0.00000000000E+00  0.00000000000E+00  0.80542850669E+03  0.80542850669E+03  0.25500000000E-02 0. -1.
         -2   -1    0    0    0  501 -0.00000000000E+00 -0.00000000000E+00 -0.13375296334E+04  0.13375296334E+04  0.25500000000E-02 0.  1.
    8880023    1    1    2    0    0  0.10348447353E+03  0.11829265810E+03 -0.12340118677E+04  0.14075857647E+04  0.65864270000E+03 0.  1.
    8880022    1    1    2    0    0 -0.10348447353E+03 -0.11829265810E+03  0.70191074094E+03  0.73537237539E+03  0.15294330000E+03 0.  0.
<mgrwt>
<rscale>  0 0.51081994E+03</rscale>
<asrwt>0</asrwt>
<pdfrwt beam="1">  1        2 0.12391208E+00 0.67713543E+03</pdfrwt>
<pdfrwt beam="2">  1       -2 0.20577379E+00 0.67713543E+03</pdfrwt>
<totfact> 0.43031128E+00</totfact>
</mgrwt>
</event>
<event>
 4    5  0.2473208E-007  0.9180247E+03  0.7818608E-02  0.9497694E-01
         -2   -1    0    0    0  501 -0.00000000000E+00  0.00000000000E+00  0.17964863407E+04  0.17964863407E+04  0.25500000000E-02 0.  1.
          2   -1    0    0  501    0  0.00000000000E+00 -0.00000000000E+00 -0.12885518740E+04  0.12885518740E+04  0.25500000000E-02 0. -1.
    8880023    1    1    2    0    0 -0.53743995123E+03 -0.34657959284E+03  0.15800303320E+04  0.18273656371E+04  0.65864270000E+03 0.  1.
    8880022    1    1    2    0    0  0.53743995123E+03  0.34657959284E+03 -0.10720958653E+04  0.12576725777E+04  0.15294330000E+03 0.  0.
<mgrwt>
<rscale>  0 0.84454015E+03</rscale>
<asrwt>0</asrwt>
<pdfrwt beam="1">  1        2 0.19823875E+00 0.91802468E+03</pdfrwt>
<pdfrwt beam="2">  1       -2 0.27638251E+00 0.91802468E+03</pdfrwt>
<totfact> 0.75391707E-01</totfact>
</mgrwt>
</event>
<event>
 4    5  0.2473208E-007  0.1365931E+04  0.7818608E-02  0.9010618E-01
          2   -1    0    0  501    0  0.00000000000E+00  0.00000000000E+00  0.24819509259E+04  0.24819509259E+04  0.25500000000E-02 0. -1.
         -2   -1    0    0    0  501 -0.00000000000E+00 -0.00000000000E+00 -0.95098129670E+03  0.95098129670E+03  0.25500000000E-02 0.  1.
    8880023    1    1    2    0    0 -0.60138695402E+03 -0.10345482768E+04 -0.13879668392E+03  0.13729643590E+04  0.65864270000E+03 0.  0.
    8880022    1    1    2    0    0  0.60138695402E+03  0.10345482768E+04  0.16697663132E+04  0.20599678636E+04  0.15294330000E+03 0.  0.
<mgrwt>
<rscale>  0 0.13241658E+04</rscale>
<asrwt>0</asrwt>
<pdfrwt beam="1">  1        2 0.38183860E+00 0.13659307E+04</pdfrwt>
<pdfrwt beam="2">  1       -2 0.14630481E+00 0.13659307E+04</pdfrwt>
<totfact> 0.10942904E+00</totfact>
</mgrwt>
</event>
<event>
 4    5  0.2473208E-007  0.7458706E+03  0.7818608E-02  0.9843165E-01
          2   -1    0    0  501    0  0.00000000000E+00  0.00000000000E+00  0.22361547703E+04  0.22361547703E+04  0.25500000000E-02 0. -1.
         -2   -1    0    0    0  501 -0.00000000000E+00 -0.00000000000E+00 -0.42961537401E+03  0.42961537402E+03  0.25500000000E-02 0.  1.
    8880023    1    1    2    0    0  0.31580459704E+03  0.15093124431E+03 -0.71490394314E+02  0.74928890741E+03  0.65864270000E+03 0.  0.
    8880022    1    1    2    0    0 -0.31580459704E+03 -0.15093124431E+03  0.18780297906E+04  0.19164812369E+04  0.15294330000E+03 0.  0.
<mgrwt>
<rscale>  0 0.63096634E+03</rscale>
<asrwt>0</asrwt>
<pdfrwt beam="1">  1        2 0.34402381E+00 0.74587063E+03</pdfrwt>
<pdfrwt beam="2">  1       -2 0.66094674E-01 0.74587063E+03</pdfrwt>
<totfact> 0.10810659E+01</totfact>
</mgrwt>
</event>
<event>
 4    5  0.2473208E-007  0.1481625E+04  0.7818608E-02  0.8922722E-01
          2   -1    0    0  501    0  0.00000000000E+00  0.00000000000E+00  0.34396739016E+04  0.34396739017E+04  0.25500000000E-02 0. -1.
         -2   -1    0    0    0  501 -0.00000000000E+00 -0.00000000000E+00 -0.63891092182E+03  0.63891092182E+03  0.25500000000E-02 0.  1.
    8880023    1    1    2    0    0  0.30158367973E+03  0.12924582344E+04  0.83172925177E+03  0.16991129327E+04  0.65864270000E+03 0.  0.
    8880022    1    1    2    0    0 -0.30158367973E+03 -0.12924582344E+04  0.19690337281E+04  0.23794718907E+04  0.15294330000E+03 0.  0.
<mgrwt>
<rscale>  0 0.14437835E+04</rscale>
<asrwt>0</asrwt>
<pdfrwt beam="1">  1        2 0.52918059E+00 0.14816245E+04</pdfrwt>
<pdfrwt beam="2">  1       -2 0.98293989E-01 0.14816245E+04</pdfrwt>
<totfact> 0.74229191E-01</totfact>
</mgrwt>
</event>
<event>
 4    5  0.2473208E-007  0.9707100E+03  0.7818608E-02  0.9420923E-01
          2   -1    0    0  501    0  0.00000000000E+00  0.00000000000E+00  0.24338568604E+04  0.24338568605E+04  0.25500000000E-02 0. -1.
         -2   -1    0    0    0  501 -0.00000000000E+00 -0.00000000000E+00 -0.12922978321E+04  0.12922978321E+04  0.25500000000E-02 0.  1.
    8880023    1    1    2    0    0  0.60949522687E+02  0.71045955928E+03 -0.10419608533E+04  0.14240646951E+04  0.65864270000E+03 0.  1.
    8880022    1    1    2    0    0 -0.60949522687E+02 -0.71045955928E+03  0.21835198817E+04  0.23020899975E+04  0.15294330000E+03 0.  0.
<mgrwt>
<rscale>  0 0.90373626E+03</rscale>
<asrwt>0</asrwt>
<pdfrwt beam="1">  1        2 0.37443951E+00 0.97070996E+03</pdfrwt>
<pdfrwt beam="2">  1       -2 0.19881505E+00 0.97070996E+03</pdfrwt>
<totfact> 0.52015029E-01</totfact>
</mgrwt>
</event>
<event>
 4    5  0.2473208E-007  0.1247516E+04  0.7818608E-02  0.9112262E-01
          2   -1    0    0  501    0  0.00000000000E+00  0.00000000000E+00  0.13378407988E+04  0.13378407988E+04  0.25500000000E-02 0. -1.
         -2   -1    0    0    0  501 -0.00000000000E+00 -0.00000000000E+00 -0.22730902181E+04  0.22730902181E+04  0.25500000000E-02 0.  1.
    8880023    1    1    2    0    0 -0.53602231431E+03  0.91387437076E+03 -0.18306871076E+04  0.22153355907E+04  0.65864270000E+03 0.  0.
    8880022    1    1    2    0    0  0.53602231431E+03 -0.91387437076E+03  0.89543768840E+03  0.13955954263E+04  0.15294330000E+03 0.  0.
<mgrwt>
<rscale>  0 0.12006790E+04</rscale>
<asrwt>0</asrwt>
<pdfrwt beam="1">  1        2 0.20582166E+00 0.12475161E+04</pdfrwt>
<pdfrwt beam="2">  1       -2 0.34970619E+00 0.12475161E+04</pdfrwt>
<totfact> 0.23914366E-01</totfact>
</mgrwt>
</event>
<event>
 4    5  0.2473208E-007  0.1356911E+04  0.7818608E-02  0.9017908E-01
          2   -1    0    0  501    0  0.00000000000E+00  0.00000000000E+00  0.24281766278E+04  0.24281766278E+04  0.25500000000E-02 0. -1.
         -2   -1    0    0    0  501 -0.00000000000E+00 -0.00000000000E+00 -0.90368915281E+03  0.90368915281E+03  0.25500000000E-02 0.  1.
    8880023    1    1    2    0    0  0.66682830480E+03 -0.98119210682E+03 -0.46044762603E+02  0.13576922571E+04  0.65864270000E+03 0.  0.
    8880022    1    1    2    0    0 -0.66682830480E+03  0.98119210682E+03  0.15705322376E+04  0.19741735235E+04  0.15294330000E+03 0.  0.
<mgrwt>
<rscale>  0 0.13148026E+04</rscale>
<asrwt>0</asrwt>
<pdfrwt beam="1">  1        2 0.37356563E+00 0.13569113E+04</pdfrwt>
<pdfrwt beam="2">  1       -2 0.13902910E+00 0.13569113E+04</pdfrwt>
<totfact> 0.13451594E+00</totfact>
</mgrwt>
</event>
<event>
 4    5  0.2473208E-007  0.1338337E+04  0.7818608E-02  0.9033141E-01
          2   -1    0    0  501    0  0.00000000000E+00  0.00000000000E+00  0.18904555275E+04  0.18904555275E+04  0.25500000000E-02 0. -1.
         -2   -1    0    0    0  501 -0.00000000000E+00 -0.00000000000E+00 -0.15313170379E+04  0.15313170379E+04  0.25500000000E-02 0.  1.
    8880023    1    1    2    0    0 -0.32100180324E+03 -0.11199528639E+04 -0.96611062718E+03  0.16506109552E+04  0.65864270000E+03 0.  1.
    8880022    1    1    2    0    0  0.32100180324E+03  0.11199528639E+04  0.13252491167E+04  0.17711616102E+04  0.15294330000E+03 0.  0.
<mgrwt>
<rscale>  0 0.12955009E+04</rscale>
<asrwt>0</asrwt>
<pdfrwt beam="1">  1        2 0.29083931E+00 0.13383373E+04</pdfrwt>
<pdfrwt beam="2">  1       -2 0.23558724E+00 0.13383373E+04</pdfrwt>
<totfact> 0.57923645E-01</totfact>
</mgrwt>
</event>
<event>
 4    5  0.2473208E-007  0.7611387E+03  0.7818608E-02  0.9802168E-01
          2   -1    0    0  501    0  0.00000000000E+00  0.00000000000E+00  0.17005941403E+03  0.17005941405E+03  0.25500000000E-02 0. -1.
         -2   -1    0    0    0  501 -0.00000000000E+00 -0.00000000000E+00 -0.34311893781E+04  0.34311893781E+04  0.25500000000E-02 0.  1.
    8880023    1    1    2    0    0 -0.37763873905E+03  0.53952603505E+02 -0.79314738594E+03  0.10992792560E+04  0.65864270000E+03 0. -1.
    8880022    1    1    2    0    0  0.37763873905E+03 -0.53952603505E+02 -0.24679825782E+04  0.25019695362E+04  0.15294330000E+03 0.  0.
<mgrwt>
<rscale>  0 0.65246303E+03</rscale>
<asrwt>0</asrwt>
<pdfrwt beam="1">  1        2 0.26162989E-01 0.76113869E+03</pdfrwt>
<pdfrwt beam="2">  1       -2 0.52787524E+00 0.76113869E+03</pdfrwt>
<totfact> 0.24405344E-01</totfact>
</mgrwt>
</event>
<event>
 4    5  0.2473208E-007  0.1131476E+04  0.7818608E-02  0.9226795E-01
         -2   -1    0    0    0  501 -0.00000000000E+00  0.00000000000E+00  0.73255246468E+03  0.73255246469E+03  0.25500000000E-02 0.  1.
          2   -1    0    0  501    0  0.00000000000E+00 -0.00000000000E+00 -0.17009702940E+04  0.17009702940E+04  0.25500000000E-02 0. -1.
    8880023    1    1    2    0    0 -0.91177737389E+03  0.12284074911E+03 -0.62302055926E+02  0.11331900024E+04  0.65864270000E+03 0.  1.
    8880022    1    1    2    0    0  0.91177737389E+03 -0.12284074911E+03 -0.90611577338E+03  0.13003327562E+04  0.15294330000E+03 0.  0.
<mgrwt>
<rscale>  0 0.10781090E+04</rscale>
<asrwt>0</asrwt>
<pdfrwt beam="1">  1        2 0.26168774E+00 0.11314760E+04</pdfrwt>
<pdfrwt beam="2">  1       -2 0.11270038E+00 0.11314760E+04</pdfrwt>
<totfact> 0.59607932E+00</totfact>
</mgrwt>
</event>
<event>
 4    5  0.2473208E-007  0.7506204E+03  0.7818608E-02  0.9830025E-01
         -2   -1    0    0    0  501 -0.00000000000E+00  0.00000000000E+00  0.10930992768E+04  0.10930992768E+04  0.25500000000E-02 0.  1.
          2   -1    0    0  501    0  0.00000000000E+00 -0.00000000000E+00 -0.86379141912E+03  0.86379141913E+03  0.25500000000E-02 0. -1.
    8880023    1    1    2    0    0 -0.13557724780E+03  0.33352589979E+03  0.90522062168E+03  0.11759486792E+04  0.65864270000E+03 0.  1.
    8880022    1    1    2    0    0  0.13557724780E+03 -0.33352589979E+03 -0.67591276399E+03  0.78094201673E+03  0.15294330000E+03 0.  0.
<mgrwt>
<rscale>  0 0.63775823E+03</rscale>
<asrwt>0</asrwt>
<pdfrwt beam="1">  1        2 0.13289099E+00 0.75062036E+03</pdfrwt>
<pdfrwt beam="2">  1       -2 0.16816912E+00 0.75062036E+03</pdfrwt>
<totfact> 0.69441763E+00</totfact>
</mgrwt>
</event>
<event>
 4    5  0.2473208E-007  0.6659930E+03  0.7818608E-02  0.1018714E+00
         -2   -1    0    0    0  501 -0.00000000000E+00  0.00000000000E+00  0.31338700732E+03  0.31338700733E+03  0.25500000000E-02 0.  1.
          2   -1    0    0  501    0  0.00000000000E+00 -0.00000000000E+00 -0.20605563959E+04  0.20605563959E+04  0.25500000000E-02 0. -1.
    8880023    1    1    2    0    0 -0.59849309679E+02 -0.78451122031E+02 -0.50898175404E+02  0.66793513827E+03  0.65864270000E+03 0.  1.
    8880022    1    1    2    0    0  0.59849309679E+02  0.78451122031E+02 -0.16962712132E+04  0.17060082650E+04  0.15294330000E+03 0.  0.
<mgrwt>
<rscale>  0 0.48153399E+03</rscale>
<asrwt>0</asrwt>
<pdfrwt beam="1">  1        2 0.31700867E+00 0.66599304E+03</pdfrwt>
<pdfrwt beam="2">  1       -2 0.48213387E-01 0.66599304E+03</pdfrwt>
<totfact> 0.26374554E+01</totfact>
</mgrwt>
</event>
<event>
 4    5  0.2473208E-007  0.6864100E+03  0.7818608E-02  0.1005908E+00
         -2   -1    0    0    0  501 -0.00000000000E+00  0.00000000000E+00  0.15883290453E+03  0.15883290455E+03  0.25500000000E-02 0.  1.
          2   -1    0    0  501    0  0.00000000000E+00 -0.00000000000E+00 -0.18055284526E+04  0.18055284526E+04  0.25500000000E-02 0. -1.
    8880023    1    1    2    0    0 -0.53201243886E+02  0.18579050325E+03 -0.67798512043E+03  0.96479143509E+03  0.65864270000E+03 0.  1.
    8880022    1    1    2    0    0  0.53201243886E+02 -0.18579050325E+03 -0.96871042767E+03  0.99956992209E+03  0.15294330000E+03 0.  0.
<mgrwt>
<rscale>  0 0.53133959E+03</rscale>
<asrwt>0</asrwt>
<pdfrwt beam="1">  1        2 0.27777359E+00 0.68641000E+03</pdfrwt>
<pdfrwt beam="2">  1       -2 0.24435833E-01 0.68641000E+03</pdfrwt>
<totfact> 0.13154894E+02</totfact>
</mgrwt>
</event>
<event>
 4    5  0.2473208E-007  0.7296167E+03  0.7818608E-02  0.9891296E-01
          2   -1    0    0  501    0  0.00000000000E+00  0.00000000000E+00  0.11972452585E+04  0.11972452585E+04  0.25500000000E-02 0. -1.
         -2   -1    0    0    0  501 -0.00000000000E+00 -0.00000000000E+00 -0.26827274341E+03  0.26827274343E+03  0.25500000000E-02 0.  1.
    8880023    1    1    2    0    0  0.27372581348E+03 -0.15363761849E+03  0.40106731436E+03  0.83258365087E+03  0.65864270000E+03 0.  0.
    8880022    1    1    2    0    0 -0.27372581348E+03  0.15363761849E+03  0.52790520068E+03  0.63293435102E+03  0.15294330000E+03 0.  0.
<mgrwt>
<rscale>  0 0.60684997E+03</rscale>
<asrwt>0</asrwt>
<pdfrwt beam="1">  1        2 0.18419158E+00 0.72961671E+03</pdfrwt>
<pdfrwt beam="2">  1       -2 0.41272730E-01 0.72961671E+03</pdfrwt>
<totfact> 0.10746560E+02</totfact>
</mgrwt>
</event>
<event>
 4    5  0.2473208E-007  0.9846174E+03  0.7818608E-02  0.9401965E-01
         -2   -1    0    0    0  501 -0.00000000000E+00  0.00000000000E+00  0.13277725732E+04  0.13277725732E+04  0.25500000000E-02 0.  1.
          2   -1    0    0  501    0  0.00000000000E+00 -0.00000000000E+00 -0.10450770285E+04  0.10450770285E+04  0.25500000000E-02 0. -1.
    8880023    1    1    2    0    0 -0.57927444793E+03 -0.44732795159E+03  0.95182055673E+03  0.13694647716E+04  0.65864270000E+03 0.  1.
    8880022    1    1    2    0    0  0.57927444793E+03  0.44732795159E+03 -0.66912501207E+03  0.10033848300E+04  0.15294330000E+03 0.  0.
<mgrwt>
<rscale>  0 0.91914119E+03</rscale>
<asrwt>0</asrwt>
<pdfrwt beam="1">  1        2 0.16078108E+00 0.98461738E+03</pdfrwt>
<pdfrwt beam="2">  1       -2 0.20427270E+00 0.98461738E+03</pdfrwt>
<totfact> 0.29230565E+00</totfact>
</mgrwt>
</event>
<event>
 4    5  0.2473208E-007  0.1523428E+04  0.7818608E-02  0.8893267E-01
          2   -1    0    0  501    0  0.00000000000E+00  0.00000000000E+00  0.24468720585E+04  0.24468720585E+04  0.25500000000E-02 0. -1.
         -2   -1    0    0    0  501 -0.00000000000E+00 -0.00000000000E+00 -0.15711642266E+04  0.15711642266E+04  0.25500000000E-02 0.  1.
    8880023    1    1    2    0    0  0.34464702945E+02  0.13732574878E+04 -0.89875579240E+03  0.17687837980E+04  0.65864270000E+03 0.  1.
    8880022    1    1    2    0    0 -0.34464702945E+02 -0.13732574878E+04  0.17744636244E+04  0.22492524871E+04  0.15294330000E+03 0.  0.
<mgrwt>
<rscale>  0 0.14868170E+04</rscale>
<asrwt>0</asrwt>
<pdfrwt beam="1">  1        2 0.37644185E+00 0.15234284E+04</pdfrwt>
<pdfrwt beam="2">  1       -2 0.24171757E+00 0.15234284E+04</pdfrwt>
<totfact> 0.25255650E-01</totfact>
</mgrwt>
</event>
<event>
 4    5  0.2473208E-007  0.1148376E+04  0.7818608E-02  0.9209015E-01
         -2   -1    0    0    0  501 -0.00000000000E+00  0.00000000000E+00  0.15796675181E+04  0.15796675181E+04  0.25500000000E-02 0.  1.
          2   -1    0    0  501    0  0.00000000000E+00 -0.00000000000E+00 -0.14876305277E+04  0.14876305277E+04  0.25500000000E-02 0. -1.
    8880023    1    1    2    0    0 -0.47577888930E+03 -0.81153636571E+03  0.11624792285E+04  0.16340517089E+04  0.65864270000E+03 0.  0.
    8880022    1    1    2    0    0  0.47577888930E+03  0.81153636571E+03 -0.10704422380E+04  0.14332463369E+04  0.15294330000E+03 0.  0.
<mgrwt>
<rscale>  0 0.10960859E+04</rscale>
<asrwt>0</asrwt>
<pdfrwt beam="1">  1        2 0.22886623E+00 0.11483758E+04</pdfrwt>
<pdfrwt beam="2">  1       -2 0.24302577E+00 0.11483758E+04</pdfrwt>
<totfact> 0.89467269E-01</totfact>
</mgrwt>
</event>
<event>
 4    5  0.2473208E-007  0.7168659E+03  0.7818608E-02  0.9933337E-01
         -2   -1    0    0    0  501 -0.00000000000E+00  0.00000000000E+00  0.64641240438E+03  0.64641240438E+03  0.25500000000E-02 0.  1.
          2   -1    0    0  501    0  0.00000000000E+00 -0.00000000000E+00 -0.63224198940E+03  0.63224198941E+03  0.25500000000E-02 0. -1.
    8880023    1    1    2    0    0  0.10097281385E+03  0.26436917349E+03  0.36351414745E+03  0.80376570634E+03  0.65864270000E+03 0.  1.
    8880022    1    1    2    0    0 -0.10097281385E+03 -0.26436917349E+03 -0.34934373248E+03  0.47488868745E+03  0.15294330000E+03 0.  0.
<mgrwt>
<rscale>  0 0.58672498E+03</rscale>
<asrwt>0</asrwt>
<pdfrwt beam="1">  1        2 0.97267998E-01 0.71686594E+03</pdfrwt>
<pdfrwt beam="2">  1       -2 0.99448063E-01 0.71686594E+03</pdfrwt>
<totfact> 0.39535647E+01</totfact>
</mgrwt>
</event>
<event>
 4    5  0.2473208E-007  0.1495943E+04  0.7818608E-02  0.8912506E-01
          2   -1    0    0  501    0  0.00000000000E+00  0.00000000000E+00  0.19860240419E+04  0.19860240419E+04  0.25500000000E-02 0. -1.
         -2   -1    0    0    0  501 -0.00000000000E+00 -0.00000000000E+00 -0.22923455064E+04  0.22923455064E+04  0.25500000000E-02 0.  1.
    8880023    1    1    2    0    0  0.13422156468E+04 -0.49918940535E+02 -0.17488834985E+04  0.23013992354E+04  0.65864270000E+03 0.  0.
    8880022    1    1    2    0    0 -0.13422156468E+04  0.49918940535E+02  0.14425620339E+04  0.19769703129E+04  0.15294330000E+03 0.  0.
<mgrwt>
<rscale>  0 0.14585329E+04</rscale>
<asrwt>0</asrwt>
<pdfrwt beam="1">  1        2 0.30554216E+00 0.14959428E+04</pdfrwt>
<pdfrwt beam="2">  1       -2 0.35266854E+00 0.14959428E+04</pdfrwt>
<totfact> 0.95679366E-02</totfact>
</mgrwt>
</event>
<event>
 4    5  0.2473208E-007  0.7692356E+03  0.7818608E-02  0.9781759E-01
          2   -1    0    0  501    0  0.00000000000E+00  0.00000000000E+00  0.12439708446E+04  0.12439708446E+04  0.25500000000E-02 0. -1.
         -2   -1    0    0    0  501 -0.00000000000E+00 -0.00000000000E+00 -0.42116954281E+03  0.42116954281E+03  0.25500000000E-02 0.  1.
    8880023    1    1    2    0    0  0.50465477446E+02  0.39416542340E+03  0.35479229076E+02  0.77005332762E+03  0.65864270000E+03 0.  1.
    8880022    1    1    2    0    0 -0.50465477446E+02 -0.39416542340E+03  0.78732207272E+03  0.89508705980E+03  0.15294330000E+03 0.  0.
<mgrwt>
<rscale>  0 0.66350726E+03</rscale>
<asrwt>0</asrwt>
<pdfrwt beam="1">  1        2 0.19138013E+00 0.76923556E+03</pdfrwt>
<pdfrwt beam="2">  1       -2 0.64795315E-01 0.76923556E+03</pdfrwt>
<totfact> 0.39859206E+01</totfact>
</mgrwt>
</event>
<event>
 4    5  0.2473208E-007  0.6591070E+03  0.7818608E-02  0.1025091E+00
          2   -1    0    0  501    0  0.00000000000E+00  0.00000000000E+00  0.18310538378E+04  0.18310538378E+04  0.25500000000E-02 0. -1.
         -2   -1    0    0    0  501 -0.00000000000E+00 -0.00000000000E+00 -0.33545662305E+03  0.33545662306E+03  0.25500000000E-02 0.  1.
    8880023    1    1    2    0    0 -0.40005022333E+01  0.24409922031E+02 -0.38121414731E+01  0.65911803723E+03  0.65864270000E+03 0.  1.
    8880022    1    1    2    0    0  0.40005022333E+01 -0.24409922031E+02  0.14994093562E+04  0.15073924236E+04  0.15294330000E+03 0.  0.
<mgrwt>
<rscale>  0 0.45893510E+03</rscale>
<asrwt>0</asrwt>
<pdfrwt beam="1">  1        2 0.28170060E+00 0.65910701E+03</pdfrwt>
<pdfrwt beam="2">  1       -2 0.51608710E-01 0.65910701E+03</pdfrwt>
<totfact> 0.30639168E+01</totfact>
</mgrwt>
</event>
<event>
 4    5  0.2473208E-007  0.6595624E+03  0.7818608E-02  0.1024609E+00
          2   -1    0    0  501    0  0.00000000000E+00  0.00000000000E+00  0.19986185172E+04  0.19986185172E+04  0.25500000000E-02 0. -1.
         -2   -1    0    0    0  501 -0.00000000000E+00 -0.00000000000E+00 -0.18702178299E+03  0.18702178301E+03  0.25500000000E-02 0.  1.
    8880023    1    1    2    0    0  0.14846215700E+02  0.31494195666E+02  0.41283263009E+03  0.77810878495E+03  0.65864270000E+03 0.  1.
    8880022    1    1    2    0    0 -0.14846215700E+02 -0.31494195666E+02  0.13987641041E+04  0.14075315152E+04  0.15294330000E+03 0.  0.
<mgrwt>
<rscale>  0 0.46059317E+03</rscale>
<asrwt>0</asrwt>
<pdfrwt beam="1">  1        2 0.30747977E+00 0.65956236E+03</pdfrwt>
<pdfrwt beam="2">  1       -2 0.28772582E-01 0.65956236E+03</pdfrwt>
<totfact> 0.77019510E+01</totfact>
</mgrwt>
</event>
<event>
 4    5  0.2473208E-007  0.1137655E+04  0.7818608E-02  0.9220246E-01
          2   -1    0    0  501    0  0.00000000000E+00  0.00000000000E+00  0.11221838469E+04  0.11221838469E+04  0.25500000000E-02 0. -1.
         -2   -1    0    0    0  501 -0.00000000000E+00 -0.00000000000E+00 -0.20046921735E+04  0.20046921735E+04  0.25500000000E-02 0.  1.
    8880023    1    1    2    0    0  0.38515574129E+03 -0.84386262982E+03 -0.15865978101E+04  0.19523196204E+04  0.65864270000E+03 0.  1.
    8880022    1    1    2    0    0 -0.38515574129E+03  0.84386262982E+03  0.70408948346E+03  0.11745564000E+04  0.15294330000E+03 0.  0.
<mgrwt>
<rscale>  0 0.10846878E+04</rscale>
<asrwt>0</asrwt>
<pdfrwt beam="1">  1        2 0.17264367E+00 0.11376552E+04</pdfrwt>
<pdfrwt beam="2">  1       -2 0.30841418E+00 0.11376552E+04</pdfrwt>
<totfact> 0.58734384E-01</totfact>
</mgrwt>
</event>
<event>
 4    5  0.2473208E-007  0.7644726E+03  0.7818608E-02  0.9793663E-01
         -2   -1    0    0    0  501 -0.00000000000E+00  0.00000000000E+00  0.25016194853E+03  0.25016194854E+03  0.25500000000E-02 0.  1.
          2   -1    0    0  501    0  0.00000000000E+00 -0.00000000000E+00 -0.22426105580E+04  0.22426105580E+04  0.25500000000E-02 0. -1.
    8880023    1    1    2    0    0 -0.37217582274E+03  0.10996935503E+03 -0.43317710984E+03  0.87866985656E+03  0.65864270000E+03 0.  1.
    8880022    1    1    2    0    0  0.37217582274E+03 -0.10996935503E+03 -0.15592714996E+04  0.16141026500E+04  0.15294330000E+03 0.  0.
<mgrwt>
<rscale>  0 0.65703728E+03</rscale>
<asrwt>0</asrwt>
<pdfrwt beam="1">  1        2 0.34501700E+00 0.76447257E+03</pdfrwt>
<pdfrwt beam="2">  1       -2 0.38486455E-01 0.76447257E+03</pdfrwt>
<totfact> 0.32254512E+01</totfact>
</mgrwt>
</event>
<event>
 4    5  0.2473208E-007  0.7583107E+03  0.7818608E-02  0.9809501E-01
         -2   -1    0    0    0  501 -0.00000000000E+00  0.00000000000E+00  0.48381295292E+03  0.48381295293E+03  0.25500000000E-02 0.  1.
          2   -1    0    0  501    0  0.00000000000E+00 -0.00000000000E+00 -0.22022237623E+04  0.22022237623E+04  0.25500000000E-02 0. -1.
    8880023    1    1    2    0    0  0.96296159722E+02  0.36325183963E+03  0.15091894790E+03  0.77318276266E+03  0.65864270000E+03 0.  0.
    8880022    1    1    2    0    0 -0.96296159722E+02 -0.36325183963E+03 -0.18693297573E+04  0.19128539526E+04  0.15294330000E+03 0. -1.
<mgrwt>
<rscale>  0 0.64855161E+03</rscale>
<asrwt>0</asrwt>
<pdfrwt beam="1">  1        2 0.33880365E+00 0.75831066E+03</pdfrwt>
<pdfrwt beam="2">  1       -2 0.74432763E-01 0.75831066E+03</pdfrwt>
<totfact> 0.86902603E+00</totfact>
</mgrwt>
</event>
<event>
 4    5  0.2822153E-007  0.1019742E+04  0.7818608E-02  0.9356172E-01
          2   -1    0    0  501    0  0.00000000000E+00  0.00000000000E+00  0.26718735408E+04  0.26718735408E+04  0.25500000000E-02 0. -1.
         -2   -1    0    0    0  501 -0.00000000000E+00 -0.00000000000E+00 -0.90194303777E+03  0.90194303777E+03  0.25500000000E-02 0.  1.
    8880023    1    1    2    0    0  0.24911618320E+03 -0.73756722205E+03 -0.52404665845E+03  0.11465161954E+04  0.65864270000E+03 0.  0.
    8880022    1    1    2    0    0 -0.24911618320E+03  0.73756722205E+03  0.22939771615E+04  0.24273003832E+04  0.15294330000E+03 0.  0.
<mgrwt>
<rscale>  0 0.95771990E+03</rscale>
<asrwt>0</asrwt>
<pdfrwt beam="1">  1        2 0.41105747E+00 0.10197424E+04</pdfrwt>
<pdfrwt beam="2">  1       -2 0.13876047E+00 0.10197424E+04</pdfrwt>
<totfact> 0.10209004E+00</totfact>
</mgrwt>
</event>
<event>
 4    5  0.2473208E-007  0.1002000E+04  0.7818608E-02  0.9378946E-01
          2   -1    0    0  501    0  0.00000000000E+00  0.00000000000E+00  0.16419841984E+04  0.16419841984E+04  0.25500000000E-02 0. -1.
         -2   -1    0    0    0  501 -0.00000000000E+00 -0.00000000000E+00 -0.76063992967E+03  0.76063992968E+03  0.25500000000E-02 0.  1.
    8880023    1    1    2    0    0  0.75511108375E+03  0.80052046298E+00 -0.25106605755E+03  0.10329751987E+04  0.65864270000E+03 0.  1.
    8880022    1    1    2    0    0 -0.75511108375E+03 -0.80052046298E+00  0.11324103262E+04  0.13696489293E+04  0.15294330000E+03 0.  0.
<mgrwt>
<rscale>  0 0.93828785E+03</rscale>
<asrwt>0</asrwt>
<pdfrwt beam="1">  1        2 0.25261295E+00 0.10019998E+04</pdfrwt>
<pdfrwt beam="2">  1       -2 0.11702153E+00 0.10019998E+04</pdfrwt>
<totfact> 0.59401906E+00</totfact>
</mgrwt>
</event>
<event>
 4    5  0.2473208E-007  0.1198438E+04  0.7818608E-02  0.9158642E-01
          2   -1    0    0  501    0  0.00000000000E+00  0.00000000000E+00  0.16195370151E+04  0.16195370151E+04  0.25500000000E-02 0. -1.
         -2   -1    0    0    0  501 -0.00000000000E+00 -0.00000000000E+00 -0.15827642173E+04  0.15827642173E+04  0.25500000000E-02 0.  1.
    8880023    1    1    2    0    0 -0.80506035121E+03 -0.59524914566E+03 -0.11369848384E+04  0.16519650249E+04  0.65864270000E+03 0.  1.
    8880022    1    1    2    0    0  0.80506035121E+03  0.59524914566E+03  0.11737576363E+04  0.15503362075E+04  0.15294330000E+03 0.  0.
<mgrwt>
<rscale>  0 0.11490698E+04</rscale>
<asrwt>0</asrwt>
<pdfrwt beam="1">  1        2 0.24915954E+00 0.11984381E+04</pdfrwt>
<pdfrwt beam="2">  1       -2 0.24350219E+00 0.11984381E+04</pdfrwt>
<totfact> 0.74451257E-01</totfact>
</mgrwt>
</event>
<event>
 4    5  0.2473208E-007  0.8892652E+03  0.7818608E-02  0.9543489E-01
         -2   -1    0    0    0  501 -0.00000000000E+00  0.00000000000E+00  0.19711724578E+03  0.19711724580E+03  0.25500000000E-02 0.  1.
          2   -1    0    0  501    0  0.00000000000E+00 -0.00000000000E+00 -0.32822374979E+04  0.32822374979E+04  0.25500000000E-02 0. -1.
    8880023    1    1    2    0    0  0.31668355049E+03 -0.50664977389E+03 -0.11844116139E+04  0.14810886341E+04  0.65864270000E+03 0.  0.
    8880022    1    1    2    0    0 -0.31668355049E+03  0.50664977389E+03 -0.19007086382E+04  0.19982661096E+04  0.15294330000E+03 0.  0.
<mgrwt>
<rscale>  0 0.81152118E+03</rscale>
<asrwt>0</asrwt>
<pdfrwt beam="1">  1        2 0.50495957E+00 0.88926524E+03</pdfrwt>
<pdfrwt beam="2">  1       -2 0.30325733E-01 0.88926524E+03</pdfrwt>
<totfact> 0.12033746E+01</totfact>
</mgrwt>
</event>
<event>
 4    5  0.2473208E-007  0.1570972E+04  0.7818608E-02  0.8861080E-01
         -2   -1    0    0    0  501 -0.00000000000E+00  0.00000000000E+00  0.95262531403E+03  0.95262531404E+03  0.25500000000E-02 0.  1.
          2   -1    0    0  501    0  0.00000000000E+00 -0.00000000000E+00 -0.27222050709E+04  0.27222050709E+04  0.25500000000E-02 0. -1.
    8880023    1    1    2    0    0  0.67473914167E+03 -0.12565312341E+04 -0.15797621567E+04  0.22279143452E+04  0.65864270000E+03 0.  0.
    8880022    1    1    2    0    0 -0.67473914167E+03  0.12565312341E+04 -0.18981760013E+03  0.14469160397E+04  0.15294330000E+03 0.  0.
<mgrwt>
<rscale>  0 0.15356590E+04</rscale>
<asrwt>0</asrwt>
<pdfrwt beam="1">  1        2 0.41880078E+00 0.15709723E+04</pdfrwt>
<pdfrwt beam="2">  1       -2 0.14655774E+00 0.15709723E+04</pdfrwt>
<totfact> 0.77087802E-01</totfact>
</mgrwt>
</event>
<event>
 4    5  0.2473208E-007  0.7389763E+03  0.7818608E-02  0.9862939E-01
         -2   -1    0    0    0  501 -0.00000000000E+00  0.00000000000E+00  0.16415164889E+04  0.16415164889E+04  0.25500000000E-02 0.  1.
          2   -1    0    0  501    0  0.00000000000E+00 -0.00000000000E+00 -0.19282686547E+04  0.19282686547E+04  0.25500000000E-02 0. -1.
    8880023    1    1    2    0    0  0.17126043779E+03 -0.28800273320E+03  0.15390147185E+04  0.17072352568E+04  0.65864270000E+03 0.  0.
    8880022    1    1    2    0    0 -0.17126043779E+03  0.28800273320E+03 -0.18257668843E+04  0.18625498868E+04  0.15294330000E+03 0. -1.
<mgrwt>
<rscale>  0 0.62091520E+03</rscale>
<asrwt>0</asrwt>
<pdfrwt beam="1">  1        2 0.29665672E+00 0.73897626E+03</pdfrwt>
<pdfrwt beam="2">  1       -2 0.25254100E+00 0.73897626E+03</pdfrwt>
<totfact> 0.47909188E-01</totfact>
</mgrwt>
</event>
<event>
 4    5  0.2473208E-007  0.9480303E+03  0.7818608E-02  0.9452954E-01
         -2   -1    0    0    0  501 -0.00000000000E+00  0.00000000000E+00  0.18711873051E+04  0.18711873051E+04  0.25500000000E-02 0.  1.
          2   -1    0    0  501    0  0.00000000000E+00 -0.00000000000E+00 -0.70509311984E+03  0.70509311984E+03  0.25500000000E-02 0. -1.
    8880023    1    1    2    0    0 -0.39115938105E+03  0.55852086593E+03  0.15211882614E+04  0.17924215888E+04  0.65864270000E+03 0.  0.
    8880022    1    1    2    0    0  0.39115938105E+03 -0.55852086593E+03 -0.35509407615E+03  0.78385883614E+03  0.15294330000E+03 0.  0.
<mgrwt>
<rscale>  0 0.87843022E+03</rscale>
<asrwt>0</asrwt>
<pdfrwt beam="1">  1        2 0.10847586E+00 0.94803029E+03</pdfrwt>
<pdfrwt beam="2">  1       -2 0.28787497E+00 0.94803029E+03</pdfrwt>
<totfact> 0.15458788E+00</totfact>
</mgrwt>
</event>
<event>
 4    5  0.2865695E-007  0.1832046E+04  0.7818608E-02  0.8705014E-01
          2   -1    0    0  501    0  0.00000000000E+00  0.00000000000E+00  0.33464556678E+04  0.33464556678E+04  0.25500000000E-02 0. -1.
         -2   -1    0    0    0  501 -0.00000000000E+00 -0.00000000000E+00 -0.25729124809E+04  0.25729124809E+04  0.25500000000E-02 0.  1.
    8880023    1    1    2    0    0  0.76914800053E+03  0.15267588542E+04 -0.19655332401E+04  0.26869522455E+04  0.65864270000E+03 0.  0.
    8880022    1    1    2    0    0 -0.76914800053E+03 -0.15267588542E+04  0.27390764270E+04  0.32324159032E+04  0.15294330000E+03 0.  0.
<mgrwt>
<rscale>  0 0.18024193E+04</rscale>
<asrwt>0</asrwt>
<pdfrwt beam="1">  1        2 0.51483933E+00 0.18320457E+04</pdfrwt>
<pdfrwt beam="2">  1       -2 0.39583269E+00 0.18320457E+04</pdfrwt>
<totfact> 0.73683119E-03</totfact>
</mgrwt>
</event>
<event>
 4    5  0.2473208E-007  0.1094799E+04  0.7818608E-02  0.9266869E-01
          2   -1    0    0  501    0  0.00000000000E+00  0.00000000000E+00  0.82963725716E+03  0.82963725717E+03  0.25500000000E-02 0. -1.
         -2   -1    0    0    0  501 -0.00000000000E+00 -0.00000000000E+00 -0.11850620565E+04  0.11850620565E+04  0.25500000000E-02 0.  1.
    8880023    1    1    2    0    0  0.84985145381E+03 -0.20622115447E+03 -0.21906526118E+03  0.11165009866E+04  0.65864270000E+03 0. -1.
    8880022    1    1    2    0    0 -0.84985145381E+03  0.20622115447E+03 -0.13635953814E+03  0.89819832707E+03  0.15294330000E+03 0.  1.
<mgrwt>
<rscale>  0 0.10389102E+04</rscale>
<asrwt>0</asrwt>
<pdfrwt beam="1">  1        2 0.12763650E+00 0.10947990E+04</pdfrwt>
<pdfrwt beam="2">  1       -2 0.18231724E+00 0.10947990E+04</pdfrwt>
<totfact> 0.56383498E+00</totfact>
</mgrwt>
</event>
<event>
 4    5  0.2473208E-007  0.7582878E+03  0.7818608E-02  0.9809561E-01
         -2   -1    0    0    0  501 -0.00000000000E+00  0.00000000000E+00  0.21130336691E+03  0.21130336693E+03  0.25500000000E-02 0.  1.
          2   -1    0    0  501    0  0.00000000000E+00 -0.00000000000E+00 -0.33078562692E+04  0.33078562692E+04  0.25500000000E-02 0. -1.
    8880023    1    1    2    0    0 -0.24196164434E+03  0.28747994047E+03 -0.54072450419E+03  0.93133417697E+03  0.65864270000E+03 0.  1.
    8880022    1    1    2    0    0  0.24196164434E+03 -0.28747994047E+03 -0.25558283981E+04  0.25878254592E+04  0.15294330000E+03 0.  0.
<mgrwt>
<rscale>  0 0.64851985E+03</rscale>
<asrwt>0</asrwt>
<pdfrwt beam="1">  1        2 0.50890093E+00 0.75828778E+03</pdfrwt>
<pdfrwt beam="2">  1       -2 0.32508213E-01 0.75828778E+03</pdfrwt>
<totfact> 0.10392501E+01</totfact>
</mgrwt>
</event>
<event>
 4    5  0.2473208E-007  0.8220352E+03  0.7818608E-02  0.9665033E-01
          2   -1    0    0  501    0  0.00000000000E+00  0.00000000000E+00  0.70853441323E+03  0.70853441324E+03  0.25500000000E-02 0. -1.
         -2   -1    0    0    0  501 -0.00000000000E+00 -0.00000000000E+00 -0.20180174873E+04  0.20180174873E+04  0.25500000000E-02 0.  1.
    8880023    1    1    2    0    0 -0.28630010646E+03 -0.39995488011E+03 -0.18226566071E+04  0.19994546683E+04  0.65864270000E+03 0.  1.
    8880022    1    1    2    0    0  0.28630010646E+03  0.39995488011E+03  0.51317353302E+03  0.72709723221E+03  0.15294330000E+03 0.  0.
<mgrwt>
<rscale>  0 0.73137437E+03</rscale>
<asrwt>0</asrwt>
<pdfrwt beam="1">  1        2 0.10900530E+00 0.82203520E+03</pdfrwt>
<pdfrwt beam="2">  1       -2 0.31046423E+00 0.82203520E+03</pdfrwt>
<totfact> 0.11428083E+00</totfact>
</mgrwt>
</event>
<event>
 4    5  0.2820071E-007  0.1147421E+04  0.7818608E-02  0.9210008E-01
          2   -1    0    0  501    0  0.00000000000E+00  0.00000000000E+00  0.19174032398E+04  0.19174032398E+04  0.25500000000E-02 0. -1.
         -2   -1    0    0    0  501 -0.00000000000E+00 -0.00000000000E+00 -0.14921638140E+04  0.14921638140E+04  0.25500000000E-02 0.  1.
    8880023    1    1    2    0    0 -0.82909190885E+03  0.44200952550E+03 -0.11143329217E+04  0.15994730009E+04  0.65864270000E+03 0.  0.
    8880022    1    1    2    0    0  0.82909190885E+03 -0.44200952550E+03  0.15395723476E+04  0.18100940529E+04  0.15294330000E+03 0.  0.
<mgrwt>
<rscale>  0 0.10950720E+04</rscale>
<asrwt>0</asrwt>
<pdfrwt beam="1">  1        2 0.29498511E+00 0.11474215E+04</pdfrwt>
<pdfrwt beam="2">  1       -2 0.22956367E+00 0.11474215E+04</pdfrwt>
<totfact> 0.62516438E-01</totfact>
</mgrwt>
</event>
<event>
 4    5  0.2473208E-007  0.7302907E+03  0.7818608E-02  0.9889189E-01
         -2   -1    0    0    0  501 -0.00000000000E+00  0.00000000000E+00  0.72130982086E+03  0.72130982087E+03  0.25500000000E-02 0.  1.
          2   -1    0    0  501    0  0.00000000000E+00 -0.00000000000E+00 -0.59037836081E+03  0.59037836081E+03  0.25500000000E-02 0. -1.
    8880023    1    1    2    0    0 -0.26332034860E+02 -0.31435801256E+03  0.43292762632E+03  0.84897047770E+03  0.65864270000E+03 0.  1.
    8880022    1    1    2    0    0  0.26332034860E+02  0.31435801256E+03 -0.30199616626E+03  0.46271770398E+03  0.15294330000E+03 0.  0.
<mgrwt>
<rscale>  0 0.60788086E+03</rscale>
<asrwt>0</asrwt>
<pdfrwt beam="1">  1        2 0.90827440E-01 0.73029072E+03</pdfrwt>
<pdfrwt beam="2">  1       -2 0.11097074E+00 0.73029072E+03</pdfrwt>
<totfact> 0.32991576E+01</totfact>
</mgrwt>
</event>
<event>
 4    5  0.2473208E-007  0.1423351E+04  0.7818608E-02  0.8965747E-01
          2   -1    0    0  501    0  0.00000000000E+00  0.00000000000E+00  0.17352073385E+04  0.17352073385E+04  0.25500000000E-02 0. -1.
         -2   -1    0    0    0  501 -0.00000000000E+00 -0.00000000000E+00 -0.12150655925E+04  0.12150655925E+04  0.25500000000E-02 0.  1.
    8880023    1    1    2    0    0 -0.11468717063E+04 -0.52612208540E+03 -0.27686583602E+03  0.14500289848E+04  0.65864270000E+03 0.  0.
    8880022    1    1    2    0    0  0.11468717063E+04  0.52612208540E+03  0.79700758207E+03  0.15002439462E+04  0.15294330000E+03 0.  0.
<mgrwt>
<rscale>  0 0.13836392E+04</rscale>
<asrwt>0</asrwt>
<pdfrwt beam="1">  1        2 0.26695498E+00 0.14233515E+04</pdfrwt>
<pdfrwt beam="2">  1       -2 0.18693317E+00 0.14233515E+04</pdfrwt>
<totfact> 0.14450374E+00</totfact>
</mgrwt>
</event>
<event>
 4    5  0.2473208E-007  0.2022381E+04  0.7818608E-02  0.8608575E-01
         -2   -1    0    0    0  501 -0.00000000000E+00  0.00000000000E+00  0.18736650857E+04  0.18736650857E+04  0.25500000000E-02 0.  1.
          2   -1    0    0  501    0  0.00000000000E+00 -0.00000000000E+00 -0.28590461047E+04  0.28590461047E+04  0.25500000000E-02 0. -1.
    8880023    1    1    2    0    0  0.58763112505E+02  0.19112199846E+04  0.73917820099E+03  0.21532323498E+04  0.65864270000E+03 0.  0.
    8880022    1    1    2    0    0 -0.58763112505E+02 -0.19112199846E+04 -0.17245592199E+04  0.25794788406E+04  0.15294330000E+03 0.  0.
<mgrwt>
<rscale>  0 0.19958248E+04</rscale>
<asrwt>0</asrwt>
<pdfrwt beam="1">  1        2 0.43985325E+00 0.20223811E+04</pdfrwt>
<pdfrwt beam="2">  1       -2 0.28825617E+00 0.20223811E+04</pdfrwt>
<totfact> 0.70536599E-02</totfact>
</mgrwt>
</event>
<event>
 4    5  0.2473208E-007  0.1315787E+04  0.7818608E-02  0.9052045E-01
          2   -1    0    0  501    0  0.00000000000E+00  0.00000000000E+00  0.14568313385E+04  0.14568313385E+04  0.25500000000E-02 0. -1.
         -2   -1    0    0    0  501 -0.00000000000E+00 -0.00000000000E+00 -0.10841954759E+04  0.10841954759E+04  0.25500000000E-02 0.  1.
    8880023    1    1    2    0    0 -0.70895512986E+03 -0.89155401151E+03  0.44618836826E+03  0.13893812284E+04  0.65864270000E+03 0.  0.
    8880022    1    1    2    0    0  0.70895512986E+03  0.89155401151E+03 -0.73552505726E+02  0.11516455860E+04  0.15294330000E+03 0.  0.
<mgrwt>
<rscale>  0 0.12720292E+04</rscale>
<asrwt>0</asrwt>
<pdfrwt beam="1">  1        2 0.22412790E+00 0.13157873E+04</pdfrwt>
<pdfrwt beam="2">  1       -2 0.16679930E+00 0.13157873E+04</pdfrwt>
<totfact> 0.28982140E+00</totfact>
</mgrwt>
</event>
<event>
 4    5  0.2473208E-007  0.7703876E+03  0.7818608E-02  0.9778921E-01
         -2   -1    0    0    0  501 -0.00000000000E+00  0.00000000000E+00  0.31549425821E+03  0.31549425822E+03  0.25500000000E-02 0.  1.
          2   -1    0    0  501    0  0.00000000000E+00 -0.00000000000E+00 -0.19629197924E+04  0.19629197924E+04  0.25500000000E-02 0. -1.
    8880023    1    1    2    0    0  0.39646007272E+03 -0.50062128057E+02 -0.23927300891E+03  0.80668989394E+03  0.65864270000E+03 0.  1.
    8880022    1    1    2    0    0 -0.39646007272E+03  0.50062128057E+02 -0.14081525253E+04  0.14717241567E+04  0.15294330000E+03 0.  1.
<mgrwt>
<rscale>  0 0.66506119E+03</rscale>
<asrwt>0</asrwt>
<pdfrwt beam="1">  1        2 0.30198765E+00 0.77038757E+03</pdfrwt>
<pdfrwt beam="2">  1       -2 0.48537580E-01 0.77038757E+03</pdfrwt>
<totfact> 0.28989942E+01</totfact>
</mgrwt>
</event>
<event>
 4    5  0.2473208E-007  0.9866591E+03  0.7818608E-02  0.9399224E-01
          2   -1    0    0  501    0  0.00000000000E+00  0.00000000000E+00  0.76094451383E+03  0.76094451384E+03  0.25500000000E-02 0. -1.
         -2   -1    0    0    0  501 -0.00000000000E+00 -0.00000000000E+00 -0.12398222337E+04  0.12398222337E+04  0.25500000000E-02 0.  1.
    8880023    1    1    2    0    0  0.58676715324E+03  0.44202967776E+03  0.17907613974E+03  0.10027783395E+04  0.65864270000E+03 0. -1.
    8880022    1    1    2    0    0 -0.58676715324E+03 -0.44202967776E+03 -0.65795385961E+03  0.99798840802E+03  0.15294330000E+03 0.  0.
<mgrwt>
<rscale>  0 0.92139609E+03</rscale>
<asrwt>0</asrwt>
<pdfrwt beam="1">  1        2 0.11706839E+00 0.98665908E+03</pdfrwt>
<pdfrwt beam="2">  1       -2 0.19074188E+00 0.98665908E+03</pdfrwt>
<totfact> 0.56043371E+00</totfact>
</mgrwt>
</event>
<event>
 4    5  0.2473208E-007  0.9413310E+03  0.7818608E-02  0.9462698E-01
         -2   -1    0    0    0  501 -0.00000000000E+00  0.00000000000E+00  0.84267277020E+03  0.84267277020E+03  0.25500000000E-02 0.  1.
          2   -1    0    0  501    0  0.00000000000E+00 -0.00000000000E+00 -0.22727443899E+04  0.22727443899E+04  0.25500000000E-02 0. -1.
    8880023    1    1    2    0    0  0.34645381698E+03  0.57642306704E+03  0.49995388013E+03  0.10658601635E+04  0.65864270000E+03 0.  0.
    8880022    1    1    2    0    0 -0.34645381698E+03 -0.57642306704E+03 -0.19300254998E+04  0.20495569966E+04  0.15294330000E+03 0.  0.
<mgrwt>
<rscale>  0 0.87090693E+03</rscale>
<asrwt>0</asrwt>
<pdfrwt beam="1">  1        2 0.34965298E+00 0.94133098E+03</pdfrwt>
<pdfrwt beam="2">  1       -2 0.12964197E+00 0.94133098E+03</pdfrwt>
<totfact> 0.20774627E+00</totfact>
</mgrwt>
</event>
<event>
 4    5  0.2473208E-007  0.7065619E+03  0.7818608E-02  0.9970996E-01
         -2   -1    0    0    0  501 -0.00000000000E+00  0.00000000000E+00  0.54716696584E+03  0.54716696585E+03  0.25500000000E-02 0.  1.
          2   -1    0    0  501    0  0.00000000000E+00 -0.00000000000E+00 -0.74196166069E+03  0.74196166069E+03  0.25500000000E-02 0. -1.
    8880023    1    1    2    0    0 -0.25572160773E+03  0.51005371753E+01  0.25363327358E+03  0.75070606756E+03  0.65864270000E+03 0.  1.
    8880022    1    1    2    0    0  0.25572160773E+03 -0.51005371753E+01 -0.44842796842E+03  0.53842255898E+03  0.15294330000E+03 0.  0.
<mgrwt>
<rscale>  0 0.56940483E+03</rscale>
<asrwt>0</asrwt>
<pdfrwt beam="1">  1        2 0.11414795E+00 0.70656193E+03</pdfrwt>
<pdfrwt beam="2">  1       -2 0.84179533E-01 0.70656193E+03</pdfrwt>
<totfact> 0.47630249E+01</totfact>
</mgrwt>
</event>
<event>
 4    5  0.2473208E-007  0.7153805E+03  0.7818608E-02  0.9938538E-01
          2   -1    0    0  501    0  0.00000000000E+00  0.00000000000E+00  0.81950251430E+03  0.81950251431E+03  0.25500000000E-02 0. -1.
         -2   -1    0    0    0  501 -0.00000000000E+00 -0.00000000000E+00 -0.65153617773E+03  0.65153617774E+03  0.25500000000E-02 0.  1.
    8880023    1    1    2    0    0 -0.27775184747E+03  0.28511688449E+02 -0.40023477446E+03  0.81972988606E+03  0.65864270000E+03 0.  1.
    8880022    1    1    2    0    0  0.27775184747E+03 -0.28511688449E+02  0.56820111104E+03  0.65130880598E+03  0.15294330000E+03 0.  0.
<mgrwt>
<rscale>  0 0.58429360E+03</rscale>
<asrwt>0</asrwt>
<pdfrwt beam="1">  1        2 0.12607731E+00 0.71538047E+03</pdfrwt>
<pdfrwt beam="2">  1       -2 0.10023634E+00 0.71538047E+03</pdfrwt>
<totfact> 0.27879702E+01</totfact>
</mgrwt>
</event>
<event>
 4    5  0.2473208E-007  0.1067139E+04  0.7818608E-02  0.9298556E-01
         -2   -1    0    0    0  501 -0.00000000000E+00  0.00000000000E+00  0.56505358636E+03  0.56505358637E+03  0.25500000000E-02 0.  1.
          2   -1    0    0  501    0  0.00000000000E+00 -0.00000000000E+00 -0.18346078319E+04  0.18346078319E+04  0.25500000000E-02 0. -1.
    8880023    1    1    2    0    0 -0.80119886871E+03 -0.25110947246E+03 -0.30106667530E+03  0.11087952668E+04  0.65864270000E+03 0.  0.
    8880022    1    1    2    0    0  0.80119886871E+03  0.25110947246E+03 -0.96848757026E+03  0.12908661515E+04  0.15294330000E+03 0.  0.
<mgrwt>
<rscale>  0 0.10091589E+04</rscale>
<asrwt>0</asrwt>
<pdfrwt beam="1">  1        2 0.28224736E+00 0.10671391E+04</pdfrwt>
<pdfrwt beam="2">  1       -2 0.86931322E-01 0.10671391E+04</pdfrwt>
<totfact> 0.93782890E+00</totfact>
</mgrwt>
</event>
<event>
 4    5  0.2789873E-007  0.7886721E+03  0.7818608E-02  0.9735847E-01
         -2   -1    0    0    0  501 -0.00000000000E+00  0.00000000000E+00  0.58226627081E+03  0.58226627081E+03  0.25500000000E-02 0.  1.
          2   -1    0    0  501    0  0.00000000000E+00 -0.00000000000E+00 -0.26737850924E+04  0.26737850924E+04  0.25500000000E-02 0. -1.
    8880023    1    1    2    0    0 -0.17602828962E+03 -0.39649400359E+03  0.28260577064E+03  0.83777662983E+03  0.65864270000E+03 0.  1.
    8880022    1    1    2    0    0  0.17602828962E+03  0.39649400359E+03 -0.23741245923E+04  0.24182747334E+04  0.15294330000E+03 0.  0.
<mgrwt>
<rscale>  0 0.68922019E+03</rscale>
<asrwt>0</asrwt>
<pdfrwt beam="1">  1        2 0.41135154E+00 0.78867209E+03</pdfrwt>
<pdfrwt beam="2">  1       -2 0.89579428E-01 0.78867209E+03</pdfrwt>
<totfact> 0.30822733E+00</totfact>
</mgrwt>
</event>
<event>
 4    5  0.2473208E-007  0.9742923E+03  0.7818608E-02  0.9415992E-01
          2   -1    0    0  501    0  0.00000000000E+00  0.00000000000E+00  0.27202599232E+04  0.27202599232E+04  0.25500000000E-02 0. -1.
         -2   -1    0    0    0  501 -0.00000000000E+00 -0.00000000000E+00 -0.34327351271E+03  0.34327351272E+03  0.25500000000E-02 0.  1.
    8880023    1    1    2    0    0  0.57607841460E+03 -0.42844951848E+03  0.60836360533E+03  0.11486304071E+04  0.65864270000E+03 0.  0.
    8880022    1    1    2    0    0 -0.57607841460E+03  0.42844951848E+03  0.17686228051E+04  0.19149030287E+04  0.15294330000E+03 0.  0.
<mgrwt>
<rscale>  0 0.90771211E+03</rscale>
<asrwt>0</asrwt>
<pdfrwt beam="1">  1        2 0.41850151E+00 0.97429233E+03</pdfrwt>
<pdfrwt beam="2">  1       -2 0.52811311E-01 0.97429233E+03</pdfrwt>
<totfact> 0.89091282E+00</totfact>
</mgrwt>
</event>
<event>
 4    5  0.2473208E-007  0.6602580E+03  0.7818608E-02  0.1023894E+00
          2   -1    0    0  501    0  0.00000000000E+00  0.00000000000E+00  0.27600632467E+04  0.27600632467E+04  0.25500000000E-02 0. -1.
         -2   -1    0    0    0  501 -0.00000000000E+00 -0.00000000000E+00 -0.23436539513E+03  0.23436539515E+03  0.25500000000E-02 0.  1.
    8880023    1    1    2    0    0  0.20425912778E+02  0.41391465516E+02  0.23904030449E+03  0.70219722640E+03  0.65864270000E+03 0.  1.
    8880022    1    1    2    0    0 -0.20425912778E+02 -0.41391465516E+02  0.22866575471E+04  0.22922314154E+04  0.15294330000E+03 0.  0.
<mgrwt>
<rscale>  0 0.46307344E+03</rscale>
<asrwt>0</asrwt>
<pdfrwt beam="1">  1        2 0.42462512E+00 0.66025804E+03</pdfrwt>
<pdfrwt beam="2">  1       -2 0.36056214E-01 0.66025804E+03</pdfrwt>
<totfact> 0.18911040E+01</totfact>
</mgrwt>
</event>
<event>
 4    5  0.2473208E-007  0.7544222E+03  0.7818608E-02  0.9819768E-01
          2   -1    0    0  501    0  0.00000000000E+00  0.00000000000E+00  0.71804900048E+03  0.71804900049E+03  0.25500000000E-02 0. -1.
         -2   -1    0    0    0  501 -0.00000000000E+00 -0.00000000000E+00 -0.76268815624E+03  0.76268815625E+03  0.25500000000E-02 0.  1.
    8880023    1    1    2    0    0  0.30256220178E+03 -0.20928157924E+03 -0.47718073790E+03  0.89266697499E+03  0.65864270000E+03 0.  1.
    8880022    1    1    2    0    0 -0.30256220178E+03  0.20928157924E+03  0.43254158214E+03  0.58807018174E+03  0.15294330000E+03 0.  0.
<mgrwt>
<rscale>  0 0.64312398E+03</rscale>
<asrwt>0</asrwt>
<pdfrwt beam="1">  1        2 0.11046908E+00 0.75442221E+03</pdfrwt>
<pdfrwt beam="2">  1       -2 0.11733664E+00 0.75442221E+03</pdfrwt>
<totfact> 0.22563255E+01</totfact>
</mgrwt>
</event>
<event>
 4    5  0.2473208E-007  0.8284986E+03  0.7818608E-02  0.9652261E-01
          2   -1    0    0  501    0  0.00000000000E+00  0.00000000000E+00  0.73242592464E+03  0.73242592464E+03  0.25500000000E-02 0. -1.
         -2   -1    0    0    0  501 -0.00000000000E+00 -0.00000000000E+00 -0.80610262724E+03  0.80610262724E+03  0.25500000000E-02 0.  1.
    8880023    1    1    2    0    0 -0.47105355609E+03 -0.17523767906E+03 -0.40007783270E+03  0.92003922489E+03  0.65864270000E+03 0.  0.
    8880022    1    1    2    0    0  0.47105355609E+03  0.17523767906E+03  0.32640113010E+03  0.61848932699E+03  0.15294330000E+03 0.  0.
<mgrwt>
<rscale>  0 0.73931712E+03</rscale>
<asrwt>0</asrwt>
<pdfrwt beam="1">  1        2 0.11268091E+00 0.82849858E+03</pdfrwt>
<pdfrwt beam="2">  1       -2 0.12401579E+00 0.82849858E+03</pdfrwt>
<totfact> 0.19043773E+01</totfact>
</mgrwt>
</event>
<event>
 4    5  0.2473208E-007  0.7264821E+03  0.7818608E-02  0.9901233E-01
         -2   -1    0    0    0  501 -0.00000000000E+00  0.00000000000E+00  0.44960171303E+03  0.44960171304E+03  0.25500000000E-02 0.  1.
          2   -1    0    0  501    0  0.00000000000E+00 -0.00000000000E+00 -0.18574657677E+04  0.18574657677E+04  0.25500000000E-02 0. -1.
    8880023    1    1    2    0    0  0.22014771652E+03  0.21330971685E+03  0.12432907035E+03  0.73704408036E+03  0.65864270000E+03 0.  1.
    8880022    1    1    2    0    0 -0.22014771652E+03 -0.21330971685E+03 -0.15321931250E+04  0.15700234004E+04  0.15294330000E+03 0.  0.
<mgrwt>
<rscale>  0 0.60201546E+03</rscale>
<asrwt>0</asrwt>
<pdfrwt beam="1">  1        2 0.28576396E+00 0.72648211E+03</pdfrwt>
<pdfrwt beam="2">  1       -2 0.69169495E-01 0.72648211E+03</pdfrwt>
<totfact> 0.15830885E+01</totfact>
</mgrwt>
</event>
<event>
 4    5  0.2473208E-007  0.8315228E+03  0.7818608E-02  0.9646377E-01
          2   -1    0    0  501    0  0.00000000000E+00  0.00000000000E+00  0.31506230755E+04  0.31506230755E+04  0.25500000000E-02 0. -1.
         -2   -1    0    0    0  501 -0.00000000000E+00 -0.00000000000E+00 -0.21621824779E+03  0.21621824781E+03  0.25500000000E-02 0.  1.
    8880023    1    1    2    0    0  0.27885705374E+03 -0.42409758063E+03  0.75250811977E+03  0.11214716630E+04  0.65864270000E+03 0.  0.
    8880022    1    1    2    0    0 -0.27885705374E+03  0.42409758063E+03  0.21818967080E+04  0.22453696604E+04  0.15294330000E+03 0.  0.
<mgrwt>
<rscale>  0 0.74301260E+03</rscale>
<asrwt>0</asrwt>
<pdfrwt beam="1">  1        2 0.48471121E+00 0.83152283E+03</pdfrwt>
<pdfrwt beam="2">  1       -2 0.33264348E-01 0.83152283E+03</pdfrwt>
<totfact> 0.12396786E+01</totfact>
</mgrwt>
</event>
<event>
 4    5  0.2473208E-007  0.1023329E+04  0.7818608E-02  0.9351653E-01
          2   -1    0    0  501    0  0.00000000000E+00  0.00000000000E+00  0.26838066901E+04  0.26838066901E+04  0.25500000000E-02 0. -1.
         -2   -1    0    0    0  501 -0.00000000000E+00 -0.00000000000E+00 -0.12481970732E+04  0.12481970732E+04  0.25500000000E-02 0.  1.
    8880023    1    1    2    0    0 -0.25488623174E+03 -0.74055766737E+03 -0.96235252905E+03  0.14047509552E+04  0.65864270000E+03 0.  0.
    8880022    1    1    2    0    0  0.25488623174E+03  0.74055766737E+03  0.23979621459E+04  0.25272528081E+04  0.15294330000E+03 0.  0.
<mgrwt>
<rscale>  0 0.96163575E+03</rscale>
<asrwt>0</asrwt>
<pdfrwt beam="1">  1        2 0.41289334E+00 0.10233293E+04</pdfrwt>
<pdfrwt beam="2">  1       -2 0.19203032E+00 0.10233293E+04</pdfrwt>
<totfact> 0.41025018E-01</totfact>
</mgrwt>
</event>
<event>
 4    5  0.2473208E-007  0.1205005E+04  0.7818608E-02  0.9152273E-01
         -2   -1    0    0    0  501 -0.00000000000E+00  0.00000000000E+00  0.83488337343E+03  0.83488337343E+03  0.25500000000E-02 0.  1.
          2   -1    0    0  501    0  0.00000000000E+00 -0.00000000000E+00 -0.16162049752E+04  0.16162049752E+04  0.25500000000E-02 0. -1.
    8880023    1    1    2    0    0  0.92967378659E+02 -0.10047799342E+04 -0.69944798405E+02  0.12070327795E+04  0.65864270000E+03 0.  0.
    8880022    1    1    2    0    0 -0.92967378659E+02  0.10047799342E+04 -0.71137680335E+03  0.12440555691E+04  0.15294330000E+03 0.  0.
<mgrwt>
<rscale>  0 0.11559925E+04</rscale>
<asrwt>0</asrwt>
<pdfrwt beam="1">  1        2 0.24864692E+00 0.12050045E+04</pdfrwt>
<pdfrwt beam="2">  1       -2 0.12844360E+00 0.12050045E+04</pdfrwt>
<totfact> 0.47608885E+00</totfact>
</mgrwt>
</event>
<event>
 4    5  0.2473208E-007  0.7346286E+03  0.7818608E-02  0.9875879E-01
         -2   -1    0    0    0  501 -0.00000000000E+00  0.00000000000E+00  0.21849562477E+03  0.21849562478E+03  0.25500000000E-02 0.  1.
          2   -1    0    0  501    0  0.00000000000E+00 -0.00000000000E+00 -0.13972073112E+04  0.13972073112E+04  0.25500000000E-02 0. -1.
    8880023    1    1    2    0    0 -0.24205485578E+03  0.21743617773E+03 -0.68100569850E+03  0.10017225226E+04  0.65864270000E+03 0.  0.
    8880022    1    1    2    0    0  0.24205485578E+03 -0.21743617773E+03 -0.49770598790E+03  0.61398041337E+03  0.15294330000E+03 0.  0.
<mgrwt>
<rscale>  0 0.61444669E+03</rscale>
<asrwt>0</asrwt>
<pdfrwt beam="1">  1        2 0.21495497E+00 0.73462865E+03</pdfrwt>
<pdfrwt beam="2">  1       -2 0.33614712E-01 0.73462865E+03</pdfrwt>
<totfact> 0.12224765E+02</totfact>
</mgrwt>
</event>
<event>
 4    5  0.2473208E-007  0.8814630E+03  0.7818608E-02  0.9556470E-01
         -2   -1    0    0    0  501 -0.00000000000E+00  0.00000000000E+00  0.95172733662E+03  0.95172733662E+03  0.25500000000E-02 0.  1.
          2   -1    0    0  501    0  0.00000000000E+00 -0.00000000000E+00 -0.71911549190E+03  0.71911549190E+03  0.25500000000E-02 0. -1.
    8880023    1    1    2    0    0  0.56226301026E+03  0.16439929466E+03  0.49505481751E+03  0.10109680012E+04  0.65864270000E+03 0.  1.
    8880022    1    1    2    0    0 -0.56226301026E+03 -0.16439929466E+03 -0.26244297278E+03  0.65987482735E+03  0.15294330000E+03 0.  0.
<mgrwt>
<rscale>  0 0.80245553E+03</rscale>
<asrwt>0</asrwt>
<pdfrwt beam="1">  1        2 0.11063315E+00 0.88146300E+03</pdfrwt>
<pdfrwt beam="2">  1       -2 0.14641959E+00 0.88146300E+03</pdfrwt>
<totfact> 0.12674763E+01</totfact>
</mgrwt>
</event>
<event>
 4    5  0.2473208E-007  0.7150167E+03  0.7818608E-02  0.9939823E-01
          2   -1    0    0  501    0  0.00000000000E+00  0.00000000000E+00  0.16808706242E+04  0.16808706242E+04  0.25500000000E-02 0. -1.
         -2   -1    0    0    0  501 -0.00000000000E+00 -0.00000000000E+00 -0.98314738182E+03  0.98314738182E+03  0.25500000000E-02 0.  1.
    8880023    1    1    2    0    0  0.22733992138E+01  0.27826884788E+03 -0.83467887646E+03  0.10990622153E+04  0.65864270000E+03 0.  1.
    8880022    1    1    2    0    0 -0.22733992138E+01 -0.27826884788E+03  0.15324021188E+04  0.15649557907E+04  0.15294330000E+03 0.  0.
<mgrwt>
<rscale>  0 0.58369514E+03</rscale>
<asrwt>0</asrwt>
<pdfrwt beam="1">  1        2 0.25859548E+00 0.71501673E+03</pdfrwt>
<pdfrwt beam="2">  1       -2 0.15125344E+00 0.71501673E+03</pdfrwt>
<totfact> 0.30533439E+00</totfact>
</mgrwt>
</event>
<event>
 4    5  0.2473208E-007  0.1012345E+04  0.7818608E-02  0.9365581E-01
          2   -1    0    0  501    0  0.00000000000E+00  0.00000000000E+00  0.21011030340E+04  0.21011030340E+04  0.25500000000E-02 0. -1.
         -2   -1    0    0    0  501 -0.00000000000E+00 -0.00000000000E+00 -0.65892338322E+03  0.65892338323E+03  0.25500000000E-02 0.  1.
    8880023    1    1    2    0    0  0.71496840407E+03  0.28258319696E+03 -0.11284100049E+03  0.10186149320E+04  0.65864270000E+03 0.  0.
    8880022    1    1    2    0    0 -0.71496840407E+03 -0.28258319696E+03  0.15550206512E+04  0.17414114852E+04  0.15294330000E+03 0.  0.
<mgrwt>
<rscale>  0 0.94963155E+03</rscale>
<asrwt>0</asrwt>
<pdfrwt beam="1">  1        2 0.32324662E+00 0.10123454E+04</pdfrwt>
<pdfrwt beam="2">  1       -2 0.10137283E+00 0.10123454E+04</pdfrwt>
<totfact> 0.46930397E+00</totfact>
</mgrwt>
</event>
<event>
 4    5  0.2473208E-007  0.7699185E+03  0.7818608E-02  0.9780075E-01
         -2   -1    0    0    0  501 -0.00000000000E+00  0.00000000000E+00  0.46336735921E+03  0.46336735922E+03  0.25500000000E-02 0.  1.
          2   -1    0    0  501    0  0.00000000000E+00 -0.00000000000E+00 -0.12332720691E+04  0.12332720691E+04  0.25500000000E-02 0. -1.
    8880023    1    1    2    0    0 -0.12130244502E+03 -0.37980268851E+03  0.50686163418E+02  0.77158515978E+03  0.65864270000E+03 0.  1.
    8880022    1    1    2    0    0  0.12130244502E+03  0.37980268851E+03 -0.82059087335E+03  0.92505426858E+03  0.15294330000E+03 0.  0.
<mgrwt>
<rscale>  0 0.66442903E+03</rscale>
<asrwt>0</asrwt>
<pdfrwt beam="1">  1        2 0.18973416E+00 0.76991855E+03</pdfrwt>
<pdfrwt beam="2">  1       -2 0.71287287E-01 0.76991855E+03</pdfrwt>
<totfact> 0.32869164E+01</totfact>
</mgrwt>
</event>
<event>
 4    5  0.2473208E-007  0.1418916E+04  0.7818608E-02  0.8969122E-01
          2   -1    0    0  501    0  0.00000000000E+00  0.00000000000E+00  0.34224534450E+04  0.34224534451E+04  0.25500000000E-02 0. -1.
         -2   -1    0    0    0  501 -0.00000000000E+00 -0.00000000000E+00 -0.92590622865E+03  0.92590622865E+03  0.25500000000E-02 0.  1.
    8880023    1    1    2    0    0  0.51520699083E+03  0.11463313264E+04 -0.13777937850E+03  0.14255900942E+04  0.65864270000E+03 0.  0.
    8880022    1    1    2    0    0 -0.51520699083E+03 -0.11463313264E+04  0.26343265949E+04  0.29227695795E+04  0.15294330000E+03 0.  0.
<mgrwt>
<rscale>  0 0.13790535E+04</rscale>
<asrwt>0</asrwt>
<pdfrwt beam="1">  1        2 0.52653129E+00 0.14189165E+04</pdfrwt>
<pdfrwt beam="2">  1       -2 0.14244711E+00 0.14189165E+04</pdfrwt>
<totfact> 0.30426522E-01</totfact>
</mgrwt>
</event>
<event>
 4    5  0.2473208E-007  0.7719836E+03  0.7818608E-02  0.9775016E-01
          2   -1    0    0  501    0  0.00000000000E+00  0.00000000000E+00  0.76876007186E+03  0.76876007186E+03  0.25500000000E-02 0. -1.
         -2   -1    0    0    0  501 -0.00000000000E+00 -0.00000000000E+00 -0.77520013332E+03  0.77520013332E+03  0.25500000000E-02 0.  1.
    8880023    1    1    2    0    0 -0.14031632635E+02  0.40243210244E+03 -0.47585812174E+03  0.90686252656E+03  0.65864270000E+03 0.  1.
    8880022    1    1    2    0    0  0.14031632635E+02 -0.40243210244E+03  0.46941806027E+03  0.63709767863E+03  0.15294330000E+03 0.  0.
<mgrwt>
<rscale>  0 0.66720731E+03</rscale>
<asrwt>0</asrwt>
<pdfrwt beam="1">  1        2 0.11827078E+00 0.77198361E+03</pdfrwt>
<pdfrwt beam="2">  1       -2 0.11926156E+00 0.77198361E+03</pdfrwt>
<totfact> 0.19818040E+01</totfact>
</mgrwt>
</event>
<event>
 4    5  0.2473208E-007  0.8893312E+03  0.7818608E-02  0.9543380E-01
         -2   -1    0    0    0  501 -0.00000000000E+00  0.00000000000E+00  0.18135169010E+04  0.18135169010E+04  0.25500000000E-02 0.  1.
          2   -1    0    0  501    0  0.00000000000E+00 -0.00000000000E+00 -0.86006407996E+03  0.86006407997E+03  0.25500000000E-02 0. -1.
    8880023    1    1    2    0    0  0.54736327243E+03 -0.23977746501E+03  0.15681338775E+04  0.18027628376E+04  0.65864270000E+03 0.  0.
    8880022    1    1    2    0    0 -0.54736327243E+03  0.23977746501E+03 -0.61468105641E+03  0.87081814339E+03  0.15294330000E+03 0.  0.
<mgrwt>
<rscale>  0 0.81159761E+03</rscale>
<asrwt>0</asrwt>
<pdfrwt beam="1">  1        2 0.13231755E+00 0.88933120E+03</pdfrwt>
<pdfrwt beam="2">  1       -2 0.27900260E+00 0.88933120E+03</pdfrwt>
<totfact> 0.13556880E+00</totfact>
</mgrwt>
</event>
<event>
 4    5  0.2473208E-007  0.1294137E+04  0.7818608E-02  0.9070639E-01
         -2   -1    0    0    0  501 -0.00000000000E+00  0.00000000000E+00  0.10087414221E+04  0.10087414221E+04  0.25500000000E-02 0.  1.
          2   -1    0    0  501    0  0.00000000000E+00 -0.00000000000E+00 -0.24253912059E+04  0.24253912059E+04  0.25500000000E-02 0. -1.
    8880023    1    1    2    0    0 -0.10999783819E+04  0.17614858185E+03  0.34942183774E+03  0.13404799851E+04  0.65864270000E+03 0.  0.
    8880022    1    1    2    0    0  0.10999783819E+04 -0.17614858185E+03 -0.17660716216E+04  0.20936526429E+04  0.15294330000E+03 0.  0.
<mgrwt>
<rscale>  0 0.12494521E+04</rscale>
<asrwt>0</asrwt>
<pdfrwt beam="1">  1        2 0.37313711E+00 0.12941372E+04</pdfrwt>
<pdfrwt beam="2">  1       -2 0.15519099E+00 0.12941372E+04</pdfrwt>
<totfact> 0.10153546E+00</totfact>
</mgrwt>
</event>
<event>
 4    5  0.2473208E-007  0.8717550E+03  0.7818608E-02  0.9572986E-01
          2   -1    0    0  501    0  0.00000000000E+00  0.00000000000E+00  0.25133673011E+04  0.25133673011E+04  0.25500000000E-02 0. -1.
         -2   -1    0    0    0  501 -0.00000000000E+00 -0.00000000000E+00 -0.36637172038E+03  0.36637172039E+03  0.25500000000E-02 0.  1.
    8880023    1    1    2    0    0  0.28314779072E+03  0.49595753240E+03  0.27118048054E+03  0.91295980449E+03  0.65864270000E+03 0.  0.
    8880022    1    1    2    0    0 -0.28314779072E+03 -0.49595753240E+03  0.18758151001E+04  0.19667792170E+04  0.15294330000E+03 0.  0.
<mgrwt>
<rscale>  0 0.79110232E+03</rscale>
<asrwt>0</asrwt>
<pdfrwt beam="1">  1        2 0.38667188E+00 0.87175498E+03</pdfrwt>
<pdfrwt beam="2">  1       -2 0.56364881E-01 0.87175498E+03</pdfrwt>
<totfact> 0.10397387E+01</totfact>
</mgrwt>
</event>
<event>
 4    5  0.2473208E-007  0.8258548E+03  0.7818608E-02  0.9657452E-01
          2   -1    0    0  501    0  0.00000000000E+00  0.00000000000E+00  0.20900505895E+04  0.20900505895E+04  0.25500000000E-02 0. -1.
         -2   -1    0    0    0  501 -0.00000000000E+00 -0.00000000000E+00 -0.62408103849E+03  0.62408103850E+03  0.25500000000E-02 0.  1.
    8880023    1    1    2    0    0  0.39998452081E+03  0.29704929461E+03 -0.29553862245E+03  0.87714262463E+03  0.65864270000E+03 0.  1.
    8880022    1    1    2    0    0 -0.39998452081E+03 -0.29704929461E+03  0.17615081734E+04  0.18369890034E+04  0.15294330000E+03 0.  0.
<mgrwt>
<rscale>  0 0.73607572E+03</rscale>
<asrwt>0</asrwt>
<pdfrwt beam="1">  1        2 0.32154625E+00 0.82585477E+03</pdfrwt>
<pdfrwt beam="2">  1       -2 0.96012467E-01 0.82585477E+03</pdfrwt>
<totfact> 0.55511911E+00</totfact>
</mgrwt>
</event>
<event>
 4    5  0.2473208E-007  0.2227019E+04  0.7818608E-02  0.8517138E-01
         -2   -1    0    0    0  501 -0.00000000000E+00  0.00000000000E+00  0.16205361771E+04  0.16205361771E+04  0.25500000000E-02 0.  1.
          2   -1    0    0  501    0  0.00000000000E+00 -0.00000000000E+00 -0.37425101931E+04  0.37425101931E+04  0.25500000000E-02 0. -1.
    8880023    1    1    2    0    0  0.44315596077E+03 -0.20807251253E+04  0.16836458383E+03  0.22333743734E+04  0.65864270000E+03 0.  0.
    8880022    1    1    2    0    0 -0.44315596077E+03  0.20807251253E+04 -0.22903385998E+04  0.31296719968E+04  0.15294330000E+03 0.  0.
<mgrwt>
<rscale>  0 0.22031030E+04</rscale>
<asrwt>0</asrwt>
<pdfrwt beam="1">  1        2 0.57577080E+00 0.22270192E+04</pdfrwt>
<pdfrwt beam="2">  1       -2 0.24931326E+00 0.22270192E+04</pdfrwt>
<totfact> 0.30561017E-02</totfact>
</mgrwt>
</event>
<event>
 4    5  0.2473208E-007  0.1314166E+04  0.7818608E-02  0.9053423E-01
         -2   -1    0    0    0  501 -0.00000000000E+00  0.00000000000E+00  0.54444782326E+03  0.54444782327E+03  0.25500000000E-02 0.  1.
          2   -1    0    0  501    0  0.00000000000E+00 -0.00000000000E+00 -0.33021600850E+04  0.33021600850E+04  0.25500000000E-02 0. -1.
    8880023    1    1    2    0    0  0.81103265114E+03  0.79714924805E+03 -0.69598003299E+03  0.14870841595E+04  0.65864270000E+03 0.  0.
    8880022    1    1    2    0    0 -0.81103265114E+03 -0.79714924805E+03 -0.20617322288E+04  0.23595237488E+04  0.15294330000E+03 0.  0.
<mgrwt>
<rscale>  0 0.12703395E+04</rscale>
<asrwt>0</asrwt>
<pdfrwt beam="1">  1        2 0.50802461E+00 0.13141655E+04</pdfrwt>
<pdfrwt beam="2">  1       -2 0.83761206E-01 0.13141655E+04</pdfrwt>
<totfact> 0.13608390E+00</totfact>
</mgrwt>
</event>
<event>
 4    5  0.2473208E-007  0.1329055E+04  0.7818608E-02  0.9040866E-01
         -2   -1    0    0    0  501 -0.00000000000E+00  0.00000000000E+00  0.13912247115E+04  0.13912247115E+04  0.25500000000E-02 0.  1.
          2   -1    0    0  501    0  0.00000000000E+00 -0.00000000000E+00 -0.26521566322E+04  0.26521566322E+04  0.25500000000E-02 0. -1.
    8880023    1    1    2    0    0 -0.99794671937E+03  0.58024111292E+03  0.88856750178E+03  0.15987306888E+04  0.65864270000E+03 0.  0.
    8880022    1    1    2    0    0  0.99794671937E+03 -0.58024111292E+03 -0.21494994225E+04  0.24446506549E+04  0.15294330000E+03 0.  0.
<mgrwt>
<rscale>  0 0.12858446E+04</rscale>
<asrwt>0</asrwt>
<pdfrwt beam="1">  1        2 0.40802410E+00 0.13290552E+04</pdfrwt>
<pdfrwt beam="2">  1       -2 0.21403457E+00 0.13290552E+04</pdfrwt>
<totfact> 0.29360696E-01</totfact>
</mgrwt>
</event>
<event>
 4    5  0.2473208E-007  0.1247364E+04  0.7818608E-02  0.9112402E-01
         -2   -1    0    0    0  501 -0.00000000000E+00  0.00000000000E+00  0.12326611628E+04  0.12326611628E+04  0.25500000000E-02 0.  1.
          2   -1    0    0  501    0  0.00000000000E+00 -0.00000000000E+00 -0.18414982607E+04  0.18414982607E+04  0.25500000000E-02 0. -1.
    8880023    1    1    2    0    0 -0.33787816871E+03 -0.10039648446E+04  0.66242850299E+03  0.14123486800E+04  0.65864270000E+03 0.  1.
    8880022    1    1    2    0    0  0.33787816871E+03  0.10039648446E+04 -0.12712656009E+04  0.16618107435E+04  0.15294330000E+03 0.  0.
<mgrwt>
<rscale>  0 0.12005196E+04</rscale>
<asrwt>0</asrwt>
<pdfrwt beam="1">  1        2 0.28330742E+00 0.12473641E+04</pdfrwt>
<pdfrwt beam="2">  1       -2 0.18964018E+00 0.12473641E+04</pdfrwt>
<totfact> 0.12312919E+00</totfact>
</mgrwt>
</event>
<event>
 4    5  0.2473208E-007  0.6717924E+03  0.7818608E-02  0.1014409E+00
          2   -1    0    0  501    0  0.00000000000E+00  0.00000000000E+00  0.13648249930E+04  0.13648249930E+04  0.25500000000E-02 0. -1.
         -2   -1    0    0    0  501 -0.00000000000E+00 -0.00000000000E+00 -0.16430161702E+03  0.16430161704E+03  0.25500000000E-02 0.  1.
    8880023    1    1    2    0    0 -0.77403015855E+02 -0.10725497180E+03  0.61914886325E+03  0.91359201888E+03  0.65864270000E+03 0.  1.
    8880022    1    1    2    0    0  0.77403015855E+02  0.10725497180E+03  0.58137451268E+03  0.61553459111E+03  0.15294330000E+03 0.  0.
<mgrwt>
<rscale>  0 0.49759251E+03</rscale>
<asrwt>0</asrwt>
<pdfrwt beam="1">  1        2 0.20997306E+00 0.67179242E+03</pdfrwt>
<pdfrwt beam="2">  1       -2 0.25277173E-01 0.67179242E+03</pdfrwt>
<totfact> 0.21694170E+02</totfact>
</mgrwt>
</event>
<event>
 4    5  0.2473208E-007  0.8467856E+03  0.7818608E-02  0.9617516E-01
         -2   -1    0    0    0  501 -0.00000000000E+00  0.00000000000E+00  0.38092460272E+03  0.38092460273E+03  0.25500000000E-02 0.  1.
          2   -1    0    0  501    0  0.00000000000E+00 -0.00000000000E+00 -0.20002908943E+04  0.20002908943E+04  0.25500000000E-02 0. -1.
    8880023    1    1    2    0    0  0.48076930525E+03  0.22824650344E+03 -0.21797669918E+03  0.87439101028E+03  0.65864270000E+03 0.  1.
    8880022    1    1    2    0    0 -0.48076930525E+03 -0.22824650344E+03 -0.14013895924E+04  0.15068244868E+04  0.15294330000E+03 0.  0.
<mgrwt>
<rscale>  0 0.76147636E+03</rscale>
<asrwt>0</asrwt>
<pdfrwt beam="1">  1        2 0.30773706E+00 0.84678557E+03</pdfrwt>
<pdfrwt beam="2">  1       -2 0.58603786E-01 0.84678557E+03</pdfrwt>
<totfact> 0.18564347E+01</totfact>
</mgrwt>
</event>
<event>
 4    5  0.2473208E-007  0.6675292E+03  0.7818608E-02  0.1017500E+00
         -2   -1    0    0    0  501 -0.00000000000E+00  0.00000000000E+00  0.31520956879E+03  0.31520956880E+03  0.25500000000E-02 0.  1.
          2   -1    0    0  501    0  0.00000000000E+00 -0.00000000000E+00 -0.10763407548E+04  0.10763407548E+04  0.25500000000E-02 0. -1.
    8880023    1    1    2    0    0  0.52063722673E+02  0.95259372044E+02 -0.65104124672E+02  0.67069645332E+03  0.65864270000E+03 0.  1.
    8880022    1    1    2    0    0 -0.52063722673E+02 -0.95259372044E+02 -0.69602706130E+03  0.72085387025E+03  0.15294330000E+03 0.  0.
<mgrwt>
<rscale>  0 0.48599798E+03</rscale>
<asrwt>0</asrwt>
<pdfrwt beam="1">  1        2 0.16559088E+00 0.66752916E+03</pdfrwt>
<pdfrwt beam="2">  1       -2 0.48493780E-01 0.66752916E+03</pdfrwt>
<totfact> 0.92701037E+01</totfact>
</mgrwt>
</event>
<event>
 4    5  0.2473208E-007  0.7123470E+03  0.7818608E-02  0.9949387E-01
         -2   -1    0    0    0  501 -0.00000000000E+00  0.00000000000E+00  0.68973278760E+03  0.68973278760E+03  0.25500000000E-02 0.  1.
          2   -1    0    0  501    0  0.00000000000E+00 -0.00000000000E+00 -0.12642207086E+04  0.12642207086E+04  0.25500000000E-02 0. -1.
    8880023    1    1    2    0    0 -0.27110922639E+03  0.11305596163E+02  0.47699919166E+03  0.85730185130E+03  0.65864270000E+03 0.  1.
    8880022    1    1    2    0    0  0.27110922639E+03 -0.11305596163E+02 -0.10514871126E+04  0.10966516449E+04  0.15294330000E+03 0.  0.
<mgrwt>
<rscale>  0 0.57926352E+03</rscale>
<asrwt>0</asrwt>
<pdfrwt beam="1">  1        2 0.19449549E+00 0.71234699E+03</pdfrwt>
<pdfrwt beam="2">  1       -2 0.10611274E+00 0.71234699E+03</pdfrwt>
<totfact> 0.12749277E+01</totfact>
</mgrwt>
</event>
<event>
 4    5  0.2473208E-007  0.8437240E+03  0.7818608E-02  0.9623198E-01
          2   -1    0    0  501    0  0.00000000000E+00  0.00000000000E+00  0.17969126603E+04  0.17969126603E+04  0.25500000000E-02 0. -1.
         -2   -1    0    0    0  501 -0.00000000000E+00 -0.00000000000E+00 -0.17502938469E+04  0.17502938469E+04  0.25500000000E-02 0.  1.
    8880023    1    1    2    0    0  0.48673658619E+03  0.20284830382E+03 -0.16014356199E+04  0.18101011545E+04  0.65864270000E+03 0.  1.
    8880022    1    1    2    0    0 -0.48673658619E+03 -0.20284830382E+03  0.16480544332E+04  0.17371053527E+04  0.15294330000E+03 0.  0.
<mgrwt>
<rscale>  0 0.75779632E+03</rscale>
<asrwt>0</asrwt>
<pdfrwt beam="1">  1        2 0.27644810E+00 0.84372397E+03</pdfrwt>
<pdfrwt beam="2">  1       -2 0.26927598E+00 0.84372397E+03</pdfrwt>
<totfact> 0.43796108E-01</totfact>
</mgrwt>
</event>
<event>
 4    5  0.2473208E-007  0.7993989E+03  0.7818608E-02  0.9712097E-01
         -2   -1    0    0    0  501 -0.00000000000E+00  0.00000000000E+00  0.30119506111E+03  0.30119506112E+03  0.25500000000E-02 0.  1.
          2   -1    0    0  501    0  0.00000000000E+00 -0.00000000000E+00 -0.25222901981E+04  0.25222901981E+04  0.25500000000E-02 0. -1.
    8880023    1    1    2    0    0  0.29336573039E+03 -0.34520267976E+03 -0.31647440403E+03  0.85976426801E+03  0.65864270000E+03 0.  1.
    8880022    1    1    2    0    0 -0.29336573039E+03  0.34520267976E+03 -0.19046207329E+04  0.19637209912E+04  0.15294330000E+03 0.  0.
<mgrwt>
<rscale>  0 0.70301068E+03</rscale>
<asrwt>0</asrwt>
<pdfrwt beam="1">  1        2 0.38804463E+00 0.79939887E+03</pdfrwt>
<pdfrwt beam="2">  1       -2 0.46337703E-01 0.79939887E+03</pdfrwt>
<totfact> 0.15511394E+01</totfact>
</mgrwt>
</event>
<event>
 4    5  0.2473208E-007  0.1008593E+04  0.7818608E-02  0.9370401E-01
          2   -1    0    0  501    0  0.00000000000E+00  0.00000000000E+00  0.12959986976E+04  0.12959986976E+04  0.25500000000E-02 0. -1.
         -2   -1    0    0    0  501 -0.00000000000E+00 -0.00000000000E+00 -0.73605526022E+03  0.73605526022E+03  0.25500000000E-02 0.  1.
    8880023    1    1    2    0    0  0.57521085569E+03  0.50257508446E+03 -0.96703704407E+02  0.10132181684E+04  0.65864270000E+03 0.  1.
    8880022    1    1    2    0    0 -0.57521085569E+03 -0.50257508446E+03  0.65664714180E+03  0.10188357895E+04  0.15294330000E+03 0.  0.
<mgrwt>
<rscale>  0 0.94552117E+03</rscale>
<asrwt>0</asrwt>
<pdfrwt beam="1">  1        2 0.19938442E+00 0.10085928E+04</pdfrwt>
<pdfrwt beam="2">  1       -2 0.11323927E+00 0.10085928E+04</pdfrwt>
<totfact> 0.10101262E+01</totfact>
</mgrwt>
</event>
<event>
 4    5  0.2473208E-007  0.6625621E+03  0.7818608E-02  0.1021673E+00
         -2   -1    0    0    0  501 -0.00000000000E+00  0.00000000000E+00  0.19925553602E+03  0.19925553604E+03  0.25500000000E-02 0.  1.
          2   -1    0    0  501    0  0.00000000000E+00 -0.00000000000E+00 -0.31168448706E+04  0.31168448706E+04  0.25500000000E-02 0. -1.
    8880023    1    1    2    0    0 -0.19757274091E+02 -0.69195261504E+02 -0.36214958819E+03  0.75507672762E+03  0.65864270000E+03 0.  1.
    8880022    1    1    2    0    0  0.19757274091E+02  0.69195261504E+02 -0.25554397464E+04  0.25610236791E+04  0.15294330000E+03 0.  0.
<mgrwt>
<rscale>  0 0.47087832E+03</rscale>
<asrwt>0</asrwt>
<pdfrwt beam="1">  1        2 0.47951456E+00 0.66256210E+03</pdfrwt>
<pdfrwt beam="2">  1       -2 0.30654700E-01 0.66256210E+03</pdfrwt>
<totfact> 0.15634452E+01</totfact>
</mgrwt>
</event>
<event>
 4    5  0.2473208E-007  0.9221637E+03  0.7818608E-02  0.9491349E-01
         -2   -1    0    0    0  501 -0.00000000000E+00  0.00000000000E+00  0.48972680691E+03  0.48972680692E+03  0.25500000000E-02 0.  1.
          2   -1    0    0  501    0  0.00000000000E+00 -0.00000000000E+00 -0.18914190648E+04  0.18914190648E+04  0.25500000000E-02 0. -1.
    8880023    1    1    2    0    0  0.58418735731E+03 -0.27440979102E+03 -0.10948248609E+03  0.92863998561E+03  0.65864270000E+03 0.  0.
    8880022    1    1    2    0    0 -0.58418735731E+03  0.27440979102E+03 -0.12922097718E+04  0.14525058861E+04  0.15294330000E+03 0.  0.
<mgrwt>
<rscale>  0 0.84924607E+03</rscale>
<asrwt>0</asrwt>
<pdfrwt beam="1">  1        2 0.29098754E+00 0.92216366E+03</pdfrwt>
<pdfrwt beam="2">  1       -2 0.75342587E-01 0.92216366E+03</pdfrwt>
<totfact> 0.12255538E+01</totfact>
</mgrwt>
</event>
<event>
 4    5  0.2853829E-007  0.7631987E+03  0.7818608E-02  0.9796896E-01
         -2   -1    0    0    0  501 -0.00000000000E+00  0.00000000000E+00  0.10289407819E+04  0.10289407819E+04  0.25500000000E-02 0.  1.
          2   -1    0    0  501    0  0.00000000000E+00 -0.00000000000E+00 -0.20303169495E+04  0.20303169495E+04  0.25500000000E-02 0. -1.
    8880023    1    1    2    0    0 -0.17881810878E+03 -0.34159352148E+03  0.86139808317E+03  0.11508600757E+04  0.65864270000E+03 0.  1.
    8880022    1    1    2    0    0  0.17881810878E+03  0.34159352148E+03 -0.18627742507E+04  0.19083976556E+04  0.15294330000E+03 0.  0.
<mgrwt>
<rscale>  0 0.65529404E+03</rscale>
<asrwt>0</asrwt>
<pdfrwt beam="1">  1        2 0.31235645E+00 0.76319870E+03</pdfrwt>
<pdfrwt beam="2">  1       -2 0.15829858E+00 0.76319870E+03</pdfrwt>
<totfact> 0.17279857E+00</totfact>
</mgrwt>
</event>
<event>
 4    5  0.2473208E-007  0.6595235E+03  0.7818608E-02  0.1024650E+00
         -2   -1    0    0    0  501 -0.00000000000E+00  0.00000000000E+00  0.29780793865E+03  0.29780793866E+03  0.25500000000E-02 0.  1.
          2   -1    0    0  501    0  0.00000000000E+00 -0.00000000000E+00 -0.28120025938E+04  0.28120025938E+04  0.25500000000E-02 0. -1.
    8880023    1    1    2    0    0 -0.15627630079E+02 -0.30278124948E+02 -0.72953792792E+02  0.66354611733E+03  0.65864270000E+03 0.  1.
    8880022    1    1    2    0    0  0.15627630079E+02  0.30278124948E+02 -0.24412408624E+04  0.24462644152E+04  0.15294330000E+03 0.  0.
<mgrwt>
<rscale>  0 0.46045263E+03</rscale>
<asrwt>0</asrwt>
<pdfrwt beam="1">  1        2 0.43261576E+00 0.65952346E+03</pdfrwt>
<pdfrwt beam="2">  1       -2 0.45816608E-01 0.65952346E+03</pdfrwt>
<totfact> 0.11043397E+01</totfact>
</mgrwt>
</event>
<event>
 4    5  0.2473208E-007  0.9328418E+03  0.7818608E-02  0.9475243E-01
         -2   -1    0    0    0  501 -0.00000000000E+00  0.00000000000E+00  0.72706289894E+03  0.72706289894E+03  0.25500000000E-02 0.  1.
          2   -1    0    0  501    0  0.00000000000E+00 -0.00000000000E+00 -0.22498676480E+04  0.22498676480E+04  0.25500000000E-02 0. -1.
    8880023    1    1    2    0    0 -0.48960634438E+03  0.44347399006E+03  0.34131166937E+03  0.99332140530E+03  0.65864270000E+03 0.  1.
    8880022    1    1    2    0    0  0.48960634438E+03 -0.44347399006E+03 -0.18641164184E+04  0.19836091416E+04  0.15294330000E+03 0.  0.
<mgrwt>
<rscale>  0 0.86133914E+03</rscale>
<asrwt>0</asrwt>
<pdfrwt beam="1">  1        2 0.34613348E+00 0.93284177E+03</pdfrwt>
<pdfrwt beam="2">  1       -2 0.11185583E+00 0.93284177E+03</pdfrwt>
<totfact> 0.30922079E+00</totfact>
</mgrwt>
</event>
<event>
 4    5  0.2473208E-007  0.1044239E+04  0.7818608E-02  0.9325840E-01
         -2   -1    0    0    0  501 -0.00000000000E+00  0.00000000000E+00  0.12082673313E+04  0.12082673313E+04  0.25500000000E-02 0.  1.
          2   -1    0    0  501    0  0.00000000000E+00 -0.00000000000E+00 -0.87949075798E+03  0.87949075799E+03  0.25500000000E-02 0. -1.
    8880023    1    1    2    0    0  0.80913189500E+03 -0.43928158360E+02  0.61855967544E+03  0.12136928709E+04  0.65864270000E+03 0.  0.
    8880022    1    1    2    0    0 -0.80913189500E+03  0.43928158360E+02 -0.28978310214E+03  0.87406521834E+03  0.15294330000E+03 0.  0.
<mgrwt>
<rscale>  0 0.98438432E+03</rscale>
<asrwt>0</asrwt>
<pdfrwt beam="1">  1        2 0.13530627E+00 0.10442386E+04</pdfrwt>
<pdfrwt beam="2">  1       -2 0.18588728E+00 0.10442386E+04</pdfrwt>
<totfact> 0.49414518E+00</totfact>
</mgrwt>
</event>
<event>
 4    5  0.2473208E-007  0.8017836E+03  0.7818608E-02  0.9706953E-01
          2   -1    0    0  501    0  0.00000000000E+00  0.00000000000E+00  0.13714003780E+04  0.13714003780E+04  0.25500000000E-02 0. -1.
         -2   -1    0    0    0  501 -0.00000000000E+00 -0.00000000000E+00 -0.15019493009E+04  0.15019493009E+04  0.25500000000E-02 0.  1.
    8880023    1    1    2    0    0 -0.42794308207E+03  0.16097032138E+03 -0.13454768015E+04  0.15662582020E+04  0.65864270000E+03 0.  1.
    8880022    1    1    2    0    0  0.42794308207E+03 -0.16097032138E+03  0.12149278785E+04  0.13070914769E+04  0.15294330000E+03 0.  0.
<mgrwt>
<rscale>  0 0.70604333E+03</rscale>
<asrwt>0</asrwt>
<pdfrwt beam="1">  1        2 0.21098467E+00 0.80178359E+03</pdfrwt>
<pdfrwt beam="2">  1       -2 0.23106912E+00 0.80178359E+03</pdfrwt>
<totfact> 0.12983691E+00</totfact>
</mgrwt>
</event>
<event>
 4    5  0.2473208E-007  0.8065157E+03  0.7818608E-02  0.9696881E-01
         -2   -1    0    0    0  501 -0.00000000000E+00  0.00000000000E+00  0.65456726575E+03  0.65456726576E+03  0.25500000000E-02 0.  1.
          2   -1    0    0  501    0  0.00000000000E+00 -0.00000000000E+00 -0.10910837105E+04  0.10910837105E+04  0.25500000000E-02 0. -1.
    8880023    1    1    2    0    0  0.24962433516E+02 -0.46479491148E+03  0.30046822939E+03  0.86066764547E+03  0.65864270000E+03 0.  1.
    8880022    1    1    2    0    0 -0.24962433516E+02  0.46479491148E+03 -0.73698467410E+03  0.88498333074E+03  0.15294330000E+03 0.  0.
<mgrwt>
<rscale>  0 0.71202812E+03</rscale>
<asrwt>0</asrwt>
<pdfrwt beam="1">  1        2 0.16785903E+00 0.80651574E+03</pdfrwt>
<pdfrwt beam="2">  1       -2 0.10070266E+00 0.80651574E+03</pdfrwt>
<totfact> 0.18133538E+01</totfact>
</mgrwt>
</event>
<event>
 4    5  0.2473208E-007  0.9350246E+03  0.7818608E-02  0.9471996E-01
         -2   -1    0    0    0  501 -0.00000000000E+00  0.00000000000E+00  0.44924095168E+03  0.44924095169E+03  0.25500000000E-02 0.  1.
          2   -1    0    0  501    0  0.00000000000E+00 -0.00000000000E+00 -0.17767101031E+04  0.17767101031E+04  0.25500000000E-02 0. -1.
    8880023    1    1    2    0    0 -0.17066723608E+03  0.64135289412E+03 -0.27912166248E+03  0.97579708393E+03  0.65864270000E+03 0.  1.
    8880022    1    1    2    0    0  0.17066723608E+03 -0.64135289412E+03 -0.10483474889E+04  0.12501539708E+04  0.15294330000E+03 0.  0.
<mgrwt>
<rscale>  0 0.86380313E+03</rscale>
<asrwt>0</asrwt>
<pdfrwt beam="1">  1        2 0.27334001E+00 0.93502462E+03</pdfrwt>
<pdfrwt beam="2">  1       -2 0.69113994E-01 0.93502462E+03</pdfrwt>
<totfact> 0.17111708E+01</totfact>
</mgrwt>
</event>
<event>
 4    5  0.2473208E-007  0.8296731E+03  0.7818608E-02  0.9649969E-01
          2   -1    0    0  501    0  0.00000000000E+00  0.00000000000E+00  0.20291759230E+04  0.20291759230E+04  0.25500000000E-02 0. -1.
         -2   -1    0    0    0  501 -0.00000000000E+00 -0.00000000000E+00 -0.11189565611E+04  0.11189565611E+04  0.25500000000E-02 0.  1.
    8880023    1    1    2    0    0  0.14802388754E+03  0.48232373343E+03 -0.92272418274E+03  0.12408776647E+04  0.65864270000E+03 0.  1.
    8880022    1    1    2    0    0 -0.14802388754E+03 -0.48232373343E+03  0.18329435447E+04  0.19072548194E+04  0.15294330000E+03 0.  0.
<mgrwt>
<rscale>  0 0.74075387E+03</rscale>
<asrwt>0</asrwt>
<pdfrwt beam="1">  1        2 0.31218091E+00 0.82967311E+03</pdfrwt>
<pdfrwt beam="2">  1       -2 0.17214716E+00 0.82967311E+03</pdfrwt>
<totfact> 0.13581823E+00</totfact>
</mgrwt>
</event>
<event>
 4    5  0.2864119E-007  0.1061026E+04  0.7818608E-02  0.9305743E-01
          2   -1    0    0  501    0  0.00000000000E+00  0.00000000000E+00  0.35117755960E+04  0.35117755960E+04  0.25500000000E-02 0. -1.
         -2   -1    0    0    0  501 -0.00000000000E+00 -0.00000000000E+00 -0.83023463166E+03  0.83023463166E+03  0.25500000000E-02 0.  1.
    8880023    1    1    2    0    0  0.81378865151E+03 -0.17237594185E+03 -0.40952769977E+03  0.11373163930E+04  0.65864270000E+03 0.  0.
    8880022    1    1    2    0    0 -0.81378865151E+03  0.17237594185E+03  0.30910686641E+04  0.32046938347E+04  0.15294330000E+03 0.  0.
<mgrwt>
<rscale>  0 0.10025587E+04</rscale>
<asrwt>0</asrwt>
<pdfrwt beam="1">  1        2 0.54027317E+00 0.10610257E+04</pdfrwt>
<pdfrwt beam="2">  1       -2 0.12772840E+00 0.10610257E+04</pdfrwt>
<totfact> 0.36959484E-01</totfact>
</mgrwt>
</event>
<event>
 4    5  0.2473208E-007  0.6782468E+03  0.7818608E-02  0.1010333E+00
         -2   -1    0    0    0  501 -0.00000000000E+00  0.00000000000E+00  0.77264843072E+03  0.77264843073E+03  0.25500000000E-02 0.  1.
          2   -1    0    0  501    0  0.00000000000E+00 -0.00000000000E+00 -0.10842899201E+04  0.10842899201E+04  0.25500000000E-02 0. -1.
    8880023    1    1    2    0    0  0.11439021323E+03 -0.11455737055E+03  0.60790528707E+03  0.91080599270E+03  0.65864270000E+03 0.  1.
    8880022    1    1    2    0    0 -0.11439021323E+03  0.11455737055E+03 -0.91954677649E+03  0.94613235818E+03  0.15294330000E+03 0.  0.
<mgrwt>
<rscale>  0 0.51342405E+03</rscale>
<asrwt>0</asrwt>
<pdfrwt beam="1">  1        2 0.16681383E+00 0.67824680E+03</pdfrwt>
<pdfrwt beam="2">  1       -2 0.11886899E+00 0.67824680E+03</pdfrwt>
<totfact> 0.12440987E+01</totfact>
</mgrwt>
</event>
<event>
 4    5  0.2473208E-007  0.6645618E+03  0.7818608E-02  0.1019904E+00
          2   -1    0    0  501    0  0.00000000000E+00  0.00000000000E+00  0.20503551438E+03  0.20503551439E+03  0.25500000000E-02 0. -1.
         -2   -1    0    0    0  501 -0.00000000000E+00 -0.00000000000E+00 -0.12215215558E+04  0.12215215558E+04  0.25500000000E-02 0.  1.
    8880023    1    1    2    0    0 -0.82461306291E+02 -0.32129620320E+02 -0.10539042779E+04  0.12459360388E+04  0.65864270000E+03 0.  1.
    8880022    1    1    2    0    0  0.82461306291E+02  0.32129620320E+02  0.37418236502E+02  0.18062103137E+03  0.15294330000E+03 0.  0.
<mgrwt>
<rscale>  0 0.47721304E+03</rscale>
<asrwt>0</asrwt>
<pdfrwt beam="1">  1        2 0.31543926E-01 0.66456180E+03</pdfrwt>
<pdfrwt beam="2">  1       -2 0.18792639E+00 0.66456180E+03</pdfrwt>
<totfact> 0.27489499E+01</totfact>
</mgrwt>
</event>
<event>
 4    5  0.2473208E-007  0.7188114E+03  0.7818608E-02  0.9926628E-01
         -2   -1    0    0    0  501 -0.00000000000E+00  0.00000000000E+00  0.62946564888E+03  0.62946564889E+03  0.25500000000E-02 0.  1.
          2   -1    0    0  501    0  0.00000000000E+00 -0.00000000000E+00 -0.15143787376E+04  0.15143787376E+04  0.25500000000E-02 0. -1.
    8880023    1    1    2    0    0  0.54947303163E+01 -0.28783582097E+03  0.39698162423E+03  0.82114814019E+03  0.65864270000E+03 0.  1.
    8880022    1    1    2    0    0 -0.54947303163E+01  0.28783582097E+03 -0.12818947130E+04  0.13226962463E+04  0.15294330000E+03 0.  0.
<mgrwt>
<rscale>  0 0.58987940E+03</rscale>
<asrwt>0</asrwt>
<pdfrwt beam="1">  1        2 0.23298134E+00 0.71881142E+03</pdfrwt>
<pdfrwt beam="2">  1       -2 0.96840869E-01 0.71881142E+03</pdfrwt>
<totfact> 0.11424421E+01</totfact>
</mgrwt>
</event>
<event>
 4    5  0.2473208E-007  0.7054549E+03  0.7818608E-02  0.9975283E-01
          2   -1    0    0  501    0  0.00000000000E+00  0.00000000000E+00  0.23181494354E+04  0.23181494354E+04  0.25500000000E-02 0. -1.
         -2   -1    0    0    0  501 -0.00000000000E+00 -0.00000000000E+00 -0.34750621053E+03  0.34750621054E+03  0.25500000000E-02 0.  1.
    8880023    1    1    2    0    0 -0.12787118428E+03 -0.21795717129E+03  0.33635782032E+02  0.70625628520E+03  0.65864270000E+03 0.  1.
    8880022    1    1    2    0    0  0.12787118428E+03  0.21795717129E+03  0.19370074428E+04  0.19593993607E+04  0.15294330000E+03 0.  0.
<mgrwt>
<rscale>  0 0.56747453E+03</rscale>
<asrwt>0</asrwt>
<pdfrwt beam="1">  1        2 0.35663839E+00 0.70545487E+03</pdfrwt>
<pdfrwt beam="2">  1       -2 0.53462492E-01 0.70545487E+03</pdfrwt>
<totfact> 0.15324490E+01</totfact>
</mgrwt>
</event>
<event>
 4    5  0.2473208E-007  0.1077695E+04  0.7818608E-02  0.9286306E-01
         -2   -1    0    0    0  501 -0.00000000000E+00  0.00000000000E+00  0.25687810690E+04  0.25687810690E+04  0.25500000000E-02 0.  1.
          2   -1    0    0  501    0  0.00000000000E+00 -0.00000000000E+00 -0.75245049939E+03  0.75245049939E+03  0.25500000000E-02 0. -1.
    8880023    1    1    2    0    0  0.51211195298E+03 -0.68217051292E+03  0.21400885895E+04  0.23961228345E+04  0.65864270000E+03 0.  1.
    8880022    1    1    2    0    0 -0.51211195298E+03  0.68217051292E+03 -0.32375801985E+03  0.92510873388E+03  0.15294330000E+03 0.  0.
<mgrwt>
<rscale>  0 0.10205335E+04</rscale>
<asrwt>0</asrwt>
<pdfrwt beam="1">  1        2 0.11576162E+00 0.10776945E+04</pdfrwt>
<pdfrwt beam="2">  1       -2 0.39519709E+00 0.10776945E+04</pdfrwt>
<totfact> 0.29960236E-01</totfact>
</mgrwt>
</event>
<event>
 4    5  0.2473208E-007  0.6894731E+03  0.7818608E-02  0.1004404E+00
         -2   -1    0    0    0  501 -0.00000000000E+00  0.00000000000E+00  0.93397674736E+03  0.93397674736E+03  0.25500000000E-02 0.  1.
          2   -1    0    0  501    0  0.00000000000E+00 -0.00000000000E+00 -0.11868333536E+04  0.11868333536E+04  0.25500000000E-02 0. -1.
    8880023    1    1    2    0    0  0.12508782194E+03  0.16098452809E+03  0.78924900282E+03  0.10479919733E+04  0.65864270000E+03 0.  1.
    8880022    1    1    2    0    0 -0.12508782194E+03 -0.16098452809E+03 -0.10421056091E+04  0.10728181277E+04  0.15294330000E+03 0.  0.
<mgrwt>
<rscale>  0 0.53760621E+03</rscale>
<asrwt>0</asrwt>
<pdfrwt beam="1">  1        2 0.18258975E+00 0.68947312E+03</pdfrwt>
<pdfrwt beam="2">  1       -2 0.14368873E+00 0.68947312E+03</pdfrwt>
<totfact> 0.66632932E+00</totfact>
</mgrwt>
</event>
<event>
 4    5  0.2473208E-007  0.9508608E+03  0.7818608E-02  0.9448877E-01
         -2   -1    0    0    0  501 -0.00000000000E+00  0.00000000000E+00  0.56187198395E+03  0.56187198396E+03  0.25500000000E-02 0.  1.
          2   -1    0    0  501    0  0.00000000000E+00 -0.00000000000E+00 -0.44635044333E+04  0.44635044333E+04  0.25500000000E-02 0. -1.
    8880023    1    1    2    0    0  0.60529477262E+03  0.32240394275E+03  0.10587417155E+03  0.95673695995E+03  0.65864270000E+03 0.  0.
    8880022    1    1    2    0    0 -0.60529477262E+03 -0.32240394275E+03 -0.40075066209E+04  0.40686394574E+04  0.15294330000E+03 0.  0.
<mgrwt>
<rscale>  0 0.88160196E+03</rscale>
<asrwt>0</asrwt>
<pdfrwt beam="1">  1        2 0.68669297E+00 0.95086080E+03</pdfrwt>
<pdfrwt beam="2">  1       -2 0.86441847E-01 0.95086080E+03</pdfrwt>
<totfact> 0.16786171E-01</totfact>
</mgrwt>
</event>
<event>
 4    5  0.2473208E-007  0.8252045E+03  0.7818608E-02  0.9658736E-01
         -2   -1    0    0    0  501 -0.00000000000E+00  0.00000000000E+00  0.23146690317E+04  0.23146690317E+04  0.25500000000E-02 0.  1.
          2   -1    0    0  501    0  0.00000000000E+00 -0.00000000000E+00 -0.77130615368E+03  0.77130615368E+03  0.25500000000E-02 0. -1.
    8880023    1    1    2    0    0  0.19020802564E+03  0.45931817577E+03  0.21405059640E+04  0.22940637018E+04  0.65864270000E+03 0.  1.
    8880022    1    1    2    0    0 -0.19020802564E+03 -0.45931817577E+03 -0.59714308602E+03  0.79191148357E+03  0.15294330000E+03 0.  0.
<mgrwt>
<rscale>  0 0.73527690E+03</rscale>
<asrwt>0</asrwt>
<pdfrwt beam="1">  1        2 0.11866249E+00 0.82520451E+03</pdfrwt>
<pdfrwt beam="2">  1       -2 0.35610292E+00 0.82520451E+03</pdfrwt>
<totfact> 0.53659446E-01</totfact>
</mgrwt>
</event>
<event>
 4    5  0.2473208E-007  0.8455687E+03  0.7818608E-02  0.9619768E-01
          2   -1    0    0  501    0  0.00000000000E+00  0.00000000000E+00  0.82191028368E+03  0.82191028368E+03  0.25500000000E-02 0. -1.
         -2   -1    0    0    0  501 -0.00000000000E+00 -0.00000000000E+00 -0.15670370408E+04  0.15670370408E+04  0.25500000000E-02 0.  1.
    8880023    1    1    2    0    0 -0.17264723482E+03  0.50136735056E+03 -0.13355741580E+04  0.15807418593E+04  0.65864270000E+03 0.  1.
    8880022    1    1    2    0    0  0.17264723482E+03 -0.50136735056E+03  0.59044740083E+03  0.80820546525E+03  0.15294330000E+03 0.  0.
<mgrwt>
<rscale>  0 0.76001509E+03</rscale>
<asrwt>0</asrwt>
<pdfrwt beam="1">  1        2 0.12644774E+00 0.84556874E+03</pdfrwt>
<pdfrwt beam="2">  1       -2 0.24108262E+00 0.84556874E+03</pdfrwt>
<totfact> 0.24612833E+00</totfact>
</mgrwt>
</event>
<event>
 4    5  0.2473208E-007  0.6725792E+03  0.7818608E-02  0.1013878E+00
          2   -1    0    0  501    0  0.00000000000E+00  0.00000000000E+00  0.90306572332E+03  0.90306572332E+03  0.25500000000E-02 0. -1.
         -2   -1    0    0    0  501 -0.00000000000E+00 -0.00000000000E+00 -0.16629480003E+04  0.16629480003E+04  0.25500000000E-02 0.  1.
    8880023    1    1    2    0    0 -0.21611455509E+02  0.13448220177E+03 -0.15818590688E+04  0.17189068728E+04  0.65864270000E+03 0.  1.
    8880022    1    1    2    0    0  0.21611455509E+02 -0.13448220177E+03  0.82197679175E+03  0.84710685087E+03  0.15294330000E+03 0.  0.
<mgrwt>
<rscale>  0 0.49962194E+03</rscale>
<asrwt>0</asrwt>
<pdfrwt beam="1">  1        2 0.13893319E+00 0.67257916E+03</pdfrwt>
<pdfrwt beam="2">  1       -2 0.25583815E+00 0.67257916E+03</pdfrwt>
<totfact> 0.18103107E+00</totfact>
</mgrwt>
</event>
<event>
 4    5  0.2473208E-007  0.1756165E+04  0.7818608E-02  0.8747180E-01
         -2   -1    0    0    0  501 -0.00000000000E+00  0.00000000000E+00  0.15293268294E+04  0.15293268294E+04  0.25500000000E-02 0.  1.
          2   -1    0    0  501    0  0.00000000000E+00 -0.00000000000E+00 -0.22501509445E+04  0.22501509445E+04  0.25500000000E-02 0. -1.
    8880023    1    1    2    0    0 -0.28349190308E+03  0.16031030273E+04  0.39481090946E+03  0.17999980099E+04  0.65864270000E+03 0.  0.
    8880022    1    1    2    0    0  0.28349190308E+03 -0.16031030273E+04 -0.11156350245E+04  0.19794797640E+04  0.15294330000E+03 0.  0.
<mgrwt>
<rscale>  0 0.17250955E+04</rscale>
<asrwt>0</asrwt>
<pdfrwt beam="1">  1        2 0.34617707E+00 0.17561655E+04</pdfrwt>
<pdfrwt beam="2">  1       -2 0.23528105E+00 0.17561655E+04</pdfrwt>
<totfact> 0.35005856E-01</totfact>
</mgrwt>
</event>
<event>
 4    5  0.2473208E-007  0.6706516E+03  0.7818608E-02  0.1015200E+00
         -2   -1    0    0    0  501 -0.00000000000E+00  0.00000000000E+00  0.81165147845E+03  0.81165147845E+03  0.25500000000E-02 0.  1.
          2   -1    0    0  501    0  0.00000000000E+00 -0.00000000000E+00 -0.15077278010E+04  0.15077278010E+04  0.25500000000E-02 0. -1.
    8880023    1    1    2    0    0 -0.21542046592E+02 -0.12449603604E+03  0.66468403803E+03  0.94423429266E+03  0.65864270000E+03 0.  1.
    8880022    1    1    2    0    0  0.21542046592E+02  0.12449603604E+03 -0.13607603606E+04  0.13751449868E+04  0.15294330000E+03 0.  0.
<mgrwt>
<rscale>  0 0.49459266E+03</rscale>
<asrwt>0</asrwt>
<pdfrwt beam="1">  1        2 0.23195812E+00 0.67065157E+03</pdfrwt>
<pdfrwt beam="2">  1       -2 0.12486946E+00 0.67065157E+03</pdfrwt>
<totfact> 0.62715579E+00</totfact>
</mgrwt>
</event>
<event>
 4    5  0.2473208E-007  0.9290992E+03  0.7818608E-02  0.9480846E-01
         -2   -1    0    0    0  501 -0.00000000000E+00  0.00000000000E+00  0.75777034447E+03  0.75777034447E+03  0.25500000000E-02 0.  1.
          2   -1    0    0  501    0  0.00000000000E+00 -0.00000000000E+00 -0.13682181949E+04  0.13682181949E+04  0.25500000000E-02 0. -1.
    8880023    1    1    2    0    0 -0.44386845879E+03 -0.48207450042E+03  0.31563160332E+03  0.98124846392E+03  0.65864270000E+03 0.  1.
    8880022    1    1    2    0    0  0.44386845879E+03  0.48207450042E+03 -0.92607945374E+03  0.11447400754E+04  0.15294330000E+03 0.  0.
<mgrwt>
<rscale>  0 0.85710820E+03</rscale>
<asrwt>0</asrwt>
<pdfrwt beam="1">  1        2 0.21049511E+00 0.92909915E+03</pdfrwt>
<pdfrwt beam="2">  1       -2 0.11658005E+00 0.92909915E+03</pdfrwt>
<totfact> 0.86137219E+00</totfact>
</mgrwt>
</event>
<event>
 4    5  0.2473208E-007  0.7023976E+03  0.7818608E-02  0.9987397E-01
         -2   -1    0    0    0  501 -0.00000000000E+00  0.00000000000E+00  0.20351567784E+03  0.20351567786E+03  0.25500000000E-02 0.  1.
          2   -1    0    0  501    0  0.00000000000E+00 -0.00000000000E+00 -0.23400570726E+04  0.23400570726E+04  0.25500000000E-02 0. -1.
    8880023    1    1    2    0    0  0.21845628836E+03  0.10876131409E+03 -0.45351993747E+03  0.83608774259E+03  0.65864270000E+03 0.  0.
    8880022    1    1    2    0    0 -0.21845628836E+03 -0.10876131409E+03 -0.16830214573E+04  0.17074850078E+04  0.15294330000E+03 0.  0.
<mgrwt>
<rscale>  0 0.56206335E+03</rscale>
<asrwt>0</asrwt>
<pdfrwt beam="1">  1        2 0.36000876E+00 0.70239759E+03</pdfrwt>
<pdfrwt beam="2">  1       -2 0.31310106E-01 0.70239759E+03</pdfrwt>
<totfact> 0.42524045E+01</totfact>
</mgrwt>
</event>
<event>
 4    5  0.2473208E-007  0.1473385E+04  0.7818608E-02  0.8928662E-01
         -2   -1    0    0    0  501 -0.00000000000E+00  0.00000000000E+00  0.23880206606E+04  0.23880206606E+04  0.25500000000E-02 0.  1.
          2   -1    0    0  501    0  0.00000000000E+00 -0.00000000000E+00 -0.12056414675E+04  0.12056414675E+04  0.25500000000E-02 0. -1.
    8880023    1    1    2    0    0  0.11225215423E+04  0.69065125948E+03  0.16263731338E+04  0.21945280932E+04  0.65864270000E+03 0.  0.
    8880022    1    1    2    0    0 -0.11225215423E+04 -0.69065125948E+03 -0.44399394066E+03  0.13991340349E+04  0.15294330000E+03 0.  0.
<mgrwt>
<rscale>  0 0.14352913E+04</rscale>
<asrwt>0</asrwt>
<pdfrwt beam="1">  1        2 0.18548330E+00 0.14733852E+04</pdfrwt>
<pdfrwt beam="2">  1       -2 0.36738779E+00 0.14733852E+04</pdfrwt>
<totfact> 0.21519607E-01</totfact>
</mgrwt>
</event>
<event>
 4    5  0.2473208E-007  0.8360540E+03  0.7818608E-02  0.9637666E-01
          2   -1    0    0  501    0  0.00000000000E+00  0.00000000000E+00  0.33524172259E+04  0.33524172259E+04  0.25500000000E-02 0. -1.
         -2   -1    0    0    0  501 -0.00000000000E+00 -0.00000000000E+00 -0.57199302532E+03  0.57199302532E+03  0.25500000000E-02 0.  1.
    8880023    1    1    2    0    0  0.25730457587E+01 -0.51494610373E+03 -0.22945553525E+03  0.86696952613E+03  0.65864270000E+03 0. -1.
    8880022    1    1    2    0    0 -0.25730457587E+01  0.51494610373E+03  0.30098797358E+04  0.30574407251E+04  0.15294330000E+03 0.  0.
<mgrwt>
<rscale>  0 0.74852572E+03</rscale>
<asrwt>0</asrwt>
<pdfrwt beam="1">  1        2 0.51575649E+00 0.83605402E+03</pdfrwt>
<pdfrwt beam="2">  1       -2 0.87998927E-01 0.83605402E+03</pdfrwt>
<totfact> 0.12139078E+00</totfact>
</mgrwt>
</event>
<event>
 4    5  0.2473208E-007  0.6960203E+03  0.7818608E-02  0.1001413E+00
          2   -1    0    0  501    0  0.00000000000E+00  0.00000000000E+00  0.92127759386E+03  0.92127759386E+03  0.25500000000E-02 0. -1.
         -2   -1    0    0    0  501 -0.00000000000E+00 -0.00000000000E+00 -0.58235121518E+03  0.58235121519E+03  0.25500000000E-02 0.  1.
    8880023    1    1    2    0    0  0.13963068492E+03  0.17645771044E+03 -0.33823535774E+03  0.77385232133E+03  0.65864270000E+03 0.  1.
    8880022    1    1    2    0    0 -0.13963068492E+03 -0.17645771044E+03  0.67716173642E+03  0.72977648772E+03  0.15294330000E+03 0.  0.
<mgrwt>
<rscale>  0 0.55035035E+03</rscale>
<asrwt>0</asrwt>
<pdfrwt beam="1">  1        2 0.14173501E+00 0.69602030E+03</pdfrwt>
<pdfrwt beam="2">  1       -2 0.89592494E-01 0.69602030E+03</pdfrwt>
<totfact> 0.30920697E+01</totfact>
</mgrwt>
</event>
<event>
 4    5  0.2473208E-007  0.1262993E+04  0.7818608E-02  0.9098195E-01
         -2   -1    0    0    0  501 -0.00000000000E+00  0.00000000000E+00  0.17870554506E+04  0.17870554506E+04  0.25500000000E-02 0.  1.
          2   -1    0    0  501    0  0.00000000000E+00 -0.00000000000E+00 -0.13676485165E+04  0.13676485165E+04  0.25500000000E-02 0. -1.
    8880023    1    1    2    0    0 -0.10178748383E+03 -0.10728381423E+04  0.12565205382E+04  0.17815713403E+04  0.65864270000E+03 0.  0.
    8880022    1    1    2    0    0  0.10178748383E+03  0.10728381423E+04 -0.83711360411E+03  0.13731326268E+04  0.15294330000E+03 0.  0.
<mgrwt>
<rscale>  0 0.12168959E+04</rscale>
<asrwt>0</asrwt>
<pdfrwt beam="1">  1        2 0.21040746E+00 0.12629935E+04</pdfrwt>
<pdfrwt beam="2">  1       -2 0.27493161E+00 0.12629935E+04</pdfrwt>
<totfact> 0.65991942E-01</totfact>
</mgrwt>
</event>
<event>
 4    5  0.2473208E-007  0.1375904E+04  0.7818608E-02  0.9002636E-01
          2   -1    0    0  501    0  0.00000000000E+00  0.00000000000E+00  0.36294523061E+04  0.36294523061E+04  0.25500000000E-02 0. -1.
         -2   -1    0    0    0  501 -0.00000000000E+00 -0.00000000000E+00 -0.59149968546E+03  0.59149968547E+03  0.25500000000E-02 0.  1.
    8880023    1    1    2    0    0  0.61702960597E+03 -0.10385445679E+04  0.61059764970E+03  0.15053039727E+04  0.65864270000E+03 0. -1.
    8880022    1    1    2    0    0 -0.61702960597E+03  0.10385445679E+04  0.24273549709E+04  0.27156480188E+04  0.15294330000E+03 0.  0.
<mgrwt>
<rscale>  0 0.13345116E+04</rscale>
<asrwt>0</asrwt>
<pdfrwt beam="1">  1        2 0.55837729E+00 0.13759035E+04</pdfrwt>
<pdfrwt beam="2">  1       -2 0.90999950E-01 0.13759035E+04</pdfrwt>
<totfact> 0.66414147E-01</totfact>
</mgrwt>
</event>
<event>
 4    5  0.2473208E-007  0.7600740E+03  0.7818608E-02  0.9804916E-01
          2   -1    0    0  501    0  0.00000000000E+00  0.00000000000E+00  0.76911099949E+03  0.76911099949E+03  0.25500000000E-02 0. -1.
         -2   -1    0    0    0  501 -0.00000000000E+00 -0.00000000000E+00 -0.10754264345E+04  0.10754264345E+04  0.25500000000E-02 0.  1.
    8880023    1    1    2    0    0  0.16865474202E+03  0.33979087204E+03 -0.86541105921E+03  0.11518023990E+04  0.65864270000E+03 0.  1.
    8880022    1    1    2    0    0 -0.16865474202E+03 -0.33979087204E+03  0.55909562417E+03  0.69273503500E+03  0.15294330000E+03 0.  0.
<mgrwt>
<rscale>  0 0.65099390E+03</rscale>
<asrwt>0</asrwt>
<pdfrwt beam="1">  1        2 0.11832477E+00 0.76007399E+03</pdfrwt>
<pdfrwt beam="2">  1       -2 0.16545022E+00 0.76007399E+03</pdfrwt>
<totfact> 0.84718789E+00</totfact>
</mgrwt>
</event>
<event>
 4    5  0.2473208E-007  0.7987126E+03  0.7818608E-02  0.9713587E-01
         -2   -1    0    0    0  501 -0.00000000000E+00  0.00000000000E+00  0.39634972204E+03  0.39634972205E+03  0.25500000000E-02 0.  1.
          2   -1    0    0  501    0  0.00000000000E+00 -0.00000000000E+00 -0.10268575128E+04  0.10268575128E+04  0.25500000000E-02 0. -1.
    8880023    1    1    2    0    0 -0.45141296807E+03 -0.18919551256E+02 -0.40740391023E+03  0.89661573123E+03  0.65864270000E+03 0.  1.
    8880022    1    1    2    0    0  0.45141296807E+03  0.18919551256E+02 -0.22310388052E+03  0.52659150361E+03  0.15294330000E+03 0. -1.
<mgrwt>
<rscale>  0 0.70213582E+03</rscale>
<asrwt>0</asrwt>
<pdfrwt beam="1">  1        2 0.15797808E+00 0.79871260E+03</pdfrwt>
<pdfrwt beam="2">  1       -2 0.60976881E-01 0.79871260E+03</pdfrwt>
<totfact> 0.61278891E+01</totfact>
</mgrwt>
</event>
<event>
 4    5  0.2473208E-007  0.1383393E+04  0.7818608E-02  0.8996696E-01
          2   -1    0    0  501    0  0.00000000000E+00  0.00000000000E+00  0.17170736054E+04  0.17170736054E+04  0.25500000000E-02 0. -1.
         -2   -1    0    0    0  501 -0.00000000000E+00 -0.00000000000E+00 -0.22465339255E+04  0.22465339255E+04  0.25500000000E-02 0.  1.
    8880023    1    1    2    0    0 -0.11368038180E+04 -0.43317742931E+03 -0.17518789098E+04  0.22322310648E+04  0.65864270000E+03 0.  0.
    8880022    1    1    2    0    0  0.11368038180E+04  0.43317742931E+03  0.12224185896E+04  0.17313764661E+04  0.15294330000E+03 0.  0.
<mgrwt>
<rscale>  0 0.13422763E+04</rscale>
<asrwt>0</asrwt>
<pdfrwt beam="1">  1        2 0.26416517E+00 0.13833929E+04</pdfrwt>
<pdfrwt beam="2">  1       -2 0.34562061E+00 0.13833929E+04</pdfrwt>
<totfact> 0.15183274E-01</totfact>
</mgrwt>
</event>
<event>
 4    5  0.2473208E-007  0.8789097E+03  0.7818608E-02  0.9560774E-01
          2   -1    0    0  501    0  0.00000000000E+00  0.00000000000E+00  0.19770214225E+04  0.19770214225E+04  0.25500000000E-02 0. -1.
         -2   -1    0    0    0  501 -0.00000000000E+00 -0.00000000000E+00 -0.80527055610E+03  0.80527055610E+03  0.25500000000E-02 0.  1.
    8880023    1    1    2    0    0  0.32035487906E+03 -0.48584434856E+03 -0.49607379736E+03  0.10092429828E+04  0.65864270000E+03 0.  0.
    8880022    1    1    2    0    0 -0.32035487906E+03  0.48584434856E+03  0.16678246637E+04  0.17730489958E+04  0.15294330000E+03 0.  0.
<mgrwt>
<rscale>  0 0.79947758E+03</rscale>
<asrwt>0</asrwt>
<pdfrwt beam="1">  1        2 0.30415713E+00 0.87890966E+03</pdfrwt>
<pdfrwt beam="2">  1       -2 0.12388778E+00 0.87890966E+03</pdfrwt>
<totfact> 0.34248444E+00</totfact>
</mgrwt>
</event>
<event>
 4    5  0.2473208E-007  0.1046130E+04  0.7818608E-02  0.9323548E-01
         -2   -1    0    0    0  501 -0.00000000000E+00  0.00000000000E+00  0.81507405529E+03  0.81507405529E+03  0.25500000000E-02 0.  1.
          2   -1    0    0  501    0  0.00000000000E+00 -0.00000000000E+00 -0.21896610774E+04  0.21896610774E+04  0.25500000000E-02 0. -1.
    8880023    1    1    2    0    0  0.18705083352E+03 -0.79094239175E+03  0.34092393568E+03  0.11002805177E+04  0.65864270000E+03 0.  1.
    8880022    1    1    2    0    0 -0.18705083352E+03  0.79094239175E+03 -0.17155109578E+04  0.19044546150E+04  0.15294330000E+03 0. -1.
<mgrwt>
<rscale>  0 0.98643586E+03</rscale>
<asrwt>0</asrwt>
<pdfrwt beam="1">  1        2 0.33687093E+00 0.10461301E+04</pdfrwt>
<pdfrwt beam="2">  1       -2 0.12539601E+00 0.10461301E+04</pdfrwt>
<totfact> 0.24776854E+00</totfact>
</mgrwt>
</event>
<event>
 4    5  0.2473208E-007  0.8019331E+03  0.7818608E-02  0.9706632E-01
         -2   -1    0    0    0  501 -0.00000000000E+00  0.00000000000E+00  0.11852666882E+04  0.11852666882E+04  0.25500000000E-02 0.  1.
          2   -1    0    0  501    0  0.00000000000E+00 -0.00000000000E+00 -0.11542079774E+04  0.11542079774E+04  0.25500000000E-02 0. -1.
    8880023    1    1    2    0    0 -0.27559701400E+03 -0.36514753344E+03  0.98520719776E+03  0.12703266761E+04  0.65864270000E+03 0.  1.
    8880022    1    1    2    0    0  0.27559701400E+03  0.36514753344E+03 -0.95414848698E+03  0.10691479895E+04  0.15294330000E+03 0.  0.
<mgrwt>
<rscale>  0 0.70623303E+03</rscale>
<asrwt>0</asrwt>
<pdfrwt beam="1">  1        2 0.17757046E+00 0.80193307E+03</pdfrwt>
<pdfrwt beam="2">  1       -2 0.18234872E+00 0.80193307E+03</pdfrwt>
<totfact> 0.35829442E+00</totfact>
</mgrwt>
</event>
<event>
 4    5  0.2473208E-007  0.1117633E+04  0.7818608E-02  0.9241674E-01
          2   -1    0    0  501    0  0.00000000000E+00  0.00000000000E+00  0.25109205899E+04  0.25109205899E+04  0.25500000000E-02 0. -1.
         -2   -1    0    0    0  501 -0.00000000000E+00 -0.00000000000E+00 -0.49584525143E+03  0.49584525143E+03  0.25500000000E-02 0.  1.
    8880023    1    1    2    0    0 -0.88410741301E+03  0.18343151742E+03  0.47374077069E+03  0.12138919076E+04  0.65864270000E+03 0.  0.
    8880022    1    1    2    0    0  0.88410741301E+03 -0.18343151742E+03  0.15413345678E+04  0.17928739337E+04  0.15294330000E+03 0.  0.
<mgrwt>
<rscale>  0 0.10633451E+04</rscale>
<asrwt>0</asrwt>
<pdfrwt beam="1">  1        2 0.38629547E+00 0.11176329E+04</pdfrwt>
<pdfrwt beam="2">  1       -2 0.76283886E-01 0.11176329E+04</pdfrwt>
<totfact> 0.52551215E+00</totfact>
</mgrwt>
</event>
<event>
 4    5  0.2473208E-007  0.1290185E+04  0.7818608E-02  0.9074082E-01
          2   -1    0    0  501    0  0.00000000000E+00  0.00000000000E+00  0.53552631741E+04  0.53552631741E+04  0.25500000000E-02 0. -1.
         -2   -1    0    0    0  501 -0.00000000000E+00 -0.00000000000E+00 -0.36099454282E+03  0.36099454283E+03  0.25500000000E-02 0.  1.
    8880023    1    1    2    0    0  0.79856246119E+03 -0.77010720173E+03  0.12065399725E+04  0.17664416260E+04  0.65864270000E+03 0.  0.
    8880022    1    1    2    0    0 -0.79856246119E+03  0.77010720173E+03  0.37877286588E+04  0.39498160910E+04  0.15294330000E+03 0.  0.
<mgrwt>
<rscale>  0 0.12453260E+04</rscale>
<asrwt>0</asrwt>
<pdfrwt beam="1">  1        2 0.82388658E+00 0.12901850E+04</pdfrwt>
<pdfrwt beam="2">  1       -2 0.55537626E-01 0.12901850E+04</pdfrwt>
<totfact> 0.34416547E-02</totfact>
</mgrwt>
</event>
<event>
 4    5  0.2473208E-007  0.9416106E+03  0.7818608E-02  0.9462289E-01
          2   -1    0    0  501    0  0.00000000000E+00  0.00000000000E+00  0.31657138949E+04  0.31657138949E+04  0.25500000000E-02 0. -1.
         -2   -1    0    0    0  501 -0.00000000000E+00 -0.00000000000E+00 -0.21271992682E+03  0.21271992684E+03  0.25500000000E-02 0.  1.
    8880023    1    1    2    0    0 -0.50051000933E+03  0.44978881631E+03  0.18811856119E+04  0.21036848056E+04  0.65864270000E+03 0.  0.
    8880022    1    1    2    0    0  0.50051000933E+03 -0.44978881631E+03  0.10718083562E+04  0.12747490161E+04  0.15294330000E+03 0.  0.
<mgrwt>
<rscale>  0 0.87122138E+03</rscale>
<asrwt>0</asrwt>
<pdfrwt beam="1">  1        2 0.48703290E+00 0.94161056E+03</pdfrwt>
<pdfrwt beam="2">  1       -2 0.32726143E-01 0.94161056E+03</pdfrwt>
<totfact> 0.12302026E+01</totfact>
</mgrwt>
</event>
<event>
 4    5  0.2473208E-007  0.1950489E+04  0.7818608E-02  0.8643563E-01
         -2   -1    0    0    0  501 -0.00000000000E+00  0.00000000000E+00  0.29994414195E+04  0.29994414195E+04  0.25500000000E-02 0.  1.
          2   -1    0    0  501    0  0.00000000000E+00 -0.00000000000E+00 -0.24883632658E+04  0.24883632658E+04  0.25500000000E-02 0. -1.
    8880023    1    1    2    0    0 -0.18315372210E+04  0.12675425600E+03  0.22338272523E+04  0.29655336169E+04  0.65864270000E+03 0.  0.
    8880022    1    1    2    0    0  0.18315372210E+04 -0.12675425600E+03 -0.17227490985E+04  0.25222710685E+04  0.15294330000E+03 0.  0.
<mgrwt>
<rscale>  0 0.19228540E+04</rscale>
<asrwt>0</asrwt>
<pdfrwt beam="1">  1        2 0.38282512E+00 0.19504885E+04</pdfrwt>
<pdfrwt beam="2">  1       -2 0.46145253E+00 0.19504885E+04</pdfrwt>
<totfact> 0.90969897E-03</totfact>
</mgrwt>
</event>
<event>
 4    5  0.2473208E-007  0.1376705E+04  0.7818608E-02  0.9001998E-01
         -2   -1    0    0    0  501 -0.00000000000E+00  0.00000000000E+00  0.14738690585E+04  0.14738690585E+04  0.25500000000E-02 0.  1.
          2   -1    0    0  501    0  0.00000000000E+00 -0.00000000000E+00 -0.24944543846E+04  0.24944543846E+04  0.25500000000E-02 0. -1.
    8880023    1    1    2    0    0  0.35125771057E+03 -0.11567735190E+04  0.93496911446E+03  0.16641767949E+04  0.65864270000E+03 0.  0.
    8880022    1    1    2    0    0 -0.35125771057E+03  0.11567735190E+04 -0.19555544405E+04  0.23041466482E+04  0.15294330000E+03 0.  0.
<mgrwt>
<rscale>  0 0.13353429E+04</rscale>
<asrwt>0</asrwt>
<pdfrwt beam="1">  1        2 0.38376221E+00 0.13767052E+04</pdfrwt>
<pdfrwt beam="2">  1       -2 0.22674909E+00 0.13767052E+04</pdfrwt>
<totfact> 0.29937946E-01</totfact>
</mgrwt>
</event>
<event>
 4    5  0.2473208E-007  0.2178236E+04  0.7818608E-02  0.8537933E-01
          2   -1    0    0  501    0  0.00000000000E+00  0.00000000000E+00  0.14449168134E+04  0.14449168134E+04  0.25500000000E-02 0. -1.
         -2   -1    0    0    0  501 -0.00000000000E+00 -0.00000000000E+00 -0.45474992029E+04  0.45474992029E+04  0.25500000000E-02 0.  1.
    8880023    1    1    2    0    0 -0.11526709371E+04  0.17269191870E+04 -0.32420632986E+04  0.39058526350E+04  0.65864270000E+03 0.  0.
    8880022    1    1    2    0    0  0.11526709371E+04 -0.17269191870E+04  0.13948090911E+03  0.20865633814E+04  0.15294330000E+03 0.  0.
<mgrwt>
<rscale>  0 0.21537407E+04</rscale>
<asrwt>0</asrwt>
<pdfrwt beam="1">  1        2 0.22229490E+00 0.21782356E+04</pdfrwt>
<pdfrwt beam="2">  1       -2 0.69961526E+00 0.21782356E+04</pdfrwt>
<totfact> 0.26767192E-03</totfact>
</mgrwt>
</event>
<event>
 4    5  0.2473208E-007  0.1478728E+04  0.7818608E-02  0.8924805E-01
         -2   -1    0    0    0  501 -0.00000000000E+00  0.00000000000E+00  0.10055862573E+04  0.10055862573E+04  0.25500000000E-02 0.  1.
          2   -1    0    0  501    0  0.00000000000E+00 -0.00000000000E+00 -0.22740920830E+04  0.22740920830E+04  0.25500000000E-02 0. -1.
    8880023    1    1    2    0    0  0.30356661847E+03 -0.12886710944E+04 -0.58971746292E+02  0.14799032923E+04  0.65864270000E+03 0.  0.
    8880022    1    1    2    0    0 -0.30356661847E+03  0.12886710944E+04 -0.12095340794E+04  0.17997750480E+04  0.15294330000E+03 0.  0.
<mgrwt>
<rscale>  0 0.14407984E+04</rscale>
<asrwt>0</asrwt>
<pdfrwt beam="1">  1        2 0.34986032E+00 0.14787279E+04</pdfrwt>
<pdfrwt beam="2">  1       -2 0.15470558E+00 0.14787279E+04</pdfrwt>
<totfact> 0.12237488E+00</totfact>
</mgrwt>
</event>
<event>
 4    5  0.2473208E-007  0.1335661E+04  0.7818608E-02  0.9035361E-01
         -2   -1    0    0    0  501 -0.00000000000E+00  0.00000000000E+00  0.99914602802E+03  0.99914602802E+03  0.25500000000E-02 0.  1.
          2   -1    0    0  501    0  0.00000000000E+00 -0.00000000000E+00 -0.26558253146E+04  0.26558253146E+04  0.25500000000E-02 0. -1.
    8880023    1    1    2    0    0  0.93164557448E+03 -0.69441764773E+03  0.30482720806E+03  0.13700033500E+04  0.65864270000E+03 0.  0.
    8880022    1    1    2    0    0 -0.93164557448E+03  0.69441764773E+03 -0.19615064947E+04  0.22849679927E+04  0.15294330000E+03 0.  0.
<mgrwt>
<rscale>  0 0.12927171E+04</rscale>
<asrwt>0</asrwt>
<pdfrwt beam="1">  1        2 0.40858851E+00 0.13356607E+04</pdfrwt>
<pdfrwt beam="2">  1       -2 0.15371477E+00 0.13356607E+04</pdfrwt>
<totfact> 0.76235785E-01</totfact>
</mgrwt>
</event>
<event>
 4    5  0.2473208E-007  0.6792018E+03  0.7818608E-02  0.1009779E+00
         -2   -1    0    0    0  501 -0.00000000000E+00  0.00000000000E+00  0.27308865474E+03  0.27308865476E+03  0.25500000000E-02 0.  1.
          2   -1    0    0  501    0  0.00000000000E+00 -0.00000000000E+00 -0.26615391982E+04  0.26615391982E+04  0.25500000000E-02 0. -1.
    8880023    1    1    2    0    0 -0.31560299380E+01  0.16581591076E+03 -0.16394041721E+03  0.69870705123E+03  0.65864270000E+03 0.  1.
    8880022    1    1    2    0    0  0.31560299380E+01 -0.16581591076E+03 -0.22245101263E+04  0.22359208018E+04  0.15294330000E+03 0.  0.
<mgrwt>
<rscale>  0 0.51562640E+03</rscale>
<asrwt>0</asrwt>
<pdfrwt beam="1">  1        2 0.40946755E+00 0.67920180E+03</pdfrwt>
<pdfrwt beam="2">  1       -2 0.42013641E-01 0.67920180E+03</pdfrwt>
<totfact> 0.15988611E+01</totfact>
</mgrwt>
</event>
<event>
 4    5  0.2473208E-007  0.1029516E+04  0.7818608E-02  0.9343921E-01
         -2   -1    0    0    0  501 -0.00000000000E+00  0.00000000000E+00  0.23325621875E+04  0.23325621875E+04  0.25500000000E-02 0.  1.
          2   -1    0    0  501    0  0.00000000000E+00 -0.00000000000E+00 -0.17495226416E+04  0.17495226416E+04  0.25500000000E-02 0. -1.
    8880023    1    1    2    0    0  0.52517541128E+03 -0.59184776363E+03  0.21143368849E+04  0.23516640187E+04  0.65864270000E+03 0.  0.
    8880022    1    1    2    0    0 -0.52517541128E+03  0.59184776363E+03 -0.15312973390E+04  0.17304208105E+04  0.15294330000E+03 0.  0.
<mgrwt>
<rscale>  0 0.96838028E+03</rscale>
<asrwt>0</asrwt>
<pdfrwt beam="1">  1        2 0.26915733E+00 0.10295160E+04</pdfrwt>
<pdfrwt beam="2">  1       -2 0.35885572E+00 0.10295160E+04</pdfrwt>
<totfact> 0.12717428E-01</totfact>
</mgrwt>
</event>
<event>
 4    5  0.2473208E-007  0.7593377E+03  0.7818608E-02  0.9806825E-01
         -2   -1    0    0    0  501 -0.00000000000E+00  0.00000000000E+00  0.15713015563E+04  0.15713015563E+04  0.25500000000E-02 0.  1.
          2   -1    0    0  501    0  0.00000000000E+00 -0.00000000000E+00 -0.24104514296E+04  0.24104514296E+04  0.25500000000E-02 0. -1.
    8880023    1    1    2    0    0 -0.31087656889E+03 -0.21480055947E+03  0.14605797943E+04  0.16461734608E+04  0.65864270000E+03 0.  0.
    8880022    1    1    2    0    0  0.31087656889E+03  0.21480055947E+03 -0.22997296675E+04  0.23355795251E+04  0.15294330000E+03 0.  0.
<mgrwt>
<rscale>  0 0.64997550E+03</rscale>
<asrwt>0</asrwt>
<pdfrwt beam="1">  1        2 0.37083868E+00 0.75933769E+03</pdfrwt>
<pdfrwt beam="2">  1       -2 0.24173870E+00 0.75933769E+03</pdfrwt>
<totfact> 0.30070854E-01</totfact>
</mgrwt>
</event>
<event>
 4    5  0.2473208E-007  0.1602528E+04  0.7818608E-02  0.8840437E-01
         -2   -1    0    0    0  501 -0.00000000000E+00  0.00000000000E+00  0.14852577364E+04  0.14852577364E+04  0.25500000000E-02 0.  1.
          2   -1    0    0  501    0  0.00000000000E+00 -0.00000000000E+00 -0.23721416193E+04  0.23721416193E+04  0.25500000000E-02 0. -1.
    8880023    1    1    2    0    0 -0.14273515956E+04  0.31137122229E+03  0.65191896992E+03  0.17300558272E+04  0.65864270000E+03 0.  0.
    8880022    1    1    2    0    0  0.14273515956E+04 -0.31137122229E+03 -0.15388028528E+04  0.21273435285E+04  0.15294330000E+03 0.  0.
<mgrwt>
<rscale>  0 0.15680230E+04</rscale>
<asrwt>0</asrwt>
<pdfrwt beam="1">  1        2 0.36494486E+00 0.16025276E+04</pdfrwt>
<pdfrwt beam="2">  1       -2 0.22850119E+00 0.16025276E+04</pdfrwt>
<totfact> 0.33416345E-01</totfact>
</mgrwt>
</event>
<event>
 4    5  0.2473208E-007  0.1803218E+04  0.7818608E-02  0.8720758E-01
          2   -1    0    0  501    0  0.00000000000E+00  0.00000000000E+00  0.25040870653E+04  0.25040870653E+04  0.25500000000E-02 0. -1.
         -2   -1    0    0    0  501 -0.00000000000E+00 -0.00000000000E+00 -0.14014028707E+04  0.14014028707E+04  0.25500000000E-02 0.  1.
    8880023    1    1    2    0    0 -0.79036181417E+03  0.14809164952E+04 -0.14401574755E+03  0.18089599788E+04  0.65864270000E+03 0.  0.
    8880022    1    1    2    0    0  0.79036181417E+03 -0.14809164952E+04  0.12466999421E+04  0.20965299572E+04  0.15294330000E+03 0.  0.
<mgrwt>
<rscale>  0 0.17730602E+04</rscale>
<asrwt>0</asrwt>
<pdfrwt beam="1">  1        2 0.38524416E+00 0.18032181E+04</pdfrwt>
<pdfrwt beam="2">  1       -2 0.21560044E+00 0.18032181E+04</pdfrwt>
<totfact> 0.33196560E-01</totfact>
</mgrwt>
</event>
<event>
 4    5  0.2473208E-007  0.7172534E+03  0.7818608E-02  0.9931991E-01
          2   -1    0    0  501    0  0.00000000000E+00  0.00000000000E+00  0.21360766430E+04  0.21360766430E+04  0.25500000000E-02 0. -1.
         -2   -1    0    0    0  501 -0.00000000000E+00 -0.00000000000E+00 -0.36609687569E+03  0.36609687570E+03  0.25500000000E-02 0.  1.
    8880023    1    1    2    0    0  0.19318424947E+03 -0.20813971932E+03  0.14594993579E+02  0.71740192159E+03  0.65864270000E+03 0.  1.
    8880022    1    1    2    0    0 -0.19318424947E+03  0.20813971932E+03  0.17553847737E+04  0.17847715971E+04  0.15294330000E+03 0.  0.
<mgrwt>
<rscale>  0 0.58735594E+03</rscale>
<asrwt>0</asrwt>
<pdfrwt beam="1">  1        2 0.32862717E+00 0.71725344E+03</pdfrwt>
<pdfrwt beam="2">  1       -2 0.56322597E-01 0.71725344E+03</pdfrwt>
<totfact> 0.17301046E+01</totfact>
</mgrwt>
</event>
<event>
 4    5  0.2473208E-007  0.8875985E+03  0.7818608E-02  0.9546241E-01
         -2   -1    0    0    0  501 -0.00000000000E+00  0.00000000000E+00  0.16476120155E+04  0.16476120155E+04  0.25500000000E-02 0.  1.
          2   -1    0    0  501    0  0.00000000000E+00 -0.00000000000E+00 -0.11322147160E+04  0.11322147160E+04  0.25500000000E-02 0. -1.
    8880023    1    1    2    0    0  0.23257369001E+03 -0.54765899554E+03  0.14270094829E+04  0.16805318109E+04  0.65864270000E+03 0.  1.
    8880022    1    1    2    0    0 -0.23257369001E+03  0.54765899554E+03 -0.91161218335E+03  0.10992949206E+04  0.15294330000E+03 0.  0.
<mgrwt>
<rscale>  0 0.80958875E+03</rscale>
<asrwt>0</asrwt>
<pdfrwt beam="1">  1        2 0.17418688E+00 0.88759850E+03</pdfrwt>
<pdfrwt beam="2">  1       -2 0.25347877E+00 0.88759850E+03</pdfrwt>
<totfact> 0.12902935E+00</totfact>
</mgrwt>
</event>
<event>
 4    5  0.2473208E-007  0.1285600E+04  0.7818608E-02  0.9078096E-01
          2   -1    0    0  501    0  0.00000000000E+00  0.00000000000E+00  0.36142776345E+04  0.36142776345E+04  0.25500000000E-02 0. -1.
         -2   -1    0    0    0  501 -0.00000000000E+00 -0.00000000000E+00 -0.12745872447E+04  0.12745872447E+04  0.25500000000E-02 0.  1.
    8880023    1    1    2    0    0  0.10895787814E+04 -0.17825548785E+03 -0.82909862105E+03  0.15297619650E+04  0.65864270000E+03 0.  0.
    8880022    1    1    2    0    0 -0.10895787814E+04  0.17825548785E+03  0.31687890109E+04  0.33591029142E+04  0.15294330000E+03 0.  0.
<mgrwt>
<rscale>  0 0.12405373E+04</rscale>
<asrwt>0</asrwt>
<pdfrwt beam="1">  1        2 0.55604271E+00 0.12855999E+04</pdfrwt>
<pdfrwt beam="2">  1       -2 0.19609035E+00 0.12855999E+04</pdfrwt>
<totfact> 0.93353453E-02</totfact>
</mgrwt>
</event>
<event>
 4    5  0.2473208E-007  0.1395281E+04  0.7818608E-02  0.8987359E-01
          2   -1    0    0  501    0  0.00000000000E+00  0.00000000000E+00  0.32370740609E+04  0.32370740609E+04  0.25500000000E-02 0. -1.
         -2   -1    0    0    0  501 -0.00000000000E+00 -0.00000000000E+00 -0.12912614483E+04  0.12912614483E+04  0.25500000000E-02 0.  1.
    8880023    1    1    2    0    0 -0.25863138751E+03  0.12025420971E+04 -0.73340193511E+03  0.15762887726E+04  0.65864270000E+03 0.  0.
    8880022    1    1    2    0    0  0.25863138751E+03 -0.12025420971E+04  0.26792145476E+04  0.29520467366E+04  0.15294330000E+03 0.  0.
<mgrwt>
<rscale>  0 0.13545930E+04</rscale>
<asrwt>0</asrwt>
<pdfrwt beam="1">  1        2 0.49801139E+00 0.13952806E+04</pdfrwt>
<pdfrwt beam="2">  1       -2 0.19865561E+00 0.13952806E+04</pdfrwt>
<totfact> 0.15951344E-01</totfact>
</mgrwt>
</event>
<event>
 4    5  0.2473208E-007  0.7702579E+03  0.7818608E-02  0.9779240E-01
         -2   -1    0    0    0  501 -0.00000000000E+00  0.00000000000E+00  0.26083966763E+04  0.26083966763E+04  0.25500000000E-02 0.  1.
          2   -1    0    0  501    0  0.00000000000E+00 -0.00000000000E+00 -0.89747622381E+03  0.89747622382E+03  0.25500000000E-02 0. -1.
    8880023    1    1    2    0    0  0.31633376880E+03  0.24376198900E+03  0.24958526771E+04  0.26120064610E+04  0.65864270000E+03 0.  0.
    8880022    1    1    2    0    0 -0.31633376880E+03 -0.24376198900E+03 -0.78493222463E+03  0.89386643904E+03  0.15294330000E+03 0. -1.
<mgrwt>
<rscale>  0 0.66488643E+03</rscale>
<asrwt>0</asrwt>
<pdfrwt beam="1">  1        2 0.13807327E+00 0.77025786E+03</pdfrwt>
<pdfrwt beam="2">  1       -2 0.40129179E+00 0.77025786E+03</pdfrwt>
<totfact> 0.22776186E-01</totfact>
</mgrwt>
</event>
<event>
 4    5  0.2473208E-007  0.6991242E+03  0.7818608E-02  0.1000085E+00
          2   -1    0    0  501    0  0.00000000000E+00  0.00000000000E+00  0.91207652800E+03  0.91207652800E+03  0.25500000000E-02 0. -1.
         -2   -1    0    0    0  501 -0.00000000000E+00 -0.00000000000E+00 -0.36812043846E+03  0.36812043847E+03  0.25500000000E-02 0.  1.
    8880023    1    1    2    0    0 -0.68752466383E+02 -0.22413726541E+03  0.35796645165E+02  0.70004001418E+03  0.65864270000E+03 0.  1.
    8880022    1    1    2    0    0  0.68752466383E+02  0.22413726541E+03  0.50815944437E+03  0.58015695230E+03  0.15294330000E+03 0.  0.
<mgrwt>
<rscale>  0 0.55612808E+03</rscale>
<asrwt>0</asrwt>
<pdfrwt beam="1">  1        2 0.14031947E+00 0.69912418E+03</pdfrwt>
<pdfrwt beam="2">  1       -2 0.56633914E-01 0.69912418E+03</pdfrwt>
<totfact> 0.85622468E+01</totfact>
</mgrwt>
</event>
<event>
 4    5  0.2473208E-007  0.6802520E+03  0.7818608E-02  0.1009181E+00
          2   -1    0    0  501    0  0.00000000000E+00  0.00000000000E+00  0.10605111457E+04  0.10605111457E+04  0.25500000000E-02 0. -1.
         -2   -1    0    0    0  501 -0.00000000000E+00 -0.00000000000E+00 -0.41520207850E+03  0.41520207851E+03  0.25500000000E-02 0.  1.
    8880023    1    1    2    0    0  0.69250437352E+02  0.15536072651E+03 -0.10770207547E+03  0.68872528757E+03  0.65864270000E+03 0.  1.
    8880022    1    1    2    0    0 -0.69250437352E+02 -0.15536072651E+03  0.75301114268E+03  0.78698793665E+03  0.15294330000E+03 0.  0.
<mgrwt>
<rscale>  0 0.51801249E+03</rscale>
<asrwt>0</asrwt>
<pdfrwt beam="1">  1        2 0.16315556E+00 0.68025200E+03</pdfrwt>
<pdfrwt beam="2">  1       -2 0.63877245E-01 0.68025200E+03</pdfrwt>
<totfact> 0.53430737E+01</totfact>
</mgrwt>
</event>
<event>
 4    5  0.2473208E-007  0.8209485E+03  0.7818608E-02  0.9667207E-01
          2   -1    0    0  501    0  0.00000000000E+00  0.00000000000E+00  0.43776067412E+04  0.43776067412E+04  0.25500000000E-02 0. -1.
         -2   -1    0    0    0  501 -0.00000000000E+00 -0.00000000000E+00 -0.19843990645E+03  0.19843990647E+03  0.25500000000E-02 0.  1.
    8880023    1    1    2    0    0  0.76881101363E+02 -0.48397889896E+03  0.76056099425E+03  0.11191110359E+04  0.65864270000E+03 0.  1.
    8880022    1    1    2    0    0 -0.76881101363E+02  0.48397889896E+03  0.34186058405E+04  0.34569356118E+04  0.15294330000E+03 0.  0.
<mgrwt>
<rscale>  0 0.73003274E+03</rscale>
<asrwt>0</asrwt>
<pdfrwt beam="1">  1        2 0.67347797E+00 0.82094853E+03</pdfrwt>
<pdfrwt beam="2">  1       -2 0.30529216E-01 0.82094853E+03</pdfrwt>
<totfact> 0.17731681E+00</totfact>
</mgrwt>
</event>
<event>
 4    5  0.2473208E-007  0.8602374E+03  0.7818608E-02  0.9593141E-01
          2   -1    0    0  501    0  0.00000000000E+00  0.00000000000E+00  0.28730290957E+04  0.28730290957E+04  0.25500000000E-02 0. -1.
         -2   -1    0    0    0  501 -0.00000000000E+00 -0.00000000000E+00 -0.36014205763E+03  0.36014205764E+03  0.25500000000E-02 0.  1.
    8880023    1    1    2    0    0  0.37768028701E+03 -0.40442034756E+03  0.24600441519E+03  0.89472151828E+03  0.65864270000E+03 0.  1.
    8880022    1    1    2    0    0 -0.37768028701E+03  0.40442034756E+03  0.22668826229E+04  0.23384496350E+04  0.15294330000E+03 0.  0.
<mgrwt>
<rscale>  0 0.77751805E+03</rscale>
<asrwt>0</asrwt>
<pdfrwt beam="1">  1        2 0.44200448E+00 0.86023742E+03</pdfrwt>
<pdfrwt beam="2">  1       -2 0.55406470E-01 0.86023742E+03</pdfrwt>
<totfact> 0.66524486E+00</totfact>
</mgrwt>
</event>
<event>
 4    5  0.2473208E-007  0.7401783E+03  0.7818608E-02  0.9859428E-01
         -2   -1    0    0    0  501 -0.00000000000E+00  0.00000000000E+00  0.73440420364E+03  0.73440420365E+03  0.25500000000E-02 0.  1.
          2   -1    0    0  501    0  0.00000000000E+00 -0.00000000000E+00 -0.46840818869E+03  0.46840818870E+03  0.25500000000E-02 0. -1.
    8880023    1    1    2    0    0  0.68048143297E+02  0.33079180964E+03  0.35595059991E+03  0.82131894351E+03  0.65864270000E+03 0.  0.
    8880022    1    1    2    0    0 -0.68048143297E+02 -0.33079180964E+03 -0.89954584957E+02  0.38149344883E+03  0.15294330000E+03 0.  0.
<mgrwt>
<rscale>  0 0.62268523E+03</rscale>
<asrwt>0</asrwt>
<pdfrwt beam="1">  1        2 0.72062798E-01 0.74017834E+03</pdfrwt>
<pdfrwt beam="2">  1       -2 0.11298526E+00 0.74017834E+03</pdfrwt>
<totfact> 0.41397623E+01</totfact>
</mgrwt>
</event>
<event>
 4    5  0.3980198E-007  0.9020633E+03  0.7818608E-02  0.9522727E-01
         -2   -1    0    0    0  501 -0.00000000000E+00  0.00000000000E+00  0.81464030435E+03  0.81464030436E+03  0.25500000000E-02 0.  1.
          2   -1    0    0  501    0  0.00000000000E+00 -0.00000000000E+00 -0.35637347016E+04  0.35637347016E+04  0.25500000000E-02 0. -1.
    8880023    1    1    2    0    0  0.54740849841E+03  0.28328758026E+03  0.52469267527E+03  0.10435614630E+04  0.65864270000E+03 0.  0.
    8880022    1    1    2    0    0 -0.54740849841E+03 -0.28328758026E+03 -0.32737870726E+04  0.33348135430E+04  0.15294330000E+03 0.  0.
<mgrwt>
<rscale>  0 0.82628756E+03</rscale>
<asrwt>0</asrwt>
<pdfrwt beam="1">  1        2 0.54826687E+00 0.90206326E+03</pdfrwt>
<pdfrwt beam="2">  1       -2 0.12532928E+00 0.90206326E+03</pdfrwt>
<totfact> 0.36803430E-01</totfact>
</mgrwt>
</event>
<event>
 4    5  0.2473208E-007  0.1099417E+04  0.7818608E-02  0.9261705E-01
         -2   -1    0    0    0  501 -0.00000000000E+00  0.00000000000E+00  0.22841729087E+03  0.22841729089E+03  0.25500000000E-02 0.  1.
          2   -1    0    0  501    0  0.00000000000E+00 -0.00000000000E+00 -0.46376618741E+04  0.46376618741E+04  0.25500000000E-02 0. -1.
    8880023    1    1    2    0    0  0.70721247830E+03  0.52417436504E+03 -0.30243185924E+04  0.32179529843E+04  0.65864270000E+03 0.  0.
    8880022    1    1    2    0    0 -0.70721247830E+03 -0.52417436504E+03 -0.13849259908E+04  0.16481261807E+04  0.15294330000E+03 0.  0.
<mgrwt>
<rscale>  0 0.10438611E+04</rscale>
<asrwt>0</asrwt>
<pdfrwt beam="1">  1        2 0.71348637E+00 0.10994173E+04</pdfrwt>
<pdfrwt beam="2">  1       -2 0.35141125E-01 0.10994173E+04</pdfrwt>
<totfact> 0.72177872E-01</totfact>
</mgrwt>
</event>
<event>
 4    5  0.2473208E-007  0.9734421E+03  0.7818608E-02  0.9417159E-01
          2   -1    0    0  501    0  0.00000000000E+00  0.00000000000E+00  0.11319215289E+04  0.11319215289E+04  0.25500000000E-02 0. -1.
         -2   -1    0    0    0  501 -0.00000000000E+00 -0.00000000000E+00 -0.91160744361E+03  0.91160744361E+03  0.25500000000E-02 0.  1.
    8880023    1    1    2    0    0 -0.54722889354E+03  0.46294699172E+03 -0.42953871026E+03  0.10639986320E+04  0.65864270000E+03 0.  0.
    8880022    1    1    2    0    0  0.54722889354E+03 -0.46294699172E+03  0.64985279558E+03  0.97953034053E+03  0.15294330000E+03 0.  0.
<mgrwt>
<rscale>  0 0.90676903E+03</rscale>
<asrwt>0</asrwt>
<pdfrwt beam="1">  1        2 0.17414177E+00 0.97344213E+03</pdfrwt>
<pdfrwt beam="2">  1       -2 0.14024730E+00 0.97344213E+03</pdfrwt>
<totfact> 0.74013121E+00</totfact>
</mgrwt>
</event>
<event>
 4    5  0.2473208E-007  0.6722468E+03  0.7818608E-02  0.1014101E+00
          2   -1    0    0  501    0  0.00000000000E+00  0.00000000000E+00  0.15903900131E+04  0.15903900131E+04  0.25500000000E-02 0. -1.
         -2   -1    0    0    0  501 -0.00000000000E+00 -0.00000000000E+00 -0.21536109342E+03  0.21536109344E+03  0.25500000000E-02 0.  1.
    8880023    1    1    2    0    0 -0.12580966680E+03 -0.47723357893E+02  0.34468465635E+03  0.75546231523E+03  0.65864270000E+03 0.  1.
    8880022    1    1    2    0    0  0.12580966680E+03  0.47723357893E+02  0.10303442634E+04  0.10502887913E+04  0.15294330000E+03 0.  0.
<mgrwt>
<rscale>  0 0.49876845E+03</rscale>
<asrwt>0</asrwt>
<pdfrwt beam="1">  1        2 0.24467539E+00 0.67224683E+03</pdfrwt>
<pdfrwt beam="2">  1       -2 0.33132476E-01 0.67224683E+03</pdfrwt>
<totfact> 0.98654929E+01</totfact>
</mgrwt>
</event>
<event>
 4    5  0.2473208E-007  0.1332480E+04  0.7818608E-02  0.9038007E-01
         -2   -1    0    0    0  501 -0.00000000000E+00  0.00000000000E+00  0.24905211721E+04  0.24905211721E+04  0.25500000000E-02 0.  1.
          2   -1    0    0  501    0  0.00000000000E+00 -0.00000000000E+00 -0.10337595712E+04  0.10337595712E+04  0.25500000000E-02 0. -1.
    8880023    1    1    2    0    0 -0.56330039008E+03 -0.10121190064E+04  0.18602199177E+04  0.22882133994E+04  0.65864270000E+03 0.  0.
    8880022    1    1    2    0    0  0.56330039008E+03  0.10121190064E+04 -0.40345831683E+03  0.12360673440E+04  0.15294330000E+03 0.  0.
<mgrwt>
<rscale>  0 0.12894081E+04</rscale>
<asrwt>0</asrwt>
<pdfrwt beam="1">  1        2 0.15903994E+00 0.13324798E+04</pdfrwt>
<pdfrwt beam="2">  1       -2 0.38315710E+00 0.13324798E+04</pdfrwt>
<totfact> 0.22161084E-01</totfact>
</mgrwt>
</event>
<event>
 4    5  0.2473208E-007  0.1400916E+04  0.7818608E-02  0.8982971E-01
          2   -1    0    0  501    0  0.00000000000E+00  0.00000000000E+00  0.29297146443E+04  0.29297146443E+04  0.25500000000E-02 0. -1.
         -2   -1    0    0    0  501 -0.00000000000E+00 -0.00000000000E+00 -0.82503123216E+03  0.82503123216E+03  0.25500000000E-02 0.  1.
    8880023    1    1    2    0    0  0.10006785298E+04  0.72622136337E+03  0.11295360478E+03  0.14054620990E+04  0.65864270000E+03 0.  0.
    8880022    1    1    2    0    0 -0.10006785298E+04 -0.72622136337E+03  0.19917298073E+04  0.23492837774E+04  0.15294330000E+03 0.  0.
<mgrwt>
<rscale>  0 0.13604282E+04</rscale>
<asrwt>0</asrwt>
<pdfrwt beam="1">  1        2 0.45072534E+00 0.14009158E+04</pdfrwt>
<pdfrwt beam="2">  1       -2 0.12692788E+00 0.14009158E+04</pdfrwt>
<totfact> 0.85432140E-01</totfact>
</mgrwt>
</event>
<event>
 4    5  0.2473208E-007  0.1518441E+04  0.7818608E-02  0.8896722E-01
          2   -1    0    0  501    0  0.00000000000E+00  0.00000000000E+00  0.22640313832E+04  0.22640313832E+04  0.25500000000E-02 0. -1.
         -2   -1    0    0    0  501 -0.00000000000E+00 -0.00000000000E+00 -0.14188431392E+04  0.14188431392E+04  0.25500000000E-02 0.  1.
    8880023    1    1    2    0    0 -0.10330597652E+04 -0.89701808948E+03 -0.64886054202E+03  0.16512674346E+04  0.65864270000E+03 0.  0.
    8880022    1    1    2    0    0  0.10330597652E+04  0.89701808948E+03  0.14940487859E+04  0.20316070878E+04  0.15294330000E+03 0.  0.
<mgrwt>
<rscale>  0 0.14816878E+04</rscale>
<asrwt>0</asrwt>
<pdfrwt beam="1">  1        2 0.34831251E+00 0.15184414E+04</pdfrwt>
<pdfrwt beam="2">  1       -2 0.21828356E+00 0.15184414E+04</pdfrwt>
<totfact> 0.45084981E-01</totfact>
</mgrwt>
</event>
<event>
 4    5  0.2473208E-007  0.1374026E+04  0.7818608E-02  0.9004133E-01
         -2   -1    0    0    0  501 -0.00000000000E+00  0.00000000000E+00  0.12005360680E+04  0.12005360680E+04  0.25500000000E-02 0.  1.
          2   -1    0    0  501    0  0.00000000000E+00 -0.00000000000E+00 -0.14881892588E+04  0.14881892588E+04  0.25500000000E-02 0. -1.
    8880023    1    1    2    0    0  0.10715578175E+04 -0.55308333153E+03  0.18115548744E+03  0.13859166081E+04  0.65864270000E+03 0.  0.
    8880022    1    1    2    0    0 -0.10715578175E+04  0.55308333153E+03 -0.46880867820E+03  0.13028087187E+04  0.15294330000E+03 0.  0.
<mgrwt>
<rscale>  0 0.13325644E+04</rscale>
<asrwt>0</asrwt>
<pdfrwt beam="1">  1        2 0.22895219E+00 0.13740260E+04</pdfrwt>
<pdfrwt beam="2">  1       -2 0.18469786E+00 0.13740260E+04</pdfrwt>
<totfact> 0.20703316E+00</totfact>
</mgrwt>
</event>
<event>
 4    5  0.2473208E-007  0.1036296E+04  0.7818608E-02  0.9335540E-01
         -2   -1    0    0    0  501 -0.00000000000E+00  0.00000000000E+00  0.74320279908E+03  0.74320279909E+03  0.25500000000E-02 0.  1.
          2   -1    0    0  501    0  0.00000000000E+00 -0.00000000000E+00 -0.18974776844E+04  0.18974776844E+04  0.25500000000E-02 0. -1.
    8880023    1    1    2    0    0 -0.79863021234E+03 -0.47841122601E+02  0.20466871066E+03  0.10563136260E+04  0.65864270000E+03 0.  0.
    8880022    1    1    2    0    0  0.79863021234E+03  0.47841122601E+02 -0.13589435960E+04  0.15843668575E+04  0.15294330000E+03 0.  0.
<mgrwt>
<rscale>  0 0.97575815E+03</rscale>
<asrwt>0</asrwt>
<pdfrwt beam="1">  1        2 0.29191964E+00 0.10362959E+04</pdfrwt>
<pdfrwt beam="2">  1       -2 0.11433889E+00 0.10362959E+04</pdfrwt>
<totfact> 0.45274740E+00</totfact>
</mgrwt>
</event>
<event>
 4    5  0.2473208E-007  0.1495009E+04  0.7818608E-02  0.8913168E-01
         -2   -1    0    0    0  501 -0.00000000000E+00  0.00000000000E+00  0.24423410021E+04  0.24423410021E+04  0.25500000000E-02 0.  1.
          2   -1    0    0  501    0  0.00000000000E+00 -0.00000000000E+00 -0.20169629273E+04  0.20169629273E+04  0.25500000000E-02 0. -1.
    8880023    1    1    2    0    0 -0.12735816772E+04  0.42335649876E+03  0.19273888220E+04  0.24392373584E+04  0.65864270000E+03 0.  0.
    8880022    1    1    2    0    0  0.12735816772E+04 -0.42335649876E+03 -0.15020107472E+04  0.20200665710E+04  0.15294330000E+03 0.  0.
<mgrwt>
<rscale>  0 0.14575711E+04</rscale>
<asrwt>0</asrwt>
<pdfrwt beam="1">  1        2 0.31030199E+00 0.14950088E+04</pdfrwt>
<pdfrwt beam="2">  1       -2 0.37574477E+00 0.14950088E+04</pdfrwt>
<totfact> 0.65563012E-02</totfact>
</mgrwt>
</event>
<event>
 4    5  0.2473208E-007  0.1160811E+04  0.7818608E-02  0.9196191E-01
         -2   -1    0    0    0  501 -0.00000000000E+00  0.00000000000E+00  0.14900137437E+04  0.14900137437E+04  0.25500000000E-02 0.  1.
          2   -1    0    0  501    0  0.00000000000E+00 -0.00000000000E+00 -0.21877075392E+04  0.21877075392E+04  0.25500000000E-02 0. -1.
    8880023    1    1    2    0    0  0.16019821718E+03  0.94234199898E+03  0.11233589051E+04  0.16153691057E+04  0.65864270000E+03 0.  1.
    8880022    1    1    2    0    0 -0.16019821718E+03 -0.94234199898E+03 -0.18210527006E+04  0.20623521773E+04  0.15294330000E+03 0.  0.
<mgrwt>
<rscale>  0 0.11092828E+04</rscale>
<asrwt>0</asrwt>
<pdfrwt beam="1">  1        2 0.33657039E+00 0.11608110E+04</pdfrwt>
<pdfrwt beam="2">  1       -2 0.22923288E+00 0.11608110E+04</pdfrwt>
<totfact> 0.44393011E-01</totfact>
</mgrwt>
</event>
<event>
 4    5  0.2473208E-007  0.8860854E+03  0.7818608E-02  0.9548749E-01
         -2   -1    0    0    0  501 -0.00000000000E+00  0.00000000000E+00  0.14215371125E+04  0.14215371125E+04  0.25500000000E-02 0.  1.
          2   -1    0    0  501    0  0.00000000000E+00 -0.00000000000E+00 -0.39535633341E+03  0.39535633342E+03  0.25500000000E-02 0. -1.
    8880023    1    1    2    0    0 -0.15796292949E+03 -0.57130095675E+03  0.64120504591E+03  0.10937509714E+04  0.65864270000E+03 0. -1.
    8880022    1    1    2    0    0  0.15796292949E+03  0.57130095675E+03  0.38497573315E+03  0.72314247449E+03  0.15294330000E+03 0.  1.
<mgrwt>
<rscale>  0 0.80783245E+03</rscale>
<asrwt>0</asrwt>
<pdfrwt beam="1">  1        2 0.60824052E-01 0.88608537E+03</pdfrwt>
<pdfrwt beam="2">  1       -2 0.21869801E+00 0.88608537E+03</pdfrwt>
<totfact> 0.81806752E+00</totfact>
</mgrwt>
</event>
<event>
 4    5  0.3073701E-007  0.1311394E+04  0.7818608E-02  0.9055783E-01
         -2   -1    0    0    0  501 -0.00000000000E+00  0.00000000000E+00  0.15305130392E+04  0.15305130392E+04  0.25500000000E-02 0.  1.
          2   -1    0    0  501    0  0.00000000000E+00 -0.00000000000E+00 -0.20318026692E+04  0.20318026692E+04  0.25500000000E-02 0. -1.
    8880023    1    1    2    0    0 -0.56155068702E+03  0.98519216254E+03  0.10181271679E+04  0.16602216441E+04  0.65864270000E+03 0.  1.
    8880022    1    1    2    0    0  0.56155068702E+03 -0.98519216254E+03 -0.15194167979E+04  0.19020940644E+04  0.15294330000E+03 0.  0.
<mgrwt>
<rscale>  0 0.12674508E+04</rscale>
<asrwt>0</asrwt>
<pdfrwt beam="1">  1        2 0.31258503E+00 0.13113935E+04</pdfrwt>
<pdfrwt beam="2">  1       -2 0.23546354E+00 0.13113935E+04</pdfrwt>
<totfact> 0.48588695E-01</totfact>
</mgrwt>
</event>
<event>
 4    5  0.2473208E-007  0.1007772E+04  0.7818608E-02  0.9371459E-01
         -2   -1    0    0    0  501 -0.00000000000E+00  0.00000000000E+00  0.17443224310E+04  0.17443224310E+04  0.25500000000E-02 0.  1.
          2   -1    0    0  501    0  0.00000000000E+00 -0.00000000000E+00 -0.11296670553E+04  0.11296670554E+04  0.25500000000E-02 0. -1.
    8880023    1    1    2    0    0 -0.59168396931E+03  0.48135699623E+03  0.14284607630E+04  0.17481718551E+04  0.65864270000E+03 0.  1.
    8880022    1    1    2    0    0  0.59168396931E+03 -0.48135699623E+03 -0.81380538734E+03  0.11258176312E+04  0.15294330000E+03 0.  0.
<mgrwt>
<rscale>  0 0.94462162E+03</rscale>
<asrwt>0</asrwt>
<pdfrwt beam="1">  1        2 0.17379493E+00 0.10077721E+04</pdfrwt>
<pdfrwt beam="2">  1       -2 0.26835730E+00 0.10077721E+04</pdfrwt>
<totfact> 0.10342176E+00</totfact>
</mgrwt>
</event>
<event>
 4    5  0.2473208E-007  0.1319373E+04  0.7818608E-02  0.9049008E-01
         -2   -1    0    0    0  501 -0.00000000000E+00  0.00000000000E+00  0.15165339363E+04  0.15165339363E+04  0.25500000000E-02 0.  1.
          2   -1    0    0  501    0  0.00000000000E+00 -0.00000000000E+00 -0.11475261452E+04  0.11475261452E+04  0.25500000000E-02 0. -1.
    8880023    1    1    2    0    0  0.56268421865E+03 -0.99514922561E+03  0.65895349678E+03  0.14747763994E+04  0.65864270000E+03 0. -1.
    8880022    1    1    2    0    0 -0.56268421865E+03  0.99514922561E+03 -0.28994570575E+03  0.11892836821E+04  0.15294330000E+03 0.  0.
<mgrwt>
<rscale>  0 0.12757646E+04</rscale>
<asrwt>0</asrwt>
<pdfrwt beam="1">  1        2 0.17654249E+00 0.13193732E+04</pdfrwt>
<pdfrwt beam="2">  1       -2 0.23331291E+00 0.13193732E+04</pdfrwt>
<totfact> 0.15952569E+00</totfact>
</mgrwt>
</event>
<event>
 4    5  0.2473208E-007  0.7728521E+03  0.7818608E-02  0.9772904E-01
          2   -1    0    0  501    0  0.00000000000E+00  0.00000000000E+00  0.27970475971E+04  0.27970475971E+04  0.25500000000E-02 0. -1.
         -2   -1    0    0    0  501 -0.00000000000E+00 -0.00000000000E+00 -0.38734857779E+03  0.38734857779E+03  0.25500000000E-02 0.  1.
    8880023    1    1    2    0    0  0.36952569975E+02 -0.40264706173E+03  0.38176506083E+02  0.77379441755E+03  0.65864270000E+03 0.  1.
    8880022    1    1    2    0    0 -0.36952569975E+02  0.40264706173E+03  0.23715225132E+04  0.24106017573E+04  0.15294330000E+03 0.  0.
<mgrwt>
<rscale>  0 0.66837187E+03</rscale>
<asrwt>0</asrwt>
<pdfrwt beam="1">  1        2 0.43031502E+00 0.77285209E+03</pdfrwt>
<pdfrwt beam="2">  1       -2 0.59592088E-01 0.77285209E+03</pdfrwt>
<totfact> 0.64324279E+00</totfact>
</mgrwt>
</event>
<event>
 4    5  0.2473208E-007  0.9011910E+03  0.7818608E-02  0.9524122E-01
         -2   -1    0    0    0  501 -0.00000000000E+00  0.00000000000E+00  0.67964198525E+03  0.67964198525E+03  0.25500000000E-02 0.  1.
          2   -1    0    0  501    0  0.00000000000E+00 -0.00000000000E+00 -0.13612980965E+04  0.13612980965E+04  0.25500000000E-02 0. -1.
    8880023    1    1    2    0    0  0.55950252686E+03 -0.25552274600E+03  0.23049331830E+03  0.93020015444E+03  0.65864270000E+03 0.  1.
    8880022    1    1    2    0    0 -0.55950252686E+03  0.25552274600E+03 -0.91214942956E+03  0.11107399273E+04  0.15294330000E+03 0.  0.
<mgrwt>
<rscale>  0 0.82528499E+03</rscale>
<asrwt>0</asrwt>
<pdfrwt beam="1">  1        2 0.20943048E+00 0.90119097E+03</pdfrwt>
<pdfrwt beam="2">  1       -2 0.10456031E+00 0.90119097E+03</pdfrwt>
<totfact> 0.11357995E+01</totfact>
</mgrwt>
</event>
<event>
 4    5  0.2473208E-007  0.1031426E+04  0.7818608E-02  0.9341550E-01
          2   -1    0    0  501    0  0.00000000000E+00  0.00000000000E+00  0.22560562559E+04  0.22560562559E+04  0.25500000000E-02 0. -1.
         -2   -1    0    0    0  501 -0.00000000000E+00 -0.00000000000E+00 -0.54795981559E+03  0.54795981560E+03  0.25500000000E-02 0.  1.
    8880023    1    1    2    0    0  0.40861568508E+03  0.68048696783E+03  0.14139668377E+03  0.10410727736E+04  0.65864270000E+03 0.  0.
    8880022    1    1    2    0    0 -0.40861568508E+03 -0.68048696783E+03  0.15666997565E+04  0.17629432979E+04  0.15294330000E+03 0.  0.
<mgrwt>
<rscale>  0 0.97046007E+03</rscale>
<asrwt>0</asrwt>
<pdfrwt beam="1">  1        2 0.34708558E+00 0.10314260E+04</pdfrwt>
<pdfrwt beam="2">  1       -2 0.84301509E-01 0.10314260E+04</pdfrwt>
<totfact> 0.59045679E+00</totfact>
</mgrwt>
</event>
<event>
 4    5  0.2473208E-007  0.1063784E+04  0.7818608E-02  0.9302492E-01
          2   -1    0    0  501    0  0.00000000000E+00  0.00000000000E+00  0.17144925934E+04  0.17144925934E+04  0.25500000000E-02 0. -1.
         -2   -1    0    0    0  501 -0.00000000000E+00 -0.00000000000E+00 -0.65269168665E+03  0.65269168665E+03  0.25500000000E-02 0.  1.
    8880023    1    1    2    0    0 -0.11498342125E+03 -0.82740886410E+03  0.10824682014E+04  0.15176871314E+04  0.65864270000E+03 0.  0.
    8880022    1    1    2    0    0  0.11498342125E+03  0.82740886410E+03 -0.20667294582E+02  0.84949714869E+03  0.15294330000E+03 0.  0.
<mgrwt>
<rscale>  0 0.10055380E+04</rscale>
<asrwt>0</asrwt>
<pdfrwt beam="1">  1        2 0.26376810E+00 0.10637842E+04</pdfrwt>
<pdfrwt beam="2">  1       -2 0.10041410E+00 0.10637842E+04</pdfrwt>
<totfact> 0.77990567E+00</totfact>
</mgrwt>
</event>
<event>
 4    5  0.3361132E-007  0.9096128E+03  0.7818608E-02  0.9510773E-01
         -2   -1    0    0    0  501 -0.00000000000E+00  0.00000000000E+00  0.90973628960E+03  0.90973628960E+03  0.25500000000E-02 0.  1.
          2   -1    0    0  501    0  0.00000000000E+00 -0.00000000000E+00 -0.31765187922E+04  0.31765187922E+04  0.25500000000E-02 0. -1.
    8880023    1    1    2    0    0  0.51001766233E+03 -0.36533157357E+03  0.63768431333E+03  0.11108720288E+04  0.65864270000E+03 0.  1.
    8880022    1    1    2    0    0 -0.51001766233E+03  0.36533157357E+03 -0.29044668159E+04  0.29753830531E+04  0.15294330000E+03 0.  0.
<mgrwt>
<rscale>  0 0.83494218E+03</rscale>
<asrwt>0</asrwt>
<pdfrwt beam="1">  1        2 0.48869519E+00 0.90961276E+03</pdfrwt>
<pdfrwt beam="2">  1       -2 0.13995943E+00 0.90961276E+03</pdfrwt>
<totfact> 0.50169515E-01</totfact>
</mgrwt>
</event>
<event>
 4    5  0.2473208E-007  0.9038072E+03  0.7818608E-02  0.9519947E-01
         -2   -1    0    0    0  501 -0.00000000000E+00  0.00000000000E+00  0.21586880894E+04  0.21586880894E+04  0.25500000000E-02 0.  1.
          2   -1    0    0  501    0  0.00000000000E+00 -0.00000000000E+00 -0.81006542105E+03  0.81006542106E+03  0.25500000000E-02 0. -1.
    8880023    1    1    2    0    0  0.25845989618E+03 -0.56236623642E+03  0.19139840000E+04  0.21166488278E+04  0.65864270000E+03 0.  1.
    8880022    1    1    2    0    0 -0.25845989618E+03  0.56236623642E+03 -0.56536133167E+03  0.85210468263E+03  0.15294330000E+03 0.  0.
<mgrwt>
<rscale>  0 0.82829037E+03</rscale>
<asrwt>0</asrwt>
<pdfrwt beam="1">  1        2 0.12462545E+00 0.90380723E+03</pdfrwt>
<pdfrwt beam="2">  1       -2 0.33210585E+00 0.90380723E+03</pdfrwt>
<totfact> 0.69883684E-01</totfact>
</mgrwt>
</event>
<event>
 4    5  0.2473208E-007  0.1179323E+04  0.7818608E-02  0.9177489E-01
          2   -1    0    0  501    0  0.00000000000E+00  0.00000000000E+00  0.11147446034E+04  0.11147446034E+04  0.25500000000E-02 0. -1.
         -2   -1    0    0    0  501 -0.00000000000E+00 -0.00000000000E+00 -0.15683374813E+04  0.15683374813E+04  0.25500000000E-02 0.  1.
    8880023    1    1    2    0    0 -0.76056298747E+03  0.61525280101E+03 -0.10052583030E+04  0.15496278680E+04  0.65864270000E+03 0.  0.
    8880022    1    1    2    0    0  0.76056298747E+03 -0.61525280101E+03  0.55166542518E+03  0.11334542167E+04  0.15294330000E+03 0.  0.
<mgrwt>
<rscale>  0 0.11288833E+04</rscale>
<asrwt>0</asrwt>
<pdfrwt beam="1">  1        2 0.17149917E+00 0.11793228E+04</pdfrwt>
<pdfrwt beam="2">  1       -2 0.24128269E+00 0.11793228E+04</pdfrwt>
<totfact> 0.15128524E+00</totfact>
</mgrwt>
</event>
<event>
 4    5  0.2473208E-007  0.6645900E+03  0.7818608E-02  0.1019880E+00
         -2   -1    0    0    0  501 -0.00000000000E+00  0.00000000000E+00  0.11015382998E+04  0.11015382998E+04  0.25500000000E-02 0.  1.
          2   -1    0    0  501    0  0.00000000000E+00 -0.00000000000E+00 -0.19397167849E+04  0.19397167849E+04  0.25500000000E-02 0. -1.
    8880023    1    1    2    0    0 -0.73061165407E+02  0.50316847720E+02  0.99665888864E+03  0.11979185555E+04  0.65864270000E+03 0.  1.
    8880022    1    1    2    0    0  0.73061165407E+02 -0.50316847720E+02 -0.18348373738E+04  0.18433365293E+04  0.15294330000E+03 0.  0.
<mgrwt>
<rscale>  0 0.47729994E+03</rscale>
<asrwt>0</asrwt>
<pdfrwt beam="1">  1        2 0.29841797E+00 0.66459004E+03</pdfrwt>
<pdfrwt beam="2">  1       -2 0.16946743E+00 0.66459004E+03</pdfrwt>
<totfact> 0.16391885E+00</totfact>
</mgrwt>
</event>
<event>
 4    5  0.2647574E-007  0.7148378E+03  0.7818608E-02  0.9940457E-01
          2   -1    0    0  501    0  0.00000000000E+00  0.00000000000E+00  0.31475745005E+04  0.31475745005E+04  0.25500000000E-02 0. -1.
         -2   -1    0    0    0  501 -0.00000000000E+00 -0.00000000000E+00 -0.67201223443E+03  0.67201223444E+03  0.25500000000E-02 0.  1.
    8880023    1    1    2    0    0 -0.25340885996E+03 -0.11387191016E+03 -0.47096756862E+03  0.85603943787E+03  0.65864270000E+03 0.  1.
    8880022    1    1    2    0    0  0.25340885996E+03  0.11387191016E+03  0.29465298347E+04  0.29635472970E+04  0.15294330000E+03 0.  0.
<mgrwt>
<rscale>  0 0.58340026E+03</rscale>
<asrwt>0</asrwt>
<pdfrwt beam="1">  1        2 0.48424224E+00 0.71483779E+03</pdfrwt>
<pdfrwt beam="2">  1       -2 0.10338650E+00 0.71483779E+03</pdfrwt>
<totfact> 0.11581454E+00</totfact>
</mgrwt>
</event>
<event>
 4    5  0.2473208E-007  0.6955272E+03  0.7818608E-02  0.1001629E+00
          2   -1    0    0  501    0  0.00000000000E+00  0.00000000000E+00  0.49608041589E+03  0.49608041589E+03  0.25500000000E-02 0. -1.
         -2   -1    0    0    0  501 -0.00000000000E+00 -0.00000000000E+00 -0.88124837912E+03  0.88124837912E+03  0.25500000000E-02 0.  1.
    8880023    1    1    2    0    0  0.51797120168E+02 -0.21740498079E+03 -0.68298363323E+03  0.97479470498E+03  0.65864270000E+03 0.  1.
    8880022    1    1    2    0    0 -0.51797120168E+02  0.21740498079E+03  0.29781567000E+03  0.40253409004E+03  0.15294330000E+03 0.  0.
<mgrwt>
<rscale>  0 0.54941795E+03</rscale>
<asrwt>0</asrwt>
<pdfrwt beam="1">  1        2 0.76320064E-01 0.69552719E+03</pdfrwt>
<pdfrwt beam="2">  1       -2 0.13557667E+00 0.69552719E+03</pdfrwt>
<totfact> 0.24674837E+01</totfact>
</mgrwt>
</event>
<event>
 4    5  0.2473208E-007  0.1169991E+04  0.7818608E-02  0.9186859E-01
         -2   -1    0    0    0  501 -0.00000000000E+00  0.00000000000E+00  0.12008559897E+04  0.12008559897E+04  0.25500000000E-02 0.  1.
          2   -1    0    0  501    0  0.00000000000E+00 -0.00000000000E+00 -0.12185215674E+04  0.12185215674E+04  0.25500000000E-02 0. -1.
    8880023    1    1    2    0    0  0.95891550929E+03  0.12470340029E+03  0.54445137638E+03  0.12904678995E+04  0.65864270000E+03 0.  1.
    8880022    1    1    2    0    0 -0.95891550929E+03 -0.12470340029E+03 -0.56211695410E+03  0.11289096576E+04  0.15294330000E+03 0.  0.
<mgrwt>
<rscale>  0 0.11190097E+04</rscale>
<asrwt>0</asrwt>
<pdfrwt beam="1">  1        2 0.18746486E+00 0.11699915E+04</pdfrwt>
<pdfrwt beam="2">  1       -2 0.18474707E+00 0.11699915E+04</pdfrwt>
<totfact> 0.30252813E+00</totfact>
</mgrwt>
</event>
<event>
 4    5  0.2473208E-007  0.6726305E+03  0.7818608E-02  0.1013843E+00
          2   -1    0    0  501    0  0.00000000000E+00  0.00000000000E+00  0.30447884050E+03  0.30447884051E+03  0.25500000000E-02 0. -1.
         -2   -1    0    0    0  501 -0.00000000000E+00 -0.00000000000E+00 -0.15649925149E+04  0.15649925149E+04  0.25500000000E-02 0.  1.
    8880023    1    1    2    0    0  0.13449269512E+03  0.23094442843E+02 -0.14448866203E+04  0.15937782751E+04  0.65864270000E+03 0.  1.
    8880022    1    1    2    0    0 -0.13449269512E+03 -0.23094442843E+02  0.18437294592E+03  0.27569308031E+03  0.15294330000E+03 0.  0.
<mgrwt>
<rscale>  0 0.49975342E+03</rscale>
<asrwt>0</asrwt>
<pdfrwt beam="1">  1        2 0.46842899E-01 0.67263054E+03</pdfrwt>
<pdfrwt beam="2">  1       -2 0.24076808E+00 0.67263054E+03</pdfrwt>
<totfact> 0.81852285E+00</totfact>
</mgrwt>
</event>
<event>
 4    5  0.2473208E-007  0.8475887E+03  0.7818608E-02  0.9616034E-01
          2   -1    0    0  501    0  0.00000000000E+00  0.00000000000E+00  0.31249656491E+03  0.31249656492E+03  0.25500000000E-02 0. -1.
         -2   -1    0    0    0  501 -0.00000000000E+00 -0.00000000000E+00 -0.22162586464E+04  0.22162586464E+04  0.25500000000E-02 0.  1.
    8880023    1    1    2    0    0 -0.50618610745E+03 -0.16844018360E+03 -0.17630788296E+04  0.19562345556E+04  0.65864270000E+03 0.  1.
    8880022    1    1    2    0    0  0.50618610745E+03  0.16844018360E+03 -0.14068325183E+03  0.57252065568E+03  0.15294330000E+03 0.  0.
<mgrwt>
<rscale>  0 0.76243993E+03</rscale>
<asrwt>0</asrwt>
<pdfrwt beam="1">  1        2 0.48076396E-01 0.84758874E+03</pdfrwt>
<pdfrwt beam="2">  1       -2 0.34096286E+00 0.84758874E+03</pdfrwt>
<totfact> 0.19257315E+00</totfact>
</mgrwt>
</event>
<event>
 4    5  0.2473208E-007  0.1058129E+04  0.7818608E-02  0.9309173E-01
         -2   -1    0    0    0  501 -0.00000000000E+00  0.00000000000E+00  0.15568801538E+04  0.15568801538E+04  0.25500000000E-02 0.  1.
          2   -1    0    0  501    0  0.00000000000E+00 -0.00000000000E+00 -0.72469866342E+03  0.72469866342E+03  0.25500000000E-02 0. -1.
    8880023    1    1    2    0    0 -0.48315099125E+03 -0.67260048075E+03  0.96129392659E+03  0.14295882297E+04  0.65864270000E+03 0.  0.
    8880022    1    1    2    0    0  0.48315099125E+03  0.67260048075E+03 -0.12911243617E+03  0.85199058753E+03  0.15294330000E+03 0.  0.
<mgrwt>
<rscale>  0 0.99942764E+03</rscale>
<asrwt>0</asrwt>
<pdfrwt beam="1">  1        2 0.11149210E+00 0.10581288E+04</pdfrwt>
<pdfrwt beam="2">  1       -2 0.23952002E+00 0.10581288E+04</pdfrwt>
<totfact> 0.28962256E+00</totfact>
</mgrwt>
</event>
<event>
 4    5  0.2473208E-007  0.7928856E+03  0.7818608E-02  0.9726395E-01
         -2   -1    0    0    0  501 -0.00000000000E+00  0.00000000000E+00  0.57889311308E+03  0.57889311309E+03  0.25500000000E-02 0.  1.
          2   -1    0    0  501    0  0.00000000000E+00 -0.00000000000E+00 -0.71440361726E+03  0.71440361727E+03  0.25500000000E-02 0. -1.
    8880023    1    1    2    0    0  0.43989423262E+03 -0.36749063781E+02 -0.20999977115E+03  0.82022407897E+03  0.65864270000E+03 0. -1.
    8880022    1    1    2    0    0 -0.43989423262E+03  0.36749063781E+02  0.74489266973E+02  0.47307265138E+03  0.15294330000E+03 0.  0.
<mgrwt>
<rscale>  0 0.69466748E+03</rscale>
<asrwt>0</asrwt>
<pdfrwt beam="1">  1        2 0.10990825E+00 0.79288564E+03</pdfrwt>
<pdfrwt beam="2">  1       -2 0.89060479E-01 0.79288564E+03</pdfrwt>
<totfact> 0.43652221E+01</totfact>
</mgrwt>
</event>
<event>
 4    5  0.2473208E-007  0.7912221E+03  0.7818608E-02  0.9730107E-01
         -2   -1    0    0    0  501 -0.00000000000E+00  0.00000000000E+00  0.83419589256E+03  0.83419589256E+03  0.25500000000E-02 0.  1.
          2   -1    0    0  501    0  0.00000000000E+00 -0.00000000000E+00 -0.10072467397E+04  0.10072467397E+04  0.25500000000E-02 0. -1.
    8880023    1    1    2    0    0  0.12197809136E+03  0.42112179800E+03  0.56305716462E+03  0.97111575027E+03  0.65864270000E+03 0.  1.
    8880022    1    1    2    0    0 -0.12197809136E+03 -0.42112179800E+03 -0.73610801176E+03  0.87032688199E+03  0.15294330000E+03 0.  0.
<mgrwt>
<rscale>  0 0.69252172E+03</rscale>
<asrwt>0</asrwt>
<pdfrwt beam="1">  1        2 0.15496104E+00 0.79122211E+03</pdfrwt>
<pdfrwt beam="2">  1       -2 0.12833783E+00 0.79122211E+03</pdfrwt>
<totfact> 0.11321856E+01</totfact>
</mgrwt>
</event>
<event>
 4    5  0.2473208E-007  0.8555057E+03  0.7818608E-02  0.9601609E-01
         -2   -1    0    0    0  501 -0.00000000000E+00  0.00000000000E+00  0.21033286862E+04  0.21033286862E+04  0.25500000000E-02 0.  1.
          2   -1    0    0  501    0  0.00000000000E+00 -0.00000000000E+00 -0.63609084402E+03  0.63609084403E+03  0.25500000000E-02 0. -1.
    8880023    1    1    2    0    0  0.19733337926E+03 -0.50905721573E+03  0.18616042219E+04  0.20487704110E+04  0.65864270000E+03 0.  1.
    8880022    1    1    2    0    0 -0.19733337926E+03  0.50905721573E+03 -0.39436637976E+03  0.69064911927E+03  0.15294330000E+03 0.  0.
<mgrwt>
<rscale>  0 0.77189806E+03</rscale>
<asrwt>0</asrwt>
<pdfrwt beam="1">  1        2 0.97860129E-01 0.85550565E+03</pdfrwt>
<pdfrwt beam="2">  1       -2 0.32358903E+00 0.85550565E+03</pdfrwt>
<totfact> 0.10825228E+00</totfact>
</mgrwt>
</event>
<event>
 4    5  0.2473208E-007  0.1156438E+04  0.7818608E-02  0.9200677E-01
          2   -1    0    0  501    0  0.00000000000E+00  0.00000000000E+00  0.27121644561E+04  0.27121644561E+04  0.25500000000E-02 0. -1.
         -2   -1    0    0    0  501 -0.00000000000E+00 -0.00000000000E+00 -0.45186102883E+03  0.45186102884E+03  0.25500000000E-02 0.  1.
    8880023    1    1    2    0    0  0.17314546716E+02 -0.95038848848E+03  0.76842834197E+03  0.13884633217E+04  0.65864270000E+03 0.  1.
    8880022    1    1    2    0    0 -0.17314546716E+02  0.95038848848E+03  0.14918750853E+04  0.17755621633E+04  0.15294330000E+03 0.  0.
<mgrwt>
<rscale>  0 0.11046445E+04</rscale>
<asrwt>0</asrwt>
<pdfrwt beam="1">  1        2 0.41725607E+00 0.11564378E+04</pdfrwt>
<pdfrwt beam="2">  1       -2 0.69517082E-01 0.11564378E+04</pdfrwt>
<totfact> 0.49069390E+00</totfact>
</mgrwt>
</event>
<event>
 4    5  0.2473208E-007  0.7211284E+03  0.7818608E-02  0.9918786E-01
          2   -1    0    0  501    0  0.00000000000E+00  0.00000000000E+00  0.68887659202E+03  0.68887659203E+03  0.25500000000E-02 0. -1.
         -2   -1    0    0    0  501 -0.00000000000E+00 -0.00000000000E+00 -0.10168255867E+04  0.10168255867E+04  0.25500000000E-02 0.  1.
    8880023    1    1    2    0    0 -0.29131005972E+03 -0.36801496079E+02 -0.83302087651E+03  0.11017939408E+04  0.65864270000E+03 0.  1.
    8880022    1    1    2    0    0  0.29131005972E+03  0.36801496079E+02  0.50507188183E+03  0.60390823793E+03  0.15294330000E+03 0.  0.
<mgrwt>
<rscale>  0 0.59359398E+03</rscale>
<asrwt>0</asrwt>
<pdfrwt beam="1">  1        2 0.10598101E+00 0.72112836E+03</pdfrwt>
<pdfrwt beam="2">  1       -2 0.15643471E+00 0.72112836E+03</pdfrwt>
<totfact> 0.11407372E+01</totfact>
</mgrwt>
</event>
<event>
 4    5  0.2473208E-007  0.7261481E+03  0.7818608E-02  0.9902307E-01
          2   -1    0    0  501    0  0.00000000000E+00  0.00000000000E+00  0.75845163365E+03  0.75845163365E+03  0.25500000000E-02 0. -1.
         -2   -1    0    0    0  501 -0.00000000000E+00 -0.00000000000E+00 -0.86624696211E+03  0.86624696211E+03  0.25500000000E-02 0.  1.
    8880023    1    1    2    0    0  0.30338746430E+03 -0.37906811126E+02 -0.65603204014E+03  0.97860570394E+03  0.65864270000E+03 0.  1.
    8880022    1    1    2    0    0 -0.30338746430E+03  0.37906811126E+02  0.54823671168E+03  0.64609289183E+03  0.15294330000E+03 0.  0.
<mgrwt>
<rscale>  0 0.60149631E+03</rscale>
<asrwt>0</asrwt>
<pdfrwt beam="1">  1        2 0.11668487E+00 0.72614812E+03</pdfrwt>
<pdfrwt beam="2">  1       -2 0.13326876E+00 0.72614812E+03</pdfrwt>
<totfact> 0.15328963E+01</totfact>
</mgrwt>
</event>
<event>
 4    5  0.2473208E-007  0.7152805E+03  0.7818608E-02  0.9938891E-01
          2   -1    0    0  501    0  0.00000000000E+00  0.00000000000E+00  0.24084198413E+04  0.24084198413E+04  0.25500000000E-02 0. -1.
         -2   -1    0    0    0  501 -0.00000000000E+00 -0.00000000000E+00 -0.27826236449E+03  0.27826236450E+03  0.25500000000E-02 0.  1.
    8880023    1    1    2    0    0  0.57495031347E+02  0.27296576571E+03  0.21731305270E+03  0.74756348026E+03  0.65864270000E+03 0.  1.
    8880022    1    1    2    0    0 -0.57495031347E+02 -0.27296576571E+03  0.19128444241E+04  0.19391187255E+04  0.15294330000E+03 0.  0.
<mgrwt>
<rscale>  0 0.58412925E+03</rscale>
<asrwt>0</asrwt>
<pdfrwt beam="1">  1        2 0.37052611E+00 0.71528050E+03</pdfrwt>
<pdfrwt beam="2">  1       -2 0.42809597E-01 0.71528050E+03</pdfrwt>
<totfact> 0.21328572E+01</totfact>
</mgrwt>
</event>
<event>
 4    5  0.2473208E-007  0.9309837E+03  0.7818608E-02  0.9478019E-01
          2   -1    0    0  501    0  0.00000000000E+00  0.00000000000E+00  0.10716049665E+04  0.10716049665E+04  0.25500000000E-02 0. -1.
         -2   -1    0    0    0  501 -0.00000000000E+00 -0.00000000000E+00 -0.12078677816E+04  0.12078677816E+04  0.25500000000E-02 0.  1.
    8880023    1    1    2    0    0 -0.24752333823E+03  0.60963324769E+03 -0.87557207449E+03  0.12780286239E+04  0.65864270000E+03 0.  0.
    8880022    1    1    2    0    0  0.24752333823E+03 -0.60963324769E+03  0.73930925941E+03  0.10014441241E+04  0.15294330000E+03 0.  0.
<mgrwt>
<rscale>  0 0.85923968E+03</rscale>
<asrwt>0</asrwt>
<pdfrwt beam="1">  1        2 0.16486230E+00 0.93098373E+03</pdfrwt>
<pdfrwt beam="2">  1       -2 0.18582581E+00 0.93098373E+03</pdfrwt>
<totfact> 0.37498424E+00</totfact>
</mgrwt>
</event>
<event>
 4    5  0.2473208E-007  0.8527310E+03  0.7818608E-02  0.9606627E-01
         -2   -1    0    0    0  501 -0.00000000000E+00  0.00000000000E+00  0.18075131099E+03  0.18075131101E+03  0.25500000000E-02 0.  1.
          2   -1    0    0  501    0  0.00000000000E+00 -0.00000000000E+00 -0.40555192727E+04  0.40555192727E+04  0.25500000000E-02 0. -1.
    8880023    1    1    2    0    0 -0.51454601937E+03  0.16906308077E+03 -0.10338655865E+04  0.13401597623E+04  0.65864270000E+03 0.  1.
    8880022    1    1    2    0    0  0.51454601937E+03 -0.16906308077E+03 -0.28409023752E+04  0.28961108214E+04  0.15294330000E+03 0.  0.
<mgrwt>
<rscale>  0 0.76859128E+03</rscale>
<asrwt>0</asrwt>
<pdfrwt beam="1">  1        2 0.62392597E+00 0.85273099E+03</pdfrwt>
<pdfrwt beam="2">  1       -2 0.27807897E-01 0.85273099E+03</pdfrwt>
<totfact> 0.39436369E+00</totfact>
</mgrwt>
</event>
<event>
 4    5  0.2473208E-007  0.1799851E+04  0.7818608E-02  0.8722619E-01
          2   -1    0    0  501    0  0.00000000000E+00  0.00000000000E+00  0.23378127432E+04  0.23378127432E+04  0.25500000000E-02 0. -1.
         -2   -1    0    0    0  501 -0.00000000000E+00 -0.00000000000E+00 -0.20425623859E+04  0.20425623859E+04  0.25500000000E-02 0.  1.
    8880023    1    1    2    0    0  0.15812279907E+04 -0.55260538518E+03 -0.11724686751E+04  0.21480567196E+04  0.65864270000E+03 0.  0.
    8880022    1    1    2    0    0 -0.15812279907E+04  0.55260538518E+03  0.14677190324E+04  0.22323184095E+04  0.15294330000E+03 0.  0.
<mgrwt>
<rscale>  0 0.17696301E+04</rscale>
<asrwt>0</asrwt>
<pdfrwt beam="1">  1        2 0.35966350E+00 0.17998513E+04</pdfrwt>
<pdfrwt beam="2">  1       -2 0.31424037E+00 0.17998513E+04</pdfrwt>
<totfact> 0.10149397E-01</totfact>
</mgrwt>
</event>
<event>
 4    5  0.2473208E-007  0.1000356E+04  0.7818608E-02  0.9381092E-01
         -2   -1    0    0    0  501 -0.00000000000E+00  0.00000000000E+00  0.57744791651E+03  0.57744791652E+03  0.25500000000E-02 0.  1.
          2   -1    0    0  501    0  0.00000000000E+00 -0.00000000000E+00 -0.29060747547E+04  0.29060747547E+04  0.25500000000E-02 0. -1.
    8880023    1    1    2    0    0  0.70095383713E+03 -0.27489139081E+03  0.32148424310E+02  0.10008722626E+04  0.65864270000E+03 0.  0.
    8880022    1    1    2    0    0 -0.70095383713E+03  0.27489139081E+03 -0.23607752625E+04  0.24826504087E+04  0.15294330000E+03 0.  0.
<mgrwt>
<rscale>  0 0.93648182E+03</rscale>
<asrwt>0</asrwt>
<pdfrwt beam="1">  1        2 0.44708841E+00 0.10003558E+04</pdfrwt>
<pdfrwt beam="2">  1       -2 0.88838143E-01 0.10003558E+04</pdfrwt>
<totfact> 0.22083781E+00</totfact>
</mgrwt>
</event>
<event>
 4    5  0.2473208E-007  0.1972224E+04  0.7818608E-02  0.8632812E-01
          2   -1    0    0  501    0  0.00000000000E+00  0.00000000000E+00  0.22281453398E+04  0.22281453398E+04  0.25500000000E-02 0. -1.
         -2   -1    0    0    0  501 -0.00000000000E+00 -0.00000000000E+00 -0.26223652483E+04  0.26223652483E+04  0.25500000000E-02 0.  1.
    8880023    1    1    2    0    0  0.44806622009E+03  0.18041877092E+04 -0.16752644766E+04  0.25876974129E+04  0.65864270000E+03 0.  0.
    8880022    1    1    2    0    0 -0.44806622009E+03 -0.18041877092E+04  0.12810445681E+04  0.22628131753E+04  0.15294330000E+03 0.  0.
<mgrwt>
<rscale>  0 0.19449249E+04</rscale>
<asrwt>0</asrwt>
<pdfrwt beam="1">  1        2 0.34279159E+00 0.19722238E+04</pdfrwt>
<pdfrwt beam="2">  1       -2 0.40344081E+00 0.19722238E+04</pdfrwt>
<totfact> 0.31093548E-02</totfact>
</mgrwt>
</event>
<event>
 4    5  0.2473208E-007  0.1114746E+04  0.7818608E-02  0.9244814E-01
          2   -1    0    0  501    0  0.00000000000E+00  0.00000000000E+00  0.10267009453E+04  0.10267009453E+04  0.25500000000E-02 0. -1.
         -2   -1    0    0    0  501 -0.00000000000E+00 -0.00000000000E+00 -0.13035810378E+04  0.13035810378E+04  0.25500000000E-02 0.  1.
    8880023    1    1    2    0    0 -0.87875315301E+03 -0.19141648884E+03 -0.70872067684E+03  0.13209627475E+04  0.65864270000E+03 0.  0.
    8880022    1    1    2    0    0  0.87875315301E+03  0.19141648884E+03  0.43184058438E+03  0.10093192356E+04  0.15294330000E+03 0.  0.
<mgrwt>
<rscale>  0 0.10602611E+04</rscale>
<asrwt>0</asrwt>
<pdfrwt beam="1">  1        2 0.15795399E+00 0.11147455E+04</pdfrwt>
<pdfrwt beam="2">  1       -2 0.20055093E+00 0.11147455E+04</pdfrwt>
<totfact> 0.31312672E+00</totfact>
</mgrwt>
</event>
<event>
 4    5  0.2473208E-007  0.8698759E+03  0.7818608E-02  0.9576232E-01
         -2   -1    0    0    0  501 -0.00000000000E+00  0.00000000000E+00  0.21870230188E+03  0.21870230190E+03  0.25500000000E-02 0.  1.
          2   -1    0    0  501    0  0.00000000000E+00 -0.00000000000E+00 -0.37049230586E+04  0.37049230586E+04  0.25500000000E-02 0. -1.
    8880023    1    1    2    0    0 -0.28029706543E+03 -0.49427463194E+03 -0.82762429733E+03  0.12006856543E+04  0.65864270000E+03 0. -1.
    8880022    1    1    2    0    0  0.28029706543E+03  0.49427463194E+03 -0.26585964594E+04  0.27229397062E+04  0.15294330000E+03 0.  0.
<mgrwt>
<rscale>  0 0.78889486E+03</rscale>
<asrwt>0</asrwt>
<pdfrwt beam="1">  1        2 0.56998812E+00 0.86987589E+03</pdfrwt>
<pdfrwt beam="2">  1       -2 0.33646511E-01 0.86987589E+03</pdfrwt>
<totfact> 0.50971982E+00</totfact>
</mgrwt>
</event>
<event>
 4    5  0.2473208E-007  0.7458120E+03  0.7818608E-02  0.9843329E-01
         -2   -1    0    0    0  501 -0.00000000000E+00  0.00000000000E+00  0.58746145326E+03  0.58746145327E+03  0.25500000000E-02 0.  1.
          2   -1    0    0  501    0  0.00000000000E+00 -0.00000000000E+00 -0.78643977567E+03  0.78643977568E+03  0.25500000000E-02 0. -1.
    8880023    1    1    2    0    0  0.21128479656E+03 -0.27889808501E+03  0.24805007781E+03  0.78597993260E+03  0.65864270000E+03 0.  0.
    8880022    1    1    2    0    0 -0.21128479656E+03  0.27889808501E+03 -0.44702840022E+03  0.58792129635E+03  0.15294330000E+03 0.  0.
<mgrwt>
<rscale>  0 0.63088193E+03</rscale>
<asrwt>0</asrwt>
<pdfrwt beam="1">  1        2 0.12099074E+00 0.74581205E+03</pdfrwt>
<pdfrwt beam="2">  1       -2 0.90378685E-01 0.74581205E+03</pdfrwt>
<totfact> 0.37403816E+01</totfact>
</mgrwt>
</event>
<event>
 4    5  0.2473208E-007  0.1680074E+04  0.7818608E-02  0.8791947E-01
         -2   -1    0    0    0  501 -0.00000000000E+00  0.00000000000E+00  0.28066740280E+04  0.28066740280E+04  0.25500000000E-02 0.  1.
          2   -1    0    0  501    0  0.00000000000E+00 -0.00000000000E+00 -0.10450553855E+04  0.10450553855E+04  0.25500000000E-02 0. -1.
    8880023    1    1    2    0    0 -0.89532059390E+03  0.12598575445E+04  0.15470175056E+04  0.22838374213E+04  0.65864270000E+03 0.  0.
    8880022    1    1    2    0    0  0.89532059390E+03 -0.12598575445E+04  0.21460113697E+03  0.15678919922E+04  0.15294330000E+03 0.  0.
<mgrwt>
<rscale>  0 0.16473989E+04</rscale>
<asrwt>0</asrwt>
<pdfrwt beam="1">  1        2 0.16077776E+00 0.16800745E+04</pdfrwt>
<pdfrwt beam="2">  1       -2 0.43179599E+00 0.16800745E+04</pdfrwt>
<totfact> 0.10043228E-01</totfact>
</mgrwt>
</event>
<event>
 4    5  0.2473208E-007  0.6923832E+03  0.7818608E-02  0.1003040E+00
          2   -1    0    0  501    0  0.00000000000E+00  0.00000000000E+00  0.28207372874E+04  0.28207372874E+04  0.25500000000E-02 0. -1.
         -2   -1    0    0    0  501 -0.00000000000E+00 -0.00000000000E+00 -0.36156557956E+03  0.36156557957E+03  0.25500000000E-02 0.  1.
    8880023    1    1    2    0    0 -0.19645222158E+03 -0.83611303907E+02 -0.16656696132E+02  0.69258355257E+03  0.65864270000E+03 0.  1.
    8880022    1    1    2    0    0  0.19645222158E+03  0.83611303907E+02  0.24758284039E+04  0.24897193144E+04  0.15294330000E+03 0.  0.
<mgrwt>
<rscale>  0 0.54337185E+03</rscale>
<asrwt>0</asrwt>
<pdfrwt beam="1">  1        2 0.43395959E+00 0.69238323E+03</pdfrwt>
<pdfrwt beam="2">  1       -2 0.55625473E-01 0.69238323E+03</pdfrwt>
<totfact> 0.73032532E+00</totfact>
</mgrwt>
</event>
<event>
 4    5  0.2473208E-007  0.7194836E+03  0.7818608E-02  0.9924337E-01
         -2   -1    0    0    0  501 -0.00000000000E+00  0.00000000000E+00  0.11300764467E+04  0.11300764467E+04  0.25500000000E-02 0.  1.
          2   -1    0    0  501    0  0.00000000000E+00 -0.00000000000E+00 -0.46003133866E+03  0.46003133867E+03  0.25500000000E-02 0. -1.
    8880023    1    1    2    0    0  0.11023853412E+00  0.28956246590E+03  0.92728962563E+03  0.11736791256E+04  0.65864270000E+03 0.  0.
    8880022    1    1    2    0    0 -0.11023853412E+00 -0.28956246590E+03 -0.25724451761E+03  0.41642865975E+03  0.15294330000E+03 0. -1.
<mgrwt>
<rscale>  0 0.59096166E+03</rscale>
<asrwt>0</asrwt>
<pdfrwt beam="1">  1        2 0.70774053E-01 0.71948359E+03</pdfrwt>
<pdfrwt beam="2">  1       -2 0.17385791E+00 0.71948359E+03</pdfrwt>
<totfact> 0.13824134E+01</totfact>
</mgrwt>
</event>
<event>
 4    5  0.2473208E-007  0.7861956E+03  0.7818608E-02  0.9741480E-01
          2   -1    0    0  501    0  0.00000000000E+00  0.00000000000E+00  0.72635748017E+03  0.72635748017E+03  0.25500000000E-02 0. -1.
         -2   -1    0    0    0  501 -0.00000000000E+00 -0.00000000000E+00 -0.12461702036E+04  0.12461702036E+04  0.25500000000E-02 0.  1.
    8880023    1    1    2    0    0  0.37280909421E+03  0.21285377316E+03 -0.10252395444E+04  0.12919828478E+04  0.65864270000E+03 0.  1.
    8880022    1    1    2    0    0 -0.37280909421E+03 -0.21285377316E+03  0.50542682090E+03  0.68054483598E+03  0.15294330000E+03 0.  0.
<mgrwt>
<rscale>  0 0.68599920E+03</rscale>
<asrwt>0</asrwt>
<pdfrwt beam="1">  1        2 0.11174730E+00 0.78619562E+03</pdfrwt>
<pdfrwt beam="2">  1       -2 0.19171849E+00 0.78619562E+03</pdfrwt>
<totfact> 0.59908360E+00</totfact>
</mgrwt>
</event>
<event>
 4    5  0.2473208E-007  0.1037450E+04  0.7818608E-02  0.9334123E-01
          2   -1    0    0  501    0  0.00000000000E+00  0.00000000000E+00  0.17180624224E+04  0.17180624224E+04  0.25500000000E-02 0. -1.
         -2   -1    0    0    0  501 -0.00000000000E+00 -0.00000000000E+00 -0.64028573341E+03  0.64028573341E+03  0.25500000000E-02 0.  1.
    8880023    1    1    2    0    0  0.34326990497E+03 -0.72433247601E+03  0.40064373219E+02  0.10382230607E+04  0.65864270000E+03 0.  0.
    8880022    1    1    2    0    0 -0.34326990497E+03  0.72433247601E+03  0.10377123158E+04  0.13201250951E+04  0.15294330000E+03 0.  0.
<mgrwt>
<rscale>  0 0.97701240E+03</rscale>
<asrwt>0</asrwt>
<pdfrwt beam="1">  1        2 0.26431729E+00 0.10374497E+04</pdfrwt>
<pdfrwt beam="2">  1       -2 0.98505498E-01 0.10374497E+04</pdfrwt>
<totfact> 0.81480394E+00</totfact>
</mgrwt>
</event>
<event>
 4    5  0.2473208E-007  0.1689864E+04  0.7818608E-02  0.8786038E-01
         -2   -1    0    0    0  501 -0.00000000000E+00  0.00000000000E+00  0.12744206352E+04  0.12744206352E+04  0.25500000000E-02 0.  1.
          2   -1    0    0  501    0  0.00000000000E+00 -0.00000000000E+00 -0.38537753113E+04  0.38537753113E+04  0.25500000000E-02 0. -1.
    8880023    1    1    2    0    0  0.11521094775E+04  0.10461707750E+04  0.42390946406E+03  0.17422224252E+04  0.65864270000E+03 0.  0.
    8880022    1    1    2    0    0 -0.11521094775E+04 -0.10461707750E+04 -0.30032641401E+04  0.33859735213E+04  0.15294330000E+03 0.  0.
<mgrwt>
<rscale>  0 0.16574046E+04</rscale>
<asrwt>0</asrwt>
<pdfrwt beam="1">  1        2 0.59288851E+00 0.16898638E+04</pdfrwt>
<pdfrwt beam="2">  1       -2 0.19606471E+00 0.16898638E+04</pdfrwt>
<totfact> 0.58595482E-02</totfact>
</mgrwt>
</event>
<event>
 4    5  0.2473208E-007  0.8565778E+03  0.7818608E-02  0.9599680E-01
          2   -1    0    0  501    0  0.00000000000E+00  0.00000000000E+00  0.22405448163E+04  0.22405448163E+04  0.25500000000E-02 0. -1.
         -2   -1    0    0    0  501 -0.00000000000E+00 -0.00000000000E+00 -0.41900116817E+03  0.41900116818E+03  0.25500000000E-02 0.  1.
    8880023    1    1    2    0    0 -0.27675797147E+03 -0.47256775988E+03  0.11929689976E+03  0.86484519945E+03  0.65864270000E+03 0.  0.
    8880022    1    1    2    0    0  0.27675797147E+03  0.47256775988E+03  0.17022467483E+04  0.17947007850E+04  0.15294330000E+03 0.  0.
<mgrwt>
<rscale>  0 0.77317352E+03</rscale>
<asrwt>0</asrwt>
<pdfrwt beam="1">  1        2 0.34469919E+00 0.85657777E+03</pdfrwt>
<pdfrwt beam="2">  1       -2 0.64461720E-01 0.85657777E+03</pdfrwt>
<totfact> 0.11161952E+01</totfact>
</mgrwt>
</event>
<event>
 4    5  0.2473208E-007  0.1098795E+04  0.7818608E-02  0.9262399E-01
         -2   -1    0    0    0  501 -0.00000000000E+00  0.00000000000E+00  0.69036015226E+03  0.69036015227E+03  0.25500000000E-02 0.  1.
          2   -1    0    0  501    0  0.00000000000E+00 -0.00000000000E+00 -0.22822512025E+04  0.22822512025E+04  0.25500000000E-02 0. -1.
    8880023    1    1    2    0    0  0.67387798794E+03  0.56517949446E+03  0.54095732230E+02  0.11001254283E+04  0.65864270000E+03 0.  0.
    8880022    1    1    2    0    0 -0.67387798794E+03 -0.56517949446E+03 -0.16459867825E+04  0.18724859264E+04  0.15294330000E+03 0.  0.
<mgrwt>
<rscale>  0 0.10431938E+04</rscale>
<asrwt>0</asrwt>
<pdfrwt beam="1">  1        2 0.35111557E+00 0.10987946E+04</pdfrwt>
<pdfrwt beam="2">  1       -2 0.10620926E+00 0.10987946E+04</pdfrwt>
<totfact> 0.32906420E+00</totfact>
</mgrwt>
</event>
<event>
 4    5  0.2473208E-007  0.7496196E+03  0.7818608E-02  0.9832763E-01
         -2   -1    0    0    0  501 -0.00000000000E+00  0.00000000000E+00  0.47977790414E+03  0.47977790415E+03  0.25500000000E-02 0.  1.
          2   -1    0    0  501    0  0.00000000000E+00 -0.00000000000E+00 -0.18644102353E+04  0.18644102353E+04  0.25500000000E-02 0. -1.
    8880023    1    1    2    0    0 -0.33557601709E+03  0.12453135355E+03  0.14697595419E+03  0.76389230827E+03  0.65864270000E+03 0.  1.
    8880022    1    1    2    0    0  0.33557601709E+03 -0.12453135355E+03 -0.15316082854E+04  0.15802958312E+04  0.15294330000E+03 0.  0.
<mgrwt>
<rscale>  0 0.63633558E+03</rscale>
<asrwt>0</asrwt>
<pdfrwt beam="1">  1        2 0.28683234E+00 0.74961959E+03</pdfrwt>
<pdfrwt beam="2">  1       -2 0.73811986E-01 0.74961959E+03</pdfrwt>
<totfact> 0.13565910E+01</totfact>
</mgrwt>
</event>
<event>
 4    5  0.2473208E-007  0.1256009E+04  0.7818608E-02  0.9104511E-01
          2   -1    0    0  501    0  0.00000000000E+00  0.00000000000E+00  0.11902745827E+04  0.11902745827E+04  0.25500000000E-02 0. -1.
         -2   -1    0    0    0  501 -0.00000000000E+00 -0.00000000000E+00 -0.12731134560E+04  0.12731134560E+04  0.25500000000E-02 0.  1.
    8880023    1    1    2    0    0  0.10471618396E+04 -0.21725738783E+03  0.34323197465E+03  0.13020626273E+04  0.65864270000E+03 0.  0.
    8880022    1    1    2    0    0 -0.10471618396E+04  0.21725738783E+03 -0.42607084792E+03  0.11613254114E+04  0.15294330000E+03 0.  0.
<mgrwt>
<rscale>  0 0.12095811E+04</rscale>
<asrwt>0</asrwt>
<pdfrwt beam="1">  1        2 0.18311917E+00 0.12560091E+04</pdfrwt>
<pdfrwt beam="2">  1       -2 0.19586361E+00 0.12560091E+04</pdfrwt>
<totfact> 0.26264618E+00</totfact>
</mgrwt>
</event>
<event>
 4    5  0.2473208E-007  0.7983917E+03  0.7818608E-02  0.9714284E-01
         -2   -1    0    0    0  501 -0.00000000000E+00  0.00000000000E+00  0.78023220988E+03  0.78023220988E+03  0.25500000000E-02 0.  1.
          2   -1    0    0  501    0  0.00000000000E+00 -0.00000000000E+00 -0.72291138577E+03  0.72291138577E+03  0.25500000000E-02 0. -1.
    8880023    1    1    2    0    0 -0.18534979987E+02 -0.45086086515E+03  0.42207860286E+03  0.90309446818E+03  0.65864270000E+03 0.  0.
    8880022    1    1    2    0    0  0.18534979987E+02  0.45086086515E+03 -0.36475777875E+03  0.60004912747E+03  0.15294330000E+03 0. -1.
<mgrwt>
<rscale>  0 0.70172637E+03</rscale>
<asrwt>0</asrwt>
<pdfrwt beam="1">  1        2 0.11121714E+00 0.79839168E+03</pdfrwt>
<pdfrwt beam="2">  1       -2 0.12003572E+00 0.79839168E+03</pdfrwt>
<totfact> 0.21064347E+01</totfact>
</mgrwt>
</event>
<event>
 4    5  0.2473208E-007  0.9052339E+03  0.7818608E-02  0.9517681E-01
         -2   -1    0    0    0  501 -0.00000000000E+00  0.00000000000E+00  0.11460140335E+04  0.11460140335E+04  0.25500000000E-02 0.  1.
          2   -1    0    0  501    0  0.00000000000E+00 -0.00000000000E+00 -0.91166378630E+03  0.91166378631E+03  0.25500000000E-02 0. -1.
    8880023    1    1    2    0    0 -0.31784652569E+03  0.53349020905E+03  0.79681966591E+03  0.12059726379E+04  0.65864270000E+03 0.  1.
    8880022    1    1    2    0    0  0.31784652569E+03 -0.53349020905E+03 -0.56246941867E+03  0.85170518198E+03  0.15294330000E+03 0.  0.
<mgrwt>
<rscale>  0 0.82992718E+03</rscale>
<asrwt>0</asrwt>
<pdfrwt beam="1">  1        2 0.14025597E+00 0.90523391E+03</pdfrwt>
<pdfrwt beam="2">  1       -2 0.17630985E+00 0.90523391E+03</pdfrwt>
<totfact> 0.55455725E+00</totfact>
</mgrwt>
</event>
<event>
 4    5  0.2473208E-007  0.6942254E+03  0.7818608E-02  0.1002206E+00
          2   -1    0    0  501    0  0.00000000000E+00  0.00000000000E+00  0.17406299824E+04  0.17406299824E+04  0.25500000000E-02 0. -1.
         -2   -1    0    0    0  501 -0.00000000000E+00 -0.00000000000E+00 -0.13553022529E+03  0.13553022531E+03  0.25500000000E-02 0.  1.
    8880023    1    1    2    0    0  0.19009685978E+03 -0.10955338720E+03  0.10326325231E+04  0.12442985554E+04  0.65864270000E+03 0.  0.
    8880022    1    1    2    0    0 -0.19009685978E+03  0.10955338720E+03  0.57246723401E+03  0.63186165240E+03  0.15294330000E+03 0.  1.
<mgrwt>
<rscale>  0 0.54693629E+03</rscale>
<asrwt>0</asrwt>
<pdfrwt beam="1">  1        2 0.26778922E+00 0.69422544E+03</pdfrwt>
<pdfrwt beam="2">  1       -2 0.20850804E-01 0.69422544E+03</pdfrwt>
<totfact> 0.18900328E+02</totfact>
</mgrwt>
</event>
<event>
 4    5  0.2473208E-007  0.1257851E+04  0.7818608E-02  0.9102840E-01
          2   -1    0    0  501    0  0.00000000000E+00  0.00000000000E+00  0.18944924690E+04  0.18944924690E+04  0.25500000000E-02 0. -1.
         -2   -1    0    0    0  501 -0.00000000000E+00 -0.00000000000E+00 -0.79692919850E+03  0.79692919851E+03  0.25500000000E-02 0.  1.
    8880023    1    1    2    0    0  0.60524311646E+03  0.88434153045E+03  0.17662650469E+03  0.12701914426E+04  0.65864270000E+03 0.  0.
    8880022    1    1    2    0    0 -0.60524311646E+03 -0.88434153045E+03  0.92093676584E+03  0.14212302249E+04  0.15294330000E+03 0.  0.
<mgrwt>
<rscale>  0 0.12115107E+04</rscale>
<asrwt>0</asrwt>
<pdfrwt beam="1">  1        2 0.29146038E+00 0.12578511E+04</pdfrwt>
<pdfrwt beam="2">  1       -2 0.12260449E+00 0.12578511E+04</pdfrwt>
<totfact> 0.37327246E+00</totfact>
</mgrwt>
</event>
<event>
 4    5  0.2473208E-007  0.7350677E+03  0.7818608E-02  0.9874554E-01
         -2   -1    0    0    0  501 -0.00000000000E+00  0.00000000000E+00  0.42205958336E+03  0.42205958337E+03  0.25500000000E-02 0.  1.
          2   -1    0    0  501    0  0.00000000000E+00 -0.00000000000E+00 -0.25873304260E+04  0.25873304260E+04  0.25500000000E-02 0. -1.
    8880023    1    1    2    0    0 -0.51449334134E+02  0.32228454682E+03  0.76309558616E+02  0.73901807698E+03  0.65864270000E+03 0.  1.
    8880022    1    1    2    0    0  0.51449334134E+02 -0.32228454682E+03 -0.22415804013E+04  0.22703719324E+04  0.15294330000E+03 0.  0.
<mgrwt>
<rscale>  0 0.61510489E+03</rscale>
<asrwt>0</asrwt>
<pdfrwt beam="1">  1        2 0.39805083E+00 0.73506773E+03</pdfrwt>
<pdfrwt beam="2">  1       -2 0.64932245E-01 0.73506773E+03</pdfrwt>
<totfact> 0.71441802E+00</totfact>
</mgrwt>
</event>
<event>
 4    5  0.2473208E-007  0.7821161E+03  0.7818608E-02  0.9750890E-01
         -2   -1    0    0    0  501 -0.00000000000E+00  0.00000000000E+00  0.63463692090E+03  0.63463692090E+03  0.25500000000E-02 0.  1.
          2   -1    0    0  501    0  0.00000000000E+00 -0.00000000000E+00 -0.71506742731E+03  0.71506742731E+03  0.25500000000E-02 0. -1.
    8880023    1    1    2    0    0  0.36360058099E+03  0.21375207642E+03  0.21670311242E+03  0.81158226808E+03  0.65864270000E+03 0.  1.
    8880022    1    1    2    0    0 -0.36360058099E+03 -0.21375207642E+03 -0.29713361883E+03  0.53812208013E+03  0.15294330000E+03 0.  0.
<mgrwt>
<rscale>  0 0.68066022E+03</rscale>
<asrwt>0</asrwt>
<pdfrwt beam="1">  1        2 0.11001037E+00 0.78211606E+03</pdfrwt>
<pdfrwt beam="2">  1       -2 0.97636449E-01 0.78211606E+03</pdfrwt>
<totfact> 0.35227075E+01</totfact>
</mgrwt>
</event>
<event>
 4    5  0.2473208E-007  0.1406805E+04  0.7818608E-02  0.8978413E-01
         -2   -1    0    0    0  501 -0.00000000000E+00  0.00000000000E+00  0.14764617591E+04  0.14764617591E+04  0.25500000000E-02 0.  1.
          2   -1    0    0  501    0  0.00000000000E+00 -0.00000000000E+00 -0.15603467334E+04  0.15603467334E+04  0.25500000000E-02 0. -1.
    8880023    1    1    2    0    0  0.89275604603E+03 -0.86502976873E+03  0.68754396948E+03  0.15658278241E+04  0.65864270000E+03 0. -1.
    8880022    1    1    2    0    0 -0.89275604603E+03  0.86502976873E+03 -0.77142894384E+03  0.14709806684E+04  0.15294330000E+03 0.  0.
<mgrwt>
<rscale>  0 0.13665240E+04</rscale>
<asrwt>0</asrwt>
<pdfrwt beam="1">  1        2 0.24005334E+00 0.14068049E+04</pdfrwt>
<pdfrwt beam="2">  1       -2 0.22714796E+00 0.14068049E+04</pdfrwt>
<totfact> 0.99237969E-01</totfact>
</mgrwt>
</event>
<event>
 4    5  0.2473208E-007  0.6728917E+03  0.7818608E-02  0.1013669E+00
          2   -1    0    0  501    0  0.00000000000E+00  0.00000000000E+00  0.16495724703E+04  0.16495724703E+04  0.25500000000E-02 0. -1.
         -2   -1    0    0    0  501 -0.00000000000E+00 -0.00000000000E+00 -0.81255274223E+03  0.81255274223E+03  0.25500000000E-02 0.  1.
    8880023    1    1    2    0    0 -0.13165797870E+03 -0.40486816080E+02 -0.66501167555E+03  0.94605694359E+03  0.65864270000E+03 0.  1.
    8880022    1    1    2    0    0  0.13165797870E+03  0.40486816080E+02  0.15020314036E+04  0.15160682690E+04  0.15294330000E+03 0.  0.
<mgrwt>
<rscale>  0 0.50041962E+03</rscale>
<asrwt>0</asrwt>
<pdfrwt beam="1">  1        2 0.25378038E+00 0.67289168E+03</pdfrwt>
<pdfrwt beam="2">  1       -2 0.12500812E+00 0.67289168E+03</pdfrwt>
<totfact> 0.52233701E+00</totfact>
</mgrwt>
</event>
<event>
 4    5  0.2473208E-007  0.7617619E+03  0.7818608E-02  0.9800567E-01
         -2   -1    0    0    0  501 -0.00000000000E+00  0.00000000000E+00  0.82239169043E+03  0.82239169044E+03  0.25500000000E-02 0.  1.
          2   -1    0    0  501    0  0.00000000000E+00 -0.00000000000E+00 -0.23914952225E+04  0.23914952225E+04  0.25500000000E-02 0. -1.
    8880023    1    1    2    0    0 -0.36702510257E+03  0.10846001475E+03  0.62256507663E+03  0.98380307055E+03  0.65864270000E+03 0.  1.
    8880022    1    1    2    0    0  0.36702510257E+03 -0.10846001475E+03 -0.21916686087E+04  0.22300838424E+04  0.15294330000E+03 0.  0.
<mgrwt>
<rscale>  0 0.65332109E+03</rscale>
<asrwt>0</asrwt>
<pdfrwt beam="1">  1        2 0.36792234E+00 0.76176191E+03</pdfrwt>
<pdfrwt beam="2">  1       -2 0.12652180E+00 0.76176191E+03</pdfrwt>
<totfact> 0.19546576E+00</totfact>
</mgrwt>
</event>
<event>
 4    5  0.2473208E-007  0.9859432E+03  0.7818608E-02  0.9400184E-01
          2   -1    0    0  501    0  0.00000000000E+00  0.00000000000E+00  0.84516415485E+03  0.84516415486E+03  0.25500000000E-02 0. -1.
         -2   -1    0    0    0  501 -0.00000000000E+00 -0.00000000000E+00 -0.11783294131E+04  0.11783294131E+04  0.25500000000E-02 0.  1.
    8880023    1    1    2    0    0  0.65829380110E+01  0.73364185247E+03  0.31249453733E+03  0.10342807863E+04  0.65864270000E+03 0.  0.
    8880022    1    1    2    0    0 -0.65829380110E+01 -0.73364185247E+03 -0.64565979558E+03  0.98921278166E+03  0.15294330000E+03 0.  0.
<mgrwt>
<rscale>  0 0.92060560E+03</rscale>
<asrwt>0</asrwt>
<pdfrwt beam="1">  1        2 0.13002525E+00 0.98594316E+03</pdfrwt>
<pdfrwt beam="2">  1       -2 0.18128145E+00 0.98594316E+03</pdfrwt>
<totfact> 0.56445409E+00</totfact>
</mgrwt>
</event>
<event>
 4    5  0.2473208E-007  0.1564698E+04  0.7818608E-02  0.8865252E-01
         -2   -1    0    0    0  501 -0.00000000000E+00  0.00000000000E+00  0.63211106979E+03  0.63211106979E+03  0.25500000000E-02 0.  1.
          2   -1    0    0  501    0  0.00000000000E+00 -0.00000000000E+00 -0.37869668159E+04  0.37869668159E+04  0.25500000000E-02 0. -1.
    8880023    1    1    2    0    0 -0.63665036712E+03  0.12685213934E+04 -0.22074856568E+04  0.27057851627E+04  0.65864270000E+03 0.  0.
    8880022    1    1    2    0    0  0.63665036712E+03 -0.12685213934E+04 -0.94737008929E+03  0.17132927230E+04  0.15294330000E+03 0.  0.
<mgrwt>
<rscale>  0 0.15292193E+04</rscale>
<asrwt>0</asrwt>
<pdfrwt beam="1">  1        2 0.58261027E+00 0.15646982E+04</pdfrwt>
<pdfrwt beam="2">  1       -2 0.97247859E-01 0.15646982E+04</pdfrwt>
<totfact> 0.42526121E-01</totfact>
</mgrwt>
</event>
<event>
 4    5  0.2473208E-007  0.1158792E+04  0.7818608E-02  0.9198259E-01
          2   -1    0    0  501    0  0.00000000000E+00  0.00000000000E+00  0.17495849566E+04  0.17495849566E+04  0.25500000000E-02 0. -1.
         -2   -1    0    0    0  501 -0.00000000000E+00 -0.00000000000E+00 -0.13733282870E+04  0.13733282870E+04  0.25500000000E-02 0.  1.
    8880023    1    1    2    0    0 -0.41451273886E+02 -0.95250774299E+03 -0.93884734908E+03  0.14913865226E+04  0.65864270000E+03 0.  0.
    8880022    1    1    2    0    0  0.41451273886E+02  0.95250774299E+03  0.13151040187E+04  0.16315267210E+04  0.15294330000E+03 0.  0.
<mgrwt>
<rscale>  0 0.11071421E+04</rscale>
<asrwt>0</asrwt>
<pdfrwt beam="1">  1        2 0.26916692E+00 0.11587922E+04</pdfrwt>
<pdfrwt beam="2">  1       -2 0.21128127E+00 0.11587922E+04</pdfrwt>
<totfact> 0.10085418E+00</totfact>
</mgrwt>
</event>
<event>
 4    5  0.2473208E-007  0.7470930E+03  0.7818608E-02  0.9839747E-01
          2   -1    0    0  501    0  0.00000000000E+00  0.00000000000E+00  0.37377199864E+04  0.37377199864E+04  0.25500000000E-02 0. -1.
         -2   -1    0    0    0  501 -0.00000000000E+00 -0.00000000000E+00 -0.18147613785E+03  0.18147613787E+03  0.25500000000E-02 0.  1.
    8880023    1    1    2    0    0 -0.37248666595E+02 -0.35064268910E+03  0.65790535020E+03  0.99548350799E+03  0.65864270000E+03 0.  1.
    8880022    1    1    2    0    0  0.37248666595E+02  0.35064268910E+03  0.28983384984E+04  0.29237126163E+04  0.15294330000E+03 0.  0.
<mgrwt>
<rscale>  0 0.63272410E+03</rscale>
<asrwt>0</asrwt>
<pdfrwt beam="1">  1        2 0.57503380E+00 0.74709301E+03</pdfrwt>
<pdfrwt beam="2">  1       -2 0.27919408E-01 0.74709301E+03</pdfrwt>
<totfact> 0.69977361E+00</totfact>
</mgrwt>
</event>
<event>
 4    5  0.2762143E-007  0.1031622E+04  0.7818608E-02  0.9341308E-01
         -2   -1    0    0    0  501 -0.00000000000E+00  0.00000000000E+00  0.13522348734E+04  0.13522348734E+04  0.25500000000E-02 0.  1.
          2   -1    0    0  501    0  0.00000000000E+00 -0.00000000000E+00 -0.20396693758E+04  0.20396693758E+04  0.25500000000E-02 0. -1.
    8880023    1    1    2    0    0  0.45764732057E+02 -0.79267862001E+03  0.10521846122E+04  0.14735455438E+04  0.65864270000E+03 0.  1.
    8880022    1    1    2    0    0 -0.45764732057E+02  0.79267862001E+03 -0.17396191146E+04  0.19183587053E+04  0.15294330000E+03 0.  0.
<mgrwt>
<rscale>  0 0.97067352E+03</rscale>
<asrwt>0</asrwt>
<pdfrwt beam="1">  1        2 0.31379529E+00 0.10316220E+04</pdfrwt>
<pdfrwt beam="2">  1       -2 0.20803613E+00 0.10316220E+04</pdfrwt>
<totfact> 0.74470165E-01</totfact>
</mgrwt>
</event>
<event>
 4    5  0.2473208E-007  0.9439855E+03  0.7818608E-02  0.9458821E-01
         -2   -1    0    0    0  501 -0.00000000000E+00  0.00000000000E+00  0.13343190744E+04  0.13343190744E+04  0.25500000000E-02 0.  1.
          2   -1    0    0  501    0  0.00000000000E+00 -0.00000000000E+00 -0.10417856576E+04  0.10417856576E+04  0.25500000000E-02 0. -1.
    8880023    1    1    2    0    0  0.66585344898E+03  0.11805800431E+03  0.10071822189E+04  0.13804074530E+04  0.65864270000E+03 0.  1.
    8880022    1    1    2    0    0 -0.66585344898E+03 -0.11805800431E+03 -0.71464880216E+03  0.99569727896E+03  0.15294330000E+03 0.  0.
<mgrwt>
<rscale>  0 0.87389079E+03</rscale>
<asrwt>0</asrwt>
<pdfrwt beam="1">  1        2 0.16027472E+00 0.94398555E+03</pdfrwt>
<pdfrwt beam="2">  1       -2 0.20527986E+00 0.94398555E+03</pdfrwt>
<totfact> 0.29072236E+00</totfact>
</mgrwt>
</event>
<event>
 4    5  0.2473208E-007  0.7891336E+03  0.7818608E-02  0.9734804E-01
         -2   -1    0    0    0  501 -0.00000000000E+00  0.00000000000E+00  0.72760111313E+03  0.72760111313E+03  0.25500000000E-02 0.  1.
          2   -1    0    0  501    0  0.00000000000E+00 -0.00000000000E+00 -0.10222746753E+04  0.10222746753E+04  0.25500000000E-02 0. -1.
    8880023    1    1    2    0    0 -0.67391005915E+02 -0.42939500841E+03  0.42426384209E+03  0.89595292002E+03  0.65864270000E+03 0.  0.
    8880022    1    1    2    0    0  0.67391005915E+02  0.42939500841E+03 -0.71893740424E+03  0.85392286839E+03  0.15294330000E+03 0.  0.
<mgrwt>
<rscale>  0 0.68981882E+03</rscale>
<asrwt>0</asrwt>
<pdfrwt beam="1">  1        2 0.15727303E+00 0.78913359E+03</pdfrwt>
<pdfrwt beam="2">  1       -2 0.11193863E+00 0.78913359E+03</pdfrwt>
<totfact> 0.15545467E+01</totfact>
</mgrwt>
</event>
<event>
 4    5  0.2473208E-007  0.7506841E+03  0.7818608E-02  0.9829851E-01
         -2   -1    0    0    0  501 -0.00000000000E+00  0.00000000000E+00  0.13949947051E+03  0.13949947054E+03  0.25500000000E-02 0.  1.
          2   -1    0    0  501    0  0.00000000000E+00 -0.00000000000E+00 -0.29359309667E+04  0.29359309667E+04  0.25500000000E-02 0. -1.
    8880023    1    1    2    0    0 -0.12569453488E+03 -0.33751640144E+03 -0.10819769575E+04  0.13168905726E+04  0.65864270000E+03 0.  1.
    8880022    1    1    2    0    0  0.12569453488E+03  0.33751640144E+03 -0.17144545387E+04  0.17585398647E+04  0.15294330000E+03 0.  0.
<mgrwt>
<rscale>  0 0.63784872E+03</rscale>
<asrwt>0</asrwt>
<pdfrwt beam="1">  1        2 0.45168164E+00 0.75068412E+03</pdfrwt>
<pdfrwt beam="2">  1       -2 0.21461459E-01 0.75068412E+03</pdfrwt>
<totfact> 0.37920935E+01</totfact>
</mgrwt>
</event>
<event>
 4    5  0.2473208E-007  0.1329464E+04  0.7818608E-02  0.9040525E-01
         -2   -1    0    0    0  501 -0.00000000000E+00  0.00000000000E+00  0.14011939753E+04  0.14011939753E+04  0.25500000000E-02 0.  1.
          2   -1    0    0  501    0  0.00000000000E+00 -0.00000000000E+00 -0.13056246775E+04  0.13056246775E+04  0.25500000000E-02 0. -1.
    8880023    1    1    2    0    0  0.97398911752E+03 -0.62049131637E+03 -0.47228144161E+03  0.14108593981E+04  0.65864270000E+03 0.  0.
    8880022    1    1    2    0    0 -0.97398911752E+03  0.62049131637E+03  0.56785073934E+03  0.12959592547E+04  0.15294330000E+03 0.  0.
<mgrwt>
<rscale>  0 0.12862700E+04</rscale>
<asrwt>0</asrwt>
<pdfrwt beam="1">  1        2 0.20086533E+00 0.13294640E+04</pdfrwt>
<pdfrwt beam="2">  1       -2 0.21556830E+00 0.13294640E+04</pdfrwt>
<totfact> 0.16579252E+00</totfact>
</mgrwt>
</event>
<event>
 4    5  0.2473208E-007  0.1151691E+04  0.7818608E-02  0.9205575E-01
          2   -1    0    0  501    0  0.00000000000E+00  0.00000000000E+00  0.57727322652E+03  0.57727322652E+03  0.25500000000E-02 0. -1.
         -2   -1    0    0    0  501 -0.00000000000E+00 -0.00000000000E+00 -0.19895995293E+04  0.19895995293E+04  0.25500000000E-02 0.  1.
    8880023    1    1    2    0    0 -0.88511842378E+03  0.33037420902E+03 -0.99812488311E+03  0.15240227133E+04  0.65864270000E+03 0.  0.
    8880022    1    1    2    0    0  0.88511842378E+03 -0.33037420902E+03 -0.41420141966E+03  0.10428500425E+04  0.15294330000E+03 0.  0.
<mgrwt>
<rscale>  0 0.10996065E+04</rscale>
<asrwt>0</asrwt>
<pdfrwt beam="1">  1        2 0.88811266E-01 0.11516909E+04</pdfrwt>
<pdfrwt beam="2">  1       -2 0.30609223E+00 0.11516909E+04</pdfrwt>
<totfact> 0.15002387E+00</totfact>
</mgrwt>
</event>
<event>
 4    5  0.2473208E-007  0.7640565E+03  0.7818608E-02  0.9794717E-01
          2   -1    0    0  501    0  0.00000000000E+00  0.00000000000E+00  0.16728105133E+04  0.16728105133E+04  0.25500000000E-02 0. -1.
         -2   -1    0    0    0  501 -0.00000000000E+00 -0.00000000000E+00 -0.33668393202E+03  0.33668393203E+03  0.25500000000E-02 0.  1.
    8880023    1    1    2    0    0  0.16292604290E+03 -0.35132201688E+03  0.18607098903E+03  0.78638710202E+03  0.65864270000E+03 0.  0.
    8880022    1    1    2    0    0 -0.16292604290E+03  0.35132201688E+03  0.11500555922E+04  0.12231073433E+04  0.15294330000E+03 0.  0.
<mgrwt>
<rscale>  0 0.65646845E+03</rscale>
<asrwt>0</asrwt>
<pdfrwt beam="1">  1        2 0.25735546E+00 0.76405645E+03</pdfrwt>
<pdfrwt beam="2">  1       -2 0.51797528E-01 0.76405645E+03</pdfrwt>
<totfact> 0.36601280E+01</totfact>
</mgrwt>
</event>
<event>
 4    5  0.2473208E-007  0.9284765E+03  0.7818608E-02  0.9481783E-01
         -2   -1    0    0    0  501 -0.00000000000E+00  0.00000000000E+00  0.10674075507E+04  0.10674075507E+04  0.25500000000E-02 0.  1.
          2   -1    0    0  501    0  0.00000000000E+00 -0.00000000000E+00 -0.13097320125E+04  0.13097320125E+04  0.25500000000E-02 0. -1.
    8880023    1    1    2    0    0  0.60117174990E+03 -0.25855529455E+03  0.73974464780E+03  0.11871354866E+04  0.65864270000E+03 0.  0.
    8880022    1    1    2    0    0 -0.60117174990E+03  0.25855529455E+03 -0.98206910969E+03  0.11900040767E+04  0.15294330000E+03 0.  0.
<mgrwt>
<rscale>  0 0.85640347E+03</rscale>
<asrwt>0</asrwt>
<pdfrwt beam="1">  1        2 0.20149723E+00 0.92847645E+03</pdfrwt>
<pdfrwt beam="2">  1       -2 0.16421655E+00 0.92847645E+03</pdfrwt>
<totfact> 0.38269834E+00</totfact>
</mgrwt>
</event>
<event>
 4    5  0.2473208E-007  0.6988481E+03  0.7818608E-02  0.1000201E+00
         -2   -1    0    0    0  501 -0.00000000000E+00  0.00000000000E+00  0.25300637747E+03  0.25300637749E+03  0.25500000000E-02 0.  1.
          2   -1    0    0  501    0  0.00000000000E+00 -0.00000000000E+00 -0.16053815684E+04  0.16053815684E+04  0.25500000000E-02 0. -1.
    8880023    1    1    2    0    0  0.22171082906E+03  0.73639065165E+02 -0.28438081324E+03  0.75449390776E+03  0.65864270000E+03 0.  1.
    8880022    1    1    2    0    0 -0.22171082906E+03 -0.73639065165E+02 -0.10679943777E+04  0.11038940382E+04  0.15294330000E+03 0.  0.
<mgrwt>
<rscale>  0 0.55562023E+03</rscale>
<asrwt>0</asrwt>
<pdfrwt beam="1">  1        2 0.24698177E+00 0.69884806E+03</pdfrwt>
<pdfrwt beam="2">  1       -2 0.38924059E-01 0.69884806E+03</pdfrwt>
<totfact> 0.70955439E+01</totfact>
</mgrwt>
</event>
