<event>
 4    1  0.1104584E-007  0.5708631E+03  0.7818608E-02  0.9967770E-01
          2   -1    0    0  501    0  0.00000000000E+00  0.00000000000E+00  0.18797445463E+04  0.18797445463E+04  0.25500000000E-02 0. -1.
         -2   -1    0    0    0  501 -0.00000000000E+00 -0.00000000000E+00 -0.22863352047E+03  0.22863352049E+03  0.25500000000E-02 0.  1.
    8880022    1    1    2    0    0 -0.16213063704E+03 -0.52555374133E+03  0.13438559451E+04  0.14600799748E+04  0.15294330000E+03 0.  0.
    8880022    1    1    2    0    0  0.16213063704E+03  0.52555374133E+03  0.30725508073E+03  0.64829809204E+03  0.15294330000E+03 0.  0.
<mgrwt>
<rscale>  0 0.57086315E+03</rscale>
<asrwt>0</asrwt>
<pdfrwt beam="1">  1        2 0.28919147E+00 0.57086315E+03</pdfrwt>
<pdfrwt beam="2">  1       -2 0.35174388E-01 0.57086315E+03</pdfrwt>
<totfact> 0.62121937E+01</totfact>
</mgrwt>
</event>
<event>
 4    1  0.1104584E-007  0.1536281E+04  0.7818608E-02  0.8860679E-01
          2   -1    0    0  501    0  0.00000000000E+00  0.00000000000E+00  0.60405957752E+03  0.60405957752E+03  0.25500000000E-02 0. -1.
         -2   -1    0    0    0  501 -0.00000000000E+00 -0.00000000000E+00 -0.49168913557E+04  0.49168913557E+04  0.25500000000E-02 0.  1.
    8880022    1    1    2    0    0  0.26153907096E+03  0.15061088969E+04 -0.90546236094E+03  0.17832611797E+04  0.15294330000E+03 0.  0.
    8880022    1    1    2    0    0 -0.26153907096E+03 -0.15061088969E+04 -0.34073694173E+04  0.37376897535E+04  0.15294330000E+03 0.  0.
<mgrwt>
<rscale>  0 0.15362807E+04</rscale>
<asrwt>0</asrwt>
<pdfrwt beam="1">  1        2 0.92932246E-01 0.15362807E+04</pdfrwt>
<pdfrwt beam="2">  1       -2 0.75644480E+00 0.15362807E+04</pdfrwt>
<totfact> 0.63278101E-03</totfact>
</mgrwt>
</event>
<event>
 4    1  0.1104584E-007  0.7566023E+03  0.7818608E-02  0.9625049E-01
          2   -1    0    0  501    0  0.00000000000E+00  0.00000000000E+00  0.16569243210E+04  0.16569243210E+04  0.25500000000E-02 0. -1.
         -2   -1    0    0    0  501 -0.00000000000E+00 -0.00000000000E+00 -0.38255215028E+03  0.38255215029E+03  0.25500000000E-02 0.  1.
    8880022    1    1    2    0    0 -0.68769681129E+03  0.27591380946E+03  0.95459718476E+03  0.12180733856E+04  0.15294330000E+03 0.  0.
    8880022    1    1    2    0    0  0.68769681129E+03 -0.27591380946E+03  0.31977498592E+03  0.82140308567E+03  0.15294330000E+03 0.  0.
<mgrwt>
<rscale>  0 0.75660227E+03</rscale>
<asrwt>0</asrwt>
<pdfrwt beam="1">  1        2 0.25491144E+00 0.75660227E+03</pdfrwt>
<pdfrwt beam="2">  1       -2 0.58854177E-01 0.75660227E+03</pdfrwt>
<totfact> 0.28666405E+01</totfact>
</mgrwt>
</event>
<event>
 4    1  0.1104584E-007  0.1776355E+03  0.7818608E-02  0.1170111E+00
         -2   -1    0    0    0  501 -0.00000000000E+00  0.00000000000E+00  0.49100896824E+02  0.49100896890E+02  0.25500000000E-02 0.  1.
          2   -1    0    0  501    0  0.00000000000E+00 -0.00000000000E+00 -0.34047363185E+04  0.34047363185E+04  0.25500000000E-02 0. -1.
    8880022    1    1    2    0    0 -0.85134742914E+02  0.30245394272E+02 -0.12239197968E+03  0.21571777403E+03  0.15294330000E+03 0.  1.
    8880022    1    1    2    0    0  0.85134742914E+02 -0.30245394272E+02 -0.32332434420E+04  0.32381194414E+04  0.15294330000E+03 0.  0.
<mgrwt>
<rscale>  0 0.17763547E+03</rscale>
<asrwt>0</asrwt>
<pdfrwt beam="1">  1        2 0.52380540E+00 0.17763547E+03</pdfrwt>
<pdfrwt beam="2">  1       -2 0.75539868E-02 0.17763547E+03</pdfrwt>
<totfact> 0.12670189E+02</totfact>
</mgrwt>
</event>
<event>
 4    1  0.1104584E-007  0.6109946E+03  0.7818608E-02  0.9882855E-01
          2   -1    0    0  501    0  0.00000000000E+00  0.00000000000E+00  0.13492139516E+04  0.13492139516E+04  0.25500000000E-02 0. -1.
         -2   -1    0    0    0  501 -0.00000000000E+00 -0.00000000000E+00 -0.43746202070E+03  0.43746202071E+03  0.25500000000E-02 0.  1.
    8880022    1    1    2    0    0  0.76069844523E+02 -0.58663116198E+03 -0.85688888990E+02  0.61697405145E+03  0.15294330000E+03 0.  0.
    8880022    1    1    2    0    0 -0.76069844523E+02  0.58663116198E+03  0.99744081987E+03  0.11697019208E+04  0.15294330000E+03 0.  0.
<mgrwt>
<rscale>  0 0.61099459E+03</rscale>
<asrwt>0</asrwt>
<pdfrwt beam="1">  1        2 0.20757138E+00 0.61099459E+03</pdfrwt>
<pdfrwt beam="2">  1       -2 0.67301850E-01 0.61099459E+03</pdfrwt>
<totfact> 0.32530744E+01</totfact>
</mgrwt>
</event>
<event>
 4    1  0.1104584E-007  0.3699406E+03  0.7818608E-02  0.1054716E+00
          2   -1    0    0  501    0  0.00000000000E+00  0.00000000000E+00  0.84917185334E+03  0.84917185334E+03  0.25500000000E-02 0. -1.
         -2   -1    0    0    0  501 -0.00000000000E+00 -0.00000000000E+00 -0.49514145790E+03  0.49514145791E+03  0.25500000000E-02 0.  1.
    8880022    1    1    2    0    0 -0.27196918807E+03  0.19873882831E+03  0.72904734923E+03  0.81753657507E+03  0.15294330000E+03 0.  0.
    8880022    1    1    2    0    0  0.27196918807E+03 -0.19873882831E+03 -0.37501695379E+03  0.52677673618E+03  0.15294330000E+03 0.  1.
<mgrwt>
<rscale>  0 0.36994055E+03</rscale>
<asrwt>0</asrwt>
<pdfrwt beam="1">  1        2 0.13064182E+00 0.36994055E+03</pdfrwt>
<pdfrwt beam="2">  1       -2 0.76175609E-01 0.36994055E+03</pdfrwt>
<totfact> 0.51887014E+01</totfact>
</mgrwt>
</event>
<event>
 4    1  0.1104584E-007  0.4117879E+03  0.7818608E-02  0.1039773E+00
          2   -1    0    0  501    0  0.00000000000E+00  0.00000000000E+00  0.12454016703E+04  0.12454016703E+04  0.25500000000E-02 0. -1.
         -2   -1    0    0    0  501 -0.00000000000E+00 -0.00000000000E+00 -0.17216019412E+03  0.17216019414E+03  0.25500000000E-02 0.  1.
    8880022    1    1    2    0    0  0.21224651178E+03  0.31800788808E+03  0.86075172053E+03  0.95418173115E+03  0.15294330000E+03 0.  0.
    8880022    1    1    2    0    0 -0.21224651178E+03 -0.31800788808E+03  0.21248975560E+03  0.46338013326E+03  0.15294330000E+03 0.  0.
<mgrwt>
<rscale>  0 0.41178787E+03</rscale>
<asrwt>0</asrwt>
<pdfrwt beam="1">  1        2 0.19160027E+00 0.41178787E+03</pdfrwt>
<pdfrwt beam="2">  1       -2 0.26486182E-01 0.41178787E+03</pdfrwt>
<totfact> 0.23888701E+02</totfact>
</mgrwt>
</event>
<event>
 4    1  0.1104584E-007  0.8372347E+03  0.7818608E-02  0.9507632E-01
         -2   -1    0    0    0  501 -0.00000000000E+00  0.00000000000E+00  0.12642333732E+04  0.12642333732E+04  0.25500000000E-02 0.  1.
          2   -1    0    0  501    0  0.00000000000E+00 -0.00000000000E+00 -0.59587372322E+03  0.59587372322E+03  0.25500000000E-02 0. -1.
    8880022    1    1    2    0    0 -0.68394720492E+03 -0.45802464402E+03  0.57938125801E+03  0.10181574774E+04  0.15294330000E+03 0.  0.
    8880022    1    1    2    0    0  0.68394720492E+03  0.45802464402E+03  0.88978391926E+02  0.84194961897E+03  0.15294330000E+03 0.  0.
<mgrwt>
<rscale>  0 0.83723474E+03</rscale>
<asrwt>0</asrwt>
<pdfrwt beam="1">  1        2 0.91672880E-01 0.83723474E+03</pdfrwt>
<pdfrwt beam="2">  1       -2 0.19449744E+00 0.83723474E+03</pdfrwt>
<totfact> 0.73022253E+00</totfact>
</mgrwt>
</event>
<event>
 4    1  0.1104584E-007  0.3949394E+03  0.7818608E-02  0.1045546E+00
          2   -1    0    0  501    0  0.00000000000E+00  0.00000000000E+00  0.36775219452E+03  0.36775219453E+03  0.25500000000E-02 0. -1.
         -2   -1    0    0    0  501 -0.00000000000E+00 -0.00000000000E+00 -0.14372344502E+04  0.14372344502E+04  0.25500000000E-02 0.  1.
    8880022    1    1    2    0    0  0.15959960478E+03  0.32728192898E+03 -0.12924561457E+04  0.13514510855E+04  0.15294330000E+03 0.  0.
    8880022    1    1    2    0    0 -0.15959960478E+03 -0.32728192898E+03  0.22297389000E+03  0.45353555927E+03  0.15294330000E+03 0.  0.
<mgrwt>
<rscale>  0 0.39493942E+03</rscale>
<asrwt>0</asrwt>
<pdfrwt beam="1">  1        2 0.56577261E-01 0.39493942E+03</pdfrwt>
<pdfrwt beam="2">  1       -2 0.22111299E+00 0.39493942E+03</pdfrwt>
<totfact> 0.91501236E+00</totfact>
</mgrwt>
</event>
<event>
 4    1  0.1104584E-007  0.7767452E+03  0.7818608E-02  0.9594301E-01
         -2   -1    0    0    0  501 -0.00000000000E+00  0.00000000000E+00  0.18906128314E+04  0.18906128314E+04  0.25500000000E-02 0.  1.
          2   -1    0    0  501    0  0.00000000000E+00 -0.00000000000E+00 -0.43848686721E+03  0.43848686722E+03  0.25500000000E-02 0. -1.
    8880022    1    1    2    0    0  0.75853363020E+03 -0.67588904409E+02  0.11845859276E+03  0.78572617327E+03  0.15294330000E+03 0.  0.
    8880022    1    1    2    0    0 -0.75853363020E+03  0.67588904409E+02  0.13336673715E+04  0.15433735254E+04  0.15294330000E+03 0.  0.
<mgrwt>
<rscale>  0 0.77674525E+03</rscale>
<asrwt>0</asrwt>
<pdfrwt beam="1">  1        2 0.67459518E-01 0.77674525E+03</pdfrwt>
<pdfrwt beam="2">  1       -2 0.29086351E+00 0.77674525E+03</pdfrwt>
<totfact> 0.26795092E+00</totfact>
</mgrwt>
</event>
<event>
 4    1  0.2399054E-007  0.9199248E+03  0.7818608E-02  0.9401012E-01
         -2   -1    0    0    0  501 -0.00000000000E+00  0.00000000000E+00  0.26536629879E+04  0.26536629879E+04  0.25500000000E-02 0.  1.
          2   -1    0    0  501    0  0.00000000000E+00 -0.00000000000E+00 -0.12228768718E+04  0.12228768718E+04  0.25500000000E-02 0. -1.
    8880022    1    1    2    0    0 -0.45398394571E+03 -0.78534613632E+03  0.23818756542E+04  0.25533494202E+04  0.15294330000E+03 0.  0.
    8880022    1    1    2    0    0  0.45398394571E+03  0.78534613632E+03 -0.95108953807E+03  0.13231904395E+04  0.15294330000E+03 0.  0.
<mgrwt>
<rscale>  0 0.91992480E+03</rscale>
<asrwt>0</asrwt>
<pdfrwt beam="1">  1        2 0.18813491E+00 0.91992480E+03</pdfrwt>
<pdfrwt beam="2">  1       -2 0.40825584E+00 0.91992480E+03</pdfrwt>
<totfact> 0.12428076E-01</totfact>
</mgrwt>
</event>
<event>
 4    1  0.1104584E-007  0.2309751E+03  0.7818608E-02  0.1125955E+00
         -2   -1    0    0    0  501 -0.00000000000E+00  0.00000000000E+00  0.54330790055E+03  0.54330790056E+03  0.25500000000E-02 0.  1.
          2   -1    0    0  501    0  0.00000000000E+00 -0.00000000000E+00 -0.82160735225E+03  0.82160735225E+03  0.25500000000E-02 0. -1.
    8880022    1    1    2    0    0  0.11603973486E+03 -0.12842366283E+03  0.50122890220E+03  0.55188759966E+03  0.15294330000E+03 0.  0.
    8880022    1    1    2    0    0 -0.11603973486E+03  0.12842366283E+03 -0.77952835390E+03  0.81302765315E+03  0.15294330000E+03 0. -1.
<mgrwt>
<rscale>  0 0.23097513E+03</rscale>
<asrwt>0</asrwt>
<pdfrwt beam="1">  1        2 0.12640113E+00 0.23097513E+03</pdfrwt>
<pdfrwt beam="2">  1       -2 0.83585831E-01 0.23097513E+03</pdfrwt>
<totfact> 0.45374973E+01</totfact>
</mgrwt>
</event>
<event>
 4    1  0.1104584E-007  0.8693860E+03  0.7818608E-02  0.9464681E-01
          2   -1    0    0  501    0  0.00000000000E+00  0.00000000000E+00  0.23753739222E+04  0.23753739222E+04  0.25500000000E-02 0. -1.
         -2   -1    0    0    0  501 -0.00000000000E+00 -0.00000000000E+00 -0.33988318156E+03  0.33988318157E+03  0.25500000000E-02 0.  1.
    8880022    1    1    2    0    0  0.43651634509E+03  0.73613444445E+03  0.13606929542E+04  0.16147189875E+04  0.15294330000E+03 0.  0.
    8880022    1    1    2    0    0 -0.43651634509E+03 -0.73613444445E+03  0.67479778640E+03  0.11005381163E+04  0.15294330000E+03 0.  1.
<mgrwt>
<rscale>  0 0.86938604E+03</rscale>
<asrwt>0</asrwt>
<pdfrwt beam="1">  1        2 0.36544213E+00 0.86938604E+03</pdfrwt>
<pdfrwt beam="2">  1       -2 0.52289722E-01 0.86938604E+03</pdfrwt>
<totfact> 0.14547340E+01</totfact>
</mgrwt>
</event>
<event>
 4    1  0.1104584E-007  0.1302595E+04  0.7818608E-02  0.9027510E-01
          2   -1    0    0  501    0  0.00000000000E+00  0.00000000000E+00  0.40937581622E+04  0.40937581622E+04  0.25500000000E-02 0. -1.
         -2   -1    0    0    0  501 -0.00000000000E+00 -0.00000000000E+00 -0.60567526818E+03  0.60567526818E+03  0.25500000000E-02 0.  1.
    8880022    1    1    2    0    0 -0.89923500222E+03  0.92991339894E+03  0.42383585927E+03  0.13698142237E+04  0.15294330000E+03 0.  0.
    8880022    1    1    2    0    0  0.89923500222E+03 -0.92991339894E+03  0.30642470348E+04  0.33296192067E+04  0.15294330000E+03 0.  0.
<mgrwt>
<rscale>  0 0.13025952E+04</rscale>
<asrwt>0</asrwt>
<pdfrwt beam="1">  1        2 0.62980893E+00 0.13025952E+04</pdfrwt>
<pdfrwt beam="2">  1       -2 0.93180813E-01 0.13025952E+04</pdfrwt>
<totfact> 0.27950383E-01</totfact>
</mgrwt>
</event>
<event>
 4    1  0.1104584E-007  0.1786913E+03  0.7818608E-02  0.1169076E+00
          2   -1    0    0  501    0  0.00000000000E+00  0.00000000000E+00  0.30194085421E+04  0.30194085421E+04  0.25500000000E-02 0. -1.
         -2   -1    0    0    0  501 -0.00000000000E+00 -0.00000000000E+00 -0.11940143304E+03  0.11940143306E+03  0.25500000000E-02 0.  1.
    8880022    1    1    2    0    0 -0.91998191858E+02 -0.86752648409E+01 -0.48291115982E+02  0.18510162728E+03  0.15294330000E+03 0.  0.
    8880022    1    1    2    0    0  0.91998191858E+02  0.86752648409E+01  0.29482982250E+04  0.29537083478E+04  0.15294330000E+03 0. -1.
<mgrwt>
<rscale>  0 0.17869130E+03</rscale>
<asrwt>0</asrwt>
<pdfrwt beam="1">  1        2 0.46452434E+00 0.17869130E+03</pdfrwt>
<pdfrwt beam="2">  1       -2 0.18369453E-01 0.17869130E+03</pdfrwt>
<totfact> 0.52147891E+01</totfact>
</mgrwt>
</event>
<event>
 4    1  0.1104584E-007  0.1878451E+03  0.7818608E-02  0.1160419E+00
         -2   -1    0    0    0  501 -0.00000000000E+00  0.00000000000E+00  0.38781883563E+03  0.38781883564E+03  0.25500000000E-02 0.  1.
          2   -1    0    0  501    0  0.00000000000E+00 -0.00000000000E+00 -0.18717963303E+03  0.18717963305E+03  0.25500000000E-02 0. -1.
    8880022    1    1    2    0    0 -0.10184081396E+03  0.39020404355E+02  0.30642161644E+03  0.35941619800E+03  0.15294330000E+03 0.  0.
    8880022    1    1    2    0    0  0.10184081396E+03 -0.39020404355E+02 -0.10578241384E+03  0.21558227069E+03  0.15294330000E+03 0. -1.
<mgrwt>
<rscale>  0 0.18784514E+03</rscale>
<asrwt>0</asrwt>
<pdfrwt beam="1">  1        2 0.28796867E-01 0.18784514E+03</pdfrwt>
<pdfrwt beam="2">  1       -2 0.59664436E-01 0.18784514E+03</pdfrwt>
<totfact> 0.49159794E+02</totfact>
</mgrwt>
</event>
<event>
 4    1  0.1104584E-007  0.5467002E+03  0.7818608E-02  0.1002261E+00
         -2   -1    0    0    0  501 -0.00000000000E+00  0.00000000000E+00  0.17346790165E+03  0.17346790166E+03  0.25500000000E-02 0.  1.
          2   -1    0    0  501    0  0.00000000000E+00 -0.00000000000E+00 -0.28926167074E+04  0.28926167074E+04  0.25500000000E-02 0. -1.
    8880022    1    1    2    0    0  0.46841731111E+03  0.23680085678E+03 -0.38473094005E+03  0.66850502793E+03  0.15294330000E+03 0.  0.
    8880022    1    1    2    0    0 -0.46841731111E+03 -0.23680085678E+03 -0.23344178657E+04  0.23975795811E+04  0.15294330000E+03 0.  0.
<mgrwt>
<rscale>  0 0.54670017E+03</rscale>
<asrwt>0</asrwt>
<pdfrwt beam="1">  1        2 0.44501792E+00 0.54670017E+03</pdfrwt>
<pdfrwt beam="2">  1       -2 0.26687372E-01 0.54670017E+03</pdfrwt>
<totfact> 0.28278651E+01</totfact>
</mgrwt>
</event>
<event>
 4    1  0.1104584E-007  0.8964675E+03  0.7818608E-02  0.9430008E-01
         -2   -1    0    0    0  501 -0.00000000000E+00  0.00000000000E+00  0.17703645529E+04  0.17703645529E+04  0.25500000000E-02 0.  1.
          2   -1    0    0  501    0  0.00000000000E+00 -0.00000000000E+00 -0.11219687197E+04  0.11219687197E+04  0.25500000000E-02 0. -1.
    8880022    1    1    2    0    0  0.40510216887E+02  0.88239514554E+03 -0.79169582694E+03  0.11960084473E+04  0.15294330000E+03 0.  0.
    8880022    1    1    2    0    0 -0.40510216887E+02 -0.88239514554E+03  0.14400916601E+04  0.16963248253E+04  0.15294330000E+03 0.  0.
<mgrwt>
<rscale>  0 0.89646747E+03</rscale>
<asrwt>0</asrwt>
<pdfrwt beam="1">  1        2 0.17261057E+00 0.89646747E+03</pdfrwt>
<pdfrwt beam="2">  1       -2 0.27236378E+00 0.89646747E+03</pdfrwt>
<totfact> 0.10050938E+00</totfact>
</mgrwt>
</event>
<event>
 4    1  0.1104584E-007  0.3075488E+03  0.7818608E-02  0.1081527E+00
          2   -1    0    0  501    0  0.00000000000E+00  0.00000000000E+00  0.37076363863E+04  0.37076363863E+04  0.25500000000E-02 0. -1.
         -2   -1    0    0    0  501 -0.00000000000E+00 -0.00000000000E+00 -0.47899260364E+02  0.47899260432E+02  0.25500000000E-02 0.  1.
    8880022    1    1    2    0    0  0.96245005116E+02  0.24886042630E+03  0.31136340372E+04  0.31287862157E+04  0.15294330000E+03 0. -1.
    8880022    1    1    2    0    0 -0.96245005116E+02 -0.24886042630E+03  0.54610308873E+03  0.62674943105E+03  0.15294330000E+03 0.  0.
<mgrwt>
<rscale>  0 0.30754880E+03</rscale>
<asrwt>0</asrwt>
<pdfrwt beam="1">  1        2 0.57040603E+00 0.30754880E+03</pdfrwt>
<pdfrwt beam="2">  1       -2 0.73691114E-02 0.30754880E+03</pdfrwt>
<totfact> 0.77730261E+01</totfact>
</mgrwt>
</event>
<event>
 4    1  0.1104584E-007  0.9117969E+03  0.7818608E-02  0.9410954E-01
          2   -1    0    0  501    0  0.00000000000E+00  0.00000000000E+00  0.12075395754E+04  0.12075395754E+04  0.25500000000E-02 0. -1.
         -2   -1    0    0    0  501 -0.00000000000E+00 -0.00000000000E+00 -0.16938589529E+04  0.16938589529E+04  0.25500000000E-02 0.  1.
    8880022    1    1    2    0    0 -0.55774042804E+03 -0.70491672900E+03  0.87448163135E+03  0.12633652506E+04  0.15294330000E+03 0.  0.
    8880022    1    1    2    0    0  0.55774042804E+03  0.70491672900E+03 -0.13608010089E+04  0.16380332776E+04  0.15294330000E+03 0.  0.
<mgrwt>
<rscale>  0 0.91179693E+03</rscale>
<asrwt>0</asrwt>
<pdfrwt beam="1">  1        2 0.18577532E+00 0.91179693E+03</pdfrwt>
<pdfrwt beam="2">  1       -2 0.26059369E+00 0.91179693E+03</pdfrwt>
<totfact> 0.10488329E+00</totfact>
</mgrwt>
</event>
<event>
 4    1  0.1104584E-007  0.1814299E+03  0.7818608E-02  0.1166426E+00
          2   -1    0    0  501    0  0.00000000000E+00  0.00000000000E+00  0.29329013365E+04  0.29329013365E+04  0.25500000000E-02 0. -1.
         -2   -1    0    0    0  501 -0.00000000000E+00 -0.00000000000E+00 -0.69368317163E+02  0.69368317210E+02  0.25500000000E-02 0.  1.
    8880022    1    1    2    0    0  0.97593877609E+02 -0.77438161374E+00  0.57422699757E+02  0.19030024718E+03  0.15294330000E+03 0.  0.
    8880022    1    1    2    0    0 -0.97593877609E+02  0.77438161374E+00  0.28061103196E+04  0.28119694065E+04  0.15294330000E+03 0. -1.
<mgrwt>
<rscale>  0 0.18142992E+03</rscale>
<asrwt>0</asrwt>
<pdfrwt beam="1">  1        2 0.45121558E+00 0.18142992E+03</pdfrwt>
<pdfrwt beam="2">  1       -2 0.10672049E-01 0.18142992E+03</pdfrwt>
<totfact> 0.14198263E+02</totfact>
</mgrwt>
</event>
<event>
 4    1  0.1104584E-007  0.3656525E+03  0.7818608E-02  0.1056368E+00
          2   -1    0    0  501    0  0.00000000000E+00  0.00000000000E+00  0.78323572387E+03  0.78323572387E+03  0.25500000000E-02 0. -1.
         -2   -1    0    0    0  501 -0.00000000000E+00 -0.00000000000E+00 -0.37599316340E+03  0.37599316341E+03  0.25500000000E-02 0.  1.
    8880022    1    1    2    0    0  0.27295798163E+03  0.18921959526E+03 -0.22466270630E+03  0.42915626476E+03  0.15294330000E+03 0.  1.
    8880022    1    1    2    0    0 -0.27295798163E+03 -0.18921959526E+03  0.63190526677E+03  0.73007262252E+03  0.15294330000E+03 0.  0.
<mgrwt>
<rscale>  0 0.36565252E+03</rscale>
<asrwt>0</asrwt>
<pdfrwt beam="1">  1        2 0.12049780E+00 0.36565252E+03</pdfrwt>
<pdfrwt beam="2">  1       -2 0.57845103E-01 0.36565252E+03</pdfrwt>
<totfact> 0.10384620E+02</totfact>
</mgrwt>
</event>
<event>
 4    1  0.1104584E-007  0.6000608E+03  0.7818608E-02  0.9905280E-01
          2   -1    0    0  501    0  0.00000000000E+00  0.00000000000E+00  0.12878215381E+04  0.12878215381E+04  0.25500000000E-02 0. -1.
         -2   -1    0    0    0  501 -0.00000000000E+00 -0.00000000000E+00 -0.95990573963E+03  0.95990573964E+03  0.25500000000E-02 0.  1.
    8880022    1    1    2    0    0  0.57390309208E+03 -0.85537110568E+02 -0.78217438701E+03  0.98583456071E+03  0.15294330000E+03 0.  0.
    8880022    1    1    2    0    0 -0.57390309208E+03  0.85537110568E+02  0.11100901854E+04  0.12618927170E+04  0.15294330000E+03 0.  0.
<mgrwt>
<rscale>  0 0.60006084E+03</rscale>
<asrwt>0</asrwt>
<pdfrwt beam="1">  1        2 0.19812639E+00 0.60006084E+03</pdfrwt>
<pdfrwt beam="2">  1       -2 0.14767781E+00 0.60006084E+03</pdfrwt>
<totfact> 0.54961160E+00</totfact>
</mgrwt>
</event>
<event>
 4    1  0.1104584E-007  0.1895257E+03  0.7818608E-02  0.1158890E+00
         -2   -1    0    0    0  501 -0.00000000000E+00  0.00000000000E+00  0.16449255451E+03  0.16449255453E+03  0.25500000000E-02 0.  1.
          2   -1    0    0  501    0  0.00000000000E+00 -0.00000000000E+00 -0.11628986609E+04  0.11628986609E+04  0.25500000000E-02 0. -1.
    8880022    1    1    2    0    0 -0.89549553023E+02  0.67150750462E+02  0.98941172660E+02  0.21379746116E+03  0.15294330000E+03 0.  0.
    8880022    1    1    2    0    0  0.89549553023E+02 -0.67150750462E+02 -0.10973472791E+04  0.11135937543E+04  0.15294330000E+03 0. -1.
<mgrwt>
<rscale>  0 0.18952572E+03</rscale>
<asrwt>0</asrwt>
<pdfrwt beam="1">  1        2 0.17890748E+00 0.18952572E+03</pdfrwt>
<pdfrwt beam="2">  1       -2 0.25306547E-01 0.18952572E+03</pdfrwt>
<totfact> 0.29823437E+02</totfact>
</mgrwt>
</event>
<event>
 4    1  0.1104584E-007  0.4197316E+03  0.7818608E-02  0.1037154E+00
         -2   -1    0    0    0  501 -0.00000000000E+00  0.00000000000E+00  0.40189577490E+03  0.40189577491E+03  0.25500000000E-02 0.  1.
          2   -1    0    0  501    0  0.00000000000E+00 -0.00000000000E+00 -0.93782885306E+03  0.93782885307E+03  0.25500000000E-02 0. -1.
    8880022    1    1    2    0    0 -0.26682592505E+03 -0.28563415994E+03  0.22088661574E+03  0.47430527894E+03  0.15294330000E+03 0.  0.
    8880022    1    1    2    0    0  0.26682592505E+03  0.28563415994E+03 -0.75681969390E+03  0.86541934904E+03  0.15294330000E+03 0.  0.
<mgrwt>
<rscale>  0 0.41973158E+03</rscale>
<asrwt>0</asrwt>
<pdfrwt beam="1">  1        2 0.14428136E+00 0.41973158E+03</pdfrwt>
<pdfrwt beam="2">  1       -2 0.61830120E-01 0.41973158E+03</pdfrwt>
<totfact> 0.70521907E+01</totfact>
</mgrwt>
</event>
<event>
 4    1  0.1104584E-007  0.7274440E+03  0.7818608E-02  0.9671417E-01
          2   -1    0    0  501    0  0.00000000000E+00  0.00000000000E+00  0.15490306932E+04  0.15490306932E+04  0.25500000000E-02 0. -1.
         -2   -1    0    0    0  501 -0.00000000000E+00 -0.00000000000E+00 -0.35515494061E+03  0.35515494062E+03  0.25500000000E-02 0.  1.
    8880022    1    1    2    0    0 -0.65760762975E+03 -0.27080493855E+03  0.78282588742E+03  0.10686398516E+04  0.15294330000E+03 0.  0.
    8880022    1    1    2    0    0  0.65760762975E+03  0.27080493855E+03  0.41104986513E+03  0.83554578216E+03  0.15294330000E+03 0.  0.
<mgrwt>
<rscale>  0 0.72744399E+03</rscale>
<asrwt>0</asrwt>
<pdfrwt beam="1">  1        2 0.23831242E+00 0.72744399E+03</pdfrwt>
<pdfrwt beam="2">  1       -2 0.54639221E-01 0.72744399E+03</pdfrwt>
<totfact> 0.38517674E+01</totfact>
</mgrwt>
</event>
<event>
 4    1  0.1104584E-007  0.5659383E+03  0.7818608E-02  0.9978707E-01
         -2   -1    0    0    0  501 -0.00000000000E+00  0.00000000000E+00  0.26121719768E+03  0.26121719769E+03  0.25500000000E-02 0.  1.
          2   -1    0    0  501    0  0.00000000000E+00 -0.00000000000E+00 -0.18294905913E+04  0.18294905913E+04  0.25500000000E-02 0. -1.
    8880022    1    1    2    0    0  0.10945213585E+03  0.53377407420E+03 -0.18381118387E+03  0.59504011349E+03  0.15294330000E+03 0.  0.
    8880022    1    1    2    0    0 -0.10945213585E+03 -0.53377407420E+03 -0.13844622098E+04  0.14956676756E+04  0.15294330000E+03 0.  0.
<mgrwt>
<rscale>  0 0.56593832E+03</rscale>
<asrwt>0</asrwt>
<pdfrwt beam="1">  1        2 0.28146008E+00 0.56593832E+03</pdfrwt>
<pdfrwt beam="2">  1       -2 0.40187262E-01 0.56593832E+03</pdfrwt>
<totfact> 0.51238715E+01</totfact>
</mgrwt>
</event>
<event>
 4    1  0.1104584E-007  0.9776616E+03  0.7818608E-02  0.9333390E-01
          2   -1    0    0  501    0  0.00000000000E+00  0.00000000000E+00  0.13478817852E+04  0.13478817852E+04  0.25500000000E-02 0. -1.
         -2   -1    0    0    0  501 -0.00000000000E+00 -0.00000000000E+00 -0.77043900724E+03  0.77043900724E+03  0.25500000000E-02 0.  1.
    8880022    1    1    2    0    0  0.56457564556E+03  0.78338042082E+03  0.58750579960E+03  0.11406074087E+04  0.15294330000E+03 0.  0.
    8880022    1    1    2    0    0 -0.56457564556E+03 -0.78338042082E+03 -0.10063021633E+02  0.97771338372E+03  0.15294330000E+03 0.  0.
<mgrwt>
<rscale>  0 0.97766160E+03</rscale>
<asrwt>0</asrwt>
<pdfrwt beam="1">  1        2 0.20736643E+00 0.97766160E+03</pdfrwt>
<pdfrwt beam="2">  1       -2 0.11852908E+00 0.97766160E+03</pdfrwt>
<totfact> 0.84514402E+00</totfact>
</mgrwt>
</event>
<event>
 4    1  0.1104584E-007  0.2731059E+03  0.7818608E-02  0.1099515E+00
          2   -1    0    0  501    0  0.00000000000E+00  0.00000000000E+00  0.23472493202E+03  0.23472493204E+03  0.25500000000E-02 0. -1.
         -2   -1    0    0    0  501 -0.00000000000E+00 -0.00000000000E+00 -0.12935949209E+04  0.12935949210E+04  0.25500000000E-02 0.  1.
    8880022    1    1    2    0    0  0.19403038686E+03  0.11639336503E+03  0.13426628588E+03  0.30432596831E+03  0.15294330000E+03 0.  0.
    8880022    1    1    2    0    0 -0.19403038686E+03 -0.11639336503E+03 -0.11931362748E+04  0.12239938847E+04  0.15294330000E+03 0.  1.
<mgrwt>
<rscale>  0 0.27310595E+03</rscale>
<asrwt>0</asrwt>
<pdfrwt beam="1">  1        2 0.36111528E-01 0.27310595E+03</pdfrwt>
<pdfrwt beam="2">  1       -2 0.19901460E+00 0.27310595E+03</pdfrwt>
<totfact> 0.21052789E+01</totfact>
</mgrwt>
</event>
<event>
 4    1  0.1104584E-007  0.1166163E+04  0.7818608E-02  0.9143000E-01
          2   -1    0    0  501    0  0.00000000000E+00  0.00000000000E+00  0.19575380178E+04  0.19575380178E+04  0.25500000000E-02 0. -1.
         -2   -1    0    0    0  501 -0.00000000000E+00 -0.00000000000E+00 -0.27728729558E+04  0.27728729558E+04  0.25500000000E-02 0.  1.
    8880022    1    1    2    0    0 -0.26880850456E+03  0.11244052240E+04  0.16399218809E+04  0.20122824226E+04  0.15294330000E+03 0.  0.
    8880022    1    1    2    0    0  0.26880850456E+03 -0.11244052240E+04 -0.24552568189E+04  0.27181285510E+04  0.15294330000E+03 0.  0.
<mgrwt>
<rscale>  0 0.11661633E+04</rscale>
<asrwt>0</asrwt>
<pdfrwt beam="1">  1        2 0.30115970E+00 0.11661633E+04</pdfrwt>
<pdfrwt beam="2">  1       -2 0.42659584E+00 0.11661633E+04</pdfrwt>
<totfact> 0.34664180E-02</totfact>
</mgrwt>
</event>
<event>
 4    1  0.1104584E-007  0.3852028E+03  0.7818608E-02  0.1049027E+00
         -2   -1    0    0    0  501 -0.00000000000E+00  0.00000000000E+00  0.18752541655E+03  0.18752541657E+03  0.25500000000E-02 0.  1.
          2   -1    0    0  501    0  0.00000000000E+00 -0.00000000000E+00 -0.24070837039E+04  0.24070837039E+04  0.25500000000E-02 0. -1.
    8880022    1    1    2    0    0 -0.21562558286E+03  0.28016988174E+03 -0.21726816859E+04  0.22065645053E+04  0.15294330000E+03 0.  0.
    8880022    1    1    2    0    0  0.21562558286E+03 -0.28016988174E+03 -0.46876601452E+02  0.38804461521E+03  0.15294330000E+03 0.  0.
<mgrwt>
<rscale>  0 0.38520281E+03</rscale>
<asrwt>0</asrwt>
<pdfrwt beam="1">  1        2 0.37032055E+00 0.38520281E+03</pdfrwt>
<pdfrwt beam="2">  1       -2 0.28850066E-01 0.38520281E+03</pdfrwt>
<totfact> 0.48251501E+01</totfact>
</mgrwt>
</event>
<event>
 4    1  0.1104584E-007  0.5401019E+03  0.7818608E-02  0.1003811E+00
         -2   -1    0    0    0  501 -0.00000000000E+00  0.00000000000E+00  0.83518695342E+03  0.83518695342E+03  0.25500000000E-02 0.  1.
          2   -1    0    0  501    0  0.00000000000E+00 -0.00000000000E+00 -0.59134801197E+03  0.59134801197E+03  0.25500000000E-02 0. -1.
    8880022    1    1    2    0    0  0.49599442478E+03  0.14935846503E+03  0.57827559198E+03  0.79127285672E+03  0.15294330000E+03 0.  0.
    8880022    1    1    2    0    0 -0.49599442478E+03 -0.14935846503E+03 -0.33443665053E+03  0.63526210867E+03  0.15294330000E+03 0.  0.
<mgrwt>
<rscale>  0 0.54010191E+03</rscale>
<asrwt>0</asrwt>
<pdfrwt beam="1">  1        2 0.90976617E-01 0.54010191E+03</pdfrwt>
<pdfrwt beam="2">  1       -2 0.12849030E+00 0.54010191E+03</pdfrwt>
<totfact> 0.23370703E+01</totfact>
</mgrwt>
</event>
<event>
 4    1  0.1104584E-007  0.4210142E+03  0.7818608E-02  0.1036737E+00
         -2   -1    0    0    0  501 -0.00000000000E+00  0.00000000000E+00  0.34918840934E+03  0.34918840935E+03  0.25500000000E-02 0.  1.
          2   -1    0    0  501    0  0.00000000000E+00 -0.00000000000E+00 -0.11204748157E+04  0.11204748157E+04  0.25500000000E-02 0. -1.
    8880022    1    1    2    0    0 -0.39209147483E+03  0.11204892152E+02 -0.92910335660E+03  0.10200421435E+04  0.15294330000E+03 0. -1.
    8880022    1    1    2    0    0  0.39209147483E+03 -0.11204892152E+02  0.15781695019E+03  0.44962108161E+03  0.15294330000E+03 0.  0.
<mgrwt>
<rscale>  0 0.42101417E+03</rscale>
<asrwt>0</asrwt>
<pdfrwt beam="1">  1        2 0.17238074E+00 0.42101417E+03</pdfrwt>
<pdfrwt beam="2">  1       -2 0.53721294E-01 0.42101417E+03</pdfrwt>
<totfact> 0.72800922E+01</totfact>
</mgrwt>
</event>
<event>
 4    1  0.1104584E-007  0.7723266E+03  0.7818608E-02  0.9600960E-01
         -2   -1    0    0    0  501 -0.00000000000E+00  0.00000000000E+00  0.62617997038E+03  0.62617997038E+03  0.25500000000E-02 0.  1.
          2   -1    0    0  501    0  0.00000000000E+00 -0.00000000000E+00 -0.29880622101E+04  0.29880622101E+04  0.25500000000E-02 0. -1.
    8880022    1    1    2    0    0  0.50886335944E+03 -0.56049509291E+03  0.31056755960E+03  0.83243049551E+03  0.15294330000E+03 0.  0.
    8880022    1    1    2    0    0 -0.50886335944E+03  0.56049509291E+03 -0.26724497993E+04  0.27818116849E+04  0.15294330000E+03 0.  0.
<mgrwt>
<rscale>  0 0.77232656E+03</rscale>
<asrwt>0</asrwt>
<pdfrwt beam="1">  1        2 0.45970187E+00 0.77232656E+03</pdfrwt>
<pdfrwt beam="2">  1       -2 0.96335382E-01 0.77232656E+03</pdfrwt>
<totfact> 0.16973567E+00</totfact>
</mgrwt>
</event>
<event>
 4    1  0.1104584E-007  0.2828390E+03  0.7818608E-02  0.1094148E+00
          2   -1    0    0  501    0  0.00000000000E+00  0.00000000000E+00  0.20023944056E+04  0.20023944056E+04  0.25500000000E-02 0. -1.
         -2   -1    0    0    0  501 -0.00000000000E+00 -0.00000000000E+00 -0.16882061763E+03  0.16882061765E+03  0.25500000000E-02 0.  1.
    8880022    1    1    2    0    0  0.23773251849E+03  0.94592106863E+01  0.18652821895E+04  0.18866042315E+04  0.15294330000E+03 0.  0.
    8880022    1    1    2    0    0 -0.23773251849E+03 -0.94592106863E+01 -0.31708401527E+02  0.28461079171E+03  0.15294330000E+03 0.  1.
<mgrwt>
<rscale>  0 0.28283896E+03</rscale>
<asrwt>0</asrwt>
<pdfrwt beam="1">  1        2 0.30806069E+00 0.28283896E+03</pdfrwt>
<pdfrwt beam="2">  1       -2 0.25972402E-01 0.28283896E+03</pdfrwt>
<totfact> 0.98941212E+01</totfact>
</mgrwt>
</event>
<event>
 4    1  0.1104584E-007  0.2495277E+03  0.7818608E-02  0.1113604E+00
         -2   -1    0    0    0  501 -0.00000000000E+00  0.00000000000E+00  0.23880454629E+03  0.23880454630E+03  0.25500000000E-02 0.  1.
          2   -1    0    0  501    0  0.00000000000E+00 -0.00000000000E+00 -0.16156813991E+04  0.16156813991E+04  0.25500000000E-02 0. -1.
    8880022    1    1    2    0    0 -0.19700783052E+03  0.77659709616E+01 -0.15375742923E+04  0.15576901980E+04  0.15294330000E+03 0.  0.
    8880022    1    1    2    0    0  0.19700783052E+03 -0.77659709616E+01  0.16069743950E+03  0.29679574739E+03  0.15294330000E+03 0.  0.
<mgrwt>
<rscale>  0 0.24952765E+03</rscale>
<asrwt>0</asrwt>
<pdfrwt beam="1">  1        2 0.24856636E+00 0.24952765E+03</pdfrwt>
<pdfrwt beam="2">  1       -2 0.36739162E-01 0.24952765E+03</pdfrwt>
<totfact> 0.84546121E+01</totfact>
</mgrwt>
</event>
<event>
 4    1  0.1104584E-007  0.8132344E+03  0.7818608E-02  0.9541056E-01
          2   -1    0    0  501    0  0.00000000000E+00  0.00000000000E+00  0.72440073616E+03  0.72440073617E+03  0.25500000000E-02 0. -1.
         -2   -1    0    0    0  501 -0.00000000000E+00 -0.00000000000E+00 -0.20756988323E+04  0.20756988323E+04  0.25500000000E-02 0.  1.
    8880022    1    1    2    0    0  0.29498719743E+02 -0.79817816024E+03  0.37220805106E+03  0.89436515822E+03  0.15294330000E+03 0.  0.
    8880022    1    1    2    0    0 -0.29498719743E+02  0.79817816024E+03 -0.17235061472E+04  0.19057344102E+04  0.15294330000E+03 0.  0.
<mgrwt>
<rscale>  0 0.81323441E+03</rscale>
<asrwt>0</asrwt>
<pdfrwt beam="1">  1        2 0.11144627E+00 0.81323441E+03</pdfrwt>
<pdfrwt beam="2">  1       -2 0.31933828E+00 0.81323441E+03</pdfrwt>
<totfact> 0.98283929E-01</totfact>
</mgrwt>
</event>
<event>
 4    1  0.1104584E-007  0.2425943E+03  0.7818608E-02  0.1118077E+00
          2   -1    0    0  501    0  0.00000000000E+00  0.00000000000E+00  0.62798167231E+03  0.62798167231E+03  0.25500000000E-02 0. -1.
         -2   -1    0    0    0  501 -0.00000000000E+00 -0.00000000000E+00 -0.16787239735E+03  0.16787239737E+03  0.25500000000E-02 0.  1.
    8880022    1    1    2    0    0  0.18808481407E+03  0.91897592979E+01  0.49453155662E+03  0.55082979446E+03  0.15294330000E+03 0.  0.
    8880022    1    1    2    0    0 -0.18808481407E+03 -0.91897592979E+01 -0.34422281658E+02  0.24502427523E+03  0.15294330000E+03 0.  0.
<mgrwt>
<rscale>  0 0.24259432E+03</rscale>
<asrwt>0</asrwt>
<pdfrwt beam="1">  1        2 0.96612564E-01 0.24259432E+03</pdfrwt>
<pdfrwt beam="2">  1       -2 0.25826523E-01 0.24259432E+03</pdfrwt>
<totfact> 0.64456260E+02</totfact>
</mgrwt>
</event>
<event>
 4    1  0.1104584E-007  0.7814749E+03  0.7818608E-02  0.9587225E-01
          2   -1    0    0  501    0  0.00000000000E+00  0.00000000000E+00  0.26956059406E+04  0.26956059406E+04  0.25500000000E-02 0. -1.
         -2   -1    0    0    0  501 -0.00000000000E+00 -0.00000000000E+00 -0.66800570625E+03  0.66800570625E+03  0.25500000000E-02 0.  1.
    8880022    1    1    2    0    0 -0.72627691556E+03 -0.24460824689E+03  0.23809838219E+04  0.25059503119E+04  0.15294330000E+03 0.  0.
    8880022    1    1    2    0    0  0.72627691556E+03  0.24460824689E+03 -0.35338358755E+03  0.85766133496E+03  0.15294330000E+03 0.  0.
<mgrwt>
<rscale>  0 0.78147489E+03</rscale>
<asrwt>0</asrwt>
<pdfrwt beam="1">  1        2 0.41470862E+00 0.78147489E+03</pdfrwt>
<pdfrwt beam="2">  1       -2 0.10277011E+00 0.78147489E+03</pdfrwt>
<totfact> 0.21716800E+00</totfact>
</mgrwt>
</event>
<event>
 4    1  0.1104584E-007  0.5265853E+03  0.7818608E-02  0.1007064E+00
         -2   -1    0    0    0  501 -0.00000000000E+00  0.00000000000E+00  0.20472459811E+03  0.20472459813E+03  0.25500000000E-02 0.  1.
          2   -1    0    0  501    0  0.00000000000E+00 -0.00000000000E+00 -0.24128645368E+04  0.24128645368E+04  0.25500000000E-02 0. -1.
    8880022    1    1    2    0    0  0.37371327357E+03 -0.33799228675E+03 -0.19708922934E+04  0.20400265886E+04  0.15294330000E+03 0.  0.
    8880022    1    1    2    0    0 -0.37371327357E+03  0.33799228675E+03 -0.23724764524E+03  0.57756254634E+03  0.15294330000E+03 0.  0.
<mgrwt>
<rscale>  0 0.52658527E+03</rscale>
<asrwt>0</asrwt>
<pdfrwt beam="1">  1        2 0.37120991E+00 0.52658527E+03</pdfrwt>
<pdfrwt beam="2">  1       -2 0.31496094E-01 0.52658527E+03</pdfrwt>
<totfact> 0.39457879E+01</totfact>
</mgrwt>
</event>
<event>
 4    1  0.1104584E-007  0.5628334E+03  0.7818608E-02  0.9985664E-01
         -2   -1    0    0    0  501 -0.00000000000E+00  0.00000000000E+00  0.93604628038E+03  0.93604628038E+03  0.25500000000E-02 0.  1.
          2   -1    0    0  501    0  0.00000000000E+00 -0.00000000000E+00 -0.62807609741E+03  0.62807609741E+03  0.25500000000E-02 0. -1.
    8880022    1    1    2    0    0  0.32385510759E+03 -0.43417465653E+03  0.68508010908E+03  0.88663192586E+03  0.15294330000E+03 0.  0.
    8880022    1    1    2    0    0 -0.32385510759E+03  0.43417465653E+03 -0.37710992611E+03  0.67749045194E+03  0.15294330000E+03 0.  0.
<mgrwt>
<rscale>  0 0.56283338E+03</rscale>
<asrwt>0</asrwt>
<pdfrwt beam="1">  1        2 0.96627092E-01 0.56283338E+03</pdfrwt>
<pdfrwt beam="2">  1       -2 0.14400712E+00 0.56283338E+03</pdfrwt>
<totfact> 0.16206367E+01</totfact>
</mgrwt>
</event>
<event>
 4    1  0.1104584E-007  0.5914455E+03  0.7818608E-02  0.9923315E-01
          2   -1    0    0  501    0  0.00000000000E+00  0.00000000000E+00  0.56562902484E+03  0.56562902484E+03  0.25500000000E-02 0. -1.
         -2   -1    0    0    0  501 -0.00000000000E+00 -0.00000000000E+00 -0.17216575529E+04  0.17216575529E+04  0.25500000000E-02 0.  1.
    8880022    1    1    2    0    0 -0.56450191409E+03 -0.88054893873E+02  0.33746337627E+03  0.68094732446E+03  0.15294330000E+03 0.  0.
    8880022    1    1    2    0    0  0.56450191409E+03  0.88054893873E+02 -0.14934919044E+04  0.16063392533E+04  0.15294330000E+03 0.  0.
<mgrwt>
<rscale>  0 0.59144546E+03</rscale>
<asrwt>0</asrwt>
<pdfrwt beam="1">  1        2 0.87019851E-01 0.59144546E+03</pdfrwt>
<pdfrwt beam="2">  1       -2 0.26487039E+00 0.59144546E+03</pdfrwt>
<totfact> 0.29417602E+00</totfact>
</mgrwt>
</event>
<event>
 4    1  0.1104584E-007  0.6323627E+03  0.7818608E-02  0.9840449E-01
          2   -1    0    0  501    0  0.00000000000E+00  0.00000000000E+00  0.20048177709E+04  0.20048177709E+04  0.25500000000E-02 0. -1.
         -2   -1    0    0    0  501 -0.00000000000E+00 -0.00000000000E+00 -0.11299546491E+04  0.11299546491E+04  0.25500000000E-02 0.  1.
    8880022    1    1    2    0    0  0.42571569362E+03  0.44187897270E+03 -0.98490466401E+03  0.11704357003E+04  0.15294330000E+03 0.  0.
    8880022    1    1    2    0    0 -0.42571569362E+03 -0.44187897270E+03  0.18597677858E+04  0.19643367198E+04  0.15294330000E+03 0.  0.
<mgrwt>
<rscale>  0 0.63236266E+03</rscale>
<asrwt>0</asrwt>
<pdfrwt beam="1">  1        2 0.30843350E+00 0.63236266E+03</pdfrwt>
<pdfrwt beam="2">  1       -2 0.17383918E+00 0.63236266E+03</pdfrwt>
<totfact> 0.14182866E+00</totfact>
</mgrwt>
</event>
<event>
 4    1  0.1104584E-007  0.8896395E+03  0.7818608E-02  0.9438626E-01
         -2   -1    0    0    0  501 -0.00000000000E+00  0.00000000000E+00  0.51744337722E+03  0.51744337722E+03  0.25500000000E-02 0.  1.
          2   -1    0    0  501    0  0.00000000000E+00 -0.00000000000E+00 -0.17073074168E+04  0.17073074168E+04  0.25500000000E-02 0. -1.
    8880022    1    1    2    0    0 -0.81566912510E+03  0.32054751970E+03 -0.95385590989E+03  0.13043387535E+04  0.15294330000E+03 0.  0.
    8880022    1    1    2    0    0  0.81566912510E+03 -0.32054751970E+03 -0.23600812966E+03  0.92041204050E+03  0.15294330000E+03 0.  0.
<mgrwt>
<rscale>  0 0.88963953E+03</rscale>
<asrwt>0</asrwt>
<pdfrwt beam="1">  1        2 0.26266268E+00 0.88963953E+03</pdfrwt>
<pdfrwt beam="2">  1       -2 0.79606674E-01 0.88963953E+03</pdfrwt>
<totfact> 0.13724831E+01</totfact>
</mgrwt>
</event>
<event>
 4    1  0.1104584E-007  0.5763824E+03  0.7818608E-02  0.9955654E-01
         -2   -1    0    0    0  501 -0.00000000000E+00  0.00000000000E+00  0.23732942576E+03  0.23732942577E+03  0.25500000000E-02 0.  1.
          2   -1    0    0  501    0  0.00000000000E+00 -0.00000000000E+00 -0.26141534502E+04  0.26141534502E+04  0.25500000000E-02 0. -1.
    8880022    1    1    2    0    0 -0.88000789764E+02 -0.54870839949E+03 -0.21668214416E+03  0.61576606864E+03  0.15294330000E+03 0.  0.
    8880022    1    1    2    0    0  0.88000789764E+02  0.54870839949E+03 -0.21601418803E+04  0.22357168074E+04  0.15294330000E+03 0.  0.
<mgrwt>
<rscale>  0 0.57638242E+03</rscale>
<asrwt>0</asrwt>
<pdfrwt beam="1">  1        2 0.40217743E+00 0.57638242E+03</pdfrwt>
<pdfrwt beam="2">  1       -2 0.36512221E-01 0.57638242E+03</pdfrwt>
<totfact> 0.22781537E+01</totfact>
</mgrwt>
</event>
<event>
 4    1  0.1104584E-007  0.7206498E+03  0.7818608E-02  0.9682556E-01
          2   -1    0    0  501    0  0.00000000000E+00  0.00000000000E+00  0.29373142114E+04  0.29373142114E+04  0.25500000000E-02 0. -1.
         -2   -1    0    0    0  501 -0.00000000000E+00 -0.00000000000E+00 -0.73193640579E+03  0.73193640580E+03  0.25500000000E-02 0.  1.
    8880022    1    1    2    0    0 -0.70308522725E+03 -0.40194411945E+02 -0.49505820379E+03  0.87431041723E+03  0.15294330000E+03 0.  0.
    8880022    1    1    2    0    0  0.70308522725E+03  0.40194411945E+02  0.27004360094E+04  0.27949402000E+04  0.15294330000E+03 0.  0.
<mgrwt>
<rscale>  0 0.72064976E+03</rscale>
<asrwt>0</asrwt>
<pdfrwt beam="1">  1        2 0.45189449E+00 0.72064976E+03</pdfrwt>
<pdfrwt beam="2">  1       -2 0.11260560E+00 0.72064976E+03</pdfrwt>
<totfact> 0.12684658E+00</totfact>
</mgrwt>
</event>
<event>
 4    1  0.1104584E-007  0.1053809E+04  0.7818608E-02  0.9251420E-01
          2   -1    0    0  501    0  0.00000000000E+00  0.00000000000E+00  0.13903257728E+04  0.13903257728E+04  0.25500000000E-02 0. -1.
         -2   -1    0    0    0  501 -0.00000000000E+00 -0.00000000000E+00 -0.87926477229E+03  0.87926477229E+03  0.25500000000E-02 0.  1.
    8880022    1    1    2    0    0  0.50250540528E+03  0.91356993164E+03 -0.87880034013E+02  0.10574669053E+04  0.15294330000E+03 0.  0.
    8880022    1    1    2    0    0 -0.50250540528E+03 -0.91356993164E+03  0.59894103450E+03  0.12121236398E+04  0.15294330000E+03 0.  0.
<mgrwt>
<rscale>  0 0.10538090E+04</rscale>
<asrwt>0</asrwt>
<pdfrwt beam="1">  1        2 0.21389627E+00 0.10538090E+04</pdfrwt>
<pdfrwt beam="2">  1       -2 0.13527150E+00 0.10538090E+04</pdfrwt>
<totfact> 0.56778371E+00</totfact>
</mgrwt>
</event>
<event>
 4    1  0.1104584E-007  0.7266575E+03  0.7818608E-02  0.9672700E-01
          2   -1    0    0  501    0  0.00000000000E+00  0.00000000000E+00  0.20511374187E+04  0.20511374187E+04  0.25500000000E-02 0. -1.
         -2   -1    0    0    0  501 -0.00000000000E+00 -0.00000000000E+00 -0.26810389866E+03  0.26810389868E+03  0.25500000000E-02 0.  1.
    8880022    1    1    2    0    0  0.70864855766E+03  0.49564682038E+02  0.66017255370E+03  0.98176315354E+03  0.15294330000E+03 0.  0.
    8880022    1    1    2    0    0 -0.70864855766E+03 -0.49564682038E+02  0.11228609663E+04  0.13374781638E+04  0.15294330000E+03 0.  0.
<mgrwt>
<rscale>  0 0.72665748E+03</rscale>
<asrwt>0</asrwt>
<pdfrwt beam="1">  1        2 0.31555959E+00 0.72665748E+03</pdfrwt>
<pdfrwt beam="2">  1       -2 0.41246755E-01 0.72665748E+03</pdfrwt>
<totfact> 0.36085437E+01</totfact>
</mgrwt>
</event>
<event>
 4    1  0.1104584E-007  0.4894582E+03  0.7818608E-02  0.1016568E+00
          2   -1    0    0  501    0  0.00000000000E+00  0.00000000000E+00  0.29302083657E+04  0.29302083657E+04  0.25500000000E-02 0. -1.
         -2   -1    0    0    0  501 -0.00000000000E+00 -0.00000000000E+00 -0.15851721842E+03  0.15851721844E+03  0.25500000000E-02 0.  1.
    8880022    1    1    2    0    0  0.69264645165E+02  0.45976085679E+03  0.24605155396E+04  0.25087259735E+04  0.15294330000E+03 0. -1.
    8880022    1    1    2    0    0 -0.69264645165E+02 -0.45976085679E+03  0.31117560767E+03  0.57999961062E+03  0.15294330000E+03 0.  0.
<mgrwt>
<rscale>  0 0.48945816E+03</rscale>
<asrwt>0</asrwt>
<pdfrwt beam="1">  1        2 0.45080128E+00 0.48945816E+03</pdfrwt>
<pdfrwt beam="2">  1       -2 0.24387265E-01 0.48945816E+03</pdfrwt>
<totfact> 0.31996869E+01</totfact>
</mgrwt>
</event>
<event>
 4    1  0.1104584E-007  0.5419950E+03  0.7818608E-02  0.1003364E+00
         -2   -1    0    0    0  501 -0.00000000000E+00  0.00000000000E+00  0.74359471250E+03  0.74359471250E+03  0.25500000000E-02 0.  1.
          2   -1    0    0  501    0  0.00000000000E+00 -0.00000000000E+00 -0.55925071857E+03  0.55925071857E+03  0.25500000000E-02 0. -1.
    8880022    1    1    2    0    0 -0.26358931900E+03  0.44820480181E+03 -0.26080353163E+03  0.60147901757E+03  0.15294330000E+03 0.  0.
    8880022    1    1    2    0    0  0.26358931900E+03 -0.44820480181E+03  0.44514752557E+03  0.70136641350E+03  0.15294330000E+03 0.  0.
<mgrwt>
<rscale>  0 0.54199495E+03</rscale>
<asrwt>0</asrwt>
<pdfrwt beam="1">  1        2 0.86038572E-01 0.54199495E+03</pdfrwt>
<pdfrwt beam="2">  1       -2 0.11439919E+00 0.54199495E+03</pdfrwt>
<totfact> 0.33258628E+01</totfact>
</mgrwt>
</event>
<event>
 4    1  0.1104584E-007  0.7294108E+03  0.7818608E-02  0.9668217E-01
         -2   -1    0    0    0  501 -0.00000000000E+00  0.00000000000E+00  0.58325073945E+03  0.58325073946E+03  0.25500000000E-02 0.  1.
          2   -1    0    0  501    0  0.00000000000E+00 -0.00000000000E+00 -0.28247328487E+04  0.28247328487E+04  0.25500000000E-02 0. -1.
    8880022    1    1    2    0    0  0.58961741997E+03 -0.40124772705E+03  0.28137350814E+03  0.78179993892E+03  0.15294330000E+03 0.  0.
    8880022    1    1    2    0    0 -0.58961741997E+03  0.40124772705E+03 -0.25228556174E+04  0.26261836493E+04  0.15294330000E+03 0.  0.
<mgrwt>
<rscale>  0 0.72941079E+03</rscale>
<asrwt>0</asrwt>
<pdfrwt beam="1">  1        2 0.43457428E+00 0.72941079E+03</pdfrwt>
<pdfrwt beam="2">  1       -2 0.89730885E-01 0.72941079E+03</pdfrwt>
<totfact> 0.25328772E+00</totfact>
</mgrwt>
</event>
<event>
 4    1  0.1104584E-007  0.7211973E+03  0.7818608E-02  0.9681653E-01
         -2   -1    0    0    0  501 -0.00000000000E+00  0.00000000000E+00  0.12488282820E+04  0.12488282820E+04  0.25500000000E-02 0.  1.
          2   -1    0    0  501    0  0.00000000000E+00 -0.00000000000E+00 -0.58522900244E+03  0.58522900244E+03  0.25500000000E-02 0. -1.
    8880022    1    1    2    0    0 -0.39802469574E+03 -0.58164440963E+03  0.82420939444E+03  0.10951925203E+04  0.15294330000E+03 0.  1.
    8880022    1    1    2    0    0  0.39802469574E+03  0.58164440963E+03 -0.16061011486E+03  0.73886476414E+03  0.15294330000E+03 0.  0.
<mgrwt>
<rscale>  0 0.72119729E+03</rscale>
<asrwt>0</asrwt>
<pdfrwt beam="1">  1        2 0.90035232E-01 0.72119729E+03</pdfrwt>
<pdfrwt beam="2">  1       -2 0.19212743E+00 0.72119729E+03</pdfrwt>
<totfact> 0.78372761E+00</totfact>
</mgrwt>
</event>
<event>
 4    1  0.1104584E-007  0.1599500E+04  0.7818608E-02  0.8820855E-01
          2   -1    0    0  501    0  0.00000000000E+00  0.00000000000E+00  0.24831938686E+04  0.24831938686E+04  0.25500000000E-02 0. -1.
         -2   -1    0    0    0  501 -0.00000000000E+00 -0.00000000000E+00 -0.11322197703E+04  0.11322197703E+04  0.25500000000E-02 0.  1.
    8880022    1    1    2    0    0  0.60470117184E+03  0.14728701581E+04  0.13308647269E+03  0.16050276234E+04  0.15294330000E+03 0.  0.
    8880022    1    1    2    0    0 -0.60470117184E+03 -0.14728701581E+04  0.12178876256E+04  0.20103860155E+04  0.15294330000E+03 0.  0.
<mgrwt>
<rscale>  0 0.15995004E+04</rscale>
<asrwt>0</asrwt>
<pdfrwt beam="1">  1        2 0.38202983E+00 0.15995004E+04</pdfrwt>
<pdfrwt beam="2">  1       -2 0.17418766E+00 0.15995004E+04</pdfrwt>
<totfact> 0.66078871E-01</totfact>
</mgrwt>
</event>
<event>
 4    1  0.1104584E-007  0.8628938E+03  0.7818608E-02  0.9473193E-01
          2   -1    0    0  501    0  0.00000000000E+00  0.00000000000E+00  0.27841702043E+04  0.27841702043E+04  0.25500000000E-02 0. -1.
         -2   -1    0    0    0  501 -0.00000000000E+00 -0.00000000000E+00 -0.46939194850E+03  0.46939194851E+03  0.25500000000E-02 0.  1.
    8880022    1    1    2    0    0 -0.11998856079E+03 -0.84071208825E+03  0.22244525776E+04  0.23859536862E+04  0.15294330000E+03 0.  0.
    8880022    1    1    2    0    0  0.11998856079E+03  0.84071208825E+03  0.90325678206E+02  0.86760846654E+03  0.15294330000E+03 0.  0.
<mgrwt>
<rscale>  0 0.86289381E+03</rscale>
<asrwt>0</asrwt>
<pdfrwt beam="1">  1        2 0.42833387E+00 0.86289381E+03</pdfrwt>
<pdfrwt beam="2">  1       -2 0.72214146E-01 0.86289381E+03</pdfrwt>
<totfact> 0.42605018E+00</totfact>
</mgrwt>
</event>
<event>
 4    1  0.1104584E-007  0.2020537E+03  0.7818608E-02  0.1148018E+00
         -2   -1    0    0    0  501 -0.00000000000E+00  0.00000000000E+00  0.27707088910E+02  0.27707089027E+02  0.25500000000E-02 0.  1.
          2   -1    0    0  501    0  0.00000000000E+00 -0.00000000000E+00 -0.15904887366E+04  0.15904887366E+04  0.25500000000E-02 0. -1.
    8880022    1    1    2    0    0  0.10005064459E+03  0.86162160061E+02 -0.10008502533E+04  0.10210420813E+04  0.15294330000E+03 0.  1.
    8880022    1    1    2    0    0 -0.10005064459E+03 -0.86162160061E+02 -0.56193139437E+03  0.59715374428E+03  0.15294330000E+03 0. -1.
<mgrwt>
<rscale>  0 0.20205371E+03</rscale>
<asrwt>0</asrwt>
<pdfrwt beam="1">  1        2 0.24469050E+00 0.20205371E+03</pdfrwt>
<pdfrwt beam="2">  1       -2 0.42626303E-02 0.20205371E+03</pdfrwt>
<totfact> 0.30442383E+03</totfact>
</mgrwt>
</event>
<event>
 4    1  0.1104584E-007  0.7679141E+03  0.7818608E-02  0.9607658E-01
          2   -1    0    0  501    0  0.00000000000E+00  0.00000000000E+00  0.17561815671E+04  0.17561815671E+04  0.25500000000E-02 0. -1.
         -2   -1    0    0    0  501 -0.00000000000E+00 -0.00000000000E+00 -0.67773806242E+03  0.67773806243E+03  0.25500000000E-02 0.  1.
    8880022    1    1    2    0    0  0.66774216676E+03 -0.34701704987E+03  0.14036544823E+04  0.15999806227E+04  0.15294330000E+03 0.  0.
    8880022    1    1    2    0    0 -0.66774216676E+03  0.34701704987E+03 -0.32521097764E+03  0.83393900686E+03  0.15294330000E+03 0.  0.
<mgrwt>
<rscale>  0 0.76791411E+03</rscale>
<asrwt>0</asrwt>
<pdfrwt beam="1">  1        2 0.27018178E+00 0.76791411E+03</pdfrwt>
<pdfrwt beam="2">  1       -2 0.10426740E+00 0.76791411E+03</pdfrwt>
<totfact> 0.70091928E+00</totfact>
</mgrwt>
</event>
<event>
 4    1  0.1104584E-007  0.6045388E+03  0.7818608E-02  0.9896034E-01
         -2   -1    0    0    0  501 -0.00000000000E+00  0.00000000000E+00  0.62923382612E+03  0.62923382613E+03  0.25500000000E-02 0.  1.
          2   -1    0    0  501    0  0.00000000000E+00 -0.00000000000E+00 -0.63491759017E+03  0.63491759018E+03  0.25500000000E-02 0. -1.
    8880022    1    1    2    0    0  0.54262737318E+03 -0.21824533218E+03  0.18167144706E+03  0.63124611590E+03  0.15294330000E+03 0.  0.
    8880022    1    1    2    0    0 -0.54262737318E+03  0.21824533218E+03 -0.18735521110E+03  0.63290530041E+03  0.15294330000E+03 0. -1.
<mgrwt>
<rscale>  0 0.60453879E+03</rscale>
<asrwt>0</asrwt>
<pdfrwt beam="1">  1        2 0.97679629E-01 0.60453879E+03</pdfrwt>
<pdfrwt beam="2">  1       -2 0.96805204E-01 0.60453879E+03</pdfrwt>
<totfact> 0.42313894E+01</totfact>
</mgrwt>
</event>
<event>
 4    1  0.1104584E-007  0.3805601E+03  0.7818608E-02  0.1050727E+00
          2   -1    0    0  501    0  0.00000000000E+00  0.00000000000E+00  0.14191036746E+04  0.14191036746E+04  0.25500000000E-02 0. -1.
         -2   -1    0    0    0  501 -0.00000000000E+00 -0.00000000000E+00 -0.14348767507E+03  0.14348767509E+03  0.25500000000E-02 0.  1.
    8880022    1    1    2    0    0 -0.34502492429E+03 -0.48909683685E+02  0.21796986265E+03  0.43856227560E+03  0.15294330000E+03 0.  0.
    8880022    1    1    2    0    0  0.34502492429E+03  0.48909683685E+02  0.10576461369E+04  0.11240290741E+04  0.15294330000E+03 0.  0.
<mgrwt>
<rscale>  0 0.38056012E+03</rscale>
<asrwt>0</asrwt>
<pdfrwt beam="1">  1        2 0.21832364E+00 0.38056012E+03</pdfrwt>
<pdfrwt beam="2">  1       -2 0.22075027E-01 0.38056012E+03</pdfrwt>
<totfact> 0.26487611E+02</totfact>
</mgrwt>
</event>
<event>
 4    1  0.1104584E-007  0.3121496E+03  0.7818608E-02  0.1079320E+00
         -2   -1    0    0    0  501 -0.00000000000E+00  0.00000000000E+00  0.36553340010E+03  0.36553340011E+03  0.25500000000E-02 0.  1.
          2   -1    0    0  501    0  0.00000000000E+00 -0.00000000000E+00 -0.44246170546E+03  0.44246170546E+03  0.25500000000E-02 0. -1.
    8880022    1    1    2    0    0  0.11621565651E+03  0.24604799427E+03  0.21626188153E+03  0.37974537353E+03  0.15294330000E+03 0.  0.
    8880022    1    1    2    0    0 -0.11621565651E+03 -0.24604799427E+03 -0.29319018688E+03  0.42824973205E+03  0.15294330000E+03 0. -1.
<mgrwt>
<rscale>  0 0.31214956E+03</rscale>
<asrwt>0</asrwt>
<pdfrwt beam="1">  1        2 0.68071031E-01 0.31214956E+03</pdfrwt>
<pdfrwt beam="2">  1       -2 0.56235908E-01 0.31214956E+03</pdfrwt>
<totfact> 0.21710413E+02</totfact>
</mgrwt>
</event>
<event>
 4    1  0.1104584E-007  0.1004358E+04  0.7818608E-02  0.9303778E-01
          2   -1    0    0  501    0  0.00000000000E+00  0.00000000000E+00  0.33843374629E+04  0.33843374629E+04  0.25500000000E-02 0. -1.
         -2   -1    0    0    0  501 -0.00000000000E+00 -0.00000000000E+00 -0.57379113443E+03  0.57379113444E+03  0.25500000000E-02 0.  1.
    8880022    1    1    2    0    0  0.57233943224E+03 -0.81103061103E+03  0.27771846727E+04  0.29532167948E+04  0.15294330000E+03 0.  0.
    8880022    1    1    2    0    0 -0.57233943224E+03  0.81103061103E+03  0.33361655723E+02  0.10049118025E+04  0.15294330000E+03 0.  0.
<mgrwt>
<rscale>  0 0.10043579E+04</rscale>
<asrwt>0</asrwt>
<pdfrwt beam="1">  1        2 0.52066730E+00 0.10043579E+04</pdfrwt>
<pdfrwt beam="2">  1       -2 0.88275560E-01 0.10043579E+04</pdfrwt>
<totfact> 0.11123605E+00</totfact>
</mgrwt>
</event>
<event>
 4    1  0.1104584E-007  0.1112363E+04  0.7818608E-02  0.9193225E-01
         -2   -1    0    0    0  501 -0.00000000000E+00  0.00000000000E+00  0.87596408552E+03  0.87596408552E+03  0.25500000000E-02 0.  1.
          2   -1    0    0  501    0  0.00000000000E+00 -0.00000000000E+00 -0.22697869760E+04  0.22697869760E+04  0.25500000000E-02 0. -1.
    8880022    1    1    2    0    0  0.10519185198E+04  0.32776162809E+03 -0.16635179144E+04  0.20011606037E+04  0.15294330000E+03 0.  0.
    8880022    1    1    2    0    0 -0.10519185198E+04 -0.32776162809E+03  0.26969502391E+03  0.11445904578E+04  0.15294330000E+03 0.  0.
<mgrwt>
<rscale>  0 0.11123632E+04</rscale>
<asrwt>0</asrwt>
<pdfrwt beam="1">  1        2 0.34919799E+00 0.11123632E+04</pdfrwt>
<pdfrwt beam="2">  1       -2 0.13476371E+00 0.11123632E+04</pdfrwt>
<totfact> 0.18450027E+00</totfact>
</mgrwt>
</event>
<event>
 4    1  0.1104584E-007  0.1676712E+04  0.7818608E-02  0.8774759E-01
          2   -1    0    0  501    0  0.00000000000E+00  0.00000000000E+00  0.19678442943E+04  0.19678442943E+04  0.25500000000E-02 0. -1.
         -2   -1    0    0    0  501 -0.00000000000E+00 -0.00000000000E+00 -0.19031163259E+04  0.19031163259E+04  0.25500000000E-02 0.  1.
    8880022    1    1    2    0    0  0.10307245918E+03  0.16665379756E+04 -0.93403827553E+03  0.19193206895E+04  0.15294330000E+03 0.  0.
    8880022    1    1    2    0    0 -0.10307245918E+03 -0.16665379756E+04  0.99876624387E+03  0.19516399307E+04  0.15294330000E+03 0.  0.
<mgrwt>
<rscale>  0 0.16767124E+04</rscale>
<asrwt>0</asrwt>
<pdfrwt beam="1">  1        2 0.30274528E+00 0.16767124E+04</pdfrwt>
<pdfrwt beam="2">  1       -2 0.29278713E+00 0.16767124E+04</pdfrwt>
<totfact> 0.22529001E-01</totfact>
</mgrwt>
</event>
<event>
 4    1  0.1104584E-007  0.1020744E+04  0.7818608E-02  0.9286081E-01
         -2   -1    0    0    0  501 -0.00000000000E+00  0.00000000000E+00  0.79687830039E+03  0.79687830039E+03  0.25500000000E-02 0.  1.
          2   -1    0    0  501    0  0.00000000000E+00 -0.00000000000E+00 -0.16946939605E+04  0.16946939605E+04  0.25500000000E-02 0. -1.
    8880022    1    1    2    0    0  0.50566950859E+03  0.87339867167E+03  0.14656509593E+03  0.10312128160E+04  0.15294330000E+03 0.  0.
    8880022    1    1    2    0    0 -0.50566950859E+03 -0.87339867167E+03 -0.10443807561E+04  0.14603594449E+04  0.15294330000E+03 0.  0.
<mgrwt>
<rscale>  0 0.10207441E+04</rscale>
<asrwt>0</asrwt>
<pdfrwt beam="1">  1        2 0.26072215E+00 0.10207441E+04</pdfrwt>
<pdfrwt beam="2">  1       -2 0.12259666E+00 0.10207441E+04</pdfrwt>
<totfact> 0.49358999E+00</totfact>
</mgrwt>
</event>
<event>
 4    1  0.1104584E-007  0.7548722E+03  0.7818608E-02  0.9627738E-01
         -2   -1    0    0    0  501 -0.00000000000E+00  0.00000000000E+00  0.27020430999E+03  0.27020431001E+03  0.25500000000E-02 0.  1.
          2   -1    0    0  501    0  0.00000000000E+00 -0.00000000000E+00 -0.27369073878E+04  0.27369073878E+04  0.25500000000E-02 0. -1.
    8880022    1    1    2    0    0 -0.24760447499E+03  0.69651444714E+03 -0.19535866293E+04  0.20943573530E+04  0.15294330000E+03 0.  0.
    8880022    1    1    2    0    0  0.24760447499E+03 -0.69651444714E+03 -0.51311644851E+03  0.91275434475E+03  0.15294330000E+03 0.  0.
<mgrwt>
<rscale>  0 0.75487218E+03</rscale>
<asrwt>0</asrwt>
<pdfrwt beam="1">  1        2 0.42106266E+00 0.75487218E+03</pdfrwt>
<pdfrwt beam="2">  1       -2 0.41569896E-01 0.75487218E+03</pdfrwt>
<totfact> 0.14568680E+01</totfact>
</mgrwt>
</event>
<event>
 4    1  0.1104584E-007  0.3639775E+03  0.7818608E-02  0.1057020E+00
         -2   -1    0    0    0  501 -0.00000000000E+00  0.00000000000E+00  0.46210692081E+03  0.46210692082E+03  0.25500000000E-02 0.  1.
          2   -1    0    0  501    0  0.00000000000E+00 -0.00000000000E+00 -0.91700575868E+03  0.91700575868E+03  0.25500000000E-02 0. -1.
    8880022    1    1    2    0    0  0.25539026638E+03  0.20943687504E+03  0.34424524584E+03  0.50098346787E+03  0.15294330000E+03 0.  0.
    8880022    1    1    2    0    0 -0.25539026638E+03 -0.20943687504E+03 -0.79914408370E+03  0.87812921163E+03  0.15294330000E+03 0.  0.
<mgrwt>
<rscale>  0 0.36397753E+03</rscale>
<asrwt>0</asrwt>
<pdfrwt beam="1">  1        2 0.14107781E+00 0.36397753E+03</pdfrwt>
<pdfrwt beam="2">  1       -2 0.71093372E-01 0.36397753E+03</pdfrwt>
<totfact> 0.54447513E+01</totfact>
</mgrwt>
</event>
<event>
 4    1  0.1104584E-007  0.5154602E+03  0.7818608E-02  0.1009821E+00
          2   -1    0    0  501    0  0.00000000000E+00  0.00000000000E+00  0.21931958502E+04  0.21931958502E+04  0.25500000000E-02 0. -1.
         -2   -1    0    0    0  501 -0.00000000000E+00 -0.00000000000E+00 -0.65133605414E+03  0.65133605414E+03  0.25500000000E-02 0.  1.
    8880022    1    1    2    0    0 -0.33099231742E+03  0.36435100184E+03  0.20541277088E+04  0.21178148795E+04  0.15294330000E+03 0. -1.
    8880022    1    1    2    0    0  0.33099231742E+03 -0.36435100184E+03 -0.51226791275E+03  0.72671702484E+03  0.15294330000E+03 0.  0.
<mgrwt>
<rscale>  0 0.51546020E+03</rscale>
<asrwt>0</asrwt>
<pdfrwt beam="1">  1        2 0.33741475E+00 0.51546020E+03</pdfrwt>
<pdfrwt beam="2">  1       -2 0.10020555E+00 0.51546020E+03</pdfrwt>
<totfact> 0.46833880E+00</totfact>
</mgrwt>
</event>
<event>
 4    1  0.1104584E-007  0.3032907E+03  0.7818608E-02  0.1083607E+00
          2   -1    0    0  501    0  0.00000000000E+00  0.00000000000E+00  0.52896210700E+03  0.52896210701E+03  0.25500000000E-02 0. -1.
         -2   -1    0    0    0  501 -0.00000000000E+00 -0.00000000000E+00 -0.58352025676E+03  0.58352025677E+03  0.25500000000E-02 0.  1.
    8880022    1    1    2    0    0 -0.24171003316E+03 -0.10084562643E+03 -0.49332333451E+03  0.57909683636E+03  0.15294330000E+03 0.  0.
    8880022    1    1    2    0    0  0.24171003316E+03  0.10084562643E+03  0.43876518475E+03  0.53338552742E+03  0.15294330000E+03 0. -1.
<mgrwt>
<rscale>  0 0.30329067E+03</rscale>
<asrwt>0</asrwt>
<pdfrwt beam="1">  1        2 0.81378785E-01 0.30329067E+03</pdfrwt>
<pdfrwt beam="2">  1       -2 0.89772347E-01 0.30329067E+03</pdfrwt>
<totfact> 0.64668013E+01</totfact>
</mgrwt>
</event>
<event>
 4    1  0.1104584E-007  0.6179497E+03  0.7818608E-02  0.9868850E-01
          2   -1    0    0  501    0  0.00000000000E+00  0.00000000000E+00  0.19883824608E+04  0.19883824608E+04  0.25500000000E-02 0. -1.
         -2   -1    0    0    0  501 -0.00000000000E+00 -0.00000000000E+00 -0.90180012801E+03  0.90180012801E+03  0.25500000000E-02 0.  1.
    8880022    1    1    2    0    0 -0.83327923480E+02  0.59289686253E+03 -0.73872632347E+03  0.96310875109E+03  0.15294330000E+03 0.  0.
    8880022    1    1    2    0    0  0.83327923480E+02 -0.59289686253E+03  0.18253086563E+04  0.19270738378E+04  0.15294330000E+03 0.  0.
<mgrwt>
<rscale>  0 0.61794974E+03</rscale>
<asrwt>0</asrwt>
<pdfrwt beam="1">  1        2 0.30590499E+00 0.61794974E+03</pdfrwt>
<pdfrwt beam="2">  1       -2 0.13873848E+00 0.61794974E+03</pdfrwt>
<totfact> 0.26542659E+00</totfact>
</mgrwt>
</event>
<event>
 4    1  0.1104584E-007  0.1972076E+03  0.7818608E-02  0.1152117E+00
          2   -1    0    0  501    0  0.00000000000E+00  0.00000000000E+00  0.14705038178E+04  0.14705038178E+04  0.25500000000E-02 0. -1.
         -2   -1    0    0    0  501 -0.00000000000E+00 -0.00000000000E+00 -0.16036541889E+03  0.16036541891E+03  0.25500000000E-02 0.  1.
    8880022    1    1    2    0    0 -0.47180836733E+02  0.11520914963E+03  0.14002359684E+04  0.14140550200E+04  0.15294330000E+03 0. -1.
    8880022    1    1    2    0    0  0.47180836733E+02 -0.11520914963E+03 -0.90097569472E+02  0.21681421668E+03  0.15294330000E+03 0.  0.
<mgrwt>
<rscale>  0 0.19720759E+03</rscale>
<asrwt>0</asrwt>
<pdfrwt beam="1">  1        2 0.22623135E+00 0.19720759E+03</pdfrwt>
<pdfrwt beam="2">  1       -2 0.24671604E-01 0.19720759E+03</pdfrwt>
<totfact> 0.21132569E+02</totfact>
</mgrwt>
</event>
<event>
 4    1  0.1104584E-007  0.4655373E+03  0.7818608E-02  0.1023187E+00
         -2   -1    0    0    0  501 -0.00000000000E+00  0.00000000000E+00  0.39233887415E+03  0.39233887416E+03  0.25500000000E-02 0.  1.
          2   -1    0    0  501    0  0.00000000000E+00 -0.00000000000E+00 -0.98824179966E+03  0.98824179966E+03  0.25500000000E-02 0. -1.
    8880022    1    1    2    0    0  0.12741960082E+03 -0.42082965099E+03 -0.75637659861E+03  0.88816133769E+03  0.15294330000E+03 0.  0.
    8880022    1    1    2    0    0 -0.12741960082E+03  0.42082965099E+03  0.16047367311E+03  0.49241933614E+03  0.15294330000E+03 0.  0.
<mgrwt>
<rscale>  0 0.46553733E+03</rscale>
<asrwt>0</asrwt>
<pdfrwt beam="1">  1        2 0.15203720E+00 0.46553733E+03</pdfrwt>
<pdfrwt beam="2">  1       -2 0.60359827E-01 0.46553733E+03</pdfrwt>
<totfact> 0.68465617E+01</totfact>
</mgrwt>
</event>
<event>
 4    1  0.1104584E-007  0.1668542E+03  0.7818608E-02  0.1181169E+00
         -2   -1    0    0    0  501 -0.00000000000E+00  0.00000000000E+00  0.37402282444E+03  0.37402282444E+03  0.25500000000E-02 0.  1.
          2   -1    0    0  501    0  0.00000000000E+00 -0.00000000000E+00 -0.88096550261E+03  0.88096550261E+03  0.25500000000E-02 0. -1.
    8880022    1    1    2    0    0 -0.58492940572E+02  0.32050792666E+02  0.34692865605E+03  0.38496730097E+03  0.15294330000E+03 0.  0.
    8880022    1    1    2    0    0  0.58492940572E+02 -0.32050792666E+02 -0.85387133423E+03  0.87002102609E+03  0.15294330000E+03 0. -1.
<mgrwt>
<rscale>  0 0.16685422E+03</rscale>
<asrwt>0</asrwt>
<pdfrwt beam="1">  1        2 0.13553315E+00 0.16685422E+03</pdfrwt>
<pdfrwt beam="2">  1       -2 0.57541973E-01 0.16685422E+03</pdfrwt>
<totfact> 0.93639946E+01</totfact>
</mgrwt>
</event>
<event>
 4    1  0.1104584E-007  0.6348613E+03  0.7818608E-02  0.9835608E-01
          2   -1    0    0  501    0  0.00000000000E+00  0.00000000000E+00  0.40232156911E+03  0.40232156912E+03  0.25500000000E-02 0. -1.
         -2   -1    0    0    0  501 -0.00000000000E+00 -0.00000000000E+00 -0.31438995945E+04  0.31438995945E+04  0.25500000000E-02 0.  1.
    8880022    1    1    2    0    0  0.61558955453E+03  0.26583122261E+02 -0.28343827568E+04  0.29046126123E+04  0.15294330000E+03 0.  0.
    8880022    1    1    2    0    0 -0.61558955453E+03 -0.26583122261E+02  0.92804731411E+02  0.64160855139E+03  0.15294330000E+03 0.  0.
<mgrwt>
<rscale>  0 0.63486126E+03</rscale>
<asrwt>0</asrwt>
<pdfrwt beam="1">  1        2 0.61895628E-01 0.63486126E+03</pdfrwt>
<pdfrwt beam="2">  1       -2 0.48367684E+00 0.63486126E+03</pdfrwt>
<totfact> 0.17982692E-01</totfact>
</mgrwt>
</event>
<event>
 4    1  0.1104584E-007  0.4434188E+03  0.7818608E-02  0.1029703E+00
         -2   -1    0    0    0  501 -0.00000000000E+00  0.00000000000E+00  0.20752212252E+03  0.20752212253E+03  0.25500000000E-02 0.  1.
          2   -1    0    0  501    0  0.00000000000E+00 -0.00000000000E+00 -0.12793758263E+04  0.12793758263E+04  0.25500000000E-02 0. -1.
    8880022    1    1    2    0    0 -0.18046470470E+03 -0.37504811060E+03 -0.15725601491E+03  0.47047816331E+03  0.15294330000E+03 0.  0.
    8880022    1    1    2    0    0  0.18046470470E+03  0.37504811060E+03 -0.91459768889E+03  0.10164197855E+04  0.15294330000E+03 0.  0.
<mgrwt>
<rscale>  0 0.44341882E+03</rscale>
<asrwt>0</asrwt>
<pdfrwt beam="1">  1        2 0.19682705E+00 0.44341882E+03</pdfrwt>
<pdfrwt beam="2">  1       -2 0.31926481E-01 0.44341882E+03</pdfrwt>
<totfact> 0.16171776E+02</totfact>
</mgrwt>
</event>
<event>
 4    1  0.1104584E-007  0.5924315E+03  0.7818608E-02  0.9921234E-01
          2   -1    0    0  501    0  0.00000000000E+00  0.00000000000E+00  0.14055470599E+03  0.14055470602E+03  0.25500000000E-02 0. -1.
         -2   -1    0    0    0  501 -0.00000000000E+00 -0.00000000000E+00 -0.42653583216E+04  0.42653583216E+04  0.25500000000E-02 0.  1.
    8880022    1    1    2    0    0 -0.54608445347E+03 -0.17139203757E+03 -0.64398277219E+03  0.87503652767E+03  0.15294330000E+03 0.  0.
    8880022    1    1    2    0    0  0.54608445347E+03  0.17139203757E+03 -0.34808208434E+04  0.35308764999E+04  0.15294330000E+03 0.  0.
<mgrwt>
<rscale>  0 0.59243153E+03</rscale>
<asrwt>0</asrwt>
<pdfrwt beam="1">  1        2 0.21623804E-01 0.59243153E+03</pdfrwt>
<pdfrwt beam="2">  1       -2 0.65620887E+00 0.59243153E+03</pdfrwt>
<totfact> 0.88093954E-02</totfact>
</mgrwt>
</event>
<event>
 4    1  0.1104584E-007  0.4957767E+03  0.7818608E-02  0.1014887E+00
         -2   -1    0    0    0  501 -0.00000000000E+00  0.00000000000E+00  0.29908580268E+03  0.29908580269E+03  0.25500000000E-02 0.  1.
          2   -1    0    0  501    0  0.00000000000E+00 -0.00000000000E+00 -0.13805109281E+04  0.13805109281E+04  0.25500000000E-02 0. -1.
    8880022    1    1    2    0    0  0.47019742181E+03  0.36294789406E+02 -0.64668341004E+01  0.49581891873E+03  0.15294330000E+03 0.  0.
    8880022    1    1    2    0    0 -0.47019742181E+03 -0.36294789406E+02 -0.10749582913E+04  0.11837778121E+04  0.15294330000E+03 0.  0.
<mgrwt>
<rscale>  0 0.49577674E+03</rscale>
<asrwt>0</asrwt>
<pdfrwt beam="1">  1        2 0.21238629E+00 0.49577674E+03</pdfrwt>
<pdfrwt beam="2">  1       -2 0.46013201E-01 0.49577674E+03</pdfrwt>
<totfact> 0.69769366E+01</totfact>
</mgrwt>
</event>
<event>
 4    1  0.1104584E-007  0.6106835E+03  0.7818608E-02  0.9883486E-01
          2   -1    0    0  501    0  0.00000000000E+00  0.00000000000E+00  0.33309139807E+04  0.33309139807E+04  0.25500000000E-02 0. -1.
         -2   -1    0    0    0  501 -0.00000000000E+00 -0.00000000000E+00 -0.12610873185E+03  0.12610873188E+03  0.25500000000E-02 0.  1.
    8880022    1    1    2    0    0 -0.29191748483E+03 -0.51412732330E+03  0.21813435381E+04  0.22652138987E+04  0.15294330000E+03 0.  0.
    8880022    1    1    2    0    0  0.29191748483E+03  0.51412732330E+03  0.10234617107E+04  0.11918088139E+04  0.15294330000E+03 0.  0.
<mgrwt>
<rscale>  0 0.61068353E+03</rscale>
<asrwt>0</asrwt>
<pdfrwt beam="1">  1        2 0.51244827E+00 0.61068353E+03</pdfrwt>
<pdfrwt beam="2">  1       -2 0.19401345E-01 0.61068353E+03</pdfrwt>
<totfact> 0.26229894E+01</totfact>
</mgrwt>
</event>
<event>
 4    1  0.1104584E-007  0.4539380E+03  0.7818608E-02  0.1026554E+00
         -2   -1    0    0    0  501 -0.00000000000E+00  0.00000000000E+00  0.14530700045E+03  0.14530700047E+03  0.25500000000E-02 0.  1.
          2   -1    0    0  501    0  0.00000000000E+00 -0.00000000000E+00 -0.27838656788E+04  0.27838656788E+04  0.25500000000E-02 0. -1.
    8880022    1    1    2    0    0 -0.13408883980E+03  0.40581803992E+03 -0.23451179803E+04  0.23886477540E+04  0.15294330000E+03 0.  0.
    8880022    1    1    2    0    0  0.13408883980E+03 -0.40581803992E+03 -0.29344069805E+03  0.54052492521E+03  0.15294330000E+03 0.  0.
<mgrwt>
<rscale>  0 0.45393805E+03</rscale>
<asrwt>0</asrwt>
<pdfrwt beam="1">  1        2 0.42828699E+00 0.45393805E+03</pdfrwt>
<pdfrwt beam="2">  1       -2 0.22354925E-01 0.45393805E+03</pdfrwt>
<totfact> 0.45913901E+01</totfact>
</mgrwt>
</event>
<event>
 4    1  0.1104584E-007  0.4531392E+03  0.7818608E-02  0.1026790E+00
          2   -1    0    0  501    0  0.00000000000E+00  0.00000000000E+00  0.13021505666E+04  0.13021505666E+04  0.25500000000E-02 0. -1.
         -2   -1    0    0    0  501 -0.00000000000E+00 -0.00000000000E+00 -0.28866172617E+03  0.28866172618E+03  0.25500000000E-02 0.  1.
    8880022    1    1    2    0    0  0.69000234620E+02  0.42093045530E+03  0.10425218022E+04  0.11367439649E+04  0.15294330000E+03 0.  0.
    8880022    1    1    2    0    0 -0.69000234620E+02 -0.42093045530E+03 -0.29032961732E+02  0.45406832796E+03  0.15294330000E+03 0.  1.
<mgrwt>
<rscale>  0 0.45313920E+03</rscale>
<asrwt>0</asrwt>
<pdfrwt beam="1">  1        2 0.20033085E+00 0.45313920E+03</pdfrwt>
<pdfrwt beam="2">  1       -2 0.44409497E-01 0.45313920E+03</pdfrwt>
<totfact> 0.83358332E+01</totfact>
</mgrwt>
</event>
<event>
 4    1  0.1104584E-007  0.1044370E+04  0.7818608E-02  0.9261176E-01
          2   -1    0    0  501    0  0.00000000000E+00  0.00000000000E+00  0.29297594128E+04  0.29297594128E+04  0.25500000000E-02 0. -1.
         -2   -1    0    0    0  501 -0.00000000000E+00 -0.00000000000E+00 -0.61283931650E+03  0.61283931650E+03  0.25500000000E-02 0.  1.
    8880022    1    1    2    0    0 -0.94297484169E+03 -0.42203761832E+03  0.22682075192E+04  0.24970931714E+04  0.15294330000E+03 0.  0.
    8880022    1    1    2    0    0  0.94297484169E+03  0.42203761832E+03  0.48712577031E+02  0.10455055579E+04  0.15294330000E+03 0.  0.
<mgrwt>
<rscale>  0 0.10443701E+04</rscale>
<asrwt>0</asrwt>
<pdfrwt beam="1">  1        2 0.45073221E+00 0.10443701E+04</pdfrwt>
<pdfrwt beam="2">  1       -2 0.94282973E-01 0.10443701E+04</pdfrwt>
<totfact> 0.18478336E+00</totfact>
</mgrwt>
</event>
<event>
 4    1  0.1104584E-007  0.7691111E+03  0.7818608E-02  0.9605836E-01
         -2   -1    0    0    0  501 -0.00000000000E+00  0.00000000000E+00  0.16864064953E+04  0.16864064953E+04  0.25500000000E-02 0.  1.
          2   -1    0    0  501    0  0.00000000000E+00 -0.00000000000E+00 -0.61010769612E+03  0.61010769613E+03  0.25500000000E-02 0. -1.
    8880022    1    1    2    0    0  0.35803123116E+03 -0.66329012688E+03  0.12867896586E+04  0.14991195527E+04  0.15294330000E+03 0.  0.
    8880022    1    1    2    0    0 -0.35803123116E+03  0.66329012688E+03 -0.21049085942E+03  0.79739463870E+03  0.15294330000E+03 0.  0.
<mgrwt>
<rscale>  0 0.76911105E+03</rscale>
<asrwt>0</asrwt>
<pdfrwt beam="1">  1        2 0.93862723E-01 0.76911105E+03</pdfrwt>
<pdfrwt beam="2">  1       -2 0.25944715E+00 0.76911105E+03</pdfrwt>
<totfact> 0.28130290E+00</totfact>
</mgrwt>
</event>
<event>
 4    1  0.1104584E-007  0.3559490E+03  0.7818608E-02  0.1060199E+00
         -2   -1    0    0    0  501 -0.00000000000E+00  0.00000000000E+00  0.62222680751E+03  0.62222680752E+03  0.25500000000E-02 0.  1.
          2   -1    0    0  501    0  0.00000000000E+00 -0.00000000000E+00 -0.62037582714E+03  0.62037582714E+03  0.25500000000E-02 0. -1.
    8880022    1    1    2    0    0  0.87327514424E+02 -0.30932502677E+03  0.51015562068E+03  0.62205986632E+03  0.15294330000E+03 0.  0.
    8880022    1    1    2    0    0 -0.87327514424E+02  0.30932502677E+03 -0.50830464031E+03  0.62054276834E+03  0.15294330000E+03 0.  0.
<mgrwt>
<rscale>  0 0.35594904E+03</rscale>
<asrwt>0</asrwt>
<pdfrwt beam="1">  1        2 0.95442435E-01 0.35594904E+03</pdfrwt>
<pdfrwt beam="2">  1       -2 0.95727202E-01 0.35594904E+03</pdfrwt>
<totfact> 0.45992450E+01</totfact>
</mgrwt>
</event>
<event>
 4    1  0.1104584E-007  0.3160796E+03  0.7818608E-02  0.1077468E+00
          2   -1    0    0  501    0  0.00000000000E+00  0.00000000000E+00  0.24925330903E+04  0.24925330903E+04  0.25500000000E-02 0. -1.
         -2   -1    0    0    0  501 -0.00000000000E+00 -0.00000000000E+00 -0.63807907337E+02  0.63807907388E+02  0.25500000000E-02 0.  1.
    8880022    1    1    2    0    0  0.15703329616E+02 -0.27616677231E+03  0.19937630706E+04  0.20186623084E+04  0.15294330000E+03 0.  1.
    8880022    1    1    2    0    0 -0.15703329616E+02  0.27616677231E+03  0.43496211230E+03  0.53767868922E+03  0.15294330000E+03 0.  0.
<mgrwt>
<rscale>  0 0.31607963E+03</rscale>
<asrwt>0</asrwt>
<pdfrwt beam="1">  1        2 0.38346665E+00 0.31607963E+03</pdfrwt>
<pdfrwt beam="2">  1       -2 0.98166007E-02 0.31607963E+03</pdfrwt>
<totfact> 0.27434153E+02</totfact>
</mgrwt>
</event>
<event>
 4    1  0.1104584E-007  0.2097027E+03  0.7818608E-02  0.1141802E+00
         -2   -1    0    0    0  501 -0.00000000000E+00  0.00000000000E+00  0.40988126205E+03  0.40988126206E+03  0.25500000000E-02 0.  1.
          2   -1    0    0  501    0  0.00000000000E+00 -0.00000000000E+00 -0.23347975659E+04  0.23347975659E+04  0.25500000000E-02 0. -1.
    8880022    1    1    2    0    0 -0.10233176006E+03  0.10055724411E+03  0.37797988371E+03  0.43225454765E+03  0.15294330000E+03 0.  0.
    8880022    1    1    2    0    0  0.10233176006E+03 -0.10055724411E+03 -0.23028961875E+04  0.23124242803E+04  0.15294330000E+03 0. -1.
<mgrwt>
<rscale>  0 0.20970265E+03</rscale>
<asrwt>0</asrwt>
<pdfrwt beam="1">  1        2 0.35919962E+00 0.20970265E+03</pdfrwt>
<pdfrwt beam="2">  1       -2 0.63058657E-01 0.20970265E+03</pdfrwt>
<totfact> 0.12347214E+01</totfact>
</mgrwt>
</event>
<event>
 4    1  0.1104584E-007  0.3989176E+03  0.7818608E-02  0.1044155E+00
          2   -1    0    0  501    0  0.00000000000E+00  0.00000000000E+00  0.28117855391E+04  0.28117855391E+04  0.25500000000E-02 0. -1.
         -2   -1    0    0    0  501 -0.00000000000E+00 -0.00000000000E+00 -0.10170499232E+03  0.10170499235E+03  0.25500000000E-02 0.  1.
    8880022    1    1    2    0    0 -0.36545584296E+03 -0.46750401156E+02  0.23252040374E+04  0.23591755004E+04  0.15294330000E+03 0.  0.
    8880022    1    1    2    0    0  0.36545584296E+03  0.46750401156E+02  0.38487650941E+03  0.55431503107E+03  0.15294330000E+03 0.  0.
<mgrwt>
<rscale>  0 0.39891757E+03</rscale>
<asrwt>0</asrwt>
<pdfrwt beam="1">  1        2 0.43258231E+00 0.39891757E+03</pdfrwt>
<pdfrwt beam="2">  1       -2 0.15646925E-01 0.39891757E+03</pdfrwt>
<totfact> 0.82763693E+01</totfact>
</mgrwt>
</event>
<event>
 4    1  0.1104584E-007  0.8993890E+03  0.7818608E-02  0.9426346E-01
          2   -1    0    0  501    0  0.00000000000E+00  0.00000000000E+00  0.92500632451E+03  0.92500632451E+03  0.25500000000E-02 0. -1.
         -2   -1    0    0    0  501 -0.00000000000E+00 -0.00000000000E+00 -0.99023063289E+03  0.99023063289E+03  0.25500000000E-02 0.  1.
    8880022    1    1    2    0    0  0.13173045220E+02 -0.88619147294E+03 -0.36001620058E+03  0.96876837971E+03  0.15294330000E+03 0.  0.
    8880022    1    1    2    0    0 -0.13173045220E+02  0.88619147294E+03  0.29479189220E+03  0.94646857769E+03  0.15294330000E+03 0.  0.
<mgrwt>
<rscale>  0 0.89938896E+03</rscale>
<asrwt>0</asrwt>
<pdfrwt beam="1">  1        2 0.14230866E+00 0.89938896E+03</pdfrwt>
<pdfrwt beam="2">  1       -2 0.15234317E+00 0.89938896E+03</pdfrwt>
<totfact> 0.81180074E+00</totfact>
</mgrwt>
</event>
<event>
 4    1  0.1104584E-007  0.1817337E+03  0.7818608E-02  0.1166136E+00
          2   -1    0    0  501    0  0.00000000000E+00  0.00000000000E+00  0.13985913815E+04  0.13985913815E+04  0.25500000000E-02 0. -1.
         -2   -1    0    0    0  501 -0.00000000000E+00 -0.00000000000E+00 -0.53220643859E+03  0.53220643860E+03  0.25500000000E-02 0.  1.
    8880022    1    1    2    0    0 -0.35208656496E+02 -0.91628886965E+02 -0.51054552685E+03  0.54192609313E+03  0.15294330000E+03 0.  0.
    8880022    1    1    2    0    0  0.35208656496E+02  0.91628886965E+02  0.13769304698E+04  0.13888717270E+04  0.15294330000E+03 0. -1.
<mgrwt>
<rscale>  0 0.18173375E+03</rscale>
<asrwt>0</asrwt>
<pdfrwt beam="1">  1        2 0.21516790E+00 0.18173375E+03</pdfrwt>
<pdfrwt beam="2">  1       -2 0.81877915E-01 0.18173375E+03</pdfrwt>
<totfact> 0.22120689E+01</totfact>
</mgrwt>
</event>
<event>
 4    1  0.1104584E-007  0.2927875E+03  0.7818608E-02  0.1088903E+00
         -2   -1    0    0    0  501 -0.00000000000E+00  0.00000000000E+00  0.24618672133E+03  0.24618672135E+03  0.25500000000E-02 0.  1.
          2   -1    0    0  501    0  0.00000000000E+00 -0.00000000000E+00 -0.87778701353E+03  0.87778701353E+03  0.25500000000E-02 0. -1.
    8880022    1    1    2    0    0  0.24052215990E+03  0.66947508593E+02  0.12071206688E+03  0.31669533375E+03  0.15294330000E+03 0.  0.
    8880022    1    1    2    0    0 -0.24052215990E+03 -0.66947508593E+02 -0.75231235907E+03  0.80727840114E+03  0.15294330000E+03 0.  0.
<mgrwt>
<rscale>  0 0.29278752E+03</rscale>
<asrwt>0</asrwt>
<pdfrwt beam="1">  1        2 0.13504415E+00 0.29278752E+03</pdfrwt>
<pdfrwt beam="2">  1       -2 0.37874881E-01 0.29278752E+03</pdfrwt>
<totfact> 0.20926778E+02</totfact>
</mgrwt>
</event>
<event>
 4    1  0.1104584E-007  0.2368236E+03  0.7818608E-02  0.1121927E+00
          2   -1    0    0  501    0  0.00000000000E+00  0.00000000000E+00  0.22942822939E+04  0.22942822939E+04  0.25500000000E-02 0. -1.
         -2   -1    0    0    0  501 -0.00000000000E+00 -0.00000000000E+00 -0.59701205817E+02  0.59701205871E+02  0.25500000000E-02 0.  1.
    8880022    1    1    2    0    0 -0.15392090200E+03  0.94879409846E+02  0.21281844661E+03  0.31839769270E+03  0.15294330000E+03 0. -1.
    8880022    1    1    2    0    0  0.15392090200E+03 -0.94879409846E+02  0.20217626415E+04  0.20355858071E+04  0.15294330000E+03 0. -1.
<mgrwt>
<rscale>  0 0.23682356E+03</rscale>
<asrwt>0</asrwt>
<pdfrwt beam="1">  1        2 0.35296649E+00 0.23682356E+03</pdfrwt>
<pdfrwt beam="2">  1       -2 0.91848013E-02 0.23682356E+03</pdfrwt>
<totfact> 0.39781918E+02</totfact>
</mgrwt>
</event>
<event>
 4    1  0.1104584E-007  0.2329242E+03  0.7818608E-02  0.1124598E+00
         -2   -1    0    0    0  501 -0.00000000000E+00  0.00000000000E+00  0.31436064832E+03  0.31436064833E+03  0.25500000000E-02 0.  1.
          2   -1    0    0  501    0  0.00000000000E+00 -0.00000000000E+00 -0.98535352857E+03  0.98535352857E+03  0.25500000000E-02 0. -1.
    8880022    1    1    2    0    0 -0.15935118692E+03 -0.73954281916E+02  0.25471207135E+03  0.34515493462E+03  0.15294330000E+03 0.  1.
    8880022    1    1    2    0    0  0.15935118692E+03  0.73954281916E+02 -0.92570495160E+03  0.95455924228E+03  0.15294330000E+03 0.  0.
<mgrwt>
<rscale>  0 0.23292421E+03</rscale>
<asrwt>0</asrwt>
<pdfrwt beam="1">  1        2 0.15159285E+00 0.23292421E+03</pdfrwt>
<pdfrwt beam="2">  1       -2 0.48363177E-01 0.23292421E+03</pdfrwt>
<totfact> 0.11233164E+02</totfact>
</mgrwt>
</event>
<event>
 4    1  0.1104584E-007  0.6423112E+03  0.7818608E-02  0.9821315E-01
         -2   -1    0    0    0  501 -0.00000000000E+00  0.00000000000E+00  0.29932095020E+03  0.29932095021E+03  0.25500000000E-02 0.  1.
          2   -1    0    0  501    0  0.00000000000E+00 -0.00000000000E+00 -0.27412463005E+04  0.27412463005E+04  0.25500000000E-02 0. -1.
    8880022    1    1    2    0    0 -0.30720974957E+03  0.54294950236E+03 -0.22929381809E+04  0.23812032981E+04  0.15294330000E+03 0.  0.
    8880022    1    1    2    0    0  0.30720974957E+03 -0.54294950236E+03 -0.14898716938E+03  0.65936395260E+03  0.15294330000E+03 0.  0.
<mgrwt>
<rscale>  0 0.64231117E+03</rscale>
<asrwt>0</asrwt>
<pdfrwt beam="1">  1        2 0.42173018E+00 0.64231117E+03</pdfrwt>
<pdfrwt beam="2">  1       -2 0.46049379E-01 0.64231117E+03</pdfrwt>
<totfact> 0.12069417E+01</totfact>
</mgrwt>
</event>
<event>
 4    1  0.1104584E-007  0.4657743E+03  0.7818608E-02  0.1023120E+00
         -2   -1    0    0    0  501 -0.00000000000E+00  0.00000000000E+00  0.17706209235E+03  0.17706209237E+03  0.25500000000E-02 0.  1.
          2   -1    0    0  501    0  0.00000000000E+00 -0.00000000000E+00 -0.16109370476E+04  0.16109370476E+04  0.25500000000E-02 0. -1.
    8880022    1    1    2    0    0 -0.42794373269E+03 -0.10206950611E+03 -0.27950155003E+03  0.54320050802E+03  0.15294330000E+03 0.  0.
    8880022    1    1    2    0    0  0.42794373269E+03  0.10206950611E+03 -0.11543734052E+04  0.12447986320E+04  0.15294330000E+03 0.  0.
<mgrwt>
<rscale>  0 0.46577428E+03</rscale>
<asrwt>0</asrwt>
<pdfrwt beam="1">  1        2 0.24783646E+00 0.46577428E+03</pdfrwt>
<pdfrwt beam="2">  1       -2 0.27240323E-01 0.46577428E+03</pdfrwt>
<totfact> 0.14152482E+02</totfact>
</mgrwt>
</event>
<event>
 4    1  0.1104584E-007  0.1966923E+03  0.7818608E-02  0.1152560E+00
         -2   -1    0    0    0  501 -0.00000000000E+00  0.00000000000E+00  0.16597053659E+03  0.16597053661E+03  0.25500000000E-02 0.  1.
          2   -1    0    0  501    0  0.00000000000E+00 -0.00000000000E+00 -0.10712551000E+04  0.10712551000E+04  0.25500000000E-02 0. -1.
    8880022    1    1    2    0    0 -0.97223948284E+02  0.76444128237E+02  0.94543078454E+02  0.21823438675E+03  0.15294330000E+03 0.  1.
    8880022    1    1    2    0    0  0.97223948284E+02 -0.76444128237E+02 -0.99982764185E+03  0.10189912499E+04  0.15294330000E+03 0.  0.
<mgrwt>
<rscale>  0 0.19669228E+03</rscale>
<asrwt>0</asrwt>
<pdfrwt beam="1">  1        2 0.16480847E+00 0.19669228E+03</pdfrwt>
<pdfrwt beam="2">  1       -2 0.25533929E-01 0.19669228E+03</pdfrwt>
<totfact> 0.33120827E+02</totfact>
</mgrwt>
</event>
<event>
 4    1  0.1104584E-007  0.3240809E+03  0.7818608E-02  0.1073786E+00
         -2   -1    0    0    0  501 -0.00000000000E+00  0.00000000000E+00  0.19175044574E+03  0.19175044575E+03  0.25500000000E-02 0.  1.
          2   -1    0    0  501    0  0.00000000000E+00 -0.00000000000E+00 -0.28961649074E+04  0.28961649074E+04  0.25500000000E-02 0. -1.
    8880022    1    1    2    0    0  0.24139291023E+03 -0.15286010159E+03  0.38105703910E+02  0.32631341599E+03  0.15294330000E+03 0.  0.
    8880022    1    1    2    0    0 -0.24139291023E+03  0.15286010159E+03 -0.27425201656E+04  0.27616019372E+04  0.15294330000E+03 0. -1.
<mgrwt>
<rscale>  0 0.32408086E+03</rscale>
<asrwt>0</asrwt>
<pdfrwt beam="1">  1        2 0.44556380E+00 0.32408086E+03</pdfrwt>
<pdfrwt beam="2">  1       -2 0.29500071E-01 0.32408086E+03</pdfrwt>
<totfact> 0.24996169E+01</totfact>
</mgrwt>
</event>
<event>
 4    1  0.1104584E-007  0.8248217E+03  0.7818608E-02  0.9524768E-01
          2   -1    0    0  501    0  0.00000000000E+00  0.00000000000E+00  0.99529575481E+03  0.99529575481E+03  0.25500000000E-02 0. -1.
         -2   -1    0    0    0  501 -0.00000000000E+00 -0.00000000000E+00 -0.78983659266E+03  0.78983659267E+03  0.25500000000E-02 0.  1.
    8880022    1    1    2    0    0  0.46035151112E+03  0.66709492628E+03  0.43015956173E+03  0.93025160898E+03  0.15294330000E+03 0.  0.
    8880022    1    1    2    0    0 -0.46035151112E+03 -0.66709492628E+03 -0.22470039958E+03  0.85488073849E+03  0.15294330000E+03 0.  0.
<mgrwt>
<rscale>  0 0.82482168E+03</rscale>
<asrwt>0</asrwt>
<pdfrwt beam="1">  1        2 0.15312242E+00 0.82482168E+03</pdfrwt>
<pdfrwt beam="2">  1       -2 0.12151332E+00 0.82482168E+03</pdfrwt>
<totfact> 0.13169296E+01</totfact>
</mgrwt>
</event>
<event>
 4    1  0.1104584E-007  0.3888983E+03  0.7818608E-02  0.1047693E+00
          2   -1    0    0  501    0  0.00000000000E+00  0.00000000000E+00  0.18871923384E+04  0.18871923384E+04  0.25500000000E-02 0. -1.
         -2   -1    0    0    0  501 -0.00000000000E+00 -0.00000000000E+00 -0.13066970926E+03  0.13066970928E+03  0.25500000000E-02 0.  1.
    8880022    1    1    2    0    0 -0.11100619377E+03  0.33989392294E+03  0.15056578944E+04  0.15550715745E+04  0.15294330000E+03 0.  0.
    8880022    1    1    2    0    0  0.11100619377E+03 -0.33989392294E+03  0.25086473478E+03  0.46279047320E+03  0.15294330000E+03 0.  0.
<mgrwt>
<rscale>  0 0.38889832E+03</rscale>
<asrwt>0</asrwt>
<pdfrwt beam="1">  1        2 0.29033727E+00 0.38889832E+03</pdfrwt>
<pdfrwt beam="2">  1       -2 0.20103033E-01 0.38889832E+03</pdfrwt>
<totfact> 0.17440480E+02</totfact>
</mgrwt>
</event>
<event>
 4    1  0.1104584E-007  0.3784773E+03  0.7818608E-02  0.1051498E+00
          2   -1    0    0  501    0  0.00000000000E+00  0.00000000000E+00  0.48113497152E+03  0.48113497153E+03  0.25500000000E-02 0. -1.
         -2   -1    0    0    0  501 -0.00000000000E+00 -0.00000000000E+00 -0.18039834197E+04  0.18039834197E+04  0.25500000000E-02 0.  1.
    8880022    1    1    2    0    0 -0.69784885771E+02 -0.33909215162E+03 -0.17054529165E+04  0.17469443955E+04  0.15294330000E+03 0.  0.
    8880022    1    1    2    0    0  0.69784885771E+02  0.33909215162E+03  0.38260446827E+03  0.53817399578E+03  0.15294330000E+03 0.  0.
<mgrwt>
<rscale>  0 0.37847731E+03</rscale>
<asrwt>0</asrwt>
<pdfrwt beam="1">  1        2 0.74020766E-01 0.37847731E+03</pdfrwt>
<pdfrwt beam="2">  1       -2 0.27753591E+00 0.37847731E+03</pdfrwt>
<totfact> 0.31347079E+00</totfact>
</mgrwt>
</event>
<event>
 4    1  0.1104584E-007  0.1187643E+04  0.7818608E-02  0.9123742E-01
          2   -1    0    0  501    0  0.00000000000E+00  0.00000000000E+00  0.32717237666E+04  0.32717237666E+04  0.25500000000E-02 0. -1.
         -2   -1    0    0    0  501 -0.00000000000E+00 -0.00000000000E+00 -0.57174757628E+03  0.57174757628E+03  0.25500000000E-02 0.  1.
    8880022    1    1    2    0    0 -0.10335473605E+04  0.56469721671E+03  0.39690266488E+03  0.12522086373E+04  0.15294330000E+03 0.  0.
    8880022    1    1    2    0    0  0.10335473605E+04 -0.56469721671E+03  0.23030735254E+04  0.25912627056E+04  0.15294330000E+03 0.  0.
<mgrwt>
<rscale>  0 0.11876425E+04</rscale>
<asrwt>0</asrwt>
<pdfrwt beam="1">  1        2 0.50334212E+00 0.11876425E+04</pdfrwt>
<pdfrwt beam="2">  1       -2 0.87961165E-01 0.11876425E+04</pdfrwt>
<totfact> 0.12946698E+00</totfact>
</mgrwt>
</event>
<event>
 4    1  0.1104584E-007  0.1675115E+03  0.7818608E-02  0.1180468E+00
         -2   -1    0    0    0  501 -0.00000000000E+00  0.00000000000E+00  0.66176407739E+03  0.66176407740E+03  0.25500000000E-02 0.  1.
          2   -1    0    0  501    0  0.00000000000E+00 -0.00000000000E+00 -0.12834382224E+04  0.12834382224E+04  0.25500000000E-02 0. -1.
    8880022    1    1    2    0    0  0.67086962241E+02  0.12953133501E+02  0.64556284308E+03  0.66694188769E+03  0.15294330000E+03 0.  1.
    8880022    1    1    2    0    0 -0.67086962241E+02 -0.12953133501E+02 -0.12672369881E+04  0.12782604121E+04  0.15294330000E+03 0.  0.
<mgrwt>
<rscale>  0 0.16751148E+03</rscale>
<asrwt>0</asrwt>
<pdfrwt beam="1">  1        2 0.19745203E+00 0.16751148E+03</pdfrwt>
<pdfrwt beam="2">  1       -2 0.10180986E+00 0.16751148E+03</pdfrwt>
<totfact> 0.15710872E+01</totfact>
</mgrwt>
</event>
<event>
 4    1  0.1104584E-007  0.2121364E+03  0.7818608E-02  0.1139885E+00
          2   -1    0    0  501    0  0.00000000000E+00  0.00000000000E+00  0.54467772121E+03  0.54467772121E+03  0.25500000000E-02 0. -1.
         -2   -1    0    0    0  501 -0.00000000000E+00 -0.00000000000E+00 -0.12944615931E+03  0.12944615934E+03  0.25500000000E-02 0.  1.
    8880022    1    1    2    0    0  0.88965588135E+02  0.11702698257E+03  0.48920706112E+01  0.21219278002E+03  0.15294330000E+03 0.  0.
    8880022    1    1    2    0    0 -0.88965588135E+02 -0.11702698257E+03  0.41033949128E+03  0.46193110054E+03  0.15294330000E+03 0.  0.
<mgrwt>
<rscale>  0 0.21213638E+03</rscale>
<asrwt>0</asrwt>
<pdfrwt beam="1">  1        2 0.83796573E-01 0.21213638E+03</pdfrwt>
<pdfrwt beam="2">  1       -2 0.19914794E-01 0.21213638E+03</pdfrwt>
<totfact> 0.11941439E+03</totfact>
</mgrwt>
</event>
<event>
 4    1  0.1104584E-007  0.6582968E+03  0.7818608E-02  0.9791334E-01
          2   -1    0    0  501    0  0.00000000000E+00  0.00000000000E+00  0.74892252856E+03  0.74892252857E+03  0.25500000000E-02 0. -1.
         -2   -1    0    0    0  501 -0.00000000000E+00 -0.00000000000E+00 -0.26043268000E+04  0.26043268000E+04  0.25500000000E-02 0.  1.
    8880022    1    1    2    0    0  0.27189328454E+02 -0.63970594972E+03 -0.24063832771E+04  0.24948016136E+04  0.15294330000E+03 0.  0.
    8880022    1    1    2    0    0 -0.27189328454E+02  0.63970594972E+03  0.55097900567E+03  0.85844771500E+03  0.15294330000E+03 0.  0.
<mgrwt>
<rscale>  0 0.65829675E+03</rscale>
<asrwt>0</asrwt>
<pdfrwt beam="1">  1        2 0.11521885E+00 0.65829675E+03</pdfrwt>
<pdfrwt beam="2">  1       -2 0.40066566E+00 0.65829675E+03</pdfrwt>
<totfact> 0.30062643E-01</totfact>
</mgrwt>
</event>
<event>
 4    1  0.1104584E-007  0.2913094E+03  0.7818608E-02  0.1089667E+00
         -2   -1    0    0    0  501 -0.00000000000E+00  0.00000000000E+00  0.10004064276E+03  0.10004064279E+03  0.25500000000E-02 0.  1.
          2   -1    0    0  501    0  0.00000000000E+00 -0.00000000000E+00 -0.11115027573E+04  0.11115027573E+04  0.25500000000E-02 0. -1.
    8880022    1    1    2    0    0  0.13374456641E+03  0.20876279434E+03 -0.21093190633E+03  0.35965738622E+03  0.15294330000E+03 0.  1.
    8880022    1    1    2    0    0 -0.13374456641E+03 -0.20876279434E+03 -0.80053020826E+03  0.85188601392E+03  0.15294330000E+03 0.  0.
<mgrwt>
<rscale>  0 0.29130940E+03</rscale>
<asrwt>0</asrwt>
<pdfrwt beam="1">  1        2 0.17100042E+00 0.29130940E+03</pdfrwt>
<pdfrwt beam="2">  1       -2 0.15390869E-01 0.29130940E+03</pdfrwt>
<totfact> 0.73888704E+02</totfact>
</mgrwt>
</event>
<event>
 4    1  0.1104584E-007  0.3802086E+03  0.7818608E-02  0.1050857E+00
         -2   -1    0    0    0  501 -0.00000000000E+00  0.00000000000E+00  0.32707656475E+03  0.32707656476E+03  0.25500000000E-02 0.  1.
          2   -1    0    0  501    0  0.00000000000E+00 -0.00000000000E+00 -0.10342275393E+04  0.10342275393E+04  0.25500000000E-02 0. -1.
    8880022    1    1    2    0    0  0.25158611377E+02 -0.34717999819E+03 -0.86865207915E+03  0.94821674448E+03  0.15294330000E+03 0.  0.
    8880022    1    1    2    0    0 -0.25158611377E+02  0.34717999819E+03  0.16150110458E+03  0.41308735961E+03  0.15294330000E+03 0.  0.
<mgrwt>
<rscale>  0 0.38020857E+03</rscale>
<asrwt>0</asrwt>
<pdfrwt beam="1">  1        2 0.15911193E+00 0.38020857E+03</pdfrwt>
<pdfrwt beam="2">  1       -2 0.50319472E-01 0.38020857E+03</pdfrwt>
<totfact> 0.94315404E+01</totfact>
</mgrwt>
</event>
<event>
 4    1  0.1104584E-007  0.3195359E+03  0.7818608E-02  0.1075863E+00
          2   -1    0    0  501    0  0.00000000000E+00  0.00000000000E+00  0.18459956712E+04  0.18459956712E+04  0.25500000000E-02 0. -1.
         -2   -1    0    0    0  501 -0.00000000000E+00 -0.00000000000E+00 -0.11288826999E+03  0.11288827002E+03  0.25500000000E-02 0.  1.
    8880022    1    1    2    0    0  0.27009757175E+03  0.75887155132E+02  0.16706424170E+03  0.36057408732E+03  0.15294330000E+03 0.  0.
    8880022    1    1    2    0    0 -0.27009757175E+03 -0.75887155132E+02  0.15660431595E+04  0.15983098539E+04  0.15294330000E+03 0.  0.
<mgrwt>
<rscale>  0 0.31953593E+03</rscale>
<asrwt>0</asrwt>
<pdfrwt beam="1">  1        2 0.28399932E+00 0.31953593E+03</pdfrwt>
<pdfrwt beam="2">  1       -2 0.17367427E-01 0.31953593E+03</pdfrwt>
<totfact> 0.23854878E+02</totfact>
</mgrwt>
</event>
<event>
 4    1  0.1104584E-007  0.6182932E+03  0.7818608E-02  0.9868164E-01
          2   -1    0    0  501    0  0.00000000000E+00  0.00000000000E+00  0.85307077057E+03  0.85307077057E+03  0.25500000000E-02 0. -1.
         -2   -1    0    0    0  501 -0.00000000000E+00 -0.00000000000E+00 -0.13153377299E+04  0.13153377299E+04  0.25500000000E-02 0.  1.
    8880022    1    1    2    0    0 -0.59568526581E+03  0.63670347755E+02 -0.11114808407E+04  0.12718789885E+04  0.15294330000E+03 0.  1.
    8880022    1    1    2    0    0  0.59568526581E+03 -0.63670347755E+02  0.64921388137E+03  0.89652951199E+03  0.15294330000E+03 0. -1.
<mgrwt>
<rscale>  0 0.61829322E+03</rscale>
<asrwt>0</asrwt>
<pdfrwt beam="1">  1        2 0.13124166E+00 0.61829322E+03</pdfrwt>
<pdfrwt beam="2">  1       -2 0.20235965E+00 0.61829322E+03</pdfrwt>
<totfact> 0.42307012E+00</totfact>
</mgrwt>
</event>
<event>
 4    1  0.1104584E-007  0.2853856E+03  0.7818608E-02  0.1092783E+00
          2   -1    0    0  501    0  0.00000000000E+00  0.00000000000E+00  0.23258978611E+04  0.23258978611E+04  0.25500000000E-02 0. -1.
         -2   -1    0    0    0  501 -0.00000000000E+00 -0.00000000000E+00 -0.90368450657E+02  0.90368450693E+02  0.25500000000E-02 0.  1.
    8880022    1    1    2    0    0 -0.23242296573E+03  0.63504738552E+02  0.20632888394E+04  0.20829320139E+04  0.15294330000E+03 0.  0.
    8880022    1    1    2    0    0  0.23242296573E+03 -0.63504738552E+02  0.17224057106E+03  0.33333429789E+03  0.15294330000E+03 0.  0.
<mgrwt>
<rscale>  0 0.28538560E+03</rscale>
<asrwt>0</asrwt>
<pdfrwt beam="1">  1        2 0.35783043E+00 0.28538560E+03</pdfrwt>
<pdfrwt beam="2">  1       -2 0.13902839E-01 0.28538560E+03</pdfrwt>
<totfact> 0.19366758E+02</totfact>
</mgrwt>
</event>
<event>
 4    1  0.1104584E-007  0.5028055E+03  0.7818608E-02  0.1013049E+00
         -2   -1    0    0    0  501 -0.00000000000E+00  0.00000000000E+00  0.53570147664E+03  0.53570147665E+03  0.25500000000E-02 0.  1.
          2   -1    0    0  501    0  0.00000000000E+00 -0.00000000000E+00 -0.11907186180E+04  0.11907186180E+04  0.25500000000E-02 0. -1.
    8880022    1    1    2    0    0 -0.15233291555E+03  0.45411061387E+03 -0.99818433158E+03  0.11176696201E+04  0.15294330000E+03 0.  0.
    8880022    1    1    2    0    0  0.15233291555E+03 -0.45411061387E+03  0.34316719025E+03  0.60875047455E+03  0.15294330000E+03 0.  0.
<mgrwt>
<rscale>  0 0.50280555E+03</rscale>
<asrwt>0</asrwt>
<pdfrwt beam="1">  1        2 0.18318748E+00 0.50280555E+03</pdfrwt>
<pdfrwt beam="2">  1       -2 0.82415612E-01 0.50280555E+03</pdfrwt>
<totfact> 0.26087506E+01</totfact>
</mgrwt>
</event>
<event>
 4    1  0.1104584E-007  0.4450167E+03  0.7818608E-02  0.1029219E+00
          2   -1    0    0  501    0  0.00000000000E+00  0.00000000000E+00  0.20092850614E+04  0.20092850614E+04  0.25500000000E-02 0. -1.
         -2   -1    0    0    0  501 -0.00000000000E+00 -0.00000000000E+00 -0.14144645311E+03  0.14144645314E+03  0.25500000000E-02 0.  1.
    8880022    1    1    2    0    0 -0.32590076851E+03 -0.26160455282E+03  0.34180136905E+03  0.56113107370E+03  0.15294330000E+03 0.  0.
    8880022    1    1    2    0    0  0.32590076851E+03  0.26160455282E+03  0.15260372393E+04  0.15896004409E+04  0.15294330000E+03 0.  0.
<mgrwt>
<rscale>  0 0.44501675E+03</rscale>
<asrwt>0</asrwt>
<pdfrwt beam="1">  1        2 0.30912075E+00 0.44501675E+03</pdfrwt>
<pdfrwt beam="2">  1       -2 0.21760995E-01 0.44501675E+03</pdfrwt>
<totfact> 0.12947490E+02</totfact>
</mgrwt>
</event>
<event>
 4    1  0.1104584E-007  0.7039910E+03  0.7818608E-02  0.9710431E-01
          2   -1    0    0  501    0  0.00000000000E+00  0.00000000000E+00  0.39152156260E+04  0.39152156260E+04  0.25500000000E-02 0. -1.
         -2   -1    0    0    0  501 -0.00000000000E+00 -0.00000000000E+00 -0.22856356013E+03  0.22856356015E+03  0.25500000000E-02 0.  1.
    8880022    1    1    2    0    0  0.44830333922E+03 -0.52080301540E+03  0.45937774279E+03  0.84061360231E+03  0.15294330000E+03 0.  0.
    8880022    1    1    2    0    0 -0.44830333922E+03  0.52080301540E+03  0.32272743231E+04  0.33031655838E+04  0.15294330000E+03 0.  0.
<mgrwt>
<rscale>  0 0.70399099E+03</rscale>
<asrwt>0</asrwt>
<pdfrwt beam="1">  1        2 0.60234088E+00 0.70399099E+03</pdfrwt>
<pdfrwt beam="2">  1       -2 0.35163624E-01 0.70399099E+03</pdfrwt>
<totfact> 0.33842478E+00</totfact>
</mgrwt>
</event>
<event>
 4    1  0.1104584E-007  0.7742769E+03  0.7818608E-02  0.9598015E-01
         -2   -1    0    0    0  501 -0.00000000000E+00  0.00000000000E+00  0.12512459074E+04  0.12512459074E+04  0.25500000000E-02 0.  1.
          2   -1    0    0  501    0  0.00000000000E+00 -0.00000000000E+00 -0.94210608509E+03  0.94210608509E+03  0.25500000000E-02 0. -1.
    8880022    1    1    2    0    0 -0.74513992073E+03 -0.14449770632E+03  0.92336301322E+03  0.12050327779E+04  0.15294330000E+03 0.  0.
    8880022    1    1    2    0    0  0.74513992073E+03  0.14449770632E+03 -0.61422319094E+03  0.98831921458E+03  0.15294330000E+03 0.  0.
<mgrwt>
<rscale>  0 0.77427692E+03</rscale>
<asrwt>0</asrwt>
<pdfrwt beam="1">  1        2 0.14493940E+00 0.77427692E+03</pdfrwt>
<pdfrwt beam="2">  1       -2 0.19249937E+00 0.77427692E+03</pdfrwt>
<totfact> 0.41754889E+00</totfact>
</mgrwt>
</event>
<event>
 4    1  0.1104584E-007  0.6700517E+03  0.7818608E-02  0.9769864E-01
          2   -1    0    0  501    0  0.00000000000E+00  0.00000000000E+00  0.16115927911E+04  0.16115927911E+04  0.25500000000E-02 0. -1.
         -2   -1    0    0    0  501 -0.00000000000E+00 -0.00000000000E+00 -0.37968219220E+03  0.37968219221E+03  0.25500000000E-02 0.  1.
    8880022    1    1    2    0    0 -0.22669812824E+03 -0.61170708651E+03  0.11297099604E+04  0.13134739619E+04  0.15294330000E+03 0.  0.
    8880022    1    1    2    0    0  0.22669812824E+03  0.61170708651E+03  0.10220063848E+03  0.67780102136E+03  0.15294330000E+03 0.  0.
<mgrwt>
<rscale>  0 0.67005168E+03</rscale>
<asrwt>0</asrwt>
<pdfrwt beam="1">  1        2 0.24793735E+00 0.67005168E+03</pdfrwt>
<pdfrwt beam="2">  1       -2 0.58412645E-01 0.67005168E+03</pdfrwt>
<totfact> 0.31177126E+01</totfact>
</mgrwt>
</event>
<event>
 4    1  0.1104584E-007  0.7247110E+03  0.7818608E-02  0.9675882E-01
          2   -1    0    0  501    0  0.00000000000E+00  0.00000000000E+00  0.25341124894E+04  0.25341124894E+04  0.25500000000E-02 0. -1.
         -2   -1    0    0    0  501 -0.00000000000E+00 -0.00000000000E+00 -0.23752068670E+03  0.23752068672E+03  0.25500000000E-02 0.  1.
    8880022    1    1    2    0    0 -0.60564084589E+03 -0.36744184396E+03  0.65360432574E+03  0.97591219407E+03  0.15294330000E+03 0.  0.
    8880022    1    1    2    0    0  0.60564084589E+03  0.36744184396E+03  0.16429874770E+04  0.17957209820E+04  0.15294330000E+03 0.  0.
<mgrwt>
<rscale>  0 0.72471097E+03</rscale>
<asrwt>0</asrwt>
<pdfrwt beam="1">  1        2 0.38986349E+00 0.72471097E+03</pdfrwt>
<pdfrwt beam="2">  1       -2 0.36541641E-01 0.72471097E+03</pdfrwt>
<totfact> 0.24610319E+01</totfact>
</mgrwt>
</event>
<event>
 4    1  0.1104584E-007  0.5148502E+03  0.7818608E-02  0.1009974E+00
         -2   -1    0    0    0  501 -0.00000000000E+00  0.00000000000E+00  0.24610690182E+03  0.24610690183E+03  0.25500000000E-02 0.  1.
          2   -1    0    0  501    0  0.00000000000E+00 -0.00000000000E+00 -0.21401542566E+04  0.21401542566E+04  0.25500000000E-02 0. -1.
    8880022    1    1    2    0    0  0.23186035279E+03  0.43349723616E+03 -0.17879390555E+04  0.18605904429E+04  0.15294330000E+03 0.  0.
    8880022    1    1    2    0    0 -0.23186035279E+03 -0.43349723616E+03 -0.10610829924E+03  0.52567071550E+03  0.15294330000E+03 0.  0.
<mgrwt>
<rscale>  0 0.51485020E+03</rscale>
<asrwt>0</asrwt>
<pdfrwt beam="1">  1        2 0.32925449E+00 0.51485020E+03</pdfrwt>
<pdfrwt beam="2">  1       -2 0.37862602E-01 0.51485020E+03</pdfrwt>
<totfact> 0.39407416E+01</totfact>
</mgrwt>
</event>
<event>
 4    1  0.1104584E-007  0.1161542E+04  0.7818608E-02  0.9147201E-01
          2   -1    0    0  501    0  0.00000000000E+00  0.00000000000E+00  0.16598543814E+04  0.16598543814E+04  0.25500000000E-02 0. -1.
         -2   -1    0    0    0  501 -0.00000000000E+00 -0.00000000000E+00 -0.12618628198E+04  0.12618628198E+04  0.25500000000E-02 0.  1.
    8880022    1    1    2    0    0 -0.11220771595E+04 -0.25832389017E+03  0.10704427766E+04  0.15795656919E+04  0.15294330000E+03 0.  0.
    8880022    1    1    2    0    0  0.11220771595E+04  0.25832389017E+03 -0.67245121502E+03  0.13421515092E+04  0.15294330000E+03 0.  0.
<mgrwt>
<rscale>  0 0.11615421E+04</rscale>
<asrwt>0</asrwt>
<pdfrwt beam="1">  1        2 0.25536221E+00 0.11615421E+04</pdfrwt>
<pdfrwt beam="2">  1       -2 0.19413274E+00 0.11615421E+04</pdfrwt>
<totfact> 0.14633588E+00</totfact>
</mgrwt>
</event>
<event>
 4    1  0.1104584E-007  0.7059312E+03  0.7818608E-02  0.9707143E-01
          2   -1    0    0  501    0  0.00000000000E+00  0.00000000000E+00  0.13721936115E+04  0.13721936115E+04  0.25500000000E-02 0. -1.
         -2   -1    0    0    0  501 -0.00000000000E+00 -0.00000000000E+00 -0.68509987163E+03  0.68509987163E+03  0.25500000000E-02 0.  1.
    8880022    1    1    2    0    0  0.39327700892E+03 -0.56593318535E+03 -0.36158493859E+03  0.79314721008E+03  0.15294330000E+03 0.  0.
    8880022    1    1    2    0    0 -0.39327700892E+03  0.56593318535E+03  0.10486786785E+04  0.12641462731E+04  0.15294330000E+03 0.  0.
<mgrwt>
<rscale>  0 0.70593118E+03</rscale>
<asrwt>0</asrwt>
<pdfrwt beam="1">  1        2 0.21110671E+00 0.70593118E+03</pdfrwt>
<pdfrwt beam="2">  1       -2 0.10539998E+00 0.70593118E+03</pdfrwt>
<totfact> 0.11245327E+01</totfact>
</mgrwt>
</event>
<event>
 4    1  0.1104584E-007  0.4742957E+03  0.7818608E-02  0.1020715E+00
          2   -1    0    0  501    0  0.00000000000E+00  0.00000000000E+00  0.20624763721E+04  0.20624763721E+04  0.25500000000E-02 0. -1.
         -2   -1    0    0    0  501 -0.00000000000E+00 -0.00000000000E+00 -0.32860342245E+03  0.32860342246E+03  0.25500000000E-02 0.  1.
    8880022    1    1    2    0    0 -0.44198241519E+03  0.78843554008E+02 -0.11024976227E+03  0.48694088393E+03  0.15294330000E+03 0.  0.
    8880022    1    1    2    0    0  0.44198241519E+03 -0.78843554008E+02  0.18441227119E+04  0.19041389106E+04  0.15294330000E+03 0.  0.
<mgrwt>
<rscale>  0 0.47429570E+03</rscale>
<asrwt>0</asrwt>
<pdfrwt beam="1">  1        2 0.31730405E+00 0.47429570E+03</pdfrwt>
<pdfrwt beam="2">  1       -2 0.50554373E-01 0.47429570E+03</pdfrwt>
<totfact> 0.24758088E+01</totfact>
</mgrwt>
</event>
<event>
 4    1  0.1104584E-007  0.1050765E+04  0.7818608E-02  0.9254554E-01
         -2   -1    0    0    0  501 -0.00000000000E+00  0.00000000000E+00  0.10342681639E+04  0.10342681639E+04  0.25500000000E-02 0.  1.
          2   -1    0    0  501    0  0.00000000000E+00 -0.00000000000E+00 -0.20811094256E+04  0.20811094256E+04  0.25500000000E-02 0. -1.
    8880022    1    1    2    0    0 -0.10345009990E+04 -0.10258615485E+03  0.56366321739E+03  0.11924026634E+04  0.15294330000E+03 0.  0.
    8880022    1    1    2    0    0  0.10345009990E+04  0.10258615485E+03 -0.16105044791E+04  0.19229749260E+04  0.15294330000E+03 0.  0.
<mgrwt>
<rscale>  0 0.10507654E+04</rscale>
<asrwt>0</asrwt>
<pdfrwt beam="1">  1        2 0.32017068E+00 0.10507654E+04</pdfrwt>
<pdfrwt beam="2">  1       -2 0.15911818E+00 0.10507654E+04</pdfrwt>
<totfact> 0.15266111E+00</totfact>
</mgrwt>
</event>
<event>
 4    1  0.1104584E-007  0.9411656E+03  0.7818608E-02  0.9375537E-01
          2   -1    0    0  501    0  0.00000000000E+00  0.00000000000E+00  0.21070508519E+04  0.21070508519E+04  0.25500000000E-02 0. -1.
         -2   -1    0    0    0  501 -0.00000000000E+00 -0.00000000000E+00 -0.62305854944E+03  0.62305854945E+03  0.25500000000E-02 0.  1.
    8880022    1    1    2    0    0 -0.10135024399E+03 -0.92310842833E+03  0.15205235998E+04  0.17882350832E+04  0.15294330000E+03 0.  0.
    8880022    1    1    2    0    0  0.10135024399E+03  0.92310842833E+03 -0.36531297336E+02  0.94187431811E+03  0.15294330000E+03 0.  0.
<mgrwt>
<rscale>  0 0.94116560E+03</rscale>
<asrwt>0</asrwt>
<pdfrwt beam="1">  1        2 0.32416167E+00 0.94116560E+03</pdfrwt>
<pdfrwt beam="2">  1       -2 0.95855162E-01 0.94116560E+03</pdfrwt>
<totfact> 0.53665206E+00</totfact>
</mgrwt>
</event>
<event>
 4    1  0.1104584E-007  0.1501252E+04  0.7818608E-02  0.8883621E-01
         -2   -1    0    0    0  501 -0.00000000000E+00  0.00000000000E+00  0.17733237226E+04  0.17733237226E+04  0.25500000000E-02 0.  1.
          2   -1    0    0  501    0  0.00000000000E+00 -0.00000000000E+00 -0.23923103933E+04  0.23923103933E+04  0.25500000000E-02 0. -1.
    8880022    1    1    2    0    0 -0.22773481735E+02 -0.14932673914E+04 -0.17354955829E+04  0.22947119002E+04  0.15294330000E+03 0.  0.
    8880022    1    1    2    0    0  0.22773481735E+02  0.14932673914E+04  0.11165089122E+04  0.18709222158E+04  0.15294330000E+03 0.  0.
<mgrwt>
<rscale>  0 0.15012521E+04</rscale>
<asrwt>0</asrwt>
<pdfrwt beam="1">  1        2 0.36804775E+00 0.15012521E+04</pdfrwt>
<pdfrwt beam="2">  1       -2 0.27281904E+00 0.15012521E+04</pdfrwt>
<totfact> 0.17536465E-01</totfact>
</mgrwt>
</event>
<event>
 4    1  0.1104584E-007  0.1908068E+03  0.7818608E-02  0.1157736E+00
          2   -1    0    0  501    0  0.00000000000E+00  0.00000000000E+00  0.22861097226E+03  0.22861097227E+03  0.25500000000E-02 0. -1.
         -2   -1    0    0    0  501 -0.00000000000E+00 -0.00000000000E+00 -0.52665224161E+03  0.52665224162E+03  0.25500000000E-02 0.  1.
    8880022    1    1    2    0    0 -0.95558245327E+02  0.62323359743E+02 -0.46443019386E+03  0.50209823481E+03  0.15294330000E+03 0.  0.
    8880022    1    1    2    0    0  0.95558245327E+02 -0.62323359743E+02  0.16638892451E+03  0.25316497908E+03  0.15294330000E+03 0. -1.
<mgrwt>
<rscale>  0 0.19080679E+03</rscale>
<asrwt>0</asrwt>
<pdfrwt beam="1">  1        2 0.35170919E-01 0.19080679E+03</pdfrwt>
<pdfrwt beam="2">  1       -2 0.81023421E-01 0.19080679E+03</pdfrwt>
<totfact> 0.20580375E+02</totfact>
</mgrwt>
</event>
<event>
 4    1  0.1104584E-007  0.8451359E+03  0.7818608E-02  0.9496889E-01
          2   -1    0    0  501    0  0.00000000000E+00  0.00000000000E+00  0.11634568249E+04  0.11634568249E+04  0.25500000000E-02 0. -1.
         -2   -1    0    0    0  501 -0.00000000000E+00 -0.00000000000E+00 -0.84744102933E+03  0.84744102934E+03  0.25500000000E-02 0.  1.
    8880022    1    1    2    0    0 -0.21481941116E+03  0.80294191595E+03  0.68582078187E+03  0.10883955612E+04  0.15294330000E+03 0.  0.
    8880022    1    1    2    0    0  0.21481941116E+03 -0.80294191595E+03 -0.36980498628E+03  0.92250229305E+03  0.15294330000E+03 0.  0.
<mgrwt>
<rscale>  0 0.84513594E+03</rscale>
<asrwt>0</asrwt>
<pdfrwt beam="1">  1        2 0.17899336E+00 0.84513594E+03</pdfrwt>
<pdfrwt beam="2">  1       -2 0.13037554E+00 0.84513594E+03</pdfrwt>
<totfact> 0.86592865E+00</totfact>
</mgrwt>
</event>
<event>
 4    1  0.1104584E-007  0.2892352E+03  0.7818608E-02  0.1090749E+00
          2   -1    0    0  501    0  0.00000000000E+00  0.00000000000E+00  0.15348224427E+04  0.15348224427E+04  0.25500000000E-02 0. -1.
         -2   -1    0    0    0  501 -0.00000000000E+00 -0.00000000000E+00 -0.32956207655E+03  0.32956207656E+03  0.25500000000E-02 0.  1.
    8880022    1    1    2    0    0 -0.19728501388E+03  0.14609579319E+03 -0.24899306821E+03  0.38164716496E+03  0.15294330000E+03 0.  0.
    8880022    1    1    2    0    0  0.19728501388E+03 -0.14609579319E+03  0.14542534344E+04  0.14827373543E+04  0.15294330000E+03 0. -1.
<mgrwt>
<rscale>  0 0.28923522E+03</rscale>
<asrwt>0</asrwt>
<pdfrwt beam="1">  1        2 0.23612653E+00 0.28923522E+03</pdfrwt>
<pdfrwt beam="2">  1       -2 0.50701858E-01 0.28923522E+03</pdfrwt>
<totfact> 0.49302284E+01</totfact>
</mgrwt>
</event>
<event>
 4    1  0.1104584E-007  0.3985362E+03  0.7818608E-02  0.1044288E+00
          2   -1    0    0  501    0  0.00000000000E+00  0.00000000000E+00  0.19138873706E+04  0.19138873706E+04  0.25500000000E-02 0. -1.
         -2   -1    0    0    0  501 -0.00000000000E+00 -0.00000000000E+00 -0.27769089917E+03  0.27769089918E+03  0.25500000000E-02 0.  1.
    8880022    1    1    2    0    0  0.31326579289E+02  0.36668531170E+03 -0.99455560636E+02  0.41075848614E+03  0.15294330000E+03 0.  0.
    8880022    1    1    2    0    0 -0.31326579289E+02 -0.36668531170E+03  0.17356520320E+04  0.17808197836E+04  0.15294330000E+03 0. -1.
<mgrwt>
<rscale>  0 0.39853623E+03</rscale>
<asrwt>0</asrwt>
<pdfrwt beam="1">  1        2 0.29444421E+00 0.39853623E+03</pdfrwt>
<pdfrwt beam="2">  1       -2 0.42721677E-01 0.39853623E+03</pdfrwt>
<totfact> 0.42291434E+01</totfact>
</mgrwt>
</event>
<event>
 4    1  0.1104584E-007  0.5049260E+03  0.7818608E-02  0.1012501E+00
          2   -1    0    0  501    0  0.00000000000E+00  0.00000000000E+00  0.17260765420E+04  0.17260765420E+04  0.25500000000E-02 0. -1.
         -2   -1    0    0    0  501 -0.00000000000E+00 -0.00000000000E+00 -0.40909203412E+03  0.40909203412E+03  0.25500000000E-02 0.  1.
    8880022    1    1    2    0    0  0.42265949323E+03  0.23003825070E+03 -0.19487034524E+03  0.54122522897E+03  0.15294330000E+03 0.  0.
    8880022    1    1    2    0    0 -0.42265949323E+03 -0.23003825070E+03  0.15118548531E+04  0.15939433472E+04  0.15294330000E+03 0.  0.
<mgrwt>
<rscale>  0 0.50492603E+03</rscale>
<asrwt>0</asrwt>
<pdfrwt beam="1">  1        2 0.26555024E+00 0.50492603E+03</pdfrwt>
<pdfrwt beam="2">  1       -2 0.62937235E-01 0.50492603E+03</pdfrwt>
<totfact> 0.23694417E+01</totfact>
</mgrwt>
</event>
<event>
 4    1  0.1104584E-007  0.2845783E+03  0.7818608E-02  0.1093214E+00
         -2   -1    0    0    0  501 -0.00000000000E+00  0.00000000000E+00  0.13520272125E+04  0.13520272125E+04  0.25500000000E-02 0.  1.
          2   -1    0    0  501    0  0.00000000000E+00 -0.00000000000E+00 -0.22726943408E+03  0.22726943410E+03  0.25500000000E-02 0. -1.
    8880022    1    1    2    0    0  0.15897872677E+03  0.17977460933E+03  0.12400248305E+04  0.12722603424E+04  0.15294330000E+03 0.  0.
    8880022    1    1    2    0    0 -0.15897872677E+03 -0.17977460933E+03 -0.11526705211E+03  0.30703630411E+03  0.15294330000E+03 0.  0.
<mgrwt>
<rscale>  0 0.28457828E+03</rscale>
<asrwt>0</asrwt>
<pdfrwt beam="1">  1        2 0.34964527E-01 0.28457828E+03</pdfrwt>
<pdfrwt beam="2">  1       -2 0.20800419E+00 0.28457828E+03</pdfrwt>
<totfact> 0.19096937E+01</totfact>
</mgrwt>
</event>
<event>
 4    1  0.1104584E-007  0.8724152E+03  0.7818608E-02  0.9460736E-01
          2   -1    0    0  501    0  0.00000000000E+00  0.00000000000E+00  0.32137051727E+03  0.32137051729E+03  0.25500000000E-02 0. -1.
         -2   -1    0    0    0  501 -0.00000000000E+00 -0.00000000000E+00 -0.31312293359E+04  0.31312293359E+04  0.25500000000E-02 0.  1.
    8880022    1    1    2    0    0 -0.24498958809E+03 -0.82322340893E+03 -0.22570384672E+04  0.24197791170E+04  0.15294330000E+03 0.  0.
    8880022    1    1    2    0    0  0.24498958809E+03  0.82322340893E+03 -0.55282035141E+03  0.10328207362E+04  0.15294330000E+03 0.  0.
<mgrwt>
<rscale>  0 0.87241523E+03</rscale>
<asrwt>0</asrwt>
<pdfrwt beam="1">  1        2 0.49441620E-01 0.87241523E+03</pdfrwt>
<pdfrwt beam="2">  1       -2 0.48172757E+00 0.87241523E+03</pdfrwt>
<totfact> 0.22729166E-01</totfact>
</mgrwt>
</event>
<event>
 4    1  0.1104584E-007  0.1718906E+03  0.7818608E-02  0.1175890E+00
         -2   -1    0    0    0  501 -0.00000000000E+00  0.00000000000E+00  0.75495417910E+02  0.75495417953E+02  0.25500000000E-02 0.  1.
          2   -1    0    0  501    0  0.00000000000E+00 -0.00000000000E+00 -0.43469121272E+03  0.43469121272E+03  0.25500000000E-02 0. -1.
    8880022    1    1    2    0    0 -0.66973289651E+02 -0.40857172073E+02 -0.99064480868E+02  0.19839393746E+03  0.15294330000E+03 0. -1.
    8880022    1    1    2    0    0  0.66973289651E+02  0.40857172073E+02 -0.26013131394E+03  0.31179269322E+03  0.15294330000E+03 0.  0.
<mgrwt>
<rscale>  0 0.17189061E+03</rscale>
<asrwt>0</asrwt>
<pdfrwt beam="1">  1        2 0.66875570E-01 0.17189061E+03</pdfrwt>
<pdfrwt beam="2">  1       -2 0.11614680E-01 0.17189061E+03</pdfrwt>
<totfact> 0.37139872E+03</totfact>
</mgrwt>
</event>
<event>
 4    1  0.1104584E-007  0.2207830E+03  0.7818608E-02  0.1133301E+00
          2   -1    0    0  501    0  0.00000000000E+00  0.00000000000E+00  0.15722032942E+04  0.15722032942E+04  0.25500000000E-02 0. -1.
         -2   -1    0    0    0  501 -0.00000000000E+00 -0.00000000000E+00 -0.13600209703E+03  0.13600209706E+03  0.25500000000E-02 0.  1.
    8880022    1    1    2    0    0  0.15263542227E+03  0.45342049941E+02  0.14685601673E+04  0.14850636659E+04  0.15294330000E+03 0. -1.
    8880022    1    1    2    0    0 -0.15263542227E+03 -0.45342049941E+02 -0.32358970200E+02  0.22314172535E+03  0.15294330000E+03 0.  0.
<mgrwt>
<rscale>  0 0.22078299E+03</rscale>
<asrwt>0</asrwt>
<pdfrwt beam="1">  1        2 0.24187745E+00 0.22078299E+03</pdfrwt>
<pdfrwt beam="2">  1       -2 0.20923398E-01 0.22078299E+03</pdfrwt>
<totfact> 0.24714274E+02</totfact>
</mgrwt>
</event>
<event>
 4    1  0.1104584E-007  0.4775851E+03  0.7818608E-02  0.1019801E+00
         -2   -1    0    0    0  501 -0.00000000000E+00  0.00000000000E+00  0.26727263990E+03  0.26727263991E+03  0.25500000000E-02 0.  1.
          2   -1    0    0  501    0  0.00000000000E+00 -0.00000000000E+00 -0.25637242336E+04  0.25637242336E+04  0.25500000000E-02 0. -1.
    8880022    1    1    2    0    0  0.45187550953E+03 -0.22458553366E+02  0.79246948443E+01  0.47765083119E+03  0.15294330000E+03 0.  0.
    8880022    1    1    2    0    0 -0.45187550953E+03  0.22458553366E+02 -0.23043762886E+04  0.23533460423E+04  0.15294330000E+03 0. -1.
<mgrwt>
<rscale>  0 0.47758509E+03</rscale>
<asrwt>0</asrwt>
<pdfrwt beam="1">  1        2 0.39441910E+00 0.47758509E+03</pdfrwt>
<pdfrwt beam="2">  1       -2 0.41118869E-01 0.47758509E+03</pdfrwt>
<totfact> 0.19783723E+01</totfact>
</mgrwt>
</event>
<event>
 4    1  0.1104584E-007  0.7595386E+03  0.7818608E-02  0.9620504E-01
          2   -1    0    0  501    0  0.00000000000E+00  0.00000000000E+00  0.85700339685E+03  0.85700339686E+03  0.25500000000E-02 0. -1.
         -2   -1    0    0    0  501 -0.00000000000E+00 -0.00000000000E+00 -0.92975553577E+03  0.92975553577E+03  0.25500000000E-02 0.  1.
    8880022    1    1    2    0    0 -0.73278639893E+03  0.12857421689E+03  0.43295318631E+03  0.87426960959E+03  0.15294330000E+03 0.  0.
    8880022    1    1    2    0    0  0.73278639893E+03 -0.12857421689E+03 -0.50570532522E+03  0.91248932304E+03  0.15294330000E+03 0.  0.
<mgrwt>
<rscale>  0 0.75953860E+03</rscale>
<asrwt>0</asrwt>
<pdfrwt beam="1">  1        2 0.13184668E+00 0.75953860E+03</pdfrwt>
<pdfrwt beam="2">  1       -2 0.14303931E+00 0.75953860E+03</pdfrwt>
<totfact> 0.10819741E+01</totfact>
</mgrwt>
</event>
<event>
 4    1  0.1104584E-007  0.6235019E+03  0.7818608E-02  0.9857812E-01
         -2   -1    0    0    0  501 -0.00000000000E+00  0.00000000000E+00  0.23176592013E+03  0.23176592015E+03  0.25500000000E-02 0.  1.
          2   -1    0    0  501    0  0.00000000000E+00 -0.00000000000E+00 -0.18511327368E+04  0.18511327369E+04  0.25500000000E-02 0. -1.
    8880022    1    1    2    0    0 -0.17762851052E+03 -0.57776387789E+03 -0.49059465137E+03  0.79337113088E+03  0.15294330000E+03 0.  0.
    8880022    1    1    2    0    0  0.17762851052E+03  0.57776387789E+03 -0.11287721653E+04  0.12895275261E+04  0.15294330000E+03 0.  0.
<mgrwt>
<rscale>  0 0.62350192E+03</rscale>
<asrwt>0</asrwt>
<pdfrwt beam="1">  1        2 0.28478964E+00 0.62350192E+03</pdfrwt>
<pdfrwt beam="2">  1       -2 0.35656297E-01 0.62350192E+03</pdfrwt>
<totfact> 0.62266231E+01</totfact>
</mgrwt>
</event>
<event>
 4    1  0.1104584E-007  0.8142117E+03  0.7818608E-02  0.9539671E-01
          2   -1    0    0  501    0  0.00000000000E+00  0.00000000000E+00  0.21019396499E+04  0.21019396499E+04  0.25500000000E-02 0. -1.
         -2   -1    0    0    0  501 -0.00000000000E+00 -0.00000000000E+00 -0.69513290351E+03  0.69513290351E+03  0.25500000000E-02 0.  1.
    8880022    1    1    2    0    0  0.31555238252E+03 -0.73483042292E+03 -0.33026668361E+03  0.87864486106E+03  0.15294330000E+03 0.  0.
    8880022    1    1    2    0    0 -0.31555238252E+03  0.73483042292E+03  0.17370734300E+04  0.19184276923E+04  0.15294330000E+03 0.  0.
<mgrwt>
<rscale>  0 0.81421171E+03</rscale>
<asrwt>0</asrwt>
<pdfrwt beam="1">  1        2 0.32337533E+00 0.81421171E+03</pdfrwt>
<pdfrwt beam="2">  1       -2 0.10694352E+00 0.81421171E+03</pdfrwt>
<totfact> 0.42376239E+00</totfact>
</mgrwt>
</event>
<event>
 4    1  0.1104584E-007  0.1206034E+04  0.7818608E-02  0.9107591E-01
          2   -1    0    0  501    0  0.00000000000E+00  0.00000000000E+00  0.33118915980E+04  0.33118915980E+04  0.25500000000E-02 0. -1.
         -2   -1    0    0    0  501 -0.00000000000E+00 -0.00000000000E+00 -0.65596416910E+03  0.65596416910E+03  0.25500000000E-02 0.  1.
    8880022    1    1    2    0    0 -0.69711820855E+03  0.97218937359E+03  0.24684741920E+04  0.27473409807E+04  0.15294330000E+03 0.  0.
    8880022    1    1    2    0    0  0.69711820855E+03 -0.97218937359E+03  0.18745323696E+03  0.12205147864E+04  0.15294330000E+03 0.  0.
<mgrwt>
<rscale>  0 0.12060338E+04</rscale>
<asrwt>0</asrwt>
<pdfrwt beam="1">  1        2 0.50952178E+00 0.12060338E+04</pdfrwt>
<pdfrwt beam="2">  1       -2 0.10091757E+00 0.12060338E+04</pdfrwt>
<totfact> 0.87990545E-01</totfact>
</mgrwt>
</event>
<event>
 4    1  0.1104584E-007  0.3178686E+03  0.7818608E-02  0.1076634E+00
          2   -1    0    0  501    0  0.00000000000E+00  0.00000000000E+00  0.33070876295E+04  0.33070876295E+04  0.25500000000E-02 0. -1.
         -2   -1    0    0    0  501 -0.00000000000E+00 -0.00000000000E+00 -0.14870520952E+03  0.14870520954E+03  0.25500000000E-02 0.  1.
    8880022    1    1    2    0    0 -0.26781851553E+03 -0.76954570041E+02  0.31193876333E+04  0.31355413605E+04  0.15294330000E+03 0. -1.
    8880022    1    1    2    0    0  0.26781851553E+03  0.76954570041E+02  0.38994786606E+02  0.32025147854E+03  0.15294330000E+03 0.  0.
<mgrwt>
<rscale>  0 0.31786855E+03</rscale>
<asrwt>0</asrwt>
<pdfrwt beam="1">  1        2 0.50878266E+00 0.31786855E+03</pdfrwt>
<pdfrwt beam="2">  1       -2 0.22877727E-01 0.31786855E+03</pdfrwt>
<totfact> 0.22195407E+01</totfact>
</mgrwt>
</event>
<event>
 4    1  0.1104584E-007  0.7152057E+03  0.7818608E-02  0.9691576E-01
          2   -1    0    0  501    0  0.00000000000E+00  0.00000000000E+00  0.95100838152E+03  0.95100838152E+03  0.25500000000E-02 0. -1.
         -2   -1    0    0    0  501 -0.00000000000E+00 -0.00000000000E+00 -0.79256276880E+03  0.79256276881E+03  0.25500000000E-02 0.  1.
    8880022    1    1    2    0    0  0.44560014264E+03 -0.53811531122E+03 -0.41497502880E+03  0.82687574812E+03  0.15294330000E+03 0.  0.
    8880022    1    1    2    0    0 -0.44560014264E+03  0.53811531122E+03  0.57342064152E+03  0.91669540221E+03  0.15294330000E+03 0.  0.
<mgrwt>
<rscale>  0 0.71520572E+03</rscale>
<asrwt>0</asrwt>
<pdfrwt beam="1">  1        2 0.14630898E+00 0.71520572E+03</pdfrwt>
<pdfrwt beam="2">  1       -2 0.12193273E+00 0.71520572E+03</pdfrwt>
<totfact> 0.14114542E+01</totfact>
</mgrwt>
</event>
<event>
 4    1  0.1104584E-007  0.3216555E+03  0.7818608E-02  0.1074890E+00
          2   -1    0    0  501    0  0.00000000000E+00  0.00000000000E+00  0.16592181622E+04  0.16592181622E+04  0.25500000000E-02 0. -1.
         -2   -1    0    0    0  501 -0.00000000000E+00 -0.00000000000E+00 -0.14604962289E+04  0.14604962289E+04  0.25500000000E-02 0.  1.
    8880022    1    1    2    0    0  0.18059214045E+03  0.21784647373E+03 -0.14268338762E+04  0.14626404789E+04  0.15294330000E+03 0.  0.
    8880022    1    1    2    0    0 -0.18059214045E+03 -0.21784647373E+03  0.16255558096E+04  0.16570739122E+04  0.15294330000E+03 0.  0.
<mgrwt>
<rscale>  0 0.32165550E+03</rscale>
<asrwt>0</asrwt>
<pdfrwt beam="1">  1        2 0.25526433E+00 0.32165550E+03</pdfrwt>
<pdfrwt beam="2">  1       -2 0.22469173E+00 0.32165550E+03</pdfrwt>
<totfact> 0.11297959E+00</totfact>
</mgrwt>
</event>
<event>
 4    1  0.1104584E-007  0.4293215E+03  0.7818608E-02  0.1034075E+00
         -2   -1    0    0    0  501 -0.00000000000E+00  0.00000000000E+00  0.22926679959E+03  0.22926679960E+03  0.25500000000E-02 0.  1.
          2   -1    0    0  501    0  0.00000000000E+00 -0.00000000000E+00 -0.18778803988E+04  0.18778803989E+04  0.25500000000E-02 0. -1.
    8880022    1    1    2    0    0  0.35942995568E+03  0.17814439168E+03 -0.27559112786E+02  0.43020515459E+03  0.15294330000E+03 0.  1.
    8880022    1    1    2    0    0 -0.35942995568E+03 -0.17814439168E+03 -0.16210544865E+04  0.16769420439E+04  0.15294330000E+03 0.  0.
<mgrwt>
<rscale>  0 0.42932152E+03</rscale>
<asrwt>0</asrwt>
<pdfrwt beam="1">  1        2 0.28890467E+00 0.42932152E+03</pdfrwt>
<pdfrwt beam="2">  1       -2 0.35271817E-01 0.42932152E+03</pdfrwt>
<totfact> 0.63458156E+01</totfact>
</mgrwt>
</event>
<event>
 4    1  0.1104584E-007  0.2422222E+03  0.7818608E-02  0.1118321E+00
          2   -1    0    0  501    0  0.00000000000E+00  0.00000000000E+00  0.21761478943E+04  0.21761478943E+04  0.25500000000E-02 0. -1.
         -2   -1    0    0    0  501 -0.00000000000E+00 -0.00000000000E+00 -0.54819710837E+02  0.54819710897E+02  0.25500000000E-02 0.  1.
    8880022    1    1    2    0    0 -0.14584184852E+03 -0.11836432149E+03  0.26546905308E+03  0.35936809617E+03  0.15294330000E+03 0.  1.
    8880022    1    1    2    0    0  0.14584184852E+03  0.11836432149E+03  0.18558591304E+04  0.18715995091E+04  0.15294330000E+03 0.  0.
<mgrwt>
<rscale>  0 0.24222223E+03</rscale>
<asrwt>0</asrwt>
<pdfrwt beam="1">  1        2 0.33479200E+00 0.24222223E+03</pdfrwt>
<pdfrwt beam="2">  1       -2 0.84338012E-02 0.24222223E+03</pdfrwt>
<totfact> 0.52517608E+02</totfact>
</mgrwt>
</event>
<event>
 4    1  0.1104584E-007  0.7859644E+03  0.7818608E-02  0.9580558E-01
          2   -1    0    0  501    0  0.00000000000E+00  0.00000000000E+00  0.29192026969E+04  0.29192026969E+04  0.25500000000E-02 0. -1.
         -2   -1    0    0    0  501 -0.00000000000E+00 -0.00000000000E+00 -0.23148641557E+03  0.23148641558E+03  0.25500000000E-02 0.  1.
    8880022    1    1    2    0    0 -0.57821674634E+03  0.50991544055E+03  0.88227106115E+03  0.11815846312E+04  0.15294330000E+03 0.  0.
    8880022    1    1    2    0    0  0.57821674634E+03 -0.50991544055E+03  0.18054452202E+04  0.19691044813E+04  0.15294330000E+03 0.  0.
<mgrwt>
<rscale>  0 0.78596439E+03</rscale>
<asrwt>0</asrwt>
<pdfrwt beam="1">  1        2 0.44910810E+00 0.78596439E+03</pdfrwt>
<pdfrwt beam="2">  1       -2 0.35613295E-01 0.78596439E+03</pdfrwt>
<totfact> 0.15241498E+01</totfact>
</mgrwt>
</event>
<event>
 4    1  0.1104584E-007  0.1755929E+03  0.7818608E-02  0.1172138E+00
          2   -1    0    0  501    0  0.00000000000E+00  0.00000000000E+00  0.80432062477E+03  0.80432062478E+03  0.25500000000E-02 0. -1.
         -2   -1    0    0    0  501 -0.00000000000E+00 -0.00000000000E+00 -0.31069198062E+03  0.31069198063E+03  0.25500000000E-02 0.  1.
    8880022    1    1    2    0    0  0.34922873664E+01 -0.86191695818E+02  0.76879542658E+03  0.78859321925E+03  0.15294330000E+03 0.  0.
    8880022    1    1    2    0    0 -0.34922873664E+01  0.86191695818E+02 -0.27516678243E+03  0.32641938617E+03  0.15294330000E+03 0.  1.
<mgrwt>
<rscale>  0 0.17559287E+03</rscale>
<asrwt>0</asrwt>
<pdfrwt beam="1">  1        2 0.12374163E+00 0.17559287E+03</pdfrwt>
<pdfrwt beam="2">  1       -2 0.47798766E-01 0.17559287E+03</pdfrwt>
<totfact> 0.15233228E+02</totfact>
</mgrwt>
</event>
<event>
 4    1  0.1104584E-007  0.3224036E+03  0.7818608E-02  0.1074548E+00
         -2   -1    0    0    0  501 -0.00000000000E+00  0.00000000000E+00  0.25866327372E+03  0.25866327373E+03  0.25500000000E-02 0.  1.
          2   -1    0    0  501    0  0.00000000000E+00 -0.00000000000E+00 -0.87936711784E+03  0.87936711785E+03  0.25500000000E-02 0. -1.
    8880022    1    1    2    0    0  0.25994934377E+03 -0.11392448069E+03 -0.72965954688E+03  0.79771370553E+03  0.15294330000E+03 0.  0.
    8880022    1    1    2    0    0 -0.25994934377E+03  0.11392448069E+03  0.10895570276E+03  0.34031668605E+03  0.15294330000E+03 0.  0.
<mgrwt>
<rscale>  0 0.32240363E+03</rscale>
<asrwt>0</asrwt>
<pdfrwt beam="1">  1        2 0.13528725E+00 0.32240363E+03</pdfrwt>
<pdfrwt beam="2">  1       -2 0.39794350E-01 0.32240363E+03</pdfrwt>
<totfact> 0.18924293E+02</totfact>
</mgrwt>
</event>
<event>
 4    1  0.1104584E-007  0.1460696E+04  0.7818608E-02  0.8911018E-01
          2   -1    0    0  501    0  0.00000000000E+00  0.00000000000E+00  0.29054149339E+04  0.29054149339E+04  0.25500000000E-02 0. -1.
         -2   -1    0    0    0  501 -0.00000000000E+00 -0.00000000000E+00 -0.10791670256E+04  0.10791670256E+04  0.25500000000E-02 0.  1.
    8880022    1    1    2    0    0 -0.12187861672E+04 -0.79044427388E+03 -0.21301937238E+03  0.14761472750E+04  0.15294330000E+03 0.  0.
    8880022    1    1    2    0    0  0.12187861672E+04  0.79044427388E+03  0.20392672807E+04  0.25084346845E+04  0.15294330000E+03 0.  0.
<mgrwt>
<rscale>  0 0.14606962E+04</rscale>
<asrwt>0</asrwt>
<pdfrwt beam="1">  1        2 0.44698690E+00 0.14606962E+04</pdfrwt>
<pdfrwt beam="2">  1       -2 0.16602570E+00 0.14606962E+04</pdfrwt>
<totfact> 0.43076135E-01</totfact>
</mgrwt>
</event>
<event>
 4    1  0.1104584E-007  0.4451366E+03  0.7818608E-02  0.1029182E+00
         -2   -1    0    0    0  501 -0.00000000000E+00  0.00000000000E+00  0.11813216990E+03  0.11813216993E+03  0.25500000000E-02 0.  1.
          2   -1    0    0  501    0  0.00000000000E+00 -0.00000000000E+00 -0.22928760814E+04  0.22928760814E+04  0.25500000000E-02 0. -1.
    8880022    1    1    2    0    0 -0.45410607118E+02  0.41556326428E+03 -0.46276217122E+03  0.64210235164E+03  0.15294330000E+03 0.  0.
    8880022    1    1    2    0    0  0.45410607118E+02 -0.41556326428E+03 -0.17119817403E+04  0.17689058997E+04  0.15294330000E+03 0. -1.
<mgrwt>
<rscale>  0 0.44513661E+03</rscale>
<asrwt>0</asrwt>
<pdfrwt beam="1">  1        2 0.35275013E+00 0.44513661E+03</pdfrwt>
<pdfrwt beam="2">  1       -2 0.18174182E-01 0.44513661E+03</pdfrwt>
<totfact> 0.12430651E+02</totfact>
</mgrwt>
</event>
<event>
 4    1  0.1104584E-007  0.2742801E+03  0.7818608E-02  0.1098855E+00
          2   -1    0    0  501    0  0.00000000000E+00  0.00000000000E+00  0.21028508405E+04  0.21028508405E+04  0.25500000000E-02 0. -1.
         -2   -1    0    0    0  501 -0.00000000000E+00 -0.00000000000E+00 -0.45229762209E+03  0.45229762210E+03  0.25500000000E-02 0.  1.
    8880022    1    1    2    0    0 -0.30779972562E+02 -0.22558924779E+03  0.20512845084E+04  0.20695404569E+04  0.15294330000E+03 0.  0.
    8880022    1    1    2    0    0  0.30779972562E+02  0.22558924779E+03 -0.40073128996E+03  0.48560800570E+03  0.15294330000E+03 0.  0.
<mgrwt>
<rscale>  0 0.27428009E+03</rscale>
<asrwt>0</asrwt>
<pdfrwt beam="1">  1        2 0.32351551E+00 0.27428009E+03</pdfrwt>
<pdfrwt beam="2">  1       -2 0.69584251E-01 0.27428009E+03</pdfrwt>
<totfact> 0.12869275E+01</totfact>
</mgrwt>
</event>
<event>
 4    1  0.1104584E-007  0.3677734E+03  0.7818608E-02  0.1055548E+00
          2   -1    0    0  501    0  0.00000000000E+00  0.00000000000E+00  0.39494291905E+03  0.39494291906E+03  0.25500000000E-02 0. -1.
         -2   -1    0    0    0  501 -0.00000000000E+00 -0.00000000000E+00 -0.34275303701E+03  0.34275303702E+03  0.25500000000E-02 0.  1.
    8880022    1    1    2    0    0 -0.76282557178E+02 -0.32564801391E+03  0.36636794637E+02  0.36959378408E+03  0.15294330000E+03 0. -1.
    8880022    1    1    2    0    0  0.76282557178E+02  0.32564801391E+03  0.15553087411E+02  0.36810217200E+03  0.15294330000E+03 0.  1.
<mgrwt>
<rscale>  0 0.36777345E+03</rscale>
<asrwt>0</asrwt>
<pdfrwt beam="1">  1        2 0.60760449E-01 0.36777345E+03</pdfrwt>
<pdfrwt beam="2">  1       -2 0.52731236E-01 0.36777345E+03</pdfrwt>
<totfact> 0.27990508E+02</totfact>
</mgrwt>
</event>
<event>
 4    1  0.1104584E-007  0.7662133E+03  0.7818608E-02  0.9610252E-01
          2   -1    0    0  501    0  0.00000000000E+00  0.00000000000E+00  0.89550218077E+03  0.89550218078E+03  0.25500000000E-02 0. -1.
         -2   -1    0    0    0  501 -0.00000000000E+00 -0.00000000000E+00 -0.84614340212E+03  0.84614340213E+03  0.25500000000E-02 0.  1.
    8880022    1    1    2    0    0  0.16542444829E+03 -0.73234277572E+03 -0.38857305602E+03  0.85911108835E+03  0.15294330000E+03 0.  0.
    8880022    1    1    2    0    0 -0.16542444829E+03  0.73234277572E+03  0.43793183467E+03  0.88253449455E+03  0.15294330000E+03 0.  0.
<mgrwt>
<rscale>  0 0.76621331E+03</rscale>
<asrwt>0</asrwt>
<pdfrwt beam="1">  1        2 0.13776957E+00 0.76621331E+03</pdfrwt>
<pdfrwt beam="2">  1       -2 0.13017591E+00 0.76621331E+03</pdfrwt>
<totfact> 0.12962833E+01</totfact>
</mgrwt>
</event>
<event>
 4    1  0.1104584E-007  0.7304140E+03  0.7818608E-02  0.9666589E-01
         -2   -1    0    0    0  501 -0.00000000000E+00  0.00000000000E+00  0.13689997246E+04  0.13689997246E+04  0.25500000000E-02 0.  1.
          2   -1    0    0  501    0  0.00000000000E+00 -0.00000000000E+00 -0.17251562371E+04  0.17251562371E+04  0.25500000000E-02 0. -1.
    8880022    1    1    2    0    0  0.35070662714E+03  0.62218789745E+03  0.11830911528E+04  0.13903989525E+04  0.15294330000E+03 0.  0.
    8880022    1    1    2    0    0 -0.35070662714E+03 -0.62218789745E+03 -0.15392476654E+04  0.17037570092E+04  0.15294330000E+03 0.  0.
<mgrwt>
<rscale>  0 0.73041397E+03</rscale>
<asrwt>0</asrwt>
<pdfrwt beam="1">  1        2 0.26540865E+00 0.73041397E+03</pdfrwt>
<pdfrwt beam="2">  1       -2 0.21061534E+00 0.73041397E+03</pdfrwt>
<totfact> 0.11237975E+00</totfact>
</mgrwt>
</event>
<event>
 4    1  0.1104584E-007  0.5342541E+03  0.7818608E-02  0.1005206E+00
          2   -1    0    0  501    0  0.00000000000E+00  0.00000000000E+00  0.15898524276E+04  0.15898524276E+04  0.25500000000E-02 0. -1.
         -2   -1    0    0    0  501 -0.00000000000E+00 -0.00000000000E+00 -0.53506054849E+03  0.53506054849E+03  0.25500000000E-02 0.  1.
    8880022    1    1    2    0    0  0.46729574188E+03  0.20897483803E+03  0.13934553256E+04  0.14923622854E+04  0.15294330000E+03 0.  0.
    8880022    1    1    2    0    0 -0.46729574188E+03 -0.20897483803E+03 -0.33866344650E+03  0.63255069071E+03  0.15294330000E+03 0.  0.
<mgrwt>
<rscale>  0 0.53425410E+03</rscale>
<asrwt>0</asrwt>
<pdfrwt beam="1">  1        2 0.24459268E+00 0.53425410E+03</pdfrwt>
<pdfrwt beam="2">  1       -2 0.82317006E-01 0.53425410E+03</pdfrwt>
<totfact> 0.15535203E+01</totfact>
</mgrwt>
</event>
<event>
 4    1  0.1104584E-007  0.5109705E+03  0.7818608E-02  0.1010954E+00
          2   -1    0    0  501    0  0.00000000000E+00  0.00000000000E+00  0.63595294957E+03  0.63595294957E+03  0.25500000000E-02 0. -1.
         -2   -1    0    0    0  501 -0.00000000000E+00 -0.00000000000E+00 -0.96329504220E+03  0.96329504220E+03  0.25500000000E-02 0.  1.
    8880022    1    1    2    0    0  0.41445457078E+03 -0.25676183297E+03  0.44204396506E+03  0.67564321218E+03  0.15294330000E+03 0.  0.
    8880022    1    1    2    0    0 -0.41445457078E+03  0.25676183297E+03 -0.76938605769E+03  0.92360477960E+03  0.15294330000E+03 0.  0.
<mgrwt>
<rscale>  0 0.51097053E+03</rscale>
<asrwt>0</asrwt>
<pdfrwt beam="1">  1        2 0.97838916E-01 0.51097053E+03</pdfrwt>
<pdfrwt beam="2">  1       -2 0.14819924E+00 0.51097053E+03</pdfrwt>
<totfact> 0.14918115E+01</totfact>
</mgrwt>
</event>
<event>
 4    1  0.1104584E-007  0.1143066E+04  0.7818608E-02  0.9164204E-01
          2   -1    0    0  501    0  0.00000000000E+00  0.00000000000E+00  0.18224075095E+04  0.18224075095E+04  0.25500000000E-02 0. -1.
         -2   -1    0    0    0  501 -0.00000000000E+00 -0.00000000000E+00 -0.11557003429E+04  0.11557003429E+04  0.25500000000E-02 0.  1.
    8880022    1    1    2    0    0 -0.79516161269E+03 -0.80680068824E+03 -0.58411139954E+03  0.12836616069E+04  0.15294330000E+03 0.  0.
    8880022    1    1    2    0    0  0.79516161269E+03  0.80680068824E+03  0.12508185661E+04  0.16944462456E+04  0.15294330000E+03 0.  0.
<mgrwt>
<rscale>  0 0.11430665E+04</rscale>
<asrwt>0</asrwt>
<pdfrwt beam="1">  1        2 0.28037038E+00 0.11430665E+04</pdfrwt>
<pdfrwt beam="2">  1       -2 0.17780005E+00 0.11430665E+04</pdfrwt>
<totfact> 0.15393273E+00</totfact>
</mgrwt>
</event>
<event>
 4    1  0.1104584E-007  0.6932533E+03  0.7818608E-02  0.9728840E-01
          2   -1    0    0  501    0  0.00000000000E+00  0.00000000000E+00  0.71688233849E+03  0.71688233850E+03  0.25500000000E-02 0. -1.
         -2   -1    0    0    0  501 -0.00000000000E+00 -0.00000000000E+00 -0.77749764732E+03  0.77749764732E+03  0.25500000000E-02 0.  1.
    8880022    1    1    2    0    0  0.26279614153E+03 -0.62301422936E+03  0.24700202898E+03  0.73594170783E+03  0.15294330000E+03 0.  0.
    8880022    1    1    2    0    0 -0.26279614153E+03  0.62301422936E+03 -0.30761733781E+03  0.75843827799E+03  0.15294330000E+03 0.  0.
<mgrwt>
<rscale>  0 0.69325334E+03</rscale>
<asrwt>0</asrwt>
<pdfrwt beam="1">  1        2 0.11028959E+00 0.69325334E+03</pdfrwt>
<pdfrwt beam="2">  1       -2 0.11961502E+00 0.69325334E+03</pdfrwt>
<totfact> 0.21689222E+01</totfact>
</mgrwt>
</event>
<event>
 4    1  0.1104584E-007  0.1651701E+03  0.7818608E-02  0.1182980E+00
         -2   -1    0    0    0  501 -0.00000000000E+00  0.00000000000E+00  0.25967365156E+03  0.25967365158E+03  0.25500000000E-02 0.  1.
          2   -1    0    0  501    0  0.00000000000E+00 -0.00000000000E+00 -0.10753034745E+04  0.10753034745E+04  0.25500000000E-02 0. -1.
    8880022    1    1    2    0    0  0.40591167194E+02  0.47348412259E+02 -0.10418580326E+04  0.10548693418E+04  0.15294330000E+03 0.  0.
    8880022    1    1    2    0    0 -0.40591167194E+02 -0.47348412259E+02  0.22622820966E+03  0.28010778436E+03  0.15294330000E+03 0.  1.
<mgrwt>
<rscale>  0 0.16517012E+03</rscale>
<asrwt>0</asrwt>
<pdfrwt beam="1">  1        2 0.16543130E+00 0.16517012E+03</pdfrwt>
<pdfrwt beam="2">  1       -2 0.39949793E-01 0.16517012E+03</pdfrwt>
<totfact> 0.14626105E+02</totfact>
</mgrwt>
</event>
<event>
 4    1  0.1104584E-007  0.6601169E+03  0.7818608E-02  0.9787979E-01
         -2   -1    0    0    0  501 -0.00000000000E+00  0.00000000000E+00  0.33053391180E+03  0.33053391181E+03  0.25500000000E-02 0.  1.
          2   -1    0    0  501    0  0.00000000000E+00 -0.00000000000E+00 -0.22119370981E+04  0.22119370981E+04  0.25500000000E-02 0. -1.
    8880022    1    1    2    0    0 -0.50030464542E+03 -0.40256412893E+03 -0.17487024697E+04  0.18691480938E+04  0.15294330000E+03 0.  0.
    8880022    1    1    2    0    0  0.50030464542E+03  0.40256412893E+03 -0.13270071661E+03  0.67332291609E+03  0.15294330000E+03 0.  0.
<mgrwt>
<rscale>  0 0.66011686E+03</rscale>
<asrwt>0</asrwt>
<pdfrwt beam="1">  1        2 0.34029801E+00 0.66011686E+03</pdfrwt>
<pdfrwt beam="2">  1       -2 0.50851372E-01 0.66011686E+03</pdfrwt>
<totfact> 0.19583176E+01</totfact>
</mgrwt>
</event>
<event>
 4    1  0.1104584E-007  0.9208173E+03  0.7818608E-02  0.9399927E-01
          2   -1    0    0  501    0  0.00000000000E+00  0.00000000000E+00  0.20559261029E+04  0.20559261029E+04  0.25500000000E-02 0. -1.
         -2   -1    0    0    0  501 -0.00000000000E+00 -0.00000000000E+00 -0.46932420483E+03  0.46932420483E+03  0.25500000000E-02 0.  1.
    8880022    1    1    2    0    0 -0.14355775282E+03 -0.89660690172E+03  0.35364667295E+03  0.98639261296E+03  0.15294330000E+03 0.  0.
    8880022    1    1    2    0    0  0.14355775282E+03  0.89660690172E+03  0.12329552251E+04  0.15388576948E+04  0.15294330000E+03 0.  0.
<mgrwt>
<rscale>  0 0.92081726E+03</rscale>
<asrwt>0</asrwt>
<pdfrwt beam="1">  1        2 0.31629633E+00 0.92081726E+03</pdfrwt>
<pdfrwt beam="2">  1       -2 0.72203723E-01 0.92081726E+03</pdfrwt>
<totfact> 0.10938961E+01</totfact>
</mgrwt>
</event>
<event>
 4    1  0.1104584E-007  0.4998871E+03  0.7818608E-02  0.1013808E+00
         -2   -1    0    0    0  501 -0.00000000000E+00  0.00000000000E+00  0.79500001777E+02  0.79500001818E+02  0.25500000000E-02 0.  1.
          2   -1    0    0  501    0  0.00000000000E+00 -0.00000000000E+00 -0.33056853006E+04  0.33056853006E+04  0.25500000000E-02 0. -1.
    8880022    1    1    2    0    0  0.32751367251E+03 -0.34529735854E+03 -0.19883100992E+04  0.20501863757E+04  0.15294330000E+03 0.  0.
    8880022    1    1    2    0    0 -0.32751367251E+03  0.34529735854E+03 -0.12378751996E+04  0.13349989267E+04  0.15294330000E+03 0.  0.
<mgrwt>
<rscale>  0 0.49988711E+03</rscale>
<asrwt>0</asrwt>
<pdfrwt beam="1">  1        2 0.50856686E+00 0.49988711E+03</pdfrwt>
<pdfrwt beam="2">  1       -2 0.12230772E-01 0.49988711E+03</pdfrwt>
<totfact> 0.60790551E+01</totfact>
</mgrwt>
</event>
<event>
 4    1  0.1104584E-007  0.5260344E+03  0.7818608E-02  0.1007198E+00
         -2   -1    0    0    0  501 -0.00000000000E+00  0.00000000000E+00  0.67187349748E+03  0.67187349749E+03  0.25500000000E-02 0.  1.
          2   -1    0    0  501    0  0.00000000000E+00 -0.00000000000E+00 -0.15170069663E+04  0.15170069663E+04  0.25500000000E-02 0. -1.
    8880022    1    1    2    0    0 -0.13339096107E+03 -0.48531167076E+03  0.51156885253E+03  0.73376761318E+03  0.15294330000E+03 0.  0.
    8880022    1    1    2    0    0  0.13339096107E+03  0.48531167076E+03 -0.13567023213E+04  0.14551128506E+04  0.15294330000E+03 0. -1.
<mgrwt>
<rscale>  0 0.52603443E+03</rscale>
<asrwt>0</asrwt>
<pdfrwt beam="1">  1        2 0.23338569E+00 0.52603443E+03</pdfrwt>
<pdfrwt beam="2">  1       -2 0.10336515E+00 0.52603443E+03</pdfrwt>
<totfact> 0.10077332E+01</totfact>
</mgrwt>
</event>
<event>
 4    1  0.1104584E-007  0.3746099E+03  0.7818608E-02  0.1052944E+00
          2   -1    0    0  501    0  0.00000000000E+00  0.00000000000E+00  0.95525637148E+03  0.95525637148E+03  0.25500000000E-02 0. -1.
         -2   -1    0    0    0  501 -0.00000000000E+00 -0.00000000000E+00 -0.32355896665E+03  0.32355896666E+03  0.25500000000E-02 0.  1.
    8880022    1    1    2    0    0  0.33496321571E+03 -0.68852043866E+02 -0.15660792835E+03  0.40602790059E+03  0.15294330000E+03 0.  1.
    8880022    1    1    2    0    0 -0.33496321571E+03  0.68852043866E+02  0.78830533317E+03  0.87278743755E+03  0.15294330000E+03 0.  0.
<mgrwt>
<rscale>  0 0.37460995E+03</rscale>
<asrwt>0</asrwt>
<pdfrwt beam="1">  1        2 0.14696252E+00 0.37460995E+03</pdfrwt>
<pdfrwt beam="2">  1       -2 0.49778302E-01 0.37460995E+03</pdfrwt>
<totfact> 0.10807183E+02</totfact>
</mgrwt>
</event>
<event>
 4    1  0.1104584E-007  0.4805009E+03  0.7818608E-02  0.1018998E+00
         -2   -1    0    0    0  501 -0.00000000000E+00  0.00000000000E+00  0.40939804452E+03  0.40939804453E+03  0.25500000000E-02 0.  1.
          2   -1    0    0  501    0  0.00000000000E+00 -0.00000000000E+00 -0.67194244930E+03  0.67194244931E+03  0.25500000000E-02 0. -1.
    8880022    1    1    2    0    0  0.39280984663E+03 -0.23062932602E+03 -0.34802154381E+03  0.59329597133E+03  0.15294330000E+03 0.  0.
    8880022    1    1    2    0    0 -0.39280984663E+03  0.23062932602E+03  0.85477139034E+02  0.48804452250E+03  0.15294330000E+03 0.  0.
<mgrwt>
<rscale>  0 0.48050090E+03</rscale>
<asrwt>0</asrwt>
<pdfrwt beam="1">  1        2 0.10337576E+00 0.48050090E+03</pdfrwt>
<pdfrwt beam="2">  1       -2 0.62984315E-01 0.48050090E+03</pdfrwt>
<totfact> 0.10399240E+02</totfact>
</mgrwt>
</event>
<event>
 4    1  0.1104584E-007  0.5053240E+03  0.7818608E-02  0.1012399E+00
         -2   -1    0    0    0  501 -0.00000000000E+00  0.00000000000E+00  0.46408742797E+03  0.46408742798E+03  0.25500000000E-02 0.  1.
          2   -1    0    0  501    0  0.00000000000E+00 -0.00000000000E+00 -0.62357048037E+03  0.62357048037E+03  0.25500000000E-02 0. -1.
    8880022    1    1    2    0    0 -0.26399948733E+03  0.40282124590E+03 -0.26625374724E+03  0.57117720227E+03  0.15294330000E+03 0. -1.
    8880022    1    1    2    0    0  0.26399948733E+03 -0.40282124590E+03  0.10677069485E+03  0.51648070608E+03  0.15294330000E+03 0.  0.
<mgrwt>
<rscale>  0 0.50532399E+03</rscale>
<asrwt>0</asrwt>
<pdfrwt beam="1">  1        2 0.95933920E-01 0.50532399E+03</pdfrwt>
<pdfrwt beam="2">  1       -2 0.71398066E-01 0.50532399E+03</pdfrwt>
<totfact> 0.86786588E+01</totfact>
</mgrwt>
</event>
<event>
 4    1  0.1104584E-007  0.1141747E+04  0.7818608E-02  0.9165431E-01
         -2   -1    0    0    0  501 -0.00000000000E+00  0.00000000000E+00  0.10821771388E+04  0.10821771388E+04  0.25500000000E-02 0.  1.
          2   -1    0    0  501    0  0.00000000000E+00 -0.00000000000E+00 -0.13919840246E+04  0.13919840247E+04  0.25500000000E-02 0. -1.
    8880022    1    1    2    0    0 -0.54355118060E+03  0.99234413472E+03 -0.60879447394E+03  0.12939154270E+04  0.15294330000E+03 0.  0.
    8880022    1    1    2    0    0  0.54355118060E+03 -0.99234413472E+03  0.29898758808E+03  0.11802457365E+04  0.15294330000E+03 0.  0.
<mgrwt>
<rscale>  0 0.11417471E+04</rscale>
<asrwt>0</asrwt>
<pdfrwt beam="1">  1        2 0.21415139E+00 0.11417471E+04</pdfrwt>
<pdfrwt beam="2">  1       -2 0.16648879E+00 0.11417471E+04</pdfrwt>
<totfact> 0.32262454E+00</totfact>
</mgrwt>
</event>
<event>
 4    1  0.1104584E-007  0.4082098E+03  0.7818608E-02  0.1040973E+00
          2   -1    0    0  501    0  0.00000000000E+00  0.00000000000E+00  0.53941096662E+03  0.53941096662E+03  0.25500000000E-02 0. -1.
         -2   -1    0    0    0  501 -0.00000000000E+00 -0.00000000000E+00 -0.98696367481E+03  0.98696367482E+03  0.25500000000E-02 0.  1.
    8880022    1    1    2    0    0  0.35562922571E+03  0.12950451842E+03  0.40879448702E+03  0.57770940109E+03  0.15294330000E+03 0.  0.
    8880022    1    1    2    0    0 -0.35562922571E+03 -0.12950451842E+03 -0.85634719522E+03  0.94866524035E+03  0.15294330000E+03 0.  0.
<mgrwt>
<rscale>  0 0.40820977E+03</rscale>
<asrwt>0</asrwt>
<pdfrwt beam="1">  1        2 0.82986303E-01 0.40820977E+03</pdfrwt>
<pdfrwt beam="2">  1       -2 0.15184057E+00 0.40820977E+03</pdfrwt>
<totfact> 0.17284681E+01</totfact>
</mgrwt>
</event>
<event>
 4    1  0.1104584E-007  0.3410403E+03  0.7818608E-02  0.1066354E+00
         -2   -1    0    0    0  501 -0.00000000000E+00  0.00000000000E+00  0.58573079937E+03  0.58573079938E+03  0.25500000000E-02 0.  1.
          2   -1    0    0  501    0  0.00000000000E+00 -0.00000000000E+00 -0.16231834064E+04  0.16231834064E+04  0.25500000000E-02 0. -1.
    8880022    1    1    2    0    0  0.85555942368E+02  0.29256963287E+03  0.51597166292E+03  0.61849431631E+03  0.15294330000E+03 0.  1.
    8880022    1    1    2    0    0 -0.85555942368E+02 -0.29256963287E+03 -0.15534242700E+04  0.15904198895E+04  0.15294330000E+03 0.  0.
<mgrwt>
<rscale>  0 0.34104027E+03</rscale>
<asrwt>0</asrwt>
<pdfrwt beam="1">  1        2 0.24972052E+00 0.34104027E+03</pdfrwt>
<pdfrwt beam="2">  1       -2 0.90112431E-01 0.34104027E+03</pdfrwt>
<totfact> 0.12713467E+01</totfact>
</mgrwt>
</event>
<event>
 4    1  0.1104584E-007  0.6727126E+03  0.7818608E-02  0.9765070E-01
         -2   -1    0    0    0  501 -0.00000000000E+00  0.00000000000E+00  0.99278085862E+03  0.99278085863E+03  0.25500000000E-02 0.  1.
          2   -1    0    0  501    0  0.00000000000E+00 -0.00000000000E+00 -0.11019493220E+04  0.11019493220E+04  0.25500000000E-02 0. -1.
    8880022    1    1    2    0    0 -0.74808147990E+01  0.65505311186E+03  0.74741262707E+03  0.10055684114E+04  0.15294330000E+03 0.  1.
    8880022    1    1    2    0    0  0.74808147990E+01 -0.65505311186E+03 -0.85658109040E+03  0.10891617692E+04  0.15294330000E+03 0.  0.
<mgrwt>
<rscale>  0 0.67271256E+03</rscale>
<asrwt>0</asrwt>
<pdfrwt beam="1">  1        2 0.16953066E+00 0.67271256E+03</pdfrwt>
<pdfrwt beam="2">  1       -2 0.15273552E+00 0.67271256E+03</pdfrwt>
<totfact> 0.63975985E+00</totfact>
</mgrwt>
</event>
<event>
 4    1  0.1104584E-007  0.5844587E+03  0.7818608E-02  0.9938184E-01
         -2   -1    0    0    0  501 -0.00000000000E+00  0.00000000000E+00  0.83531345915E+03  0.83531345915E+03  0.25500000000E-02 0.  1.
          2   -1    0    0  501    0  0.00000000000E+00 -0.00000000000E+00 -0.69866347888E+03  0.69866347888E+03  0.25500000000E-02 0. -1.
    8880022    1    1    2    0    0  0.49335323960E+03  0.27350119685E+03  0.56223480307E+03  0.81098702240E+03  0.15294330000E+03 0.  0.
    8880022    1    1    2    0    0 -0.49335323960E+03 -0.27350119685E+03 -0.42558482280E+03  0.72298991564E+03  0.15294330000E+03 0. -1.
<mgrwt>
<rscale>  0 0.58445870E+03</rscale>
<asrwt>0</asrwt>
<pdfrwt beam="1">  1        2 0.10748669E+00 0.58445870E+03</pdfrwt>
<pdfrwt beam="2">  1       -2 0.12850976E+00 0.58445870E+03</pdfrwt>
<totfact> 0.18959109E+01</totfact>
</mgrwt>
</event>
<event>
 4    1  0.1104584E-007  0.2712608E+03  0.7818608E-02  0.1100560E+00
          2   -1    0    0  501    0  0.00000000000E+00  0.00000000000E+00  0.36697374173E+03  0.36697374174E+03  0.25500000000E-02 0. -1.
         -2   -1    0    0    0  501 -0.00000000000E+00 -0.00000000000E+00 -0.39034464209E+03  0.39034464210E+03  0.25500000000E-02 0.  1.
    8880022    1    1    2    0    0  0.31308013891E+02 -0.22183461383E+03 -0.27575021569E+03  0.38680824977E+03  0.15294330000E+03 0.  0.
    8880022    1    1    2    0    0 -0.31308013891E+02  0.22183461383E+03  0.25237931533E+03  0.37051013406E+03  0.15294330000E+03 0.  0.
<mgrwt>
<rscale>  0 0.27126084E+03</rscale>
<asrwt>0</asrwt>
<pdfrwt beam="1">  1        2 0.56457499E-01 0.27126084E+03</pdfrwt>
<pdfrwt beam="2">  1       -2 0.60053021E-01 0.27126084E+03</pdfrwt>
<totfact> 0.23339661E+02</totfact>
</mgrwt>
</event>
<event>
 4    1  0.1104584E-007  0.4704138E+03  0.7818608E-02  0.1021803E+00
         -2   -1    0    0    0  501 -0.00000000000E+00  0.00000000000E+00  0.68664330495E+03  0.68664330495E+03  0.25500000000E-02 0.  1.
          2   -1    0    0  501    0  0.00000000000E+00 -0.00000000000E+00 -0.51524100160E+03  0.51524100161E+03  0.25500000000E-02 0. -1.
    8880022    1    1    2    0    0  0.44141559276E+03 -0.55224447638E+02 -0.28206010947E+03  0.54849523564E+03  0.15294330000E+03 0.  0.
    8880022    1    1    2    0    0 -0.44141559276E+03  0.55224447638E+02  0.45346241282E+03  0.65338907092E+03  0.15294330000E+03 0.  1.
<mgrwt>
<rscale>  0 0.47041377E+03</rscale>
<asrwt>0</asrwt>
<pdfrwt beam="1">  1        2 0.79267847E-01 0.47041377E+03</pdfrwt>
<pdfrwt beam="2">  1       -2 0.10563743E+00 0.47041377E+03</pdfrwt>
<totfact> 0.44663447E+01</totfact>
</mgrwt>
</event>
<event>
 4    1  0.1104584E-007  0.9024695E+03  0.7818608E-02  0.9422500E-01
         -2   -1    0    0    0  501 -0.00000000000E+00  0.00000000000E+00  0.12750626924E+04  0.12750626924E+04  0.25500000000E-02 0.  1.
          2   -1    0    0  501    0  0.00000000000E+00 -0.00000000000E+00 -0.19819878911E+04  0.19819878911E+04  0.25500000000E-02 0. -1.
    8880022    1    1    2    0    0 -0.85646662731E+03 -0.23984263615E+03 -0.16941263011E+04  0.19195090912E+04  0.15294330000E+03 0.  0.
    8880022    1    1    2    0    0  0.85646662731E+03  0.23984263615E+03  0.98720110249E+03  0.13375414923E+04  0.15294330000E+03 0.  0.
<mgrwt>
<rscale>  0 0.90246952E+03</rscale>
<asrwt>0</asrwt>
<pdfrwt beam="1">  1        2 0.30492121E+00 0.90246952E+03</pdfrwt>
<pdfrwt beam="2">  1       -2 0.19616349E+00 0.90246952E+03</pdfrwt>
<totfact> 0.97722352E-01</totfact>
</mgrwt>
</event>
<event>
 4    1  0.1104584E-007  0.5082218E+03  0.7818608E-02  0.1011655E+00
          2   -1    0    0  501    0  0.00000000000E+00  0.00000000000E+00  0.46964339720E+03  0.46964339721E+03  0.25500000000E-02 0. -1.
         -2   -1    0    0    0  501 -0.00000000000E+00 -0.00000000000E+00 -0.65272166107E+03  0.65272166107E+03  0.25500000000E-02 0.  1.
    8880022    1    1    2    0    0 -0.21035053392E+03  0.43663528045E+03  0.13111789407E+03  0.52486309683E+03  0.15294330000E+03 0.  0.
    8880022    1    1    2    0    0  0.21035053392E+03 -0.43663528045E+03 -0.31419615793E+03  0.59750196145E+03  0.15294330000E+03 0.  0.
<mgrwt>
<rscale>  0 0.50822177E+03</rscale>
<asrwt>0</asrwt>
<pdfrwt beam="1">  1        2 0.72252830E-01 0.50822177E+03</pdfrwt>
<pdfrwt beam="2">  1       -2 0.10041872E+00 0.50822177E+03</pdfrwt>
<totfact> 0.55792999E+01</totfact>
</mgrwt>
</event>
<event>
 4    1  0.1104584E-007  0.6436942E+03  0.7818608E-02  0.9818684E-01
          2   -1    0    0  501    0  0.00000000000E+00  0.00000000000E+00  0.18689077506E+04  0.18689077506E+04  0.25500000000E-02 0. -1.
         -2   -1    0    0    0  501 -0.00000000000E+00 -0.00000000000E+00 -0.56666300316E+03  0.56666300317E+03  0.25500000000E-02 0.  1.
    8880022    1    1    2    0    0 -0.43848421461E+03  0.44573778197E+03  0.16012736865E+04  0.17258098531E+04  0.15294330000E+03 0.  0.
    8880022    1    1    2    0    0  0.43848421461E+03 -0.44573778197E+03 -0.29902893909E+03  0.70976090070E+03  0.15294330000E+03 0.  0.
<mgrwt>
<rscale>  0 0.64369421E+03</rscale>
<asrwt>0</asrwt>
<pdfrwt beam="1">  1        2 0.28752427E+00 0.64369421E+03</pdfrwt>
<pdfrwt beam="2">  1       -2 0.87178924E-01 0.64369421E+03</pdfrwt>
<totfact> 0.94367425E+00</totfact>
</mgrwt>
</event>
<event>
 4    1  0.1104584E-007  0.2342060E+03  0.7818608E-02  0.1123714E+00
         -2   -1    0    0    0  501 -0.00000000000E+00  0.00000000000E+00  0.10356076291E+03  0.10356076294E+03  0.25500000000E-02 0.  1.
          2   -1    0    0  501    0  0.00000000000E+00 -0.00000000000E+00 -0.57255878816E+03  0.57255878816E+03  0.25500000000E-02 0. -1.
    8880022    1    1    2    0    0 -0.15506507382E+03  0.86113918245E+02 -0.32702938220E+03  0.40224452000E+03  0.15294330000E+03 0.  1.
    8880022    1    1    2    0    0  0.15506507382E+03 -0.86113918245E+02 -0.14196864305E+03  0.27387503110E+03  0.15294330000E+03 0.  0.
<mgrwt>
<rscale>  0 0.23420597E+03</rscale>
<asrwt>0</asrwt>
<pdfrwt beam="1">  1        2 0.88085966E-01 0.23420597E+03</pdfrwt>
<pdfrwt beam="2">  1       -2 0.15932425E-01 0.23420597E+03</pdfrwt>
<totfact> 0.16450947E+03</totfact>
</mgrwt>
</event>
<event>
 4    1  0.1104584E-007  0.4730358E+03  0.7818608E-02  0.1021067E+00
          2   -1    0    0  501    0  0.00000000000E+00  0.00000000000E+00  0.33147899583E+04  0.33147899583E+04  0.25500000000E-02 0. -1.
         -2   -1    0    0    0  501 -0.00000000000E+00 -0.00000000000E+00 -0.65238448578E+03  0.65238448578E+03  0.25500000000E-02 0.  1.
    8880022    1    1    2    0    0 -0.32759468031E+03 -0.30504584829E+03 -0.54695865255E+03  0.72313668469E+03  0.15294330000E+03 0.  0.
    8880022    1    1    2    0    0  0.32759468031E+03  0.30504584829E+03  0.32093641251E+04  0.32440377594E+04  0.15294330000E+03 0.  0.
<mgrwt>
<rscale>  0 0.47303583E+03</rscale>
<asrwt>0</asrwt>
<pdfrwt beam="1">  1        2 0.50996768E+00 0.47303583E+03</pdfrwt>
<pdfrwt beam="2">  1       -2 0.10036685E+00 0.47303583E+03</pdfrwt>
<totfact> 0.10458083E+00</totfact>
</mgrwt>
</event>
<event>
 4    1  0.1104584E-007  0.2716689E+03  0.7818608E-02  0.1100328E+00
         -2   -1    0    0    0  501 -0.00000000000E+00  0.00000000000E+00  0.38872954083E+03  0.38872954083E+03  0.25500000000E-02 0.  1.
          2   -1    0    0  501    0  0.00000000000E+00 -0.00000000000E+00 -0.11264801258E+04  0.11264801258E+04  0.25500000000E-02 0. -1.
    8880022    1    1    2    0    0  0.12928577141E+03 -0.18356879427E+03 -0.10596920222E+04  0.10939612186E+04  0.15294330000E+03 0.  0.
    8880022    1    1    2    0    0 -0.12928577141E+03  0.18356879427E+03  0.32194143724E+03  0.42124844800E+03  0.15294330000E+03 0.  1.
<mgrwt>
<rscale>  0 0.27166885E+03</rscale>
<asrwt>0</asrwt>
<pdfrwt beam="1">  1        2 0.17330463E+00 0.27166885E+03</pdfrwt>
<pdfrwt beam="2">  1       -2 0.59804545E-01 0.27166885E+03</pdfrwt>
<totfact> 0.59548465E+01</totfact>
</mgrwt>
</event>
<event>
 4    1  0.1104584E-007  0.9785185E+03  0.7818608E-02  0.9332424E-01
          2   -1    0    0  501    0  0.00000000000E+00  0.00000000000E+00  0.83075350034E+03  0.83075350035E+03  0.25500000000E-02 0. -1.
         -2   -1    0    0    0  501 -0.00000000000E+00 -0.00000000000E+00 -0.12584964999E+04  0.12584964999E+04  0.25500000000E-02 0.  1.
    8880022    1    1    2    0    0  0.33401101912E+03 -0.90694183319E+03 -0.51694242095E+03  0.11066742833E+04  0.15294330000E+03 0.  0.
    8880022    1    1    2    0    0 -0.33401101912E+03  0.90694183319E+03  0.89199421443E+02  0.98257571692E+03  0.15294330000E+03 0.  0.
<mgrwt>
<rscale>  0 0.97851852E+03</rscale>
<asrwt>0</asrwt>
<pdfrwt beam="1">  1        2 0.12780823E+00 0.97851852E+03</pdfrwt>
<pdfrwt beam="2">  1       -2 0.19361485E+00 0.97851852E+03</pdfrwt>
<totfact> 0.47739231E+00</totfact>
</mgrwt>
</event>
<event>
 4    1  0.1104584E-007  0.6841916E+03  0.7818608E-02  0.9744655E-01
          2   -1    0    0  501    0  0.00000000000E+00  0.00000000000E+00  0.35080597244E+04  0.35080597244E+04  0.25500000000E-02 0. -1.
         -2   -1    0    0    0  501 -0.00000000000E+00 -0.00000000000E+00 -0.72100552173E+03  0.72100552174E+03  0.25500000000E-02 0.  1.
    8880022    1    1    2    0    0  0.33090315543E+03  0.57899018109E+03  0.33023822017E+04  0.33725133635E+04  0.15294330000E+03 0.  0.
    8880022    1    1    2    0    0 -0.33090315543E+03 -0.57899018109E+03 -0.51532799900E+03  0.85655188264E+03  0.15294330000E+03 0.  0.
<mgrwt>
<rscale>  0 0.68419163E+03</rscale>
<asrwt>0</asrwt>
<pdfrwt beam="1">  1        2 0.53970150E+00 0.68419163E+03</pdfrwt>
<pdfrwt beam="2">  1       -2 0.11092393E+00 0.68419163E+03</pdfrwt>
<totfact> 0.57264682E-01</totfact>
</mgrwt>
</event>
<event>
 4    1  0.1104584E-007  0.4373845E+03  0.7818608E-02  0.1031552E+00
          2   -1    0    0  501    0  0.00000000000E+00  0.00000000000E+00  0.14504668262E+04  0.14504668262E+04  0.25500000000E-02 0. -1.
         -2   -1    0    0    0  501 -0.00000000000E+00 -0.00000000000E+00 -0.33314035964E+03  0.33314035965E+03  0.25500000000E-02 0.  1.
    8880022    1    1    2    0    0  0.39145597784E+03 -0.12114363847E+03 -0.13447775959E+03  0.45759095770E+03  0.15294330000E+03 0.  0.
    8880022    1    1    2    0    0 -0.39145597784E+03  0.12114363847E+03  0.12518042262E+04  0.13260162282E+04  0.15294330000E+03 0.  0.
<mgrwt>
<rscale>  0 0.43738452E+03</rscale>
<asrwt>0</asrwt>
<pdfrwt beam="1">  1        2 0.22314874E+00 0.43738452E+03</pdfrwt>
<pdfrwt beam="2">  1       -2 0.51252363E-01 0.43738452E+03</pdfrwt>
<totfact> 0.51862244E+01</totfact>
</mgrwt>
</event>
<event>
 4    1  0.1104584E-007  0.4905229E+03  0.7818608E-02  0.1016283E+00
         -2   -1    0    0    0  501 -0.00000000000E+00  0.00000000000E+00  0.13507474160E+04  0.13507474160E+04  0.25500000000E-02 0.  1.
          2   -1    0    0  501    0  0.00000000000E+00 -0.00000000000E+00 -0.16192772812E+04  0.16192772812E+04  0.25500000000E-02 0. -1.
    8880022    1    1    2    0    0  0.39802192302E+03 -0.24248638943E+03 -0.15352166822E+04  0.16116770814E+04  0.15294330000E+03 0.  0.
    8880022    1    1    2    0    0 -0.39802192302E+03  0.24248638943E+03  0.12666868170E+04  0.13583476159E+04  0.15294330000E+03 0.  0.
<mgrwt>
<rscale>  0 0.49052294E+03</rscale>
<asrwt>0</asrwt>
<pdfrwt beam="1">  1        2 0.24911958E+00 0.49052294E+03</pdfrwt>
<pdfrwt beam="2">  1       -2 0.20780729E+00 0.49052294E+03</pdfrwt>
<totfact> 0.14172028E+00</totfact>
</mgrwt>
</event>
<event>
 4    1  0.1104584E-007  0.2836521E+03  0.7818608E-02  0.1093711E+00
          2   -1    0    0  501    0  0.00000000000E+00  0.00000000000E+00  0.32445075637E+04  0.32445075637E+04  0.25500000000E-02 0. -1.
         -2   -1    0    0    0  501 -0.00000000000E+00 -0.00000000000E+00 -0.47211705124E+02  0.47211705193E+02  0.25500000000E-02 0.  1.
    8880022    1    1    2    0    0 -0.10823028359E+03 -0.21296254085E+03  0.27326692436E+04  0.27473513947E+04  0.15294330000E+03 0.  0.
    8880022    1    1    2    0    0  0.10823028359E+03  0.21296254085E+03  0.46462661502E+03  0.54436787423E+03  0.15294330000E+03 0.  0.
<mgrwt>
<rscale>  0 0.28365206E+03</rscale>
<asrwt>0</asrwt>
<pdfrwt beam="1">  1        2 0.49915512E+00 0.28365206E+03</pdfrwt>
<pdfrwt beam="2">  1       -2 0.72633376E-02 0.28365206E+03</pdfrwt>
<totfact> 0.16229118E+02</totfact>
</mgrwt>
</event>
<event>
 4    1  0.1104584E-007  0.7415057E+03  0.7818608E-02  0.9648772E-01
          2   -1    0    0  501    0  0.00000000000E+00  0.00000000000E+00  0.25585789123E+04  0.25585789123E+04  0.25500000000E-02 0. -1.
         -2   -1    0    0    0  501 -0.00000000000E+00 -0.00000000000E+00 -0.23716208575E+03  0.23716208576E+03  0.25500000000E-02 0.  1.
    8880022    1    1    2    0    0  0.11341470300E+03 -0.71664227518E+03  0.15890175977E+04  0.17535129381E+04  0.15294330000E+03 0.  0.
    8880022    1    1    2    0    0 -0.11341470300E+03  0.71664227518E+03  0.73239922881E+03  0.10422280599E+04  0.15294330000E+03 0.  0.
<mgrwt>
<rscale>  0 0.74150570E+03</rscale>
<asrwt>0</asrwt>
<pdfrwt beam="1">  1        2 0.39362754E+00 0.74150570E+03</pdfrwt>
<pdfrwt beam="2">  1       -2 0.36486473E-01 0.74150570E+03</pdfrwt>
<totfact> 0.23841216E+01</totfact>
</mgrwt>
</event>
<event>
 4    1  0.1104584E-007  0.4035967E+03  0.7818608E-02  0.1042541E+00
         -2   -1    0    0    0  501 -0.00000000000E+00  0.00000000000E+00  0.32963110716E+03  0.32963110717E+03  0.25500000000E-02 0.  1.
          2   -1    0    0  501    0  0.00000000000E+00 -0.00000000000E+00 -0.81999826820E+03  0.81999826821E+03  0.25500000000E-02 0. -1.
    8880022    1    1    2    0    0 -0.36205322511E+03 -0.91739371910E+02 -0.60752905993E+03  0.72937086715E+03  0.15294330000E+03 0.  0.
    8880022    1    1    2    0    0  0.36205322511E+03  0.91739371910E+02  0.11716189889E+03  0.42025850822E+03  0.15294330000E+03 0.  1.
<mgrwt>
<rscale>  0 0.40359671E+03</rscale>
<asrwt>0</asrwt>
<pdfrwt beam="1">  1        2 0.12615358E+00 0.40359671E+03</pdfrwt>
<pdfrwt beam="2">  1       -2 0.50712478E-01 0.40359671E+03</pdfrwt>
<totfact> 0.12752998E+02</totfact>
</mgrwt>
</event>
<event>
 4    1  0.1104584E-007  0.3116937E+03  0.7818608E-02  0.1079537E+00
          2   -1    0    0  501    0  0.00000000000E+00  0.00000000000E+00  0.34598089591E+03  0.34598089592E+03  0.25500000000E-02 0. -1.
         -2   -1    0    0    0  501 -0.00000000000E+00 -0.00000000000E+00 -0.70314347776E+03  0.70314347776E+03  0.25500000000E-02 0.  1.
    8880022    1    1    2    0    0 -0.24905634797E+03 -0.10831540798E+03  0.22796093200E+03  0.38615946395E+03  0.15294330000E+03 0.  0.
    8880022    1    1    2    0    0  0.24905634797E+03  0.10831540798E+03 -0.58512351384E+03  0.66296490973E+03  0.15294330000E+03 0.  0.
<mgrwt>
<rscale>  0 0.31169367E+03</rscale>
<asrwt>0</asrwt>
<pdfrwt beam="1">  1        2 0.53227830E-01 0.31169367E+03</pdfrwt>
<pdfrwt beam="2">  1       -2 0.10817592E+00 0.31169367E+03</pdfrwt>
<totfact> 0.67011483E+01</totfact>
</mgrwt>
</event>
<event>
 4    1  0.1104584E-007  0.9668413E+03  0.7818608E-02  0.9345679E-01
          2   -1    0    0  501    0  0.00000000000E+00  0.00000000000E+00  0.28597628687E+04  0.28597628687E+04  0.25500000000E-02 0. -1.
         -2   -1    0    0    0  501 -0.00000000000E+00 -0.00000000000E+00 -0.58356528977E+03  0.58356528977E+03  0.25500000000E-02 0.  1.
    8880022    1    1    2    0    0 -0.69938437148E+03 -0.64980917004E+03  0.22799493352E+04  0.24764795740E+04  0.15294330000E+03 0.  0.
    8880022    1    1    2    0    0  0.69938437148E+03  0.64980917004E+03 -0.37517562565E+01  0.96684858444E+03  0.15294330000E+03 0.  0.
<mgrwt>
<rscale>  0 0.96684131E+03</rscale>
<asrwt>0</asrwt>
<pdfrwt beam="1">  1        2 0.43996352E+00 0.96684131E+03</pdfrwt>
<pdfrwt beam="2">  1       -2 0.89779275E-01 0.96684131E+03</pdfrwt>
<totfact> 0.23104878E+00</totfact>
</mgrwt>
</event>
<event>
 4    1  0.1104584E-007  0.4375237E+03  0.7818608E-02  0.1031509E+00
          2   -1    0    0  501    0  0.00000000000E+00  0.00000000000E+00  0.15795164918E+04  0.15795164918E+04  0.25500000000E-02 0. -1.
         -2   -1    0    0    0  501 -0.00000000000E+00 -0.00000000000E+00 -0.41673649173E+03  0.41673649173E+03  0.25500000000E-02 0.  1.
    8880022    1    1    2    0    0  0.40845513155E+03 -0.34636968399E+02 -0.25916323941E+03  0.50851996199E+03  0.15294330000E+03 0.  0.
    8880022    1    1    2    0    0 -0.40845513155E+03  0.34636968399E+02  0.14219432395E+04  0.14877330216E+04  0.15294330000E+03 0. -1.
<mgrwt>
<rscale>  0 0.43752368E+03</rscale>
<asrwt>0</asrwt>
<pdfrwt beam="1">  1        2 0.24300254E+00 0.43752368E+03</pdfrwt>
<pdfrwt beam="2">  1       -2 0.64113306E-01 0.43752368E+03</pdfrwt>
<totfact> 0.27707566E+01</totfact>
</mgrwt>
</event>
<event>
 4    1  0.1104584E-007  0.2651117E+03  0.7818608E-02  0.1104110E+00
         -2   -1    0    0    0  501 -0.00000000000E+00  0.00000000000E+00  0.23187300486E+03  0.23187300488E+03  0.25500000000E-02 0.  1.
          2   -1    0    0  501    0  0.00000000000E+00 -0.00000000000E+00 -0.15821083693E+04  0.15821083693E+04  0.25500000000E-02 0. -1.
    8880022    1    1    2    0    0  0.19984784392E+03  0.83387054279E+02  0.14037269229E+03  0.29998117824E+03  0.15294330000E+03 0.  1.
    8880022    1    1    2    0    0 -0.19984784392E+03 -0.83387054279E+02 -0.14906080567E+04  0.15140001960E+04  0.15294330000E+03 0.  0.
<mgrwt>
<rscale>  0 0.26511170E+03</rscale>
<asrwt>0</asrwt>
<pdfrwt beam="1">  1        2 0.24340128E+00 0.26511170E+03</pdfrwt>
<pdfrwt beam="2">  1       -2 0.35672771E-01 0.26511170E+03</pdfrwt>
<totfact> 0.92686186E+01</totfact>
</mgrwt>
</event>
<event>
 4    1  0.1104584E-007  0.3352129E+03  0.7818608E-02  0.1068853E+00
          2   -1    0    0  501    0  0.00000000000E+00  0.00000000000E+00  0.66772678705E+03  0.66772678705E+03  0.25500000000E-02 0. -1.
         -2   -1    0    0    0  501 -0.00000000000E+00 -0.00000000000E+00 -0.48274043436E+03  0.48274043436E+03  0.25500000000E-02 0.  1.
    8880022    1    1    2    0    0  0.11606768362E+03 -0.27478055784E+03 -0.37177367732E+03  0.50058304237E+03  0.15294330000E+03 0.  0.
    8880022    1    1    2    0    0 -0.11606768362E+03  0.27478055784E+03  0.55676003001E+03  0.64988417905E+03  0.15294330000E+03 0. -1.
<mgrwt>
<rscale>  0 0.33521294E+03</rscale>
<asrwt>0</asrwt>
<pdfrwt beam="1">  1        2 0.10272720E+00 0.33521294E+03</pdfrwt>
<pdfrwt beam="2">  1       -2 0.74267760E-01 0.33521294E+03</pdfrwt>
<totfact> 0.74734600E+01</totfact>
</mgrwt>
</event>
<event>
 4    1  0.1104584E-007  0.2209738E+03  0.7818608E-02  0.1133159E+00
          2   -1    0    0  501    0  0.00000000000E+00  0.00000000000E+00  0.20748616279E+03  0.20748616281E+03  0.25500000000E-02 0. -1.
         -2   -1    0    0    0  501 -0.00000000000E+00 -0.00000000000E+00 -0.13079530889E+04  0.13079530889E+04  0.25500000000E-02 0.  1.
    8880022    1    1    2    0    0  0.52733438203E+02 -0.15052231747E+03 -0.12364076030E+04  0.12559988843E+04  0.15294330000E+03 0.  0.
    8880022    1    1    2    0    0 -0.52733438203E+02  0.15052231747E+03  0.13594067694E+03  0.25944036737E+03  0.15294330000E+03 0.  0.
<mgrwt>
<rscale>  0 0.22097384E+03</rscale>
<asrwt>0</asrwt>
<pdfrwt beam="1">  1        2 0.31920949E-01 0.22097384E+03</pdfrwt>
<pdfrwt beam="2">  1       -2 0.20122355E+00 0.22097384E+03</pdfrwt>
<totfact> 0.23604851E+01</totfact>
</mgrwt>
</event>
<event>
 4    1  0.1104584E-007  0.3452564E+03  0.7818608E-02  0.1064579E+00
         -2   -1    0    0    0  501 -0.00000000000E+00  0.00000000000E+00  0.49628808217E+03  0.49628808218E+03  0.25500000000E-02 0.  1.
          2   -1    0    0  501    0  0.00000000000E+00 -0.00000000000E+00 -0.67265823624E+03  0.67265823624E+03  0.25500000000E-02 0. -1.
    8880022    1    1    2    0    0  0.30652987076E+03 -0.43008862753E+02  0.38046200993E+03  0.51376387374E+03  0.15294330000E+03 0.  0.
    8880022    1    1    2    0    0 -0.30652987076E+03  0.43008862753E+02 -0.55683216400E+03  0.65518244468E+03  0.15294330000E+03 0.  0.
<mgrwt>
<rscale>  0 0.34525639E+03</rscale>
<asrwt>0</asrwt>
<pdfrwt beam="1">  1        2 0.10348588E+00 0.34525639E+03</pdfrwt>
<pdfrwt beam="2">  1       -2 0.76352013E-01 0.34525639E+03</pdfrwt>
<totfact> 0.69609183E+01</totfact>
</mgrwt>
</event>
<event>
 4    1  0.1104584E-007  0.5715741E+03  0.7818608E-02  0.9966201E-01
          2   -1    0    0  501    0  0.00000000000E+00  0.00000000000E+00  0.38343933664E+04  0.38343933664E+04  0.25500000000E-02 0. -1.
         -2   -1    0    0    0  501 -0.00000000000E+00 -0.00000000000E+00 -0.24335977434E+03  0.24335977435E+03  0.25500000000E-02 0.  1.
    8880022    1    1    2    0    0  0.10384867181E+03 -0.54085188317E+03  0.34391775193E+04  0.34863503795E+04  0.15294330000E+03 0. -1.
    8880022    1    1    2    0    0 -0.10384867181E+03  0.54085188317E+03  0.15185607272E+03  0.59140276124E+03  0.15294330000E+03 0.  0.
<mgrwt>
<rscale>  0 0.57157411E+03</rscale>
<asrwt>0</asrwt>
<pdfrwt beam="1">  1        2 0.58990661E+00 0.57157411E+03</pdfrwt>
<pdfrwt beam="2">  1       -2 0.37439969E-01 0.57157411E+03</pdfrwt>
<totfact> 0.35786160E+00</totfact>
</mgrwt>
</event>
<event>
 4    1  0.1104584E-007  0.3840934E+03  0.7818608E-02  0.1049431E+00
         -2   -1    0    0    0  501 -0.00000000000E+00  0.00000000000E+00  0.45118834244E+03  0.45118834245E+03  0.25500000000E-02 0.  1.
          2   -1    0    0  501    0  0.00000000000E+00 -0.00000000000E+00 -0.15196245935E+04  0.15196245935E+04  0.25500000000E-02 0. -1.
    8880022    1    1    2    0    0  0.32155251632E+03 -0.14401403558E+03 -0.14071965683E+04  0.14586740205E+04  0.15294330000E+03 0.  0.
    8880022    1    1    2    0    0 -0.32155251632E+03  0.14401403558E+03  0.33876031724E+03  0.51213891548E+03  0.15294330000E+03 0.  1.
<mgrwt>
<rscale>  0 0.38409337E+03</rscale>
<asrwt>0</asrwt>
<pdfrwt beam="1">  1        2 0.23378840E+00 0.38409337E+03</pdfrwt>
<pdfrwt beam="2">  1       -2 0.69413592E-01 0.38409337E+03</pdfrwt>
<totfact> 0.25489845E+01</totfact>
</mgrwt>
</event>
<event>
 4    1  0.1104584E-007  0.5200499E+03  0.7818608E-02  0.1008674E+00
         -2   -1    0    0    0  501 -0.00000000000E+00  0.00000000000E+00  0.41892858734E+03  0.41892858735E+03  0.25500000000E-02 0.  1.
          2   -1    0    0  501    0  0.00000000000E+00 -0.00000000000E+00 -0.10932878838E+04  0.10932878838E+04  0.25500000000E-02 0. -1.
    8880022    1    1    2    0    0  0.48532562087E+03 -0.10732813700E+03 -0.82103332489E+03  0.97187841876E+03  0.15294330000E+03 0.  0.
    8880022    1    1    2    0    0 -0.48532562087E+03  0.10732813700E+03  0.14667402841E+03  0.54033805242E+03  0.15294330000E+03 0.  0.
<mgrwt>
<rscale>  0 0.52004994E+03</rscale>
<asrwt>0</asrwt>
<pdfrwt beam="1">  1        2 0.16819813E+00 0.52004994E+03</pdfrwt>
<pdfrwt beam="2">  1       -2 0.64450552E-01 0.52004994E+03</pdfrwt>
<totfact> 0.50961131E+01</totfact>
</mgrwt>
</event>
<event>
 4    1  0.1104584E-007  0.4018043E+03  0.7818608E-02  0.1043157E+00
         -2   -1    0    0    0  501 -0.00000000000E+00  0.00000000000E+00  0.33544453102E+03  0.33544453103E+03  0.25500000000E-02 0.  1.
          2   -1    0    0  501    0  0.00000000000E+00 -0.00000000000E+00 -0.19035707731E+04  0.19035707731E+04  0.25500000000E-02 0. -1.
    8880022    1    1    2    0    0  0.37049265488E+03 -0.28111448798E+02  0.18362395698E+03  0.44177423132E+03  0.15294330000E+03 0.  1.
    8880022    1    1    2    0    0 -0.37049265488E+03  0.28111448798E+02 -0.17517501991E+04  0.17972410728E+04  0.15294330000E+03 0.  0.
<mgrwt>
<rscale>  0 0.40180432E+03</rscale>
<asrwt>0</asrwt>
<pdfrwt beam="1">  1        2 0.29285704E+00 0.40180432E+03</pdfrwt>
<pdfrwt beam="2">  1       -2 0.51606852E-01 0.40180432E+03</pdfrwt>
<totfact> 0.29378704E+01</totfact>
</mgrwt>
</event>
<event>
 4    1  0.1104584E-007  0.7599999E+03  0.7818608E-02  0.9619791E-01
         -2   -1    0    0    0  501 -0.00000000000E+00  0.00000000000E+00  0.66492605642E+03  0.66492605643E+03  0.25500000000E-02 0.  1.
          2   -1    0    0  501    0  0.00000000000E+00 -0.00000000000E+00 -0.11792545619E+04  0.11792545619E+04  0.25500000000E-02 0. -1.
    8880022    1    1    2    0    0 -0.20074329707E+03  0.71687536561E+03 -0.73038217921E+03  0.10540673327E+04  0.15294330000E+03 0.  0.
    8880022    1    1    2    0    0  0.20074329707E+03 -0.71687536561E+03  0.21605367375E+03  0.79011328561E+03  0.15294330000E+03 0.  0.
<mgrwt>
<rscale>  0 0.75999988E+03</rscale>
<asrwt>0</asrwt>
<pdfrwt beam="1">  1        2 0.18142378E+00 0.75999988E+03</pdfrwt>
<pdfrwt beam="2">  1       -2 0.10229632E+00 0.75999988E+03</pdfrwt>
<totfact> 0.15525123E+01</totfact>
</mgrwt>
</event>
<event>
 4    1  0.1104584E-007  0.9616112E+03  0.7818608E-02  0.9351681E-01
         -2   -1    0    0    0  501 -0.00000000000E+00  0.00000000000E+00  0.42807618502E+03  0.42807618503E+03  0.25500000000E-02 0.  1.
          2   -1    0    0  501    0  0.00000000000E+00 -0.00000000000E+00 -0.22698650367E+04  0.22698650367E+04  0.25500000000E-02 0. -1.
    8880022    1    1    2    0    0  0.17594219106E+03  0.93292488032E+03 -0.62427885977E+03  0.11464816766E+04  0.15294330000E+03 0.  0.
    8880022    1    1    2    0    0 -0.17594219106E+03 -0.93292488032E+03 -0.12175099919E+04  0.15514595452E+04  0.15294330000E+03 0.  0.
<mgrwt>
<rscale>  0 0.96161122E+03</rscale>
<asrwt>0</asrwt>
<pdfrwt beam="1">  1        2 0.34921000E+00 0.96161122E+03</pdfrwt>
<pdfrwt beam="2">  1       -2 0.65857876E-01 0.96161122E+03</pdfrwt>
<totfact> 0.10127353E+01</totfact>
</mgrwt>
</event>
<event>
 4    1  0.1104584E-007  0.4778437E+03  0.7818608E-02  0.1019729E+00
          2   -1    0    0  501    0  0.00000000000E+00  0.00000000000E+00  0.12846993214E+04  0.12846993214E+04  0.25500000000E-02 0. -1.
         -2   -1    0    0    0  501 -0.00000000000E+00 -0.00000000000E+00 -0.42406326036E+03  0.42406326037E+03  0.25500000000E-02 0.  1.
    8880022    1    1    2    0    0 -0.38496166207E+03  0.23821734352E+03  0.10814881805E+04  0.11823499150E+04  0.15294330000E+03 0.  0.
    8880022    1    1    2    0    0  0.38496166207E+03 -0.23821734352E+03 -0.22085211946E+03  0.52641266674E+03  0.15294330000E+03 0.  0.
<mgrwt>
<rscale>  0 0.47784374E+03</rscale>
<asrwt>0</asrwt>
<pdfrwt beam="1">  1        2 0.19764605E+00 0.47784374E+03</pdfrwt>
<pdfrwt beam="2">  1       -2 0.65240502E-01 0.47784374E+03</pdfrwt>
<totfact> 0.38586675E+01</totfact>
</mgrwt>
</event>
<event>
 4    1  0.1104584E-007  0.4109965E+03  0.7818608E-02  0.1040037E+00
          2   -1    0    0  501    0  0.00000000000E+00  0.00000000000E+00  0.32227255322E+03  0.32227255323E+03  0.25500000000E-02 0. -1.
         -2   -1    0    0    0  501 -0.00000000000E+00 -0.00000000000E+00 -0.87519217808E+03  0.87519217809E+03  0.25500000000E-02 0.  1.
    8880022    1    1    2    0    0 -0.37001862379E+03  0.92804507504E+02  0.10273525721E+03  0.42364211860E+03  0.15294330000E+03 0. -1.
    8880022    1    1    2    0    0  0.37001862379E+03 -0.92804507504E+02 -0.65565488207E+03  0.77382261272E+03  0.15294330000E+03 0.  1.
<mgrwt>
<rscale>  0 0.41099649E+03</rscale>
<asrwt>0</asrwt>
<pdfrwt beam="1">  1        2 0.49580393E-01 0.41099649E+03</pdfrwt>
<pdfrwt beam="2">  1       -2 0.13464495E+00 0.41099649E+03</pdfrwt>
<totfact> 0.41874387E+01</totfact>
</mgrwt>
</event>
<event>
 4    1  0.1104584E-007  0.4795995E+03  0.7818608E-02  0.1019245E+00
          2   -1    0    0  501    0  0.00000000000E+00  0.00000000000E+00  0.85649474179E+03  0.85649474179E+03  0.25500000000E-02 0. -1.
         -2   -1    0    0    0  501 -0.00000000000E+00 -0.00000000000E+00 -0.98658759416E+03  0.98658759417E+03  0.25500000000E-02 0.  1.
    8880022    1    1    2    0    0 -0.16500859550E+03  0.42355187485E+03 -0.85122117252E+03  0.97703283714E+03  0.15294330000E+03 0.  0.
    8880022    1    1    2    0    0  0.16500859550E+03 -0.42355187485E+03  0.72112832014E+03  0.86604949882E+03  0.15294330000E+03 0. -1.
<mgrwt>
<rscale>  0 0.47959950E+03</rscale>
<asrwt>0</asrwt>
<pdfrwt beam="1">  1        2 0.13176842E+00 0.47959950E+03</pdfrwt>
<pdfrwt beam="2">  1       -2 0.15178271E+00 0.47959950E+03</pdfrwt>
<totfact> 0.96461900E+00</totfact>
</mgrwt>
</event>
<event>
 4    1  0.1104584E-007  0.6290430E+03  0.7818608E-02  0.9846918E-01
         -2   -1    0    0    0  501 -0.00000000000E+00  0.00000000000E+00  0.32299691900E+03  0.32299691901E+03  0.25500000000E-02 0.  1.
          2   -1    0    0  501    0  0.00000000000E+00 -0.00000000000E+00 -0.14520268297E+04  0.14520268297E+04  0.25500000000E-02 0. -1.
    8880022    1    1    2    0    0  0.51705576114E+03  0.32397034910E+03 -0.91539182010E+03  0.11106922547E+04  0.15294330000E+03 0.  0.
    8880022    1    1    2    0    0 -0.51705576114E+03 -0.32397034910E+03 -0.21363809060E+03  0.66433149405E+03  0.15294330000E+03 0.  0.
<mgrwt>
<rscale>  0 0.62904300E+03</rscale>
<asrwt>0</asrwt>
<pdfrwt beam="1">  1        2 0.22338874E+00 0.62904300E+03</pdfrwt>
<pdfrwt beam="2">  1       -2 0.49691835E-01 0.62904300E+03</pdfrwt>
<totfact> 0.53584703E+01</totfact>
</mgrwt>
</event>
<event>
 4    1  0.1104584E-007  0.4070226E+03  0.7818608E-02  0.1041375E+00
          2   -1    0    0  501    0  0.00000000000E+00  0.00000000000E+00  0.46772351732E+03  0.46772351733E+03  0.25500000000E-02 0. -1.
         -2   -1    0    0    0  501 -0.00000000000E+00 -0.00000000000E+00 -0.55674352662E+03  0.55674352663E+03  0.25500000000E-02 0.  1.
    8880022    1    1    2    0    0  0.44823146088E+02  0.37452188658E+03 -0.35346853143E+03  0.53908015515E+03  0.15294330000E+03 0.  0.
    8880022    1    1    2    0    0 -0.44823146088E+02 -0.37452188658E+03  0.26444852213E+03  0.48538688880E+03  0.15294330000E+03 0.  0.
<mgrwt>
<rscale>  0 0.40702262E+03</rscale>
<asrwt>0</asrwt>
<pdfrwt beam="1">  1        2 0.71957464E-01 0.40702262E+03</pdfrwt>
<pdfrwt beam="2">  1       -2 0.85652850E-01 0.40702262E+03</pdfrwt>
<totfact> 0.81682139E+01</totfact>
</mgrwt>
</event>
<event>
 4    1  0.1104584E-007  0.8559154E+03  0.7818608E-02  0.9482432E-01
          2   -1    0    0  501    0  0.00000000000E+00  0.00000000000E+00  0.23655255352E+04  0.23655255352E+04  0.25500000000E-02 0. -1.
         -2   -1    0    0    0  501 -0.00000000000E+00 -0.00000000000E+00 -0.45063484055E+03  0.45063484056E+03  0.25500000000E-02 0.  1.
    8880022    1    1    2    0    0 -0.76658550751E+03  0.34863467784E+03  0.16997884719E+03  0.87263047186E+03  0.15294330000E+03 0.  0.
    8880022    1    1    2    0    0  0.76658550751E+03 -0.34863467784E+03  0.17449118474E+04  0.19435299039E+04  0.15294330000E+03 0. -1.
<mgrwt>
<rscale>  0 0.85591538E+03</rscale>
<asrwt>0</asrwt>
<pdfrwt beam="1">  1        2 0.36392701E+00 0.85591538E+03</pdfrwt>
<pdfrwt beam="2">  1       -2 0.69328436E-01 0.85591538E+03</pdfrwt>
<totfact> 0.81206715E+00</totfact>
</mgrwt>
</event>
<event>
 4    1  0.1104584E-007  0.4425692E+03  0.7818608E-02  0.1029961E+00
          2   -1    0    0  501    0  0.00000000000E+00  0.00000000000E+00  0.24944310759E+03  0.24944310760E+03  0.25500000000E-02 0. -1.
         -2   -1    0    0    0  501 -0.00000000000E+00 -0.00000000000E+00 -0.11679033016E+04  0.11679033016E+04  0.25500000000E-02 0.  1.
    8880022    1    1    2    0    0 -0.20431923716E+03 -0.36156533765E+03 -0.86489069380E+03  0.97154691565E+03  0.15294330000E+03 0.  0.
    8880022    1    1    2    0    0  0.20431923716E+03  0.36156533765E+03 -0.53569500180E+02  0.44579949352E+03  0.15294330000E+03 0.  0.
<mgrwt>
<rscale>  0 0.44256920E+03</rscale>
<asrwt>0</asrwt>
<pdfrwt beam="1">  1        2 0.38375863E-01 0.44256920E+03</pdfrwt>
<pdfrwt beam="2">  1       -2 0.17967743E+00 0.44256920E+03</pdfrwt>
<totfact> 0.25672391E+01</totfact>
</mgrwt>
</event>
<event>
 4    1  0.1104584E-007  0.2992748E+03  0.7818608E-02  0.1085604E+00
         -2   -1    0    0    0  501 -0.00000000000E+00  0.00000000000E+00  0.10816405574E+04  0.10816405574E+04  0.25500000000E-02 0.  1.
          2   -1    0    0  501    0  0.00000000000E+00 -0.00000000000E+00 -0.64697447271E+03  0.64697447271E+03  0.25500000000E-02 0. -1.
    8880022    1    1    2    0    0  0.48621797973E+02 -0.25260575366E+03  0.10244369566E+04  0.10672565189E+04  0.15294330000E+03 0.  0.
    8880022    1    1    2    0    0 -0.48621797973E+02  0.25260575366E+03 -0.58977087191E+03  0.66135851124E+03  0.15294330000E+03 0. -1.
<mgrwt>
<rscale>  0 0.29927479E+03</rscale>
<asrwt>0</asrwt>
<pdfrwt beam="1">  1        2 0.99534535E-01 0.29927479E+03</pdfrwt>
<pdfrwt beam="2">  1       -2 0.16640624E+00 0.29927479E+03</pdfrwt>
<totfact> 0.11198527E+01</totfact>
</mgrwt>
</event>
<event>
 4    1  0.1104584E-007  0.8040885E+03  0.7818608E-02  0.9554118E-01
         -2   -1    0    0    0  501 -0.00000000000E+00  0.00000000000E+00  0.39905015754E+03  0.39905015754E+03  0.25500000000E-02 0.  1.
          2   -1    0    0  501    0  0.00000000000E+00 -0.00000000000E+00 -0.28932184785E+04  0.28932184785E+04  0.25500000000E-02 0. -1.
    8880022    1    1    2    0    0  0.65147763778E+03 -0.44580655877E+03 -0.23389886722E+04  0.24733431347E+04  0.15294330000E+03 0.  0.
    8880022    1    1    2    0    0 -0.65147763778E+03  0.44580655877E+03 -0.15517964881E+03  0.81892550137E+03  0.15294330000E+03 0.  0.
<mgrwt>
<rscale>  0 0.80408846E+03</rscale>
<asrwt>0</asrwt>
<pdfrwt beam="1">  1        2 0.44511052E+00 0.80408846E+03</pdfrwt>
<pdfrwt beam="2">  1       -2 0.61392334E-01 0.80408846E+03</pdfrwt>
<totfact> 0.52634327E+00</totfact>
</mgrwt>
</event>
<event>
 4    1  0.1104584E-007  0.1204188E+04  0.7818608E-02  0.9109198E-01
          2   -1    0    0  501    0  0.00000000000E+00  0.00000000000E+00  0.31067536486E+04  0.31067536486E+04  0.25500000000E-02 0. -1.
         -2   -1    0    0    0  501 -0.00000000000E+00 -0.00000000000E+00 -0.10245571659E+04  0.10245571659E+04  0.25500000000E-02 0.  1.
    8880022    1    1    2    0    0  0.10284980820E+04  0.60734634574E+03 -0.48306958211E+03  0.12974689832E+04  0.15294330000E+03 0.  0.
    8880022    1    1    2    0    0 -0.10284980820E+04 -0.60734634574E+03  0.25652660648E+04  0.28338418312E+04  0.15294330000E+03 0.  0.
<mgrwt>
<rscale>  0 0.12041883E+04</rscale>
<asrwt>0</asrwt>
<pdfrwt beam="1">  1        2 0.47796210E+00 0.12041883E+04</pdfrwt>
<pdfrwt beam="2">  1       -2 0.15762418E+00 0.12041883E+04</pdfrwt>
<totfact> 0.38525579E-01</totfact>
</mgrwt>
</event>
<event>
 4    1  0.1104584E-007  0.1042538E+04  0.7818608E-02  0.9263082E-01
         -2   -1    0    0    0  501 -0.00000000000E+00  0.00000000000E+00  0.51493313309E+03  0.51493313309E+03  0.25500000000E-02 0.  1.
          2   -1    0    0  501    0  0.00000000000E+00 -0.00000000000E+00 -0.24333980135E+04  0.24333980135E+04  0.25500000000E-02 0. -1.
    8880022    1    1    2    0    0 -0.72524918397E+03 -0.73314850922E+03 -0.42242601575E+03  0.11248682177E+04  0.15294330000E+03 0.  0.
    8880022    1    1    2    0    0  0.72524918397E+03  0.73314850922E+03 -0.14960388647E+04  0.18234629289E+04  0.15294330000E+03 0.  0.
<mgrwt>
<rscale>  0 0.10425377E+04</rscale>
<asrwt>0</asrwt>
<pdfrwt beam="1">  1        2 0.37436892E+00 0.10425377E+04</pdfrwt>
<pdfrwt beam="2">  1       -2 0.79220483E-01 0.10425377E+04</pdfrwt>
<totfact> 0.53942626E+00</totfact>
</mgrwt>
</event>
<event>
 4    1  0.1104584E-007  0.6302216E+03  0.7818608E-02  0.9844616E-01
         -2   -1    0    0    0  501 -0.00000000000E+00  0.00000000000E+00  0.32698239472E+03  0.32698239473E+03  0.25500000000E-02 0.  1.
          2   -1    0    0  501    0  0.00000000000E+00 -0.00000000000E+00 -0.16099851492E+04  0.16099851492E+04  0.25500000000E-02 0. -1.
    8880022    1    1    2    0    0  0.59218904099E+03  0.15198615320E+03 -0.11213973400E+04  0.12863558210E+04  0.15294330000E+03 0.  0.
    8880022    1    1    2    0    0 -0.59218904099E+03 -0.15198615320E+03 -0.16160541449E+03  0.65061172295E+03  0.15294330000E+03 0.  1.
<mgrwt>
<rscale>  0 0.63022163E+03</rscale>
<asrwt>0</asrwt>
<pdfrwt beam="1">  1        2 0.24769002E+00 0.63022163E+03</pdfrwt>
<pdfrwt beam="2">  1       -2 0.50304985E-01 0.63022163E+03</pdfrwt>
<totfact> 0.42756257E+01</totfact>
</mgrwt>
</event>
<event>
 4    1  0.1104584E-007  0.9468564E+03  0.7818608E-02  0.9368833E-01
          2   -1    0    0  501    0  0.00000000000E+00  0.00000000000E+00  0.19084290465E+04  0.19084290465E+04  0.25500000000E-02 0. -1.
         -2   -1    0    0    0  501 -0.00000000000E+00 -0.00000000000E+00 -0.65032087295E+03  0.65032087296E+03  0.25500000000E-02 0.  1.
    8880022    1    1    2    0    0  0.72021962732E+03 -0.59533940785E+03 -0.45046659262E+02  0.94792730557E+03  0.15294330000E+03 0.  0.
    8880022    1    1    2    0    0 -0.72021962732E+03  0.59533940785E+03  0.13031548328E+04  0.16108226139E+04  0.15294330000E+03 0. -1.
<mgrwt>
<rscale>  0 0.94685636E+03</rscale>
<asrwt>0</asrwt>
<pdfrwt beam="1">  1        2 0.29360446E+00 0.94685636E+03</pdfrwt>
<pdfrwt beam="2">  1       -2 0.10004937E+00 0.94685636E+03</pdfrwt>
<totfact> 0.62334146E+00</totfact>
</mgrwt>
</event>
<event>
 4    1  0.1104584E-007  0.6307694E+03  0.7818608E-02  0.9843549E-01
         -2   -1    0    0    0  501 -0.00000000000E+00  0.00000000000E+00  0.26865962875E+03  0.26865962877E+03  0.25500000000E-02 0.  1.
          2   -1    0    0  501    0  0.00000000000E+00 -0.00000000000E+00 -0.24339385250E+04  0.24339385250E+04  0.25500000000E-02 0. -1.
    8880022    1    1    2    0    0  0.94679869986E+02  0.60457759781E+03 -0.23708463891E+03  0.67385393712E+03  0.15294330000E+03 0.  0.
    8880022    1    1    2    0    0 -0.94679869986E+02 -0.60457759781E+03 -0.19281942573E+04  0.20287442167E+04  0.15294330000E+03 0.  0.
<mgrwt>
<rscale>  0 0.63076937E+03</rscale>
<asrwt>0</asrwt>
<pdfrwt beam="1">  1        2 0.37445207E+00 0.63076937E+03</pdfrwt>
<pdfrwt beam="2">  1       -2 0.41332252E-01 0.63076937E+03</pdfrwt>
<totfact> 0.22428176E+01</totfact>
</mgrwt>
</event>
<event>
 4    1  0.1104584E-007  0.6401154E+03  0.7818608E-02  0.9825506E-01
          2   -1    0    0  501    0  0.00000000000E+00  0.00000000000E+00  0.11482835730E+04  0.11482835730E+04  0.25500000000E-02 0. -1.
         -2   -1    0    0    0  501 -0.00000000000E+00 -0.00000000000E+00 -0.19182805497E+04  0.19182805497E+04  0.25500000000E-02 0.  1.
    8880022    1    1    2    0    0 -0.61597311445E+03 -0.83265973632E+02 -0.17683400239E+04  0.18806313283E+04  0.15294330000E+03 0.  0.
    8880022    1    1    2    0    0  0.61597311445E+03  0.83265973632E+02  0.99834304715E+03  0.11859327944E+04  0.15294330000E+03 0.  0.
<mgrwt>
<rscale>  0 0.64011542E+03</rscale>
<asrwt>0</asrwt>
<pdfrwt beam="1">  1        2 0.17665901E+00 0.64011542E+03</pdfrwt>
<pdfrwt beam="2">  1       -2 0.29512009E+00 0.64011542E+03</pdfrwt>
<totfact> 0.74331728E-01</totfact>
</mgrwt>
</event>
<event>
 4    1  0.1104584E-007  0.1127903E+04  0.7818608E-02  0.9178415E-01
         -2   -1    0    0    0  501 -0.00000000000E+00  0.00000000000E+00  0.71624682202E+03  0.71624682202E+03  0.25500000000E-02 0.  1.
          2   -1    0    0  501    0  0.00000000000E+00 -0.00000000000E+00 -0.36513216029E+04  0.36513216029E+04  0.25500000000E-02 0. -1.
    8880022    1    1    2    0    0  0.11148488668E+04  0.76717327851E+02 -0.30325024190E+04  0.32354653635E+04  0.15294330000E+03 0.  0.
    8880022    1    1    2    0    0 -0.11148488668E+04 -0.76717327851E+02  0.97427638083E+02  0.11321030615E+04  0.15294330000E+03 0.  0.
<mgrwt>
<rscale>  0 0.11279030E+04</rscale>
<asrwt>0</asrwt>
<pdfrwt beam="1">  1        2 0.56174177E+00 0.11279030E+04</pdfrwt>
<pdfrwt beam="2">  1       -2 0.11019182E+00 0.11279030E+04</pdfrwt>
<totfact> 0.42061696E-01</totfact>
</mgrwt>
</event>
<event>
 4    1  0.1104584E-007  0.8145377E+03  0.7818608E-02  0.9539210E-01
         -2   -1    0    0    0  501 -0.00000000000E+00  0.00000000000E+00  0.10953453462E+04  0.10953453462E+04  0.25500000000E-02 0.  1.
          2   -1    0    0  501    0  0.00000000000E+00 -0.00000000000E+00 -0.19716607012E+04  0.19716607012E+04  0.25500000000E-02 0. -1.
    8880022    1    1    2    0    0  0.42386409118E+03 -0.67854194225E+03 -0.17145512657E+04  0.18981985225E+04  0.15294330000E+03 0.  0.
    8880022    1    1    2    0    0 -0.42386409118E+03  0.67854194225E+03  0.83823591068E+03  0.11688075249E+04  0.15294330000E+03 0.  0.
<mgrwt>
<rscale>  0 0.81453765E+03</rscale>
<asrwt>0</asrwt>
<pdfrwt beam="1">  1        2 0.30333242E+00 0.81453765E+03</pdfrwt>
<pdfrwt beam="2">  1       -2 0.16851467E+00 0.81453765E+03</pdfrwt>
<totfact> 0.15535681E+00</totfact>
</mgrwt>
</event>
<event>
 4    1  0.1104584E-007  0.3096228E+03  0.7818608E-02  0.1080527E+00
         -2   -1    0    0    0  501 -0.00000000000E+00  0.00000000000E+00  0.12662194446E+04  0.12662194446E+04  0.25500000000E-02 0.  1.
          2   -1    0    0  501    0  0.00000000000E+00 -0.00000000000E+00 -0.12313587431E+03  0.12313587434E+03  0.25500000000E-02 0. -1.
    8880022    1    1    2    0    0 -0.16417195881E+02  0.26871011902E+03  0.10026593330E+04  0.10493769787E+04  0.15294330000E+03 0.  0.
    8880022    1    1    2    0    0  0.16417195881E+02 -0.26871011902E+03  0.14042423726E+03  0.33997834021E+03  0.15294330000E+03 0.  0.
<mgrwt>
<rscale>  0 0.30962284E+03</rscale>
<asrwt>0</asrwt>
<pdfrwt beam="1">  1        2 0.18943981E-01 0.30962284E+03</pdfrwt>
<pdfrwt beam="2">  1       -2 0.19480299E+00 0.30962284E+03</pdfrwt>
<totfact> 0.45956170E+01</totfact>
</mgrwt>
</event>
<event>
 4    1  0.1104584E-007  0.9785039E+03  0.7818608E-02  0.9332441E-01
         -2   -1    0    0    0  501 -0.00000000000E+00  0.00000000000E+00  0.32639704198E+03  0.32639704199E+03  0.25500000000E-02 0.  1.
          2   -1    0    0  501    0  0.00000000000E+00 -0.00000000000E+00 -0.34829984105E+04  0.34829984105E+04  0.25500000000E-02 0. -1.
    8880022    1    1    2    0    0  0.23076960298E+03 -0.93852201219E+03 -0.82172585927E+03  0.12777727567E+04  0.15294330000E+03 0.  0.
    8880022    1    1    2    0    0 -0.23076960298E+03  0.93852201219E+03 -0.23348755093E+04  0.25316226958E+04  0.15294330000E+03 0.  0.
<mgrwt>
<rscale>  0 0.97850387E+03</rscale>
<asrwt>0</asrwt>
<pdfrwt beam="1">  1        2 0.53584588E+00 0.97850387E+03</pdfrwt>
<pdfrwt beam="2">  1       -2 0.50214932E-01 0.97850387E+03</pdfrwt>
<totfact> 0.32602530E+00</totfact>
</mgrwt>
</event>
<event>
 4    1  0.1104584E-007  0.2703802E+03  0.7818608E-02  0.1101062E+00
         -2   -1    0    0    0  501 -0.00000000000E+00  0.00000000000E+00  0.90039483916E+03  0.90039483916E+03  0.25500000000E-02 0.  1.
          2   -1    0    0  501    0  0.00000000000E+00 -0.00000000000E+00 -0.65654568625E+03  0.65654568625E+03  0.25500000000E-02 0. -1.
    8880022    1    1    2    0    0 -0.21840842849E+03 -0.44850407831E+02  0.85067152856E+03  0.89260713824E+03  0.15294330000E+03 0.  0.
    8880022    1    1    2    0    0  0.21840842849E+03  0.44850407831E+02 -0.60682237565E+03  0.66433338718E+03  0.15294330000E+03 0.  0.
<mgrwt>
<rscale>  0 0.27038020E+03</rscale>
<asrwt>0</asrwt>
<pdfrwt beam="1">  1        2 0.10100703E+00 0.27038020E+03</pdfrwt>
<pdfrwt beam="2">  1       -2 0.13852228E+00 0.27038020E+03</pdfrwt>
<totfact> 0.17897444E+01</totfact>
</mgrwt>
</event>
<event>
 4    1  0.1104584E-007  0.7477178E+03  0.7818608E-02  0.9638938E-01
         -2   -1    0    0    0  501 -0.00000000000E+00  0.00000000000E+00  0.12461339555E+04  0.12461339555E+04  0.25500000000E-02 0.  1.
          2   -1    0    0  501    0  0.00000000000E+00 -0.00000000000E+00 -0.80359156865E+03  0.80359156866E+03  0.25500000000E-02 0. -1.
    8880022    1    1    2    0    0 -0.12332085488E+03  0.72144454738E+03  0.90239260741E+03  0.11719190839E+04  0.15294330000E+03 0.  0.
    8880022    1    1    2    0    0  0.12332085488E+03 -0.72144454738E+03 -0.45985022059E+03  0.87780644027E+03  0.15294330000E+03 0.  0.
<mgrwt>
<rscale>  0 0.74771781E+03</rscale>
<asrwt>0</asrwt>
<pdfrwt beam="1">  1        2 0.12362947E+00 0.74771781E+03</pdfrwt>
<pdfrwt beam="2">  1       -2 0.19171291E+00 0.74771781E+03</pdfrwt>
<totfact> 0.52774032E+00</totfact>
</mgrwt>
</event>
<event>
 4    1  0.1104584E-007  0.1055105E+04  0.7818608E-02  0.9250089E-01
          2   -1    0    0  501    0  0.00000000000E+00  0.00000000000E+00  0.20622409735E+04  0.20622409735E+04  0.25500000000E-02 0. -1.
         -2   -1    0    0    0  501 -0.00000000000E+00 -0.00000000000E+00 -0.73606233368E+03  0.73606233369E+03  0.25500000000E-02 0.  1.
    8880022    1    1    2    0    0  0.10016516534E+04 -0.29419181446E+03  0.13855259709E+04  0.17415305704E+04  0.15294330000E+03 0.  0.
    8880022    1    1    2    0    0 -0.10016516534E+04  0.29419181446E+03 -0.59347331074E+02  0.10567727368E+04  0.15294330000E+03 0.  0.
<mgrwt>
<rscale>  0 0.10551050E+04</rscale>
<asrwt>0</asrwt>
<pdfrwt beam="1">  1        2 0.31726784E+00 0.10551050E+04</pdfrwt>
<pdfrwt beam="2">  1       -2 0.11324036E+00 0.10551050E+04</pdfrwt>
<totfact> 0.37521531E+00</totfact>
</mgrwt>
</event>
<event>
 4    1  0.1104584E-007  0.5954194E+03  0.7818608E-02  0.9914955E-01
          2   -1    0    0  501    0  0.00000000000E+00  0.00000000000E+00  0.72621608124E+03  0.72621608124E+03  0.25500000000E-02 0. -1.
         -2   -1    0    0    0  501 -0.00000000000E+00 -0.00000000000E+00 -0.90652029610E+03  0.90652029610E+03  0.25500000000E-02 0.  1.
    8880022    1    1    2    0    0  0.88397228411E+02  0.56861110132E+03 -0.64472936554E+03  0.87761054138E+03  0.15294330000E+03 0.  0.
    8880022    1    1    2    0    0 -0.88397228411E+02 -0.56861110132E+03  0.46442515068E+03  0.75512583596E+03  0.15294330000E+03 0.  0.
<mgrwt>
<rscale>  0 0.59541944E+03</rscale>
<asrwt>0</asrwt>
<pdfrwt beam="1">  1        2 0.11172555E+00 0.59541944E+03</pdfrwt>
<pdfrwt beam="2">  1       -2 0.13946466E+00 0.59541944E+03</pdfrwt>
<totfact> 0.14648421E+01</totfact>
</mgrwt>
</event>
<event>
 4    1  0.1104584E-007  0.2697734E+03  0.7818608E-02  0.1101409E+00
          2   -1    0    0  501    0  0.00000000000E+00  0.00000000000E+00  0.11524779478E+04  0.11524779478E+04  0.25500000000E-02 0. -1.
         -2   -1    0    0    0  501 -0.00000000000E+00 -0.00000000000E+00 -0.33424166638E+03  0.33424166639E+03  0.25500000000E-02 0.  1.
    8880022    1    1    2    0    0 -0.55414786338E+02 -0.21520974897E+03 -0.26034668697E+03  0.37491076942E+03  0.15294330000E+03 0.  0.
    8880022    1    1    2    0    0  0.55414786338E+02  0.21520974897E+03  0.10785829684E+04  0.11118088448E+04  0.15294330000E+03 0. -1.
<mgrwt>
<rscale>  0 0.26977340E+03</rscale>
<asrwt>0</asrwt>
<pdfrwt beam="1">  1        2 0.17730430E+00 0.26977340E+03</pdfrwt>
<pdfrwt beam="2">  1       -2 0.51421795E-01 0.26977340E+03</pdfrwt>
<totfact> 0.78364141E+01</totfact>
</mgrwt>
</event>
<event>
 4    1  0.1104584E-007  0.2631790E+03  0.7818608E-02  0.1105248E+00
          2   -1    0    0  501    0  0.00000000000E+00  0.00000000000E+00  0.97974657914E+03  0.97974657914E+03  0.25500000000E-02 0. -1.
         -2   -1    0    0    0  501 -0.00000000000E+00 -0.00000000000E+00 -0.57086754230E+03  0.57086754231E+03  0.25500000000E-02 0.  1.
    8880022    1    1    2    0    0  0.21077054312E+03  0.38043296798E+02  0.93015434267E+03  0.96666967909E+03  0.15294330000E+03 0. -1.
    8880022    1    1    2    0    0 -0.21077054312E+03 -0.38043296798E+02 -0.52127530583E+03  0.58394444236E+03  0.15294330000E+03 0.  0.
<mgrwt>
<rscale>  0 0.26317896E+03</rscale>
<asrwt>0</asrwt>
<pdfrwt beam="1">  1        2 0.15073024E+00 0.26317896E+03</pdfrwt>
<pdfrwt beam="2">  1       -2 0.87825775E-01 0.26317896E+03</pdfrwt>
<totfact> 0.31805432E+01</totfact>
</mgrwt>
</event>
<event>
 4    1  0.1104584E-007  0.5733860E+03  0.7818608E-02  0.9962214E-01
          2   -1    0    0  501    0  0.00000000000E+00  0.00000000000E+00  0.94040559435E+03  0.94040559435E+03  0.25500000000E-02 0. -1.
         -2   -1    0    0    0  501 -0.00000000000E+00 -0.00000000000E+00 -0.61069629068E+03  0.61069629069E+03  0.25500000000E-02 0.  1.
    8880022    1    1    2    0    0  0.20527771758E+03 -0.51307008488E+03  0.67195392671E+03  0.88334228132E+03  0.15294330000E+03 0.  0.
    8880022    1    1    2    0    0 -0.20527771758E+03  0.51307008488E+03 -0.34224462305E+03  0.66775960372E+03  0.15294330000E+03 0.  0.
<mgrwt>
<rscale>  0 0.57338600E+03</rscale>
<asrwt>0</asrwt>
<pdfrwt beam="1">  1        2 0.14467778E+00 0.57338600E+03</pdfrwt>
<pdfrwt beam="2">  1       -2 0.93953276E-01 0.57338600E+03</pdfrwt>
<totfact> 0.27287032E+01</totfact>
</mgrwt>
</event>
<event>
 4    1  0.1104584E-007  0.9682582E+03  0.7818608E-02  0.9344060E-01
         -2   -1    0    0    0  501 -0.00000000000E+00  0.00000000000E+00  0.22690792115E+04  0.22690792115E+04  0.25500000000E-02 0.  1.
          2   -1    0    0  501    0  0.00000000000E+00 -0.00000000000E+00 -0.85861519880E+03  0.85861519881E+03  0.25500000000E-02 0. -1.
    8880022    1    1    2    0    0 -0.51556999035E+03  0.80518316194E+03  0.18316260363E+04  0.20718054756E+04  0.15294330000E+03 0.  0.
    8880022    1    1    2    0    0  0.51556999035E+03 -0.80518316194E+03 -0.42116202357E+03  0.10558889347E+04  0.15294330000E+03 0.  0.
<mgrwt>
<rscale>  0 0.96825823E+03</rscale>
<asrwt>0</asrwt>
<pdfrwt beam="1">  1        2 0.13209465E+00 0.96825823E+03</pdfrwt>
<pdfrwt beam="2">  1       -2 0.34908911E+00 0.96825823E+03</pdfrwt>
<totfact> 0.50170936E-01</totfact>
</mgrwt>
</event>
<event>
 4    1  0.1104584E-007  0.4722780E+03  0.7818608E-02  0.1021279E+00
          2   -1    0    0  501    0  0.00000000000E+00  0.00000000000E+00  0.99459565970E+03  0.99459565970E+03  0.25500000000E-02 0. -1.
         -2   -1    0    0    0  501 -0.00000000000E+00 -0.00000000000E+00 -0.23306876529E+03  0.23306876531E+03  0.25500000000E-02 0.  1.
    8880022    1    1    2    0    0 -0.36336610302E+03 -0.26003835636E+03  0.26141898190E+03  0.53980219406E+03  0.15294330000E+03 0.  0.
    8880022    1    1    2    0    0  0.36336610302E+03  0.26003835636E+03  0.50010791251E+03  0.68786223095E+03  0.15294330000E+03 0.  0.
<mgrwt>
<rscale>  0 0.47227802E+03</rscale>
<asrwt>0</asrwt>
<pdfrwt beam="1">  1        2 0.15301472E+00 0.47227802E+03</pdfrwt>
<pdfrwt beam="2">  1       -2 0.35856733E-01 0.47227802E+03</pdfrwt>
<totfact> 0.19153167E+02</totfact>
</mgrwt>
</event>
<event>
 4    1  0.1104584E-007  0.2957242E+03  0.7818608E-02  0.1087398E+00
          2   -1    0    0  501    0  0.00000000000E+00  0.00000000000E+00  0.23197764503E+04  0.23197764503E+04  0.25500000000E-02 0. -1.
         -2   -1    0    0    0  501 -0.00000000000E+00 -0.00000000000E+00 -0.17011637765E+03  0.17011637767E+03  0.25500000000E-02 0.  1.
    8880022    1    1    2    0    0  0.17433344889E+03  0.18349119995E+03 -0.23544330422E+02  0.29666000804E+03  0.15294330000E+03 0.  0.
    8880022    1    1    2    0    0 -0.17433344889E+03 -0.18349119995E+03  0.21732044031E+04  0.21932328200E+04  0.15294330000E+03 0.  0.
<mgrwt>
<rscale>  0 0.29572424E+03</rscale>
<asrwt>0</asrwt>
<pdfrwt beam="1">  1        2 0.35688866E+00 0.29572424E+03</pdfrwt>
<pdfrwt beam="2">  1       -2 0.26171752E-01 0.29572424E+03</pdfrwt>
<totfact> 0.65880070E+01</totfact>
</mgrwt>
</event>
<event>
 4    1  0.1104584E-007  0.2677910E+03  0.7818608E-02  0.1102551E+00
          2   -1    0    0  501    0  0.00000000000E+00  0.00000000000E+00  0.25749219847E+04  0.25749219847E+04  0.25500000000E-02 0. -1.
         -2   -1    0    0    0  501 -0.00000000000E+00 -0.00000000000E+00 -0.49066870939E+03  0.49066870940E+03  0.25500000000E-02 0.  1.
    8880022    1    1    2    0    0 -0.11608935377E+03  0.18666450969E+03  0.25307861014E+04  0.25449146000E+04  0.15294330000E+03 0. -1.
    8880022    1    1    2    0    0  0.11608935377E+03 -0.18666450969E+03 -0.44653282606E+03  0.52067609413E+03  0.15294330000E+03 0.  0.
<mgrwt>
<rscale>  0 0.26779102E+03</rscale>
<asrwt>0</asrwt>
<pdfrwt beam="1">  1        2 0.39614184E+00 0.26779102E+03</pdfrwt>
<pdfrwt beam="2">  1       -2 0.75487494E-01 0.26779102E+03</pdfrwt>
<totfact> 0.60214449E+00</totfact>
</mgrwt>
</event>
<event>
 4    1  0.1104584E-007  0.2450395E+03  0.7818608E-02  0.1116480E+00
          2   -1    0    0  501    0  0.00000000000E+00  0.00000000000E+00  0.12135276514E+04  0.12135276514E+04  0.25500000000E-02 0. -1.
         -2   -1    0    0    0  501 -0.00000000000E+00 -0.00000000000E+00 -0.41293983609E+03  0.41293983610E+03  0.25500000000E-02 0.  1.
    8880022    1    1    2    0    0  0.17082916376E+03  0.86429805530E+02 -0.36266420647E+03  0.43768675345E+03  0.15294330000E+03 0.  0.
    8880022    1    1    2    0    0 -0.17082916376E+03 -0.86429805530E+02  0.11632520218E+04  0.11887807341E+04  0.15294330000E+03 0.  0.
<mgrwt>
<rscale>  0 0.24503952E+03</rscale>
<asrwt>0</asrwt>
<pdfrwt beam="1">  1        2 0.18669656E+00 0.24503952E+03</pdfrwt>
<pdfrwt beam="2">  1       -2 0.63529205E-01 0.24503952E+03</pdfrwt>
<totfact> 0.47119610E+01</totfact>
</mgrwt>
</event>
<event>
 4    1  0.1104584E-007  0.5146461E+03  0.7818608E-02  0.1010025E+00
          2   -1    0    0  501    0  0.00000000000E+00  0.00000000000E+00  0.27705551494E+04  0.27705551494E+04  0.25500000000E-02 0. -1.
         -2   -1    0    0    0  501 -0.00000000000E+00 -0.00000000000E+00 -0.38019453678E+03  0.38019453679E+03  0.25500000000E-02 0.  1.
    8880022    1    1    2    0    0  0.44603120842E+03  0.20621625527E+03  0.25581790993E+04  0.26094330687E+04  0.15294330000E+03 0.  0.
    8880022    1    1    2    0    0 -0.44603120842E+03 -0.20621625527E+03 -0.16781848674E+03  0.54131661745E+03  0.15294330000E+03 0.  0.
<mgrwt>
<rscale>  0 0.51464613E+03</rscale>
<asrwt>0</asrwt>
<pdfrwt beam="1">  1        2 0.42623925E+00 0.51464613E+03</pdfrwt>
<pdfrwt beam="2">  1       -2 0.58491468E-01 0.51464613E+03</pdfrwt>
<totfact> 0.73324277E+00</totfact>
</mgrwt>
</event>
<event>
 4    1  0.1104584E-007  0.4601665E+03  0.7818608E-02  0.1024733E+00
          2   -1    0    0  501    0  0.00000000000E+00  0.00000000000E+00  0.38193654077E+04  0.38193654077E+04  0.25500000000E-02 0. -1.
         -2   -1    0    0    0  501 -0.00000000000E+00 -0.00000000000E+00 -0.12239659940E+03  0.12239659943E+03  0.25500000000E-02 0.  1.
    8880022    1    1    2    0    0  0.14579409535E+03  0.40878559654E+03  0.33061770210E+04  0.33380472929E+04  0.15294330000E+03 0.  0.
    8880022    1    1    2    0    0 -0.14579409535E+03 -0.40878559654E+03  0.39079178729E+03  0.60371471425E+03  0.15294330000E+03 0.  0.
<mgrwt>
<rscale>  0 0.46016653E+03</rscale>
<asrwt>0</asrwt>
<pdfrwt beam="1">  1        2 0.58759470E+00 0.46016653E+03</pdfrwt>
<pdfrwt beam="2">  1       -2 0.18830245E-01 0.46016653E+03</pdfrwt>
<totfact> 0.13212929E+01</totfact>
</mgrwt>
</event>
<event>
 4    1  0.1104584E-007  0.7080515E+03  0.7818608E-02  0.9703561E-01
         -2   -1    0    0    0  501 -0.00000000000E+00  0.00000000000E+00  0.11899784776E+04  0.11899784776E+04  0.25500000000E-02 0.  1.
          2   -1    0    0  501    0  0.00000000000E+00 -0.00000000000E+00 -0.59397470138E+03  0.59397470139E+03  0.25500000000E-02 0. -1.
    8880022    1    1    2    0    0 -0.18307283754E+03 -0.66665550375E+03  0.77893530466E+03  0.10526524053E+04  0.15294330000E+03 0.  0.
    8880022    1    1    2    0    0  0.18307283754E+03  0.66665550375E+03 -0.18293152842E+03  0.73130077371E+03  0.15294330000E+03 0.  0.
<mgrwt>
<rscale>  0 0.70805147E+03</rscale>
<asrwt>0</asrwt>
<pdfrwt beam="1">  1        2 0.91380724E-01 0.70805147E+03</pdfrwt>
<pdfrwt beam="2">  1       -2 0.18307361E+00 0.70805147E+03</pdfrwt>
<totfact> 0.88665464E+00</totfact>
</mgrwt>
</event>
<event>
 4    1  0.1104584E-007  0.3851596E+03  0.7818608E-02  0.1049043E+00
          2   -1    0    0  501    0  0.00000000000E+00  0.00000000000E+00  0.10691153976E+04  0.10691153976E+04  0.25500000000E-02 0. -1.
         -2   -1    0    0    0  501 -0.00000000000E+00 -0.00000000000E+00 -0.31270348203E+03  0.31270348204E+03  0.25500000000E-02 0.  1.
    8880022    1    1    2    0    0 -0.30079351646E+03 -0.18568658787E+03 -0.13709604032E+03  0.40883153712E+03  0.15294330000E+03 0.  0.
    8880022    1    1    2    0    0  0.30079351646E+03  0.18568658787E+03  0.89350795588E+03  0.97298734251E+03  0.15294330000E+03 0.  0.
<mgrwt>
<rscale>  0 0.38515958E+03</rscale>
<asrwt>0</asrwt>
<pdfrwt beam="1">  1        2 0.16447929E+00 0.38515958E+03</pdfrwt>
<pdfrwt beam="2">  1       -2 0.48108227E-01 0.38515958E+03</pdfrwt>
<totfact> 0.98221104E+01</totfact>
</mgrwt>
</event>
<event>
 4    1  0.1104584E-007  0.1103727E+04  0.7818608E-02  0.9201567E-01
          2   -1    0    0  501    0  0.00000000000E+00  0.00000000000E+00  0.14513978760E+04  0.14513978760E+04  0.25500000000E-02 0. -1.
         -2   -1    0    0    0  501 -0.00000000000E+00 -0.00000000000E+00 -0.12088680878E+04  0.12088680878E+04  0.25500000000E-02 0.  1.
    8880022    1    1    2    0    0  0.10514170019E+04 -0.29890479972E+03  0.85667651212E+03  0.13971786180E+04  0.15294330000E+03 0.  0.
    8880022    1    1    2    0    0 -0.10514170019E+04  0.29890479972E+03 -0.61414672393E+03  0.12630873457E+04  0.15294330000E+03 0.  0.
<mgrwt>
<rscale>  0 0.11037271E+04</rscale>
<asrwt>0</asrwt>
<pdfrwt beam="1">  1        2 0.22329198E+00 0.11037271E+04</pdfrwt>
<pdfrwt beam="2">  1       -2 0.18597971E+00 0.11037271E+04</pdfrwt>
<totfact> 0.21881016E+00</totfact>
</mgrwt>
</event>
<event>
 4    1  0.1104584E-007  0.2675904E+03  0.7818608E-02  0.1102667E+00
          2   -1    0    0  501    0  0.00000000000E+00  0.00000000000E+00  0.13409321455E+04  0.13409321455E+04  0.25500000000E-02 0. -1.
         -2   -1    0    0    0  501 -0.00000000000E+00 -0.00000000000E+00 -0.43604204145E+03  0.43604204146E+03  0.25500000000E-02 0.  1.
    8880022    1    1    2    0    0 -0.43361118143E+02 -0.21525052166E+03 -0.37986237575E+03  0.46465046128E+03  0.15294330000E+03 0.  0.
    8880022    1    1    2    0    0  0.43361118143E+02  0.21525052166E+03  0.12847524798E+04  0.13123237257E+04  0.15294330000E+03 0.  0.
<mgrwt>
<rscale>  0 0.26759041E+03</rscale>
<asrwt>0</asrwt>
<pdfrwt beam="1">  1        2 0.20629725E+00 0.26759041E+03</pdfrwt>
<pdfrwt beam="2">  1       -2 0.67083392E-01 0.26759041E+03</pdfrwt>
<totfact> 0.35419466E+01</totfact>
</mgrwt>
</event>
<event>
 4    1  0.1104584E-007  0.1557715E+03  0.7818608E-02  0.1193555E+00
         -2   -1    0    0    0  501 -0.00000000000E+00  0.00000000000E+00  0.17596785777E+03  0.17596785779E+03  0.25500000000E-02 0.  1.
          2   -1    0    0  501    0  0.00000000000E+00 -0.00000000000E+00 -0.18515783375E+04  0.18515783375E+04  0.25500000000E-02 0. -1.
    8880022    1    1    2    0    0 -0.29546291541E+02  0.36226117899E+00 -0.18130985252E+04  0.18197777418E+04  0.15294330000E+03 0.  0.
    8880022    1    1    2    0    0  0.29546291541E+02 -0.36226117899E+00  0.13748804548E+03  0.20776845344E+03  0.15294330000E+03 0.  1.
<mgrwt>
<rscale>  0 0.15577152E+03</rscale>
<asrwt>0</asrwt>
<pdfrwt beam="1">  1        2 0.28485819E+00 0.15577152E+03</pdfrwt>
<pdfrwt beam="2">  1       -2 0.27071979E-01 0.15577152E+03</pdfrwt>
<totfact> 0.11536096E+02</totfact>
</mgrwt>
</event>
<event>
 4    1  0.1104584E-007  0.1860280E+03  0.7818608E-02  0.1162093E+00
          2   -1    0    0  501    0  0.00000000000E+00  0.00000000000E+00  0.80105595201E+03  0.80105595201E+03  0.25500000000E-02 0. -1.
         -2   -1    0    0    0  501 -0.00000000000E+00 -0.00000000000E+00 -0.15451408468E+03  0.15451408471E+03  0.25500000000E-02 0.  1.
    8880022    1    1    2    0    0 -0.90669029909E+02  0.54716510800E+02  0.72879962791E+03  0.75216708263E+03  0.15294330000E+03 0. -1.
    8880022    1    1    2    0    0  0.90669029909E+02 -0.54716510800E+02 -0.82257760587E+02  0.20340295408E+03  0.15294330000E+03 0.  0.
<mgrwt>
<rscale>  0 0.18602802E+03</rscale>
<asrwt>0</asrwt>
<pdfrwt beam="1">  1        2 0.12323938E+00 0.18602802E+03</pdfrwt>
<pdfrwt beam="2">  1       -2 0.23771397E-01 0.18602802E+03</pdfrwt>
<totfact> 0.55628515E+02</totfact>
</mgrwt>
</event>
<event>
 4    1  0.1104584E-007  0.7648934E+03  0.7818608E-02  0.9612270E-01
         -2   -1    0    0    0  501 -0.00000000000E+00  0.00000000000E+00  0.60858569178E+03  0.60858569179E+03  0.25500000000E-02 0.  1.
          2   -1    0    0  501    0  0.00000000000E+00 -0.00000000000E+00 -0.11188800779E+04  0.11188800779E+04  0.25500000000E-02 0. -1.
    8880022    1    1    2    0    0 -0.44589022269E+03  0.60237208133E+03  0.68948998742E+02  0.76799468260E+03  0.15294330000E+03 0.  0.
    8880022    1    1    2    0    0  0.44589022269E+03 -0.60237208133E+03 -0.57924338488E+03  0.95947108711E+03  0.15294330000E+03 0.  0.
<mgrwt>
<rscale>  0 0.76489337E+03</rscale>
<asrwt>0</asrwt>
<pdfrwt beam="1">  1        2 0.17213540E+00 0.76489337E+03</pdfrwt>
<pdfrwt beam="2">  1       -2 0.93628568E-01 0.76489337E+03</pdfrwt>
<totfact> 0.20785245E+01</totfact>
</mgrwt>
</event>
<event>
 4    1  0.1104584E-007  0.1782924E+03  0.7818608E-02  0.1169466E+00
         -2   -1    0    0    0  501 -0.00000000000E+00  0.00000000000E+00  0.89964436150E+03  0.89964436150E+03  0.25500000000E-02 0.  1.
          2   -1    0    0  501    0  0.00000000000E+00 -0.00000000000E+00 -0.15723763079E+04  0.15723763079E+04  0.25500000000E-02 0. -1.
    8880022    1    1    2    0    0  0.89370388140E+02 -0.20235284505E+02 -0.15584096927E+04  0.15685754544E+04  0.15294330000E+03 0.  0.
    8880022    1    1    2    0    0 -0.89370388140E+02  0.20235284505E+02  0.88567774632E+03  0.90344521492E+03  0.15294330000E+03 0.  1.
<mgrwt>
<rscale>  0 0.17829242E+03</rscale>
<asrwt>0</asrwt>
<pdfrwt beam="1">  1        2 0.24190405E+00 0.17829242E+03</pdfrwt>
<pdfrwt beam="2">  1       -2 0.13840683E+00 0.17829242E+03</pdfrwt>
<totfact> 0.52233930E+00</totfact>
</mgrwt>
</event>
<event>
 4    1  0.1104584E-007  0.2061980E+03  0.7818608E-02  0.1144613E+00
          2   -1    0    0  501    0  0.00000000000E+00  0.00000000000E+00  0.10285976890E+04  0.10285976890E+04  0.25500000000E-02 0. -1.
         -2   -1    0    0    0  501 -0.00000000000E+00 -0.00000000000E+00 -0.22887085964E+03  0.22887085965E+03  0.25500000000E-02 0.  1.
    8880022    1    1    2    0    0 -0.13769707528E+03  0.12864310595E+02  0.96899598012E+03  0.99069210027E+03  0.15294330000E+03 0. -1.
    8880022    1    1    2    0    0  0.13769707528E+03 -0.12864310595E+02 -0.16926915073E+03  0.26677644842E+03  0.15294330000E+03 0.  0.
<mgrwt>
<rscale>  0 0.20619803E+03</rscale>
<asrwt>0</asrwt>
<pdfrwt beam="1">  1        2 0.15824580E+00 0.20619803E+03</pdfrwt>
<pdfrwt beam="2">  1       -2 0.35210902E-01 0.20619803E+03</pdfrwt>
<totfact> 0.19570867E+02</totfact>
</mgrwt>
</event>
<event>
 4    1  0.1104584E-007  0.6972097E+03  0.7818608E-02  0.9722016E-01
          2   -1    0    0  501    0  0.00000000000E+00  0.00000000000E+00  0.81360710995E+03  0.81360710995E+03  0.25500000000E-02 0. -1.
         -2   -1    0    0    0  501 -0.00000000000E+00 -0.00000000000E+00 -0.78675207195E+03  0.78675207195E+03  0.25500000000E-02 0.  1.
    8880022    1    1    2    0    0  0.66930429140E+03 -0.12141444648E+03  0.40591841420E+03  0.80676583610E+03  0.15294330000E+03 0.  0.
    8880022    1    1    2    0    0 -0.66930429140E+03  0.12141444648E+03 -0.37906337620E+03  0.79359334580E+03  0.15294330000E+03 0.  0.
<mgrwt>
<rscale>  0 0.69720969E+03</rscale>
<asrwt>0</asrwt>
<pdfrwt beam="1">  1        2 0.12517032E+00 0.69720969E+03</pdfrwt>
<pdfrwt beam="2">  1       -2 0.12103878E+00 0.69720969E+03</pdfrwt>
<totfact> 0.17860751E+01</totfact>
</mgrwt>
</event>
<event>
 4    1  0.1104584E-007  0.1152139E+04  0.7818608E-02  0.9155812E-01
          2   -1    0    0  501    0  0.00000000000E+00  0.00000000000E+00  0.10434732715E+04  0.10434732715E+04  0.25500000000E-02 0. -1.
         -2   -1    0    0    0  501 -0.00000000000E+00 -0.00000000000E+00 -0.17900738323E+04  0.17900738323E+04  0.25500000000E-02 0.  1.
    8880022    1    1    2    0    0 -0.98382711319E+03 -0.57975676016E+03 -0.11353962077E+04  0.16175753123E+04  0.15294330000E+03 0.  0.
    8880022    1    1    2    0    0  0.98382711319E+03  0.57975676016E+03  0.38879564695E+03  0.12159717915E+04  0.15294330000E+03 0.  0.
<mgrwt>
<rscale>  0 0.11521395E+04</rscale>
<asrwt>0</asrwt>
<pdfrwt beam="1">  1        2 0.16053435E+00 0.11521395E+04</pdfrwt>
<pdfrwt beam="2">  1       -2 0.27539597E+00 0.11521395E+04</pdfrwt>
<totfact> 0.10415615E+00</totfact>
</mgrwt>
</event>
<event>
 4    1  0.1104584E-007  0.4132196E+03  0.7818608E-02  0.1039296E+00
         -2   -1    0    0    0  501 -0.00000000000E+00  0.00000000000E+00  0.20427975951E+03  0.20427975952E+03  0.25500000000E-02 0.  1.
          2   -1    0    0  501    0  0.00000000000E+00 -0.00000000000E+00 -0.94203139543E+03  0.94203139543E+03  0.25500000000E-02 0. -1.
    8880022    1    1    2    0    0  0.38124607193E+03 -0.44835602033E+02 -0.56128768991E+03  0.69698947082E+03  0.15294330000E+03 0.  0.
    8880022    1    1    2    0    0 -0.38124607193E+03  0.44835602033E+02 -0.17646394601E+03  0.44932168413E+03  0.15294330000E+03 0.  0.
<mgrwt>
<rscale>  0 0.41321962E+03</rscale>
<asrwt>0</asrwt>
<pdfrwt beam="1">  1        2 0.14492791E+00 0.41321962E+03</pdfrwt>
<pdfrwt beam="2">  1       -2 0.31427656E-01 0.41321962E+03</pdfrwt>
<totfact> 0.26628994E+02</totfact>
</mgrwt>
</event>
<event>
 4    1  0.1104584E-007  0.3712745E+03  0.7818608E-02  0.1054207E+00
          2   -1    0    0  501    0  0.00000000000E+00  0.00000000000E+00  0.52885909803E+03  0.52885909804E+03  0.25500000000E-02 0. -1.
         -2   -1    0    0    0  501 -0.00000000000E+00 -0.00000000000E+00 -0.36003233197E+03  0.36003233197E+03  0.25500000000E-02 0.  1.
    8880022    1    1    2    0    0 -0.33043535284E+03 -0.72564481646E+02  0.31792702065E+03  0.48879685952E+03  0.15294330000E+03 0.  0.
    8880022    1    1    2    0    0  0.33043535284E+03  0.72564481646E+02 -0.14910025458E+03  0.40009457049E+03  0.15294330000E+03 0.  0.
<mgrwt>
<rscale>  0 0.37127453E+03</rscale>
<asrwt>0</asrwt>
<pdfrwt beam="1">  1        2 0.81362938E-01 0.37127453E+03</pdfrwt>
<pdfrwt beam="2">  1       -2 0.55389590E-01 0.37127453E+03</pdfrwt>
<totfact> 0.18232834E+02</totfact>
</mgrwt>
</event>
<event>
 4    1  0.1104584E-007  0.5555528E+03  0.7818608E-02  0.1000217E+00
          2   -1    0    0  501    0  0.00000000000E+00  0.00000000000E+00  0.12218337918E+04  0.12218337918E+04  0.25500000000E-02 0. -1.
         -2   -1    0    0    0  501 -0.00000000000E+00 -0.00000000000E+00 -0.29002301564E+03  0.29002301565E+03  0.25500000000E-02 0.  1.
    8880022    1    1    2    0    0 -0.32356442037E+03 -0.42491561399E+03  0.73743455461E+03  0.92328142432E+03  0.15294330000E+03 0.  0.
    8880022    1    1    2    0    0  0.32356442037E+03  0.42491561399E+03  0.19437622159E+03  0.58857538317E+03  0.15294330000E+03 0.  0.
<mgrwt>
<rscale>  0 0.55555276E+03</rscale>
<asrwt>0</asrwt>
<pdfrwt beam="1">  1        2 0.18797443E+00 0.55555276E+03</pdfrwt>
<pdfrwt beam="2">  1       -2 0.44618926E-01 0.55555276E+03</pdfrwt>
<totfact> 0.90637942E+01</totfact>
</mgrwt>
</event>
<event>
 4    1  0.1104584E-007  0.4277032E+03  0.7818608E-02  0.1034588E+00
         -2   -1    0    0    0  501 -0.00000000000E+00  0.00000000000E+00  0.74722630791E+03  0.74722630792E+03  0.25500000000E-02 0.  1.
          2   -1    0    0  501    0  0.00000000000E+00 -0.00000000000E+00 -0.41779799356E+03  0.41779799356E+03  0.25500000000E-02 0. -1.
    8880022    1    1    2    0    0 -0.38125565531E+03  0.11909044394E+03 -0.21010961322E+03  0.47652503725E+03  0.15294330000E+03 0.  0.
    8880022    1    1    2    0    0  0.38125565531E+03 -0.11909044394E+03  0.53953792757E+03  0.68849926423E+03  0.15294330000E+03 0.  0.
<mgrwt>
<rscale>  0 0.42770324E+03</rscale>
<asrwt>0</asrwt>
<pdfrwt beam="1">  1        2 0.64276615E-01 0.42770324E+03</pdfrwt>
<pdfrwt beam="2">  1       -2 0.11495789E+00 0.42770324E+03</pdfrwt>
<totfact> 0.46425906E+01</totfact>
</mgrwt>
</event>
<event>
 4    1  0.1104584E-007  0.5933814E+03  0.7818608E-02  0.9919233E-01
          2   -1    0    0  501    0  0.00000000000E+00  0.00000000000E+00  0.15544785906E+04  0.15544785906E+04  0.25500000000E-02 0. -1.
         -2   -1    0    0    0  501 -0.00000000000E+00 -0.00000000000E+00 -0.39573106277E+03  0.39573106278E+03  0.25500000000E-02 0.  1.
    8880022    1    1    2    0    0 -0.56589247505E+03  0.92063009044E+02 -0.58274604218E+02  0.59623608870E+03  0.15294330000E+03 0.  0.
    8880022    1    1    2    0    0  0.56589247505E+03 -0.92063009044E+02  0.12170221320E+04  0.13539735647E+04  0.15294330000E+03 0.  0.
<mgrwt>
<rscale>  0 0.59338145E+03</rscale>
<asrwt>0</asrwt>
<pdfrwt beam="1">  1        2 0.23915056E+00 0.59338145E+03</pdfrwt>
<pdfrwt beam="2">  1       -2 0.60881701E-01 0.59338145E+03</pdfrwt>
<totfact> 0.31044572E+01</totfact>
</mgrwt>
</event>
<event>
 4    1  0.1104584E-007  0.4192037E+03  0.7818608E-02  0.1037326E+00
          2   -1    0    0  501    0  0.00000000000E+00  0.00000000000E+00  0.11405622024E+04  0.11405622024E+04  0.25500000000E-02 0. -1.
         -2   -1    0    0    0  501 -0.00000000000E+00 -0.00000000000E+00 -0.40669562402E+03  0.40669562403E+03  0.25500000000E-02 0.  1.
    8880022    1    1    2    0    0 -0.29168602969E+03 -0.25934407950E+03 -0.24278978202E+03  0.48443639702E+03  0.15294330000E+03 0.  0.
    8880022    1    1    2    0    0  0.29168602969E+03  0.25934407950E+03  0.97665636038E+03  0.10628214294E+04  0.15294330000E+03 0.  0.
<mgrwt>
<rscale>  0 0.41920370E+03</rscale>
<asrwt>0</asrwt>
<pdfrwt beam="1">  1        2 0.17547110E+00 0.41920370E+03</pdfrwt>
<pdfrwt beam="2">  1       -2 0.62568559E-01 0.41920370E+03</pdfrwt>
<totfact> 0.51605575E+01</totfact>
</mgrwt>
</event>
<event>
 4    1  0.1104584E-007  0.1111134E+04  0.7818608E-02  0.9194407E-01
          2   -1    0    0  501    0  0.00000000000E+00  0.00000000000E+00  0.26248938947E+04  0.26248938947E+04  0.25500000000E-02 0. -1.
         -2   -1    0    0    0  501 -0.00000000000E+00 -0.00000000000E+00 -0.72180676285E+03  0.72180676285E+03  0.25500000000E-02 0.  1.
    8880022    1    1    2    0    0  0.45265457780E+03 -0.10031608837E+04 -0.36117236991E+02  0.11117212030E+04  0.15294330000E+03 0.  0.
    8880022    1    1    2    0    0 -0.45265457780E+03  0.10031608837E+04  0.19392043689E+04  0.22349794546E+04  0.15294330000E+03 0.  0.
<mgrwt>
<rscale>  0 0.11111344E+04</rscale>
<asrwt>0</asrwt>
<pdfrwt beam="1">  1        2 0.40382983E+00 0.11111344E+04</pdfrwt>
<pdfrwt beam="2">  1       -2 0.11104719E+00 0.11111344E+04</pdfrwt>
<totfact> 0.18790372E+00</totfact>
</mgrwt>
</event>
<event>
 4    1  0.1104584E-007  0.3873105E+03  0.7818608E-02  0.1048264E+00
         -2   -1    0    0    0  501 -0.00000000000E+00  0.00000000000E+00  0.18577702360E+03  0.18577702361E+03  0.25500000000E-02 0.  1.
          2   -1    0    0  501    0  0.00000000000E+00 -0.00000000000E+00 -0.19245608417E+04  0.19245608417E+04  0.25500000000E-02 0. -1.
    8880022    1    1    2    0    0  0.32956787902E+03 -0.13417430898E+03 -0.16732889064E+04  0.17175287914E+04  0.15294330000E+03 0.  0.
    8880022    1    1    2    0    0 -0.32956787902E+03  0.13417430898E+03 -0.65494911717E+02  0.39280907391E+03  0.15294330000E+03 0.  0.
<mgrwt>
<rscale>  0 0.38731045E+03</rscale>
<asrwt>0</asrwt>
<pdfrwt beam="1">  1        2 0.29608627E+00 0.38731045E+03</pdfrwt>
<pdfrwt beam="2">  1       -2 0.28581082E-01 0.38731045E+03</pdfrwt>
<totfact> 0.89271165E+01</totfact>
</mgrwt>
</event>
<event>
 4    1  0.1104584E-007  0.9963223E+03  0.7818608E-02  0.9312588E-01
         -2   -1    0    0    0  501 -0.00000000000E+00  0.00000000000E+00  0.95947811035E+03  0.95947811036E+03  0.25500000000E-02 0.  1.
          2   -1    0    0  501    0  0.00000000000E+00 -0.00000000000E+00 -0.15283297351E+04  0.15283297351E+04  0.25500000000E-02 0. -1.
    8880022    1    1    2    0    0 -0.10937017268E+03 -0.97841950452E+03 -0.99144487685E+03  0.14055679131E+04  0.15294330000E+03 0.  0.
    8880022    1    1    2    0    0  0.10937017268E+03  0.97841950452E+03  0.42259325208E+03  0.10822399324E+04  0.15294330000E+03 0.  0.
<mgrwt>
<rscale>  0 0.99632234E+03</rscale>
<asrwt>0</asrwt>
<pdfrwt beam="1">  1        2 0.23512765E+00 0.99632234E+03</pdfrwt>
<pdfrwt beam="2">  1       -2 0.14761202E+00 0.99632234E+03</pdfrwt>
<totfact> 0.37996666E+00</totfact>
</mgrwt>
</event>
<event>
 4    1  0.1104584E-007  0.6800326E+03  0.7818608E-02  0.9752002E-01
         -2   -1    0    0    0  501 -0.00000000000E+00  0.00000000000E+00  0.96584025487E+03  0.96584025487E+03  0.25500000000E-02 0.  1.
          2   -1    0    0  501    0  0.00000000000E+00 -0.00000000000E+00 -0.10449818098E+04  0.10449818098E+04  0.25500000000E-02 0. -1.
    8880022    1    1    2    0    0 -0.61535930619E+03 -0.24573477098E+03 -0.77963130386E+03  0.10345381947E+04  0.15294330000E+03 0.  0.
    8880022    1    1    2    0    0  0.61535930619E+03  0.24573477098E+03  0.70048974891E+03  0.97628386996E+03  0.15294330000E+03 0.  0.
<mgrwt>
<rscale>  0 0.68003258E+03</rscale>
<asrwt>0</asrwt>
<pdfrwt beam="1">  1        2 0.16076643E+00 0.68003258E+03</pdfrwt>
<pdfrwt beam="2">  1       -2 0.14859081E+00 0.68003258E+03</pdfrwt>
<totfact> 0.74509765E+00</totfact>
</mgrwt>
</event>
<event>
 4    1  0.1104584E-007  0.3030585E+03  0.7818608E-02  0.1083722E+00
         -2   -1    0    0    0  501 -0.00000000000E+00  0.00000000000E+00  0.32471859526E+03  0.32471859527E+03  0.25500000000E-02 0.  1.
          2   -1    0    0  501    0  0.00000000000E+00 -0.00000000000E+00 -0.35562407215E+03  0.35562407216E+03  0.25500000000E-02 0. -1.
    8880022    1    1    2    0    0 -0.20409241939E+03  0.16370432199E+03 -0.16934277969E+03  0.34716199495E+03  0.15294330000E+03 0.  0.
    8880022    1    1    2    0    0  0.20409241939E+03 -0.16370432199E+03  0.13843730279E+03  0.33318067247E+03  0.15294330000E+03 0.  0.
<mgrwt>
<rscale>  0 0.30305853E+03</rscale>
<asrwt>0</asrwt>
<pdfrwt beam="1">  1        2 0.54711395E-01 0.30305853E+03</pdfrwt>
<pdfrwt beam="2">  1       -2 0.49956707E-01 0.30305853E+03</pdfrwt>
<totfact> 0.35120143E+02</totfact>
</mgrwt>
</event>
<event>
 4    1  0.1104584E-007  0.5321848E+03  0.7818608E-02  0.1005704E+00
         -2   -1    0    0    0  501 -0.00000000000E+00  0.00000000000E+00  0.10722012335E+03  0.10722012338E+03  0.25500000000E-02 0.  1.
          2   -1    0    0  501    0  0.00000000000E+00 -0.00000000000E+00 -0.37328889049E+04  0.37328889049E+04  0.25500000000E-02 0. -1.
    8880022    1    1    2    0    0  0.19850667444E+03 -0.46949340483E+03 -0.28510398102E+04  0.29002842290E+04  0.15294330000E+03 0.  0.
    8880022    1    1    2    0    0 -0.19850667444E+03  0.46949340483E+03 -0.77462897141E+03  0.93982479928E+03  0.15294330000E+03 0.  0.
<mgrwt>
<rscale>  0 0.53218475E+03</rscale>
<asrwt>0</asrwt>
<pdfrwt beam="1">  1        2 0.57429050E+00 0.53218475E+03</pdfrwt>
<pdfrwt beam="2">  1       -2 0.16495406E-01 0.53218475E+03</pdfrwt>
<totfact> 0.18751609E+01</totfact>
</mgrwt>
</event>
<event>
 4    1  0.1104584E-007  0.8957104E+03  0.7818608E-02  0.9430960E-01
          2   -1    0    0  501    0  0.00000000000E+00  0.00000000000E+00  0.14447537568E+04  0.14447537568E+04  0.25500000000E-02 0. -1.
         -2   -1    0    0    0  501 -0.00000000000E+00 -0.00000000000E+00 -0.86996236215E+03  0.86996236215E+03  0.25500000000E-02 0.  1.
    8880022    1    1    2    0    0  0.33953897785E+03 -0.81462794966E+03 -0.40863408003E+03  0.98451961800E+03  0.15294330000E+03 0.  0.
    8880022    1    1    2    0    0 -0.33953897785E+03  0.81462794966E+03  0.98342547469E+03  0.13301965009E+04  0.15294330000E+03 0.  0.
<mgrwt>
<rscale>  0 0.89571037E+03</rscale>
<asrwt>0</asrwt>
<pdfrwt beam="1">  1        2 0.22226981E+00 0.89571037E+03</pdfrwt>
<pdfrwt beam="2">  1       -2 0.13384036E+00 0.89571037E+03</pdfrwt>
<totfact> 0.55292844E+00</totfact>
</mgrwt>
</event>
<event>
 4    1  0.1104584E-007  0.2418706E+03  0.7818608E-02  0.1118553E+00
          2   -1    0    0  501    0  0.00000000000E+00  0.00000000000E+00  0.62524369519E+03  0.62524369519E+03  0.25500000000E-02 0. -1.
         -2   -1    0    0    0  501 -0.00000000000E+00 -0.00000000000E+00 -0.31879139457E+03  0.31879139458E+03  0.25500000000E-02 0.  1.
    8880022    1    1    2    0    0  0.96362184421E+02 -0.16069865662E+03  0.54997327392E+03  0.60080944056E+03  0.15294330000E+03 0.  0.
    8880022    1    1    2    0    0 -0.96362184421E+02  0.16069865662E+03 -0.24352097330E+03  0.34322564921E+03  0.15294330000E+03 0.  0.
<mgrwt>
<rscale>  0 0.24187059E+03</rscale>
<asrwt>0</asrwt>
<pdfrwt beam="1">  1        2 0.96191337E-01 0.24187059E+03</pdfrwt>
<pdfrwt beam="2">  1       -2 0.49044830E-01 0.24187059E+03</pdfrwt>
<totfact> 0.19444284E+02</totfact>
</mgrwt>
</event>
<event>
 4    1  0.1104584E-007  0.1508925E+04  0.7818608E-02  0.8878540E-01
          2   -1    0    0  501    0  0.00000000000E+00  0.00000000000E+00  0.19198309477E+04  0.19198309477E+04  0.25500000000E-02 0. -1.
         -2   -1    0    0    0  501 -0.00000000000E+00 -0.00000000000E+00 -0.18381710947E+04  0.18381710947E+04  0.25500000000E-02 0.  1.
    8880022    1    1    2    0    0 -0.30332002967E+03 -0.14701903748E+04 -0.10784175100E+04  0.18546802305E+04  0.15294330000E+03 0.  0.
    8880022    1    1    2    0    0  0.30332002967E+03  0.14701903748E+04  0.11600773630E+04  0.19033218119E+04  0.15294330000E+03 0.  0.
<mgrwt>
<rscale>  0 0.15089249E+04</rscale>
<asrwt>0</asrwt>
<pdfrwt beam="1">  1        2 0.29535861E+00 0.15089249E+04</pdfrwt>
<pdfrwt beam="2">  1       -2 0.28279555E+00 0.15089249E+04</pdfrwt>
<totfact> 0.28086308E-01</totfact>
</mgrwt>
</event>
<event>
 4    1  0.1104584E-007  0.4174116E+03  0.7818608E-02  0.1037912E+00
          2   -1    0    0  501    0  0.00000000000E+00  0.00000000000E+00  0.10617526895E+04  0.10617526895E+04  0.25500000000E-02 0. -1.
         -2   -1    0    0    0  501 -0.00000000000E+00 -0.00000000000E+00 -0.53325893046E+03  0.53325893047E+03  0.25500000000E-02 0.  1.
    8880022    1    1    2    0    0  0.29911026427E+03 -0.24773745356E+03 -0.39930078237E+03  0.57764484236E+03  0.15294330000E+03 0.  1.
    8880022    1    1    2    0    0 -0.29911026427E+03  0.24773745356E+03  0.92779454142E+03  0.10173667776E+04  0.15294330000E+03 0.  0.
<mgrwt>
<rscale>  0 0.41741161E+03</rscale>
<asrwt>0</asrwt>
<pdfrwt beam="1">  1        2 0.16334657E+00 0.41741161E+03</pdfrwt>
<pdfrwt beam="2">  1       -2 0.82039835E-01 0.41741161E+03</pdfrwt>
<totfact> 0.31917530E+01</totfact>
</mgrwt>
</event>
<event>
 4    1  0.1104584E-007  0.2440789E+03  0.7818608E-02  0.1117105E+00
         -2   -1    0    0    0  501 -0.00000000000E+00  0.00000000000E+00  0.13828734734E+04  0.13828734734E+04  0.25500000000E-02 0.  1.
          2   -1    0    0  501    0  0.00000000000E+00 -0.00000000000E+00 -0.27219956131E+03  0.27219956132E+03  0.25500000000E-02 0. -1.
    8880022    1    1    2    0    0 -0.17916823835E+03 -0.63887366526E+02  0.13145686409E+04  0.13370359823E+04  0.15294330000E+03 0.  0.
    8880022    1    1    2    0    0  0.17916823835E+03  0.63887366526E+02 -0.20389472885E+03  0.31803705241E+03  0.15294330000E+03 0.  0.
<mgrwt>
<rscale>  0 0.24407889E+03</rscale>
<asrwt>0</asrwt>
<pdfrwt beam="1">  1        2 0.41876856E-01 0.24407889E+03</pdfrwt>
<pdfrwt beam="2">  1       -2 0.21274976E+00 0.24407889E+03</pdfrwt>
<totfact> 0.14813445E+01</totfact>
</mgrwt>
</event>
<event>
 4    1  0.1104584E-007  0.9211047E+03  0.7818608E-02  0.9399577E-01
          2   -1    0    0  501    0  0.00000000000E+00  0.00000000000E+00  0.16591260453E+04  0.16591260454E+04  0.25500000000E-02 0. -1.
         -2   -1    0    0    0  501 -0.00000000000E+00 -0.00000000000E+00 -0.61313826417E+03  0.61313826417E+03  0.25500000000E-02 0.  1.
    8880022    1    1    2    0    0  0.88695225125E+03  0.19585191395E+03  0.60136405680E+02  0.92306571191E+03  0.15294330000E+03 0.  1.
    8880022    1    1    2    0    0 -0.88695225125E+03 -0.19585191395E+03  0.98585137550E+03  0.13491985976E+04  0.15294330000E+03 0.  0.
<mgrwt>
<rscale>  0 0.92110473E+03</rscale>
<asrwt>0</asrwt>
<pdfrwt beam="1">  1        2 0.25525016E+00 0.92110473E+03</pdfrwt>
<pdfrwt beam="2">  1       -2 0.94328965E-01 0.92110473E+03</pdfrwt>
<totfact> 0.98498665E+00</totfact>
</mgrwt>
</event>
<event>
 4    1  0.1104584E-007  0.7023422E+03  0.7818608E-02  0.9713235E-01
         -2   -1    0    0    0  501 -0.00000000000E+00  0.00000000000E+00  0.83170878296E+03  0.83170878297E+03  0.25500000000E-02 0.  1.
          2   -1    0    0  501    0  0.00000000000E+00 -0.00000000000E+00 -0.63046693413E+03  0.63046693413E+03  0.25500000000E-02 0. -1.
    8880022    1    1    2    0    0 -0.27056375065E+03 -0.62983180499E+03 -0.77369231900E+02  0.70659075624E+03  0.15294330000E+03 0.  0.
    8880022    1    1    2    0    0  0.27056375065E+03  0.62983180499E+03  0.27861108073E+03  0.75558496086E+03  0.15294330000E+03 0.  0.
<mgrwt>
<rscale>  0 0.70234215E+03</rscale>
<asrwt>0</asrwt>
<pdfrwt beam="1">  1        2 0.96994914E-01 0.70234215E+03</pdfrwt>
<pdfrwt beam="2">  1       -2 0.12795520E+00 0.70234215E+03</pdfrwt>
<totfact> 0.21485172E+01</totfact>
</mgrwt>
</event>
<event>
 4    1  0.1104584E-007  0.6519826E+03  0.7818608E-02  0.9803066E-01
          2   -1    0    0  501    0  0.00000000000E+00  0.00000000000E+00  0.12307851426E+04  0.12307851426E+04  0.25500000000E-02 0. -1.
         -2   -1    0    0    0  501 -0.00000000000E+00 -0.00000000000E+00 -0.54734304584E+03  0.54734304584E+03  0.25500000000E-02 0.  1.
    8880022    1    1    2    0    0 -0.19609019610E+03  0.60269250818E+03 -0.19834341019E+03  0.68148469227E+03  0.15294330000E+03 0.  0.
    8880022    1    1    2    0    0  0.19609019610E+03 -0.60269250818E+03  0.88178550693E+03  0.10966434962E+04  0.15294330000E+03 0.  0.
<mgrwt>
<rscale>  0 0.65198257E+03</rscale>
<asrwt>0</asrwt>
<pdfrwt beam="1">  1        2 0.18935156E+00 0.65198257E+03</pdfrwt>
<pdfrwt beam="2">  1       -2 0.84206624E-01 0.65198257E+03</pdfrwt>
<totfact> 0.23050593E+01</totfact>
</mgrwt>
</event>
<event>
 4    1  0.1104584E-007  0.3444634E+03  0.7818608E-02  0.1064911E+00
         -2   -1    0    0    0  501 -0.00000000000E+00  0.00000000000E+00  0.72513858476E+02  0.72513858520E+02  0.25500000000E-02 0.  1.
          2   -1    0    0  501    0  0.00000000000E+00 -0.00000000000E+00 -0.30280457713E+04  0.30280457713E+04  0.25500000000E-02 0. -1.
    8880022    1    1    2    0    0  0.48247027033E+01 -0.30860992802E+03 -0.25287776706E+04  0.25521307815E+04  0.15294330000E+03 0.  0.
    8880022    1    1    2    0    0 -0.48247027033E+01  0.30860992802E+03 -0.42675424224E+03  0.54842884836E+03  0.15294330000E+03 0.  0.
<mgrwt>
<rscale>  0 0.34446338E+03</rscale>
<asrwt>0</asrwt>
<pdfrwt beam="1">  1        2 0.46585310E+00 0.34446338E+03</pdfrwt>
<pdfrwt beam="2">  1       -2 0.11155981E-01 0.34446338E+03</pdfrwt>
<totfact> 0.10930308E+02</totfact>
</mgrwt>
</event>
<event>
 4    1  0.1104584E-007  0.3285687E+03  0.7818608E-02  0.1071772E+00
         -2   -1    0    0    0  501 -0.00000000000E+00  0.00000000000E+00  0.42920073408E+03  0.42920073409E+03  0.25500000000E-02 0.  1.
          2   -1    0    0  501    0  0.00000000000E+00 -0.00000000000E+00 -0.96036169335E+03  0.96036169335E+03  0.25500000000E-02 0. -1.
    8880022    1    1    2    0    0  0.21905674251E+03 -0.19125865276E+03  0.33131988540E+03  0.46661573931E+03  0.15294330000E+03 0.  0.
    8880022    1    1    2    0    0 -0.21905674251E+03  0.19125865276E+03 -0.86248084467E+03  0.92294668813E+03  0.15294330000E+03 0. -1.
<mgrwt>
<rscale>  0 0.32856869E+03</rscale>
<asrwt>0</asrwt>
<pdfrwt beam="1">  1        2 0.14774795E+00 0.32856869E+03</pdfrwt>
<pdfrwt beam="2">  1       -2 0.66030882E-01 0.32856869E+03</pdfrwt>
<totfact> 0.60232968E+01</totfact>
</mgrwt>
</event>
<event>
 4    1  0.1104584E-007  0.5377423E+03  0.7818608E-02  0.1004372E+00
         -2   -1    0    0    0  501 -0.00000000000E+00  0.00000000000E+00  0.33638127732E+03  0.33638127733E+03  0.25500000000E-02 0.  1.
          2   -1    0    0  501    0  0.00000000000E+00 -0.00000000000E+00 -0.21858195915E+04  0.21858195915E+04  0.25500000000E-02 0. -1.
    8880022    1    1    2    0    0  0.14196669980E+03  0.49560119102E+03 -0.19070181966E+04  0.19813846521E+04  0.15294330000E+03 0. -1.
    8880022    1    1    2    0    0 -0.14196669980E+03 -0.49560119102E+03  0.57579882443E+02  0.54081621672E+03  0.15294330000E+03 0.  0.
<mgrwt>
<rscale>  0 0.53774226E+03</rscale>
<asrwt>0</asrwt>
<pdfrwt beam="1">  1        2 0.33627993E+00 0.53774226E+03</pdfrwt>
<pdfrwt beam="2">  1       -2 0.51750967E-01 0.53774226E+03</pdfrwt>
<totfact> 0.19972085E+01</totfact>
</mgrwt>
</event>
<event>
 4    1  0.1104584E-007  0.1348030E+04  0.7818608E-02  0.8992321E-01
         -2   -1    0    0    0  501 -0.00000000000E+00  0.00000000000E+00  0.11556384159E+04  0.11556384159E+04  0.25500000000E-02 0.  1.
          2   -1    0    0  501    0  0.00000000000E+00 -0.00000000000E+00 -0.17484330757E+04  0.17484330757E+04  0.25500000000E-02 0. -1.
    8880022    1    1    2    0    0  0.33181478138E+03  0.12975713413E+04  0.16427036834E+03  0.13580017827E+04  0.15294330000E+03 0.  0.
    8880022    1    1    2    0    0 -0.33181478138E+03 -0.12975713413E+04 -0.75706502822E+03  0.15460697089E+04  0.15294330000E+03 0.  0.
<mgrwt>
<rscale>  0 0.13480297E+04</rscale>
<asrwt>0</asrwt>
<pdfrwt beam="1">  1        2 0.26898970E+00 0.13480297E+04</pdfrwt>
<pdfrwt beam="2">  1       -2 0.17779052E+00 0.13480297E+04</pdfrwt>
<totfact> 0.16547897E+00</totfact>
</mgrwt>
</event>
<event>
 4    1  0.1104584E-007  0.9544420E+03  0.7818608E-02  0.9359974E-01
         -2   -1    0    0    0  501 -0.00000000000E+00  0.00000000000E+00  0.17658038646E+04  0.17658038646E+04  0.25500000000E-02 0.  1.
          2   -1    0    0  501    0  0.00000000000E+00 -0.00000000000E+00 -0.54966440940E+03  0.54966440940E+03  0.25500000000E-02 0. -1.
    8880022    1    1    2    0    0 -0.17694591185E+03 -0.92534212096E+03  0.89505365559E+03  0.13084649770E+04  0.15294330000E+03 0.  0.
    8880022    1    1    2    0    0  0.17694591185E+03  0.92534212096E+03  0.32108579964E+03  0.10070032971E+04  0.15294330000E+03 0.  0.
<mgrwt>
<rscale>  0 0.95444201E+03</rscale>
<asrwt>0</asrwt>
<pdfrwt beam="1">  1        2 0.84563754E-01 0.95444201E+03</pdfrwt>
<pdfrwt beam="2">  1       -2 0.27166214E+00 0.95444201E+03</pdfrwt>
<totfact> 0.26280753E+00</totfact>
</mgrwt>
</event>
<event>
 4    1  0.1104584E-007  0.3979248E+03  0.7818608E-02  0.1044501E+00
         -2   -1    0    0    0  501 -0.00000000000E+00  0.00000000000E+00  0.13091068417E+03  0.13091068419E+03  0.25500000000E-02 0.  1.
          2   -1    0    0  501    0  0.00000000000E+00 -0.00000000000E+00 -0.22714559887E+04  0.22714559887E+04  0.25500000000E-02 0. -1.
    8880022    1    1    2    0    0  0.36558274927E+03  0.36079712307E+02 -0.18915661980E+04  0.19329683978E+04  0.15294330000E+03 0.  0.
    8880022    1    1    2    0    0 -0.36558274927E+03 -0.36079712307E+02 -0.24897910648E+03  0.46939827512E+03  0.15294330000E+03 0.  0.
<mgrwt>
<rscale>  0 0.39792480E+03</rscale>
<asrwt>0</asrwt>
<pdfrwt beam="1">  1        2 0.34945474E+00 0.39792480E+03</pdfrwt>
<pdfrwt beam="2">  1       -2 0.20140107E-01 0.39792480E+03</pdfrwt>
<totfact> 0.10798263E+02</totfact>
</mgrwt>
</event>
<event>
 4    1  0.1104584E-007  0.4842438E+03  0.7818608E-02  0.1017975E+00
         -2   -1    0    0    0  501 -0.00000000000E+00  0.00000000000E+00  0.17393774475E+04  0.17393774475E+04  0.25500000000E-02 0.  1.
          2   -1    0    0  501    0  0.00000000000E+00 -0.00000000000E+00 -0.26107915734E+03  0.26107915736E+03  0.25500000000E-02 0. -1.
    8880022    1    1    2    0    0 -0.18706160539E+03 -0.41965261889E+03  0.43556135396E+02  0.48619867821E+03  0.15294330000E+03 0.  0.
    8880022    1    1    2    0    0  0.18706160539E+03  0.41965261889E+03  0.14347421548E+04  0.15142579267E+04  0.15294330000E+03 0.  0.
<mgrwt>
<rscale>  0 0.48424376E+03</rscale>
<asrwt>0</asrwt>
<pdfrwt beam="1">  1        2 0.40166024E-01 0.48424376E+03</pdfrwt>
<pdfrwt beam="2">  1       -2 0.26759653E+00 0.48424376E+03</pdfrwt>
<totfact> 0.68855640E+00</totfact>
</mgrwt>
</event>
<event>
 4    1  0.1104584E-007  0.1121638E+04  0.7818608E-02  0.9184355E-01
         -2   -1    0    0    0  501 -0.00000000000E+00  0.00000000000E+00  0.50302980336E+03  0.50302980337E+03  0.25500000000E-02 0.  1.
          2   -1    0    0  501    0  0.00000000000E+00 -0.00000000000E+00 -0.29413824248E+04  0.29413824248E+04  0.25500000000E-02 0. -1.
    8880022    1    1    2    0    0  0.57865586733E+03  0.94859745553E+03 -0.55278337020E+03  0.12504562579E+04  0.15294330000E+03 0.  0.
    8880022    1    1    2    0    0 -0.57865586733E+03 -0.94859745553E+03 -0.18855692512E+04  0.21939559703E+04  0.15294330000E+03 0.  0.
<mgrwt>
<rscale>  0 0.11216378E+04</rscale>
<asrwt>0</asrwt>
<pdfrwt beam="1">  1        2 0.45252037E+00 0.11216378E+04</pdfrwt>
<pdfrwt beam="2">  1       -2 0.77389202E-01 0.11216378E+04</pdfrwt>
<totfact> 0.28285789E+00</totfact>
</mgrwt>
</event>
<event>
 4    1  0.1104584E-007  0.7241091E+03  0.7818608E-02  0.9676868E-01
          2   -1    0    0  501    0  0.00000000000E+00  0.00000000000E+00  0.82775159555E+03  0.82775159555E+03  0.25500000000E-02 0. -1.
         -2   -1    0    0    0  501 -0.00000000000E+00 -0.00000000000E+00 -0.10664044777E+04  0.10664044777E+04  0.25500000000E-02 0.  1.
    8880022    1    1    2    0    0  0.69790709660E+03 -0.11776261919E+03 -0.72278726465E+03  0.10231106650E+04  0.15294330000E+03 0.  0.
    8880022    1    1    2    0    0 -0.69790709660E+03  0.11776261919E+03  0.48413438245E+03  0.87104540826E+03  0.15294330000E+03 0.  0.
<mgrwt>
<rscale>  0 0.72410911E+03</rscale>
<asrwt>0</asrwt>
<pdfrwt beam="1">  1        2 0.12734640E+00 0.72410911E+03</pdfrwt>
<pdfrwt beam="2">  1       -2 0.16406223E+00 0.72410911E+03</pdfrwt>
<totfact> 0.78998562E+00</totfact>
</mgrwt>
</event>
<event>
 4    1  0.1104584E-007  0.5543828E+03  0.7818608E-02  0.1000485E+00
          2   -1    0    0  501    0  0.00000000000E+00  0.00000000000E+00  0.23410363695E+04  0.23410363695E+04  0.25500000000E-02 0. -1.
         -2   -1    0    0    0  501 -0.00000000000E+00 -0.00000000000E+00 -0.20486179394E+03  0.20486179396E+03  0.25500000000E-02 0.  1.
    8880022    1    1    2    0    0 -0.16425011948E+03 -0.50692257861E+03  0.30521052665E+03  0.63284573242E+03  0.15294330000E+03 0.  0.
    8880022    1    1    2    0    0  0.16425011948E+03  0.50692257861E+03  0.18309640489E+04  0.19130524310E+04  0.15294330000E+03 0.  0.
<mgrwt>
<rscale>  0 0.55438277E+03</rscale>
<asrwt>0</asrwt>
<pdfrwt beam="1">  1        2 0.36015943E+00 0.55438277E+03</pdfrwt>
<pdfrwt beam="2">  1       -2 0.31517200E-01 0.55438277E+03</pdfrwt>
<totfact> 0.42960982E+01</totfact>
</mgrwt>
</event>
<event>
 4    1  0.1104584E-007  0.3732048E+03  0.7818608E-02  0.1053474E+00
          2   -1    0    0  501    0  0.00000000000E+00  0.00000000000E+00  0.15037464411E+04  0.15037464411E+04  0.25500000000E-02 0. -1.
         -2   -1    0    0    0  501 -0.00000000000E+00 -0.00000000000E+00 -0.14607188039E+03  0.14607188042E+03  0.25500000000E-02 0.  1.
    8880022    1    1    2    0    0  0.13929464305E+03  0.31062388212E+03  0.17984801386E+03  0.41427907844E+03  0.15294330000E+03 0.  0.
    8880022    1    1    2    0    0 -0.13929464305E+03 -0.31062388212E+03  0.11778265468E+04  0.12355392431E+04  0.15294330000E+03 0.  0.
<mgrwt>
<rscale>  0 0.37320483E+03</rscale>
<asrwt>0</asrwt>
<pdfrwt beam="1">  1        2 0.23134559E+00 0.37320483E+03</pdfrwt>
<pdfrwt beam="2">  1       -2 0.22472598E-01 0.37320483E+03</pdfrwt>
<totfact> 0.23101835E+02</totfact>
</mgrwt>
</event>
<event>
 4    1  0.1104584E-007  0.3869231E+03  0.7818608E-02  0.1048404E+00
          2   -1    0    0  501    0  0.00000000000E+00  0.00000000000E+00  0.13176776863E+04  0.13176776863E+04  0.25500000000E-02 0. -1.
         -2   -1    0    0    0  501 -0.00000000000E+00 -0.00000000000E+00 -0.18198384359E+03  0.18198384360E+03  0.25500000000E-02 0.  1.
    8880022    1    1    2    0    0  0.18119189830E+03  0.30575703878E+03  0.10825523613E+03  0.40178193082E+03  0.15294330000E+03 0.  0.
    8880022    1    1    2    0    0 -0.18119189830E+03 -0.30575703878E+03  0.10274386066E+04  0.10978795991E+04  0.15294330000E+03 0.  0.
<mgrwt>
<rscale>  0 0.38692315E+03</rscale>
<asrwt>0</asrwt>
<pdfrwt beam="1">  1        2 0.20271964E+00 0.38692315E+03</pdfrwt>
<pdfrwt beam="2">  1       -2 0.27997514E-01 0.38692315E+03</pdfrwt>
<totfact> 0.19724852E+02</totfact>
</mgrwt>
</event>
<event>
 4    1  0.1104584E-007  0.6159611E+03  0.7818608E-02  0.9872834E-01
          2   -1    0    0  501    0  0.00000000000E+00  0.00000000000E+00  0.18492221517E+04  0.18492221517E+04  0.25500000000E-02 0. -1.
         -2   -1    0    0    0  501 -0.00000000000E+00 -0.00000000000E+00 -0.32632884152E+03  0.32632884153E+03  0.25500000000E-02 0.  1.
    8880022    1    1    2    0    0  0.71060024634E+02  0.59242462728E+03  0.14242519767E+04  0.15517415417E+04  0.15294330000E+03 0.  0.
    8880022    1    1    2    0    0 -0.71060024634E+02 -0.59242462728E+03  0.98641333477E+02  0.62380945151E+03  0.15294330000E+03 0.  0.
<mgrwt>
<rscale>  0 0.61596113E+03</rscale>
<asrwt>0</asrwt>
<pdfrwt beam="1">  1        2 0.28449571E+00 0.61596113E+03</pdfrwt>
<pdfrwt beam="2">  1       -2 0.50204438E-01 0.61596113E+03</pdfrwt>
<totfact> 0.31886485E+01</totfact>
</mgrwt>
</event>
<event>
 4    1  0.1104584E-007  0.8232656E+03  0.7818608E-02  0.9526938E-01
         -2   -1    0    0    0  501 -0.00000000000E+00  0.00000000000E+00  0.82383944199E+03  0.82383944200E+03  0.25500000000E-02 0.  1.
          2   -1    0    0  501    0  0.00000000000E+00 -0.00000000000E+00 -0.21924082313E+04  0.21924082313E+04  0.25500000000E-02 0. -1.
    8880022    1    1    2    0    0  0.22574168785E+03  0.77679812869E+03 -0.18763263997E+04  0.20489917163E+04  0.15294330000E+03 0.  0.
    8880022    1    1    2    0    0 -0.22574168785E+03 -0.77679812869E+03  0.50775761038E+03  0.96725595697E+03  0.15294330000E+03 0.  0.
<mgrwt>
<rscale>  0 0.82326563E+03</rscale>
<asrwt>0</asrwt>
<pdfrwt beam="1">  1        2 0.33729357E+00 0.82326563E+03</pdfrwt>
<pdfrwt beam="2">  1       -2 0.12674453E+00 0.82326563E+03</pdfrwt>
<totfact> 0.24836178E+00</totfact>
</mgrwt>
</event>
<event>
 4    1  0.1104584E-007  0.6832549E+03  0.7818608E-02  0.9746305E-01
         -2   -1    0    0    0  501 -0.00000000000E+00  0.00000000000E+00  0.40570402580E+03  0.40570402581E+03  0.25500000000E-02 0.  1.
          2   -1    0    0  501    0  0.00000000000E+00 -0.00000000000E+00 -0.12817324375E+04  0.12817324375E+04  0.25500000000E-02 0. -1.
    8880022    1    1    2    0    0  0.54015837351E+03  0.38945408469E+03 -0.70779707312E+03  0.98377533120E+03  0.15294330000E+03 0.  0.
    8880022    1    1    2    0    0 -0.54015837351E+03 -0.38945408469E+03 -0.16823133858E+03  0.70366113211E+03  0.15294330000E+03 0. -1.
<mgrwt>
<rscale>  0 0.68325486E+03</rscale>
<asrwt>0</asrwt>
<pdfrwt beam="1">  1        2 0.19718960E+00 0.68325486E+03</pdfrwt>
<pdfrwt beam="2">  1       -2 0.62416005E-01 0.68325486E+03</pdfrwt>
<totfact> 0.41417681E+01</totfact>
</mgrwt>
</event>
<event>
 4    1  0.1104584E-007  0.2367448E+03  0.7818608E-02  0.1121981E+00
         -2   -1    0    0    0  501 -0.00000000000E+00  0.00000000000E+00  0.16395389643E+04  0.16395389643E+04  0.25500000000E-02 0.  1.
          2   -1    0    0  501    0  0.00000000000E+00 -0.00000000000E+00 -0.20115552530E+03  0.20115552532E+03  0.25500000000E-02 0. -1.
    8880022    1    1    2    0    0  0.16858999904E+03  0.65068101910E+02  0.15576959845E+04  0.15755839802E+04  0.15294330000E+03 0.  0.
    8880022    1    1    2    0    0 -0.16858999904E+03 -0.65068101910E+02 -0.11931254549E+03  0.26511050939E+03  0.15294330000E+03 0.  0.
<mgrwt>
<rscale>  0 0.23674480E+03</rscale>
<asrwt>0</asrwt>
<pdfrwt beam="1">  1        2 0.30947004E-01 0.23674480E+03</pdfrwt>
<pdfrwt beam="2">  1       -2 0.25223677E+00 0.23674480E+03</pdfrwt>
<totfact> 0.11976038E+01</totfact>
</mgrwt>
</event>
<event>
 4    1  0.1104584E-007  0.1051843E+04  0.7818608E-02  0.9253443E-01
          2   -1    0    0  501    0  0.00000000000E+00  0.00000000000E+00  0.21213254611E+04  0.21213254611E+04  0.25500000000E-02 0. -1.
         -2   -1    0    0    0  501 -0.00000000000E+00 -0.00000000000E+00 -0.78222813275E+03  0.78222813276E+03  0.25500000000E-02 0.  1.
    8880022    1    1    2    0    0  0.63616862243E+03 -0.82357276742E+03  0.15076308757E+04  0.18382940814E+04  0.15294330000E+03 0.  0.
    8880022    1    1    2    0    0 -0.63616862243E+03  0.82357276742E+03 -0.16853354728E+03  0.10652595125E+04  0.15294330000E+03 0.  0.
<mgrwt>
<rscale>  0 0.10518433E+04</rscale>
<asrwt>0</asrwt>
<pdfrwt beam="1">  1        2 0.32635776E+00 0.10518433E+04</pdfrwt>
<pdfrwt beam="2">  1       -2 0.12034279E+00 0.10518433E+04</pdfrwt>
<totfact> 0.29960405E+00</totfact>
</mgrwt>
</event>
<event>
 4    1  0.1104584E-007  0.4430937E+03  0.7818608E-02  0.1029802E+00
         -2   -1    0    0    0  501 -0.00000000000E+00  0.00000000000E+00  0.30360238816E+03  0.30360238817E+03  0.25500000000E-02 0.  1.
          2   -1    0    0  501    0  0.00000000000E+00 -0.00000000000E+00 -0.14863658862E+04  0.14863658862E+04  0.25500000000E-02 0. -1.
    8880022    1    1    2    0    0  0.46237214854E+02  0.41328260286E+03  0.81303988685E+02  0.45049126679E+03  0.15294330000E+03 0.  0.
    8880022    1    1    2    0    0 -0.46237214854E+02 -0.41328260286E+03 -0.12640674867E+04  0.13394770076E+04  0.15294330000E+03 0.  0.
<mgrwt>
<rscale>  0 0.44309372E+03</rscale>
<asrwt>0</asrwt>
<pdfrwt beam="1">  1        2 0.22867167E+00 0.44309372E+03</pdfrwt>
<pdfrwt beam="2">  1       -2 0.46708061E-01 0.44309372E+03</pdfrwt>
<totfact> 0.59671687E+01</totfact>
</mgrwt>
</event>
<event>
 4    1  0.1104584E-007  0.2689538E+03  0.7818608E-02  0.1101880E+00
         -2   -1    0    0    0  501 -0.00000000000E+00  0.00000000000E+00  0.23343953875E+03  0.23343953877E+03  0.25500000000E-02 0.  1.
          2   -1    0    0  501    0  0.00000000000E+00 -0.00000000000E+00 -0.13192061302E+04  0.13192061302E+04  0.25500000000E-02 0. -1.
    8880022    1    1    2    0    0  0.21779150187E+03 -0.38876111306E+02  0.13616978643E+03  0.30146036898E+03  0.15294330000E+03 0.  0.
    8880022    1    1    2    0    0 -0.21779150187E+03  0.38876111306E+02 -0.12219363779E+04  0.12511853000E+04  0.15294330000E+03 0. -1.
<mgrwt>
<rscale>  0 0.26895379E+03</rscale>
<asrwt>0</asrwt>
<pdfrwt beam="1">  1        2 0.20295478E+00 0.26895379E+03</pdfrwt>
<pdfrwt beam="2">  1       -2 0.35913776E-01 0.26895379E+03</pdfrwt>
<totfact> 0.12682193E+02</totfact>
</mgrwt>
</event>
<event>
 4    1  0.1104584E-007  0.1129604E+04  0.7818608E-02  0.9176808E-01
          2   -1    0    0  501    0  0.00000000000E+00  0.00000000000E+00  0.22615565000E+04  0.22615565000E+04  0.25500000000E-02 0. -1.
         -2   -1    0    0    0  501 -0.00000000000E+00 -0.00000000000E+00 -0.88769510596E+03  0.88769510597E+03  0.25500000000E-02 0.  1.
    8880022    1    1    2    0    0 -0.74580549526E+03 -0.83449901974E+03 -0.26360546746E+03  0.11599542863E+04  0.15294330000E+03 0.  0.
    8880022    1    1    2    0    0  0.74580549526E+03  0.83449901974E+03  0.16374668615E+04  0.19892973197E+04  0.15294330000E+03 0.  0.
<mgrwt>
<rscale>  0 0.11296044E+04</rscale>
<asrwt>0</asrwt>
<pdfrwt beam="1">  1        2 0.34793177E+00 0.11296044E+04</pdfrwt>
<pdfrwt beam="2">  1       -2 0.13656848E+00 0.11296044E+04</pdfrwt>
<totfact> 0.17980879E+00</totfact>
</mgrwt>
</event>
<event>
 4    1  0.1104584E-007  0.2893279E+03  0.7818608E-02  0.1090701E+00
         -2   -1    0    0    0  501 -0.00000000000E+00  0.00000000000E+00  0.61532413548E+02  0.61532413601E+02  0.25500000000E-02 0.  1.
          2   -1    0    0  501    0  0.00000000000E+00 -0.00000000000E+00 -0.30028767223E+04  0.30028767223E+04  0.25500000000E-02 0. -1.
    8880022    1    1    2    0    0 -0.23004380549E+02  0.24451949018E+03 -0.33750639245E+03  0.44454606123E+03  0.15294330000E+03 0.  0.
    8880022    1    1    2    0    0  0.23004380549E+02 -0.24451949018E+03 -0.26038379163E+04  0.26198630747E+04  0.15294330000E+03 0.  0.
<mgrwt>
<rscale>  0 0.28932790E+03</rscale>
<asrwt>0</asrwt>
<pdfrwt beam="1">  1        2 0.46198092E+00 0.28932790E+03</pdfrwt>
<pdfrwt beam="2">  1       -2 0.94665275E-02 0.28932790E+03</pdfrwt>
<totfact> 0.14974586E+02</totfact>
</mgrwt>
</event>
<event>
 4    1  0.1104584E-007  0.2520362E+03  0.7818608E-02  0.1112025E+00
         -2   -1    0    0    0  501 -0.00000000000E+00  0.00000000000E+00  0.16847434957E+03  0.16847434958E+03  0.25500000000E-02 0.  1.
          2   -1    0    0  501    0  0.00000000000E+00 -0.00000000000E+00 -0.33961898014E+04  0.33961898014E+04  0.25500000000E-02 0. -1.
    8880022    1    1    2    0    0  0.17334472205E+03 -0.10041006758E+03 -0.32943429413E+04  0.33039699821E+04  0.15294330000E+03 0.  0.
    8880022    1    1    2    0    0 -0.17334472205E+03  0.10041006758E+03  0.66627489497E+02  0.26069416891E+03  0.15294330000E+03 0.  1.
<mgrwt>
<rscale>  0 0.25203616E+03</rscale>
<asrwt>0</asrwt>
<pdfrwt beam="1">  1        2 0.52249069E+00 0.25203616E+03</pdfrwt>
<pdfrwt beam="2">  1       -2 0.25919133E-01 0.25203616E+03</pdfrwt>
<totfact> 0.16130966E+01</totfact>
</mgrwt>
</event>
<event>
 4    1  0.1104584E-007  0.6254161E+03  0.7818608E-02  0.9854035E-01
         -2   -1    0    0    0  501 -0.00000000000E+00  0.00000000000E+00  0.24142454181E+03  0.24142454183E+03  0.25500000000E-02 0.  1.
          2   -1    0    0  501    0  0.00000000000E+00 -0.00000000000E+00 -0.25334936395E+04  0.25334936395E+04  0.25500000000E-02 0. -1.
    8880022    1    1    2    0    0 -0.17915059811E+03  0.57936062948E+03 -0.19790940948E+04  0.20755622768E+04  0.15294330000E+03 0.  0.
    8880022    1    1    2    0    0  0.17915059811E+03 -0.57936062948E+03 -0.31297500295E+03  0.69935590459E+03  0.15294330000E+03 0.  0.
<mgrwt>
<rscale>  0 0.62541612E+03</rscale>
<asrwt>0</asrwt>
<pdfrwt beam="1">  1        2 0.38976823E+00 0.62541612E+03</pdfrwt>
<pdfrwt beam="2">  1       -2 0.37142239E-01 0.62541612E+03</pdfrwt>
<totfact> 0.24272939E+01</totfact>
</mgrwt>
</event>
<event>
 4    1  0.1104584E-007  0.4070493E+03  0.7818608E-02  0.1041366E+00
          2   -1    0    0  501    0  0.00000000000E+00  0.00000000000E+00  0.27778428795E+04  0.27778428795E+04  0.25500000000E-02 0. -1.
         -2   -1    0    0    0  501 -0.00000000000E+00 -0.00000000000E+00 -0.51785845666E+03  0.51785845667E+03  0.25500000000E-02 0.  1.
    8880022    1    1    2    0    0 -0.27582284497E+03 -0.25733097112E+03  0.26800412442E+04  0.27107766773E+04  0.15294330000E+03 0.  0.
    8880022    1    1    2    0    0  0.27582284497E+03  0.25733097112E+03 -0.42005682130E+03  0.58492465894E+03  0.15294330000E+03 0.  1.
<mgrwt>
<rscale>  0 0.40704929E+03</rscale>
<asrwt>0</asrwt>
<pdfrwt beam="1">  1        2 0.42736044E+00 0.40704929E+03</pdfrwt>
<pdfrwt beam="2">  1       -2 0.79670532E-01 0.40704929E+03</pdfrwt>
<totfact> 0.38584071E+00</totfact>
</mgrwt>
</event>
<event>
 4    1  0.1104584E-007  0.5106190E+03  0.7818608E-02  0.1011044E+00
          2   -1    0    0  501    0  0.00000000000E+00  0.00000000000E+00  0.29485399229E+04  0.29485399229E+04  0.25500000000E-02 0. -1.
         -2   -1    0    0    0  501 -0.00000000000E+00 -0.00000000000E+00 -0.69577555579E+03  0.69577555579E+03  0.25500000000E-02 0.  1.
    8880022    1    1    2    0    0  0.16940464429E+02  0.48688099724E+03 -0.57605165432E+03  0.76978389582E+03  0.15294330000E+03 0.  0.
    8880022    1    1    2    0    0 -0.16940464429E+02 -0.48688099724E+03  0.28288160214E+04  0.28745315828E+04  0.15294330000E+03 0.  0.
<mgrwt>
<rscale>  0 0.51061898E+03</rscale>
<asrwt>0</asrwt>
<pdfrwt beam="1">  1        2 0.45362152E+00 0.51061898E+03</pdfrwt>
<pdfrwt beam="2">  1       -2 0.10704239E+00 0.51061898E+03</pdfrwt>
<totfact> 0.14942890E+00</totfact>
</mgrwt>
</event>
<event>
 4    1  0.1104584E-007  0.5693688E+03  0.7818608E-02  0.9971076E-01
          2   -1    0    0  501    0  0.00000000000E+00  0.00000000000E+00  0.24244252311E+04  0.24244252311E+04  0.25500000000E-02 0. -1.
         -2   -1    0    0    0  501 -0.00000000000E+00 -0.00000000000E+00 -0.31406817186E+03  0.31406817187E+03  0.25500000000E-02 0.  1.
    8880022    1    1    2    0    0  0.31074808506E+03  0.45191236200E+03  0.20927839554E+04  0.21688534972E+04  0.15294330000E+03 0.  0.
    8880022    1    1    2    0    0 -0.31074808506E+03 -0.45191236200E+03  0.17573103873E+02  0.56963990581E+03  0.15294330000E+03 0.  0.
<mgrwt>
<rscale>  0 0.56936878E+03</rscale>
<asrwt>0</asrwt>
<pdfrwt beam="1">  1        2 0.37298851E+00 0.56936878E+03</pdfrwt>
<pdfrwt beam="2">  1       -2 0.48318179E-01 0.56936878E+03</pdfrwt>
<totfact> 0.16850771E+01</totfact>
</mgrwt>
</event>
<event>
 4    1  0.1104584E-007  0.8445614E+03  0.7818608E-02  0.9497666E-01
         -2   -1    0    0    0  501 -0.00000000000E+00  0.00000000000E+00  0.11606535385E+04  0.11606535385E+04  0.25500000000E-02 0.  1.
          2   -1    0    0  501    0  0.00000000000E+00 -0.00000000000E+00 -0.13113926913E+04  0.13113926913E+04  0.25500000000E-02 0. -1.
    8880022    1    1    2    0    0 -0.82986438630E+03  0.34890214833E+02  0.82563386004E+03  0.11810821947E+04  0.15294330000E+03 0.  0.
    8880022    1    1    2    0    0  0.82986438630E+03 -0.34890214833E+02 -0.97637301286E+03  0.12909640351E+04  0.15294330000E+03 0. -1.
<mgrwt>
<rscale>  0 0.84456135E+03</rscale>
<asrwt>0</asrwt>
<pdfrwt beam="1">  1        2 0.20175272E+00 0.84456135E+03</pdfrwt>
<pdfrwt beam="2">  1       -2 0.17856208E+00 0.84456135E+03</pdfrwt>
<totfact> 0.30556249E+00</totfact>
</mgrwt>
</event>
<event>
 4    1  0.1104584E-007  0.4681673E+03  0.7818608E-02  0.1022439E+00
         -2   -1    0    0    0  501 -0.00000000000E+00  0.00000000000E+00  0.65933742043E+03  0.65933742043E+03  0.25500000000E-02 0.  1.
          2   -1    0    0  501    0  0.00000000000E+00 -0.00000000000E+00 -0.47732410586E+03  0.47732410586E+03  0.25500000000E-02 0. -1.
    8880022    1    1    2    0    0  0.23704490583E+03 -0.37362903573E+03  0.40413799058E+03  0.61847240211E+03  0.15294330000E+03 0.  0.
    8880022    1    1    2    0    0 -0.23704490583E+03  0.37362903573E+03 -0.22212467601E+03  0.51818912419E+03  0.15294330000E+03 0.  0.
<mgrwt>
<rscale>  0 0.46816727E+03</rscale>
<asrwt>0</asrwt>
<pdfrwt beam="1">  1        2 0.73434478E-01 0.46816727E+03</pdfrwt>
<pdfrwt beam="2">  1       -2 0.10143653E+00 0.46816727E+03</pdfrwt>
<totfact> 0.53690235E+01</totfact>
</mgrwt>
</event>
<event>
 4    1  0.1104584E-007  0.1304705E+04  0.7818608E-02  0.9025842E-01
          2   -1    0    0  501    0  0.00000000000E+00  0.00000000000E+00  0.18004265711E+04  0.18004265711E+04  0.25500000000E-02 0. -1.
         -2   -1    0    0    0  501 -0.00000000000E+00 -0.00000000000E+00 -0.10821448618E+04  0.10821448618E+04  0.25500000000E-02 0.  1.
    8880022    1    1    2    0    0 -0.69889154588E+03 -0.10910613582E+04  0.87134826687E+03  0.15689180143E+04  0.15294330000E+03 0.  0.
    8880022    1    1    2    0    0  0.69889154588E+03  0.10910613582E+04 -0.15306655753E+03  0.13136534187E+04  0.15294330000E+03 0.  0.
<mgrwt>
<rscale>  0 0.13047053E+04</rscale>
<asrwt>0</asrwt>
<pdfrwt beam="1">  1        2 0.27698870E+00 0.13047053E+04</pdfrwt>
<pdfrwt beam="2">  1       -2 0.16648383E+00 0.13047053E+04</pdfrwt>
<totfact> 0.18712809E+00</totfact>
</mgrwt>
</event>
<event>
 4    1  0.1104584E-007  0.3065186E+03  0.7818608E-02  0.1082027E+00
         -2   -1    0    0    0  501 -0.00000000000E+00  0.00000000000E+00  0.15730601917E+04  0.15730601917E+04  0.25500000000E-02 0.  1.
          2   -1    0    0  501    0  0.00000000000E+00 -0.00000000000E+00 -0.49742193923E+03  0.49742193923E+03  0.25500000000E-02 0. -1.
    8880022    1    1    2    0    0 -0.26005204884E+03  0.54175216084E+02 -0.43328307897E+03  0.53074278298E+03  0.15294330000E+03 0.  0.
    8880022    1    1    2    0    0  0.26005204884E+03 -0.54175216084E+02  0.15089213315E+04  0.15397393480E+04  0.15294330000E+03 0.  0.
<mgrwt>
<rscale>  0 0.30651864E+03</rscale>
<asrwt>0</asrwt>
<pdfrwt beam="1">  1        2 0.76526453E-01 0.30651864E+03</pdfrwt>
<pdfrwt beam="2">  1       -2 0.24200926E+00 0.30651864E+03</pdfrwt>
<totfact> 0.50039264E+00</totfact>
</mgrwt>
</event>
<event>
 4    1  0.1104584E-007  0.3931766E+03  0.7818608E-02  0.1046168E+00
         -2   -1    0    0    0  501 -0.00000000000E+00  0.00000000000E+00  0.20910773743E+03  0.20910773745E+03  0.25500000000E-02 0.  1.
          2   -1    0    0  501    0  0.00000000000E+00 -0.00000000000E+00 -0.20800225545E+04  0.20800225545E+04  0.25500000000E-02 0. -1.
    8880022    1    1    2    0    0 -0.27586464835E+03  0.23472305114E+03 -0.18543826871E+04  0.18956062403E+04  0.15294330000E+03 0. -1.
    8880022    1    1    2    0    0  0.27586464835E+03 -0.23472305114E+03 -0.16532130030E+02  0.39352405173E+03  0.15294330000E+03 0.  0.
<mgrwt>
<rscale>  0 0.39317664E+03</rscale>
<asrwt>0</asrwt>
<pdfrwt beam="1">  1        2 0.32000346E+00 0.39317664E+03</pdfrwt>
<pdfrwt beam="2">  1       -2 0.32170423E-01 0.39317664E+03</pdfrwt>
<totfact> 0.59246738E+01</totfact>
</mgrwt>
</event>
<event>
 4    1  0.1104584E-007  0.2627820E+03  0.7818608E-02  0.1105483E+00
          2   -1    0    0  501    0  0.00000000000E+00  0.00000000000E+00  0.25841965953E+04  0.25841965953E+04  0.25500000000E-02 0. -1.
         -2   -1    0    0    0  501 -0.00000000000E+00 -0.00000000000E+00 -0.90006979623E+02  0.90006979659E+02  0.25500000000E-02 0.  1.
    8880022    1    1    2    0    0 -0.88543618009E+02 -0.19448069260E+03  0.12590947001E+03  0.29138901788E+03  0.15294330000E+03 0.  0.
    8880022    1    1    2    0    0  0.88543618009E+02  0.19448069260E+03  0.23682801457E+04  0.23828145571E+04  0.15294330000E+03 0.  0.
<mgrwt>
<rscale>  0 0.26278197E+03</rscale>
<asrwt>0</asrwt>
<pdfrwt beam="1">  1        2 0.39756861E+00 0.26278197E+03</pdfrwt>
<pdfrwt beam="2">  1       -2 0.13847231E-01 0.26278197E+03</pdfrwt>
<totfact> 0.14185871E+02</totfact>
</mgrwt>
</event>
<event>
 4    1  0.1104584E-007  0.6922678E+03  0.7818608E-02  0.9730547E-01
          2   -1    0    0  501    0  0.00000000000E+00  0.00000000000E+00  0.65545111430E+03  0.65545111430E+03  0.25500000000E-02 0. -1.
         -2   -1    0    0    0  501 -0.00000000000E+00 -0.00000000000E+00 -0.80317634072E+03  0.80317634072E+03  0.25500000000E-02 0.  1.
    8880022    1    1    2    0    0 -0.18290882982E+03 -0.64991335260E+03 -0.29225995992E+03  0.75143232769E+03  0.15294330000E+03 0.  0.
    8880022    1    1    2    0    0  0.18290882982E+03  0.64991335260E+03  0.14453473350E+03  0.70719512733E+03  0.15294330000E+03 0.  0.
<mgrwt>
<rscale>  0 0.69226777E+03</rscale>
<asrwt>0</asrwt>
<pdfrwt beam="1">  1        2 0.10083863E+00 0.69226777E+03</pdfrwt>
<pdfrwt beam="2">  1       -2 0.12356559E+00 0.69226777E+03</pdfrwt>
<totfact> 0.22380005E+01</totfact>
</mgrwt>
</event>
<event>
 4    1  0.1104584E-007  0.1978572E+03  0.7818608E-02  0.1151560E+00
          2   -1    0    0  501    0  0.00000000000E+00  0.00000000000E+00  0.15229953505E+04  0.15229953505E+04  0.25500000000E-02 0. -1.
         -2   -1    0    0    0  501 -0.00000000000E+00 -0.00000000000E+00 -0.10449799643E+03  0.10449799646E+03  0.25500000000E-02 0.  1.
    8880022    1    1    2    0    0  0.12386027273E+03  0.20357974019E+02  0.26365376147E+01  0.19787475487E+03  0.15294330000E+03 0.  1.
    8880022    1    1    2    0    0 -0.12386027273E+03 -0.20357974019E+02  0.14158608164E+04  0.14296185921E+04  0.15294330000E+03 0.  0.
<mgrwt>
<rscale>  0 0.19785719E+03</rscale>
<asrwt>0</asrwt>
<pdfrwt beam="1">  1        2 0.23430697E+00 0.19785719E+03</pdfrwt>
<pdfrwt beam="2">  1       -2 0.16076615E-01 0.19785719E+03</pdfrwt>
<totfact> 0.41159408E+02</totfact>
</mgrwt>
</event>
<event>
 4    1  0.1104584E-007  0.3829222E+03  0.7818608E-02  0.1049859E+00
          2   -1    0    0  501    0  0.00000000000E+00  0.00000000000E+00  0.10690836802E+04  0.10690836802E+04  0.25500000000E-02 0. -1.
         -2   -1    0    0    0  501 -0.00000000000E+00 -0.00000000000E+00 -0.19611288385E+03  0.19611288387E+03  0.25500000000E-02 0.  1.
    8880022    1    1    2    0    0 -0.18896600712E+03  0.29585403636E+03  0.89629970496E+02  0.39327210339E+03  0.15294330000E+03 0.  0.
    8880022    1    1    2    0    0  0.18896600712E+03 -0.29585403636E+03  0.78334082587E+03  0.87192446070E+03  0.15294330000E+03 0.  0.
<mgrwt>
<rscale>  0 0.38292221E+03</rscale>
<asrwt>0</asrwt>
<pdfrwt beam="1">  1        2 0.16447441E+00 0.38292221E+03</pdfrwt>
<pdfrwt beam="2">  1       -2 0.30171214E-01 0.38292221E+03</pdfrwt>
<totfact> 0.23997663E+02</totfact>
</mgrwt>
</event>
<event>
 4    1  0.1104584E-007  0.2028946E+03  0.7818608E-02  0.1147320E+00
         -2   -1    0    0    0  501 -0.00000000000E+00  0.00000000000E+00  0.56734060832E+03  0.56734060832E+03  0.25500000000E-02 0.  1.
          2   -1    0    0  501    0  0.00000000000E+00 -0.00000000000E+00 -0.13340206455E+03  0.13340206457E+03  0.25500000000E-02 0. -1.
    8880022    1    1    2    0    0  0.12583871074E+03  0.44036068114E+02  0.45358816779E+03  0.49689881806E+03  0.15294330000E+03 0. -1.
    8880022    1    1    2    0    0 -0.12583871074E+03 -0.44036068114E+02 -0.19649624015E+02  0.20384385484E+03  0.15294330000E+03 0.  0.
<mgrwt>
<rscale>  0 0.20289458E+03</rscale>
<asrwt>0</asrwt>
<pdfrwt beam="1">  1        2 0.20523394E-01 0.20289458E+03</pdfrwt>
<pdfrwt beam="2">  1       -2 0.87283173E-01 0.20289458E+03</pdfrwt>
<totfact> 0.31669593E+02</totfact>
</mgrwt>
</event>
<event>
 4    1  0.1104584E-007  0.1232573E+04  0.7818608E-02  0.9084813E-01
          2   -1    0    0  501    0  0.00000000000E+00  0.00000000000E+00  0.15293459380E+04  0.15293459380E+04  0.25500000000E-02 0. -1.
         -2   -1    0    0    0  501 -0.00000000000E+00 -0.00000000000E+00 -0.11668376630E+04  0.11668376630E+04  0.25500000000E-02 0.  1.
    8880022    1    1    2    0    0 -0.66809655046E+03 -0.10244474024E+04 -0.33850045178E+03  0.12782095641E+04  0.15294330000E+03 0.  0.
    8880022    1    1    2    0    0  0.66809655046E+03  0.10244474024E+04  0.70100872678E+03  0.14179740368E+04  0.15294330000E+03 0.  0.
<mgrwt>
<rscale>  0 0.12325734E+04</rscale>
<asrwt>0</asrwt>
<pdfrwt beam="1">  1        2 0.23528399E+00 0.12325734E+04</pdfrwt>
<pdfrwt beam="2">  1       -2 0.17951349E+00 0.12325734E+04</pdfrwt>
<totfact> 0.21594760E+00</totfact>
</mgrwt>
</event>
<event>
 4    1  0.1104584E-007  0.1309721E+04  0.7818608E-02  0.9021892E-01
         -2   -1    0    0    0  501 -0.00000000000E+00  0.00000000000E+00  0.12129749104E+04  0.12129749104E+04  0.25500000000E-02 0.  1.
          2   -1    0    0  501    0  0.00000000000E+00 -0.00000000000E+00 -0.18924267866E+04  0.18924267866E+04  0.25500000000E-02 0. -1.
    8880022    1    1    2    0    0 -0.11991828595E+04 -0.50392281553E+03  0.44082739408E+03  0.13819182968E+04  0.15294330000E+03 0.  0.
    8880022    1    1    2    0    0  0.11991828595E+04  0.50392281553E+03 -0.11202792703E+04  0.17234834003E+04  0.15294330000E+03 0.  0.
<mgrwt>
<rscale>  0 0.13097211E+04</rscale>
<asrwt>0</asrwt>
<pdfrwt beam="1">  1        2 0.29114258E+00 0.13097211E+04</pdfrwt>
<pdfrwt beam="2">  1       -2 0.18661152E+00 0.13097211E+04</pdfrwt>
<totfact> 0.12012952E+00</totfact>
</mgrwt>
</event>
<event>
 4    1  0.1104584E-007  0.9625397E+03  0.7818608E-02  0.9350613E-01
          2   -1    0    0  501    0  0.00000000000E+00  0.00000000000E+00  0.17829432121E+04  0.17829432121E+04  0.25500000000E-02 0. -1.
         -2   -1    0    0    0  501 -0.00000000000E+00 -0.00000000000E+00 -0.68543231432E+03  0.68543231433E+03  0.25500000000E-02 0.  1.
    8880022    1    1    2    0    0  0.62159077317E+03  0.71882954786E+03 -0.58240113525E+02  0.96430004252E+03  0.15294330000E+03 0.  0.
    8880022    1    1    2    0    0 -0.62159077317E+03 -0.71882954786E+03  0.11557510113E+04  0.15040754839E+04  0.15294330000E+03 0.  0.
<mgrwt>
<rscale>  0 0.96253969E+03</rscale>
<asrwt>0</asrwt>
<pdfrwt beam="1">  1        2 0.27429895E+00 0.96253969E+03</pdfrwt>
<pdfrwt beam="2">  1       -2 0.10545113E+00 0.96253969E+03</pdfrwt>
<totfact> 0.64281710E+00</totfact>
</mgrwt>
</event>
<event>
 4    1  0.1104584E-007  0.5206224E+03  0.7818608E-02  0.1008532E+00
         -2   -1    0    0    0  501 -0.00000000000E+00  0.00000000000E+00  0.67376643038E+03  0.67376643038E+03  0.25500000000E-02 0.  1.
          2   -1    0    0  501    0  0.00000000000E+00 -0.00000000000E+00 -0.98507258051E+03  0.98507258052E+03  0.25500000000E-02 0. -1.
    8880022    1    1    2    0    0  0.49414762014E+03 -0.58941613325E+02 -0.79361452849E+03  0.94914259051E+03  0.15294330000E+03 0.  0.
    8880022    1    1    2    0    0 -0.49414762014E+03  0.58941613325E+02  0.48230837835E+03  0.70969642039E+03  0.15294330000E+03 0.  0.
<mgrwt>
<rscale>  0 0.52062236E+03</rscale>
<asrwt>0</asrwt>
<pdfrwt beam="1">  1        2 0.15154963E+00 0.52062236E+03</pdfrwt>
<pdfrwt beam="2">  1       -2 0.10365637E+00 0.52062236E+03</pdfrwt>
<totfact> 0.20421398E+01</totfact>
</mgrwt>
</event>
<event>
 4    1  0.1104584E-007  0.2480908E+03  0.7818608E-02  0.1114517E+00
          2   -1    0    0  501    0  0.00000000000E+00  0.00000000000E+00  0.14832974410E+04  0.14832974410E+04  0.25500000000E-02 0. -1.
         -2   -1    0    0    0  501 -0.00000000000E+00 -0.00000000000E+00 -0.30158404023E+03  0.30158404024E+03  0.25500000000E-02 0.  1.
    8880022    1    1    2    0    0 -0.63087504833E+02 -0.18487121742E+03  0.14196313280E+04  0.14411461275E+04  0.15294330000E+03 0.  0.
    8880022    1    1    2    0    0  0.63087504833E+02  0.18487121742E+03 -0.23791792724E+03  0.34373535374E+03  0.15294330000E+03 0.  1.
<mgrwt>
<rscale>  0 0.24809082E+03</rscale>
<asrwt>0</asrwt>
<pdfrwt beam="1">  1        2 0.22819961E+00 0.24809082E+03</pdfrwt>
<pdfrwt beam="2">  1       -2 0.46397545E-01 0.24809082E+03</pdfrwt>
<totfact> 0.63445695E+01</totfact>
</mgrwt>
</event>
<event>
 4    1  0.1104584E-007  0.6488975E+03  0.7818608E-02  0.9808850E-01
          2   -1    0    0  501    0  0.00000000000E+00  0.00000000000E+00  0.95537780782E+03  0.95537780782E+03  0.25500000000E-02 0. -1.
         -2   -1    0    0    0  501 -0.00000000000E+00 -0.00000000000E+00 -0.13077830177E+04  0.13077830177E+04  0.25500000000E-02 0.  1.
    8880022    1    1    2    0    0  0.13377391240E+01 -0.63061443488E+03 -0.10975836259E+04  0.12750520867E+04  0.15294330000E+03 0.  0.
    8880022    1    1    2    0    0 -0.13377391240E+01  0.63061443488E+03  0.74517841600E+03  0.98810873881E+03  0.15294330000E+03 0.  0.
<mgrwt>
<rscale>  0 0.64889753E+03</rscale>
<asrwt>0</asrwt>
<pdfrwt beam="1">  1        2 0.14698120E+00 0.64889753E+03</pdfrwt>
<pdfrwt beam="2">  1       -2 0.20119739E+00 0.64889753E+03</pdfrwt>
<totfact> 0.36587548E+00</totfact>
</mgrwt>
</event>
<event>
 4    1  0.1104584E-007  0.2289055E+03  0.7818608E-02  0.1127412E+00
          2   -1    0    0  501    0  0.00000000000E+00  0.00000000000E+00  0.17977168088E+04  0.17977168088E+04  0.25500000000E-02 0. -1.
         -2   -1    0    0    0  501 -0.00000000000E+00 -0.00000000000E+00 -0.30355837736E+03  0.30355837737E+03  0.25500000000E-02 0.  1.
    8880022    1    1    2    0    0  0.16905410404E+03 -0.20658855903E+02 -0.25184610754E+03  0.34032953636E+03  0.15294330000E+03 0.  1.
    8880022    1    1    2    0    0 -0.16905410404E+03  0.20658855903E+02  0.17460045390E+04  0.17609456498E+04  0.15294330000E+03 0.  0.
<mgrwt>
<rscale>  0 0.22890551E+03</rscale>
<asrwt>0</asrwt>
<pdfrwt beam="1">  1        2 0.27657182E+00 0.22890551E+03</pdfrwt>
<pdfrwt beam="2">  1       -2 0.46701289E-01 0.22890551E+03</pdfrwt>
<totfact> 0.43048354E+01</totfact>
</mgrwt>
</event>
<event>
 4    1  0.1104584E-007  0.7378414E+03  0.7818608E-02  0.9654621E-01
          2   -1    0    0  501    0  0.00000000000E+00  0.00000000000E+00  0.20796912702E+04  0.20796912702E+04  0.25500000000E-02 0. -1.
         -2   -1    0    0    0  501 -0.00000000000E+00 -0.00000000000E+00 -0.60503424418E+03  0.60503424419E+03  0.25500000000E-02 0.  1.
    8880022    1    1    2    0    0 -0.72102172836E+03 -0.33851418912E+02  0.17484222639E+04  0.18977329415E+04  0.15294330000E+03 0.  0.
    8880022    1    1    2    0    0  0.72102172836E+03  0.33851418912E+02 -0.27376523787E+03  0.78699257290E+03  0.15294330000E+03 0.  0.
<mgrwt>
<rscale>  0 0.73784138E+03</rscale>
<asrwt>0</asrwt>
<pdfrwt beam="1">  1        2 0.31995250E+00 0.73784138E+03</pdfrwt>
<pdfrwt beam="2">  1       -2 0.93082192E-01 0.73784138E+03</pdfrwt>
<totfact> 0.61309486E+00</totfact>
</mgrwt>
</event>
<event>
 4    1  0.1104584E-007  0.6645697E+03  0.7818608E-02  0.9779818E-01
         -2   -1    0    0    0  501 -0.00000000000E+00  0.00000000000E+00  0.56928894586E+03  0.56928894586E+03  0.25500000000E-02 0.  1.
          2   -1    0    0  501    0  0.00000000000E+00 -0.00000000000E+00 -0.26603036610E+04  0.26603036610E+04  0.25500000000E-02 0. -1.
    8880022    1    1    2    0    0  0.64217291106E+03 -0.76649628905E+02 -0.24046058678E+04  0.24947509386E+04  0.15294330000E+03 0.  0.
    8880022    1    1    2    0    0 -0.64217291106E+03  0.76649628905E+02  0.31359115267E+03  0.73484166822E+03  0.15294330000E+03 0.  0.
<mgrwt>
<rscale>  0 0.66456969E+03</rscale>
<asrwt>0</asrwt>
<pdfrwt beam="1">  1        2 0.40927748E+00 0.66456969E+03</pdfrwt>
<pdfrwt beam="2">  1       -2 0.87582916E-01 0.66456969E+03</pdfrwt>
<totfact> 0.33880272E+00</totfact>
</mgrwt>
</event>
<event>
 4    1  0.1104584E-007  0.8185162E+03  0.7818608E-02  0.9533596E-01
          2   -1    0    0  501    0  0.00000000000E+00  0.00000000000E+00  0.90170216790E+03  0.90170216791E+03  0.25500000000E-02 0. -1.
         -2   -1    0    0    0  501 -0.00000000000E+00 -0.00000000000E+00 -0.10030465811E+04  0.10030465811E+04  0.25500000000E-02 0.  1.
    8880022    1    1    2    0    0 -0.76051339503E+03  0.26114459400E+03  0.43424652425E+03  0.92657369908E+03  0.15294330000E+03 0.  0.
    8880022    1    1    2    0    0  0.76051339503E+03 -0.26114459400E+03 -0.53559093743E+03  0.97817504991E+03  0.15294330000E+03 0.  0.
<mgrwt>
<rscale>  0 0.81851620E+03</rscale>
<asrwt>0</asrwt>
<pdfrwt beam="1">  1        2 0.13872341E+00 0.81851620E+03</pdfrwt>
<pdfrwt beam="2">  1       -2 0.15431486E+00 0.81851620E+03</pdfrwt>
<totfact> 0.82015737E+00</totfact>
</mgrwt>
</event>
<event>
 4    1  0.1104584E-007  0.2915046E+03  0.7818608E-02  0.1089566E+00
          2   -1    0    0  501    0  0.00000000000E+00  0.00000000000E+00  0.70410330648E+03  0.70410330649E+03  0.25500000000E-02 0. -1.
         -2   -1    0    0    0  501 -0.00000000000E+00 -0.00000000000E+00 -0.28763339939E+03  0.28763339940E+03  0.25500000000E-02 0.  1.
    8880022    1    1    2    0    0  0.23631558812E+03  0.75750918107E+02 -0.16954376347E+03  0.33722396049E+03  0.15294330000E+03 0.  0.
    8880022    1    1    2    0    0 -0.23631558812E+03 -0.75750918107E+02  0.58601367057E+03  0.65451274540E+03  0.15294330000E+03 0.  0.
<mgrwt>
<rscale>  0 0.29150457E+03</rscale>
<asrwt>0</asrwt>
<pdfrwt beam="1">  1        2 0.10832358E+00 0.29150457E+03</pdfrwt>
<pdfrwt beam="2">  1       -2 0.44251293E-01 0.29150457E+03</pdfrwt>
<totfact> 0.20539556E+02</totfact>
</mgrwt>
</event>
<event>
 4    1  0.1104584E-007  0.1999844E+03  0.7818608E-02  0.1149752E+00
         -2   -1    0    0    0  501 -0.00000000000E+00  0.00000000000E+00  0.32545190185E+03  0.32545190186E+03  0.25500000000E-02 0.  1.
          2   -1    0    0  501    0  0.00000000000E+00 -0.00000000000E+00 -0.16515725258E+03  0.16515725260E+03  0.25500000000E-02 0. -1.
    8880022    1    1    2    0    0  0.32794576469E+02  0.12460593840E+03  0.20424816817E+03  0.28585151975E+03  0.15294330000E+03 0.  0.
    8880022    1    1    2    0    0 -0.32794576469E+02 -0.12460593840E+03 -0.43953518901E+02  0.20475763470E+03  0.15294330000E+03 0.  0.
<mgrwt>
<rscale>  0 0.19998444E+03</rscale>
<asrwt>0</asrwt>
<pdfrwt beam="1">  1        2 0.25408808E-01 0.19998444E+03</pdfrwt>
<pdfrwt beam="2">  1       -2 0.50069523E-01 0.19998444E+03</pdfrwt>
<totfact> 0.80619534E+02</totfact>
</mgrwt>
</event>
<event>
 4    1  0.1104584E-007  0.7202333E+03  0.7818608E-02  0.9683243E-01
         -2   -1    0    0    0  501 -0.00000000000E+00  0.00000000000E+00  0.66596395582E+03  0.66596395583E+03  0.25500000000E-02 0.  1.
          2   -1    0    0  501    0  0.00000000000E+00 -0.00000000000E+00 -0.25963147047E+04  0.25963147047E+04  0.25500000000E-02 0. -1.
    8880022    1    1    2    0    0  0.64393202760E+03  0.28407035534E+03 -0.23298729079E+04  0.24386561551E+04  0.15294330000E+03 0.  0.
    8880022    1    1    2    0    0 -0.64393202760E+03 -0.28407035534E+03  0.39952215898E+03  0.82362250545E+03  0.15294330000E+03 0.  0.
<mgrwt>
<rscale>  0 0.72023335E+03</rscale>
<asrwt>0</asrwt>
<pdfrwt beam="1">  1        2 0.39943303E+00 0.72023335E+03</pdfrwt>
<pdfrwt beam="2">  1       -2 0.10245599E+00 0.72023335E+03</pdfrwt>
<totfact> 0.25267942E+00</totfact>
</mgrwt>
</event>
<event>
 4    1  0.1104584E-007  0.2499093E+03  0.7818608E-02  0.1113362E+00
         -2   -1    0    0    0  501 -0.00000000000E+00  0.00000000000E+00  0.59515629519E+02  0.59515629574E+02  0.25500000000E-02 0.  1.
          2   -1    0    0  501    0  0.00000000000E+00 -0.00000000000E+00 -0.18277480593E+04  0.18277480593E+04  0.25500000000E-02 0. -1.
    8880022    1    1    2    0    0  0.16678851991E+03  0.10604062580E+03 -0.26832123240E+03  0.36667555341E+03  0.15294330000E+03 0.  0.
    8880022    1    1    2    0    0 -0.16678851991E+03 -0.10604062580E+03 -0.14999111973E+04  0.15205881354E+04  0.15294330000E+03 0.  1.
<mgrwt>
<rscale>  0 0.24990934E+03</rscale>
<asrwt>0</asrwt>
<pdfrwt beam="1">  1        2 0.28119197E+00 0.24990934E+03</pdfrwt>
<pdfrwt beam="2">  1       -2 0.91562521E-02 0.24990934E+03</pdfrwt>
<totfact> 0.70214035E+02</totfact>
</mgrwt>
</event>
<event>
 4    1  0.1104584E-007  0.9251390E+03  0.7818608E-02  0.9394691E-01
          2   -1    0    0  501    0  0.00000000000E+00  0.00000000000E+00  0.13364129914E+04  0.13364129914E+04  0.25500000000E-02 0. -1.
         -2   -1    0    0    0  501 -0.00000000000E+00 -0.00000000000E+00 -0.97176436974E+03  0.97176436974E+03  0.25500000000E-02 0.  1.
    8880022    1    1    2    0    0 -0.20931149344E+03 -0.88807616933E+03  0.85621636987E+03  0.12605509545E+04  0.15294330000E+03 0.  0.
    8880022    1    1    2    0    0  0.20931149344E+03  0.88807616933E+03 -0.49156774821E+03  0.10476264067E+04  0.15294330000E+03 0.  0.
<mgrwt>
<rscale>  0 0.92513904E+03</rscale>
<asrwt>0</asrwt>
<pdfrwt beam="1">  1        2 0.20560200E+00 0.92513904E+03</pdfrwt>
<pdfrwt beam="2">  1       -2 0.14950221E+00 0.92513904E+03</pdfrwt>
<totfact> 0.47604228E+00</totfact>
</mgrwt>
</event>
<event>
 4    1  0.1104584E-007  0.5872741E+03  0.7818608E-02  0.9932166E-01
         -2   -1    0    0    0  501 -0.00000000000E+00  0.00000000000E+00  0.14297850755E+03  0.14297850758E+03  0.25500000000E-02 0.  1.
          2   -1    0    0  501    0  0.00000000000E+00 -0.00000000000E+00 -0.30380368941E+04  0.30380368941E+04  0.25500000000E-02 0. -1.
    8880022    1    1    2    0    0 -0.42046227352E+03 -0.38040854924E+03 -0.72563344689E+03  0.93350668988E+03  0.15294330000E+03 0.  0.
    8880022    1    1    2    0    0  0.42046227352E+03  0.38040854924E+03 -0.21694249397E+04  0.22475087118E+04  0.15294330000E+03 0.  0.
<mgrwt>
<rscale>  0 0.58727408E+03</rscale>
<asrwt>0</asrwt>
<pdfrwt beam="1">  1        2 0.46739024E+00 0.58727408E+03</pdfrwt>
<pdfrwt beam="2">  1       -2 0.21996696E-01 0.58727408E+03</pdfrwt>
<totfact> 0.32370249E+01</totfact>
</mgrwt>
</event>
<event>
 4    1  0.1104584E-007  0.5937402E+03  0.7818608E-02  0.9918479E-01
          2   -1    0    0  501    0  0.00000000000E+00  0.00000000000E+00  0.12421449999E+04  0.12421449999E+04  0.25500000000E-02 0. -1.
         -2   -1    0    0    0  501 -0.00000000000E+00 -0.00000000000E+00 -0.33098138344E+03  0.33098138345E+03  0.25500000000E-02 0.  1.
    8880022    1    1    2    0    0  0.29386697658E+03 -0.49272498898E+03  0.75253818353E+03  0.95856198828E+03  0.15294330000E+03 0.  0.
    8880022    1    1    2    0    0 -0.29386697658E+03  0.49272498898E+03  0.15862543292E+03  0.61456439506E+03  0.15294330000E+03 0.  0.
<mgrwt>
<rscale>  0 0.59374015E+03</rscale>
<asrwt>0</asrwt>
<pdfrwt beam="1">  1        2 0.19109923E+00 0.59374015E+03</pdfrwt>
<pdfrwt beam="2">  1       -2 0.50920213E-01 0.59374015E+03</pdfrwt>
<totfact> 0.67360197E+01</totfact>
</mgrwt>
</event>
<event>
 4    1  0.1104584E-007  0.5443810E+03  0.7818608E-02  0.1002803E+00
         -2   -1    0    0    0  501 -0.00000000000E+00  0.00000000000E+00  0.60622118133E+03  0.60622118134E+03  0.25500000000E-02 0.  1.
          2   -1    0    0  501    0  0.00000000000E+00 -0.00000000000E+00 -0.55622945788E+03  0.55622945789E+03  0.25500000000E-02 0. -1.
    8880022    1    1    2    0    0 -0.51911885719E+03 -0.58946136031E+02 -0.17729866904E+03  0.57252555044E+03  0.15294330000E+03 0.  0.
    8880022    1    1    2    0    0  0.51911885719E+03  0.58946136031E+02  0.22729039249E+03  0.58992508879E+03  0.15294330000E+03 0.  0.
<mgrwt>
<rscale>  0 0.54438101E+03</rscale>
<asrwt>0</asrwt>
<pdfrwt beam="1">  1        2 0.85573764E-01 0.54438101E+03</pdfrwt>
<pdfrwt beam="2">  1       -2 0.93264796E-01 0.54438101E+03</pdfrwt>
<totfact> 0.54357646E+01</totfact>
</mgrwt>
</event>
<event>
 4    1  0.1104584E-007  0.1034334E+04  0.7818608E-02  0.9271669E-01
         -2   -1    0    0    0  501 -0.00000000000E+00  0.00000000000E+00  0.97241466949E+03  0.97241466950E+03  0.25500000000E-02 0.  1.
          2   -1    0    0  501    0  0.00000000000E+00 -0.00000000000E+00 -0.19694499895E+04  0.19694499895E+04  0.25500000000E-02 0. -1.
    8880022    1    1    2    0    0 -0.50499777553E+03  0.88962472599E+03  0.47870517087E+03  0.11397390930E+04  0.15294330000E+03 0.  0.
    8880022    1    1    2    0    0  0.50499777553E+03 -0.88962472599E+03 -0.14757404908E+04  0.18021255660E+04  0.15294330000E+03 0.  0.
<mgrwt>
<rscale>  0 0.10343339E+04</rscale>
<asrwt>0</asrwt>
<pdfrwt beam="1">  1        2 0.30299231E+00 0.10343339E+04</pdfrwt>
<pdfrwt beam="2">  1       -2 0.14960226E+00 0.10343339E+04</pdfrwt>
<totfact> 0.20812648E+00</totfact>
</mgrwt>
</event>
<event>
 4    1  0.1104584E-007  0.4986635E+03  0.7818608E-02  0.1014128E+00
         -2   -1    0    0    0  501 -0.00000000000E+00  0.00000000000E+00  0.59339533381E+03  0.59339533381E+03  0.25500000000E-02 0.  1.
          2   -1    0    0  501    0  0.00000000000E+00 -0.00000000000E+00 -0.74999689905E+03  0.74999689905E+03  0.25500000000E-02 0. -1.
    8880022    1    1    2    0    0  0.47308741709E+03 -0.38235749974E+02 -0.52448985268E+03  0.72370915109E+03  0.15294330000E+03 0.  0.
    8880022    1    1    2    0    0 -0.47308741709E+03  0.38235749974E+02  0.36788828745E+03  0.61968308178E+03  0.15294330000E+03 0.  0.
<mgrwt>
<rscale>  0 0.49866354E+03</rscale>
<asrwt>0</asrwt>
<pdfrwt beam="1">  1        2 0.11538414E+00 0.49866354E+03</pdfrwt>
<pdfrwt beam="2">  1       -2 0.91291590E-01 0.49866354E+03</pdfrwt>
<totfact> 0.39849525E+01</totfact>
</mgrwt>
</event>
<event>
 4    1  0.1104584E-007  0.7586280E+03  0.7818608E-02  0.9621911E-01
         -2   -1    0    0    0  501 -0.00000000000E+00  0.00000000000E+00  0.16324940490E+04  0.16324940490E+04  0.25500000000E-02 0.  1.
          2   -1    0    0  501    0  0.00000000000E+00 -0.00000000000E+00 -0.11146126867E+04  0.11146126867E+04  0.25500000000E-02 0. -1.
    8880022    1    1    2    0    0 -0.16040213521E+03 -0.72553152277E+03  0.13946894184E+04  0.15876633970E+04  0.15294330000E+03 0.  0.
    8880022    1    1    2    0    0  0.16040213521E+03  0.72553152277E+03 -0.87680805601E+03  0.11594433387E+04  0.15294330000E+03 0. -1.
<mgrwt>
<rscale>  0 0.75862803E+03</rscale>
<asrwt>0</asrwt>
<pdfrwt beam="1">  1        2 0.17147888E+00 0.75862803E+03</pdfrwt>
<pdfrwt beam="2">  1       -2 0.25115293E+00 0.75862803E+03</pdfrwt>
<totfact> 0.13953465E+00</totfact>
</mgrwt>
</event>
<event>
 4    1  0.1104584E-007  0.1150328E+04  0.7818608E-02  0.9157481E-01
         -2   -1    0    0    0  501 -0.00000000000E+00  0.00000000000E+00  0.61804357072E+03  0.61804357072E+03  0.25500000000E-02 0.  1.
          2   -1    0    0  501    0  0.00000000000E+00 -0.00000000000E+00 -0.26457293681E+04  0.26457293681E+04  0.25500000000E-02 0. -1.
    8880022    1    1    2    0    0 -0.52114813305E+03  0.10140357946E+04 -0.30110545015E+03  0.11890837289E+04  0.15294330000E+03 0.  0.
    8880022    1    1    2    0    0  0.52114813305E+03 -0.10140357946E+04 -0.17265803472E+04  0.20746892099E+04  0.15294330000E+03 0.  0.
<mgrwt>
<rscale>  0 0.11503285E+04</rscale>
<asrwt>0</asrwt>
<pdfrwt beam="1">  1        2 0.40703528E+00 0.11503285E+04</pdfrwt>
<pdfrwt beam="2">  1       -2 0.95083628E-01 0.11503285E+04</pdfrwt>
<totfact> 0.26384563E+00</totfact>
</mgrwt>
</event>
<event>
 4    1  0.1104584E-007  0.1358895E+04  0.7818608E-02  0.8984122E-01
          2   -1    0    0  501    0  0.00000000000E+00  0.00000000000E+00  0.18067813578E+04  0.18067813579E+04  0.25500000000E-02 0. -1.
         -2   -1    0    0    0  501 -0.00000000000E+00 -0.00000000000E+00 -0.12158947772E+04  0.12158947772E+04  0.25500000000E-02 0.  1.
    8880022    1    1    2    0    0  0.56500425791E+03 -0.12263656878E+04  0.89891537069E+03  0.16293075549E+04  0.15294330000E+03 0.  0.
    8880022    1    1    2    0    0 -0.56500425791E+03  0.12263656878E+04 -0.30802879007E+03  0.13933685802E+04  0.15294330000E+03 0.  0.
<mgrwt>
<rscale>  0 0.13588945E+04</rscale>
<asrwt>0</asrwt>
<pdfrwt beam="1">  1        2 0.27796636E+00 0.13588945E+04</pdfrwt>
<pdfrwt beam="2">  1       -2 0.18706074E+00 0.13588945E+04</pdfrwt>
<totfact> 0.13240735E+00</totfact>
</mgrwt>
</event>
<event>
 4    1  0.1104584E-007  0.1269058E+04  0.7818608E-02  0.9054468E-01
         -2   -1    0    0    0  501 -0.00000000000E+00  0.00000000000E+00  0.11591198668E+04  0.11591198668E+04  0.25500000000E-02 0.  1.
          2   -1    0    0  501    0  0.00000000000E+00 -0.00000000000E+00 -0.20486927452E+04  0.20486927452E+04  0.25500000000E-02 0. -1.
    8880022    1    1    2    0    0 -0.11094322905E+04 -0.59689011688E+03 -0.13546403764E+04  0.18562219752E+04  0.15294330000E+03 0.  0.
    8880022    1    1    2    0    0  0.11094322905E+04  0.59689011688E+03  0.46506749800E+03  0.13515906368E+04  0.15294330000E+03 0.  0.
<mgrwt>
<rscale>  0 0.12690585E+04</rscale>
<asrwt>0</asrwt>
<pdfrwt beam="1">  1        2 0.31518350E+00 0.12690585E+04</pdfrwt>
<pdfrwt beam="2">  1       -2 0.17832613E+00 0.12690585E+04</pdfrwt>
<totfact> 0.11270063E+00</totfact>
</mgrwt>
</event>
<event>
 4    1  0.1104584E-007  0.2160956E+03  0.7818608E-02  0.1136828E+00
          2   -1    0    0  501    0  0.00000000000E+00  0.00000000000E+00  0.96788925011E+03  0.96788925011E+03  0.25500000000E-02 0. -1.
         -2   -1    0    0    0  501 -0.00000000000E+00 -0.00000000000E+00 -0.26103834556E+03  0.26103834557E+03  0.25500000000E-02 0.  1.
    8880022    1    1    2    0    0 -0.12869208833E+03 -0.82121807610E+02 -0.20135558280E+03  0.29536649882E+03  0.15294330000E+03 0.  0.
    8880022    1    1    2    0    0  0.12869208833E+03  0.82121807610E+02  0.90820648736E+03  0.93356109686E+03  0.15294330000E+03 0.  0.
<mgrwt>
<rscale>  0 0.21609558E+03</rscale>
<asrwt>0</asrwt>
<pdfrwt beam="1">  1        2 0.14890604E+00 0.21609558E+03</pdfrwt>
<pdfrwt beam="2">  1       -2 0.40159745E-01 0.21609558E+03</pdfrwt>
<totfact> 0.16594635E+02</totfact>
</mgrwt>
</event>
<event>
 4    1  0.1104584E-007  0.4145016E+03  0.7818608E-02  0.1038871E+00
          2   -1    0    0  501    0  0.00000000000E+00  0.00000000000E+00  0.21442957998E+04  0.21442957998E+04  0.25500000000E-02 0. -1.
         -2   -1    0    0    0  501 -0.00000000000E+00 -0.00000000000E+00 -0.53407702617E+03  0.53407702618E+03  0.25500000000E-02 0.  1.
    8880022    1    1    2    0    0 -0.52297102069E+00  0.38525267660E+03  0.20397600637E+04  0.20814496556E+04  0.15294330000E+03 0. -1.
    8880022    1    1    2    0    0  0.52297102069E+00 -0.38525267660E+03 -0.42954129013E+03  0.59692317032E+03  0.15294330000E+03 0.  0.
<mgrwt>
<rscale>  0 0.41450157E+03</rscale>
<asrwt>0</asrwt>
<pdfrwt beam="1">  1        2 0.32989167E+00 0.41450157E+03</pdfrwt>
<pdfrwt beam="2">  1       -2 0.82165695E-01 0.41450157E+03</pdfrwt>
<totfact> 0.80743828E+00</totfact>
</mgrwt>
</event>
<event>
 4    1  0.1104584E-007  0.5025421E+03  0.7818608E-02  0.1013118E+00
         -2   -1    0    0    0  501 -0.00000000000E+00  0.00000000000E+00  0.29398881269E+03  0.29398881270E+03  0.25500000000E-02 0.  1.
          2   -1    0    0  501    0  0.00000000000E+00 -0.00000000000E+00 -0.19902147214E+04  0.19902147214E+04  0.25500000000E-02 0. -1.
    8880022    1    1    2    0    0 -0.38164153004E+03  0.28897513988E+03  0.12919310576E+02  0.50270811662E+03  0.15294330000E+03 0.  0.
    8880022    1    1    2    0    0  0.38164153004E+03 -0.28897513988E+03 -0.17091452193E+04  0.17814954175E+04  0.15294330000E+03 0.  0.
<mgrwt>
<rscale>  0 0.50254208E+03</rscale>
<asrwt>0</asrwt>
<pdfrwt beam="1">  1        2 0.30618687E+00 0.50254208E+03</pdfrwt>
<pdfrwt beam="2">  1       -2 0.45229049E-01 0.50254208E+03</pdfrwt>
<totfact> 0.33649014E+01</totfact>
</mgrwt>
</event>
<event>
 4    1  0.1104584E-007  0.8918816E+03  0.7818608E-02  0.9435787E-01
         -2   -1    0    0    0  501 -0.00000000000E+00  0.00000000000E+00  0.10564967921E+04  0.10564967921E+04  0.25500000000E-02 0.  1.
          2   -1    0    0  501    0  0.00000000000E+00 -0.00000000000E+00 -0.88844137388E+03  0.88844137388E+03  0.25500000000E-02 0. -1.
    8880022    1    1    2    0    0  0.70230905780E+03 -0.52803699648E+03 -0.29578775030E+03  0.93965053534E+03  0.15294330000E+03 0. -1.
    8880022    1    1    2    0    0 -0.70230905780E+03  0.52803699648E+03  0.46384316849E+03  0.10052876306E+04  0.15294330000E+03 0.  1.
<mgrwt>
<rscale>  0 0.89188157E+03</rscale>
<asrwt>0</asrwt>
<pdfrwt beam="1">  1        2 0.13668329E+00 0.89188157E+03</pdfrwt>
<pdfrwt beam="2">  1       -2 0.16253797E+00 0.89188157E+03</pdfrwt>
<totfact> 0.72180129E+00</totfact>
</mgrwt>
</event>
<event>
 4    1  0.1104584E-007  0.6081669E+03  0.7818608E-02  0.9888606E-01
         -2   -1    0    0    0  501 -0.00000000000E+00  0.00000000000E+00  0.36715465594E+03  0.36715465595E+03  0.25500000000E-02 0.  1.
          2   -1    0    0  501    0  0.00000000000E+00 -0.00000000000E+00 -0.22093493136E+04  0.22093493136E+04  0.25500000000E-02 0. -1.
    8880022    1    1    2    0    0  0.57155325822E+03  0.14072008618E+03  0.29100438672E+02  0.60886267596E+03  0.15294330000E+03 0.  0.
    8880022    1    1    2    0    0 -0.57155325822E+03 -0.14072008618E+03 -0.18712950963E+04  0.19676412935E+04  0.15294330000E+03 0.  0.
<mgrwt>
<rscale>  0 0.60816685E+03</rscale>
<asrwt>0</asrwt>
<pdfrwt beam="1">  1        2 0.33989988E+00 0.60816685E+03</pdfrwt>
<pdfrwt beam="2">  1       -2 0.56485333E-01 0.60816685E+03</pdfrwt>
<totfact> 0.15969230E+01</totfact>
</mgrwt>
</event>
<event>
 4    1  0.1104584E-007  0.8688237E+03  0.7818608E-02  0.9465415E-01
          2   -1    0    0  501    0  0.00000000000E+00  0.00000000000E+00  0.51188634204E+04  0.51188634204E+04  0.25500000000E-02 0. -1.
         -2   -1    0    0    0  501 -0.00000000000E+00 -0.00000000000E+00 -0.18600520260E+03  0.18600520262E+03  0.25500000000E-02 0.  1.
    8880022    1    1    2    0    0 -0.83469727970E+03 -0.18639609737E+03  0.12590673305E+04  0.15297402556E+04  0.15294330000E+03 0.  0.
    8880022    1    1    2    0    0  0.83469727970E+03  0.18639609737E+03  0.36737908873E+04  0.37751283674E+04  0.15294330000E+03 0.  0.
<mgrwt>
<rscale>  0 0.86882375E+03</rscale>
<asrwt>0</asrwt>
<pdfrwt beam="1">  1        2 0.78751741E+00 0.86882375E+03</pdfrwt>
<pdfrwt beam="2">  1       -2 0.28616186E-01 0.86882375E+03</pdfrwt>
<totfact> 0.30802095E-01</totfact>
</mgrwt>
</event>
<event>
 4    1  0.1104584E-007  0.7742252E+03  0.7818608E-02  0.9598093E-01
          2   -1    0    0  501    0  0.00000000000E+00  0.00000000000E+00  0.23589148607E+04  0.23589148607E+04  0.25500000000E-02 0. -1.
         -2   -1    0    0    0  501 -0.00000000000E+00 -0.00000000000E+00 -0.37982243330E+03  0.37982243331E+03  0.25500000000E-02 0.  1.
    8880022    1    1    2    0    0 -0.52161992671E+03 -0.55131264854E+03  0.20174142232E+03  0.80007764552E+03  0.15294330000E+03 0.  0.
    8880022    1    1    2    0    0  0.52161992671E+03  0.55131264854E+03  0.17773510051E+04  0.19386596485E+04  0.15294330000E+03 0.  0.
<mgrwt>
<rscale>  0 0.77422519E+03</rscale>
<asrwt>0</asrwt>
<pdfrwt beam="1">  1        2 0.36290998E+00 0.77422519E+03</pdfrwt>
<pdfrwt beam="2">  1       -2 0.58434220E-01 0.77422519E+03</pdfrwt>
<totfact> 0.11955862E+01</totfact>
</mgrwt>
</event>
<event>
 4    1  0.1104584E-007  0.6148207E+03  0.7818608E-02  0.9875126E-01
          2   -1    0    0  501    0  0.00000000000E+00  0.00000000000E+00  0.14787545405E+04  0.14787545406E+04  0.25500000000E-02 0. -1.
         -2   -1    0    0    0  501 -0.00000000000E+00 -0.00000000000E+00 -0.57925812672E+03  0.57925812672E+03  0.25500000000E-02 0.  1.
    8880022    1    1    2    0    0  0.79697627646E+01  0.59544047648E+03  0.12188953244E+04  0.13651777697E+04  0.15294330000E+03 0.  0.
    8880022    1    1    2    0    0 -0.79697627646E+01 -0.59544047648E+03 -0.31939891056E+03  0.69283489753E+03  0.15294330000E+03 0.  0.
<mgrwt>
<rscale>  0 0.61482073E+03</rscale>
<asrwt>0</asrwt>
<pdfrwt beam="1">  1        2 0.22750070E+00 0.61482073E+03</pdfrwt>
<pdfrwt beam="2">  1       -2 0.89116636E-01 0.61482073E+03</pdfrwt>
<totfact> 0.14725630E+01</totfact>
</mgrwt>
</event>
<event>
 4    1  0.1104584E-007  0.5969956E+03  0.7818608E-02  0.9911659E-01
          2   -1    0    0  501    0  0.00000000000E+00  0.00000000000E+00  0.56269385500E+03  0.56269385500E+03  0.25500000000E-02 0. -1.
         -2   -1    0    0    0  501 -0.00000000000E+00 -0.00000000000E+00 -0.17056045504E+04  0.17056045504E+04  0.25500000000E-02 0.  1.
    8880022    1    1    2    0    0  0.45342797404E+03 -0.35695261083E+03 -0.14706882643E+04  0.15872390235E+04  0.15294330000E+03 0.  0.
    8880022    1    1    2    0    0 -0.45342797404E+03  0.35695261083E+03  0.32777756887E+03  0.68105938191E+03  0.15294330000E+03 0.  0.
<mgrwt>
<rscale>  0 0.59699560E+03</rscale>
<asrwt>0</asrwt>
<pdfrwt beam="1">  1        2 0.86568286E-01 0.59699560E+03</pdfrwt>
<pdfrwt beam="2">  1       -2 0.26240070E+00 0.59699560E+03</pdfrwt>
<totfact> 0.30590300E+00</totfact>
</mgrwt>
</event>
<event>
 4    1  0.1104584E-007  0.4657778E+03  0.7818608E-02  0.1023119E+00
         -2   -1    0    0    0  501 -0.00000000000E+00  0.00000000000E+00  0.24768517658E+03  0.24768517660E+03  0.25500000000E-02 0.  1.
          2   -1    0    0  501    0  0.00000000000E+00 -0.00000000000E+00 -0.13417978462E+04  0.13417978462E+04  0.25500000000E-02 0. -1.
    8880022    1    1    2    0    0 -0.42628044279E+02  0.43788145173E+03 -0.78755600680E+02  0.47238904896E+03  0.15294330000E+03 0.  1.
    8880022    1    1    2    0    0  0.42628044279E+02 -0.43788145173E+03 -0.10153570689E+04  0.11170939738E+04  0.15294330000E+03 0.  0.
<mgrwt>
<rscale>  0 0.46577781E+03</rscale>
<asrwt>0</asrwt>
<pdfrwt beam="1">  1        2 0.20643043E+00 0.46577781E+03</pdfrwt>
<pdfrwt beam="2">  1       -2 0.38105413E-01 0.46577781E+03</pdfrwt>
<totfact> 0.10645340E+02</totfact>
</mgrwt>
</event>
<event>
 4    1  0.1104584E-007  0.2331219E+03  0.7818608E-02  0.1124462E+00
         -2   -1    0    0    0  501 -0.00000000000E+00  0.00000000000E+00  0.61937928294E+03  0.61937928294E+03  0.25500000000E-02 0.  1.
          2   -1    0    0  501    0  0.00000000000E+00 -0.00000000000E+00 -0.61418501725E+03  0.61418501726E+03  0.25500000000E-02 0. -1.
    8880022    1    1    2    0    0  0.10102664722E+03  0.14404095000E+03  0.57362552560E+03  0.61918662402E+03  0.15294330000E+03 0.  1.
    8880022    1    1    2    0    0 -0.10102664722E+03 -0.14404095000E+03 -0.56843125992E+03  0.61437767618E+03  0.15294330000E+03 0.  0.
<mgrwt>
<rscale>  0 0.23312192E+03</rscale>
<asrwt>0</asrwt>
<pdfrwt beam="1">  1        2 0.94490003E-01 0.23312192E+03</pdfrwt>
<pdfrwt beam="2">  1       -2 0.95289120E-01 0.23312192E+03</pdfrwt>
<totfact> 0.48107592E+01</totfact>
</mgrwt>
</event>
<event>
 4    1  0.1104584E-007  0.1680444E+03  0.7818608E-02  0.1179903E+00
         -2   -1    0    0    0  501 -0.00000000000E+00  0.00000000000E+00  0.41534962104E+03  0.41534962105E+03  0.25500000000E-02 0.  1.
          2   -1    0    0  501    0  0.00000000000E+00 -0.00000000000E+00 -0.18326545159E+04  0.18326545159E+04  0.25500000000E-02 0. -1.
    8880022    1    1    2    0    0 -0.53638111886E+02  0.44387046331E+02  0.39430332212E+03  0.42861873475E+03  0.15294330000E+03 0.  0.
    8880022    1    1    2    0    0  0.53638111886E+02 -0.44387046331E+02 -0.18116082170E+04  0.18193854022E+04  0.15294330000E+03 0. -1.
<mgrwt>
<rscale>  0 0.16804437E+03</rscale>
<asrwt>0</asrwt>
<pdfrwt beam="1">  1        2 0.28194684E+00 0.16804437E+03</pdfrwt>
<pdfrwt beam="2">  1       -2 0.63899943E-01 0.16804437E+03</pdfrwt>
<totfact> 0.22537591E+01</totfact>
</mgrwt>
</event>
<event>
 4    1  0.1104584E-007  0.6272785E+03  0.7818608E-02  0.9850374E-01
          2   -1    0    0  501    0  0.00000000000E+00  0.00000000000E+00  0.30763981622E+04  0.30763981622E+04  0.25500000000E-02 0. -1.
         -2   -1    0    0    0  501 -0.00000000000E+00 -0.00000000000E+00 -0.26002298629E+03  0.26002298630E+03  0.25500000000E-02 0.  1.
    8880022    1    1    2    0    0 -0.52118903706E+03 -0.31376522622E+03  0.21905447596E+03  0.66442693051E+03  0.15294330000E+03 0.  0.
    8880022    1    1    2    0    0  0.52118903706E+03  0.31376522622E+03  0.25973206999E+04  0.26719942179E+04  0.15294330000E+03 0.  0.
<mgrwt>
<rscale>  0 0.62727847E+03</rscale>
<asrwt>0</asrwt>
<pdfrwt beam="1">  1        2 0.47329203E+00 0.62727847E+03</pdfrwt>
<pdfrwt beam="2">  1       -2 0.40003536E-01 0.62727847E+03</pdfrwt>
<totfact> 0.10061310E+01</totfact>
</mgrwt>
</event>
<event>
 4    1  0.1104584E-007  0.8140064E+03  0.7818608E-02  0.9539962E-01
         -2   -1    0    0    0  501 -0.00000000000E+00  0.00000000000E+00  0.69376243522E+03  0.69376243523E+03  0.25500000000E-02 0.  1.
          2   -1    0    0  501    0  0.00000000000E+00 -0.00000000000E+00 -0.10876862659E+04  0.10876862659E+04  0.25500000000E-02 0. -1.
    8880022    1    1    2    0    0  0.72711962623E+02 -0.79619582971E+03  0.11403421404E+03  0.82195515920E+03  0.15294330000E+03 0.  0.
    8880022    1    1    2    0    0 -0.72711962623E+02  0.79619582971E+03 -0.50795804469E+03  0.95949354190E+03  0.15294330000E+03 0.  0.
<mgrwt>
<rscale>  0 0.81400644E+03</rscale>
<asrwt>0</asrwt>
<pdfrwt beam="1">  1        2 0.16733635E+00 0.81400644E+03</pdfrwt>
<pdfrwt beam="2">  1       -2 0.10673268E+00 0.81400644E+03</pdfrwt>
<totfact> 0.15838420E+01</totfact>
</mgrwt>
</event>
<event>
 4    1  0.1104584E-007  0.6376222E+03  0.7818608E-02  0.9830286E-01
          2   -1    0    0  501    0  0.00000000000E+00  0.00000000000E+00  0.46933973613E+03  0.46933973614E+03  0.25500000000E-02 0. -1.
         -2   -1    0    0    0  501 -0.00000000000E+00 -0.00000000000E+00 -0.16664657756E+04  0.16664657756E+04  0.25500000000E-02 0.  1.
    8880022    1    1    2    0    0 -0.57798365702E+03 -0.22159720718E+03  0.14144949555E+03  0.65312329833E+03  0.15294330000E+03 0.  0.
    8880022    1    1    2    0    0  0.57798365702E+03  0.22159720718E+03 -0.13385755350E+04  0.14826822134E+04  0.15294330000E+03 0.  0.
<mgrwt>
<rscale>  0 0.63762221E+03</rscale>
<asrwt>0</asrwt>
<pdfrwt beam="1">  1        2 0.72206114E-01 0.63762221E+03</pdfrwt>
<pdfrwt beam="2">  1       -2 0.25637935E+00 0.63762221E+03</pdfrwt>
<totfact> 0.40753617E+00</totfact>
</mgrwt>
</event>
<event>
 4    1  0.1104584E-007  0.6799422E+03  0.7818608E-02  0.9752162E-01
          2   -1    0    0  501    0  0.00000000000E+00  0.00000000000E+00  0.15551075124E+04  0.15551075124E+04  0.25500000000E-02 0. -1.
         -2   -1    0    0    0  501 -0.00000000000E+00 -0.00000000000E+00 -0.54833686351E+03  0.54833686351E+03  0.25500000000E-02 0.  1.
    8880022    1    1    2    0    0  0.64717146752E+03  0.14177055634E+03  0.12150128622E+04  0.13923281608E+04  0.15294330000E+03 0.  0.
    8880022    1    1    2    0    0 -0.64717146752E+03 -0.14177055634E+03 -0.20824221329E+03  0.71111621514E+03  0.15294330000E+03 0.  0.
<mgrwt>
<rscale>  0 0.67994224E+03</rscale>
<asrwt>0</asrwt>
<pdfrwt beam="1">  1        2 0.23924731E+00 0.67994224E+03</pdfrwt>
<pdfrwt beam="2">  1       -2 0.84359517E-01 0.67994224E+03</pdfrwt>
<totfact> 0.14996481E+01</totfact>
</mgrwt>
</event>
<event>
 4    1  0.1104584E-007  0.4189156E+03  0.7818608E-02  0.1037420E+00
         -2   -1    0    0    0  501 -0.00000000000E+00  0.00000000000E+00  0.26712500002E+03  0.26712500003E+03  0.25500000000E-02 0.  1.
          2   -1    0    0  501    0  0.00000000000E+00 -0.00000000000E+00 -0.15059293058E+04  0.15059293058E+04  0.25500000000E-02 0. -1.
    8880022    1    1    2    0    0  0.11173564309E+03 -0.37364928926E+03  0.46232433034E+02  0.42145905635E+03  0.15294330000E+03 0.  0.
    8880022    1    1    2    0    0 -0.11173564309E+03  0.37364928926E+03 -0.12850367388E+04  0.13515952494E+04  0.15294330000E+03 0.  0.
<mgrwt>
<rscale>  0 0.41891562E+03</rscale>
<asrwt>0</asrwt>
<pdfrwt beam="1">  1        2 0.23168143E+00 0.41891562E+03</pdfrwt>
<pdfrwt beam="2">  1       -2 0.41096155E-01 0.41891562E+03</pdfrwt>
<totfact> 0.75200795E+01</totfact>
</mgrwt>
</event>
<event>
 4    1  0.1104584E-007  0.6950703E+03  0.7818608E-02  0.9725700E-01
         -2   -1    0    0    0  501 -0.00000000000E+00  0.00000000000E+00  0.79043026006E+03  0.79043026007E+03  0.25500000000E-02 0.  1.
          2   -1    0    0  501    0  0.00000000000E+00 -0.00000000000E+00 -0.21787392350E+04  0.21787392350E+04  0.25500000000E-02 0. -1.
    8880022    1    1    2    0    0  0.45679510086E+03  0.50106821358E+03  0.56508840906E+03  0.89579444177E+03  0.15294330000E+03 0.  0.
    8880022    1    1    2    0    0 -0.45679510086E+03 -0.50106821358E+03 -0.19533973840E+04  0.20733750533E+04  0.15294330000E+03 0.  0.
<mgrwt>
<rscale>  0 0.69507034E+03</rscale>
<asrwt>0</asrwt>
<pdfrwt beam="1">  1        2 0.33519065E+00 0.69507034E+03</pdfrwt>
<pdfrwt beam="2">  1       -2 0.12160466E+00 0.69507034E+03</pdfrwt>
<totfact> 0.28690833E+00</totfact>
</mgrwt>
</event>
<event>
 4    1  0.1104584E-007  0.9010471E+03  0.7818608E-02  0.9424273E-01
         -2   -1    0    0    0  501 -0.00000000000E+00  0.00000000000E+00  0.44572791819E+03  0.44572791820E+03  0.25500000000E-02 0.  1.
          2   -1    0    0  501    0  0.00000000000E+00 -0.00000000000E+00 -0.19863499920E+04  0.19863499920E+04  0.25500000000E-02 0. -1.
    8880022    1    1    2    0    0  0.66400328570E+03  0.58957088984E+03 -0.11206483416E+04  0.14379633362E+04  0.15294330000E+03 0.  0.
    8880022    1    1    2    0    0 -0.66400328570E+03 -0.58957088984E+03 -0.41997373220E+03  0.99411457404E+03  0.15294330000E+03 0.  0.
<mgrwt>
<rscale>  0 0.90104709E+03</rscale>
<asrwt>0</asrwt>
<pdfrwt beam="1">  1        2 0.30559230E+00 0.90104709E+03</pdfrwt>
<pdfrwt beam="2">  1       -2 0.68573527E-01 0.90104709E+03</pdfrwt>
<totfact> 0.13407534E+01</totfact>
</mgrwt>
</event>
<event>
 4    1  0.1104584E-007  0.5160008E+03  0.7818608E-02  0.1009685E+00
          2   -1    0    0  501    0  0.00000000000E+00  0.00000000000E+00  0.11110064391E+04  0.11110064391E+04  0.25500000000E-02 0. -1.
         -2   -1    0    0    0  501 -0.00000000000E+00 -0.00000000000E+00 -0.48064446909E+03  0.48064446910E+03  0.25500000000E-02 0.  1.
    8880022    1    1    2    0    0 -0.47849934986E+03 -0.11791336512E+03  0.87869668934E+03  0.10190018225E+04  0.15294330000E+03 0.  0.
    8880022    1    1    2    0    0  0.47849934986E+03  0.11791336512E+03 -0.24833471931E+03  0.57264908567E+03  0.15294330000E+03 0.  0.
<mgrwt>
<rscale>  0 0.51600082E+03</rscale>
<asrwt>0</asrwt>
<pdfrwt beam="1">  1        2 0.17092407E+00 0.51600082E+03</pdfrwt>
<pdfrwt beam="2">  1       -2 0.73945303E-01 0.51600082E+03</pdfrwt>
<totfact> 0.36947306E+01</totfact>
</mgrwt>
</event>
<event>
 4    1  0.1104584E-007  0.1304434E+04  0.7818608E-02  0.9026057E-01
          2   -1    0    0  501    0  0.00000000000E+00  0.00000000000E+00  0.20977772753E+04  0.20977772753E+04  0.25500000000E-02 0. -1.
         -2   -1    0    0    0  501 -0.00000000000E+00 -0.00000000000E+00 -0.97550500169E+03  0.97550500169E+03  0.25500000000E-02 0.  1.
    8880022    1    1    2    0    0  0.48996071609E+03 -0.11992054502E+04  0.11919339927E+04  0.17669899578E+04  0.15294330000E+03 0.  0.
    8880022    1    1    2    0    0 -0.48996071609E+03  0.11992054502E+04 -0.69661719107E+02  0.13062923192E+04  0.15294330000E+03 0.  0.
<mgrwt>
<rscale>  0 0.13044335E+04</rscale>
<asrwt>0</asrwt>
<pdfrwt beam="1">  1        2 0.32273496E+00 0.13044335E+04</pdfrwt>
<pdfrwt beam="2">  1       -2 0.15007769E+00 0.13044335E+04</pdfrwt>
<totfact> 0.16974770E+00</totfact>
</mgrwt>
</event>
<event>
 4    1  0.1104584E-007  0.2279596E+03  0.7818608E-02  0.1128084E+00
          2   -1    0    0  501    0  0.00000000000E+00  0.00000000000E+00  0.93197132593E+03  0.93197132593E+03  0.25500000000E-02 0. -1.
         -2   -1    0    0    0  501 -0.00000000000E+00 -0.00000000000E+00 -0.94375784130E+02  0.94375784165E+02  0.25500000000E-02 0.  1.
    8880022    1    1    2    0    0  0.99360165594E+02  0.13675342032E+03  0.74706173862E+03  0.78106775301E+03  0.15294330000E+03 0.  0.
    8880022    1    1    2    0    0 -0.99360165594E+02 -0.13675342032E+03  0.90533803180E+02  0.24527935708E+03  0.15294330000E+03 0.  0.
<mgrwt>
<rscale>  0 0.22795963E+03</rscale>
<asrwt>0</asrwt>
<pdfrwt beam="1">  1        2 0.14338020E+00 0.22795963E+03</pdfrwt>
<pdfrwt beam="2">  1       -2 0.14519352E-01 0.22795963E+03</pdfrwt>
<totfact> 0.10497666E+03</totfact>
</mgrwt>
</event>
<event>
 4    1  0.1104584E-007  0.7431338E+03  0.7818608E-02  0.9646184E-01
          2   -1    0    0  501    0  0.00000000000E+00  0.00000000000E+00  0.42978376044E+03  0.42978376045E+03  0.25500000000E-02 0. -1.
         -2   -1    0    0    0  501 -0.00000000000E+00 -0.00000000000E+00 -0.13583657366E+04  0.13583657366E+04  0.25500000000E-02 0.  1.
    8880022    1    1    2    0    0  0.31350110199E+03 -0.65618081040E+03 -0.25642699228E+03  0.78613144719E+03  0.15294330000E+03 0.  0.
    8880022    1    1    2    0    0 -0.31350110199E+03  0.65618081040E+03 -0.67215498387E+03  0.10020180499E+04  0.15294330000E+03 0.  0.
<mgrwt>
<rscale>  0 0.74313380E+03</rscale>
<asrwt>0</asrwt>
<pdfrwt beam="1">  1        2 0.66120579E-01 0.74313380E+03</pdfrwt>
<pdfrwt beam="2">  1       -2 0.20897934E+00 0.74313380E+03</pdfrwt>
<totfact> 0.87007992E+00</totfact>
</mgrwt>
</event>
<event>
 4    1  0.1104584E-007  0.5480263E+03  0.7818608E-02  0.1001952E+00
          2   -1    0    0  501    0  0.00000000000E+00  0.00000000000E+00  0.14073699888E+04  0.14073699888E+04  0.25500000000E-02 0. -1.
         -2   -1    0    0    0  501 -0.00000000000E+00 -0.00000000000E+00 -0.30824070031E+03  0.30824070032E+03  0.25500000000E-02 0.  1.
    8880022    1    1    2    0    0 -0.49510813136E+03  0.17835112992E+03  0.10253827840E+04  0.11626446981E+04  0.15294330000E+03 0.  0.
    8880022    1    1    2    0    0  0.49510813136E+03 -0.17835112992E+03  0.73746504497E+02  0.55296599102E+03  0.15294330000E+03 0.  0.
<mgrwt>
<rscale>  0 0.54802631E+03</rscale>
<asrwt>0</asrwt>
<pdfrwt beam="1">  1        2 0.21651847E+00 0.54802631E+03</pdfrwt>
<pdfrwt beam="2">  1       -2 0.47421644E-01 0.54802631E+03</pdfrwt>
<totfact> 0.63005547E+01</totfact>
</mgrwt>
</event>
<event>
 4    1  0.1104584E-007  0.4630888E+03  0.7818608E-02  0.1023889E+00
         -2   -1    0    0    0  501 -0.00000000000E+00  0.00000000000E+00  0.31366468941E+03  0.31366468942E+03  0.25500000000E-02 0.  1.
          2   -1    0    0  501    0  0.00000000000E+00 -0.00000000000E+00 -0.85824609448E+03  0.85824609448E+03  0.25500000000E-02 0. -1.
    8880022    1    1    2    0    0  0.31373238262E+03 -0.30435435685E+03 -0.53654308491E+03  0.70875222569E+03  0.15294330000E+03 0.  0.
    8880022    1    1    2    0    0 -0.31373238262E+03  0.30435435685E+03 -0.80383201621E+01  0.46315855821E+03  0.15294330000E+03 0.  0.
<mgrwt>
<rscale>  0 0.46308880E+03</rscale>
<asrwt>0</asrwt>
<pdfrwt beam="1">  1        2 0.13203786E+00 0.46308880E+03</pdfrwt>
<pdfrwt beam="2">  1       -2 0.48256107E-01 0.46308880E+03</pdfrwt>
<totfact> 0.13184184E+02</totfact>
</mgrwt>
</event>
<event>
 4    1  0.1104584E-007  0.5553908E+03  0.7818608E-02  0.1000254E+00
          2   -1    0    0  501    0  0.00000000000E+00  0.00000000000E+00  0.17680017492E+04  0.17680017492E+04  0.25500000000E-02 0. -1.
         -2   -1    0    0    0  501 -0.00000000000E+00 -0.00000000000E+00 -0.43669059613E+03  0.43669059614E+03  0.25500000000E-02 0.  1.
    8880022    1    1    2    0    0  0.45781347124E+03 -0.27472542798E+03 -0.18855811670E+03  0.58652625825E+03  0.15294330000E+03 0.  0.
    8880022    1    1    2    0    0 -0.45781347124E+03  0.27472542798E+03  0.15198692697E+04  0.16181660871E+04  0.15294330000E+03 0.  0.
<mgrwt>
<rscale>  0 0.55539075E+03</rscale>
<asrwt>0</asrwt>
<pdfrwt beam="1">  1        2 0.27200028E+00 0.55539075E+03</pdfrwt>
<pdfrwt beam="2">  1       -2 0.67183167E-01 0.55539075E+03</pdfrwt>
<totfact> 0.19379935E+01</totfact>
</mgrwt>
</event>
<event>
 4    1  0.1104584E-007  0.5350623E+03  0.7818608E-02  0.1005012E+00
          2   -1    0    0  501    0  0.00000000000E+00  0.00000000000E+00  0.19198979180E+04  0.19198979180E+04  0.25500000000E-02 0. -1.
         -2   -1    0    0    0  501 -0.00000000000E+00 -0.00000000000E+00 -0.26280314481E+03  0.26280314483E+03  0.25500000000E-02 0.  1.
    8880022    1    1    2    0    0 -0.49753754179E+03  0.12392081498E+03  0.15463425990E+04  0.16362967519E+04  0.15294330000E+03 0.  0.
    8880022    1    1    2    0    0  0.49753754179E+03 -0.12392081498E+03  0.11075217420E+03  0.54640431091E+03  0.15294330000E+03 0.  0.
<mgrwt>
<rscale>  0 0.53506226E+03</rscale>
<asrwt>0</asrwt>
<pdfrwt beam="1">  1        2 0.29536892E+00 0.53506226E+03</pdfrwt>
<pdfrwt beam="2">  1       -2 0.40431252E-01 0.53506226E+03</pdfrwt>
<totfact> 0.45488828E+01</totfact>
</mgrwt>
</event>
<event>
 4    1  0.1104584E-007  0.1178195E+04  0.7818608E-02  0.9132159E-01
          2   -1    0    0  501    0  0.00000000000E+00  0.00000000000E+00  0.10965624801E+04  0.10965624801E+04  0.25500000000E-02 0. -1.
         -2   -1    0    0    0  501 -0.00000000000E+00 -0.00000000000E+00 -0.13594271419E+04  0.13594271419E+04  0.25500000000E-02 0.  1.
    8880022    1    1    2    0    0 -0.11113308231E+04  0.36013419814E+03 -0.45352036288E+03  0.12624679052E+04  0.15294330000E+03 0.  0.
    8880022    1    1    2    0    0  0.11113308231E+04 -0.36013419814E+03  0.19065570101E+03  0.11935217168E+04  0.15294330000E+03 0.  0.
<mgrwt>
<rscale>  0 0.11781954E+04</rscale>
<asrwt>0</asrwt>
<pdfrwt beam="1">  1        2 0.16870192E+00 0.11781954E+04</pdfrwt>
<pdfrwt beam="2">  1       -2 0.20914264E+00 0.11781954E+04</pdfrwt>
<totfact> 0.24727985E+00</totfact>
</mgrwt>
</event>
<event>
 4    1  0.1104584E-007  0.4352599E+03  0.7818608E-02  0.1032211E+00
          2   -1    0    0  501    0  0.00000000000E+00  0.00000000000E+00  0.14180902524E+04  0.14180902524E+04  0.25500000000E-02 0. -1.
         -2   -1    0    0    0  501 -0.00000000000E+00 -0.00000000000E+00 -0.72126939543E+03  0.72126939543E+03  0.25500000000E-02 0.  1.
    8880022    1    1    2    0    0 -0.60246289435E+02  0.40302598773E+03  0.13139566291E+04  0.13841724019E+04  0.15294330000E+03 0.  0.
    8880022    1    1    2    0    0  0.60246289435E+02 -0.40302598773E+03 -0.61713577209E+03  0.75518724591E+03  0.15294330000E+03 0.  0.
<mgrwt>
<rscale>  0 0.43525994E+03</rscale>
<asrwt>0</asrwt>
<pdfrwt beam="1">  1        2 0.21816773E+00 0.43525994E+03</pdfrwt>
<pdfrwt beam="2">  1       -2 0.11096452E+00 0.43525994E+03</pdfrwt>
<totfact> 0.98317238E+00</totfact>
</mgrwt>
</event>
<event>
 4    1  0.1104584E-007  0.3791688E+03  0.7818608E-02  0.1051241E+00
         -2   -1    0    0    0  501 -0.00000000000E+00  0.00000000000E+00  0.35880301818E+03  0.35880301819E+03  0.25500000000E-02 0.  1.
          2   -1    0    0  501    0  0.00000000000E+00 -0.00000000000E+00 -0.22227905111E+04  0.22227905111E+04  0.25500000000E-02 0. -1.
    8880022    1    1    2    0    0  0.34694103914E+03 -0.30442784552E+01  0.23668377736E+03  0.44697675079E+03  0.15294330000E+03 0.  1.
    8880022    1    1    2    0    0 -0.34694103914E+03  0.30442784552E+01 -0.21006712703E+04  0.21346167785E+04  0.15294330000E+03 0.  0.
<mgrwt>
<rscale>  0 0.37916883E+03</rscale>
<asrwt>0</asrwt>
<pdfrwt beam="1">  1        2 0.34196776E+00 0.37916883E+03</pdfrwt>
<pdfrwt beam="2">  1       -2 0.55200466E-01 0.37916883E+03</pdfrwt>
<totfact> 0.17382630E+01</totfact>
</mgrwt>
</event>
<event>
 4    1  0.1104584E-007  0.3650535E+03  0.7818608E-02  0.1056601E+00
          2   -1    0    0  501    0  0.00000000000E+00  0.00000000000E+00  0.18390732488E+04  0.18390732488E+04  0.25500000000E-02 0. -1.
         -2   -1    0    0    0  501 -0.00000000000E+00 -0.00000000000E+00 -0.10418743008E+03  0.10418743011E+03  0.25500000000E-02 0.  1.
    8880022    1    1    2    0    0  0.13085785113E+03  0.30454661948E+03  0.33128478475E+03  0.49296417949E+03  0.15294330000E+03 0.  0.
    8880022    1    1    2    0    0 -0.13085785113E+03 -0.30454661948E+03  0.14036010339E+04  0.14502964994E+04  0.15294330000E+03 0.  0.
<mgrwt>
<rscale>  0 0.36505352E+03</rscale>
<asrwt>0</asrwt>
<pdfrwt beam="1">  1        2 0.28293434E+00 0.36505352E+03</pdfrwt>
<pdfrwt beam="2">  1       -2 0.16028836E-01 0.36505352E+03</pdfrwt>
<totfact> 0.27327591E+02</totfact>
</mgrwt>
</event>
<event>
 4    1  0.1104584E-007  0.7753036E+03  0.7818608E-02  0.9596468E-01
          2   -1    0    0  501    0  0.00000000000E+00  0.00000000000E+00  0.24861560006E+04  0.24861560006E+04  0.25500000000E-02 0. -1.
         -2   -1    0    0    0  501 -0.00000000000E+00 -0.00000000000E+00 -0.83316708863E+03  0.83316708863E+03  0.25500000000E-02 0.  1.
    8880022    1    1    2    0    0  0.43771060488E+03  0.62138031522E+03 -0.57177361990E+03  0.96333835966E+03  0.15294330000E+03 0.  0.
    8880022    1    1    2    0    0 -0.43771060488E+03 -0.62138031522E+03  0.22247625319E+04  0.23559847296E+04  0.15294330000E+03 0.  0.
<mgrwt>
<rscale>  0 0.77530363E+03</rscale>
<asrwt>0</asrwt>
<pdfrwt beam="1">  1        2 0.38248554E+00 0.77530363E+03</pdfrwt>
<pdfrwt beam="2">  1       -2 0.12817955E+00 0.77530363E+03</pdfrwt>
<totfact> 0.16686050E+00</totfact>
</mgrwt>
</event>
<event>
 4    1  0.1104584E-007  0.1025456E+04  0.7818608E-02  0.9281057E-01
          2   -1    0    0  501    0  0.00000000000E+00  0.00000000000E+00  0.45828617356E+03  0.45828617357E+03  0.25500000000E-02 0. -1.
         -2   -1    0    0    0  501 -0.00000000000E+00 -0.00000000000E+00 -0.44664797066E+04  0.44664797066E+04  0.25500000000E-02 0.  1.
    8880022    1    1    2    0    0 -0.18807680893E+03 -0.99639140965E+03 -0.37211977166E+04  0.38599058054E+04  0.15294330000E+03 0.  0.
    8880022    1    1    2    0    0  0.18807680893E+03  0.99639140965E+03 -0.28699581647E+03  0.10648600748E+04  0.15294330000E+03 0.  0.
<mgrwt>
<rscale>  0 0.10254562E+04</rscale>
<asrwt>0</asrwt>
<pdfrwt beam="1">  1        2 0.70505568E-01 0.10254562E+04</pdfrwt>
<pdfrwt beam="2">  1       -2 0.68715070E+00 0.10254562E+04</pdfrwt>
<totfact> 0.17208509E-02</totfact>
</mgrwt>
</event>
<event>
 4    1  0.1104584E-007  0.5008203E+03  0.7818608E-02  0.1013565E+00
         -2   -1    0    0    0  501 -0.00000000000E+00  0.00000000000E+00  0.68992465636E+03  0.68992465637E+03  0.25500000000E-02 0.  1.
          2   -1    0    0  501    0  0.00000000000E+00 -0.00000000000E+00 -0.68396593029E+03  0.68396593029E+03  0.25500000000E-02 0. -1.
    8880022    1    1    2    0    0  0.22361826021E+03  0.42121747356E+03 -0.46719951621E+03  0.68490607188E+03  0.15294330000E+03 0. -1.
    8880022    1    1    2    0    0 -0.22361826021E+03 -0.42121747356E+03  0.47315824229E+03  0.68898451477E+03  0.15294330000E+03 0.  0.
<mgrwt>
<rscale>  0 0.50082027E+03</rscale>
<asrwt>0</asrwt>
<pdfrwt beam="1">  1        2 0.10522553E+00 0.50082027E+03</pdfrwt>
<pdfrwt beam="2">  1       -2 0.10614225E+00 0.50082027E+03</pdfrwt>
<totfact> 0.31407433E+01</totfact>
</mgrwt>
</event>
<event>
 4    1  0.1198019E-007  0.7726452E+03  0.7818608E-02  0.9600478E-01
          2   -1    0    0  501    0  0.00000000000E+00  0.00000000000E+00  0.39737048098E+04  0.39737048098E+04  0.25500000000E-02 0. -1.
         -2   -1    0    0    0  501 -0.00000000000E+00 -0.00000000000E+00 -0.84114150854E+03  0.84114150854E+03  0.25500000000E-02 0.  1.
    8880022    1    1    2    0    0  0.14591934173E+02 -0.75721601508E+03 -0.61558520555E+03  0.98788957700E+03  0.15294330000E+03 0.  0.
    8880022    1    1    2    0    0 -0.14591934173E+02  0.75721601508E+03  0.37481485068E+04  0.38269567413E+04  0.15294330000E+03 0.  0.
<mgrwt>
<rscale>  0 0.77264524E+03</rscale>
<asrwt>0</asrwt>
<pdfrwt beam="1">  1        2 0.61133921E+00 0.77264524E+03</pdfrwt>
<pdfrwt beam="2">  1       -2 0.12940638E+00 0.77264524E+03</pdfrwt>
<totfact> 0.17469279E-01</totfact>
</mgrwt>
</event>
<event>
 4    1  0.1104584E-007  0.5091558E+03  0.7818608E-02  0.1011416E+00
          2   -1    0    0  501    0  0.00000000000E+00  0.00000000000E+00  0.65371262654E+03  0.65371262654E+03  0.25500000000E-02 0. -1.
         -2   -1    0    0    0  501 -0.00000000000E+00 -0.00000000000E+00 -0.12731591781E+04  0.12731591781E+04  0.25500000000E-02 0.  1.
    8880022    1    1    2    0    0 -0.79828453809E+02  0.47903590954E+03  0.48970725552E+03  0.70643671606E+03  0.15294330000E+03 0.  0.
    8880022    1    1    2    0    0  0.79828453809E+02 -0.47903590954E+03 -0.11091538071E+04  0.12204350886E+04  0.15294330000E+03 0.  0.
<mgrwt>
<rscale>  0 0.50915581E+03</rscale>
<asrwt>0</asrwt>
<pdfrwt beam="1">  1        2 0.10057117E+00 0.50915581E+03</pdfrwt>
<pdfrwt beam="2">  1       -2 0.19587064E+00 0.50915581E+03</pdfrwt>
<totfact> 0.66815165E+00</totfact>
</mgrwt>
</event>
<event>
 4    1  0.1104584E-007  0.6577596E+03  0.7818608E-02  0.9792327E-01
         -2   -1    0    0    0  501 -0.00000000000E+00  0.00000000000E+00  0.39598439170E+03  0.39598439171E+03  0.25500000000E-02 0.  1.
          2   -1    0    0  501    0  0.00000000000E+00 -0.00000000000E+00 -0.29730341512E+04  0.29730341512E+04  0.25500000000E-02 0. -1.
    8880022    1    1    2    0    0 -0.54294814707E+03  0.33832440129E+03  0.51163906432E+02  0.65974653410E+03  0.15294330000E+03 0.  0.
    8880022    1    1    2    0    0  0.54294814707E+03 -0.33832440129E+03 -0.26282136659E+04  0.27092720088E+04  0.15294330000E+03 0.  0.
<mgrwt>
<rscale>  0 0.65775964E+03</rscale>
<asrwt>0</asrwt>
<pdfrwt beam="1">  1        2 0.45738985E+00 0.65775964E+03</pdfrwt>
<pdfrwt beam="2">  1       -2 0.60920678E-01 0.65775964E+03</pdfrwt>
<totfact> 0.49285404E+00</totfact>
</mgrwt>
</event>
<event>
 4    1  0.1104584E-007  0.5226469E+03  0.7818608E-02  0.1008031E+00
         -2   -1    0    0    0  501 -0.00000000000E+00  0.00000000000E+00  0.52204367865E+03  0.52204367866E+03  0.25500000000E-02 0.  1.
          2   -1    0    0  501    0  0.00000000000E+00 -0.00000000000E+00 -0.20389868963E+04  0.20389868963E+04  0.25500000000E-02 0. -1.
    8880022    1    1    2    0    0 -0.20920682298E+03  0.45387297537E+03 -0.18625231093E+04  0.19344643078E+04  0.15294330000E+03 0.  0.
    8880022    1    1    2    0    0  0.20920682298E+03 -0.45387297537E+03  0.34557989166E+03  0.62656626712E+03  0.15294330000E+03 0.  0.
<mgrwt>
<rscale>  0 0.52264694E+03</rscale>
<asrwt>0</asrwt>
<pdfrwt beam="1">  1        2 0.31369029E+00 0.52264694E+03</pdfrwt>
<pdfrwt beam="2">  1       -2 0.80314413E-01 0.52264694E+03</pdfrwt>
<totfact> 0.94154467E+00</totfact>
</mgrwt>
</event>
<event>
 4    1  0.1104584E-007  0.4425960E+03  0.7818608E-02  0.1029953E+00
         -2   -1    0    0    0  501 -0.00000000000E+00  0.00000000000E+00  0.11836344785E+03  0.11836344788E+03  0.25500000000E-02 0.  1.
          2   -1    0    0  501    0  0.00000000000E+00 -0.00000000000E+00 -0.24106749938E+04  0.24106749938E+04  0.25500000000E-02 0. -1.
    8880022    1    1    2    0    0  0.31509585116E+03  0.27058125158E+03 -0.18541410424E+04  0.19062345782E+04  0.15294330000E+03 0.  0.
    8880022    1    1    2    0    0 -0.31509585116E+03 -0.27058125158E+03 -0.43817050355E+03  0.62280386345E+03  0.15294330000E+03 0.  0.
<mgrwt>
<rscale>  0 0.44259605E+03</rscale>
<asrwt>0</asrwt>
<pdfrwt beam="1">  1        2 0.37087304E+00 0.44259605E+03</pdfrwt>
<pdfrwt beam="2">  1       -2 0.18209763E-01 0.44259605E+03</pdfrwt>
<totfact> 0.10680953E+02</totfact>
</mgrwt>
</event>
<event>
 4    1  0.1104584E-007  0.1006622E+04  0.7818608E-02  0.9301311E-01
          2   -1    0    0  501    0  0.00000000000E+00  0.00000000000E+00  0.25490056880E+04  0.25490056880E+04  0.25500000000E-02 0. -1.
         -2   -1    0    0    0  501 -0.00000000000E+00 -0.00000000000E+00 -0.95112948612E+03  0.95112948612E+03  0.25500000000E-02 0.  1.
    8880022    1    1    2    0    0 -0.95242493586E+03  0.28772056379E+03 -0.53622904693E+03  0.11405391817E+04  0.15294330000E+03 0.  0.
    8880022    1    1    2    0    0  0.95242493586E+03 -0.28772056379E+03  0.21341052488E+04  0.23595959923E+04  0.15294330000E+03 0.  0.
<mgrwt>
<rscale>  0 0.10066221E+04</rscale>
<asrwt>0</asrwt>
<pdfrwt beam="1">  1        2 0.39215472E+00 0.10066221E+04</pdfrwt>
<pdfrwt beam="2">  1       -2 0.14632761E+00 0.10066221E+04</pdfrwt>
<totfact> 0.10489257E+00</totfact>
</mgrwt>
</event>
<event>
 4    1  0.1104584E-007  0.4539378E+03  0.7818608E-02  0.1026554E+00
          2   -1    0    0  501    0  0.00000000000E+00  0.00000000000E+00  0.51215852125E+03  0.51215852125E+03  0.25500000000E-02 0. -1.
         -2   -1    0    0    0  501 -0.00000000000E+00 -0.00000000000E+00 -0.84569872147E+03  0.84569872147E+03  0.25500000000E-02 0.  1.
    8880022    1    1    2    0    0  0.66442916714E+01  0.42734493007E+03 -0.65835233018E+03  0.79967948550E+03  0.15294330000E+03 0.  0.
    8880022    1    1    2    0    0 -0.66442916714E+01 -0.42734493007E+03  0.32481212996E+03  0.55817775722E+03  0.15294330000E+03 0. -1.
<mgrwt>
<rscale>  0 0.45393776E+03</rscale>
<asrwt>0</asrwt>
<pdfrwt beam="1">  1        2 0.78793619E-01 0.45393776E+03</pdfrwt>
<pdfrwt beam="2">  1       -2 0.13010750E+00 0.45393776E+03</pdfrwt>
<totfact> 0.27086015E+01</totfact>
</mgrwt>
</event>
<event>
 4    1  0.1104584E-007  0.2350248E+03  0.7818608E-02  0.1123152E+00
          2   -1    0    0  501    0  0.00000000000E+00  0.00000000000E+00  0.11781522544E+04  0.11781522544E+04  0.25500000000E-02 0. -1.
         -2   -1    0    0    0  501 -0.00000000000E+00 -0.00000000000E+00 -0.30285958228E+03  0.30285958229E+03  0.25500000000E-02 0.  1.
    8880022    1    1    2    0    0  0.11969292589E+03  0.13235789127E+03  0.11184267010E+04  0.11428538605E+04  0.15294330000E+03 0.  0.
    8880022    1    1    2    0    0 -0.11969292589E+03 -0.13235789127E+03 -0.24313402885E+03  0.33815797623E+03  0.15294330000E+03 0.  0.
<mgrwt>
<rscale>  0 0.23502481E+03</rscale>
<asrwt>0</asrwt>
<pdfrwt beam="1">  1        2 0.18125419E+00 0.23502481E+03</pdfrwt>
<pdfrwt beam="2">  1       -2 0.46593782E-01 0.23502481E+03</pdfrwt>
<totfact> 0.92967699E+01</totfact>
</mgrwt>
</event>
<event>
 4    1  0.1104584E-007  0.2164658E+03  0.7818608E-02  0.1136546E+00
         -2   -1    0    0    0  501 -0.00000000000E+00  0.00000000000E+00  0.29993188779E+04  0.29993188779E+04  0.25500000000E-02 0.  1.
          2   -1    0    0  501    0  0.00000000000E+00 -0.00000000000E+00 -0.23703722264E+03  0.23703722266E+03  0.25500000000E-02 0. -1.
    8880022    1    1    2    0    0  0.15315464565E+03 -0.30716699132E+01  0.29450844404E+04  0.29530289187E+04  0.15294330000E+03 0.  0.
    8880022    1    1    2    0    0 -0.15315464565E+03  0.30716699132E+01 -0.18280278521E+03  0.28332718178E+03  0.15294330000E+03 0. -1.
<mgrwt>
<rscale>  0 0.21646578E+03</rscale>
<asrwt>0</asrwt>
<pdfrwt beam="1">  1        2 0.36467263E-01 0.21646578E+03</pdfrwt>
<pdfrwt beam="2">  1       -2 0.46143370E+00 0.21646578E+03</pdfrwt>
<totfact> 0.52760526E-01</totfact>
</mgrwt>
</event>
<event>
 4    1  0.1104584E-007  0.5700636E+03  0.7818608E-02  0.9969538E-01
          2   -1    0    0  501    0  0.00000000000E+00  0.00000000000E+00  0.26399062313E+04  0.26399062313E+04  0.25500000000E-02 0. -1.
         -2   -1    0    0    0  501 -0.00000000000E+00 -0.00000000000E+00 -0.12891311666E+03  0.12891311668E+03  0.25500000000E-02 0.  1.
    8880022    1    1    2    0    0 -0.46016724263E+03 -0.29971144725E+03  0.96151502942E+03  0.11178030451E+04  0.15294330000E+03 0.  1.
    8880022    1    1    2    0    0  0.46016724263E+03  0.29971144725E+03  0.15494780852E+04  0.16510163029E+04  0.15294330000E+03 0.  0.
<mgrwt>
<rscale>  0 0.57006359E+03</rscale>
<asrwt>0</asrwt>
<pdfrwt beam="1">  1        2 0.40613937E+00 0.57006359E+03</pdfrwt>
<pdfrwt beam="2">  1       -2 0.19832789E-01 0.57006359E+03</pdfrwt>
<totfact> 0.66927907E+01</totfact>
</mgrwt>
</event>
<event>
 4    1  0.1104584E-007  0.9395610E+03  0.7818608E-02  0.9377436E-01
          2   -1    0    0  501    0  0.00000000000E+00  0.00000000000E+00  0.76631216081E+03  0.76631216082E+03  0.25500000000E-02 0. -1.
         -2   -1    0    0    0  501 -0.00000000000E+00 -0.00000000000E+00 -0.12480582627E+04  0.12480582627E+04  0.25500000000E-02 0.  1.
    8880022    1    1    2    0    0 -0.15430520991E+03 -0.91409687747E+03 -0.52032600269E+03  0.10740176913E+04  0.15294330000E+03 0.  0.
    8880022    1    1    2    0    0  0.15430520991E+03  0.91409687747E+03  0.38579900790E+02  0.94035273220E+03  0.15294330000E+03 0.  0.
<mgrwt>
<rscale>  0 0.93956099E+03</rscale>
<asrwt>0</asrwt>
<pdfrwt beam="1">  1        2 0.11789418E+00 0.93956099E+03</pdfrwt>
<pdfrwt beam="2">  1       -2 0.19200896E+00 0.93956099E+03</pdfrwt>
<totfact> 0.54712853E+00</totfact>
</mgrwt>
</event>
<event>
 4    1  0.1104584E-007  0.2710061E+03  0.7818608E-02  0.1100705E+00
          2   -1    0    0  501    0  0.00000000000E+00  0.00000000000E+00  0.33539285197E+04  0.33539285197E+04  0.25500000000E-02 0. -1.
         -2   -1    0    0    0  501 -0.00000000000E+00 -0.00000000000E+00 -0.29055220542E+02  0.29055220654E+02  0.25500000000E-02 0.  1.
    8880022    1    1    2    0    0 -0.17155064091E+03  0.14360720304E+03  0.82291822515E+03  0.86639408439E+03  0.15294330000E+03 0.  0.
    8880022    1    1    2    0    0  0.17155064091E+03 -0.14360720304E+03  0.25019550740E+04  0.25165896560E+04  0.15294330000E+03 0.  0.
<mgrwt>
<rscale>  0 0.27100610E+03</rscale>
<asrwt>0</asrwt>
<pdfrwt beam="1">  1        2 0.51598906E+00 0.27100610E+03</pdfrwt>
<pdfrwt beam="2">  1       -2 0.44700334E-02 0.27100610E+03</pdfrwt>
<totfact> 0.29324787E+02</totfact>
</mgrwt>
</event>
<event>
 4    1  0.1104584E-007  0.7441131E+03  0.7818608E-02  0.9644631E-01
          2   -1    0    0  501    0  0.00000000000E+00  0.00000000000E+00  0.16219947563E+04  0.16219947563E+04  0.25500000000E-02 0. -1.
         -2   -1    0    0    0  501 -0.00000000000E+00 -0.00000000000E+00 -0.85929733037E+03  0.85929733038E+03  0.25500000000E-02 0.  1.
    8880022    1    1    2    0    0 -0.56391347792E+03  0.46077569632E+03  0.13445333689E+04  0.15367089139E+04  0.15294330000E+03 0.  0.
    8880022    1    1    2    0    0  0.56391347792E+03 -0.46077569632E+03 -0.58183594293E+03  0.94458317284E+03  0.15294330000E+03 0.  0.
<mgrwt>
<rscale>  0 0.74411310E+03</rscale>
<asrwt>0</asrwt>
<pdfrwt beam="1">  1        2 0.24953765E+00 0.74411310E+03</pdfrwt>
<pdfrwt beam="2">  1       -2 0.13219959E+00 0.74411310E+03</pdfrwt>
<totfact> 0.46423708E+00</totfact>
</mgrwt>
</event>
<event>
 4    1  0.1104584E-007  0.4515589E+03  0.7818608E-02  0.1027258E+00
         -2   -1    0    0    0  501 -0.00000000000E+00  0.00000000000E+00  0.14124696342E+04  0.14124696342E+04  0.25500000000E-02 0.  1.
          2   -1    0    0  501    0  0.00000000000E+00 -0.00000000000E+00 -0.16280926612E+04  0.16280926612E+04  0.25500000000E-02 0. -1.
    8880022    1    1    2    0    0  0.26274295750E+03 -0.33388610811E+03 -0.15591277074E+04  0.16232019763E+04  0.15294330000E+03 0.  0.
    8880022    1    1    2    0    0 -0.26274295750E+03  0.33388610811E+03  0.13435046804E+04  0.14173603191E+04  0.15294330000E+03 0.  1.
<mgrwt>
<rscale>  0 0.45155891E+03</rscale>
<asrwt>0</asrwt>
<pdfrwt beam="1">  1        2 0.25047579E+00 0.45155891E+03</pdfrwt>
<pdfrwt beam="2">  1       -2 0.21730302E+00 0.45155891E+03</pdfrwt>
<totfact> 0.12372822E+00</totfact>
</mgrwt>
</event>
<event>
 4    1  0.1104584E-007  0.1963278E+03  0.7818608E-02  0.1152875E+00
          2   -1    0    0  501    0  0.00000000000E+00  0.00000000000E+00  0.80272544829E+02  0.80272544869E+02  0.25500000000E-02 0. -1.
         -2   -1    0    0    0  501 -0.00000000000E+00 -0.00000000000E+00 -0.82578679703E+03  0.82578679703E+03  0.25500000000E-02 0.  1.
    8880022    1    1    2    0    0  0.82696880319E+01 -0.12281922999E+03 -0.79675201838E+02  0.21187907353E+03  0.15294330000E+03 0. -1.
    8880022    1    1    2    0    0 -0.82696880319E+01  0.12281922999E+03 -0.66583905036E+03  0.69418026837E+03  0.15294330000E+03 0.  0.
<mgrwt>
<rscale>  0 0.19632780E+03</rscale>
<asrwt>0</asrwt>
<pdfrwt beam="1">  1        2 0.12349623E-01 0.19632780E+03</pdfrwt>
<pdfrwt beam="2">  1       -2 0.12704412E+00 0.19632780E+03</pdfrwt>
<totfact> 0.23830105E+02</totfact>
</mgrwt>
</event>
<event>
 4    1  0.1104584E-007  0.2168660E+03  0.7818608E-02  0.1136241E+00
          2   -1    0    0  501    0  0.00000000000E+00  0.00000000000E+00  0.20949650929E+04  0.20949650929E+04  0.25500000000E-02 0. -1.
         -2   -1    0    0    0  501 -0.00000000000E+00 -0.00000000000E+00 -0.32088763482E+03  0.32088763483E+03  0.25500000000E-02 0.  1.
    8880022    1    1    2    0    0  0.15371794839E+03 -0.31620737111E+01 -0.27786798472E+03  0.35247904379E+03  0.15294330000E+03 0.  1.
    8880022    1    1    2    0    0 -0.15371794839E+03  0.31620737111E+01  0.20519454428E+04  0.20633736840E+04  0.15294330000E+03 0.  0.
<mgrwt>
<rscale>  0 0.21686599E+03</rscale>
<asrwt>0</asrwt>
<pdfrwt beam="1">  1        2 0.32230230E+00 0.21686599E+03</pdfrwt>
<pdfrwt beam="2">  1       -2 0.49367332E-01 0.21686599E+03</pdfrwt>
<totfact> 0.27124437E+01</totfact>
</mgrwt>
</event>
<event>
 4    1  0.1104584E-007  0.3268294E+03  0.7818608E-02  0.1072548E+00
          2   -1    0    0  501    0  0.00000000000E+00  0.00000000000E+00  0.28972483644E+04  0.28972483644E+04  0.25500000000E-02 0. -1.
         -2   -1    0    0    0  501 -0.00000000000E+00 -0.00000000000E+00 -0.71405214124E+02  0.71405214170E+02  0.25500000000E-02 0.  1.
    8880022    1    1    2    0    0  0.98126668236E+02  0.27165591168E+03  0.38062479278E+03  0.50168980781E+03  0.15294330000E+03 0.  0.
    8880022    1    1    2    0    0 -0.98126668236E+02 -0.27165591168E+03  0.24452183575E+04  0.24669637707E+04  0.15294330000E+03 0.  0.
<mgrwt>
<rscale>  0 0.32682936E+03</rscale>
<asrwt>0</asrwt>
<pdfrwt beam="1">  1        2 0.44573046E+00 0.32682936E+03</pdfrwt>
<pdfrwt beam="2">  1       -2 0.10985419E-01 0.32682936E+03</pdfrwt>
<totfact> 0.13464472E+02</totfact>
</mgrwt>
</event>
<event>
 4    1  0.1104584E-007  0.5253269E+03  0.7818608E-02  0.1007372E+00
         -2   -1    0    0    0  501 -0.00000000000E+00  0.00000000000E+00  0.26286020998E+03  0.26286020999E+03  0.25500000000E-02 0.  1.
          2   -1    0    0  501    0  0.00000000000E+00 -0.00000000000E+00 -0.14783613503E+04  0.14783613503E+04  0.25500000000E-02 0. -1.
    8880022    1    1    2    0    0 -0.40152087249E+03  0.30225435529E+03 -0.13903854147E+03  0.54341519611E+03  0.15294330000E+03 0.  0.
    8880022    1    1    2    0    0  0.40152087249E+03 -0.30225435529E+03 -0.10764625988E+04  0.11978063642E+04  0.15294330000E+03 0.  0.
<mgrwt>
<rscale>  0 0.52532691E+03</rscale>
<asrwt>0</asrwt>
<pdfrwt beam="1">  1        2 0.22744020E+00 0.52532691E+03</pdfrwt>
<pdfrwt beam="2">  1       -2 0.40440033E-01 0.52532691E+03</pdfrwt>
<totfact> 0.79033372E+01</totfact>
</mgrwt>
</event>
<event>
 4    1  0.1104584E-007  0.2349908E+03  0.7818608E-02  0.1123175E+00
         -2   -1    0    0    0  501 -0.00000000000E+00  0.00000000000E+00  0.30183546662E+03  0.30183546663E+03  0.25500000000E-02 0.  1.
          2   -1    0    0  501    0  0.00000000000E+00 -0.00000000000E+00 -0.20493920190E+04  0.20493920190E+04  0.25500000000E-02 0. -1.
    8880022    1    1    2    0    0 -0.17788966602E+03  0.13576121177E+02  0.24813535469E+03  0.34174822839E+03  0.15294330000E+03 0.  0.
    8880022    1    1    2    0    0  0.17788966602E+03 -0.13576121177E+02 -0.19956919070E+04  0.20094792572E+04  0.15294330000E+03 0. -1.
<mgrwt>
<rscale>  0 0.23499085E+03</rscale>
<asrwt>0</asrwt>
<pdfrwt beam="1">  1        2 0.31529107E+00 0.23499085E+03</pdfrwt>
<pdfrwt beam="2">  1       -2 0.46436227E-01 0.23499085E+03</pdfrwt>
<totfact> 0.32073522E+01</totfact>
</mgrwt>
</event>
<event>
 4    1  0.1104584E-007  0.4171902E+03  0.7818608E-02  0.1037985E+00
          2   -1    0    0  501    0  0.00000000000E+00  0.00000000000E+00  0.92025289941E+03  0.92025289942E+03  0.25500000000E-02 0. -1.
         -2   -1    0    0    0  501 -0.00000000000E+00 -0.00000000000E+00 -0.13637566402E+04  0.13637566402E+04  0.25500000000E-02 0.  1.
    8880022    1    1    2    0    0 -0.15194474753E+02 -0.38784678479E+03  0.83811021693E+03  0.93620317735E+03  0.15294330000E+03 0.  0.
    8880022    1    1    2    0    0  0.15194474753E+02  0.38784678479E+03 -0.12816139577E+04  0.13478063623E+04  0.15294330000E+03 0.  0.
<mgrwt>
<rscale>  0 0.41719019E+03</rscale>
<asrwt>0</asrwt>
<pdfrwt beam="1">  1        2 0.14157737E+00 0.41719019E+03</pdfrwt>
<pdfrwt beam="2">  1       -2 0.20980871E+00 0.41719019E+03</pdfrwt>
<totfact> 0.35701461E+00</totfact>
</mgrwt>
</event>
<event>
 4    1  0.1104584E-007  0.7082338E+03  0.7818608E-02  0.9703254E-01
          2   -1    0    0  501    0  0.00000000000E+00  0.00000000000E+00  0.21204722254E+04  0.21204722254E+04  0.25500000000E-02 0. -1.
         -2   -1    0    0    0  501 -0.00000000000E+00 -0.00000000000E+00 -0.75657222133E+03  0.75657222134E+03  0.25500000000E-02 0.  1.
    8880022    1    1    2    0    0 -0.65057879135E+03  0.23441558183E+03  0.18745720873E+04  0.20039000954E+04  0.15294330000E+03 0.  0.
    8880022    1    1    2    0    0  0.65057879135E+03 -0.23441558183E+03 -0.51067208321E+03  0.87314435138E+03  0.15294330000E+03 0.  0.
<mgrwt>
<rscale>  0 0.70823378E+03</rscale>
<asrwt>0</asrwt>
<pdfrwt beam="1">  1        2 0.32622649E+00 0.70823378E+03</pdfrwt>
<pdfrwt beam="2">  1       -2 0.11639573E+00 0.70823378E+03</pdfrwt>
<totfact> 0.34317743E+00</totfact>
</mgrwt>
</event>
<event>
 4    1  0.1104584E-007  0.7554598E+03  0.7818608E-02  0.9626824E-01
          2   -1    0    0  501    0  0.00000000000E+00  0.00000000000E+00  0.19487838612E+04  0.19487838612E+04  0.25500000000E-02 0. -1.
         -2   -1    0    0    0  501 -0.00000000000E+00 -0.00000000000E+00 -0.95986465681E+03  0.95986465681E+03  0.25500000000E-02 0.  1.
    8880022    1    1    2    0    0  0.32884106129E+03 -0.66271516088E+03 -0.71787055451E+03  0.10421408802E+04  0.15294330000E+03 0.  0.
    8880022    1    1    2    0    0 -0.32884106129E+03  0.66271516088E+03  0.17067897589E+04  0.18665076378E+04  0.15294330000E+03 0.  0.
<mgrwt>
<rscale>  0 0.75545978E+03</rscale>
<asrwt>0</asrwt>
<pdfrwt beam="1">  1        2 0.29981290E+00 0.75545978E+03</pdfrwt>
<pdfrwt beam="2">  1       -2 0.14767149E+00 0.75545978E+03</pdfrwt>
<totfact> 0.23070044E+00</totfact>
</mgrwt>
</event>
<event>
 4    1  0.1104584E-007  0.2937272E+03  0.7818608E-02  0.1088419E+00
         -2   -1    0    0    0  501 -0.00000000000E+00  0.00000000000E+00  0.96743874278E+03  0.96743874279E+03  0.25500000000E-02 0.  1.
          2   -1    0    0  501    0  0.00000000000E+00 -0.00000000000E+00 -0.13998215442E+04  0.13998215442E+04  0.25500000000E-02 0. -1.
    8880022    1    1    2    0    0  0.21247512206E+03 -0.13318533253E+03  0.92911512386E+03  0.97443859565E+03  0.15294330000E+03 0.  0.
    8880022    1    1    2    0    0 -0.21247512206E+03  0.13318533253E+03 -0.13614979253E+04  0.13928216914E+04  0.15294330000E+03 0.  0.
<mgrwt>
<rscale>  0 0.29372719E+03</rscale>
<asrwt>0</asrwt>
<pdfrwt beam="1">  1        2 0.21535716E+00 0.29372719E+03</pdfrwt>
<pdfrwt beam="2">  1       -2 0.14883673E+00 0.29372719E+03</pdfrwt>
<totfact> 0.50518240E+00</totfact>
</mgrwt>
</event>
<event>
 4    1  0.1104584E-007  0.7998063E+03  0.7818608E-02  0.9560298E-01
          2   -1    0    0  501    0  0.00000000000E+00  0.00000000000E+00  0.16687110552E+04  0.16687110552E+04  0.25500000000E-02 0. -1.
         -2   -1    0    0    0  501 -0.00000000000E+00 -0.00000000000E+00 -0.73818427054E+03  0.73818427054E+03  0.25500000000E-02 0.  1.
    8880022    1    1    2    0    0  0.78390597711E+03  0.42306339155E+02  0.12996385769E+04  0.15260244070E+04  0.15294330000E+03 0.  0.
    8880022    1    1    2    0    0 -0.78390597711E+03 -0.42306339155E+02 -0.36911179222E+03  0.88087091873E+03  0.15294330000E+03 0.  0.
<mgrwt>
<rscale>  0 0.79980626E+03</rscale>
<asrwt>0</asrwt>
<pdfrwt beam="1">  1        2 0.25672477E+00 0.79980626E+03</pdfrwt>
<pdfrwt beam="2">  1       -2 0.11356681E+00 0.79980626E+03</pdfrwt>
<totfact> 0.63369598E+00</totfact>
</mgrwt>
</event>
<event>
 4    1  0.1104584E-007  0.5634287E+03  0.7818608E-02  0.9984326E-01
          2   -1    0    0  501    0  0.00000000000E+00  0.00000000000E+00  0.67847384100E+03  0.67847384101E+03  0.25500000000E-02 0. -1.
         -2   -1    0    0    0  501 -0.00000000000E+00 -0.00000000000E+00 -0.73132247723E+03  0.73132247723E+03  0.25500000000E-02 0.  1.
    8880022    1    1    2    0    0 -0.18731839097E+03 -0.50889297657E+03 -0.44948789751E+03  0.72075742398E+03  0.15294330000E+03 0.  0.
    8880022    1    1    2    0    0  0.18731839097E+03  0.50889297657E+03  0.39663926128E+03  0.68903889426E+03  0.15294330000E+03 0.  0.
<mgrwt>
<rscale>  0 0.56342869E+03</rscale>
<asrwt>0</asrwt>
<pdfrwt beam="1">  1        2 0.10438059E+00 0.56342869E+03</pdfrwt>
<pdfrwt beam="2">  1       -2 0.11251115E+00 0.56342869E+03</pdfrwt>
<totfact> 0.27367075E+01</totfact>
</mgrwt>
</event>
<event>
 4    1  0.1104584E-007  0.4983168E+03  0.7818608E-02  0.1014219E+00
          2   -1    0    0  501    0  0.00000000000E+00  0.00000000000E+00  0.17542412546E+04  0.17542412546E+04  0.25500000000E-02 0. -1.
         -2   -1    0    0    0  501 -0.00000000000E+00 -0.00000000000E+00 -0.34597590327E+03  0.34597590328E+03  0.25500000000E-02 0.  1.
    8880022    1    1    2    0    0 -0.40437497353E+03  0.24780815060E+03  0.15113214702E+04  0.15913554719E+04  0.15294330000E+03 0. -1.
    8880022    1    1    2    0    0  0.40437497353E+03 -0.24780815060E+03 -0.10305611892E+03  0.50886168591E+03  0.15294330000E+03 0.  0.
<mgrwt>
<rscale>  0 0.49831682E+03</rscale>
<asrwt>0</asrwt>
<pdfrwt beam="1">  1        2 0.26988327E+00 0.49831682E+03</pdfrwt>
<pdfrwt beam="2">  1       -2 0.53227061E-01 0.49831682E+03</pdfrwt>
<totfact> 0.32485079E+01</totfact>
</mgrwt>
</event>
<event>
 4    1  0.1104584E-007  0.3124964E+03  0.7818608E-02  0.1079155E+00
         -2   -1    0    0    0  501 -0.00000000000E+00  0.00000000000E+00  0.16788942035E+03  0.16788942037E+03  0.25500000000E-02 0.  1.
          2   -1    0    0  501    0  0.00000000000E+00 -0.00000000000E+00 -0.83920902404E+03  0.83920902404E+03  0.25500000000E-02 0. -1.
    8880022    1    1    2    0    0 -0.15034739492E+03 -0.22728396565E+03 -0.56701263563E+02  0.31759884525E+03  0.15294330000E+03 0.  0.
    8880022    1    1    2    0    0  0.15034739492E+03  0.22728396565E+03 -0.61461834013E+03  0.68949959916E+03  0.15294330000E+03 0.  0.
<mgrwt>
<rscale>  0 0.31249639E+03</rscale>
<asrwt>0</asrwt>
<pdfrwt beam="1">  1        2 0.12910908E+00 0.31249639E+03</pdfrwt>
<pdfrwt beam="2">  1       -2 0.25829142E-01 0.31249639E+03</pdfrwt>
<totfact> 0.44841179E+02</totfact>
</mgrwt>
</event>
<event>
 4    1  0.1104584E-007  0.7201966E+03  0.7818608E-02  0.9683303E-01
         -2   -1    0    0    0  501 -0.00000000000E+00  0.00000000000E+00  0.63528782667E+03  0.63528782667E+03  0.25500000000E-02 0.  1.
          2   -1    0    0  501    0  0.00000000000E+00 -0.00000000000E+00 -0.15834196302E+04  0.15834196302E+04  0.25500000000E-02 0. -1.
    8880022    1    1    2    0    0 -0.53342547931E+03 -0.45907380572E+03  0.29801008567E+03  0.77941847890E+03  0.15294330000E+03 0.  0.
    8880022    1    1    2    0    0  0.53342547931E+03  0.45907380572E+03 -0.12461418893E+04  0.14392889780E+04  0.15294330000E+03 0.  0.
<mgrwt>
<rscale>  0 0.72019661E+03</rscale>
<asrwt>0</asrwt>
<pdfrwt beam="1">  1        2 0.24360302E+00 0.72019661E+03</pdfrwt>
<pdfrwt beam="2">  1       -2 0.97736589E-01 0.72019661E+03</pdfrwt>
<totfact> 0.10236910E+01</totfact>
</mgrwt>
</event>
<event>
 4    1  0.1104584E-007  0.5624560E+03  0.7818608E-02  0.9986513E-01
         -2   -1    0    0    0  501 -0.00000000000E+00  0.00000000000E+00  0.56880007956E+03  0.56880007957E+03  0.25500000000E-02 0.  1.
          2   -1    0    0  501    0  0.00000000000E+00 -0.00000000000E+00 -0.15245024330E+04  0.15245024330E+04  0.25500000000E-02 0. -1.
    8880022    1    1    2    0    0  0.45688319300E+03 -0.29021178487E+03 -0.13120072593E+04  0.14274872446E+04  0.15294330000E+03 0.  0.
    8880022    1    1    2    0    0 -0.45688319300E+03  0.29021178487E+03  0.35630490583E+03  0.66581526797E+03  0.15294330000E+03 0.  0.
<mgrwt>
<rscale>  0 0.56245603E+03</rscale>
<asrwt>0</asrwt>
<pdfrwt beam="1">  1        2 0.23453883E+00 0.56245603E+03</pdfrwt>
<pdfrwt beam="2">  1       -2 0.87507705E-01 0.56245603E+03</pdfrwt>
<totfact> 0.14611535E+01</totfact>
</mgrwt>
</event>
<event>
 4    1  0.1104584E-007  0.3347043E+03  0.7818608E-02  0.1069074E+00
          2   -1    0    0  501    0  0.00000000000E+00  0.00000000000E+00  0.27603001104E+03  0.27603001105E+03  0.25500000000E-02 0. -1.
         -2   -1    0    0    0  501 -0.00000000000E+00 -0.00000000000E+00 -0.71796308662E+03  0.71796308663E+03  0.25500000000E-02 0.  1.
    8880022    1    1    2    0    0  0.66335598630E+02 -0.29023252626E+03 -0.54865246470E+03  0.64268694633E+03  0.15294330000E+03 0.  0.
    8880022    1    1    2    0    0 -0.66335598630E+02  0.29023252626E+03  0.10671938912E+03  0.35130615135E+03  0.15294330000E+03 0.  0.
<mgrwt>
<rscale>  0 0.33470432E+03</rscale>
<asrwt>0</asrwt>
<pdfrwt beam="1">  1        2 0.42466156E-01 0.33470432E+03</pdfrwt>
<pdfrwt beam="2">  1       -2 0.11045586E+00 0.33470432E+03</pdfrwt>
<totfact> 0.81333418E+01</totfact>
</mgrwt>
</event>
<event>
 4    1  0.1104584E-007  0.3499019E+03  0.7818608E-02  0.1062655E+00
         -2   -1    0    0    0  501 -0.00000000000E+00  0.00000000000E+00  0.56979782522E+03  0.56979782522E+03  0.25500000000E-02 0.  1.
          2   -1    0    0  501    0  0.00000000000E+00 -0.00000000000E+00 -0.77779790789E+03  0.77779790789E+03  0.25500000000E-02 0. -1.
    8880022    1    1    2    0    0 -0.75865777414E+02  0.30542438245E+03  0.46922269151E+03  0.58532149869E+03  0.15294330000E+03 0.  0.
    8880022    1    1    2    0    0  0.75865777414E+02 -0.30542438245E+03 -0.67722277419E+03  0.76227423443E+03  0.15294330000E+03 0.  0.
<mgrwt>
<rscale>  0 0.34990188E+03</rscale>
<asrwt>0</asrwt>
<pdfrwt beam="1">  1        2 0.11966122E+00 0.34990188E+03</pdfrwt>
<pdfrwt beam="2">  1       -2 0.87661204E-01 0.34990188E+03</pdfrwt>
<totfact> 0.42646107E+01</totfact>
</mgrwt>
</event>
<event>
 4    1  0.1104584E-007  0.3876651E+03  0.7818608E-02  0.1048137E+00
         -2   -1    0    0    0  501 -0.00000000000E+00  0.00000000000E+00  0.68086033007E+03  0.68086033008E+03  0.25500000000E-02 0.  1.
          2   -1    0    0  501    0  0.00000000000E+00 -0.00000000000E+00 -0.38026627859E+03  0.38026627860E+03  0.25500000000E-02 0. -1.
    8880022    1    1    2    0    0  0.25914403953E+03  0.24441140187E+03 -0.19336155399E+03  0.43321231534E+03  0.15294330000E+03 0. -1.
    8880022    1    1    2    0    0 -0.25914403953E+03 -0.24441140187E+03  0.49395560546E+03  0.62791429333E+03  0.15294330000E+03 0.  0.
<mgrwt>
<rscale>  0 0.38766509E+03</rscale>
<asrwt>0</asrwt>
<pdfrwt beam="1">  1        2 0.58502505E-01 0.38766509E+03</pdfrwt>
<pdfrwt beam="2">  1       -2 0.10474774E+00 0.38766509E+03</pdfrwt>
<totfact> 0.64672848E+01</totfact>
</mgrwt>
</event>
<event>
 4    1  0.1104584E-007  0.2909525E+03  0.7818608E-02  0.1089853E+00
          2   -1    0    0  501    0  0.00000000000E+00  0.00000000000E+00  0.88825934124E+03  0.88825934125E+03  0.25500000000E-02 0. -1.
         -2   -1    0    0    0  501 -0.00000000000E+00 -0.00000000000E+00 -0.63308467639E+03  0.63308467639E+03  0.25500000000E-02 0.  1.
    8880022    1    1    2    0    0  0.24632289881E+03  0.24222485747E+02 -0.57349614039E+03  0.64307944715E+03  0.15294330000E+03 0.  0.
    8880022    1    1    2    0    0 -0.24632289881E+03 -0.24222485747E+02  0.82867080524E+03  0.87826457049E+03  0.15294330000E+03 0.  0.
<mgrwt>
<rscale>  0 0.29095249E+03</rscale>
<asrwt>0</asrwt>
<pdfrwt beam="1">  1        2 0.13665528E+00 0.29095249E+03</pdfrwt>
<pdfrwt beam="2">  1       -2 0.97397643E-01 0.29095249E+03</pdfrwt>
<totfact> 0.28505836E+01</totfact>
</mgrwt>
</event>
<event>
 4    1  0.1104584E-007  0.4039475E+03  0.7818608E-02  0.1042421E+00
          2   -1    0    0  501    0  0.00000000000E+00  0.00000000000E+00  0.33729326126E+04  0.33729326126E+04  0.25500000000E-02 0. -1.
         -2   -1    0    0    0  501 -0.00000000000E+00 -0.00000000000E+00 -0.29174428379E+03  0.29174428380E+03  0.25500000000E-02 0.  1.
    8880022    1    1    2    0    0  0.37339667195E+03 -0.18889891759E+02  0.32141310861E+04  0.32394154094E+04  0.15294330000E+03 0.  0.
    8880022    1    1    2    0    0 -0.37339667195E+03  0.18889891759E+02 -0.13294275729E+03  0.42526148705E+03  0.15294330000E+03 0.  0.
<mgrwt>
<rscale>  0 0.40394747E+03</rscale>
<asrwt>0</asrwt>
<pdfrwt beam="1">  1        2 0.51891274E+00 0.40394747E+03</pdfrwt>
<pdfrwt beam="2">  1       -2 0.44883733E-01 0.40394747E+03</pdfrwt>
<totfact> 0.55625578E+00</totfact>
</mgrwt>
</event>
<event>
 4    1  0.1104584E-007  0.4885007E+03  0.7818608E-02  0.1016825E+00
          2   -1    0    0  501    0  0.00000000000E+00  0.00000000000E+00  0.10291489419E+04  0.10291489419E+04  0.25500000000E-02 0. -1.
         -2   -1    0    0    0  501 -0.00000000000E+00 -0.00000000000E+00 -0.38453803806E+03  0.38453803807E+03  0.25500000000E-02 0.  1.
    8880022    1    1    2    0    0 -0.36072197044E+03 -0.29175493642E+03 -0.12306551991E+03  0.50376389121E+03  0.15294330000E+03 0.  0.
    8880022    1    1    2    0    0  0.36072197044E+03  0.29175493642E+03  0.76767642377E+03  0.90992308879E+03  0.15294330000E+03 0.  0.
<mgrwt>
<rscale>  0 0.48850070E+03</rscale>
<asrwt>0</asrwt>
<pdfrwt beam="1">  1        2 0.15833060E+00 0.48850070E+03</pdfrwt>
<pdfrwt beam="2">  1       -2 0.59159699E-01 0.48850070E+03</pdfrwt>
<totfact> 0.67124250E+01</totfact>
</mgrwt>
</event>
<event>
 4    1  0.1104584E-007  0.9335662E+03  0.7818608E-02  0.9384568E-01
         -2   -1    0    0    0  501 -0.00000000000E+00  0.00000000000E+00  0.22273136340E+03  0.22273136341E+03  0.25500000000E-02 0.  1.
          2   -1    0    0  501    0  0.00000000000E+00 -0.00000000000E+00 -0.46551069970E+04  0.46551069970E+04  0.25500000000E-02 0. -1.
    8880022    1    1    2    0    0 -0.72496164485E+03  0.56796547143E+03 -0.12423907156E+04  0.15540529291E+04  0.15294330000E+03 0.  0.
    8880022    1    1    2    0    0  0.72496164485E+03 -0.56796547143E+03 -0.31899849180E+04  0.33237854313E+04  0.15294330000E+03 0.  0.
<mgrwt>
<rscale>  0 0.93356618E+03</rscale>
<asrwt>0</asrwt>
<pdfrwt beam="1">  1        2 0.71617023E+00 0.93356618E+03</pdfrwt>
<pdfrwt beam="2">  1       -2 0.34266367E-01 0.93356618E+03</pdfrwt>
<totfact> 0.75105662E-01</totfact>
</mgrwt>
</event>
<event>
 4    1  0.1104584E-007  0.6048659E+03  0.7818608E-02  0.9895362E-01
         -2   -1    0    0    0  501 -0.00000000000E+00  0.00000000000E+00  0.45636844895E+03  0.45636844896E+03  0.25500000000E-02 0.  1.
          2   -1    0    0  501    0  0.00000000000E+00 -0.00000000000E+00 -0.15192806662E+04  0.15192806662E+04  0.25500000000E-02 0. -1.
    8880022    1    1    2    0    0  0.58520979339E+03 -0.81140117731E+00  0.14743689157E+03  0.62257565858E+03  0.15294330000E+03 0.  0.
    8880022    1    1    2    0    0 -0.58520979339E+03  0.81140117731E+00 -0.12103491088E+04  0.13530734565E+04  0.15294330000E+03 0.  0.
<mgrwt>
<rscale>  0 0.60486595E+03</rscale>
<asrwt>0</asrwt>
<pdfrwt beam="1">  1        2 0.23373548E+00 0.60486595E+03</pdfrwt>
<pdfrwt beam="2">  1       -2 0.70210531E-01 0.60486595E+03</pdfrwt>
<totfact> 0.23870972E+01</totfact>
</mgrwt>
</event>
<event>
 4    1  0.1104584E-007  0.8102564E+03  0.7818608E-02  0.9545289E-01
         -2   -1    0    0    0  501 -0.00000000000E+00  0.00000000000E+00  0.74035443176E+03  0.74035443177E+03  0.25500000000E-02 0.  1.
          2   -1    0    0  501    0  0.00000000000E+00 -0.00000000000E+00 -0.11106622800E+04  0.11106622800E+04  0.25500000000E-02 0. -1.
    8880022    1    1    2    0    0  0.44961726986E+03 -0.65648158366E+03  0.23039319186E+03  0.84237547146E+03  0.15294330000E+03 0.  0.
    8880022    1    1    2    0    0 -0.44961726986E+03  0.65648158366E+03 -0.60070104007E+03  0.10086412403E+04  0.15294330000E+03 0.  0.
<mgrwt>
<rscale>  0 0.81025639E+03</rscale>
<asrwt>0</asrwt>
<pdfrwt beam="1">  1        2 0.17087112E+00 0.81025639E+03</pdfrwt>
<pdfrwt beam="2">  1       -2 0.11390068E+00 0.81025639E+03</pdfrwt>
<totfact> 0.13101335E+01</totfact>
</mgrwt>
</event>
<event>
 4    1  0.1104584E-007  0.2996610E+03  0.7818608E-02  0.1085410E+00
         -2   -1    0    0    0  501 -0.00000000000E+00  0.00000000000E+00  0.66203337714E+03  0.66203337714E+03  0.25500000000E-02 0.  1.
          2   -1    0    0  501    0  0.00000000000E+00 -0.00000000000E+00 -0.54629874751E+03  0.54629874751E+03  0.25500000000E-02 0. -1.
    8880022    1    1    2    0    0  0.25410940521E+03  0.42819061908E+02 -0.46595374487E+03  0.55399423035E+03  0.15294330000E+03 0.  0.
    8880022    1    1    2    0    0 -0.25410940521E+03 -0.42819061908E+02  0.58168837450E+03  0.65433789431E+03  0.15294330000E+03 0.  0.
<mgrwt>
<rscale>  0 0.29966100E+03</rscale>
<asrwt>0</asrwt>
<pdfrwt beam="1">  1        2 0.84045961E-01 0.29966100E+03</pdfrwt>
<pdfrwt beam="2">  1       -2 0.10185129E+00 0.29966100E+03</pdfrwt>
<totfact> 0.46592854E+01</totfact>
</mgrwt>
</event>
<event>
 4    1  0.1104584E-007  0.5228637E+03  0.7818608E-02  0.1007978E+00
          2   -1    0    0  501    0  0.00000000000E+00  0.00000000000E+00  0.19416145053E+04  0.19416145053E+04  0.25500000000E-02 0. -1.
         -2   -1    0    0    0  501 -0.00000000000E+00 -0.00000000000E+00 -0.14093542835E+03  0.14093542837E+03  0.25500000000E-02 0.  1.
    8880022    1    1    2    0    0  0.31717017960E+03 -0.38652015093E+03  0.86849882838E+03  0.10137438620E+04  0.15294330000E+03 0. -1.
    8880022    1    1    2    0    0 -0.31717017960E+03  0.38652015093E+03  0.93218024854E+03  0.10688060716E+04  0.15294330000E+03 0.  1.
<mgrwt>
<rscale>  0 0.52286366E+03</rscale>
<asrwt>0</asrwt>
<pdfrwt beam="1">  1        2 0.29870989E+00 0.52286366E+03</pdfrwt>
<pdfrwt beam="2">  1       -2 0.21682376E-01 0.52286366E+03</pdfrwt>
<totfact> 0.14000425E+02</totfact>
</mgrwt>
</event>
<event>
 4    1  0.1104584E-007  0.2288022E+03  0.7818608E-02  0.1127486E+00
          2   -1    0    0  501    0  0.00000000000E+00  0.00000000000E+00  0.97882198935E+03  0.97882198935E+03  0.25500000000E-02 0. -1.
         -2   -1    0    0    0  501 -0.00000000000E+00 -0.00000000000E+00 -0.38049502469E+03  0.38049502470E+03  0.25500000000E-02 0.  1.
    8880022    1    1    2    0    0 -0.12269507052E+03  0.11791827526E+03 -0.33091993255E+03  0.40231636152E+03  0.15294330000E+03 0.  1.
    8880022    1    1    2    0    0  0.12269507052E+03 -0.11791827526E+03  0.92924689720E+03  0.95700065253E+03  0.15294330000E+03 0.  0.
<mgrwt>
<rscale>  0 0.22880221E+03</rscale>
<asrwt>0</asrwt>
<pdfrwt beam="1">  1        2 0.15058800E+00 0.22880221E+03</pdfrwt>
<pdfrwt beam="2">  1       -2 0.58537696E-01 0.22880221E+03</pdfrwt>
<totfact> 0.77128758E+01</totfact>
</mgrwt>
</event>
<event>
 4    1  0.1104584E-007  0.3823945E+03  0.7818608E-02  0.1050052E+00
         -2   -1    0    0    0  501 -0.00000000000E+00  0.00000000000E+00  0.13254669093E+03  0.13254669095E+03  0.25500000000E-02 0.  1.
          2   -1    0    0  501    0  0.00000000000E+00 -0.00000000000E+00 -0.16162046241E+04  0.16162046241E+04  0.25500000000E-02 0. -1.
    8880022    1    1    2    0    0 -0.34547186438E+03 -0.59017503773E+02 -0.24921075066E+03  0.45643348485E+03  0.15294330000E+03 0.  0.
    8880022    1    1    2    0    0  0.34547186438E+03  0.59017503773E+02 -0.12344471825E+04  0.12923178302E+04  0.15294330000E+03 0. -1.
<mgrwt>
<rscale>  0 0.38239447E+03</rscale>
<asrwt>0</asrwt>
<pdfrwt beam="1">  1        2 0.24864685E+00 0.38239447E+03</pdfrwt>
<pdfrwt beam="2">  1       -2 0.20391800E-01 0.38239447E+03</pdfrwt>
<totfact> 0.23766871E+02</totfact>
</mgrwt>
</event>
<event>
 4    1  0.1104584E-007  0.3795964E+03  0.7818608E-02  0.1051083E+00
         -2   -1    0    0    0  501 -0.00000000000E+00  0.00000000000E+00  0.58936757405E+03  0.58936757406E+03  0.25500000000E-02 0.  1.
          2   -1    0    0  501    0  0.00000000000E+00 -0.00000000000E+00 -0.33757654703E+03  0.33757654704E+03  0.25500000000E-02 0. -1.
    8880022    1    1    2    0    0  0.82147507909E+02  0.33757003293E+03  0.36927567794E+03  0.52958277873E+03  0.15294330000E+03 0.  0.
    8880022    1    1    2    0    0 -0.82147507909E+02 -0.33757003293E+03 -0.11748465092E+03  0.39736134237E+03  0.15294330000E+03 0.  0.
<mgrwt>
<rscale>  0 0.37959636E+03</rscale>
<asrwt>0</asrwt>
<pdfrwt beam="1">  1        2 0.51934854E-01 0.37959636E+03</pdfrwt>
<pdfrwt beam="2">  1       -2 0.90671933E-01 0.37959636E+03</pdfrwt>
<totfact> 0.10324800E+02</totfact>
</mgrwt>
</event>
<event>
 4    1  0.1104584E-007  0.4105855E+03  0.7818608E-02  0.1040175E+00
          2   -1    0    0  501    0  0.00000000000E+00  0.00000000000E+00  0.22921246392E+04  0.22921246392E+04  0.25500000000E-02 0. -1.
         -2   -1    0    0    0  501 -0.00000000000E+00 -0.00000000000E+00 -0.19635876301E+03  0.19635876303E+03  0.25500000000E-02 0.  1.
    8880022    1    1    2    0    0  0.23580480501E+03 -0.29930734646E+03  0.20318903999E+04  0.20729590068E+04  0.15294330000E+03 0.  0.
    8880022    1    1    2    0    0 -0.23580480501E+03  0.29930734646E+03  0.63875476298E+02  0.41552439543E+03  0.15294330000E+03 0.  0.
<mgrwt>
<rscale>  0 0.41058549E+03</rscale>
<asrwt>0</asrwt>
<pdfrwt beam="1">  1        2 0.35263455E+00 0.41058549E+03</pdfrwt>
<pdfrwt beam="2">  1       -2 0.30209041E-01 0.41058549E+03</pdfrwt>
<totfact> 0.50924567E+01</totfact>
</mgrwt>
</event>
<event>
 4    1  0.1104584E-007  0.2771882E+03  0.7818608E-02  0.1097235E+00
          2   -1    0    0  501    0  0.00000000000E+00  0.00000000000E+00  0.18146542719E+04  0.18146542719E+04  0.25500000000E-02 0. -1.
         -2   -1    0    0    0  501 -0.00000000000E+00 -0.00000000000E+00 -0.78471298387E+02  0.78471298429E+02  0.25500000000E-02 0.  1.
    8880022    1    1    2    0    0 -0.21206981830E+03  0.92022068776E+02  0.22579885163E+03  0.35751705329E+03  0.15294330000E+03 0.  0.
    8880022    1    1    2    0    0  0.21206981830E+03 -0.92022068776E+02  0.15103841219E+04  0.15356085171E+04  0.15294330000E+03 0.  0.
<mgrwt>
<rscale>  0 0.27718824E+03</rscale>
<asrwt>0</asrwt>
<pdfrwt beam="1">  1        2 0.27917758E+00 0.27718824E+03</pdfrwt>
<pdfrwt beam="2">  1       -2 0.12072508E-01 0.27718824E+03</pdfrwt>
<totfact> 0.45607488E+02</totfact>
</mgrwt>
</event>
<event>
 4    1  0.1104584E-007  0.4182073E+03  0.7818608E-02  0.1037651E+00
         -2   -1    0    0    0  501 -0.00000000000E+00  0.00000000000E+00  0.52649954221E+03  0.52649954222E+03  0.25500000000E-02 0.  1.
          2   -1    0    0  501    0  0.00000000000E+00 -0.00000000000E+00 -0.43207958092E+03  0.43207958093E+03  0.25500000000E-02 0. -1.
    8880022    1    1    2    0    0  0.38350947218E+03  0.66529540379E+02  0.27766087784E+03  0.50198895515E+03  0.15294330000E+03 0.  0.
    8880022    1    1    2    0    0 -0.38350947218E+03 -0.66529540379E+02 -0.18324091655E+03  0.45659016799E+03  0.15294330000E+03 0.  0.
<mgrwt>
<rscale>  0 0.41820730E+03</rscale>
<asrwt>0</asrwt>
<pdfrwt beam="1">  1        2 0.66473781E-01 0.41820730E+03</pdfrwt>
<pdfrwt beam="2">  1       -2 0.80999930E-01 0.41820730E+03</pdfrwt>
<totfact> 0.10112230E+02</totfact>
</mgrwt>
</event>
<event>
 4    1  0.1104584E-007  0.5377054E+03  0.7818608E-02  0.1004380E+00
          2   -1    0    0  501    0  0.00000000000E+00  0.00000000000E+00  0.11328307167E+04  0.11328307167E+04  0.25500000000E-02 0. -1.
         -2   -1    0    0    0  501 -0.00000000000E+00 -0.00000000000E+00 -0.27948925933E+03  0.27948925934E+03  0.25500000000E-02 0.  1.
    8880022    1    1    2    0    0  0.40334977806E+03  0.32100524831E+03  0.21860462764E+03  0.58044383806E+03  0.15294330000E+03 0.  0.
    8880022    1    1    2    0    0 -0.40334977806E+03 -0.32100524831E+03  0.63473682973E+03  0.83187613797E+03  0.15294330000E+03 0.  0.
<mgrwt>
<rscale>  0 0.53770537E+03</rscale>
<asrwt>0</asrwt>
<pdfrwt beam="1">  1        2 0.17428164E+00 0.53770537E+03</pdfrwt>
<pdfrwt beam="2">  1       -2 0.42998349E-01 0.53770537E+03</pdfrwt>
<totfact> 0.11024167E+02</totfact>
</mgrwt>
</event>
<event>
 4    1  0.1104584E-007  0.2505166E+03  0.7818608E-02  0.1112979E+00
          2   -1    0    0  501    0  0.00000000000E+00  0.00000000000E+00  0.18000611342E+04  0.18000611342E+04  0.25500000000E-02 0. -1.
         -2   -1    0    0    0  501 -0.00000000000E+00 -0.00000000000E+00 -0.40904494286E+02  0.40904494365E+02  0.25500000000E-02 0.  1.
    8880022    1    1    2    0    0  0.15200314878E+03  0.12752245818E+03  0.52587321996E+03  0.58249569189E+03  0.15294330000E+03 0.  0.
    8880022    1    1    2    0    0 -0.15200314878E+03 -0.12752245818E+03  0.12332834199E+04  0.12584699366E+04  0.15294330000E+03 0.  0.
<mgrwt>
<rscale>  0 0.25051664E+03</rscale>
<asrwt>0</asrwt>
<pdfrwt beam="1">  1        2 0.27693250E+00 0.25051664E+03</pdfrwt>
<pdfrwt beam="2">  1       -2 0.62929987E-02 0.25051664E+03</pdfrwt>
<totfact> 0.13037586E+03</totfact>
</mgrwt>
</event>
<event>
 4    1  0.1104584E-007  0.4580186E+03  0.7818608E-02  0.1025357E+00
         -2   -1    0    0    0  501 -0.00000000000E+00  0.00000000000E+00  0.44448531870E+03  0.44448531870E+03  0.25500000000E-02 0.  1.
          2   -1    0    0  501    0  0.00000000000E+00 -0.00000000000E+00 -0.16588323800E+04  0.16588323800E+04  0.25500000000E-02 0. -1.
    8880022    1    1    2    0    0  0.15628043453E+03  0.40244973068E+03 -0.14967328860E+04  0.15652445001E+04  0.15294330000E+03 0.  0.
    8880022    1    1    2    0    0 -0.15628043453E+03 -0.40244973068E+03  0.28238582479E+03  0.53807319855E+03  0.15294330000E+03 0.  0.
<mgrwt>
<rscale>  0 0.45801857E+03</rscale>
<asrwt>0</asrwt>
<pdfrwt beam="1">  1        2 0.25520498E+00 0.45801857E+03</pdfrwt>
<pdfrwt beam="2">  1       -2 0.68382358E-01 0.45801857E+03</pdfrwt>
<totfact> 0.21774764E+01</totfact>
</mgrwt>
</event>
<event>
 4    1  0.1338550E-007  0.1250575E+04  0.7818608E-02  0.9069705E-01
          2   -1    0    0  501    0  0.00000000000E+00  0.00000000000E+00  0.15122941269E+04  0.15122941269E+04  0.25500000000E-02 0. -1.
         -2   -1    0    0    0  501 -0.00000000000E+00 -0.00000000000E+00 -0.21024425779E+04  0.21024425779E+04  0.25500000000E-02 0.  1.
    8880022    1    1    2    0    0 -0.12385624078E+04 -0.80679246935E+02  0.99326398425E+03  0.15970319265E+04  0.15294330000E+03 0.  0.
    8880022    1    1    2    0    0  0.12385624078E+04  0.80679246935E+02 -0.15834124353E+04  0.20177047783E+04  0.15294330000E+03 0.  0.
<mgrwt>
<rscale>  0 0.12505749E+04</rscale>
<asrwt>0</asrwt>
<pdfrwt beam="1">  1        2 0.23266064E+00 0.12505749E+04</pdfrwt>
<pdfrwt beam="2">  1       -2 0.32345270E+00 0.12505749E+04</pdfrwt>
<totfact> 0.27646268E-01</totfact>
</mgrwt>
</event>
<event>
 4    1  0.1104584E-007  0.8774696E+03  0.7818608E-02  0.9454192E-01
         -2   -1    0    0    0  501 -0.00000000000E+00  0.00000000000E+00  0.17010016103E+04  0.17010016103E+04  0.25500000000E-02 0.  1.
          2   -1    0    0  501    0  0.00000000000E+00 -0.00000000000E+00 -0.82378385190E+03  0.82378385191E+03  0.25500000000E-02 0. -1.
    8880022    1    1    2    0    0  0.47249977944E+03  0.72339837717E+03  0.12859436236E+04  0.15567928282E+04  0.15294330000E+03 0.  0.
    8880022    1    1    2    0    0 -0.47249977944E+03 -0.72339837717E+03 -0.40872586522E+03  0.96799263405E+03  0.15294330000E+03 0.  0.
<mgrwt>
<rscale>  0 0.87746960E+03</rscale>
<asrwt>0</asrwt>
<pdfrwt beam="1">  1        2 0.12673598E+00 0.87746960E+03</pdfrwt>
<pdfrwt beam="2">  1       -2 0.26169256E+00 0.87746960E+03</pdfrwt>
<totfact> 0.18311522E+00</totfact>
</mgrwt>
</event>
<event>
 4    1  0.1104584E-007  0.7639569E+03  0.7818608E-02  0.9613705E-01
          2   -1    0    0  501    0  0.00000000000E+00  0.00000000000E+00  0.24507265659E+04  0.24507265659E+04  0.25500000000E-02 0. -1.
         -2   -1    0    0    0  501 -0.00000000000E+00 -0.00000000000E+00 -0.91149835288E+03  0.91149835288E+03  0.25500000000E-02 0.  1.
    8880022    1    1    2    0    0 -0.74272527940E+03  0.92723822240E+02  0.22145217327E+04  0.23425918777E+04  0.15294330000E+03 0.  0.
    8880022    1    1    2    0    0  0.74272527940E+03 -0.92723822240E+02 -0.67529351963E+03  0.10196330411E+04  0.15294330000E+03 0.  0.
<mgrwt>
<rscale>  0 0.76395694E+03</rscale>
<asrwt>0</asrwt>
<pdfrwt beam="1">  1        2 0.37703485E+00 0.76395694E+03</pdfrwt>
<pdfrwt beam="2">  1       -2 0.14023052E+00 0.76395694E+03</pdfrwt>
<totfact> 0.13921725E+00</totfact>
</mgrwt>
</event>
<event>
 4    1  0.1104584E-007  0.1559134E+03  0.7818608E-02  0.1193389E+00
          2   -1    0    0  501    0  0.00000000000E+00  0.00000000000E+00  0.60670761533E+03  0.60670761533E+03  0.25500000000E-02 0. -1.
         -2   -1    0    0    0  501 -0.00000000000E+00 -0.00000000000E+00 -0.86862772417E+03  0.86862772417E+03  0.25500000000E-02 0.  1.
    8880022    1    1    2    0    0  0.26976927890E+02  0.13768610803E+02  0.58949362819E+03  0.60976365911E+03  0.15294330000E+03 0.  0.
    8880022    1    1    2    0    0 -0.26976927890E+02 -0.13768610803E+02 -0.85141373703E+03  0.86557168039E+03  0.15294330000E+03 0.  1.
<mgrwt>
<rscale>  0 0.15591338E+03</rscale>
<asrwt>0</asrwt>
<pdfrwt beam="1">  1        2 0.93339633E-01 0.15591338E+03</pdfrwt>
<pdfrwt beam="2">  1       -2 0.13363503E+00 0.15591338E+03</pdfrwt>
<totfact> 0.22302724E+01</totfact>
</mgrwt>
</event>
<event>
 4    1  0.1104584E-007  0.2763843E+03  0.7818608E-02  0.1097680E+00
          2   -1    0    0  501    0  0.00000000000E+00  0.00000000000E+00  0.31374321291E+04  0.31374321291E+04  0.25500000000E-02 0. -1.
         -2   -1    0    0    0  501 -0.00000000000E+00 -0.00000000000E+00 -0.10551469360E+03  0.10551469363E+03  0.25500000000E-02 0.  1.
    8880022    1    1    2    0    0 -0.12343883856E+03 -0.19431803271E+03  0.93813622139E+02  0.29187204973E+03  0.15294330000E+03 0.  1.
    8880022    1    1    2    0    0  0.12343883856E+03  0.19431803271E+03  0.29381038134E+04  0.29510747730E+04  0.15294330000E+03 0.  0.
<mgrwt>
<rscale>  0 0.27638433E+03</rscale>
<asrwt>0</asrwt>
<pdfrwt beam="1">  1        2 0.48268182E+00 0.27638433E+03</pdfrwt>
<pdfrwt beam="2">  1       -2 0.16233031E-01 0.27638433E+03</pdfrwt>
<totfact> 0.51840740E+01</totfact>
</mgrwt>
</event>
<event>
 4    1  0.1104584E-007  0.3320600E+03  0.7818608E-02  0.1070229E+00
          2   -1    0    0  501    0  0.00000000000E+00  0.00000000000E+00  0.21087379997E+03  0.21087379998E+03  0.25500000000E-02 0. -1.
         -2   -1    0    0    0  501 -0.00000000000E+00 -0.00000000000E+00 -0.23342154923E+04  0.23342154923E+04  0.25500000000E-02 0.  1.
    8880022    1    1    2    0    0  0.11487048980E+03  0.27143503077E+03  0.59316658743E+02  0.33731635652E+03  0.15294330000E+03 0.  0.
    8880022    1    1    2    0    0 -0.11487048980E+03 -0.27143503077E+03 -0.21826583510E+04  0.22077729357E+04  0.15294330000E+03 0.  0.
<mgrwt>
<rscale>  0 0.33206002E+03</rscale>
<asrwt>0</asrwt>
<pdfrwt beam="1">  1        2 0.32442125E-01 0.33206002E+03</pdfrwt>
<pdfrwt beam="2">  1       -2 0.35911006E+00 0.33206002E+03</pdfrwt>
<totfact> 0.25649840E+00</totfact>
</mgrwt>
</event>
<event>
 4    1  0.1104584E-007  0.3174894E+03  0.7818608E-02  0.1076811E+00
         -2   -1    0    0    0  501 -0.00000000000E+00  0.00000000000E+00  0.35276773783E+03  0.35276773784E+03  0.25500000000E-02 0.  1.
          2   -1    0    0  501    0  0.00000000000E+00 -0.00000000000E+00 -0.18099929014E+04  0.18099929014E+04  0.25500000000E-02 0. -1.
    8880022    1    1    2    0    0 -0.24411327810E+03  0.13347881937E+03  0.26374608526E+03  0.41274875926E+03  0.15294330000E+03 0.  1.
    8880022    1    1    2    0    0  0.24411327810E+03 -0.13347881937E+03 -0.17209712488E+04  0.17500118800E+04  0.15294330000E+03 0.  0.
<mgrwt>
<rscale>  0 0.31748943E+03</rscale>
<asrwt>0</asrwt>
<pdfrwt beam="1">  1        2 0.27846044E+00 0.31748943E+03</pdfrwt>
<pdfrwt beam="2">  1       -2 0.54271961E-01 0.31748943E+03</pdfrwt>
<totfact> 0.30425870E+01</totfact>
</mgrwt>
</event>
<event>
 4    1  0.1104584E-007  0.4261561E+03  0.7818608E-02  0.1035081E+00
          2   -1    0    0  501    0  0.00000000000E+00  0.00000000000E+00  0.16502577688E+04  0.16502577688E+04  0.25500000000E-02 0. -1.
         -2   -1    0    0    0  501 -0.00000000000E+00 -0.00000000000E+00 -0.23343875559E+03  0.23343875560E+03  0.25500000000E-02 0.  1.
    8880022    1    1    2    0    0  0.16401375318E+03  0.36237669979E+03  0.13931629195E+04  0.14568843321E+04  0.15294330000E+03 0.  0.
    8880022    1    1    2    0    0 -0.16401375318E+03 -0.36237669979E+03  0.23656093774E+02  0.42681219239E+03  0.15294330000E+03 0.  1.
<mgrwt>
<rscale>  0 0.42615612E+03</rscale>
<asrwt>0</asrwt>
<pdfrwt beam="1">  1        2 0.25388581E+00 0.42615612E+03</pdfrwt>
<pdfrwt beam="2">  1       -2 0.35913655E-01 0.42615612E+03</pdfrwt>
<totfact> 0.81254071E+01</totfact>
</mgrwt>
</event>
<event>
 4    1  0.1104584E-007  0.1967183E+03  0.7818608E-02  0.1152538E+00
          2   -1    0    0  501    0  0.00000000000E+00  0.00000000000E+00  0.63483351526E+03  0.63483351526E+03  0.25500000000E-02 0. -1.
         -2   -1    0    0    0  501 -0.00000000000E+00 -0.00000000000E+00 -0.11624226119E+03  0.11624226121E+03  0.25500000000E-02 0.  1.
    8880022    1    1    2    0    0  0.18494387501E+02 -0.12232901115E+03  0.31152633252E+00  0.19671852836E+03  0.15294330000E+03 0.  0.
    8880022    1    1    2    0    0 -0.18494387501E+02  0.12232901115E+03  0.51827972774E+03  0.55435724811E+03  0.15294330000E+03 0. -1.
<mgrwt>
<rscale>  0 0.19671828E+03</rscale>
<asrwt>0</asrwt>
<pdfrwt beam="1">  1        2 0.97666693E-01 0.19671828E+03</pdfrwt>
<pdfrwt beam="2">  1       -2 0.17883425E-01 0.19671828E+03</pdfrwt>
<totfact> 0.12005839E+03</totfact>
</mgrwt>
</event>
<event>
 4    1  0.1104584E-007  0.6652239E+03  0.7818608E-02  0.9778625E-01
         -2   -1    0    0    0  501 -0.00000000000E+00  0.00000000000E+00  0.20593041185E+03  0.20593041186E+03  0.25500000000E-02 0.  1.
          2   -1    0    0  501    0  0.00000000000E+00 -0.00000000000E+00 -0.22501058973E+04  0.22501058973E+04  0.25500000000E-02 0. -1.
    8880022    1    1    2    0    0  0.97746119364E+02 -0.63998193348E+03 -0.12825332976E+04  0.14447887360E+04  0.15294330000E+03 0.  0.
    8880022    1    1    2    0    0 -0.97746119364E+02  0.63998193348E+03 -0.76164218784E+03  0.10112475732E+04  0.15294330000E+03 0.  0.
<mgrwt>
<rscale>  0 0.66522390E+03</rscale>
<asrwt>0</asrwt>
<pdfrwt beam="1">  1        2 0.34617012E+00 0.66522390E+03</pdfrwt>
<pdfrwt beam="2">  1       -2 0.31681603E-01 0.66522390E+03</pdfrwt>
<totfact> 0.46903112E+01</totfact>
</mgrwt>
</event>
<event>
 4    1  0.1104584E-007  0.3815691E+03  0.7818608E-02  0.1050355E+00
         -2   -1    0    0    0  501 -0.00000000000E+00  0.00000000000E+00  0.84523407709E+03  0.84523407709E+03  0.25500000000E-02 0.  1.
          2   -1    0    0  501    0  0.00000000000E+00 -0.00000000000E+00 -0.53906552047E+03  0.53906552048E+03  0.25500000000E-02 0. -1.
    8880022    1    1    2    0    0  0.34683947390E+03 -0.43654635306E+02  0.72403781591E+03  0.81842883607E+03  0.15294330000E+03 0.  0.
    8880022    1    1    2    0    0 -0.34683947390E+03  0.43654635306E+02 -0.41786925930E+03  0.56587076150E+03  0.15294330000E+03 0.  0.
<mgrwt>
<rscale>  0 0.38156913E+03</rscale>
<asrwt>0</asrwt>
<pdfrwt beam="1">  1        2 0.82933157E-01 0.38156913E+03</pdfrwt>
<pdfrwt beam="2">  1       -2 0.13003601E+00 0.38156913E+03</pdfrwt>
<totfact> 0.25841079E+01</totfact>
</mgrwt>
</event>
<event>
 4    1  0.1104584E-007  0.8608158E+03  0.7818608E-02  0.9475934E-01
          2   -1    0    0  501    0  0.00000000000E+00  0.00000000000E+00  0.26413583241E+04  0.26413583241E+04  0.25500000000E-02 0. -1.
         -2   -1    0    0    0  501 -0.00000000000E+00 -0.00000000000E+00 -0.45969943896E+03  0.45969943896E+03  0.25500000000E-02 0.  1.
    8880022    1    1    2    0    0  0.74919746424E+03 -0.39536729084E+03  0.12285466743E+03  0.86953841630E+03  0.15294330000E+03 0.  0.
    8880022    1    1    2    0    0 -0.74919746424E+03  0.39536729084E+03  0.20588042177E+04  0.22315193468E+04  0.15294330000E+03 0.  0.
<mgrwt>
<rscale>  0 0.86081577E+03</rscale>
<asrwt>0</asrwt>
<pdfrwt beam="1">  1        2 0.40636282E+00 0.86081577E+03</pdfrwt>
<pdfrwt beam="2">  1       -2 0.70722990E-01 0.86081577E+03</pdfrwt>
<totfact> 0.54096161E+00</totfact>
</mgrwt>
</event>
<event>
 4    1  0.1104584E-007  0.1742079E+04  0.7818608E-02  0.8737722E-01
         -2   -1    0    0    0  501 -0.00000000000E+00  0.00000000000E+00  0.27229504406E+04  0.27229504406E+04  0.25500000000E-02 0.  1.
          2   -1    0    0  501    0  0.00000000000E+00 -0.00000000000E+00 -0.14872765442E+04  0.14872765442E+04  0.25500000000E-02 0. -1.
    8880022    1    1    2    0    0 -0.13052334939E+04 -0.11435973049E+04  0.16716894668E+04  0.24144122672E+04  0.15294330000E+03 0.  0.
    8880022    1    1    2    0    0  0.13052334939E+04  0.11435973049E+04 -0.43601557044E+03  0.17958147177E+04  0.15294330000E+03 0.  0.
<mgrwt>
<rscale>  0 0.17420795E+04</rscale>
<asrwt>0</asrwt>
<pdfrwt beam="1">  1        2 0.22881178E+00 0.17420795E+04</pdfrwt>
<pdfrwt beam="2">  1       -2 0.41891545E+00 0.17420795E+04</pdfrwt>
<totfact> 0.65917607E-02</totfact>
</mgrwt>
</event>
<event>
 4    1  0.1104584E-007  0.1586806E+03  0.7818608E-02  0.1190194E+00
          2   -1    0    0  501    0  0.00000000000E+00  0.00000000000E+00  0.42436045375E+03  0.42436045375E+03  0.25500000000E-02 0. -1.
         -2   -1    0    0    0  501 -0.00000000000E+00 -0.00000000000E+00 -0.56206889621E+03  0.56206889622E+03  0.25500000000E-02 0.  1.
    8880022    1    1    2    0    0 -0.10129840610E+02 -0.41052183427E+02 -0.53530967420E+03  0.55833323001E+03  0.15294330000E+03 0.  1.
    8880022    1    1    2    0    0  0.10129840610E+02  0.41052183427E+02  0.39760123173E+03  0.42809611996E+03  0.15294330000E+03 0.  0.
<mgrwt>
<rscale>  0 0.15868065E+03</rscale>
<asrwt>0</asrwt>
<pdfrwt beam="1">  1        2 0.65286223E-01 0.15868065E+03</pdfrwt>
<pdfrwt beam="2">  1       -2 0.86472138E-01 0.15868065E+03</pdfrwt>
<totfact> 0.92099687E+01</totfact>
</mgrwt>
</event>
<event>
 4    1  0.1104584E-007  0.7940288E+03  0.7818608E-02  0.9568701E-01
         -2   -1    0    0    0  501 -0.00000000000E+00  0.00000000000E+00  0.28065264887E+03  0.28065264888E+03  0.25500000000E-02 0.  1.
          2   -1    0    0  501    0  0.00000000000E+00 -0.00000000000E+00 -0.24411009751E+04  0.24411009751E+04  0.25500000000E-02 0. -1.
    8880022    1    1    2    0    0 -0.76924673432E+03 -0.12389322347E+03 -0.69597214718E+03  0.10558688137E+04  0.15294330000E+03 0.  0.
    8880022    1    1    2    0    0  0.76924673432E+03  0.12389322347E+03 -0.14644761790E+04  0.16658848103E+04  0.15294330000E+03 0.  0.
<mgrwt>
<rscale>  0 0.79402879E+03</rscale>
<asrwt>0</asrwt>
<pdfrwt beam="1">  1        2 0.37555398E+00 0.79402879E+03</pdfrwt>
<pdfrwt beam="2">  1       -2 0.43177332E-01 0.79402879E+03</pdfrwt>
<totfact> 0.19868659E+01</totfact>
</mgrwt>
</event>
<event>
 4    1  0.1104584E-007  0.1522913E+04  0.7818608E-02  0.8869358E-01
         -2   -1    0    0    0  501 -0.00000000000E+00  0.00000000000E+00  0.10219862285E+04  0.10219862286E+04  0.25500000000E-02 0.  1.
          2   -1    0    0  501    0  0.00000000000E+00 -0.00000000000E+00 -0.26826100798E+04  0.26826100798E+04  0.25500000000E-02 0. -1.
    8880022    1    1    2    0    0  0.12769266106E+04  0.81567744108E+03 -0.15573118291E+04  0.21781834272E+04  0.15294330000E+03 0.  0.
    8880022    1    1    2    0    0 -0.12769266106E+04 -0.81567744108E+03 -0.10331202214E+03  0.15264128811E+04  0.15294330000E+03 0.  0.
<mgrwt>
<rscale>  0 0.15229126E+04</rscale>
<asrwt>0</asrwt>
<pdfrwt beam="1">  1        2 0.41270924E+00 0.15229126E+04</pdfrwt>
<pdfrwt beam="2">  1       -2 0.15722865E+00 0.15229126E+04</pdfrwt>
<totfact> 0.67692014E-01</totfact>
</mgrwt>
</event>
<event>
 4    1  0.1104584E-007  0.1172741E+04  0.7818608E-02  0.9137057E-01
         -2   -1    0    0    0  501 -0.00000000000E+00  0.00000000000E+00  0.10041589493E+04  0.10041589493E+04  0.25500000000E-02 0.  1.
          2   -1    0    0  501    0  0.00000000000E+00 -0.00000000000E+00 -0.15930624878E+04  0.15930624878E+04  0.25500000000E-02 0. -1.
    8880022    1    1    2    0    0  0.89250734766E+03 -0.74522518338E+03 -0.78079202448E+03  0.14088852963E+04  0.15294330000E+03 0.  0.
    8880022    1    1    2    0    0 -0.89250734766E+03  0.74522518338E+03  0.19188848597E+03  0.11883361408E+04  0.15294330000E+03 0.  0.
<mgrwt>
<rscale>  0 0.11727411E+04</rscale>
<asrwt>0</asrwt>
<pdfrwt beam="1">  1        2 0.24508654E+00 0.11727411E+04</pdfrwt>
<pdfrwt beam="2">  1       -2 0.15448599E+00 0.11727411E+04</pdfrwt>
<totfact> 0.30367749E+00</totfact>
</mgrwt>
</event>
<event>
 4    1  0.1104584E-007  0.2623660E+03  0.7818608E-02  0.1105730E+00
         -2   -1    0    0    0  501 -0.00000000000E+00  0.00000000000E+00  0.10382143922E+04  0.10382143922E+04  0.25500000000E-02 0.  1.
          2   -1    0    0  501    0  0.00000000000E+00 -0.00000000000E+00 -0.22026733545E+03  0.22026733546E+03  0.25500000000E-02 0. -1.
    8880022    1    1    2    0    0  0.19827900189E+03 -0.78292506900E+02 -0.11710795676E+03  0.28731551608E+03  0.15294330000E+03 0.  0.
    8880022    1    1    2    0    0 -0.19827900189E+03  0.78292506900E+02  0.93505501354E+03  0.97116621162E+03  0.15294330000E+03 0.  1.
<mgrwt>
<rscale>  0 0.26236603E+03</rscale>
<asrwt>0</asrwt>
<pdfrwt beam="1">  1        2 0.33887283E-01 0.26236603E+03</pdfrwt>
<pdfrwt beam="2">  1       -2 0.15972529E+00 0.26236603E+03</pdfrwt>
<totfact> 0.41591533E+01</totfact>
</mgrwt>
</event>
<event>
 4    1  0.1104584E-007  0.4282947E+03  0.7818608E-02  0.1034400E+00
         -2   -1    0    0    0  501 -0.00000000000E+00  0.00000000000E+00  0.47814791524E+03  0.47814791525E+03  0.25500000000E-02 0.  1.
          2   -1    0    0  501    0  0.00000000000E+00 -0.00000000000E+00 -0.18430254265E+04  0.18430254265E+04  0.25500000000E-02 0. -1.
    8880022    1    1    2    0    0 -0.19244948028E+03  0.35072481731E+03  0.35031555191E+03  0.55331486413E+03  0.15294330000E+03 0.  0.
    8880022    1    1    2    0    0  0.19244948028E+03 -0.35072481731E+03 -0.17151930632E+04  0.17678584776E+04  0.15294330000E+03 0.  0.
<mgrwt>
<rscale>  0 0.42829470E+03</rscale>
<asrwt>0</asrwt>
<pdfrwt beam="1">  1        2 0.28354237E+00 0.42829470E+03</pdfrwt>
<pdfrwt beam="2">  1       -2 0.73561218E-01 0.42829470E+03</pdfrwt>
<totfact> 0.14902091E+01</totfact>
</mgrwt>
</event>
<event>
 4    1  0.1104584E-007  0.4657720E+03  0.7818608E-02  0.1023120E+00
         -2   -1    0    0    0  501 -0.00000000000E+00  0.00000000000E+00  0.30898720370E+03  0.30898720371E+03  0.25500000000E-02 0.  1.
          2   -1    0    0  501    0  0.00000000000E+00 -0.00000000000E+00 -0.15937742658E+04  0.15937742658E+04  0.25500000000E-02 0. -1.
    8880022    1    1    2    0    0 -0.40379087871E+02 -0.43808840868E+03  0.69215052654E+02  0.47088671789E+03  0.15294330000E+03 0.  0.
    8880022    1    1    2    0    0  0.40379087871E+02  0.43808840868E+03 -0.13540021147E+04  0.14318747516E+04  0.15294330000E+03 0.  0.
<mgrwt>
<rscale>  0 0.46577202E+03</rscale>
<asrwt>0</asrwt>
<pdfrwt beam="1">  1        2 0.24519604E+00 0.46577202E+03</pdfrwt>
<pdfrwt beam="2">  1       -2 0.47536494E-01 0.46577202E+03</pdfrwt>
<totfact> 0.50153704E+01</totfact>
</mgrwt>
</event>
<event>
 4    1  0.1104584E-007  0.7196077E+03  0.7818608E-02  0.9684276E-01
         -2   -1    0    0    0  501 -0.00000000000E+00  0.00000000000E+00  0.78226027055E+03  0.78226027055E+03  0.25500000000E-02 0.  1.
          2   -1    0    0  501    0  0.00000000000E+00 -0.00000000000E+00 -0.11897476462E+04  0.11897476462E+04  0.25500000000E-02 0. -1.
    8880022    1    1    2    0    0 -0.99915791538E+02  0.69603193534E+03 -0.86045642979E+03  0.11217043019E+04  0.15294330000E+03 0.  0.
    8880022    1    1    2    0    0  0.99915791538E+02 -0.69603193534E+03  0.45296905411E+03  0.85030361484E+03  0.15294330000E+03 0.  0.
<mgrwt>
<rscale>  0 0.71960772E+03</rscale>
<asrwt>0</asrwt>
<pdfrwt beam="1">  1        2 0.18303810E+00 0.71960772E+03</pdfrwt>
<pdfrwt beam="2">  1       -2 0.12034773E+00 0.71960772E+03</pdfrwt>
<totfact> 0.10366604E+01</totfact>
</mgrwt>
</event>
<event>
 4    1  0.3741999E-007  0.6256481E+03  0.7818608E-02  0.9853578E-01
         -2   -1    0    0    0  501 -0.00000000000E+00  0.00000000000E+00  0.14530198782E+04  0.14530198782E+04  0.25500000000E-02 0.  1.
          2   -1    0    0  501    0  0.00000000000E+00 -0.00000000000E+00 -0.24019146961E+04  0.24019146961E+04  0.25500000000E-02 0. -1.
    8880022    1    1    2    0    0 -0.47801152223E+03  0.37356247045E+03  0.13417154961E+04  0.14804175290E+04  0.15294330000E+03 0.  0.
    8880022    1    1    2    0    0  0.47801152223E+03 -0.37356247045E+03 -0.22906103140E+04  0.23745170453E+04  0.15294330000E+03 0.  0.
<mgrwt>
<rscale>  0 0.62564813E+03</rscale>
<asrwt>0</asrwt>
<pdfrwt beam="1">  1        2 0.36952534E+00 0.62564813E+03</pdfrwt>
<pdfrwt beam="2">  1       -2 0.22354152E+00 0.62564813E+03</pdfrwt>
<totfact> 0.40754499E-01</totfact>
</mgrwt>
</event>
<event>
 4    1  0.1104584E-007  0.1000378E+04  0.7818608E-02  0.9308130E-01
         -2   -1    0    0    0  501 -0.00000000000E+00  0.00000000000E+00  0.19262468356E+04  0.19262468356E+04  0.25500000000E-02 0.  1.
          2   -1    0    0  501    0  0.00000000000E+00 -0.00000000000E+00 -0.53320553482E+03  0.53320553482E+03  0.25500000000E-02 0. -1.
    8880022    1    1    2    0    0  0.26036121721E+03 -0.95371756480E+03  0.89340878344E+03  0.13412442224E+04  0.15294330000E+03 0.  1.
    8880022    1    1    2    0    0 -0.26036121721E+03  0.95371756480E+03  0.49963251732E+03  0.11182081480E+04  0.15294330000E+03 0. -1.
<mgrwt>
<rscale>  0 0.10003783E+04</rscale>
<asrwt>0</asrwt>
<pdfrwt beam="1">  1        2 0.82031621E-01 0.10003783E+04</pdfrwt>
<pdfrwt beam="2">  1       -2 0.29634567E+00 0.10003783E+04</pdfrwt>
<totfact> 0.19227915E+00</totfact>
</mgrwt>
</event>
<event>
 4    1  0.1104584E-007  0.7409273E+03  0.7818608E-02  0.9649692E-01
          2   -1    0    0  501    0  0.00000000000E+00  0.00000000000E+00  0.24289082108E+04  0.24289082108E+04  0.25500000000E-02 0. -1.
         -2   -1    0    0    0  501 -0.00000000000E+00 -0.00000000000E+00 -0.80349200301E+03  0.80349200302E+03  0.25500000000E-02 0.  1.
    8880022    1    1    2    0    0 -0.63432348640E+03 -0.35102046869E+03 -0.55745143502E+03  0.92721378886E+03  0.15294330000E+03 0.  0.
    8880022    1    1    2    0    0  0.63432348640E+03  0.35102046869E+03  0.21828676428E+04  0.23051864250E+04  0.15294330000E+03 0. -1.
<mgrwt>
<rscale>  0 0.74092733E+03</rscale>
<asrwt>0</asrwt>
<pdfrwt beam="1">  1        2 0.37367818E+00 0.74092733E+03</pdfrwt>
<pdfrwt beam="2">  1       -2 0.12361416E+00 0.74092733E+03</pdfrwt>
<totfact> 0.19821887E+00</totfact>
</mgrwt>
</event>
<event>
 4    1  0.1104584E-007  0.5906956E+03  0.7818608E-02  0.9924900E-01
         -2   -1    0    0    0  501 -0.00000000000E+00  0.00000000000E+00  0.81758560689E+03  0.81758560689E+03  0.25500000000E-02 0.  1.
          2   -1    0    0  501    0  0.00000000000E+00 -0.00000000000E+00 -0.55773176747E+03  0.55773176747E+03  0.25500000000E-02 0. -1.
    8880022    1    1    2    0    0  0.93245167388E+02  0.56288094381E+03 -0.20329378304E+03  0.62469963453E+03  0.15294330000E+03 0.  0.
    8880022    1    1    2    0    0 -0.93245167388E+02 -0.56288094381E+03  0.46314762246E+03  0.75061773983E+03  0.15294330000E+03 0.  0.
<mgrwt>
<rscale>  0 0.59069558E+03</rscale>
<asrwt>0</asrwt>
<pdfrwt beam="1">  1        2 0.85804887E-01 0.59069558E+03</pdfrwt>
<pdfrwt beam="2">  1       -2 0.12578240E+00 0.59069558E+03</pdfrwt>
<totfact> 0.26271203E+01</totfact>
</mgrwt>
</event>
<event>
 4    1  0.1104584E-007  0.8689756E+03  0.7818608E-02  0.9465217E-01
          2   -1    0    0  501    0  0.00000000000E+00  0.00000000000E+00  0.72177128000E+03  0.72177128000E+03  0.25500000000E-02 0. -1.
         -2   -1    0    0    0  501 -0.00000000000E+00 -0.00000000000E+00 -0.13806456745E+04  0.13806456745E+04  0.25500000000E-02 0.  1.
    8880022    1    1    2    0    0 -0.36709126532E+03 -0.77263891414E+03 -0.84681672824E+03  0.12133495428E+04  0.15294330000E+03 0.  0.
    8880022    1    1    2    0    0  0.36709126532E+03  0.77263891414E+03  0.18794233377E+03  0.88906741170E+03  0.15294330000E+03 0.  0.
<mgrwt>
<rscale>  0 0.86897557E+03</rscale>
<asrwt>0</asrwt>
<pdfrwt beam="1">  1        2 0.11104174E+00 0.86897557E+03</pdfrwt>
<pdfrwt beam="2">  1       -2 0.21240703E+00 0.86897557E+03</pdfrwt>
<totfact> 0.43897341E+00</totfact>
</mgrwt>
</event>
<event>
 4    1  0.1104584E-007  0.5892341E+03  0.7818608E-02  0.9927997E-01
         -2   -1    0    0    0  501 -0.00000000000E+00  0.00000000000E+00  0.41397067476E+03  0.41397067477E+03  0.25500000000E-02 0.  1.
          2   -1    0    0  501    0  0.00000000000E+00 -0.00000000000E+00 -0.30990828066E+04  0.30990828066E+04  0.25500000000E-02 0. -1.
    8880022    1    1    2    0    0  0.76468303279E+02 -0.56387746449E+03 -0.28426873068E+04  0.29031134965E+04  0.15294330000E+03 0.  0.
    8880022    1    1    2    0    0 -0.76468303279E+02  0.56387746449E+03  0.15757517495E+03  0.60993998487E+03  0.15294330000E+03 0.  0.
<mgrwt>
<rscale>  0 0.58923412E+03</rscale>
<asrwt>0</asrwt>
<pdfrwt beam="1">  1        2 0.47678195E+00 0.58923412E+03</pdfrwt>
<pdfrwt beam="2">  1       -2 0.63687798E-01 0.58923412E+03</pdfrwt>
<totfact> 0.38165057E+00</totfact>
</mgrwt>
</event>
<event>
 4    1  0.1104584E-007  0.1928206E+03  0.7818608E-02  0.1155942E+00
          2   -1    0    0  501    0  0.00000000000E+00  0.00000000000E+00  0.89644453067E+03  0.89644453067E+03  0.25500000000E-02 0. -1.
         -2   -1    0    0    0  501 -0.00000000000E+00 -0.00000000000E+00 -0.14667496296E+03  0.14667496298E+03  0.25500000000E-02 0.  1.
    8880022    1    1    2    0    0  0.90162813657E+00 -0.11741947514E+03 -0.66822349840E+02  0.20407112860E+03  0.15294330000E+03 0.  0.
    8880022    1    1    2    0    0 -0.90162813657E+00  0.11741947514E+03  0.81659191755E+03  0.83904836505E+03  0.15294330000E+03 0.  0.
<mgrwt>
<rscale>  0 0.19282064E+03</rscale>
<asrwt>0</asrwt>
<pdfrwt beam="1">  1        2 0.13791455E+00 0.19282064E+03</pdfrwt>
<pdfrwt beam="2">  1       -2 0.22565378E-01 0.19282064E+03</pdfrwt>
<totfact> 0.52639153E+02</totfact>
</mgrwt>
</event>
<event>
 4    1  0.1104584E-007  0.5142280E+03  0.7818608E-02  0.1010130E+00
          2   -1    0    0  501    0  0.00000000000E+00  0.00000000000E+00  0.16812120139E+04  0.16812120139E+04  0.25500000000E-02 0. -1.
         -2   -1    0    0    0  501 -0.00000000000E+00 -0.00000000000E+00 -0.17704845419E+03  0.17704845421E+03  0.25500000000E-02 0.  1.
    8880022    1    1    2    0    0 -0.47623043152E+03 -0.11934571056E+03  0.10625056620E+04  0.11804019474E+04  0.15294330000E+03 0.  0.
    8880022    1    1    2    0    0  0.47623043152E+03  0.11934571056E+03  0.44165789770E+03  0.67785852075E+03  0.15294330000E+03 0.  1.
<mgrwt>
<rscale>  0 0.51422804E+03</rscale>
<asrwt>0</asrwt>
<pdfrwt beam="1">  1        2 0.25864800E+00 0.51422804E+03</pdfrwt>
<pdfrwt beam="2">  1       -2 0.27238224E-01 0.51422804E+03</pdfrwt>
<totfact> 0.12882835E+02</totfact>
</mgrwt>
</event>
<event>
 4    1  0.1104584E-007  0.3482960E+03  0.7818608E-02  0.1063317E+00
         -2   -1    0    0    0  501 -0.00000000000E+00  0.00000000000E+00  0.16147643582E+03  0.16147643584E+03  0.25500000000E-02 0.  1.
          2   -1    0    0  501    0  0.00000000000E+00 -0.00000000000E+00 -0.17923744704E+04  0.17923744705E+04  0.25500000000E-02 0. -1.
    8880022    1    1    2    0    0 -0.97438182068E+02 -0.29736211047E+03 -0.15600047450E+04  0.15984132386E+04  0.15294330000E+03 0. -1.
    8880022    1    1    2    0    0  0.97438182068E+02  0.29736211047E+03 -0.70893289666E+02  0.35543766767E+03  0.15294330000E+03 0.  0.
<mgrwt>
<rscale>  0 0.34829596E+03</rscale>
<asrwt>0</asrwt>
<pdfrwt beam="1">  1        2 0.27574991E+00 0.34829596E+03</pdfrwt>
<pdfrwt beam="2">  1       -2 0.24842530E-01 0.34829596E+03</pdfrwt>
<totfact> 0.13614121E+02</totfact>
</mgrwt>
</event>
<event>
 4    1  0.1104584E-007  0.6772496E+03  0.7818608E-02  0.9756949E-01
          2   -1    0    0  501    0  0.00000000000E+00  0.00000000000E+00  0.19991181150E+04  0.19991181150E+04  0.25500000000E-02 0. -1.
         -2   -1    0    0    0  501 -0.00000000000E+00 -0.00000000000E+00 -0.23497263185E+03  0.23497263186E+03  0.25500000000E-02 0.  1.
    8880022    1    1    2    0    0  0.31242897754E+03  0.58108815411E+03  0.71058305780E+03  0.98162887279E+03  0.15294330000E+03 0.  0.
    8880022    1    1    2    0    0 -0.31242897754E+03 -0.58108815411E+03  0.10535624253E+04  0.12524618740E+04  0.15294330000E+03 0.  0.
<mgrwt>
<rscale>  0 0.67724956E+03</rscale>
<asrwt>0</asrwt>
<pdfrwt beam="1">  1        2 0.30755663E+00 0.67724956E+03</pdfrwt>
<pdfrwt beam="2">  1       -2 0.36149636E-01 0.67724956E+03</pdfrwt>
<totfact> 0.50055509E+01</totfact>
</mgrwt>
</event>
<event>
 4    1  0.1104584E-007  0.4693047E+03  0.7818608E-02  0.1022117E+00
         -2   -1    0    0    0  501 -0.00000000000E+00  0.00000000000E+00  0.52677616590E+03  0.52677616591E+03  0.25500000000E-02 0.  1.
          2   -1    0    0  501    0  0.00000000000E+00 -0.00000000000E+00 -0.13986826668E+04  0.13986826668E+04  0.25500000000E-02 0. -1.
    8880022    1    1    2    0    0 -0.44263044525E+03 -0.30553294066E+02 -0.12420478558E+04  0.13277536458E+04  0.15294330000E+03 0.  0.
    8880022    1    1    2    0    0  0.44263044525E+03  0.30553294066E+02  0.37014135490E+03  0.59770518691E+03  0.15294330000E+03 0.  0.
<mgrwt>
<rscale>  0 0.46930466E+03</rscale>
<asrwt>0</asrwt>
<pdfrwt beam="1">  1        2 0.21518195E+00 0.46930466E+03</pdfrwt>
<pdfrwt beam="2">  1       -2 0.81042487E-01 0.46930466E+03</pdfrwt>
<totfact> 0.20748735E+01</totfact>
</mgrwt>
</event>
<event>
 4    1  0.1104584E-007  0.7486867E+03  0.7818608E-02  0.9637413E-01
         -2   -1    0    0    0  501 -0.00000000000E+00  0.00000000000E+00  0.11097361118E+04  0.11097361118E+04  0.25500000000E-02 0.  1.
          2   -1    0    0  501    0  0.00000000000E+00 -0.00000000000E+00 -0.13642134098E+04  0.13642134098E+04  0.25500000000E-02 0. -1.
    8880022    1    1    2    0    0 -0.21875932536E+03 -0.69948873868E+03  0.85438271265E+03  0.11360024695E+04  0.15294330000E+03 0.  0.
    8880022    1    1    2    0    0  0.21875932536E+03  0.69948873868E+03 -0.11088600107E+04  0.13379470521E+04  0.15294330000E+03 0.  0.
<mgrwt>
<rscale>  0 0.74868671E+03</rscale>
<asrwt>0</asrwt>
<pdfrwt beam="1">  1        2 0.20987899E+00 0.74868671E+03</pdfrwt>
<pdfrwt beam="2">  1       -2 0.17072863E+00 0.74868671E+03</pdfrwt>
<totfact> 0.32789156E+00</totfact>
</mgrwt>
</event>
<event>
 4    1  0.1104584E-007  0.4860505E+03  0.7818608E-02  0.1017485E+00
          2   -1    0    0  501    0  0.00000000000E+00  0.00000000000E+00  0.16075292724E+04  0.16075292724E+04  0.25500000000E-02 0. -1.
         -2   -1    0    0    0  501 -0.00000000000E+00 -0.00000000000E+00 -0.38990404672E+03  0.38990404673E+03  0.25500000000E-02 0.  1.
    8880022    1    1    2    0    0  0.44316526229E+03  0.12828870261E+03 -0.17953019975E+03  0.51814687739E+03  0.15294330000E+03 0.  0.
    8880022    1    1    2    0    0 -0.44316526229E+03 -0.12828870261E+03  0.13971554254E+04  0.14792864417E+04  0.15294330000E+03 0.  0.
<mgrwt>
<rscale>  0 0.48605051E+03</rscale>
<asrwt>0</asrwt>
<pdfrwt beam="1">  1        2 0.24731219E+00 0.48605051E+03</pdfrwt>
<pdfrwt beam="2">  1       -2 0.59985239E-01 0.48605051E+03</pdfrwt>
<totfact> 0.30499363E+01</totfact>
</mgrwt>
</event>
<event>
 4    1  0.1104584E-007  0.1955263E+04  0.7818608E-02  0.8627827E-01
         -2   -1    0    0    0  501 -0.00000000000E+00  0.00000000000E+00  0.13518153946E+04  0.13518153946E+04  0.25500000000E-02 0.  1.
          2   -1    0    0  501    0  0.00000000000E+00 -0.00000000000E+00 -0.35131586129E+04  0.35131586129E+04  0.25500000000E-02 0. -1.
    8880022    1    1    2    0    0  0.12808511551E+04 -0.14693820288E+04 -0.65119124159E+01  0.19552742227E+04  0.15294330000E+03 0.  0.
    8880022    1    1    2    0    0 -0.12808511551E+04  0.14693820288E+04 -0.21548313059E+04  0.29096997848E+04  0.15294330000E+03 0.  0.
<mgrwt>
<rscale>  0 0.19552634E+04</rscale>
<asrwt>0</asrwt>
<pdfrwt beam="1">  1        2 0.54048594E+00 0.19552634E+04</pdfrwt>
<pdfrwt beam="2">  1       -2 0.20797160E+00 0.19552634E+04</pdfrwt>
<totfact> 0.84259736E-02</totfact>
</mgrwt>
</event>
<event>
 4    1  0.1104584E-007  0.1574088E+03  0.7818608E-02  0.1191654E+00
         -2   -1    0    0    0  501 -0.00000000000E+00  0.00000000000E+00  0.56009177821E+03  0.56009177822E+03  0.25500000000E-02 0.  1.
          2   -1    0    0  501    0  0.00000000000E+00 -0.00000000000E+00 -0.49440797053E+03  0.49440797054E+03  0.25500000000E-02 0. -1.
    8880022    1    1    2    0    0  0.36201684662E+02  0.86788212477E+01  0.53595062330E+03  0.55858804815E+03  0.15294330000E+03 0.  1.
    8880022    1    1    2    0    0 -0.36201684662E+02 -0.86788212477E+01 -0.47026681562E+03  0.49591170061E+03  0.15294330000E+03 0.  0.
<mgrwt>
<rscale>  0 0.15740882E+03</rscale>
<asrwt>0</asrwt>
<pdfrwt beam="1">  1        2 0.76062766E-01 0.15740882E+03</pdfrwt>
<pdfrwt beam="2">  1       -2 0.86167965E-01 0.15740882E+03</pdfrwt>
<totfact> 0.78600399E+01</totfact>
</mgrwt>
</event>
<event>
 4    1  0.1104584E-007  0.6000352E+03  0.7818608E-02  0.9905333E-01
          2   -1    0    0  501    0  0.00000000000E+00  0.00000000000E+00  0.15189793449E+04  0.15189793449E+04  0.25500000000E-02 0. -1.
         -2   -1    0    0    0  501 -0.00000000000E+00 -0.00000000000E+00 -0.33662382179E+03  0.33662382180E+03  0.25500000000E-02 0.  1.
    8880022    1    1    2    0    0  0.54620399310E+03 -0.19573388543E+03  0.86515315593E+02  0.60624014122E+03  0.15294330000E+03 0.  0.
    8880022    1    1    2    0    0 -0.54620399310E+03  0.19573388543E+03  0.10958402075E+04  0.12493630255E+04  0.15294330000E+03 0.  0.
<mgrwt>
<rscale>  0 0.60003517E+03</rscale>
<asrwt>0</asrwt>
<pdfrwt beam="1">  1        2 0.23368913E+00 0.60003517E+03</pdfrwt>
<pdfrwt beam="2">  1       -2 0.51788281E-01 0.60003517E+03</pdfrwt>
<totfact> 0.45395646E+01</totfact>
</mgrwt>
</event>
<event>
 4    1  0.1104584E-007  0.4836975E+03  0.7818608E-02  0.1018124E+00
          2   -1    0    0  501    0  0.00000000000E+00  0.00000000000E+00  0.34744594574E+04  0.34744594574E+04  0.25500000000E-02 0. -1.
         -2   -1    0    0    0  501 -0.00000000000E+00 -0.00000000000E+00 -0.11228966845E+03  0.11228966848E+03  0.25500000000E-02 0.  1.
    8880022    1    1    2    0    0  0.30561244612E+02 -0.45786206877E+03  0.54640389323E+03  0.72974004361E+03  0.15294330000E+03 0.  0.
    8880022    1    1    2    0    0 -0.30561244612E+02  0.45786206877E+03  0.28157658957E+04  0.28570090823E+04  0.15294330000E+03 0.  0.
<mgrwt>
<rscale>  0 0.48369755E+03</rscale>
<asrwt>0</asrwt>
<pdfrwt beam="1">  1        2 0.53453219E+00 0.48369755E+03</pdfrwt>
<pdfrwt beam="2">  1       -2 0.17275335E-01 0.48369755E+03</pdfrwt>
<totfact> 0.26531452E+01</totfact>
</mgrwt>
</event>
<event>
 4    1  0.1104584E-007  0.5872906E+03  0.7818608E-02  0.9932130E-01
         -2   -1    0    0    0  501 -0.00000000000E+00  0.00000000000E+00  0.21034551698E+03  0.21034551699E+03  0.25500000000E-02 0.  1.
          2   -1    0    0  501    0  0.00000000000E+00 -0.00000000000E+00 -0.31665868089E+04  0.31665868089E+04  0.25500000000E-02 0. -1.
    8880022    1    1    2    0    0  0.51779701791E+03  0.23109498343E+03 -0.26505738535E+04  0.27148576481E+04  0.15294330000E+03 0. -1.
    8880022    1    1    2    0    0 -0.51779701791E+03 -0.23109498343E+03 -0.30566743838E+03  0.66207467783E+03  0.15294330000E+03 0.  0.
<mgrwt>
<rscale>  0 0.58729064E+03</rscale>
<asrwt>0</asrwt>
<pdfrwt beam="1">  1        2 0.48716717E+00 0.58729064E+03</pdfrwt>
<pdfrwt beam="2">  1       -2 0.32360851E-01 0.58729064E+03</pdfrwt>
<totfact> 0.13366961E+01</totfact>
</mgrwt>
</event>
<event>
 4    1  0.1104584E-007  0.2883737E+03  0.7818608E-02  0.1091201E+00
         -2   -1    0    0    0  501 -0.00000000000E+00  0.00000000000E+00  0.24607328930E+03  0.24607328932E+03  0.25500000000E-02 0.  1.
          2   -1    0    0  501    0  0.00000000000E+00 -0.00000000000E+00 -0.14070480870E+04  0.14070480870E+04  0.25500000000E-02 0. -1.
    8880022    1    1    2    0    0 -0.20030454323E+03  0.14016363938E+03  0.14000586799E+03  0.32056364724E+03  0.15294330000E+03 0.  0.
    8880022    1    1    2    0    0  0.20030454323E+03 -0.14016363938E+03 -0.13009806657E+04  0.13325577291E+04  0.15294330000E+03 0.  0.
<mgrwt>
<rscale>  0 0.28837373E+03</rscale>
<asrwt>0</asrwt>
<pdfrwt beam="1">  1        2 0.21646893E+00 0.28837373E+03</pdfrwt>
<pdfrwt beam="2">  1       -2 0.37857430E-01 0.28837373E+03</pdfrwt>
<totfact> 0.10229331E+02</totfact>
</mgrwt>
</event>
<event>
 4    1  0.1104584E-007  0.4631083E+03  0.7818608E-02  0.1023884E+00
          2   -1    0    0  501    0  0.00000000000E+00  0.00000000000E+00  0.14860675360E+04  0.14860675360E+04  0.25500000000E-02 0. -1.
         -2   -1    0    0    0  501 -0.00000000000E+00 -0.00000000000E+00 -0.76074180917E+03  0.76074180918E+03  0.25500000000E-02 0.  1.
    8880022    1    1    2    0    0 -0.19409782948E+03 -0.39166785058E+03 -0.64858255579E+03  0.79694959519E+03  0.15294330000E+03 0.  1.
    8880022    1    1    2    0    0  0.19409782948E+03  0.39166785058E+03  0.13739082826E+04  0.14498597500E+04  0.15294330000E+03 0.  0.
<mgrwt>
<rscale>  0 0.46310833E+03</rscale>
<asrwt>0</asrwt>
<pdfrwt beam="1">  1        2 0.22862577E+00 0.46310833E+03</pdfrwt>
<pdfrwt beam="2">  1       -2 0.11703720E+00 0.46310833E+03</pdfrwt>
<totfact> 0.78781023E+00</totfact>
</mgrwt>
</event>
<event>
 4    1  0.1104584E-007  0.1198557E+04  0.7818608E-02  0.9114120E-01
          2   -1    0    0  501    0  0.00000000000E+00  0.00000000000E+00  0.20402394302E+04  0.20402394302E+04  0.25500000000E-02 0. -1.
         -2   -1    0    0    0  501 -0.00000000000E+00 -0.00000000000E+00 -0.10431296500E+04  0.10431296500E+04  0.25500000000E-02 0.  1.
    8880022    1    1    2    0    0  0.60883726644E+03 -0.10210116342E+04  0.13774623024E+04  0.18259084374E+04  0.15294330000E+03 0.  0.
    8880022    1    1    2    0    0 -0.60883726644E+03  0.10210116342E+04 -0.38035252219E+03  0.12574606428E+04  0.15294330000E+03 0.  0.
<mgrwt>
<rscale>  0 0.11985571E+04</rscale>
<asrwt>0</asrwt>
<pdfrwt beam="1">  1        2 0.31388298E+00 0.11985571E+04</pdfrwt>
<pdfrwt beam="2">  1       -2 0.16048149E+00 0.11985571E+04</pdfrwt>
<totfact> 0.15424860E+00</totfact>
</mgrwt>
</event>
<event>
 4    1  0.1104584E-007  0.1827230E+03  0.7818608E-02  0.1165193E+00
          2   -1    0    0  501    0  0.00000000000E+00  0.00000000000E+00  0.96356688202E+03  0.96356688202E+03  0.25500000000E-02 0. -1.
         -2   -1    0    0    0  501 -0.00000000000E+00 -0.00000000000E+00 -0.36489266409E+03  0.36489266410E+03  0.25500000000E-02 0.  1.
    8880022    1    1    2    0    0  0.64663704287E+02 -0.76253777871E+02  0.93124284503E+03  0.94899995929E+03  0.15294330000E+03 0. -1.
    8880022    1    1    2    0    0 -0.64663704287E+02  0.76253777871E+02 -0.33256862710E+03  0.37945958683E+03  0.15294330000E+03 0.  0.
<mgrwt>
<rscale>  0 0.18272298E+03</rscale>
<asrwt>0</asrwt>
<pdfrwt beam="1">  1        2 0.14824106E+00 0.18272298E+03</pdfrwt>
<pdfrwt beam="2">  1       -2 0.56137333E-01 0.18272298E+03</pdfrwt>
<totfact> 0.86961376E+01</totfact>
</mgrwt>
</event>
<event>
 4    1  0.1104584E-007  0.9330507E+03  0.7818608E-02  0.9385184E-01
          2   -1    0    0  501    0  0.00000000000E+00  0.00000000000E+00  0.10216352432E+04  0.10216352432E+04  0.25500000000E-02 0. -1.
         -2   -1    0    0    0  501 -0.00000000000E+00 -0.00000000000E+00 -0.96666669492E+03  0.96666669493E+03  0.25500000000E-02 0.  1.
    8880022    1    1    2    0    0 -0.66620629846E+02  0.91801614765E+03 -0.31469498391E+03  0.98469108942E+03  0.15294330000E+03 0.  1.
    8880022    1    1    2    0    0  0.66620629846E+02 -0.91801614765E+03  0.36966353222E+03  0.10036108488E+04  0.15294330000E+03 0.  0.
<mgrwt>
<rscale>  0 0.93305070E+03</rscale>
<asrwt>0</asrwt>
<pdfrwt beam="1">  1        2 0.15717465E+00 0.93305070E+03</pdfrwt>
<pdfrwt beam="2">  1       -2 0.14871795E+00 0.93305070E+03</pdfrwt>
<totfact> 0.74617068E+00</totfact>
</mgrwt>
</event>
<event>
 4    1  0.1104584E-007  0.2209660E+03  0.7818608E-02  0.1133165E+00
         -2   -1    0    0    0  501 -0.00000000000E+00  0.00000000000E+00  0.49582480687E+03  0.49582480688E+03  0.25500000000E-02 0.  1.
          2   -1    0    0  501    0  0.00000000000E+00 -0.00000000000E+00 -0.34506991140E+03  0.34506991141E+03  0.25500000000E-02 0. -1.
    8880022    1    1    2    0    0  0.15158046063E+03  0.49574918851E+02  0.43080478173E+03  0.48416807164E+03  0.15294330000E+03 0.  1.
    8880022    1    1    2    0    0 -0.15158046063E+03 -0.49574918851E+02 -0.28004988625E+03  0.35672664665E+03  0.15294330000E+03 0.  0.
<mgrwt>
<rscale>  0 0.22096597E+03</rscale>
<asrwt>0</asrwt>
<pdfrwt beam="1">  1        2 0.53087678E-01 0.22096597E+03</pdfrwt>
<pdfrwt beam="2">  1       -2 0.76280740E-01 0.22096597E+03</pdfrwt>
<totfact> 0.15048759E+02</totfact>
</mgrwt>
</event>
<event>
 4    1  0.1104584E-007  0.5715870E+03  0.7818608E-02  0.9966173E-01
         -2   -1    0    0    0  501 -0.00000000000E+00  0.00000000000E+00  0.17501988862E+03  0.17501988864E+03  0.25500000000E-02 0.  1.
          2   -1    0    0  501    0  0.00000000000E+00 -0.00000000000E+00 -0.28890280137E+04  0.28890280137E+04  0.25500000000E-02 0. -1.
    8880022    1    1    2    0    0 -0.36627569728E+03 -0.41129328490E+03 -0.22683479508E+04  0.23392550377E+04  0.15294330000E+03 0.  0.
    8880022    1    1    2    0    0  0.36627569728E+03  0.41129328490E+03 -0.44566017425E+03  0.72479286458E+03  0.15294330000E+03 0.  0.
<mgrwt>
<rscale>  0 0.57158701E+03</rscale>
<asrwt>0</asrwt>
<pdfrwt beam="1">  1        2 0.44446581E+00 0.57158701E+03</pdfrwt>
<pdfrwt beam="2">  1       -2 0.26926139E-01 0.57158701E+03</pdfrwt>
<totfact> 0.27814533E+01</totfact>
</mgrwt>
</event>
<event>
 4    1  0.1104584E-007  0.4682463E+03  0.7818608E-02  0.1022416E+00
          2   -1    0    0  501    0  0.00000000000E+00  0.00000000000E+00  0.32976778189E+04  0.32976778189E+04  0.25500000000E-02 0. -1.
         -2   -1    0    0    0  501 -0.00000000000E+00 -0.00000000000E+00 -0.24545963496E+03  0.24545963498E+03  0.25500000000E-02 0.  1.
    8880022    1    1    2    0    0 -0.44067138054E+03 -0.40886339631E+02  0.13382024435E+02  0.46843749849E+03  0.15294330000E+03 0.  0.
    8880022    1    1    2    0    0  0.44067138054E+03  0.40886339631E+02  0.30388361595E+04  0.30746999554E+04  0.15294330000E+03 0.  0.
<mgrwt>
<rscale>  0 0.46824631E+03</rscale>
<asrwt>0</asrwt>
<pdfrwt beam="1">  1        2 0.50733504E+00 0.46824631E+03</pdfrwt>
<pdfrwt beam="2">  1       -2 0.37763021E-01 0.46824631E+03</pdfrwt>
<totfact> 0.85095659E+00</totfact>
</mgrwt>
</event>
<event>
 4    1  0.1104584E-007  0.5670521E+03  0.7818608E-02  0.9976223E-01
          2   -1    0    0  501    0  0.00000000000E+00  0.00000000000E+00  0.54297932692E+03  0.54297932692E+03  0.25500000000E-02 0. -1.
         -2   -1    0    0    0  501 -0.00000000000E+00 -0.00000000000E+00 -0.15766410190E+04  0.15766410190E+04  0.25500000000E-02 0.  1.
    8880022    1    1    2    0    0 -0.33024364072E+03 -0.43485123410E+03  0.32061792379E+03  0.65141688964E+03  0.15294330000E+03 0.  0.
    8880022    1    1    2    0    0  0.33024364072E+03  0.43485123410E+03 -0.13542796158E+04  0.14682034562E+04  0.15294330000E+03 0.  0.
<mgrwt>
<rscale>  0 0.56705212E+03</rscale>
<asrwt>0</asrwt>
<pdfrwt beam="1">  1        2 0.83535282E-01 0.56705212E+03</pdfrwt>
<pdfrwt beam="2">  1       -2 0.24256015E+00 0.56705212E+03</pdfrwt>
<totfact> 0.42208575E+00</totfact>
</mgrwt>
</event>
<event>
 4    1  0.1104584E-007  0.2640444E+03  0.7818608E-02  0.1104737E+00
          2   -1    0    0  501    0  0.00000000000E+00  0.00000000000E+00  0.18637972694E+04  0.18637972694E+04  0.25500000000E-02 0. -1.
         -2   -1    0    0    0  501 -0.00000000000E+00 -0.00000000000E+00 -0.67889595401E+02  0.67889595449E+02  0.25500000000E-02 0.  1.
    8880022    1    1    2    0    0  0.16490191179E+03  0.13832985461E+03  0.15451406327E+04  0.15675391596E+04  0.15294330000E+03 0.  0.
    8880022    1    1    2    0    0 -0.16490191179E+03 -0.13832985461E+03  0.25076704130E+03  0.36414770520E+03  0.15294330000E+03 0.  0.
<mgrwt>
<rscale>  0 0.26404439E+03</rscale>
<asrwt>0</asrwt>
<pdfrwt beam="1">  1        2 0.28673804E+00 0.26404439E+03</pdfrwt>
<pdfrwt beam="2">  1       -2 0.10444553E-01 0.26404439E+03</pdfrwt>
<totfact> 0.54397022E+02</totfact>
</mgrwt>
</event>
<event>
 4    1  0.1104584E-007  0.7874322E+03  0.7818608E-02  0.9578389E-01
          2   -1    0    0  501    0  0.00000000000E+00  0.00000000000E+00  0.30427876792E+04  0.30427876792E+04  0.25500000000E-02 0. -1.
         -2   -1    0    0    0  501 -0.00000000000E+00 -0.00000000000E+00 -0.42841203108E+03  0.42841203108E+03  0.25500000000E-02 0.  1.
    8880022    1    1    2    0    0  0.75315669176E+03 -0.17150174592E+03  0.25639633692E+04  0.26821554136E+04  0.15294330000E+03 0.  0.
    8880022    1    1    2    0    0 -0.75315669176E+03  0.17150174592E+03  0.50412278909E+02  0.78904429665E+03  0.15294330000E+03 0.  0.
<mgrwt>
<rscale>  0 0.78743222E+03</rscale>
<asrwt>0</asrwt>
<pdfrwt beam="1">  1        2 0.46812118E+00 0.78743222E+03</pdfrwt>
<pdfrwt beam="2">  1       -2 0.65909543E-01 0.78743222E+03</pdfrwt>
<totfact> 0.36767867E+00</totfact>
</mgrwt>
</event>
<event>
 4    1  0.1104584E-007  0.1067429E+04  0.7818608E-02  0.9237532E-01
          2   -1    0    0  501    0  0.00000000000E+00  0.00000000000E+00  0.17590886345E+04  0.17590886345E+04  0.25500000000E-02 0. -1.
         -2   -1    0    0    0  501 -0.00000000000E+00 -0.00000000000E+00 -0.75383589351E+03  0.75383589352E+03  0.25500000000E-02 0.  1.
    8880022    1    1    2    0    0  0.50762915838E+03  0.92645858957E+03  0.97402940045E+03  0.14450390329E+04  0.15294330000E+03 0.  0.
    8880022    1    1    2    0    0 -0.50762915838E+03 -0.92645858957E+03  0.31223340503E+02  0.10678854951E+04  0.15294330000E+03 0.  0.
<mgrwt>
<rscale>  0 0.10674289E+04</rscale>
<asrwt>0</asrwt>
<pdfrwt beam="1">  1        2 0.27062902E+00 0.10674289E+04</pdfrwt>
<pdfrwt beam="2">  1       -2 0.11597475E+00 0.10674289E+04</pdfrwt>
<totfact> 0.51937885E+00</totfact>
</mgrwt>
</event>
<event>
 4    1  0.1104584E-007  0.3882632E+03  0.7818608E-02  0.1047921E+00
         -2   -1    0    0    0  501 -0.00000000000E+00  0.00000000000E+00  0.15447939156E+03  0.15447939158E+03  0.25500000000E-02 0.  1.
          2   -1    0    0  501    0  0.00000000000E+00 -0.00000000000E+00 -0.11999291351E+04  0.11999291351E+04  0.25500000000E-02 0. -1.
    8880022    1    1    2    0    0 -0.28377369761E+03 -0.21640045090E+03 -0.23007720243E+03  0.45131345947E+03  0.15294330000E+03 0.  0.
    8880022    1    1    2    0    0  0.28377369761E+03  0.21640045090E+03 -0.81537254108E+03  0.90309506718E+03  0.15294330000E+03 0.  0.
<mgrwt>
<rscale>  0 0.38826321E+03</rscale>
<asrwt>0</asrwt>
<pdfrwt beam="1">  1        2 0.18460448E+00 0.38826321E+03</pdfrwt>
<pdfrwt beam="2">  1       -2 0.23766061E-01 0.38826321E+03</pdfrwt>
<totfact> 0.30866077E+02</totfact>
</mgrwt>
</event>
<event>
 4    1  0.1104584E-007  0.1053413E+04  0.7818608E-02  0.9251828E-01
         -2   -1    0    0    0  501 -0.00000000000E+00  0.00000000000E+00  0.93013775012E+03  0.93013775013E+03  0.25500000000E-02 0.  1.
          2   -1    0    0  501    0  0.00000000000E+00 -0.00000000000E+00 -0.21131183219E+04  0.21131183219E+04  0.25500000000E-02 0. -1.
    8880022    1    1    2    0    0  0.71091913541E+02  0.10398233123E+04  0.41257596466E+03  0.11313253999E+04  0.15294330000E+03 0.  0.
    8880022    1    1    2    0    0 -0.71091913541E+02 -0.10398233123E+04 -0.15955565364E+04  0.19119306721E+04  0.15294330000E+03 0.  0.
<mgrwt>
<rscale>  0 0.10534127E+04</rscale>
<asrwt>0</asrwt>
<pdfrwt beam="1">  1        2 0.32509513E+00 0.10534127E+04</pdfrwt>
<pdfrwt beam="2">  1       -2 0.14309812E+00 0.10534127E+04</pdfrwt>
<totfact> 0.19446447E+00</totfact>
</mgrwt>
</event>
<event>
 4    1  0.1104584E-007  0.4898323E+03  0.7818608E-02  0.1016467E+00
         -2   -1    0    0    0  501 -0.00000000000E+00  0.00000000000E+00  0.66754369937E+03  0.66754369937E+03  0.25500000000E-02 0.  1.
          2   -1    0    0  501    0  0.00000000000E+00 -0.00000000000E+00 -0.40015063626E+03  0.40015063627E+03  0.25500000000E-02 0. -1.
    8880022    1    1    2    0    0 -0.38865092421E+03 -0.25591898887E+03 -0.36601074615E+02  0.49119788419E+03  0.15294330000E+03 0.  0.
    8880022    1    1    2    0    0  0.38865092421E+03  0.25591898887E+03  0.30399413772E+03  0.57649645145E+03  0.15294330000E+03 0.  0.
<mgrwt>
<rscale>  0 0.48983234E+03</rscale>
<asrwt>0</asrwt>
<pdfrwt beam="1">  1        2 0.61561637E-01 0.48983234E+03</pdfrwt>
<pdfrwt beam="2">  1       -2 0.10269903E+00 0.48983234E+03</pdfrwt>
<totfact> 0.63441861E+01</totfact>
</mgrwt>
</event>
<event>
 4    1  0.1104584E-007  0.9866705E+03  0.7818608E-02  0.9323286E-01
          2   -1    0    0  501    0  0.00000000000E+00  0.00000000000E+00  0.24233970015E+04  0.24233970015E+04  0.25500000000E-02 0. -1.
         -2   -1    0    0    0  501 -0.00000000000E+00 -0.00000000000E+00 -0.55273997048E+03  0.55273997048E+03  0.25500000000E-02 0.  1.
    8880022    1    1    2    0    0 -0.86026059036E+03 -0.45834352949E+03  0.15749866032E+03  0.99916192650E+03  0.15294330000E+03 0.  0.
    8880022    1    1    2    0    0  0.86026059036E+03  0.45834352949E+03  0.17131583707E+04  0.19769750455E+04  0.15294330000E+03 0.  0.
<mgrwt>
<rscale>  0 0.98667053E+03</rscale>
<asrwt>0</asrwt>
<pdfrwt beam="1">  1        2 0.37283031E+00 0.98667053E+03</pdfrwt>
<pdfrwt beam="2">  1       -2 0.85036918E-01 0.98667053E+03</pdfrwt>
<totfact> 0.46869518E+00</totfact>
</mgrwt>
</event>
<event>
 4    1  0.1104584E-007  0.2559055E+03  0.7818608E-02  0.1109629E+00
         -2   -1    0    0    0  501 -0.00000000000E+00  0.00000000000E+00  0.12395614535E+03  0.12395614537E+03  0.25500000000E-02 0.  1.
          2   -1    0    0  501    0  0.00000000000E+00 -0.00000000000E+00 -0.83907941412E+03  0.83907941412E+03  0.25500000000E-02 0. -1.
    8880022    1    1    2    0    0 -0.17982397494E+03 -0.98789169328E+02 -0.64520901929E+02  0.26391392866E+03  0.15294330000E+03 0.  0.
    8880022    1    1    2    0    0  0.17982397494E+03  0.98789169328E+02 -0.65060236685E+03  0.69912163083E+03  0.15294330000E+03 0.  0.
<mgrwt>
<rscale>  0 0.25590548E+03</rscale>
<asrwt>0</asrwt>
<pdfrwt beam="1">  1        2 0.12908914E+00 0.25590548E+03</pdfrwt>
<pdfrwt beam="2">  1       -2 0.19070177E-01 0.25590548E+03</pdfrwt>
<totfact> 0.76373359E+02</totfact>
</mgrwt>
</event>
<event>
 4    1  0.1104584E-007  0.2312507E+03  0.7818608E-02  0.1125763E+00
          2   -1    0    0  501    0  0.00000000000E+00  0.00000000000E+00  0.70216780638E+03  0.70216780639E+03  0.25500000000E-02 0. -1.
         -2   -1    0    0    0  501 -0.00000000000E+00 -0.00000000000E+00 -0.10377122729E+04  0.10377122729E+04  0.25500000000E-02 0.  1.
    8880022    1    1    2    0    0 -0.88250019216E+02 -0.14932236887E+03 -0.10051807256E+04  0.10314384034E+04  0.15294330000E+03 0.  0.
    8880022    1    1    2    0    0  0.88250019216E+02  0.14932236887E+03  0.66963625909E+03  0.70844167596E+03  0.15294330000E+03 0. -1.
<mgrwt>
<rscale>  0 0.23125071E+03</rscale>
<asrwt>0</asrwt>
<pdfrwt beam="1">  1        2 0.10802582E+00 0.23125071E+03</pdfrwt>
<pdfrwt beam="2">  1       -2 0.15964804E+00 0.23125071E+03</pdfrwt>
<totfact> 0.11575987E+01</totfact>
</mgrwt>
</event>
<event>
 4    1  0.1104584E-007  0.6344659E+03  0.7818608E-02  0.9836372E-01
         -2   -1    0    0    0  501 -0.00000000000E+00  0.00000000000E+00  0.12082573818E+04  0.12082573818E+04  0.25500000000E-02 0.  1.
          2   -1    0    0  501    0  0.00000000000E+00 -0.00000000000E+00 -0.19586749954E+04  0.19586749954E+04  0.25500000000E-02 0. -1.
    8880022    1    1    2    0    0 -0.50594234029E+03  0.35096680367E+03  0.10673138921E+04  0.12416545197E+04  0.15294330000E+03 0.  0.
    8880022    1    1    2    0    0  0.50594234029E+03 -0.35096680367E+03 -0.18177315057E+04  0.19252778575E+04  0.15294330000E+03 0.  0.
<mgrwt>
<rscale>  0 0.63446592E+03</rscale>
<asrwt>0</asrwt>
<pdfrwt beam="1">  1        2 0.30133461E+00 0.63446592E+03</pdfrwt>
<pdfrwt beam="2">  1       -2 0.18588575E+00 0.63446592E+03</pdfrwt>
<totfact> 0.12420881E+00</totfact>
</mgrwt>
</event>
<event>
 4    1  0.1104584E-007  0.1268530E+04  0.7818608E-02  0.9054901E-01
         -2   -1    0    0    0  501 -0.00000000000E+00  0.00000000000E+00  0.10011479964E+04  0.10011479964E+04  0.25500000000E-02 0.  1.
          2   -1    0    0  501    0  0.00000000000E+00 -0.00000000000E+00 -0.23501669681E+04  0.23501669681E+04  0.25500000000E-02 0. -1.
    8880022    1    1    2    0    0 -0.47495556950E+03 -0.11662730509E+04  0.26756439286E+03  0.12964405036E+04  0.15294330000E+03 0.  0.
    8880022    1    1    2    0    0  0.47495556950E+03  0.11662730509E+04 -0.16165833646E+04  0.20548744608E+04  0.15294330000E+03 0.  0.
<mgrwt>
<rscale>  0 0.12685296E+04</rscale>
<asrwt>0</asrwt>
<pdfrwt beam="1">  1        2 0.36156415E+00 0.12685296E+04</pdfrwt>
<pdfrwt beam="2">  1       -2 0.15402277E+00 0.12685296E+04</pdfrwt>
<totfact> 0.11470234E+00</totfact>
</mgrwt>
</event>
<event>
 4    1  0.1104584E-007  0.4450855E+03  0.7818608E-02  0.1029198E+00
         -2   -1    0    0    0  501 -0.00000000000E+00  0.00000000000E+00  0.94407521997E+02  0.94407522032E+02  0.25500000000E-02 0.  1.
          2   -1    0    0  501    0  0.00000000000E+00 -0.00000000000E+00 -0.26827851173E+04  0.26827851173E+04  0.25500000000E-02 0. -1.
    8880022    1    1    2    0    0  0.28334434313E+03  0.30728723298E+03 -0.19422961221E+04  0.19926402935E+04  0.15294330000E+03 0.  0.
    8880022    1    1    2    0    0 -0.28334434313E+03 -0.30728723298E+03 -0.64608147324E+03  0.78455234587E+03  0.15294330000E+03 0.  0.
<mgrwt>
<rscale>  0 0.44508551E+03</rscale>
<asrwt>0</asrwt>
<pdfrwt beam="1">  1        2 0.41273611E+00 0.44508551E+03</pdfrwt>
<pdfrwt beam="2">  1       -2 0.14524236E-01 0.44508551E+03</pdfrwt>
<totfact> 0.11009686E+02</totfact>
</mgrwt>
</event>
<event>
 4    1  0.1104584E-007  0.7897280E+03  0.7818608E-02  0.9575006E-01
          2   -1    0    0  501    0  0.00000000000E+00  0.00000000000E+00  0.23059645093E+04  0.23059645093E+04  0.25500000000E-02 0. -1.
         -2   -1    0    0    0  501 -0.00000000000E+00 -0.00000000000E+00 -0.37453930078E+03  0.37453930079E+03  0.25500000000E-02 0.  1.
    8880022    1    1    2    0    0 -0.69266522878E+03 -0.34712186669E+03  0.25919881735E+03  0.83117650919E+03  0.15294330000E+03 0.  0.
    8880022    1    1    2    0    0  0.69266522878E+03  0.34712186669E+03  0.16722263911E+04  0.18493273008E+04  0.15294330000E+03 0.  0.
<mgrwt>
<rscale>  0 0.78972803E+03</rscale>
<asrwt>0</asrwt>
<pdfrwt beam="1">  1        2 0.35476377E+00 0.78972803E+03</pdfrwt>
<pdfrwt beam="2">  1       -2 0.57621431E-01 0.78972803E+03</pdfrwt>
<totfact> 0.13148395E+01</totfact>
</mgrwt>
</event>
<event>
 4    1  0.1104584E-007  0.7270558E+03  0.7818608E-02  0.9672050E-01
          2   -1    0    0  501    0  0.00000000000E+00  0.00000000000E+00  0.85461624926E+03  0.85461624926E+03  0.25500000000E-02 0. -1.
         -2   -1    0    0    0  501 -0.00000000000E+00 -0.00000000000E+00 -0.10117601664E+04  0.10117601664E+04  0.25500000000E-02 0.  1.
    8880022    1    1    2    0    0 -0.52010757942E+03 -0.48446527337E+03  0.50319767696E+03  0.88420475592E+03  0.15294330000E+03 0.  0.
    8880022    1    1    2    0    0  0.52010757942E+03  0.48446527337E+03 -0.66034159405E+03  0.98217165970E+03  0.15294330000E+03 0.  0.
<mgrwt>
<rscale>  0 0.72705581E+03</rscale>
<asrwt>0</asrwt>
<pdfrwt beam="1">  1        2 0.13147942E+00 0.72705581E+03</pdfrwt>
<pdfrwt beam="2">  1       -2 0.15565541E+00 0.72705581E+03</pdfrwt>
<totfact> 0.87215803E+00</totfact>
</mgrwt>
</event>
<event>
 4    1  0.1104584E-007  0.3526023E+03  0.7818608E-02  0.1061552E+00
         -2   -1    0    0    0  501 -0.00000000000E+00  0.00000000000E+00  0.20845243222E+03  0.20845243224E+03  0.25500000000E-02 0.  1.
          2   -1    0    0  501    0  0.00000000000E+00 -0.00000000000E+00 -0.70732397705E+03  0.70732397706E+03  0.25500000000E-02 0. -1.
    8880022    1    1    2    0    0  0.45687992644E+02  0.31440317943E+03 -0.68137478557E+02  0.35912549465E+03  0.15294330000E+03 0.  0.
    8880022    1    1    2    0    0 -0.45687992644E+02 -0.31440317943E+03 -0.43073406628E+03  0.55665091464E+03  0.15294330000E+03 0.  0.
<mgrwt>
<rscale>  0 0.35260233E+03</rscale>
<asrwt>0</asrwt>
<pdfrwt beam="1">  1        2 0.10881907E+00 0.35260233E+03</pdfrwt>
<pdfrwt beam="2">  1       -2 0.32069605E-01 0.35260233E+03</pdfrwt>
<totfact> 0.37497308E+02</totfact>
</mgrwt>
</event>
<event>
 4    1  0.1104584E-007  0.4205386E+03  0.7818608E-02  0.1036891E+00
          2   -1    0    0  501    0  0.00000000000E+00  0.00000000000E+00  0.12063131930E+04  0.12063131930E+04  0.25500000000E-02 0. -1.
         -2   -1    0    0    0  501 -0.00000000000E+00 -0.00000000000E+00 -0.46702030203E+03  0.46702030204E+03  0.25500000000E-02 0.  1.
    8880022    1    1    2    0    0 -0.32370855598E+03 -0.22062150267E+03  0.10626581787E+04  0.11428451926E+04  0.15294330000E+03 0.  0.
    8880022    1    1    2    0    0  0.32370855598E+03  0.22062150267E+03 -0.32336528771E+03  0.53048830239E+03  0.15294330000E+03 0.  0.
<mgrwt>
<rscale>  0 0.42053862E+03</rscale>
<asrwt>0</asrwt>
<pdfrwt beam="1">  1        2 0.18558664E+00 0.42053862E+03</pdfrwt>
<pdfrwt beam="2">  1       -2 0.71849278E-01 0.42053862E+03</pdfrwt>
<totfact> 0.35105302E+01</totfact>
</mgrwt>
</event>
<event>
 4    1  0.1104584E-007  0.6147125E+03  0.7818608E-02  0.9875344E-01
          2   -1    0    0  501    0  0.00000000000E+00  0.00000000000E+00  0.35093093992E+03  0.35093093993E+03  0.25500000000E-02 0. -1.
         -2   -1    0    0    0  501 -0.00000000000E+00 -0.00000000000E+00 -0.12522210884E+04  0.12522210884E+04  0.25500000000E-02 0.  1.
    8880022    1    1    2    0    0  0.31228684591E+03 -0.50690902966E+03 -0.75068821946E+03  0.97025991071E+03  0.15294330000E+03 0.  0.
    8880022    1    1    2    0    0 -0.31228684591E+03  0.50690902966E+03 -0.15060192898E+03  0.63289211759E+03  0.15294330000E+03 0.  0.
<mgrwt>
<rscale>  0 0.61471253E+03</rscale>
<asrwt>0</asrwt>
<pdfrwt beam="1">  1        2 0.53989376E-01 0.61471253E+03</pdfrwt>
<pdfrwt beam="2">  1       -2 0.19264940E+00 0.61471253E+03</pdfrwt>
<totfact> 0.14136094E+01</totfact>
</mgrwt>
</event>
<event>
 4    1  0.1104584E-007  0.1027878E+04  0.7818608E-02  0.9278486E-01
          2   -1    0    0  501    0  0.00000000000E+00  0.00000000000E+00  0.83503249906E+03  0.83503249906E+03  0.25500000000E-02 0. -1.
         -2   -1    0    0    0  501 -0.00000000000E+00 -0.00000000000E+00 -0.13546951537E+04  0.13546951537E+04  0.25500000000E-02 0.  1.
    8880022    1    1    2    0    0 -0.97091756594E+03  0.30076729116E+03 -0.54114609242E+03  0.11616249953E+04  0.15294330000E+03 0.  0.
    8880022    1    1    2    0    0  0.97091756594E+03 -0.30076729116E+03  0.21483437753E+02  0.10281026575E+04  0.15294330000E+03 0.  0.
<mgrwt>
<rscale>  0 0.10278782E+04</rscale>
<asrwt>0</asrwt>
<pdfrwt beam="1">  1        2 0.12846654E+00 0.10278782E+04</pdfrwt>
<pdfrwt beam="2">  1       -2 0.20841464E+00 0.10278782E+04</pdfrwt>
<totfact> 0.37753595E+00</totfact>
</mgrwt>
</event>
<event>
 4    1  0.1104584E-007  0.8162414E+03  0.7818608E-02  0.9536801E-01
          2   -1    0    0  501    0  0.00000000000E+00  0.00000000000E+00  0.13697013702E+04  0.13697013702E+04  0.25500000000E-02 0. -1.
         -2   -1    0    0    0  501 -0.00000000000E+00 -0.00000000000E+00 -0.60912102886E+03  0.60912102886E+03  0.25500000000E-02 0.  1.
    8880022    1    1    2    0    0  0.39268447911E+03 -0.69904026293E+03  0.82435794145E+03  0.11600931247E+04  0.15294330000E+03 0.  0.
    8880022    1    1    2    0    0 -0.39268447911E+03  0.69904026293E+03 -0.63777600146E+02  0.81872927432E+03  0.15294330000E+03 0.  0.
<mgrwt>
<rscale>  0 0.81624141E+03</rscale>
<asrwt>0</asrwt>
<pdfrwt beam="1">  1        2 0.21072329E+00 0.81624141E+03</pdfrwt>
<pdfrwt beam="2">  1       -2 0.93710928E-01 0.81624141E+03</pdfrwt>
<totfact> 0.14697027E+01</totfact>
</mgrwt>
</event>
<event>
 4    1  0.1104584E-007  0.2591873E+03  0.7818608E-02  0.1107632E+00
         -2   -1    0    0    0  501 -0.00000000000E+00  0.00000000000E+00  0.57721209470E+02  0.57721209526E+02  0.25500000000E-02 0.  1.
          2   -1    0    0  501    0  0.00000000000E+00 -0.00000000000E+00 -0.18149219356E+04  0.18149219356E+04  0.25500000000E-02 0. -1.
    8880022    1    1    2    0    0 -0.20924963216E+03  0.10033537210E+01 -0.31779140553E+03  0.41008468116E+03  0.15294330000E+03 0.  0.
    8880022    1    1    2    0    0  0.20924963216E+03 -0.10033537210E+01 -0.14394093206E+04  0.14625584640E+04  0.15294330000E+03 0.  0.
<mgrwt>
<rscale>  0 0.25918732E+03</rscale>
<asrwt>0</asrwt>
<pdfrwt beam="1">  1        2 0.27921872E+00 0.25918732E+03</pdfrwt>
<pdfrwt beam="2">  1       -2 0.88801875E-02 0.25918732E+03</pdfrwt>
<totfact> 0.74749499E+02</totfact>
</mgrwt>
</event>
<event>
 4    1  0.1104584E-007  0.2774504E+03  0.7818608E-02  0.1097090E+00
          2   -1    0    0  501    0  0.00000000000E+00  0.00000000000E+00  0.33171196363E+03  0.33171196364E+03  0.25500000000E-02 0. -1.
         -2   -1    0    0    0  501 -0.00000000000E+00 -0.00000000000E+00 -0.43816041713E+03  0.43816041713E+03  0.25500000000E-02 0.  1.
    8880022    1    1    2    0    0  0.23097909333E+03  0.15353179007E+02  0.21077728327E+03  0.34843331904E+03  0.15294330000E+03 0.  0.
    8880022    1    1    2    0    0 -0.23097909333E+03 -0.15353179007E+02 -0.31722573677E+03  0.42143906172E+03  0.15294330000E+03 0.  1.
<mgrwt>
<rscale>  0 0.27745038E+03</rscale>
<asrwt>0</asrwt>
<pdfrwt beam="1">  1        2 0.51032610E-01 0.27745038E+03</pdfrwt>
<pdfrwt beam="2">  1       -2 0.67409295E-01 0.27745038E+03</pdfrwt>
<totfact> 0.20414836E+02</totfact>
</mgrwt>
</event>
<event>
 4    1  0.1104584E-007  0.4648079E+03  0.7818608E-02  0.1023396E+00
         -2   -1    0    0    0  501 -0.00000000000E+00  0.00000000000E+00  0.84387688672E+03  0.84387688673E+03  0.25500000000E-02 0.  1.
          2   -1    0    0  501    0  0.00000000000E+00 -0.00000000000E+00 -0.43444182596E+03  0.43444182597E+03  0.25500000000E-02 0. -1.
    8880022    1    1    2    0    0 -0.22775947553E+03 -0.37520702710E+03  0.61432859027E+03  0.77035443902E+03  0.15294330000E+03 0.  0.
    8880022    1    1    2    0    0  0.22775947553E+03  0.37520702710E+03 -0.20489352951E+03  0.50796427367E+03  0.15294330000E+03 0.  0.
<mgrwt>
<rscale>  0 0.46480786E+03</rscale>
<asrwt>0</asrwt>
<pdfrwt beam="1">  1        2 0.66837204E-01 0.46480786E+03</pdfrwt>
<pdfrwt beam="2">  1       -2 0.12982721E+00 0.46480786E+03</pdfrwt>
<totfact> 0.32778213E+01</totfact>
</mgrwt>
</event>
<event>
 4    1  0.1104584E-007  0.1075266E+04  0.7818608E-02  0.9229640E-01
          2   -1    0    0  501    0  0.00000000000E+00  0.00000000000E+00  0.35098588329E+04  0.35098588329E+04  0.25500000000E-02 0. -1.
         -2   -1    0    0    0  501 -0.00000000000E+00 -0.00000000000E+00 -0.36419896803E+03  0.36419896804E+03  0.25500000000E-02 0.  1.
    8880022    1    1    2    0    0 -0.51612033569E+03 -0.93081962888E+03  0.21714645696E+04  0.24231086258E+04  0.15294330000E+03 0.  0.
    8880022    1    1    2    0    0  0.51612033569E+03  0.93081962888E+03  0.97419529523E+03  0.14509491751E+04  0.15294330000E+03 0.  0.
<mgrwt>
<rscale>  0 0.10752660E+04</rscale>
<asrwt>0</asrwt>
<pdfrwt beam="1">  1        2 0.53997826E+00 0.10752660E+04</pdfrwt>
<pdfrwt beam="2">  1       -2 0.56030613E-01 0.10752660E+04</pdfrwt>
<totfact> 0.24533281E+00</totfact>
</mgrwt>
</event>
<event>
 4    1  0.1104584E-007  0.1120617E+04  0.7818608E-02  0.9185327E-01
          2   -1    0    0  501    0  0.00000000000E+00  0.00000000000E+00  0.29759324175E+04  0.29759324175E+04  0.25500000000E-02 0. -1.
         -2   -1    0    0    0  501 -0.00000000000E+00 -0.00000000000E+00 -0.96822542021E+03  0.96822542021E+03  0.25500000000E-02 0.  1.
    8880022    1    1    2    0    0 -0.82512829156E+03  0.74266623638E+03  0.24851100527E+04  0.27260875743E+04  0.15294330000E+03 0.  0.
    8880022    1    1    2    0    0  0.82512829156E+03 -0.74266623638E+03 -0.47740305536E+03  0.12180702634E+04  0.15294330000E+03 0.  0.
<mgrwt>
<rscale>  0 0.11206166E+04</rscale>
<asrwt>0</asrwt>
<pdfrwt beam="1">  1        2 0.45783577E+00 0.11206166E+04</pdfrwt>
<pdfrwt beam="2">  1       -2 0.14895775E+00 0.11206166E+04</pdfrwt>
<totfact> 0.54813077E-01</totfact>
</mgrwt>
</event>
<event>
 4    1  0.1104584E-007  0.4316576E+03  0.7818608E-02  0.1033338E+00
          2   -1    0    0  501    0  0.00000000000E+00  0.00000000000E+00  0.31898432133E+04  0.31898432133E+04  0.25500000000E-02 0. -1.
         -2   -1    0    0    0  501 -0.00000000000E+00 -0.00000000000E+00 -0.27333450381E+03  0.27333450382E+03  0.25500000000E-02 0.  1.
    8880022    1    1    2    0    0 -0.38791799516E+03 -0.11160754066E+03 -0.77202096762E+02  0.43850704767E+03  0.15294330000E+03 0.  0.
    8880022    1    1    2    0    0  0.38791799516E+03  0.11160754066E+03  0.29937108063E+04  0.30246706695E+04  0.15294330000E+03 0.  0.
<mgrwt>
<rscale>  0 0.43165758E+03</rscale>
<asrwt>0</asrwt>
<pdfrwt beam="1">  1        2 0.49074511E+00 0.43165758E+03</pdfrwt>
<pdfrwt beam="2">  1       -2 0.42051462E-01 0.43165758E+03</pdfrwt>
<totfact> 0.81865302E+00</totfact>
</mgrwt>
</event>
<event>
 4    1  0.1104584E-007  0.2076328E+03  0.7818608E-02  0.1143454E+00
          2   -1    0    0  501    0  0.00000000000E+00  0.00000000000E+00  0.10898840829E+04  0.10898840829E+04  0.25500000000E-02 0. -1.
         -2   -1    0    0    0  501 -0.00000000000E+00 -0.00000000000E+00 -0.11384538860E+04  0.11384538860E+04  0.25500000000E-02 0.  1.
    8880022    1    1    2    0    0 -0.13905043039E+03  0.19613536191E+02 -0.11189267008E+04  0.11380282632E+04  0.15294330000E+03 0.  0.
    8880022    1    1    2    0    0  0.13905043039E+03 -0.19613536191E+02  0.10703568977E+04  0.10903097057E+04  0.15294330000E+03 0. -1.
<mgrwt>
<rscale>  0 0.20763277E+03</rscale>
<asrwt>0</asrwt>
<pdfrwt beam="1">  1        2 0.16767447E+00 0.20763277E+03</pdfrwt>
<pdfrwt beam="2">  1       -2 0.17514675E+00 0.20763277E+03</pdfrwt>
<totfact> 0.50957572E+00</totfact>
</mgrwt>
</event>
<event>
 4    1  0.1104584E-007  0.5002840E+03  0.7818608E-02  0.1013705E+00
         -2   -1    0    0    0  501 -0.00000000000E+00  0.00000000000E+00  0.95667437826E+03  0.95667437826E+03  0.25500000000E-02 0.  1.
          2   -1    0    0  501    0  0.00000000000E+00 -0.00000000000E+00 -0.53485292530E+03  0.53485292531E+03  0.25500000000E-02 0. -1.
    8880022    1    1    2    0    0  0.38522656357E+03  0.28016579697E+03 -0.32211904902E+03  0.59501656601E+03  0.15294330000E+03 0.  0.
    8880022    1    1    2    0    0 -0.38522656357E+03 -0.28016579697E+03  0.74394050198E+03  0.89651073756E+03  0.15294330000E+03 0.  0.
<mgrwt>
<rscale>  0 0.50028395E+03</rscale>
<asrwt>0</asrwt>
<pdfrwt beam="1">  1        2 0.82285065E-01 0.50028395E+03</pdfrwt>
<pdfrwt beam="2">  1       -2 0.14718067E+00 0.50028395E+03</pdfrwt>
<totfact> 0.18677114E+01</totfact>
</mgrwt>
</event>
<event>
 4    1  0.1104584E-007  0.8304055E+03  0.7818608E-02  0.9517020E-01
          2   -1    0    0  501    0  0.00000000000E+00  0.00000000000E+00  0.30870804133E+04  0.30870804133E+04  0.25500000000E-02 0. -1.
         -2   -1    0    0    0  501 -0.00000000000E+00 -0.00000000000E+00 -0.27015892872E+03  0.27015892873E+03  0.25500000000E-02 0.  1.
    8880022    1    1    2    0    0  0.58884473734E+03  0.56519334877E+03  0.70991325677E+03  0.10924971997E+04  0.15294330000E+03 0.  0.
    8880022    1    1    2    0    0 -0.58884473734E+03 -0.56519334877E+03  0.21070082278E+04  0.22647421423E+04  0.15294330000E+03 0.  0.
<mgrwt>
<rscale>  0 0.83040550E+03</rscale>
<asrwt>0</asrwt>
<pdfrwt beam="1">  1        2 0.47493544E+00 0.83040550E+03</pdfrwt>
<pdfrwt beam="2">  1       -2 0.41562913E-01 0.83040550E+03</pdfrwt>
<totfact> 0.88465275E+00</totfact>
</mgrwt>
</event>
<event>
 4    1  0.1104584E-007  0.6026161E+03  0.7818608E-02  0.9899993E-01
          2   -1    0    0  501    0  0.00000000000E+00  0.00000000000E+00  0.15053611071E+04  0.15053611071E+04  0.25500000000E-02 0. -1.
         -2   -1    0    0    0  501 -0.00000000000E+00 -0.00000000000E+00 -0.36980390483E+03  0.36980390484E+03  0.25500000000E-02 0.  1.
    8880022    1    1    2    0    0  0.52313672676E+03  0.25706502893E+03  0.11206082807E+04  0.12723635627E+04  0.15294330000E+03 0.  0.
    8880022    1    1    2    0    0 -0.52313672676E+03 -0.25706502893E+03  0.14948921648E+02  0.60280144928E+03  0.15294330000E+03 0.  0.
<mgrwt>
<rscale>  0 0.60261606E+03</rscale>
<asrwt>0</asrwt>
<pdfrwt beam="1">  1        2 0.23159402E+00 0.60261606E+03</pdfrwt>
<pdfrwt beam="2">  1       -2 0.56892908E-01 0.60261606E+03</pdfrwt>
<totfact> 0.38032687E+01</totfact>
</mgrwt>
</event>
<event>
 4    1  0.1104584E-007  0.8817932E+03  0.7818608E-02  0.9448631E-01
         -2   -1    0    0    0  501 -0.00000000000E+00  0.00000000000E+00  0.61853728647E+03  0.61853728647E+03  0.25500000000E-02 0.  1.
          2   -1    0    0  501    0  0.00000000000E+00 -0.00000000000E+00 -0.20016438333E+04  0.20016438333E+04  0.25500000000E-02 0. -1.
    8880022    1    1    2    0    0  0.57493689920E+03 -0.65085720727E+03  0.10746175940E+03  0.88831707463E+03  0.15294330000E+03 0.  0.
    8880022    1    1    2    0    0 -0.57493689920E+03  0.65085720727E+03 -0.14905683063E+04  0.17318640452E+04  0.15294330000E+03 0.  0.
<mgrwt>
<rscale>  0 0.88179317E+03</rscale>
<asrwt>0</asrwt>
<pdfrwt beam="1">  1        2 0.30794520E+00 0.88179317E+03</pdfrwt>
<pdfrwt beam="2">  1       -2 0.95159583E-01 0.88179317E+03</pdfrwt>
<totfact> 0.62883673E+00</totfact>
</mgrwt>
</event>
<event>
 4    1  0.1104584E-007  0.7917422E+03  0.7818608E-02  0.9572047E-01
         -2   -1    0    0    0  501 -0.00000000000E+00  0.00000000000E+00  0.44520820966E+03  0.44520820967E+03  0.25500000000E-02 0.  1.
          2   -1    0    0  501    0  0.00000000000E+00 -0.00000000000E+00 -0.17197110849E+04  0.17197110849E+04  0.25500000000E-02 0. -1.
    8880022    1    1    2    0    0  0.77628378472E+03  0.29112855823E+02 -0.10980977082E+04  0.13537630157E+04  0.15294330000E+03 0.  0.
    8880022    1    1    2    0    0 -0.77628378472E+03 -0.29112855823E+02 -0.17640516700E+03  0.81115627887E+03  0.15294330000E+03 0.  0.
<mgrwt>
<rscale>  0 0.79174221E+03</rscale>
<asrwt>0</asrwt>
<pdfrwt beam="1">  1        2 0.26457093E+00 0.79174221E+03</pdfrwt>
<pdfrwt beam="2">  1       -2 0.68493572E-01 0.79174221E+03</pdfrwt>
<totfact> 0.19064569E+01</totfact>
</mgrwt>
</event>
<event>
 4    1  0.1104584E-007  0.1709655E+03  0.7818608E-02  0.1176845E+00
          2   -1    0    0  501    0  0.00000000000E+00  0.00000000000E+00  0.19461234411E+03  0.19461234413E+03  0.25500000000E-02 0. -1.
         -2   -1    0    0    0  501 -0.00000000000E+00 -0.00000000000E+00 -0.45442475480E+03  0.45442475481E+03  0.25500000000E-02 0.  1.
    8880022    1    1    2    0    0 -0.23712988573E+02 -0.72630913600E+02 -0.39543495617E+03  0.43081087848E+03  0.15294330000E+03 0.  0.
    8880022    1    1    2    0    0  0.23712988573E+02  0.72630913600E+02  0.13562254548E+03  0.21822622046E+03  0.15294330000E+03 0. -1.
<mgrwt>
<rscale>  0 0.17096552E+03</rscale>
<asrwt>0</asrwt>
<pdfrwt beam="1">  1        2 0.29940361E-01 0.17096552E+03</pdfrwt>
<pdfrwt beam="2">  1       -2 0.69911500E-01 0.17096552E+03</pdfrwt>
<totfact> 0.33769209E+02</totfact>
</mgrwt>
</event>
<event>
 4    1  0.1104584E-007  0.5864077E+03  0.7818608E-02  0.9934014E-01
          2   -1    0    0  501    0  0.00000000000E+00  0.00000000000E+00  0.10184701290E+04  0.10184701290E+04  0.25500000000E-02 0. -1.
         -2   -1    0    0    0  501 -0.00000000000E+00 -0.00000000000E+00 -0.51855739474E+03  0.51855739475E+03  0.25500000000E-02 0.  1.
    8880022    1    1    2    0    0 -0.52309015052E+03 -0.21646943102E+03  0.70389389056E+03  0.91615532653E+03  0.15294330000E+03 0.  0.
    8880022    1    1    2    0    0  0.52309015052E+03  0.21646943102E+03 -0.20398115630E+03  0.62087219722E+03  0.15294330000E+03 0.  0.
<mgrwt>
<rscale>  0 0.58640769E+03</rscale>
<asrwt>0</asrwt>
<pdfrwt beam="1">  1        2 0.15668771E+00 0.58640769E+03</pdfrwt>
<pdfrwt beam="2">  1       -2 0.79778061E-01 0.58640769E+03</pdfrwt>
<totfact> 0.35256746E+01</totfact>
</mgrwt>
</event>
<event>
 4    1  0.1952981E-007  0.5061281E+03  0.7818608E-02  0.1012192E+00
         -2   -1    0    0    0  501 -0.00000000000E+00  0.00000000000E+00  0.14579617441E+04  0.14579617441E+04  0.25500000000E-02 0.  1.
          2   -1    0    0  501    0  0.00000000000E+00 -0.00000000000E+00 -0.19246884637E+04  0.19246884637E+04  0.25500000000E-02 0. -1.
    8880022    1    1    2    0    0  0.28742028094E+03  0.38750940067E+03  0.13789156454E+04  0.14688682595E+04  0.15294330000E+03 0.  0.
    8880022    1    1    2    0    0 -0.28742028094E+03 -0.38750940067E+03 -0.18456423650E+04  0.19137819484E+04  0.15294330000E+03 0. -1.
<mgrwt>
<rscale>  0 0.50612805E+03</rscale>
<asrwt>0</asrwt>
<pdfrwt beam="1">  1        2 0.29610592E+00 0.50612805E+03</pdfrwt>
<pdfrwt beam="2">  1       -2 0.22430181E+00 0.50612805E+03</pdfrwt>
<totfact> 0.76185663E-01</totfact>
</mgrwt>
</event>
<event>
 4    1  0.1104584E-007  0.7971994E+03  0.7818608E-02  0.9564080E-01
         -2   -1    0    0    0  501 -0.00000000000E+00  0.00000000000E+00  0.96373410780E+03  0.96373410780E+03  0.25500000000E-02 0.  1.
          2   -1    0    0  501    0  0.00000000000E+00 -0.00000000000E+00 -0.16267367432E+04  0.16267367432E+04  0.25500000000E-02 0. -1.
    8880022    1    1    2    0    0  0.78161619462E+03 -0.34803978195E+02 -0.13302804661E+04  0.15508620068E+04  0.15294330000E+03 0.  0.
    8880022    1    1    2    0    0 -0.78161619462E+03  0.34803978195E+02  0.66727783071E+03  0.10396088442E+04  0.15294330000E+03 0.  0.
<mgrwt>
<rscale>  0 0.79719938E+03</rscale>
<asrwt>0</asrwt>
<pdfrwt beam="1">  1        2 0.25026719E+00 0.79719938E+03</pdfrwt>
<pdfrwt beam="2">  1       -2 0.14826679E+00 0.79719938E+03</pdfrwt>
<totfact> 0.34005347E+00</totfact>
</mgrwt>
</event>
<event>
 4    1  0.1104584E-007  0.8922383E+03  0.7818608E-02  0.9435336E-01
         -2   -1    0    0    0  501 -0.00000000000E+00  0.00000000000E+00  0.47271458121E+03  0.47271458122E+03  0.25500000000E-02 0.  1.
          2   -1    0    0  501    0  0.00000000000E+00 -0.00000000000E+00 -0.33614838685E+04  0.33614838685E+04  0.25500000000E-02 0. -1.
    8880022    1    1    2    0    0  0.21508662230E+02  0.87876895731E+03 -0.27986317005E+04  0.29374186884E+04  0.15294330000E+03 0.  0.
    8880022    1    1    2    0    0 -0.21508662230E+02 -0.87876895731E+03 -0.90137586875E+02  0.89677976140E+03  0.15294330000E+03 0.  0.
<mgrwt>
<rscale>  0 0.89223828E+03</rscale>
<asrwt>0</asrwt>
<pdfrwt beam="1">  1        2 0.51715135E+00 0.89223828E+03</pdfrwt>
<pdfrwt beam="2">  1       -2 0.72725322E-01 0.89223828E+03</pdfrwt>
<totfact> 0.18194786E+00</totfact>
</mgrwt>
</event>
<event>
 4    1  0.1104584E-007  0.3804696E+03  0.7818608E-02  0.1050760E+00
         -2   -1    0    0    0  501 -0.00000000000E+00  0.00000000000E+00  0.20498434485E+03  0.20498434487E+03  0.25500000000E-02 0.  1.
          2   -1    0    0  501    0  0.00000000000E+00 -0.00000000000E+00 -0.15953081410E+04  0.15953081410E+04  0.25500000000E-02 0. -1.
    8880022    1    1    2    0    0  0.23833096077E+03 -0.25409403626E+03 -0.13671653278E+04  0.14191187803E+04  0.15294330000E+03 0. -1.
    8880022    1    1    2    0    0 -0.23833096077E+03  0.25409403626E+03 -0.23158468341E+02  0.38117370554E+03  0.15294330000E+03 0.  0.
<mgrwt>
<rscale>  0 0.38046955E+03</rscale>
<asrwt>0</asrwt>
<pdfrwt beam="1">  1        2 0.24543201E+00 0.38046955E+03</pdfrwt>
<pdfrwt beam="2">  1       -2 0.31536054E-01 0.38046955E+03</pdfrwt>
<totfact> 0.11185759E+02</totfact>
</mgrwt>
</event>
<event>
 4    1  0.1104584E-007  0.1745845E+03  0.7818608E-02  0.1173150E+00
         -2   -1    0    0    0  501 -0.00000000000E+00  0.00000000000E+00  0.35824767558E+02  0.35824767649E+02  0.25500000000E-02 0.  1.
          2   -1    0    0  501    0  0.00000000000E+00 -0.00000000000E+00 -0.11736280347E+04  0.11736280348E+04  0.25500000000E-02 0. -1.
    8880022    1    1    2    0    0  0.82425586166E+02 -0.17149584620E+02 -0.88606193389E+03  0.90309771853E+03  0.15294330000E+03 0.  0.
    8880022    1    1    2    0    0 -0.82425586166E+02  0.17149584620E+02 -0.25174133330E+03  0.30635508387E+03  0.15294330000E+03 0.  0.
<mgrwt>
<rscale>  0 0.17458447E+03</rscale>
<asrwt>0</asrwt>
<pdfrwt beam="1">  1        2 0.18055813E+00 0.17458447E+03</pdfrwt>
<pdfrwt beam="2">  1       -2 0.55115036E-02 0.17458447E+03</pdfrwt>
<totfact> 0.34610444E+03</totfact>
</mgrwt>
</event>
<event>
 4    1  0.1104584E-007  0.4253060E+03  0.7818608E-02  0.1035353E+00
         -2   -1    0    0    0  501 -0.00000000000E+00  0.00000000000E+00  0.72965623675E+03  0.72965623675E+03  0.25500000000E-02 0.  1.
          2   -1    0    0  501    0  0.00000000000E+00 -0.00000000000E+00 -0.64249391697E+03  0.64249391698E+03  0.25500000000E-02 0. -1.
    8880022    1    1    2    0    0 -0.15266263732E+03  0.36631631670E+03  0.58124368090E+03  0.72022870973E+03  0.15294330000E+03 0.  0.
    8880022    1    1    2    0    0  0.15266263732E+03 -0.36631631670E+03 -0.49408136113E+03  0.65192144400E+03  0.15294330000E+03 0.  0.
<mgrwt>
<rscale>  0 0.42530598E+03</rscale>
<asrwt>0</asrwt>
<pdfrwt beam="1">  1        2 0.98845218E-01 0.42530598E+03</pdfrwt>
<pdfrwt beam="2">  1       -2 0.11225481E+00 0.42530598E+03</pdfrwt>
<totfact> 0.29945287E+01</totfact>
</mgrwt>
</event>
<event>
 4    1  0.1104584E-007  0.8520550E+03  0.7818608E-02  0.9487583E-01
         -2   -1    0    0    0  501 -0.00000000000E+00  0.00000000000E+00  0.38136812196E+04  0.38136812196E+04  0.25500000000E-02 0.  1.
          2   -1    0    0  501    0  0.00000000000E+00 -0.00000000000E+00 -0.25609668510E+03  0.25609668512E+03  0.25500000000E-02 0. -1.
    8880022    1    1    2    0    0  0.79236862033E+03  0.27341917169E+03  0.74788248707E+03  0.11337221624E+04  0.15294330000E+03 0.  0.
    8880022    1    1    2    0    0 -0.79236862033E+03 -0.27341917169E+03  0.28097020474E+04  0.29360557423E+04  0.15294330000E+03 0.  0.
<mgrwt>
<rscale>  0 0.85205500E+03</rscale>
<asrwt>0</asrwt>
<pdfrwt beam="1">  1        2 0.39399487E-01 0.85205500E+03</pdfrwt>
<pdfrwt beam="2">  1       -2 0.58672023E+00 0.85205500E+03</pdfrwt>
<totfact> 0.75823548E-02</totfact>
</mgrwt>
</event>
<event>
 4    1  0.1104584E-007  0.6721374E+03  0.7818608E-02  0.9766104E-01
          2   -1    0    0  501    0  0.00000000000E+00  0.00000000000E+00  0.12866147266E+04  0.12866147267E+04  0.25500000000E-02 0. -1.
         -2   -1    0    0    0  501 -0.00000000000E+00 -0.00000000000E+00 -0.65115780650E+03  0.65115780650E+03  0.25500000000E-02 0.  1.
    8880022    1    1    2    0    0  0.28836713904E+03  0.58755544099E+03  0.97540240610E+03  0.11845583607E+04  0.15294330000E+03 0.  0.
    8880022    1    1    2    0    0 -0.28836713904E+03 -0.58755544099E+03 -0.33994548595E+03  0.75321417243E+03  0.15294330000E+03 0.  0.
<mgrwt>
<rscale>  0 0.67213738E+03</rscale>
<asrwt>0</asrwt>
<pdfrwt beam="1">  1        2 0.19794072E+00 0.67213738E+03</pdfrwt>
<pdfrwt beam="2">  1       -2 0.10017813E+00 0.67213738E+03</pdfrwt>
<totfact> 0.14274259E+01</totfact>
</mgrwt>
</event>
<event>
 4    1  0.1104584E-007  0.2401874E+03  0.7818608E-02  0.1119668E+00
         -2   -1    0    0    0  501 -0.00000000000E+00  0.00000000000E+00  0.27728401925E+03  0.27728401926E+03  0.25500000000E-02 0.  1.
          2   -1    0    0  501    0  0.00000000000E+00 -0.00000000000E+00 -0.45978781368E+03  0.45978781369E+03  0.25500000000E-02 0. -1.
    8880022    1    1    2    0    0  0.11887640976E+03 -0.14200956735E+03 -0.36394371842E+03  0.43605619042E+03  0.15294330000E+03 0. -1.
    8880022    1    1    2    0    0 -0.11887640976E+03  0.14200956735E+03  0.18143992399E+03  0.30101564253E+03  0.15294330000E+03 0.  0.
<mgrwt>
<rscale>  0 0.24018737E+03</rscale>
<asrwt>0</asrwt>
<pdfrwt beam="1">  1        2 0.70736586E-01 0.24018737E+03</pdfrwt>
<pdfrwt beam="2">  1       -2 0.42659080E-01 0.24018737E+03</pdfrwt>
<totfact> 0.36273246E+02</totfact>
</mgrwt>
</event>
<event>
 4    1  0.1104584E-007  0.1256488E+04  0.7818608E-02  0.9064801E-01
         -2   -1    0    0    0  501 -0.00000000000E+00  0.00000000000E+00  0.65717930815E+03  0.65717930816E+03  0.25500000000E-02 0.  1.
          2   -1    0    0  501    0  0.00000000000E+00 -0.00000000000E+00 -0.38628614877E+04  0.38628614877E+04  0.25500000000E-02 0. -1.
    8880022    1    1    2    0    0  0.88857414636E+03 -0.87510315998E+03 -0.29925163778E+04  0.32455994020E+04  0.15294330000E+03 0.  0.
    8880022    1    1    2    0    0 -0.88857414636E+03  0.87510315998E+03 -0.21316580175E+03  0.12744413938E+04  0.15294330000E+03 0.  0.
<mgrwt>
<rscale>  0 0.12564876E+04</rscale>
<asrwt>0</asrwt>
<pdfrwt beam="1">  1        2 0.59428637E+00 0.12564876E+04</pdfrwt>
<pdfrwt beam="2">  1       -2 0.10110451E+00 0.12564876E+04</pdfrwt>
<totfact> 0.35378618E-01</totfact>
</mgrwt>
</event>
<event>
 4    1  0.1104584E-007  0.2442670E+03  0.7818608E-02  0.1116982E+00
         -2   -1    0    0    0  501 -0.00000000000E+00  0.00000000000E+00  0.78296177906E+03  0.78296177906E+03  0.25500000000E-02 0.  1.
          2   -1    0    0  501    0  0.00000000000E+00 -0.00000000000E+00 -0.42826591696E+03  0.42826591696E+03  0.25500000000E-02 0. -1.
    8880022    1    1    2    0    0 -0.12831886319E+03  0.14074440702E+03 -0.37174688364E+03  0.44481694805E+03  0.15294330000E+03 0. -1.
    8880022    1    1    2    0    0  0.12831886319E+03 -0.14074440702E+03  0.72644274575E+03  0.76641074798E+03  0.15294330000E+03 0.  0.
<mgrwt>
<rscale>  0 0.24426701E+03</rscale>
<asrwt>0</asrwt>
<pdfrwt beam="1">  1        2 0.65887065E-01 0.24426701E+03</pdfrwt>
<pdfrwt beam="2">  1       -2 0.12045566E+00 0.24426701E+03</pdfrwt>
<totfact> 0.41426874E+01</totfact>
</mgrwt>
</event>
<event>
 4    1  0.1104584E-007  0.4455213E+03  0.7818608E-02  0.1029066E+00
          2   -1    0    0  501    0  0.00000000000E+00  0.00000000000E+00  0.25936398700E+04  0.25936398700E+04  0.25500000000E-02 0. -1.
         -2   -1    0    0    0  501 -0.00000000000E+00 -0.00000000000E+00 -0.14297955222E+03  0.14297955224E+03  0.25500000000E-02 0.  1.
    8880022    1    1    2    0    0  0.31344931046E+03 -0.27721318418E+03  0.21581461343E+04  0.22036524249E+04  0.15294330000E+03 0.  0.
    8880022    1    1    2    0    0 -0.31344931046E+03  0.27721318418E+03  0.29251418346E+03  0.53296699734E+03  0.15294330000E+03 0.  0.
<mgrwt>
<rscale>  0 0.44552135E+03</rscale>
<asrwt>0</asrwt>
<pdfrwt beam="1">  1        2 0.39902151E+00 0.44552135E+03</pdfrwt>
<pdfrwt beam="2">  1       -2 0.21996855E-01 0.44552135E+03</pdfrwt>
<totfact> 0.60808616E+01</totfact>
</mgrwt>
</event>
<event>
 4    1  0.1104584E-007  0.7692482E+03  0.7818608E-02  0.9605628E-01
         -2   -1    0    0    0  501 -0.00000000000E+00  0.00000000000E+00  0.69909438303E+03  0.69909438304E+03  0.25500000000E-02 0.  1.
          2   -1    0    0  501    0  0.00000000000E+00 -0.00000000000E+00 -0.15350239289E+04  0.15350239289E+04  0.25500000000E-02 0. -1.
    8880022    1    1    2    0    0 -0.23336646142E+03  0.71686211270E+03 -0.11661280863E+04  0.13969959057E+04  0.15294330000E+03 0.  0.
    8880022    1    1    2    0    0  0.23336646142E+03 -0.71686211270E+03  0.33019854040E+03  0.83712240625E+03  0.15294330000E+03 0.  0.
<mgrwt>
<rscale>  0 0.76924823E+03</rscale>
<asrwt>0</asrwt>
<pdfrwt beam="1">  1        2 0.23615753E+00 0.76924823E+03</pdfrwt>
<pdfrwt beam="2">  1       -2 0.10755298E+00 0.76924823E+03</pdfrwt>
<totfact> 0.86064043E+00</totfact>
</mgrwt>
</event>
<event>
 4    1  0.1104584E-007  0.2628446E+03  0.7818608E-02  0.1105446E+00
         -2   -1    0    0    0  501 -0.00000000000E+00  0.00000000000E+00  0.41376545206E+02  0.41376545284E+02  0.25500000000E-02 0.  1.
          2   -1    0    0  501    0  0.00000000000E+00 -0.00000000000E+00 -0.38260745260E+04  0.38260745260E+04  0.25500000000E-02 0. -1.
    8880022    1    1    2    0    0 -0.21199949719E+03 -0.27420046112E+02 -0.44064499681E+03  0.51308411783E+03  0.15294330000E+03 0.  0.
    8880022    1    1    2    0    0  0.21199949719E+03  0.27420046112E+02 -0.33440529839E+04  0.33543669534E+04  0.15294330000E+03 0. -1.
<mgrwt>
<rscale>  0 0.26284463E+03</rscale>
<asrwt>0</asrwt>
<pdfrwt beam="1">  1        2 0.58862657E+00 0.26284463E+03</pdfrwt>
<pdfrwt beam="2">  1       -2 0.63656254E-02 0.26284463E+03</pdfrwt>
<totfact> 0.81826276E+01</totfact>
</mgrwt>
</event>
<event>
 4    1  0.1104584E-007  0.4030268E+03  0.7818608E-02  0.1042737E+00
         -2   -1    0    0    0  501 -0.00000000000E+00  0.00000000000E+00  0.49360729477E+03  0.49360729478E+03  0.25500000000E-02 0.  1.
          2   -1    0    0  501    0  0.00000000000E+00 -0.00000000000E+00 -0.13903320636E+04  0.13903320636E+04  0.25500000000E-02 0. -1.
    8880022    1    1    2    0    0  0.19556071477E+03  0.31748216096E+03 -0.12713424188E+04  0.13336949106E+04  0.15294330000E+03 0. -1.
    8880022    1    1    2    0    0 -0.19556071477E+03 -0.31748216096E+03  0.37461764995E+03  0.55024444782E+03  0.15294330000E+03 0.  0.
<mgrwt>
<rscale>  0 0.40302676E+03</rscale>
<asrwt>0</asrwt>
<pdfrwt beam="1">  1        2 0.21389724E+00 0.40302676E+03</pdfrwt>
<pdfrwt beam="2">  1       -2 0.75939585E-01 0.40302676E+03</pdfrwt>
<totfact> 0.24560930E+01</totfact>
</mgrwt>
</event>
<event>
 4    1  0.1104584E-007  0.6866136E+03  0.7818608E-02  0.9740402E-01
          2   -1    0    0  501    0  0.00000000000E+00  0.00000000000E+00  0.74267594107E+03  0.74267594108E+03  0.25500000000E-02 0. -1.
         -2   -1    0    0    0  501 -0.00000000000E+00 -0.00000000000E+00 -0.78585640857E+03  0.78585640858E+03  0.25500000000E-02 0.  1.
    8880022    1    1    2    0    0 -0.24706499859E+02  0.66890673600E+03  0.31350374206E+03  0.75479989527E+03  0.15294330000E+03 0.  0.
    8880022    1    1    2    0    0  0.24706499859E+02 -0.66890673600E+03 -0.35668420957E+03  0.77373245438E+03  0.15294330000E+03 0.  0.
<mgrwt>
<rscale>  0 0.68661364E+03</rscale>
<asrwt>0</asrwt>
<pdfrwt beam="1">  1        2 0.11425784E+00 0.68661364E+03</pdfrwt>
<pdfrwt beam="2">  1       -2 0.12090099E+00 0.68661364E+03</pdfrwt>
<totfact> 0.20202719E+01</totfact>
</mgrwt>
</event>
<event>
 4    1  0.1104584E-007  0.7121869E+03  0.7818608E-02  0.9696615E-01
          2   -1    0    0  501    0  0.00000000000E+00  0.00000000000E+00  0.81082522790E+03  0.81082522790E+03  0.25500000000E-02 0. -1.
         -2   -1    0    0    0  501 -0.00000000000E+00 -0.00000000000E+00 -0.10074960152E+04  0.10074960152E+04  0.25500000000E-02 0.  1.
    8880022    1    1    2    0    0 -0.47732304806E+03  0.50594584172E+03  0.46144933812E+03  0.84861394734E+03  0.15294330000E+03 0.  0.
    8880022    1    1    2    0    0  0.47732304806E+03 -0.50594584172E+03 -0.65812012545E+03  0.96970729578E+03  0.15294330000E+03 0.  0.
<mgrwt>
<rscale>  0 0.71218687E+03</rscale>
<asrwt>0</asrwt>
<pdfrwt beam="1">  1        2 0.12474234E+00 0.71218687E+03</pdfrwt>
<pdfrwt beam="2">  1       -2 0.15499939E+00 0.71218687E+03</pdfrwt>
<totfact> 0.94848656E+00</totfact>
</mgrwt>
</event>
<event>
 4    1  0.1104584E-007  0.1852400E+03  0.7818608E-02  0.1162826E+00
         -2   -1    0    0    0  501 -0.00000000000E+00  0.00000000000E+00  0.16171511556E+03  0.16171511558E+03  0.25500000000E-02 0.  1.
          2   -1    0    0  501    0  0.00000000000E+00 -0.00000000000E+00 -0.59461111726E+03  0.59461111726E+03  0.25500000000E-02 0. -1.
    8880022    1    1    2    0    0  0.90987291911E+02 -0.51415146786E+02  0.86826047641E+02  0.20457912937E+03  0.15294330000E+03 0.  1.
    8880022    1    1    2    0    0 -0.90987291911E+02  0.51415146786E+02 -0.51972204934E+03  0.55174710348E+03  0.15294330000E+03 0.  0.
<mgrwt>
<rscale>  0 0.18524000E+03</rscale>
<asrwt>0</asrwt>
<pdfrwt beam="1">  1        2 0.91478633E-01 0.18524000E+03</pdfrwt>
<pdfrwt beam="2">  1       -2 0.24879249E-01 0.18524000E+03</pdfrwt>
<totfact> 0.73442345E+02</totfact>
</mgrwt>
</event>
<event>
 4    1  0.1104584E-007  0.7944410E+03  0.7818608E-02  0.9568099E-01
          2   -1    0    0  501    0  0.00000000000E+00  0.00000000000E+00  0.32020601522E+04  0.32020601522E+04  0.25500000000E-02 0. -1.
         -2   -1    0    0    0  501 -0.00000000000E+00 -0.00000000000E+00 -0.69617556932E+03  0.69617556933E+03  0.25500000000E-02 0.  1.
    8880022    1    1    2    0    0  0.74780657089E+03 -0.22029559280E+03 -0.39734840901E+03  0.88826923104E+03  0.15294330000E+03 0.  0.
    8880022    1    1    2    0    0 -0.74780657089E+03  0.22029559280E+03  0.29032329919E+04  0.30099664905E+04  0.15294330000E+03 0.  0.
<mgrwt>
<rscale>  0 0.79444098E+03</rscale>
<asrwt>0</asrwt>
<pdfrwt beam="1">  1        2 0.49262464E+00 0.79444098E+03</pdfrwt>
<pdfrwt beam="2">  1       -2 0.10710393E+00 0.79444098E+03</pdfrwt>
<totfact> 0.96520812E-01</totfact>
</mgrwt>
</event>
<event>
 4    1  0.1104584E-007  0.5327144E+03  0.7818608E-02  0.1005576E+00
         -2   -1    0    0    0  501 -0.00000000000E+00  0.00000000000E+00  0.20723113785E+04  0.20723113785E+04  0.25500000000E-02 0.  1.
          2   -1    0    0  501    0  0.00000000000E+00 -0.00000000000E+00 -0.46334123501E+03  0.46334123501E+03  0.25500000000E-02 0. -1.
    8880022    1    1    2    0    0  0.26215970966E+03 -0.43779589014E+03 -0.25961983361E+03  0.59261038280E+03  0.15294330000E+03 0.  0.
    8880022    1    1    2    0    0 -0.26215970966E+03  0.43779589014E+03  0.18685899771E+04  0.19430422307E+04  0.15294330000E+03 0.  0.
<mgrwt>
<rscale>  0 0.53271438E+03</rscale>
<asrwt>0</asrwt>
<pdfrwt beam="1">  1        2 0.71283266E-01 0.53271438E+03</pdfrwt>
<pdfrwt beam="2">  1       -2 0.31881714E+00 0.53271438E+03</pdfrwt>
<totfact> 0.17864091E+00</totfact>
</mgrwt>
</event>
<event>
 4    1  0.1104584E-007  0.9176013E+03  0.7818608E-02  0.9403842E-01
         -2   -1    0    0    0  501 -0.00000000000E+00  0.00000000000E+00  0.15228936526E+04  0.15228936526E+04  0.25500000000E-02 0.  1.
          2   -1    0    0  501    0  0.00000000000E+00 -0.00000000000E+00 -0.80182392529E+03  0.80182392530E+03  0.25500000000E-02 0. -1.
    8880022    1    1    2    0    0 -0.15916592032E+03  0.89065525265E+03  0.10081887850E+04  0.13632449701E+04  0.15294330000E+03 0.  0.
    8880022    1    1    2    0    0  0.15916592032E+03 -0.89065525265E+03 -0.28711905769E+03  0.96147260781E+03  0.15294330000E+03 0.  0.
<mgrwt>
<rscale>  0 0.91760134E+03</rscale>
<asrwt>0</asrwt>
<pdfrwt beam="1">  1        2 0.12335753E+00 0.91760134E+03</pdfrwt>
<pdfrwt beam="2">  1       -2 0.23429133E+00 0.91760134E+03</pdfrwt>
<totfact> 0.27749989E+00</totfact>
</mgrwt>
</event>
<event>
 4    1  0.1104584E-007  0.4347059E+03  0.7818608E-02  0.1032384E+00
         -2   -1    0    0    0  501 -0.00000000000E+00  0.00000000000E+00  0.80439427445E+02  0.80439427486E+02  0.25500000000E-02 0.  1.
          2   -1    0    0  501    0  0.00000000000E+00 -0.00000000000E+00 -0.35602577995E+04  0.35602577995E+04  0.25500000000E-02 0. -1.
    8880022    1    1    2    0    0  0.12662828649E+03  0.38670766404E+03 -0.28015907962E+04  0.28351155502E+04  0.15294330000E+03 0.  0.
    8880022    1    1    2    0    0 -0.12662828649E+03 -0.38670766404E+03 -0.67822757580E+03  0.80558167678E+03  0.15294330000E+03 0.  0.
<mgrwt>
<rscale>  0 0.43470587E+03</rscale>
<asrwt>0</asrwt>
<pdfrwt beam="1">  1        2 0.54773185E+00 0.43470587E+03</pdfrwt>
<pdfrwt beam="2">  1       -2 0.12375299E-01 0.43470587E+03</pdfrwt>
<totfact> 0.41116854E+01</totfact>
</mgrwt>
</event>
<event>
 4    1  0.1104584E-007  0.5926411E+03  0.7818608E-02  0.9920792E-01
         -2   -1    0    0    0  501 -0.00000000000E+00  0.00000000000E+00  0.13630801289E+03  0.13630801291E+03  0.25500000000E-02 0.  1.
          2   -1    0    0  501    0  0.00000000000E+00 -0.00000000000E+00 -0.34037885639E+04  0.34037885639E+04  0.25500000000E-02 0. -1.
    8880022    1    1    2    0    0  0.13824282939E+03 -0.55562643929E+03 -0.76120599134E+03  0.96470619060E+03  0.15294330000E+03 0.  0.
    8880022    1    1    2    0    0 -0.13824282939E+03  0.55562643929E+03 -0.25062745597E+04  0.25753903863E+04  0.15294330000E+03 0.  0.
<mgrwt>
<rscale>  0 0.59264110E+03</rscale>
<asrwt>0</asrwt>
<pdfrwt beam="1">  1        2 0.52365972E+00 0.59264110E+03</pdfrwt>
<pdfrwt beam="2">  1       -2 0.20970466E-01 0.59264110E+03</pdfrwt>
<totfact> 0.20589762E+01</totfact>
</mgrwt>
</event>
<event>
 4    1  0.1104584E-007  0.4073879E+03  0.7818608E-02  0.1041251E+00
         -2   -1    0    0    0  501 -0.00000000000E+00  0.00000000000E+00  0.61089683826E+03  0.61089683827E+03  0.25500000000E-02 0.  1.
          2   -1    0    0  501    0  0.00000000000E+00 -0.00000000000E+00 -0.27818569613E+04  0.27818569613E+04  0.25500000000E-02 0. -1.
    8880022    1    1    2    0    0 -0.37381617290E+03  0.53242208596E+02 -0.26968958796E+04  0.27274919436E+04  0.15294330000E+03 0.  0.
    8880022    1    1    2    0    0  0.37381617290E+03 -0.53242208596E+02  0.52593575660E+03  0.66526185595E+03  0.15294330000E+03 0.  0.
<mgrwt>
<rscale>  0 0.40738792E+03</rscale>
<asrwt>0</asrwt>
<pdfrwt beam="1">  1        2 0.42797799E+00 0.40738792E+03</pdfrwt>
<pdfrwt beam="2">  1       -2 0.93984130E-01 0.40738792E+03</pdfrwt>
<totfact> 0.26387052E+00</totfact>
</mgrwt>
</event>
<event>
 4    1  0.1104584E-007  0.5408157E+03  0.7818608E-02  0.1003642E+00
         -2   -1    0    0    0  501 -0.00000000000E+00  0.00000000000E+00  0.12776006952E+04  0.12776006952E+04  0.25500000000E-02 0.  1.
          2   -1    0    0  501    0  0.00000000000E+00 -0.00000000000E+00 -0.55431039602E+03  0.55431039602E+03  0.25500000000E-02 0. -1.
    8880022    1    1    2    0    0 -0.26310016543E+03 -0.44706630636E+03 -0.34012244876E+03  0.63887785413E+03  0.15294330000E+03 0.  0.
    8880022    1    1    2    0    0  0.26310016543E+03  0.44706630636E+03  0.10634127480E+04  0.11930332371E+04  0.15294330000E+03 0.  0.
<mgrwt>
<rscale>  0 0.54081571E+03</rscale>
<asrwt>0</asrwt>
<pdfrwt beam="1">  1        2 0.85278523E-01 0.54081571E+03</pdfrwt>
<pdfrwt beam="2">  1       -2 0.19655395E+00 0.54081571E+03</pdfrwt>
<totfact> 0.80125183E+00</totfact>
</mgrwt>
</event>
<event>
 4    1  0.1104584E-007  0.1713844E+03  0.7818608E-02  0.1176412E+00
         -2   -1    0    0    0  501 -0.00000000000E+00  0.00000000000E+00  0.10996156853E+04  0.10996156853E+04  0.25500000000E-02 0.  1.
          2   -1    0    0  501    0  0.00000000000E+00 -0.00000000000E+00 -0.38786985641E+03  0.38786985642E+03  0.25500000000E-02 0. -1.
    8880022    1    1    2    0    0  0.45478507384E+02  0.62551374333E+02  0.10735489535E+04  0.10871430346E+04  0.15294330000E+03 0.  1.
    8880022    1    1    2    0    0 -0.45478507384E+02 -0.62551374333E+02 -0.36180312459E+03  0.40034250717E+03  0.15294330000E+03 0.  0.
<mgrwt>
<rscale>  0 0.17138443E+03</rscale>
<asrwt>0</asrwt>
<pdfrwt beam="1">  1        2 0.59672285E-01 0.17138443E+03</pdfrwt>
<pdfrwt beam="2">  1       -2 0.16917165E+00 0.17138443E+03</pdfrwt>
<totfact> 0.19812544E+01</totfact>
</mgrwt>
</event>
<event>
 4    1  0.1104584E-007  0.5522418E+03  0.7818608E-02  0.1000976E+00
          2   -1    0    0  501    0  0.00000000000E+00  0.00000000000E+00  0.70177438306E+03  0.70177438307E+03  0.25500000000E-02 0. -1.
         -2   -1    0    0    0  501 -0.00000000000E+00 -0.00000000000E+00 -0.45563367796E+03  0.45563367797E+03  0.25500000000E-02 0.  1.
    8880022    1    1    2    0    0 -0.51252349417E+03 -0.13747352656E+03 -0.13533266701E+01  0.55224341290E+03  0.15294330000E+03 0.  0.
    8880022    1    1    2    0    0  0.51252349417E+03  0.13747352656E+03  0.24749403177E+03  0.60516464814E+03  0.15294330000E+03 0.  0.
<mgrwt>
<rscale>  0 0.55224175E+03</rscale>
<asrwt>0</asrwt>
<pdfrwt beam="1">  1        2 0.10796529E+00 0.55224175E+03</pdfrwt>
<pdfrwt beam="2">  1       -2 0.70097490E-01 0.55224175E+03</pdfrwt>
<totfact> 0.77808847E+01</totfact>
</mgrwt>
</event>
<event>
 4    1  0.1104584E-007  0.2013144E+03  0.7818608E-02  0.1148635E+00
          2   -1    0    0  501    0  0.00000000000E+00  0.00000000000E+00  0.39034622558E+03  0.39034622558E+03  0.25500000000E-02 0. -1.
         -2   -1    0    0    0  501 -0.00000000000E+00 -0.00000000000E+00 -0.64000139996E+03  0.64000139997E+03  0.25500000000E-02 0.  1.
    8880022    1    1    2    0    0  0.11572972674E+03  0.61175782481E+02 -0.59636631713E+03  0.62942853704E+03  0.15294330000E+03 0.  1.
    8880022    1    1    2    0    0 -0.11572972674E+03 -0.61175782481E+02  0.34671114275E+03  0.40091908851E+03  0.15294330000E+03 0.  0.
<mgrwt>
<rscale>  0 0.20131443E+03</rscale>
<asrwt>0</asrwt>
<pdfrwt beam="1">  1        2 0.60053266E-01 0.20131443E+03</pdfrwt>
<pdfrwt beam="2">  1       -2 0.98461753E-01 0.20131443E+03</pdfrwt>
<totfact> 0.74488992E+01</totfact>
</mgrwt>
</event>
<event>
 4    1  0.1104584E-007  0.4097726E+03  0.7818608E-02  0.1040447E+00
          2   -1    0    0  501    0  0.00000000000E+00  0.00000000000E+00  0.19957456318E+04  0.19957456318E+04  0.25500000000E-02 0. -1.
         -2   -1    0    0    0  501 -0.00000000000E+00 -0.00000000000E+00 -0.17933868580E+03  0.17933868581E+03  0.25500000000E-02 0.  1.
    8880022    1    1    2    0    0 -0.25791646865E+03  0.27928666429E+03  0.11582214834E+03  0.42582668859E+03  0.15294330000E+03 0.  0.
    8880022    1    1    2    0    0  0.25791646865E+03 -0.27928666429E+03  0.17005847977E+04  0.17492576291E+04  0.15294330000E+03 0.  0.
<mgrwt>
<rscale>  0 0.40977262E+03</rscale>
<asrwt>0</asrwt>
<pdfrwt beam="1">  1        2 0.30703780E+00 0.40977262E+03</pdfrwt>
<pdfrwt beam="2">  1       -2 0.27590566E-01 0.40977262E+03</pdfrwt>
<totfact> 0.86806363E+01</totfact>
</mgrwt>
</event>
<event>
 4    1  0.1104584E-007  0.8600575E+03  0.7818608E-02  0.9476937E-01
         -2   -1    0    0    0  501 -0.00000000000E+00  0.00000000000E+00  0.11018388993E+04  0.11018388993E+04  0.25500000000E-02 0.  1.
          2   -1    0    0  501    0  0.00000000000E+00 -0.00000000000E+00 -0.10147801492E+04  0.10147801492E+04  0.25500000000E-02 0. -1.
    8880022    1    1    2    0    0 -0.12823454955E+03  0.83657820416E+03 -0.57215454477E+03  0.10329858022E+04  0.15294330000E+03 0.  0.
    8880022    1    1    2    0    0  0.12823454955E+03 -0.83657820416E+03  0.65921329492E+03  0.10836332463E+04  0.15294330000E+03 0.  0.
<mgrwt>
<rscale>  0 0.86005747E+03</rscale>
<asrwt>0</asrwt>
<pdfrwt beam="1">  1        2 0.15612002E+00 0.86005747E+03</pdfrwt>
<pdfrwt beam="2">  1       -2 0.16951368E+00 0.86005747E+03</pdfrwt>
<totfact> 0.53280058E+00</totfact>
</mgrwt>
</event>
<event>
 4    1  0.1104584E-007  0.3515531E+03  0.7818608E-02  0.1061979E+00
          2   -1    0    0  501    0  0.00000000000E+00  0.00000000000E+00  0.13553025509E+04  0.13553025509E+04  0.25500000000E-02 0. -1.
         -2   -1    0    0    0  501 -0.00000000000E+00 -0.00000000000E+00 -0.42043931262E+03  0.42043931263E+03  0.25500000000E-02 0.  1.
    8880022    1    1    2    0    0 -0.16287920444E+03  0.27141902211E+03 -0.31827578218E+03  0.47422468023E+03  0.15294330000E+03 0.  0.
    8880022    1    1    2    0    0  0.16287920444E+03 -0.27141902211E+03  0.12531390205E+04  0.13015171833E+04  0.15294330000E+03 0.  0.
<mgrwt>
<rscale>  0 0.35155309E+03</rscale>
<asrwt>0</asrwt>
<pdfrwt beam="1">  1        2 0.20850808E+00 0.35155309E+03</pdfrwt>
<pdfrwt beam="2">  1       -2 0.64682972E-01 0.35155309E+03</pdfrwt>
<totfact> 0.36751896E+01</totfact>
</mgrwt>
</event>
<event>
 4    1  0.1104584E-007  0.4434904E+03  0.7818608E-02  0.1029681E+00
         -2   -1    0    0    0  501 -0.00000000000E+00  0.00000000000E+00  0.70960627577E+03  0.70960627577E+03  0.25500000000E-02 0.  1.
          2   -1    0    0  501    0  0.00000000000E+00 -0.00000000000E+00 -0.19111695048E+04  0.19111695048E+04  0.25500000000E-02 0. -1.
    8880022    1    1    2    0    0  0.41305798386E+03 -0.51721872023E+02  0.61086459646E+03  0.75487698222E+03  0.15294330000E+03 0.  1.
    8880022    1    1    2    0    0 -0.41305798386E+03  0.51721872023E+02 -0.18124278255E+04  0.18658987984E+04  0.15294330000E+03 0.  0.
<mgrwt>
<rscale>  0 0.44349036E+03</rscale>
<asrwt>0</asrwt>
<pdfrwt beam="1">  1        2 0.29402608E+00 0.44349036E+03</pdfrwt>
<pdfrwt beam="2">  1       -2 0.10917020E+00 0.44349036E+03</pdfrwt>
<totfact> 0.55255462E+00</totfact>
</mgrwt>
</event>
<event>
 4    1  0.1104584E-007  0.2775048E+03  0.7818608E-02  0.1097060E+00
         -2   -1    0    0    0  501 -0.00000000000E+00  0.00000000000E+00  0.96514072140E+03  0.96514072141E+03  0.25500000000E-02 0.  1.
          2   -1    0    0  501    0  0.00000000000E+00 -0.00000000000E+00 -0.19312435382E+03  0.19312435383E+03  0.25500000000E-02 0. -1.
    8880022    1    1    2    0    0 -0.10168350312E+03  0.20803304262E+03 -0.57640832256E+02  0.28342794532E+03  0.15294330000E+03 0.  0.
    8880022    1    1    2    0    0  0.10168350312E+03 -0.20803304262E+03  0.82965719984E+03  0.87483712993E+03  0.15294330000E+03 0.  0.
<mgrwt>
<rscale>  0 0.27750484E+03</rscale>
<asrwt>0</asrwt>
<pdfrwt beam="1">  1        2 0.29711439E-01 0.27750484E+03</pdfrwt>
<pdfrwt beam="2">  1       -2 0.14848319E+00 0.27750484E+03</pdfrwt>
<totfact> 0.58054473E+01</totfact>
</mgrwt>
</event>
<event>
 4    1  0.1104584E-007  0.8085207E+03  0.7818608E-02  0.9547765E-01
         -2   -1    0    0    0  501 -0.00000000000E+00  0.00000000000E+00  0.70201531699E+03  0.70201531699E+03  0.25500000000E-02 0.  1.
          2   -1    0    0  501    0  0.00000000000E+00 -0.00000000000E+00 -0.11878003454E+04  0.11878003454E+04  0.25500000000E-02 0. -1.
    8880022    1    1    2    0    0 -0.74751909594E+03 -0.26744947326E+03 -0.68208974316E+03  0.10578053178E+04  0.15294330000E+03 0.  0.
    8880022    1    1    2    0    0  0.74751909594E+03  0.26744947326E+03  0.19630471474E+03  0.83201034464E+03  0.15294330000E+03 0.  0.
<mgrwt>
<rscale>  0 0.80852067E+03</rscale>
<asrwt>0</asrwt>
<pdfrwt beam="1">  1        2 0.18273851E+00 0.80852067E+03</pdfrwt>
<pdfrwt beam="2">  1       -2 0.10800236E+00 0.80852067E+03</pdfrwt>
<totfact> 0.13395211E+01</totfact>
</mgrwt>
</event>
<event>
 4    1  0.1104584E-007  0.4877361E+03  0.7818608E-02  0.1017030E+00
         -2   -1    0    0    0  501 -0.00000000000E+00  0.00000000000E+00  0.35895774036E+03  0.35895774037E+03  0.25500000000E-02 0.  1.
          2   -1    0    0  501    0  0.00000000000E+00 -0.00000000000E+00 -0.13446790524E+04  0.13446790524E+04  0.25500000000E-02 0. -1.
    8880022    1    1    2    0    0 -0.36041687926E+03  0.29085139018E+03 -0.10994832555E+04  0.12028091869E+04  0.15294330000E+03 0.  0.
    8880022    1    1    2    0    0  0.36041687926E+03 -0.29085139018E+03  0.11376194343E+03  0.50082760588E+03  0.15294330000E+03 0.  0.
<mgrwt>
<rscale>  0 0.48773611E+03</rscale>
<asrwt>0</asrwt>
<pdfrwt beam="1">  1        2 0.20687370E+00 0.48773611E+03</pdfrwt>
<pdfrwt beam="2">  1       -2 0.55224269E-01 0.48773611E+03</pdfrwt>
<totfact> 0.50550291E+01</totfact>
</mgrwt>
</event>
<event>
 4    1  0.1104584E-007  0.6723877E+03  0.7818608E-02  0.9765654E-01
          2   -1    0    0  501    0  0.00000000000E+00  0.00000000000E+00  0.92052795157E+03  0.92052795157E+03  0.25500000000E-02 0. -1.
         -2   -1    0    0    0  501 -0.00000000000E+00 -0.00000000000E+00 -0.12210478822E+04  0.12210478822E+04  0.25500000000E-02 0.  1.
    8880022    1    1    2    0    0  0.15599228153E+03 -0.63590875390E+03 -0.97814890709E+03  0.11869627090E+04  0.15294330000E+03 0.  0.
    8880022    1    1    2    0    0 -0.15599228153E+03  0.63590875390E+03  0.67762897646E+03  0.95461312474E+03  0.15294330000E+03 0.  0.
<mgrwt>
<rscale>  0 0.67238768E+03</rscale>
<asrwt>0</asrwt>
<pdfrwt beam="1">  1        2 0.14161969E+00 0.67238768E+03</pdfrwt>
<pdfrwt beam="2">  1       -2 0.18785352E+00 0.67238768E+03</pdfrwt>
<totfact> 0.47015997E+00</totfact>
</mgrwt>
</event>
<event>
 4    1  0.1104584E-007  0.5314463E+03  0.7818608E-02  0.1005882E+00
          2   -1    0    0  501    0  0.00000000000E+00  0.00000000000E+00  0.16761634262E+04  0.16761634262E+04  0.25500000000E-02 0. -1.
         -2   -1    0    0    0  501 -0.00000000000E+00 -0.00000000000E+00 -0.26961778565E+03  0.26961778566E+03  0.25500000000E-02 0.  1.
    8880022    1    1    2    0    0  0.11682430594E+03  0.49537421229E+03  0.10747157073E+03  0.54220413148E+03  0.15294330000E+03 0.  0.
    8880022    1    1    2    0    0 -0.11682430594E+03 -0.49537421229E+03  0.12990740699E+04  0.14035770804E+04  0.15294330000E+03 0.  0.
<mgrwt>
<rscale>  0 0.53144631E+03</rscale>
<asrwt>0</asrwt>
<pdfrwt beam="1">  1        2 0.25787129E+00 0.53144631E+03</pdfrwt>
<pdfrwt beam="2">  1       -2 0.41479660E-01 0.53144631E+03</pdfrwt>
<totfact> 0.58610464E+01</totfact>
</mgrwt>
</event>
<event>
 4    1  0.1104584E-007  0.5132485E+03  0.7818608E-02  0.1010378E+00
          2   -1    0    0  501    0  0.00000000000E+00  0.00000000000E+00  0.10975774219E+04  0.10975774219E+04  0.25500000000E-02 0. -1.
         -2   -1    0    0    0  501 -0.00000000000E+00 -0.00000000000E+00 -0.63811823842E+03  0.63811823843E+03  0.25500000000E-02 0.  1.
    8880022    1    1    2    0    0 -0.11840543529E+03  0.47540773797E+03  0.91521203895E+03  0.10493031467E+04  0.15294330000E+03 0.  0.
    8880022    1    1    2    0    0  0.11840543529E+03 -0.47540773797E+03 -0.45575285550E+03  0.68639251361E+03  0.15294330000E+03 0.  0.
<mgrwt>
<rscale>  0 0.51324849E+03</rscale>
<asrwt>0</asrwt>
<pdfrwt beam="1">  1        2 0.16885806E+00 0.51324849E+03</pdfrwt>
<pdfrwt beam="2">  1       -2 0.98172037E-01 0.51324849E+03</pdfrwt>
<totfact> 0.19804150E+01</totfact>
</mgrwt>
</event>
<event>
 4    1  0.1104584E-007  0.5465057E+03  0.7818608E-02  0.1002306E+00
          2   -1    0    0  501    0  0.00000000000E+00  0.00000000000E+00  0.28807907506E+03  0.28807907508E+03  0.25500000000E-02 0. -1.
         -2   -1    0    0    0  501 -0.00000000000E+00 -0.00000000000E+00 -0.11441544680E+04  0.11441544680E+04  0.25500000000E-02 0.  1.
    8880022    1    1    2    0    0 -0.47704154914E+03 -0.21842199856E+03 -0.20863837699E+03  0.58497729394E+03  0.15294330000E+03 0.  0.
    8880022    1    1    2    0    0  0.47704154914E+03  0.21842199856E+03 -0.64743701596E+03  0.84725624915E+03  0.15294330000E+03 0.  0.
<mgrwt>
<rscale>  0 0.54650568E+03</rscale>
<asrwt>0</asrwt>
<pdfrwt beam="1">  1        2 0.44319858E-01 0.54650568E+03</pdfrwt>
<pdfrwt beam="2">  1       -2 0.17602376E+00 0.54650568E+03</pdfrwt>
<totfact> 0.22931032E+01</totfact>
</mgrwt>
</event>
<event>
 4    1  0.1104584E-007  0.1057236E+04  0.7818608E-02  0.9247905E-01
          2   -1    0    0  501    0  0.00000000000E+00  0.00000000000E+00  0.85792870376E+03  0.85792870376E+03  0.25500000000E-02 0. -1.
         -2   -1    0    0    0  501 -0.00000000000E+00 -0.00000000000E+00 -0.14713180367E+04  0.14713180367E+04  0.25500000000E-02 0.  1.
    8880022    1    1    2    0    0  0.91073060354E+02 -0.10421428805E+04 -0.70078701161E+03  0.12684045784E+04  0.15294330000E+03 0.  0.
    8880022    1    1    2    0    0 -0.91073060354E+02  0.10421428805E+04  0.87397678626E+02  0.10608421621E+04  0.15294330000E+03 0.  0.
<mgrwt>
<rscale>  0 0.10572359E+04</rscale>
<asrwt>0</asrwt>
<pdfrwt beam="1">  1        2 0.13198903E+00 0.10572359E+04</pdfrwt>
<pdfrwt beam="2">  1       -2 0.22635662E+00 0.10572359E+04</pdfrwt>
<totfact> 0.27914207E+00</totfact>
</mgrwt>
</event>
<event>
 4    1  0.1104584E-007  0.3464682E+03  0.7818608E-02  0.1064074E+00
         -2   -1    0    0    0  501 -0.00000000000E+00  0.00000000000E+00  0.65730039730E+03  0.65730039730E+03  0.25500000000E-02 0.  1.
          2   -1    0    0  501    0  0.00000000000E+00 -0.00000000000E+00 -0.17205584812E+04  0.17205584812E+04  0.25500000000E-02 0. -1.
    8880022    1    1    2    0    0  0.21765782796E+03  0.22197656740E+03  0.59243223804E+03  0.68630615342E+03  0.15294330000E+03 0.  0.
    8880022    1    1    2    0    0 -0.21765782796E+03 -0.22197656740E+03 -0.16556903219E+04  0.16915527251E+04  0.15294330000E+03 0. -1.
<mgrwt>
<rscale>  0 0.34646815E+03</rscale>
<asrwt>0</asrwt>
<pdfrwt beam="1">  1        2 0.26470130E+00 0.34646815E+03</pdfrwt>
<pdfrwt beam="2">  1       -2 0.10112314E+00 0.34646815E+03</pdfrwt>
<totfact> 0.86259599E+00</totfact>
</mgrwt>
</event>
<event>
 4    1  0.1104584E-007  0.5198647E+03  0.7818608E-02  0.1008720E+00
          2   -1    0    0  501    0  0.00000000000E+00  0.00000000000E+00  0.33363354645E+04  0.33363354645E+04  0.25500000000E-02 0. -1.
         -2   -1    0    0    0  501 -0.00000000000E+00 -0.00000000000E+00 -0.19458131359E+03  0.19458131360E+03  0.25500000000E-02 0.  1.
    8880022    1    1    2    0    0 -0.46098271824E+03  0.18537160329E+03  0.29196880571E+04  0.29656091619E+04  0.15294330000E+03 0.  0.
    8880022    1    1    2    0    0  0.46098271824E+03 -0.18537160329E+03  0.22206609383E+03  0.56530761614E+03  0.15294330000E+03 0.  0.
<mgrwt>
<rscale>  0 0.51986474E+03</rscale>
<asrwt>0</asrwt>
<pdfrwt beam="1">  1        2 0.51328235E+00 0.51986474E+03</pdfrwt>
<pdfrwt beam="2">  1       -2 0.29935588E-01 0.51986474E+03</pdfrwt>
<totfact> 0.12244077E+01</totfact>
</mgrwt>
</event>
<event>
 4    1  0.1104584E-007  0.5769223E+03  0.7818608E-02  0.9954477E-01
          2   -1    0    0  501    0  0.00000000000E+00  0.00000000000E+00  0.72056256872E+03  0.72056256872E+03  0.25500000000E-02 0. -1.
         -2   -1    0    0    0  501 -0.00000000000E+00 -0.00000000000E+00 -0.60905892310E+03  0.60905892310E+03  0.25500000000E-02 0.  1.
    8880022    1    1    2    0    0 -0.54120866735E+03 -0.12861124850E+03  0.38251880780E+03  0.69221381537E+03  0.15294330000E+03 0.  0.
    8880022    1    1    2    0    0  0.54120866735E+03  0.12861124850E+03 -0.27101516218E+03  0.63740767645E+03  0.15294330000E+03 0.  1.
<mgrwt>
<rscale>  0 0.57692229E+03</rscale>
<asrwt>0</asrwt>
<pdfrwt beam="1">  1        2 0.11085578E+00 0.57692229E+03</pdfrwt>
<pdfrwt beam="2">  1       -2 0.93701374E-01 0.57692229E+03</pdfrwt>
<totfact> 0.39129581E+01</totfact>
</mgrwt>
</event>
<event>
 4    1  0.1104584E-007  0.4671844E+03  0.7818608E-02  0.1022718E+00
         -2   -1    0    0    0  501 -0.00000000000E+00  0.00000000000E+00  0.39499602841E+03  0.39499602841E+03  0.25500000000E-02 0.  1.
          2   -1    0    0  501    0  0.00000000000E+00 -0.00000000000E+00 -0.59796464552E+03  0.59796464552E+03  0.25500000000E-02 0. -1.
    8880022    1    1    2    0    0 -0.15527125729E+03  0.41323175399E+03  0.35315873259E+02  0.46851735268E+03  0.15294330000E+03 0.  0.
    8880022    1    1    2    0    0  0.15527125729E+03 -0.41323175399E+03 -0.23828449037E+03  0.52444332126E+03  0.15294330000E+03 0.  0.
<mgrwt>
<rscale>  0 0.46718444E+03</rscale>
<asrwt>0</asrwt>
<pdfrwt beam="1">  1        2 0.91994561E-01 0.46718444E+03</pdfrwt>
<pdfrwt beam="2">  1       -2 0.60768620E-01 0.46718444E+03</pdfrwt>
<totfact> 0.12927905E+02</totfact>
</mgrwt>
</event>
<event>
 4    1  0.1104584E-007  0.1605481E+03  0.7818608E-02  0.1188079E+00
          2   -1    0    0  501    0  0.00000000000E+00  0.00000000000E+00  0.49776493880E+03  0.49776493881E+03  0.25500000000E-02 0. -1.
         -2   -1    0    0    0  501 -0.00000000000E+00 -0.00000000000E+00 -0.42958057749E+03  0.42958057750E+03  0.25500000000E-02 0.  1.
    8880022    1    1    2    0    0 -0.40046317662E+01  0.48662257064E+02  0.46892159214E+03  0.49564419187E+03  0.15294330000E+03 0.  0.
    8880022    1    1    2    0    0  0.40046317662E+01 -0.48662257064E+02 -0.40073723083E+03  0.43170132444E+03  0.15294330000E+03 0.  1.
<mgrwt>
<rscale>  0 0.16054814E+03</rscale>
<asrwt>0</asrwt>
<pdfrwt beam="1">  1        2 0.76579221E-01 0.16054814E+03</pdfrwt>
<pdfrwt beam="2">  1       -2 0.66089320E-01 0.16054814E+03</pdfrwt>
<totfact> 0.13849818E+02</totfact>
</mgrwt>
</event>
<event>
 4    1  0.1104584E-007  0.6918109E+03  0.7818608E-02  0.9731340E-01
         -2   -1    0    0    0  501 -0.00000000000E+00  0.00000000000E+00  0.74268352432E+03  0.74268352432E+03  0.25500000000E-02 0.  1.
          2   -1    0    0  501    0  0.00000000000E+00 -0.00000000000E+00 -0.11381068370E+04  0.11381068371E+04  0.25500000000E-02 0. -1.
    8880022    1    1    2    0    0  0.23514700417E+03  0.63238955925E+03 -0.81707193168E+03  0.10706114434E+04  0.15294330000E+03 0.  0.
    8880022    1    1    2    0    0 -0.23514700417E+03 -0.63238955925E+03  0.42164861895E+03  0.81017891796E+03  0.15294330000E+03 0.  0.
<mgrwt>
<rscale>  0 0.69181090E+03</rscale>
<asrwt>0</asrwt>
<pdfrwt beam="1">  1        2 0.17509336E+00 0.69181090E+03</pdfrwt>
<pdfrwt beam="2">  1       -2 0.11425900E+00 0.69181090E+03</pdfrwt>
<totfact> 0.12688820E+01</totfact>
</mgrwt>
</event>
<event>
 4    1  0.1104584E-007  0.6089132E+03  0.7818608E-02  0.9887085E-01
         -2   -1    0    0    0  501 -0.00000000000E+00  0.00000000000E+00  0.16011071403E+03  0.16011071405E+03  0.25500000000E-02 0.  1.
          2   -1    0    0  501    0  0.00000000000E+00 -0.00000000000E+00 -0.26496365813E+04  0.26496365813E+04  0.25500000000E-02 0. -1.
    8880022    1    1    2    0    0 -0.25250434007E+03  0.53256468002E+03 -0.74605270451E+03  0.96300045227E+03  0.15294330000E+03 0.  0.
    8880022    1    1    2    0    0  0.25250434007E+03 -0.53256468002E+03 -0.17434731627E+04  0.18467468430E+04  0.15294330000E+03 0.  0.
<mgrwt>
<rscale>  0 0.60891316E+03</rscale>
<asrwt>0</asrwt>
<pdfrwt beam="1">  1        2 0.40763637E+00 0.60891316E+03</pdfrwt>
<pdfrwt beam="2">  1       -2 0.24632419E-01 0.60891316E+03</pdfrwt>
<totfact> 0.44753633E+01</totfact>
</mgrwt>
</event>
<event>
 4    1  0.1104584E-007  0.6948587E+03  0.7818608E-02  0.9726065E-01
          2   -1    0    0  501    0  0.00000000000E+00  0.00000000000E+00  0.21391468763E+04  0.21391468763E+04  0.25500000000E-02 0. -1.
         -2   -1    0    0    0  501 -0.00000000000E+00 -0.00000000000E+00 -0.10540227877E+04  0.10540227877E+04  0.25500000000E-02 0.  1.
    8880022    1    1    2    0    0 -0.57264691849E+03 -0.36264641859E+03  0.19579124378E+04  0.20775585877E+04  0.15294330000E+03 0.  0.
    8880022    1    1    2    0    0  0.57264691849E+03  0.36264641859E+03 -0.87278834916E+03  0.11156110763E+04  0.15294330000E+03 0.  0.
<mgrwt>
<rscale>  0 0.69485867E+03</rscale>
<asrwt>0</asrwt>
<pdfrwt beam="1">  1        2 0.32909952E+00 0.69485867E+03</pdfrwt>
<pdfrwt beam="2">  1       -2 0.16215735E+00 0.69485867E+03</pdfrwt>
<totfact> 0.14307584E+00</totfact>
</mgrwt>
</event>
<event>
 4    1  0.1104584E-007  0.5423726E+03  0.7818608E-02  0.1003275E+00
         -2   -1    0    0    0  501 -0.00000000000E+00  0.00000000000E+00  0.25771440167E+04  0.25771440167E+04  0.25500000000E-02 0.  1.
          2   -1    0    0  501    0  0.00000000000E+00 -0.00000000000E+00 -0.17467773682E+03  0.17467773684E+03  0.25500000000E-02 0. -1.
    8880022    1    1    2    0    0 -0.30491101538E+03 -0.42167008782E+03  0.39126718487E+03  0.66877354406E+03  0.15294330000E+03 0.  0.
    8880022    1    1    2    0    0  0.30491101538E+03  0.42167008782E+03  0.20111990950E+04  0.20830482095E+04  0.15294330000E+03 0.  0.
<mgrwt>
<rscale>  0 0.54237261E+03</rscale>
<asrwt>0</asrwt>
<pdfrwt beam="1">  1        2 0.26873498E-01 0.54237261E+03</pdfrwt>
<pdfrwt beam="2">  1       -2 0.39648370E+00 0.54237261E+03</pdfrwt>
<totfact> 0.17388647E+00</totfact>
</mgrwt>
</event>
<event>
 4    1  0.1104584E-007  0.1013741E+04  0.7818608E-02  0.9293601E-01
         -2   -1    0    0    0  501 -0.00000000000E+00  0.00000000000E+00  0.11401799957E+04  0.11401799957E+04  0.25500000000E-02 0.  1.
          2   -1    0    0  501    0  0.00000000000E+00 -0.00000000000E+00 -0.14400098747E+04  0.14400098747E+04  0.25500000000E-02 0. -1.
    8880022    1    1    2    0    0 -0.19002651432E+03  0.98395604558E+03  0.63913930126E+03  0.11984032190E+04  0.15294330000E+03 0.  0.
    8880022    1    1    2    0    0  0.19002651432E+03 -0.98395604558E+03 -0.93896918021E+03  0.13817866515E+04  0.15294330000E+03 0.  0.
<mgrwt>
<rscale>  0 0.10137412E+04</rscale>
<asrwt>0</asrwt>
<pdfrwt beam="1">  1        2 0.22153998E+00 0.10137412E+04</pdfrwt>
<pdfrwt beam="2">  1       -2 0.17541231E+00 0.10137412E+04</pdfrwt>
<totfact> 0.26543923E+00</totfact>
</mgrwt>
</event>
<event>
 4    1  0.1104584E-007  0.1022915E+04  0.7818608E-02  0.9283763E-01
          2   -1    0    0  501    0  0.00000000000E+00  0.00000000000E+00  0.19151885140E+04  0.19151885140E+04  0.25500000000E-02 0. -1.
         -2   -1    0    0    0  501 -0.00000000000E+00 -0.00000000000E+00 -0.79805767602E+03  0.79805767602E+03  0.25500000000E-02 0.  1.
    8880022    1    1    2    0    0 -0.76792580698E+03 -0.65821927618E+03  0.13204590085E+04  0.16703192230E+04  0.15294330000E+03 0.  0.
    8880022    1    1    2    0    0  0.76792580698E+03  0.65821927618E+03 -0.20332817054E+03  0.10429269670E+04  0.15294330000E+03 0.  0.
<mgrwt>
<rscale>  0 0.10229146E+04</rscale>
<asrwt>0</asrwt>
<pdfrwt beam="1">  1        2 0.29464438E+00 0.10229146E+04</pdfrwt>
<pdfrwt beam="2">  1       -2 0.12277811E+00 0.10229146E+04</pdfrwt>
<totfact> 0.37163181E+00</totfact>
</mgrwt>
</event>
<event>
 4    1  0.1104584E-007  0.1120259E+04  0.7818608E-02  0.9185668E-01
         -2   -1    0    0    0  501 -0.00000000000E+00  0.00000000000E+00  0.14856955174E+04  0.14856955174E+04  0.25500000000E-02 0.  1.
          2   -1    0    0  501    0  0.00000000000E+00 -0.00000000000E+00 -0.12123586027E+04  0.12123586027E+04  0.25500000000E-02 0. -1.
    8880022    1    1    2    0    0  0.14231812157E+03 -0.11006064166E+04  0.87955429478E+03  0.14242880125E+04  0.15294330000E+03 0.  0.
    8880022    1    1    2    0    0 -0.14231812157E+03  0.11006064166E+04 -0.60621738007E+03  0.12737661076E+04  0.15294330000E+03 0.  0.
<mgrwt>
<rscale>  0 0.11202592E+04</rscale>
<asrwt>0</asrwt>
<pdfrwt beam="1">  1        2 0.18651671E+00 0.11202592E+04</pdfrwt>
<pdfrwt beam="2">  1       -2 0.22856854E+00 0.11202592E+04</pdfrwt>
<totfact> 0.15930834E+00</totfact>
</mgrwt>
</event>
<event>
 4    1  0.1104584E-007  0.4316401E+03  0.7818608E-02  0.1033343E+00
          2   -1    0    0  501    0  0.00000000000E+00  0.00000000000E+00  0.19519787234E+04  0.19519787234E+04  0.25500000000E-02 0. -1.
         -2   -1    0    0    0  501 -0.00000000000E+00 -0.00000000000E+00 -0.23639374898E+03  0.23639374899E+03  0.25500000000E-02 0.  1.
    8880022    1    1    2    0    0  0.38303315858E+03 -0.12730717282E+03  0.17026796045E+04  0.17565394972E+04  0.15294330000E+03 0.  0.
    8880022    1    1    2    0    0 -0.38303315858E+03  0.12730717282E+03  0.12905369911E+02  0.43183297513E+03  0.15294330000E+03 0.  0.
<mgrwt>
<rscale>  0 0.43164009E+03</rscale>
<asrwt>0</asrwt>
<pdfrwt beam="1">  1        2 0.30030442E+00 0.43164009E+03</pdfrwt>
<pdfrwt beam="2">  1       -2 0.36368269E-01 0.43164009E+03</pdfrwt>
<totfact> 0.54635470E+01</totfact>
</mgrwt>
</event>
<event>
 4    1  0.1104584E-007  0.4573897E+03  0.7818608E-02  0.1025541E+00
         -2   -1    0    0    0  501 -0.00000000000E+00  0.00000000000E+00  0.10327900853E+03  0.10327900856E+03  0.25500000000E-02 0.  1.
          2   -1    0    0  501    0  0.00000000000E+00 -0.00000000000E+00 -0.23463712125E+04  0.23463712125E+04  0.25500000000E-02 0. -1.
    8880022    1    1    2    0    0 -0.46475783312E+02  0.42854831019E+03 -0.15743930876E+04  0.16394873894E+04  0.15294330000E+03 0.  0.
    8880022    1    1    2    0    0  0.46475783312E+02 -0.42854831019E+03 -0.66869911631E+03  0.81016283164E+03  0.15294330000E+03 0.  0.
<mgrwt>
<rscale>  0 0.45738966E+03</rscale>
<asrwt>0</asrwt>
<pdfrwt beam="1">  1        2 0.36098015E+00 0.45738966E+03</pdfrwt>
<pdfrwt beam="2">  1       -2 0.15889080E-01 0.45738966E+03</pdfrwt>
<totfact> 0.14569407E+02</totfact>
</mgrwt>
</event>
<event>
 4    1  0.1104584E-007  0.1002813E+04  0.7818608E-02  0.9305465E-01
          2   -1    0    0  501    0  0.00000000000E+00  0.00000000000E+00  0.15012237478E+04  0.15012237478E+04  0.25500000000E-02 0. -1.
         -2   -1    0    0    0  501 -0.00000000000E+00 -0.00000000000E+00 -0.17372286203E+04  0.17372286203E+04  0.25500000000E-02 0.  1.
    8880022    1    1    2    0    0 -0.77122178288E+03 -0.62246256270E+03  0.11512058908E+04  0.15267315862E+04  0.15294330000E+03 0.  0.
    8880022    1    1    2    0    0  0.77122178288E+03  0.62246256270E+03 -0.13872107633E+04  0.17117207819E+04  0.15294330000E+03 0.  0.
<mgrwt>
<rscale>  0 0.10028132E+04</rscale>
<asrwt>0</asrwt>
<pdfrwt beam="1">  1        2 0.23095750E+00 0.10028132E+04</pdfrwt>
<pdfrwt beam="2">  1       -2 0.26726594E+00 0.10028132E+04</pdfrwt>
<totfact> 0.63839328E-01</totfact>
</mgrwt>
</event>
<event>
 4    1  0.1104584E-007  0.2554821E+03  0.7818608E-02  0.1109888E+00
         -2   -1    0    0    0  501 -0.00000000000E+00  0.00000000000E+00  0.21010556514E+03  0.21010556516E+03  0.25500000000E-02 0.  1.
          2   -1    0    0  501    0  0.00000000000E+00 -0.00000000000E+00 -0.68054539717E+03  0.68054539718E+03  0.25500000000E-02 0. -1.
    8880022    1    1    2    0    0 -0.99831208959E+02  0.17864255624E+03  0.93089584812E+02  0.27191314238E+03  0.15294330000E+03 0.  1.
    8880022    1    1    2    0    0  0.99831208959E+02 -0.17864255624E+03 -0.56352941684E+03  0.61873781996E+03  0.15294330000E+03 0.  0.
<mgrwt>
<rscale>  0 0.25548207E+03</rscale>
<asrwt>0</asrwt>
<pdfrwt beam="1">  1        2 0.10469929E+00 0.25548207E+03</pdfrwt>
<pdfrwt beam="2">  1       -2 0.32323933E-01 0.25548207E+03</pdfrwt>
<totfact> 0.38995987E+02</totfact>
</mgrwt>
</event>
<event>
 4    1  0.1104584E-007  0.3765141E+03  0.7818608E-02  0.1052230E+00
         -2   -1    0    0    0  501 -0.00000000000E+00  0.00000000000E+00  0.10081137895E+03  0.10081137898E+03  0.25500000000E-02 0.  1.
          2   -1    0    0  501    0  0.00000000000E+00 -0.00000000000E+00 -0.26621388336E+04  0.26621388336E+04  0.25500000000E-02 0. -1.
    8880022    1    1    2    0    0 -0.17300548465E+03  0.29738920688E+03 -0.22295379476E+04  0.22611064440E+04  0.15294330000E+03 0.  0.
    8880022    1    1    2    0    0  0.17300548465E+03 -0.29738920688E+03 -0.33178950700E+03  0.50184376858E+03  0.15294330000E+03 0.  0.
<mgrwt>
<rscale>  0 0.37651413E+03</rscale>
<asrwt>0</asrwt>
<pdfrwt beam="1">  1        2 0.40955977E+00 0.37651413E+03</pdfrwt>
<pdfrwt beam="2">  1       -2 0.15509445E-01 0.37651413E+03</pdfrwt>
<totfact> 0.10292466E+02</totfact>
</mgrwt>
</event>
<event>
 4    1  0.1104584E-007  0.9139787E+03  0.7818608E-02  0.9408274E-01
         -2   -1    0    0    0  501 -0.00000000000E+00  0.00000000000E+00  0.53378574806E+03  0.53378574806E+03  0.25500000000E-02 0.  1.
          2   -1    0    0  501    0  0.00000000000E+00 -0.00000000000E+00 -0.23091598314E+04  0.23091598314E+04  0.25500000000E-02 0. -1.
    8880022    1    1    2    0    0 -0.83490827750E+03 -0.33895943138E+03 -0.16946513924E+04  0.19254091313E+04  0.15294330000E+03 0.  0.
    8880022    1    1    2    0    0  0.83490827750E+03  0.33895943138E+03 -0.80722690944E+02  0.91753644821E+03  0.15294330000E+03 0.  0.
<mgrwt>
<rscale>  0 0.91397865E+03</rscale>
<asrwt>0</asrwt>
<pdfrwt beam="1">  1        2 0.35525535E+00 0.91397865E+03</pdfrwt>
<pdfrwt beam="2">  1       -2 0.82120885E-01 0.91397865E+03</pdfrwt>
<totfact> 0.59428223E+00</totfact>
</mgrwt>
</event>
<event>
 4    1  0.1104584E-007  0.9795318E+03  0.7818608E-02  0.9331283E-01
          2   -1    0    0  501    0  0.00000000000E+00  0.00000000000E+00  0.19459326869E+04  0.19459326869E+04  0.25500000000E-02 0. -1.
         -2   -1    0    0    0  501 -0.00000000000E+00 -0.00000000000E+00 -0.81373937734E+03  0.81373937735E+03  0.25500000000E-02 0.  1.
    8880022    1    1    2    0    0  0.94597300633E+03  0.20304171555E+03 -0.30009309721E+03  0.10244698077E+04  0.15294330000E+03 0.  0.
    8880022    1    1    2    0    0 -0.94597300633E+03 -0.20304171555E+03  0.14322864068E+04  0.17352022565E+04  0.15294330000E+03 0.  0.
<mgrwt>
<rscale>  0 0.97953179E+03</rscale>
<asrwt>0</asrwt>
<pdfrwt beam="1">  1        2 0.29937425E+00 0.97953179E+03</pdfrwt>
<pdfrwt beam="2">  1       -2 0.12519068E+00 0.97953179E+03</pdfrwt>
<totfact> 0.34223170E+00</totfact>
</mgrwt>
</event>
<event>
 4    1  0.1104584E-007  0.4644347E+03  0.7818608E-02  0.1023503E+00
          2   -1    0    0  501    0  0.00000000000E+00  0.00000000000E+00  0.28841906938E+04  0.28841906938E+04  0.25500000000E-02 0. -1.
         -2   -1    0    0    0  501 -0.00000000000E+00 -0.00000000000E+00 -0.23152941798E+03  0.23152941800E+03  0.25500000000E-02 0.  1.
    8880022    1    1    2    0    0 -0.33453261835E+03  0.28354165172E+03  0.26081263173E+04  0.26491550504E+04  0.15294330000E+03 0.  0.
    8880022    1    1    2    0    0  0.33453261835E+03 -0.28354165172E+03  0.44534958538E+02  0.46656506143E+03  0.15294330000E+03 0.  0.
<mgrwt>
<rscale>  0 0.46443470E+03</rscale>
<asrwt>0</asrwt>
<pdfrwt beam="1">  1        2 0.44372170E+00 0.46443470E+03</pdfrwt>
<pdfrwt beam="2">  1       -2 0.35619906E-01 0.46443470E+03</pdfrwt>
<totfact> 0.17095515E+01</totfact>
</mgrwt>
</event>
<event>
 4    1  0.1104584E-007  0.3681388E+03  0.7818608E-02  0.1055407E+00
         -2   -1    0    0    0  501 -0.00000000000E+00  0.00000000000E+00  0.35240589901E+03  0.35240589902E+03  0.25500000000E-02 0.  1.
          2   -1    0    0  501    0  0.00000000000E+00 -0.00000000000E+00 -0.24195556911E+04  0.24195556911E+04  0.25500000000E-02 0. -1.
    8880022    1    1    2    0    0 -0.31409907987E+03  0.11608753112E+03  0.23749559977E+03  0.43809857314E+03  0.15294330000E+03 0.  1.
    8880022    1    1    2    0    0  0.31409907987E+03 -0.11608753112E+03 -0.23046453919E+04  0.23338630170E+04  0.15294330000E+03 0.  0.
<mgrwt>
<rscale>  0 0.36813883E+03</rscale>
<asrwt>0</asrwt>
<pdfrwt beam="1">  1        2 0.37223933E+00 0.36813883E+03</pdfrwt>
<pdfrwt beam="2">  1       -2 0.54216294E-01 0.36813883E+03</pdfrwt>
<totfact> 0.14145945E+01</totfact>
</mgrwt>
</event>
<event>
 4    1  0.1104584E-007  0.7862376E+03  0.7818608E-02  0.9580154E-01
         -2   -1    0    0    0  501 -0.00000000000E+00  0.00000000000E+00  0.10999337230E+04  0.10999337230E+04  0.25500000000E-02 0.  1.
          2   -1    0    0  501    0  0.00000000000E+00 -0.00000000000E+00 -0.11857188391E+04  0.11857188391E+04  0.25500000000E-02 0. -1.
    8880022    1    1    2    0    0  0.64603525446E+03  0.42120814228E+03  0.78596834285E+03  0.11117174722E+04  0.15294330000E+03 0.  0.
    8880022    1    1    2    0    0 -0.64603525446E+03 -0.42120814228E+03 -0.87175345886E+03  0.11739350898E+04  0.15294330000E+03 0.  0.
<mgrwt>
<rscale>  0 0.78623756E+03</rscale>
<asrwt>0</asrwt>
<pdfrwt beam="1">  1        2 0.18241828E+00 0.78623756E+03</pdfrwt>
<pdfrwt beam="2">  1       -2 0.16922057E+00 0.78623756E+03</pdfrwt>
<totfact> 0.42434618E+00</totfact>
</mgrwt>
</event>
<event>
 4    1  0.1104584E-007  0.3314269E+03  0.7818608E-02  0.1070507E+00
         -2   -1    0    0    0  501 -0.00000000000E+00  0.00000000000E+00  0.26226501775E+03  0.26226501776E+03  0.25500000000E-02 0.  1.
          2   -1    0    0  501    0  0.00000000000E+00 -0.00000000000E+00 -0.10104021449E+04  0.10104021449E+04  0.25500000000E-02 0. -1.
    8880022    1    1    2    0    0 -0.29401091902E+03 -0.31131238438E+01  0.11283453727E+03  0.35010769466E+03  0.15294330000E+03 0.  1.
    8880022    1    1    2    0    0  0.29401091902E+03  0.31131238438E+01 -0.86097166443E+03  0.92255946800E+03  0.15294330000E+03 0.  0.
<mgrwt>
<rscale>  0 0.33142686E+03</rscale>
<asrwt>0</asrwt>
<pdfrwt beam="1">  1        2 0.15544648E+00 0.33142686E+03</pdfrwt>
<pdfrwt beam="2">  1       -2 0.40348465E-01 0.33142686E+03</pdfrwt>
<totfact> 0.15183963E+02</totfact>
</mgrwt>
</event>
<event>
 4    1  0.1104584E-007  0.4995133E+03  0.7818608E-02  0.1013906E+00
          2   -1    0    0  501    0  0.00000000000E+00  0.00000000000E+00  0.23745522857E+04  0.23745522857E+04  0.25500000000E-02 0. -1.
         -2   -1    0    0    0  501 -0.00000000000E+00 -0.00000000000E+00 -0.72135104576E+03  0.72135104577E+03  0.25500000000E-02 0.  1.
    8880022    1    1    2    0    0 -0.33489144790E+03  0.33759377022E+03  0.22573731966E+04  0.23119790737E+04  0.15294330000E+03 0.  0.
    8880022    1    1    2    0    0  0.33489144790E+03 -0.33759377022E+03 -0.60417195669E+03  0.78392425772E+03  0.15294330000E+03 0.  0.
<mgrwt>
<rscale>  0 0.49951325E+03</rscale>
<asrwt>0</asrwt>
<pdfrwt beam="1">  1        2 0.36531574E+00 0.49951325E+03</pdfrwt>
<pdfrwt beam="2">  1       -2 0.11097708E+00 0.49951325E+03</pdfrwt>
<totfact> 0.29323925E+00</totfact>
</mgrwt>
</event>
<event>
 4    1  0.1104584E-007  0.3130802E+03  0.7818608E-02  0.1078879E+00
         -2   -1    0    0    0  501 -0.00000000000E+00  0.00000000000E+00  0.19640225957E+03  0.19640225959E+03  0.25500000000E-02 0.  1.
          2   -1    0    0  501    0  0.00000000000E+00 -0.00000000000E+00 -0.12946819485E+04  0.12946819485E+04  0.25500000000E-02 0. -1.
    8880022    1    1    2    0    0 -0.10715782314E+03  0.25128624585E+03  0.35300555852E+02  0.31506405487E+03  0.15294330000E+03 0.  0.
    8880022    1    1    2    0    0  0.10715782314E+03 -0.25128624585E+03 -0.11335802447E+04  0.11760201532E+04  0.15294330000E+03 0. -1.
<mgrwt>
<rscale>  0 0.31308023E+03</rscale>
<asrwt>0</asrwt>
<pdfrwt beam="1">  1        2 0.19918183E+00 0.31308023E+03</pdfrwt>
<pdfrwt beam="2">  1       -2 0.30215733E-01 0.31308023E+03</pdfrwt>
<totfact> 0.17877583E+02</totfact>
</mgrwt>
</event>
<event>
 4    1  0.1104584E-007  0.2179581E+03  0.7818608E-02  0.1135415E+00
          2   -1    0    0  501    0  0.00000000000E+00  0.00000000000E+00  0.12726430024E+04  0.12726430024E+04  0.25500000000E-02 0. -1.
         -2   -1    0    0    0  501 -0.00000000000E+00 -0.00000000000E+00 -0.67322334794E+03  0.67322334794E+03  0.25500000000E-02 0.  1.
    8880022    1    1    2    0    0  0.45532982813E+02 -0.14846156208E+03 -0.64586545539E+03  0.68165088383E+03  0.15294330000E+03 0.  0.
    8880022    1    1    2    0    0 -0.45532982813E+02  0.14846156208E+03  0.12452851098E+04  0.12642154665E+04  0.15294330000E+03 0.  0.
<mgrwt>
<rscale>  0 0.21795812E+03</rscale>
<asrwt>0</asrwt>
<pdfrwt beam="1">  1        2 0.19579123E+00 0.21795812E+03</pdfrwt>
<pdfrwt beam="2">  1       -2 0.10357282E+00 0.21795812E+03</pdfrwt>
<totfact> 0.14924364E+01</totfact>
</mgrwt>
</event>
<event>
 4    1  0.1104584E-007  0.4531839E+03  0.7818608E-02  0.1026777E+00
         -2   -1    0    0    0  501 -0.00000000000E+00  0.00000000000E+00  0.78601900301E+03  0.78601900301E+03  0.25500000000E-02 0.  1.
          2   -1    0    0  501    0  0.00000000000E+00 -0.00000000000E+00 -0.56668326292E+03  0.56668326292E+03  0.25500000000E-02 0. -1.
    8880022    1    1    2    0    0 -0.96240324389E+02 -0.41559813826E+03  0.60618551368E+03  0.75685965844E+03  0.15294330000E+03 0.  0.
    8880022    1    1    2    0    0  0.96240324389E+02  0.41559813826E+03 -0.38684977359E+03  0.59584260749E+03  0.15294330000E+03 0.  0.
<mgrwt>
<rscale>  0 0.45318392E+03</rscale>
<asrwt>0</asrwt>
<pdfrwt beam="1">  1        2 0.87182040E-01 0.45318392E+03</pdfrwt>
<pdfrwt beam="2">  1       -2 0.12092600E+00 0.45318392E+03</pdfrwt>
<totfact> 0.28898579E+01</totfact>
</mgrwt>
</event>
<event>
 4    1  0.1104584E-007  0.7333433E+03  0.7818608E-02  0.9661851E-01
          2   -1    0    0  501    0  0.00000000000E+00  0.00000000000E+00  0.39891125061E+04  0.39891125061E+04  0.25500000000E-02 0. -1.
         -2   -1    0    0    0  501 -0.00000000000E+00 -0.00000000000E+00 -0.21537029756E+03  0.21537029757E+03  0.25500000000E-02 0.  1.
    8880022    1    1    2    0    0 -0.49302703843E+03 -0.52088875134E+03  0.31725620847E+04  0.32562159919E+04  0.15294330000E+03 0.  0.
    8880022    1    1    2    0    0  0.49302703843E+03  0.52088875134E+03  0.60118012384E+03  0.94826681172E+03  0.15294330000E+03 0.  0.
<mgrwt>
<rscale>  0 0.73334331E+03</rscale>
<asrwt>0</asrwt>
<pdfrwt beam="1">  1        2 0.61370959E+00 0.73334331E+03</pdfrwt>
<pdfrwt beam="2">  1       -2 0.33133893E-01 0.73334331E+03</pdfrwt>
<totfact> 0.32966773E+00</totfact>
</mgrwt>
</event>
<event>
 4    1  0.1104584E-007  0.8178138E+03  0.7818608E-02  0.9534584E-01
          2   -1    0    0  501    0  0.00000000000E+00  0.00000000000E+00  0.25296209938E+04  0.25296209938E+04  0.25500000000E-02 0. -1.
         -2   -1    0    0    0  501 -0.00000000000E+00 -0.00000000000E+00 -0.45039634230E+03  0.45039634231E+03  0.25500000000E-02 0.  1.
    8880022    1    1    2    0    0 -0.52248978102E+03  0.61027224238E+03  0.19971354525E+04  0.21580939390E+04  0.15294330000E+03 0.  0.
    8880022    1    1    2    0    0  0.52248978102E+03 -0.61027224238E+03  0.82089199032E+02  0.82192339710E+03  0.15294330000E+03 0.  0.
<mgrwt>
<rscale>  0 0.81781381E+03</rscale>
<asrwt>0</asrwt>
<pdfrwt beam="1">  1        2 0.38917247E+00 0.81781381E+03</pdfrwt>
<pdfrwt beam="2">  1       -2 0.69291743E-01 0.81781381E+03</pdfrwt>
<totfact> 0.66041404E+00</totfact>
</mgrwt>
</event>
<event>
 4    1  0.1104584E-007  0.5009993E+03  0.7818608E-02  0.1013518E+00
          2   -1    0    0  501    0  0.00000000000E+00  0.00000000000E+00  0.12564069396E+04  0.12564069396E+04  0.25500000000E-02 0. -1.
         -2   -1    0    0    0  501 -0.00000000000E+00 -0.00000000000E+00 -0.33426461526E+03  0.33426461527E+03  0.25500000000E-02 0.  1.
    8880022    1    1    2    0    0 -0.14704115674E+03  0.45385855982E+03 -0.43413039848E+02  0.50287676337E+03  0.15294330000E+03 0.  0.
    8880022    1    1    2    0    0  0.14704115674E+03 -0.45385855982E+03  0.96555536418E+03  0.10877947915E+04  0.15294330000E+03 0.  0.
<mgrwt>
<rscale>  0 0.50099935E+03</rscale>
<asrwt>0</asrwt>
<pdfrwt beam="1">  1        2 0.19329337E+00 0.50099935E+03</pdfrwt>
<pdfrwt beam="2">  1       -2 0.51425326E-01 0.50099935E+03</pdfrwt>
<totfact> 0.65534842E+01</totfact>
</mgrwt>
</event>
<event>
 4    1  0.1104584E-007  0.4010993E+03  0.7818608E-02  0.1043400E+00
         -2   -1    0    0    0  501 -0.00000000000E+00  0.00000000000E+00  0.21820342222E+03  0.21820342224E+03  0.25500000000E-02 0.  1.
          2   -1    0    0  501    0  0.00000000000E+00 -0.00000000000E+00 -0.22173339796E+04  0.22173339796E+04  0.25500000000E-02 0. -1.
    8880022    1    1    2    0    0  0.22691583537E+03  0.29325450054E+03 -0.46511767171E+01  0.40112627050E+03  0.15294330000E+03 0.  0.
    8880022    1    1    2    0    0 -0.22691583537E+03 -0.29325450054E+03 -0.19944793806E+04  0.20344111313E+04  0.15294330000E+03 0.  0.
<mgrwt>
<rscale>  0 0.40109930E+03</rscale>
<asrwt>0</asrwt>
<pdfrwt beam="1">  1        2 0.34112829E+00 0.40109930E+03</pdfrwt>
<pdfrwt beam="2">  1       -2 0.33569759E-01 0.40109930E+03</pdfrwt>
<totfact> 0.46079611E+01</totfact>
</mgrwt>
</event>
<event>
 4    1  0.1104584E-007  0.5543875E+03  0.7818608E-02  0.1000483E+00
          2   -1    0    0  501    0  0.00000000000E+00  0.00000000000E+00  0.41414884440E+04  0.41414884440E+04  0.25500000000E-02 0. -1.
         -2   -1    0    0    0  501 -0.00000000000E+00 -0.00000000000E+00 -0.10644941165E+03  0.10644941168E+03  0.25500000000E-02 0.  1.
    8880022    1    1    2    0    0 -0.20454489867E+03  0.49205207554E+03  0.84866386450E+03  0.10136941691E+04  0.15294330000E+03 0.  0.
    8880022    1    1    2    0    0  0.20454489867E+03 -0.49205207554E+03  0.31863751678E+04  0.32342436865E+04  0.15294330000E+03 0.  0.
<mgrwt>
<rscale>  0 0.55438751E+03</rscale>
<asrwt>0</asrwt>
<pdfrwt beam="1">  1        2 0.63715221E+00 0.55438751E+03</pdfrwt>
<pdfrwt beam="2">  1       -2 0.16376829E-01 0.55438751E+03</pdfrwt>
<totfact> 0.91653934E+00</totfact>
</mgrwt>
</event>
<event>
 4    1  0.1104584E-007  0.1868410E+04  0.7818608E-02  0.8670743E-01
         -2   -1    0    0    0  501 -0.00000000000E+00  0.00000000000E+00  0.23283123967E+04  0.23283123967E+04  0.25500000000E-02 0.  1.
          2   -1    0    0  501    0  0.00000000000E+00 -0.00000000000E+00 -0.16764189719E+04  0.16764189719E+04  0.25500000000E-02 0. -1.
    8880022    1    1    2    0    0  0.56418648160E+03 -0.17746143784E+04  0.97671120619E+03  0.21082976572E+04  0.15294330000E+03 0.  0.
    8880022    1    1    2    0    0 -0.56418648160E+03  0.17746143784E+04 -0.32481778135E+03  0.18964337115E+04  0.15294330000E+03 0.  0.
<mgrwt>
<rscale>  0 0.18684095E+04</rscale>
<asrwt>0</asrwt>
<pdfrwt beam="1">  1        2 0.25791061E+00 0.18684095E+04</pdfrwt>
<pdfrwt beam="2">  1       -2 0.35820191E+00 0.18684095E+04</pdfrwt>
<totfact> 0.12612975E-01</totfact>
</mgrwt>
</event>
<event>
 4    1  0.1104584E-007  0.2492463E+03  0.7818608E-02  0.1113782E+00
         -2   -1    0    0    0  501 -0.00000000000E+00  0.00000000000E+00  0.55541535181E+03  0.55541535182E+03  0.25500000000E-02 0.  1.
          2   -1    0    0  501    0  0.00000000000E+00 -0.00000000000E+00 -0.11629665735E+03  0.11629665738E+03  0.25500000000E-02 0. -1.
    8880022    1    1    2    0    0  0.21058886363E+02 -0.19567473396E+03  0.15389339483E+03  0.29292816217E+03  0.15294330000E+03 0. -1.
    8880022    1    1    2    0    0 -0.21058886363E+02  0.19567473396E+03  0.28522529963E+03  0.37878384703E+03  0.15294330000E+03 0.  1.
<mgrwt>
<rscale>  0 0.24924633E+03</rscale>
<asrwt>0</asrwt>
<pdfrwt beam="1">  1        2 0.17891794E-01 0.24924633E+03</pdfrwt>
<pdfrwt beam="2">  1       -2 0.85448514E-01 0.24924633E+03</pdfrwt>
<totfact> 0.38946328E+02</totfact>
</mgrwt>
</event>
<event>
 4    1  0.1104584E-007  0.8932105E+03  0.7818608E-02  0.9434109E-01
          2   -1    0    0  501    0  0.00000000000E+00  0.00000000000E+00  0.28385160333E+04  0.28385160333E+04  0.25500000000E-02 0. -1.
         -2   -1    0    0    0  501 -0.00000000000E+00 -0.00000000000E+00 -0.49255932852E+03  0.49255932852E+03  0.25500000000E-02 0.  1.
    8880022    1    1    2    0    0  0.13262714505E+03 -0.86996744293E+03  0.81617837231E+02  0.89693167841E+03  0.15294330000E+03 0.  0.
    8880022    1    1    2    0    0 -0.13262714505E+03  0.86996744293E+03  0.22643388675E+04  0.24341436834E+04  0.15294330000E+03 0.  0.
<mgrwt>
<rscale>  0 0.89321048E+03</rscale>
<asrwt>0</asrwt>
<pdfrwt beam="1">  1        2 0.43669477E+00 0.89321048E+03</pdfrwt>
<pdfrwt beam="2">  1       -2 0.75778358E-01 0.89321048E+03</pdfrwt>
<totfact> 0.35372090E+00</totfact>
</mgrwt>
</event>
<event>
 4    1  0.1104584E-007  0.5592171E+03  0.7818608E-02  0.9993828E-01
          2   -1    0    0  501    0  0.00000000000E+00  0.00000000000E+00  0.22565344451E+04  0.22565344451E+04  0.25500000000E-02 0. -1.
         -2   -1    0    0    0  501 -0.00000000000E+00 -0.00000000000E+00 -0.29378010299E+03  0.29378010300E+03  0.25500000000E-02 0.  1.
    8880022    1    1    2    0    0  0.17656833623E+03 -0.50809026091E+03  0.54567875355E+02  0.56187311434E+03  0.15294330000E+03 0.  0.
    8880022    1    1    2    0    0 -0.17656833623E+03  0.50809026091E+03  0.19081864667E+04  0.19884414337E+04  0.15294330000E+03 0.  0.
<mgrwt>
<rscale>  0 0.55921708E+03</rscale>
<asrwt>0</asrwt>
<pdfrwt beam="1">  1        2 0.34715916E+00 0.55921708E+03</pdfrwt>
<pdfrwt beam="2">  1       -2 0.45196938E-01 0.55921708E+03</pdfrwt>
<totfact> 0.23893522E+01</totfact>
</mgrwt>
</event>
<event>
 4    1  0.1104584E-007  0.2771358E+03  0.7818608E-02  0.1097264E+00
          2   -1    0    0  501    0  0.00000000000E+00  0.00000000000E+00  0.26570097352E+04  0.26570097352E+04  0.25500000000E-02 0. -1.
         -2   -1    0    0    0  501 -0.00000000000E+00 -0.00000000000E+00 -0.11072554660E+03  0.11072554663E+03  0.25500000000E-02 0.  1.
    8880022    1    1    2    0    0 -0.19281472961E+03  0.12741703840E+03  0.83549034599E+02  0.28945589617E+03  0.15294330000E+03 0.  0.
    8880022    1    1    2    0    0  0.19281472961E+03 -0.12741703840E+03  0.24627351540E+04  0.24782793857E+04  0.15294330000E+03 0.  0.
<mgrwt>
<rscale>  0 0.27713584E+03</rscale>
<asrwt>0</asrwt>
<pdfrwt beam="1">  1        2 0.40877070E+00 0.27713584E+03</pdfrwt>
<pdfrwt beam="2">  1       -2 0.17034701E-01 0.27713584E+03</pdfrwt>
<totfact> 0.91100170E+01</totfact>
</mgrwt>
</event>
<event>
 4    1  0.1104584E-007  0.5805288E+03  0.7818608E-02  0.9946647E-01
          2   -1    0    0  501    0  0.00000000000E+00  0.00000000000E+00  0.20645769871E+04  0.20645769871E+04  0.25500000000E-02 0. -1.
         -2   -1    0    0    0  501 -0.00000000000E+00 -0.00000000000E+00 -0.34473020140E+03  0.34473020141E+03  0.25500000000E-02 0.  1.
    8880022    1    1    2    0    0  0.33636014995E+03 -0.44775430491E+03  0.17340083395E+04  0.18286056553E+04  0.15294330000E+03 0.  0.
    8880022    1    1    2    0    0 -0.33636014995E+03  0.44775430491E+03 -0.14161553828E+02  0.58070153320E+03  0.15294330000E+03 0.  0.
<mgrwt>
<rscale>  0 0.58052883E+03</rscale>
<asrwt>0</asrwt>
<pdfrwt beam="1">  1        2 0.31762723E+00 0.58052883E+03</pdfrwt>
<pdfrwt beam="2">  1       -2 0.53035415E-01 0.58052883E+03</pdfrwt>
<totfact> 0.21924964E+01</totfact>
</mgrwt>
</event>
<event>
 4    1  0.1104584E-007  0.5397287E+03  0.7818608E-02  0.1003900E+00
         -2   -1    0    0    0  501 -0.00000000000E+00  0.00000000000E+00  0.35697794494E+03  0.35697794495E+03  0.25500000000E-02 0.  1.
          2   -1    0    0  501    0  0.00000000000E+00 -0.00000000000E+00 -0.16076042489E+04  0.16076042489E+04  0.25500000000E-02 0. -1.
    8880022    1    1    2    0    0  0.51760536904E+03  0.25903008156E+00  0.63965259853E+02  0.54350583496E+03  0.15294330000E+03 0.  0.
    8880022    1    1    2    0    0 -0.51760536904E+03 -0.25903008156E+00 -0.13145915639E+04  0.14210763589E+04  0.15294330000E+03 0.  0.
<mgrwt>
<rscale>  0 0.53972867E+03</rscale>
<asrwt>0</asrwt>
<pdfrwt beam="1">  1        2 0.24732373E+00 0.53972867E+03</pdfrwt>
<pdfrwt beam="2">  1       -2 0.54919685E-01 0.53972867E+03</pdfrwt>
<totfact> 0.36305748E+01</totfact>
</mgrwt>
</event>
<event>
 4    1  0.1104584E-007  0.7131097E+03  0.7818608E-02  0.9695072E-01
         -2   -1    0    0    0  501 -0.00000000000E+00  0.00000000000E+00  0.37487138012E+03  0.37487138013E+03  0.25500000000E-02 0.  1.
          2   -1    0    0  501    0  0.00000000000E+00 -0.00000000000E+00 -0.18045132791E+04  0.18045132791E+04  0.25500000000E-02 0. -1.
    8880022    1    1    2    0    0 -0.20933158455E+03  0.66431477889E+03 -0.17187927168E+03  0.73353116824E+03  0.15294330000E+03 0.  0.
    8880022    1    1    2    0    0  0.20933158455E+03 -0.66431477889E+03 -0.12577626273E+04  0.14458534910E+04  0.15294330000E+03 0.  0.
<mgrwt>
<rscale>  0 0.71310973E+03</rscale>
<asrwt>0</asrwt>
<pdfrwt beam="1">  1        2 0.27761742E+00 0.71310973E+03</pdfrwt>
<pdfrwt beam="2">  1       -2 0.57672521E-01 0.71310973E+03</pdfrwt>
<totfact> 0.24980905E+01</totfact>
</mgrwt>
</event>
<event>
 4    1  0.1104584E-007  0.9394423E+03  0.7818608E-02  0.9377577E-01
          2   -1    0    0  501    0  0.00000000000E+00  0.00000000000E+00  0.15312358285E+04  0.15312358285E+04  0.25500000000E-02 0. -1.
         -2   -1    0    0    0  501 -0.00000000000E+00 -0.00000000000E+00 -0.85893789011E+03  0.85893789011E+03  0.25500000000E-02 0.  1.
    8880022    1    1    2    0    0 -0.23096007339E+03  0.89767345677E+03 -0.34931287120E+03  0.10022830566E+04  0.15294330000E+03 0.  0.
    8880022    1    1    2    0    0  0.23096007339E+03 -0.89767345677E+03  0.10216108096E+04  0.13878906620E+04  0.15294330000E+03 0.  0.
<mgrwt>
<rscale>  0 0.93944230E+03</rscale>
<asrwt>0</asrwt>
<pdfrwt beam="1">  1        2 0.23557474E+00 0.93944230E+03</pdfrwt>
<pdfrwt beam="2">  1       -2 0.13214429E+00 0.93944230E+03</pdfrwt>
<totfact> 0.50809496E+00</totfact>
</mgrwt>
</event>
<event>
 4    1  0.1104584E-007  0.7415600E+03  0.7818608E-02  0.9648685E-01
          2   -1    0    0  501    0  0.00000000000E+00  0.00000000000E+00  0.77172402727E+03  0.77172402727E+03  0.25500000000E-02 0. -1.
         -2   -1    0    0    0  501 -0.00000000000E+00 -0.00000000000E+00 -0.17215708467E+04  0.17215708467E+04  0.25500000000E-02 0.  1.
    8880022    1    1    2    0    0 -0.81301542003E+02  0.72104763173E+03  0.47946658757E+03  0.88306256266E+03  0.15294330000E+03 0.  0.
    8880022    1    1    2    0    0  0.81301542003E+02 -0.72104763173E+03 -0.14293134070E+04  0.16102323113E+04  0.15294330000E+03 0.  0.
<mgrwt>
<rscale>  0 0.74156003E+03</rscale>
<asrwt>0</asrwt>
<pdfrwt beam="1">  1        2 0.11872677E+00 0.74156003E+03</pdfrwt>
<pdfrwt beam="2">  1       -2 0.26485705E+00 0.74156003E+03</pdfrwt>
<totfact> 0.19508143E+00</totfact>
</mgrwt>
</event>
<event>
 4    1  0.1104584E-007  0.6073059E+03  0.7818608E-02  0.9890363E-01
         -2   -1    0    0    0  501 -0.00000000000E+00  0.00000000000E+00  0.72164123988E+03  0.72164123988E+03  0.25500000000E-02 0.  1.
          2   -1    0    0  501    0  0.00000000000E+00 -0.00000000000E+00 -0.13974903595E+04  0.13974903595E+04  0.25500000000E-02 0. -1.
    8880022    1    1    2    0    0  0.57800267237E+03 -0.10649751563E+03 -0.11817829162E+04  0.13286953466E+04  0.15294330000E+03 0.  0.
    8880022    1    1    2    0    0 -0.57800267237E+03  0.10649751563E+03  0.50593379660E+03  0.79043625274E+03  0.15294330000E+03 0.  0.
<mgrwt>
<rscale>  0 0.60730591E+03</rscale>
<asrwt>0</asrwt>
<pdfrwt beam="1">  1        2 0.21499852E+00 0.60730591E+03</pdfrwt>
<pdfrwt beam="2">  1       -2 0.11102173E+00 0.60730591E+03</pdfrwt>
<totfact> 0.97456982E+00</totfact>
</mgrwt>
</event>
<event>
 4    1  0.1104584E-007  0.3520158E+03  0.7818608E-02  0.1061791E+00
          2   -1    0    0  501    0  0.00000000000E+00  0.00000000000E+00  0.99474621354E+03  0.99474621354E+03  0.25500000000E-02 0. -1.
         -2   -1    0    0    0  501 -0.00000000000E+00 -0.00000000000E+00 -0.18838779424E+03  0.18838779426E+03  0.25500000000E-02 0.  1.
    8880022    1    1    2    0    0 -0.19851738084E+03 -0.24721312270E+03  0.58869048846E+02  0.35690432395E+03  0.15294330000E+03 0.  0.
    8880022    1    1    2    0    0  0.19851738084E+03  0.24721312270E+03  0.74748937045E+03  0.82622968385E+03  0.15294330000E+03 0.  0.
<mgrwt>
<rscale>  0 0.35201581E+03</rscale>
<asrwt>0</asrwt>
<pdfrwt beam="1">  1        2 0.15303788E+00 0.35201581E+03</pdfrwt>
<pdfrwt beam="2">  1       -2 0.28982737E-01 0.35201581E+03</pdfrwt>
<totfact> 0.28780739E+02</totfact>
</mgrwt>
</event>
<event>
 4    1  0.1104584E-007  0.1206058E+04  0.7818608E-02  0.9107570E-01
         -2   -1    0    0    0  501 -0.00000000000E+00  0.00000000000E+00  0.11214043747E+04  0.11214043747E+04  0.25500000000E-02 0.  1.
          2   -1    0    0  501    0  0.00000000000E+00 -0.00000000000E+00 -0.16893738591E+04  0.16893738591E+04  0.25500000000E-02 0. -1.
    8880022    1    1    2    0    0  0.11535306384E+04  0.31709817551E+03 -0.96120086153E+03  0.15422331004E+04  0.15294330000E+03 0.  0.
    8880022    1    1    2    0    0 -0.11535306384E+04 -0.31709817551E+03  0.39323137707E+03  0.12685451334E+04  0.15294330000E+03 0.  0.
<mgrwt>
<rscale>  0 0.12060580E+04</rscale>
<asrwt>0</asrwt>
<pdfrwt beam="1">  1        2 0.25990367E+00 0.12060580E+04</pdfrwt>
<pdfrwt beam="2">  1       -2 0.17252375E+00 0.12060580E+04</pdfrwt>
<totfact> 0.19726242E+00</totfact>
</mgrwt>
</event>
<event>
 4    1  0.1104584E-007  0.1052503E+04  0.7818608E-02  0.9252764E-01
          2   -1    0    0  501    0  0.00000000000E+00  0.00000000000E+00  0.19832921554E+04  0.19832921554E+04  0.25500000000E-02 0. -1.
         -2   -1    0    0    0  501 -0.00000000000E+00 -0.00000000000E+00 -0.22504523841E+04  0.22504523841E+04  0.25500000000E-02 0.  1.
    8880022    1    1    2    0    0  0.15027463431E+03 -0.10304310252E+04 -0.19690520746E+04  0.22326952969E+04  0.15294330000E+03 0.  0.
    8880022    1    1    2    0    0 -0.15027463431E+03  0.10304310252E+04  0.17018918459E+04  0.20010492427E+04  0.15294330000E+03 0.  0.
<mgrwt>
<rscale>  0 0.10525028E+04</rscale>
<asrwt>0</asrwt>
<pdfrwt beam="1">  1        2 0.30512187E+00 0.10525028E+04</pdfrwt>
<pdfrwt beam="2">  1       -2 0.34622344E+00 0.10525028E+04</pdfrwt>
<totfact> 0.11293502E-01</totfact>
</mgrwt>
</event>
<event>
 4    1  0.1104584E-007  0.4578321E+03  0.7818608E-02  0.1025412E+00
          2   -1    0    0  501    0  0.00000000000E+00  0.00000000000E+00  0.16180024772E+04  0.16180024772E+04  0.25500000000E-02 0. -1.
         -2   -1    0    0    0  501 -0.00000000000E+00 -0.00000000000E+00 -0.20004161285E+03  0.20004161287E+03  0.25500000000E-02 0.  1.
    8880022    1    1    2    0    0  0.64516628648E+02 -0.42668042800E+03  0.16936203884E+03  0.48815339415E+03  0.15294330000E+03 0.  1.
    8880022    1    1    2    0    0 -0.64516628648E+02  0.42668042800E+03  0.12485988255E+04  0.13298906959E+04  0.15294330000E+03 0.  0.
<mgrwt>
<rscale>  0 0.45783210E+03</rscale>
<asrwt>0</asrwt>
<pdfrwt beam="1">  1        2 0.24892347E+00 0.45783210E+03</pdfrwt>
<pdfrwt beam="2">  1       -2 0.30775631E-01 0.45783210E+03</pdfrwt>
<totfact> 0.11232743E+02</totfact>
</mgrwt>
</event>
<event>
 4    1  0.1104584E-007  0.2598479E+03  0.7818608E-02  0.1107235E+00
         -2   -1    0    0    0  501 -0.00000000000E+00  0.00000000000E+00  0.12439540949E+03  0.12439540952E+03  0.25500000000E-02 0.  1.
          2   -1    0    0  501    0  0.00000000000E+00 -0.00000000000E+00 -0.12170704434E+04  0.12170704434E+04  0.25500000000E-02 0. -1.
    8880022    1    1    2    0    0  0.50160793554E+02  0.20399306628E+03 -0.10455795664E+04  0.10773845920E+04  0.15294330000E+03 0.  0.
    8880022    1    1    2    0    0 -0.50160793554E+02 -0.20399306628E+03 -0.47095467466E+02  0.26408126093E+03  0.15294330000E+03 0.  0.
<mgrwt>
<rscale>  0 0.25984790E+03</rscale>
<asrwt>0</asrwt>
<pdfrwt beam="1">  1        2 0.18724160E+00 0.25984790E+03</pdfrwt>
<pdfrwt beam="2">  1       -2 0.19137756E-01 0.25984790E+03</pdfrwt>
<totfact> 0.44612634E+02</totfact>
</mgrwt>
</event>
<event>
 4    1  0.1104584E-007  0.8494807E+03  0.7818608E-02  0.9491034E-01
         -2   -1    0    0    0  501 -0.00000000000E+00  0.00000000000E+00  0.25789068870E+03  0.25789068871E+03  0.25500000000E-02 0.  1.
          2   -1    0    0  501    0  0.00000000000E+00 -0.00000000000E+00 -0.40795232332E+04  0.40795232332E+04  0.25500000000E-02 0. -1.
    8880022    1    1    2    0    0  0.30803334931E+03  0.77675047617E+03 -0.31262563492E+04  0.32396135974E+04  0.15294330000E+03 0.  0.
    8880022    1    1    2    0    0 -0.30803334931E+03 -0.77675047617E+03 -0.69537619532E+03  0.10978003245E+04  0.15294330000E+03 0.  0.
<mgrwt>
<rscale>  0 0.84948072E+03</rscale>
<asrwt>0</asrwt>
<pdfrwt beam="1">  1        2 0.62761891E+00 0.84948072E+03</pdfrwt>
<pdfrwt beam="2">  1       -2 0.39675494E-01 0.84948072E+03</pdfrwt>
<totfact> 0.19260674E+00</totfact>
</mgrwt>
</event>
<event>
 4    1  0.1104584E-007  0.4324095E+03  0.7818608E-02  0.1033102E+00
         -2   -1    0    0    0  501 -0.00000000000E+00  0.00000000000E+00  0.19992726441E+03  0.19992726442E+03  0.25500000000E-02 0.  1.
          2   -1    0    0  501    0  0.00000000000E+00 -0.00000000000E+00 -0.17244439001E+04  0.17244439001E+04  0.25500000000E-02 0. -1.
    8880022    1    1    2    0    0 -0.16031750417E+03 -0.37132813651E+03 -0.11133216441E+03  0.44651180383E+03  0.15294330000E+03 0.  0.
    8880022    1    1    2    0    0  0.16031750417E+03  0.37132813651E+03 -0.14131844713E+04  0.14778593607E+04  0.15294330000E+03 0.  0.
<mgrwt>
<rscale>  0 0.43240946E+03</rscale>
<asrwt>0</asrwt>
<pdfrwt beam="1">  1        2 0.26529905E+00 0.43240946E+03</pdfrwt>
<pdfrwt beam="2">  1       -2 0.30758042E-01 0.43240946E+03</pdfrwt>
<totfact> 0.98949118E+01</totfact>
</mgrwt>
</event>
<event>
 4    1  0.1104584E-007  0.4901431E+03  0.7818608E-02  0.1016384E+00
         -2   -1    0    0    0  501 -0.00000000000E+00  0.00000000000E+00  0.83234547069E+03  0.83234547070E+03  0.25500000000E-02 0.  1.
          2   -1    0    0  501    0  0.00000000000E+00 -0.00000000000E+00 -0.16098627413E+04  0.16098627413E+04  0.25500000000E-02 0. -1.
    8880022    1    1    2    0    0 -0.40573874243E+03  0.22852729735E+03  0.71747751176E+03  0.86891558027E+03  0.15294330000E+03 0.  0.
    8880022    1    1    2    0    0  0.40573874243E+03 -0.22852729735E+03 -0.14949947823E+04  0.15732926317E+04  0.15294330000E+03 0.  0.
<mgrwt>
<rscale>  0 0.49014315E+03</rscale>
<asrwt>0</asrwt>
<pdfrwt beam="1">  1        2 0.24767119E+00 0.49014315E+03</pdfrwt>
<pdfrwt beam="2">  1       -2 0.12805315E+00 0.49014315E+03</pdfrwt>
<totfact> 0.53639070E+00</totfact>
</mgrwt>
</event>
<event>
 4    1  0.1104584E-007  0.8924233E+03  0.7818608E-02  0.9435103E-01
          2   -1    0    0  501    0  0.00000000000E+00  0.00000000000E+00  0.23202254387E+04  0.23202254387E+04  0.25500000000E-02 0. -1.
         -2   -1    0    0    0  501 -0.00000000000E+00 -0.00000000000E+00 -0.82390201171E+03  0.82390201172E+03  0.25500000000E-02 0.  1.
    8880022    1    1    2    0    0 -0.58633515704E+03 -0.65516317225E+03 -0.45257382184E+03  0.10006210151E+04  0.15294330000E+03 0.  0.
    8880022    1    1    2    0    0  0.58633515704E+03  0.65516317225E+03  0.19488972488E+04  0.21435064353E+04  0.15294330000E+03 0.  0.
<mgrwt>
<rscale>  0 0.89242330E+03</rscale>
<asrwt>0</asrwt>
<pdfrwt beam="1">  1        2 0.35695776E+00 0.89242330E+03</pdfrwt>
<pdfrwt beam="2">  1       -2 0.12675416E+00 0.89242330E+03</pdfrwt>
<totfact> 0.20845748E+00</totfact>
</mgrwt>
</event>
<event>
 4    1  0.1104584E-007  0.8226474E+03  0.7818608E-02  0.9527802E-01
         -2   -1    0    0    0  501 -0.00000000000E+00  0.00000000000E+00  0.14685767490E+04  0.14685767490E+04  0.25500000000E-02 0.  1.
          2   -1    0    0  501    0  0.00000000000E+00 -0.00000000000E+00 -0.61527608294E+03  0.61527608295E+03  0.25500000000E-02 0. -1.
    8880022    1    1    2    0    0 -0.80010121972E+03  0.11486979503E+03  0.94869222743E+03  0.12556932854E+04  0.15294330000E+03 0.  0.
    8880022    1    1    2    0    0  0.80010121972E+03 -0.11486979503E+03 -0.95391561345E+02  0.82815954658E+03  0.15294330000E+03 0.  0.
<mgrwt>
<rscale>  0 0.82264736E+03</rscale>
<asrwt>0</asrwt>
<pdfrwt beam="1">  1        2 0.94657860E-01 0.82264736E+03</pdfrwt>
<pdfrwt beam="2">  1       -2 0.22593488E+00 0.82264736E+03</pdfrwt>
<totfact> 0.44293133E+00</totfact>
</mgrwt>
</event>
<event>
 4    1  0.1104584E-007  0.4736653E+03  0.7818608E-02  0.1020891E+00
          2   -1    0    0  501    0  0.00000000000E+00  0.00000000000E+00  0.27449745638E+03  0.27449745639E+03  0.25500000000E-02 0. -1.
         -2   -1    0    0    0  501 -0.00000000000E+00 -0.00000000000E+00 -0.12484365258E+04  0.12484365258E+04  0.25500000000E-02 0.  1.
    8880022    1    1    2    0    0  0.34462956177E+03 -0.28670122335E+03 -0.93442850924E+03  0.10476237007E+04  0.15294330000E+03 0.  1.
    8880022    1    1    2    0    0 -0.34462956177E+03  0.28670122335E+03 -0.39510560153E+02  0.47531028149E+03  0.15294330000E+03 0.  0.
<mgrwt>
<rscale>  0 0.47366526E+03</rscale>
<asrwt>0</asrwt>
<pdfrwt beam="1">  1        2 0.42230379E-01 0.47366526E+03</pdfrwt>
<pdfrwt beam="2">  1       -2 0.19206715E+00 0.47366526E+03</pdfrwt>
<totfact> 0.19028598E+01</totfact>
</mgrwt>
</event>
<event>
 4    1  0.1104584E-007  0.2396320E+03  0.7818608E-02  0.1120038E+00
          2   -1    0    0  501    0  0.00000000000E+00  0.00000000000E+00  0.88486871859E+03  0.88486871859E+03  0.25500000000E-02 0. -1.
         -2   -1    0    0    0  501 -0.00000000000E+00 -0.00000000000E+00 -0.27830564504E+03  0.27830564505E+03  0.25500000000E-02 0.  1.
    8880022    1    1    2    0    0  0.11961380850E+03 -0.14044358809E+03 -0.20600465476E+03  0.31600860022E+03  0.15294330000E+03 0.  0.
    8880022    1    1    2    0    0 -0.11961380850E+03  0.14044358809E+03  0.81256772830E+03  0.84716576342E+03  0.15294330000E+03 0. -1.
<mgrwt>
<rscale>  0 0.23963205E+03</rscale>
<asrwt>0</asrwt>
<pdfrwt beam="1">  1        2 0.13613365E+00 0.23963205E+03</pdfrwt>
<pdfrwt beam="2">  1       -2 0.42816254E-01 0.23963205E+03</pdfrwt>
<totfact> 0.16491146E+02</totfact>
</mgrwt>
</event>
<event>
 4    1  0.1104584E-007  0.3621034E+03  0.7818608E-02  0.1057754E+00
         -2   -1    0    0    0  501 -0.00000000000E+00  0.00000000000E+00  0.32805727374E+03  0.32805727375E+03  0.25500000000E-02 0.  1.
          2   -1    0    0  501    0  0.00000000000E+00 -0.00000000000E+00 -0.16485996244E+04  0.16485996244E+04  0.25500000000E-02 0. -1.
    8880022    1    1    2    0    0  0.21808464544E+03 -0.24528825072E+03  0.19995060481E+03  0.41364131309E+03  0.15294330000E+03 0.  0.
    8880022    1    1    2    0    0 -0.21808464544E+03  0.24528825072E+03 -0.15204929555E+04  0.15630155851E+04  0.15294330000E+03 0. -1.
<mgrwt>
<rscale>  0 0.36210343E+03</rscale>
<asrwt>0</asrwt>
<pdfrwt beam="1">  1        2 0.25363071E+00 0.36210343E+03</pdfrwt>
<pdfrwt beam="2">  1       -2 0.50470351E-01 0.36210343E+03</pdfrwt>
<totfact> 0.42439271E+01</totfact>
</mgrwt>
</event>
<event>
 4    1  0.1104584E-007  0.2699359E+03  0.7818608E-02  0.1101316E+00
         -2   -1    0    0    0  501 -0.00000000000E+00  0.00000000000E+00  0.15647981775E+03  0.15647981777E+03  0.25500000000E-02 0.  1.
          2   -1    0    0  501    0  0.00000000000E+00 -0.00000000000E+00 -0.39771449861E+04  0.39771449861E+04  0.25500000000E-02 0. -1.
    8880022    1    1    2    0    0  0.22242498022E+03  0.92773951623E+00  0.31720750677E+02  0.27179328830E+03  0.15294330000E+03 0.  1.
    8880022    1    1    2    0    0 -0.22242498022E+03 -0.92773951623E+00 -0.38523859191E+04  0.38618315156E+04  0.15294330000E+03 0.  0.
<mgrwt>
<rscale>  0 0.26993589E+03</rscale>
<asrwt>0</asrwt>
<pdfrwt beam="1">  1        2 0.61186838E+00 0.26993589E+03</pdfrwt>
<pdfrwt beam="2">  1       -2 0.24073821E-01 0.26993589E+03</pdfrwt>
<totfact> 0.71506510E+00</totfact>
</mgrwt>
</event>
<event>
 4    1  0.1104584E-007  0.2937272E+03  0.7818608E-02  0.1088419E+00
         -2   -1    0    0    0  501 -0.00000000000E+00  0.00000000000E+00  0.17346152317E+03  0.17346152319E+03  0.25500000000E-02 0.  1.
          2   -1    0    0  501    0  0.00000000000E+00 -0.00000000000E+00 -0.10937127316E+04  0.10937127316E+04  0.25500000000E-02 0. -1.
    8880022    1    1    2    0    0  0.60023547148E+02 -0.24347728863E+03 -0.92796882748E+03  0.97334568067E+03  0.15294330000E+03 0.  0.
    8880022    1    1    2    0    0 -0.60023547148E+02  0.24347728863E+03  0.77176190803E+01  0.29382857408E+03  0.15294330000E+03 0.  0.
<mgrwt>
<rscale>  0 0.29372720E+03</rscale>
<asrwt>0</asrwt>
<pdfrwt beam="1">  1        2 0.16826349E+00 0.29372720E+03</pdfrwt>
<pdfrwt beam="2">  1       -2 0.26686389E-01 0.29372720E+03</pdfrwt>
<totfact> 0.29287142E+02</totfact>
</mgrwt>
</event>
<event>
 4    1  0.1104584E-007  0.4672663E+03  0.7818608E-02  0.1022695E+00
          2   -1    0    0  501    0  0.00000000000E+00  0.00000000000E+00  0.18382055035E+04  0.18382055035E+04  0.25500000000E-02 0. -1.
         -2   -1    0    0    0  501 -0.00000000000E+00 -0.00000000000E+00 -0.31062135803E+03  0.31062135804E+03  0.25500000000E-02 0.  1.
    8880022    1    1    2    0    0  0.35759098430E+03  0.25898812922E+03 -0.80571518779E+02  0.47416198264E+03  0.15294330000E+03 0.  0.
    8880022    1    1    2    0    0 -0.35759098430E+03 -0.25898812922E+03  0.16081556642E+04  0.16746648789E+04  0.15294330000E+03 0.  0.
<mgrwt>
<rscale>  0 0.46726632E+03</rscale>
<asrwt>0</asrwt>
<pdfrwt beam="1">  1        2 0.28280084E+00 0.46726632E+03</pdfrwt>
<pdfrwt beam="2">  1       -2 0.47787902E-01 0.46726632E+03</pdfrwt>
<totfact> 0.36643830E+01</totfact>
</mgrwt>
</event>
<event>
 4    1  0.1104584E-007  0.8159005E+03  0.7818608E-02  0.9537283E-01
         -2   -1    0    0    0  501 -0.00000000000E+00  0.00000000000E+00  0.44993703138E+03  0.44993703139E+03  0.25500000000E-02 0.  1.
          2   -1    0    0  501    0  0.00000000000E+00 -0.00000000000E+00 -0.18767726002E+04  0.18767726002E+04  0.25500000000E-02 0. -1.
    8880022    1    1    2    0    0  0.63880008613E+03 -0.48397974072E+03 -0.12486427847E+04  0.14915771506E+04  0.15294330000E+03 0.  0.
    8880022    1    1    2    0    0 -0.63880008613E+03  0.48397974072E+03 -0.17819278414E+03  0.83513248099E+03  0.15294330000E+03 0.  0.
<mgrwt>
<rscale>  0 0.81590048E+03</rscale>
<asrwt>0</asrwt>
<pdfrwt beam="1">  1        2 0.28873424E+00 0.81590048E+03</pdfrwt>
<pdfrwt beam="2">  1       -2 0.69221083E-01 0.81590048E+03</pdfrwt>
<totfact> 0.15241718E+01</totfact>
</mgrwt>
</event>
<event>
 4    1  0.1104584E-007  0.3556448E+03  0.7818608E-02  0.1060322E+00
          2   -1    0    0  501    0  0.00000000000E+00  0.00000000000E+00  0.24586138843E+04  0.24586138843E+04  0.25500000000E-02 0. -1.
         -2   -1    0    0    0  501 -0.00000000000E+00 -0.00000000000E+00 -0.11489309178E+03  0.11489309181E+03  0.25500000000E-02 0.  1.
    8880022    1    1    2    0    0 -0.59393831574E+02  0.31553757608E+03  0.21280805351E+04  0.21575935683E+04  0.15294330000E+03 0.  0.
    8880022    1    1    2    0    0  0.59393831574E+02 -0.31553757608E+03  0.21564025741E+03  0.41591340779E+03  0.15294330000E+03 0.  0.
<mgrwt>
<rscale>  0 0.35564483E+03</rscale>
<asrwt>0</asrwt>
<pdfrwt beam="1">  1        2 0.37824827E+00 0.35564483E+03</pdfrwt>
<pdfrwt beam="2">  1       -2 0.17675861E-01 0.35564483E+03</pdfrwt>
<totfact> 0.10778210E+02</totfact>
</mgrwt>
</event>
<event>
 4    1  0.1104584E-007  0.3225618E+03  0.7818608E-02  0.1074476E+00
         -2   -1    0    0    0  501 -0.00000000000E+00  0.00000000000E+00  0.14960860691E+03  0.14960860693E+03  0.25500000000E-02 0.  1.
          2   -1    0    0  501    0  0.00000000000E+00 -0.00000000000E+00 -0.98875942209E+03  0.98875942210E+03  0.25500000000E-02 0. -1.
    8880022    1    1    2    0    0 -0.26409412021E+03  0.10444490323E+03 -0.10957199310E+03  0.34066422886E+03  0.15294330000E+03 0.  0.
    8880022    1    1    2    0    0  0.26409412021E+03 -0.10444490323E+03 -0.72957882208E+03  0.79770380016E+03  0.15294330000E+03 0.  0.
<mgrwt>
<rscale>  0 0.32256177E+03</rscale>
<asrwt>0</asrwt>
<pdfrwt beam="1">  1        2 0.15211683E+00 0.32256177E+03</pdfrwt>
<pdfrwt beam="2">  1       -2 0.23016709E-01 0.32256177E+03</pdfrwt>
<totfact> 0.43955935E+02</totfact>
</mgrwt>
</event>
<event>
 4    1  0.1104584E-007  0.7449459E+03  0.7818608E-02  0.9643313E-01
          2   -1    0    0  501    0  0.00000000000E+00  0.00000000000E+00  0.10660619562E+04  0.10660619562E+04  0.25500000000E-02 0. -1.
         -2   -1    0    0    0  501 -0.00000000000E+00 -0.00000000000E+00 -0.55037363061E+03  0.55037363062E+03  0.25500000000E-02 0.  1.
    8880022    1    1    2    0    0  0.40286065222E+03 -0.60766447028E+03  0.69722222156E+02  0.74820161375E+03  0.15294330000E+03 0.  0.
    8880022    1    1    2    0    0 -0.40286065222E+03  0.60766447028E+03  0.44596610340E+03  0.86823397304E+03  0.15294330000E+03 0.  0.
<mgrwt>
<rscale>  0 0.74494595E+03</rscale>
<asrwt>0</asrwt>
<pdfrwt beam="1">  1        2 0.16400953E+00 0.74494595E+03</pdfrwt>
<pdfrwt beam="2">  1       -2 0.84672867E-01 0.74494595E+03</pdfrwt>
<totfact> 0.28287128E+01</totfact>
</mgrwt>
</event>
<event>
 4    1  0.1104584E-007  0.1018598E+04  0.7818608E-02  0.9288379E-01
         -2   -1    0    0    0  501 -0.00000000000E+00  0.00000000000E+00  0.12924618573E+04  0.12924618573E+04  0.25500000000E-02 0.  1.
          2   -1    0    0  501    0  0.00000000000E+00 -0.00000000000E+00 -0.12028485256E+04  0.12028485256E+04  0.25500000000E-02 0. -1.
    8880022    1    1    2    0    0 -0.11480336345E+03  0.10004850853E+04 -0.67474995944E+03  0.12218139707E+04  0.15294330000E+03 0.  0.
    8880022    1    1    2    0    0  0.11480336345E+03 -0.10004850853E+04  0.76436329114E+03  0.12734964122E+04  0.15294330000E+03 0.  0.
<mgrwt>
<rscale>  0 0.10185980E+04</rscale>
<asrwt>0</asrwt>
<pdfrwt beam="1">  1        2 0.18505362E+00 0.10185980E+04</pdfrwt>
<pdfrwt beam="2">  1       -2 0.19884029E+00 0.10185980E+04</pdfrwt>
<totfact> 0.25283059E+00</totfact>
</mgrwt>
</event>
<event>
 4    1  0.1104584E-007  0.5835975E+03  0.7818608E-02  0.9940033E-01
          2   -1    0    0  501    0  0.00000000000E+00  0.00000000000E+00  0.26457025154E+04  0.26457025154E+04  0.25500000000E-02 0. -1.
         -2   -1    0    0    0  501 -0.00000000000E+00 -0.00000000000E+00 -0.66016368597E+03  0.66016368598E+03  0.25500000000E-02 0.  1.
    8880022    1    1    2    0    0 -0.99031292603E+02 -0.55442509338E+03 -0.49027196006E+03  0.76220248551E+03  0.15294330000E+03 0.  1.
    8880022    1    1    2    0    0  0.99031292603E+02  0.55442509338E+03  0.24758107894E+04  0.25436637158E+04  0.15294330000E+03 0.  0.
<mgrwt>
<rscale>  0 0.58359749E+03</rscale>
<asrwt>0</asrwt>
<pdfrwt beam="1">  1        2 0.40703114E+00 0.58359749E+03</pdfrwt>
<pdfrwt beam="2">  1       -2 0.10156365E+00 0.58359749E+03</pdfrwt>
<totfact> 0.24942692E+00</totfact>
</mgrwt>
</event>
<event>
 4    1  0.1104584E-007  0.6892440E+03  0.7818608E-02  0.9735805E-01
         -2   -1    0    0    0  501 -0.00000000000E+00  0.00000000000E+00  0.35953717252E+03  0.35953717253E+03  0.25500000000E-02 0.  1.
          2   -1    0    0  501    0  0.00000000000E+00 -0.00000000000E+00 -0.29677360587E+04  0.29677360587E+04  0.25500000000E-02 0. -1.
    8880022    1    1    2    0    0 -0.10544271056E+01 -0.67205992597E+03 -0.25432325454E+04  0.26349742103E+04  0.15294330000E+03 0.  0.
    8880022    1    1    2    0    0  0.10544271056E+01  0.67205992597E+03 -0.64966340748E+02  0.69229902092E+03  0.15294330000E+03 0.  0.
<mgrwt>
<rscale>  0 0.68924401E+03</rscale>
<asrwt>0</asrwt>
<pdfrwt beam="1">  1        2 0.45657476E+00 0.68924401E+03</pdfrwt>
<pdfrwt beam="2">  1       -2 0.55313413E-01 0.68924401E+03</pdfrwt>
<totfact> 0.60369169E+00</totfact>
</mgrwt>
</event>
<event>
 4    1  0.1104584E-007  0.3297202E+03  0.7818608E-02  0.1071261E+00
          2   -1    0    0  501    0  0.00000000000E+00  0.00000000000E+00  0.87395164774E+03  0.87395164775E+03  0.25500000000E-02 0. -1.
         -2   -1    0    0    0  501 -0.00000000000E+00 -0.00000000000E+00 -0.25379238165E+03  0.25379238166E+03  0.25500000000E-02 0.  1.
    8880022    1    1    2    0    0  0.19534971916E+02 -0.29144832600E+03  0.71270733239E+03  0.78528156512E+03  0.15294330000E+03 0.  0.
    8880022    1    1    2    0    0 -0.19534971916E+02  0.29144832600E+03 -0.92548066298E+02  0.34246246429E+03  0.15294330000E+03 0.  0.
<mgrwt>
<rscale>  0 0.32972018E+03</rscale>
<asrwt>0</asrwt>
<pdfrwt beam="1">  1        2 0.13445410E+00 0.32972018E+03</pdfrwt>
<pdfrwt beam="2">  1       -2 0.39044982E-01 0.32972018E+03</pdfrwt>
<totfact> 0.19772840E+02</totfact>
</mgrwt>
</event>
<event>
 4    1  0.1104584E-007  0.4191050E+03  0.7818608E-02  0.1037358E+00
          2   -1    0    0  501    0  0.00000000000E+00  0.00000000000E+00  0.58805022501E+03  0.58805022502E+03  0.25500000000E-02 0. -1.
         -2   -1    0    0    0  501 -0.00000000000E+00 -0.00000000000E+00 -0.61528030920E+03  0.61528030921E+03  0.25500000000E-02 0.  1.
    8880022    1    1    2    0    0 -0.17903406960E+03  0.34670470220E+03 -0.44519597497E+03  0.61143148246E+03  0.15294330000E+03 0.  0.
    8880022    1    1    2    0    0  0.17903406960E+03 -0.34670470220E+03  0.41796589077E+03  0.59189905176E+03  0.15294330000E+03 0.  0.
<mgrwt>
<rscale>  0 0.41910500E+03</rscale>
<asrwt>0</asrwt>
<pdfrwt beam="1">  1        2 0.90469265E-01 0.41910500E+03</pdfrwt>
<pdfrwt beam="2">  1       -2 0.94658509E-01 0.41910500E+03</pdfrwt>
<totfact> 0.49856656E+01</totfact>
</mgrwt>
</event>
<event>
 4    1  0.1104584E-007  0.2225861E+03  0.7818608E-02  0.1131970E+00
          2   -1    0    0  501    0  0.00000000000E+00  0.00000000000E+00  0.13198247731E+04  0.13198247731E+04  0.25500000000E-02 0. -1.
         -2   -1    0    0    0  501 -0.00000000000E+00 -0.00000000000E+00 -0.18140432458E+03  0.18140432460E+03  0.25500000000E-02 0.  1.
    8880022    1    1    2    0    0  0.15461206175E+03 -0.47413444609E+02  0.12376643316E+04  0.12575204074E+04  0.15294330000E+03 0.  0.
    8880022    1    1    2    0    0 -0.15461206175E+03  0.47413444609E+02 -0.99243883079E+02  0.24370869027E+03  0.15294330000E+03 0.  1.
<mgrwt>
<rscale>  0 0.22258611E+03</rscale>
<asrwt>0</asrwt>
<pdfrwt beam="1">  1        2 0.20304996E+00 0.22258611E+03</pdfrwt>
<pdfrwt beam="2">  1       -2 0.27908358E-01 0.22258611E+03</pdfrwt>
<totfact> 0.20346105E+02</totfact>
</mgrwt>
</event>
<event>
 4    1  0.1104584E-007  0.7868051E+03  0.7818608E-02  0.9579315E-01
         -2   -1    0    0    0  501 -0.00000000000E+00  0.00000000000E+00  0.23085535416E+04  0.23085535416E+04  0.25500000000E-02 0.  1.
          2   -1    0    0  501    0  0.00000000000E+00 -0.00000000000E+00 -0.81771346814E+03  0.81771346814E+03  0.25500000000E-02 0. -1.
    8880022    1    1    2    0    0  0.52831972643E+03  0.56262682939E+03  0.20268662066E+04  0.21742237592E+04  0.15294330000E+03 0.  0.
    8880022    1    1    2    0    0 -0.52831972643E+03 -0.56262682939E+03 -0.53602613315E+03  0.95204325055E+03  0.15294330000E+03 0.  0.
<mgrwt>
<rscale>  0 0.78680514E+03</rscale>
<asrwt>0</asrwt>
<pdfrwt beam="1">  1        2 0.12580207E+00 0.78680514E+03</pdfrwt>
<pdfrwt beam="2">  1       -2 0.35516208E+00 0.78680514E+03</pdfrwt>
<totfact> 0.50706858E-01</totfact>
</mgrwt>
</event>
<event>
 4    1  0.1104584E-007  0.1945760E+04  0.7818608E-02  0.8632408E-01
         -2   -1    0    0    0  501 -0.00000000000E+00  0.00000000000E+00  0.25534984480E+04  0.25534984480E+04  0.25500000000E-02 0.  1.
          2   -1    0    0  501    0  0.00000000000E+00 -0.00000000000E+00 -0.16255336848E+04  0.16255336848E+04  0.25500000000E-02 0. -1.
    8880022    1    1    2    0    0  0.16220642936E+04  0.10637179275E+04 -0.15548418427E+03  0.19519619326E+04  0.15294330000E+03 0.  0.
    8880022    1    1    2    0    0 -0.16220642936E+04 -0.10637179275E+04  0.10834489474E+04  0.22270702002E+04  0.15294330000E+03 0.  0.
<mgrwt>
<rscale>  0 0.19457595E+04</rscale>
<asrwt>0</asrwt>
<pdfrwt beam="1">  1        2 0.25008210E+00 0.19457595E+04</pdfrwt>
<pdfrwt beam="2">  1       -2 0.39284592E+00 0.19457595E+04</pdfrwt>
<totfact> 0.79964837E-02</totfact>
</mgrwt>
</event>
<event>
 4    1  0.1104584E-007  0.5618136E+03  0.7818608E-02  0.9987959E-01
         -2   -1    0    0    0  501 -0.00000000000E+00  0.00000000000E+00  0.52162400088E+03  0.52162400088E+03  0.25500000000E-02 0.  1.
          2   -1    0    0  501    0  0.00000000000E+00 -0.00000000000E+00 -0.15976360098E+04  0.15976360098E+04  0.25500000000E-02 0. -1.
    8880022    1    1    2    0    0 -0.19206038464E+03  0.50532724502E+03  0.29719027905E+03  0.63557574756E+03  0.15294330000E+03 0.  0.
    8880022    1    1    2    0    0  0.19206038464E+03 -0.50532724502E+03 -0.13732022880E+04  0.14836842631E+04  0.15294330000E+03 0.  0.
<mgrwt>
<rscale>  0 0.56181355E+03</rscale>
<asrwt>0</asrwt>
<pdfrwt beam="1">  1        2 0.24579015E+00 0.56181355E+03</pdfrwt>
<pdfrwt beam="2">  1       -2 0.80249847E-01 0.56181355E+03</pdfrwt>
<totfact> 0.16207604E+01</totfact>
</mgrwt>
</event>
<event>
 4    1  0.1104584E-007  0.4666173E+03  0.7818608E-02  0.1022879E+00
         -2   -1    0    0    0  501 -0.00000000000E+00  0.00000000000E+00  0.18230048209E+04  0.18230048209E+04  0.25500000000E-02 0.  1.
          2   -1    0    0  501    0  0.00000000000E+00 -0.00000000000E+00 -0.58231110790E+03  0.58231110791E+03  0.25500000000E-02 0. -1.
    8880022    1    1    2    0    0 -0.31524675240E+03  0.30815501287E+03 -0.45190472091E+03  0.64957644404E+03  0.15294330000E+03 0. -1.
    8880022    1    1    2    0    0  0.31524675240E+03 -0.30815501287E+03  0.16925984339E+04  0.17557394848E+04  0.15294330000E+03 0.  0.
<mgrwt>
<rscale>  0 0.46661727E+03</rscale>
<asrwt>0</asrwt>
<pdfrwt beam="1">  1        2 0.89586325E-01 0.46661727E+03</pdfrwt>
<pdfrwt beam="2">  1       -2 0.28046228E+00 0.46661727E+03</pdfrwt>
<totfact> 0.23593129E+00</totfact>
</mgrwt>
</event>
<event>
 4    1  0.1104584E-007  0.4205312E+03  0.7818608E-02  0.1036894E+00
         -2   -1    0    0    0  501 -0.00000000000E+00  0.00000000000E+00  0.49869515911E+03  0.49869515911E+03  0.25500000000E-02 0.  1.
          2   -1    0    0  501    0  0.00000000000E+00 -0.00000000000E+00 -0.15362699288E+04  0.15362699288E+04  0.25500000000E-02 0. -1.
    8880022    1    1    2    0    0 -0.16909382276E+03 -0.35335834825E+03 -0.14111428889E+04  0.14724709672E+04  0.15294330000E+03 0.  0.
    8880022    1    1    2    0    0  0.16909382276E+03  0.35335834825E+03  0.37356811922E+03  0.56249412076E+03  0.15294330000E+03 0.  0.
<mgrwt>
<rscale>  0 0.42053121E+03</rscale>
<asrwt>0</asrwt>
<pdfrwt beam="1">  1        2 0.23634922E+00 0.42053121E+03</pdfrwt>
<pdfrwt beam="2">  1       -2 0.76722333E-01 0.42053121E+03</pdfrwt>
<totfact> 0.19895295E+01</totfact>
</mgrwt>
</event>
<event>
 4    1  0.1104584E-007  0.3024334E+03  0.7818608E-02  0.1084030E+00
         -2   -1    0    0    0  501 -0.00000000000E+00  0.00000000000E+00  0.47737144482E+03  0.47737144482E+03  0.25500000000E-02 0.  1.
          2   -1    0    0  501    0  0.00000000000E+00 -0.00000000000E+00 -0.62929263065E+03  0.62929263065E+03  0.25500000000E-02 0. -1.
    8880022    1    1    2    0    0  0.38285255453E+02 -0.25808632912E+03  0.38550831983E+03  0.48998227696E+03  0.15294330000E+03 0.  1.
    8880022    1    1    2    0    0 -0.38285255453E+02  0.25808632912E+03 -0.53742950565E+03  0.61668179852E+03  0.15294330000E+03 0.  0.
<mgrwt>
<rscale>  0 0.30243341E+03</rscale>
<asrwt>0</asrwt>
<pdfrwt beam="1">  1        2 0.96814251E-01 0.30243341E+03</pdfrwt>
<pdfrwt beam="2">  1       -2 0.73441761E-01 0.30243341E+03</pdfrwt>
<totfact> 0.82614251E+01</totfact>
</mgrwt>
</event>
<event>
 4    1  0.1104584E-007  0.4643312E+03  0.7818608E-02  0.1023532E+00
          2   -1    0    0  501    0  0.00000000000E+00  0.00000000000E+00  0.30022823295E+04  0.30022823295E+04  0.25500000000E-02 0. -1.
         -2   -1    0    0    0  501 -0.00000000000E+00 -0.00000000000E+00 -0.12964313725E+03  0.12964313727E+03  0.25500000000E-02 0.  1.
    8880022    1    1    2    0    0  0.42149180356E+03  0.12065015697E+03  0.24822025301E+04  0.25252589678E+04  0.15294330000E+03 0.  0.
    8880022    1    1    2    0    0 -0.42149180356E+03 -0.12065015697E+03  0.39043666215E+03  0.60666649900E+03  0.15294330000E+03 0.  0.
<mgrwt>
<rscale>  0 0.46433119E+03</rscale>
<asrwt>0</asrwt>
<pdfrwt beam="1">  1        2 0.46188960E+00 0.46433119E+03</pdfrwt>
<pdfrwt beam="2">  1       -2 0.19945097E-01 0.46433119E+03</pdfrwt>
<totfact> 0.41514060E+01</totfact>
</mgrwt>
</event>
<event>
 4    1  0.1104584E-007  0.5888169E+03  0.7818608E-02  0.9928883E-01
         -2   -1    0    0    0  501 -0.00000000000E+00  0.00000000000E+00  0.20103378996E+04  0.20103378996E+04  0.25500000000E-02 0.  1.
          2   -1    0    0  501    0  0.00000000000E+00 -0.00000000000E+00 -0.30661461641E+03  0.30661461642E+03  0.25500000000E-02 0. -1.
    8880022    1    1    2    0    0  0.52083858721E+03  0.22812457506E+03  0.85574458737E+02  0.59500277031E+03  0.15294330000E+03 0.  0.
    8880022    1    1    2    0    0 -0.52083858721E+03 -0.22812457506E+03  0.16181488244E+04  0.17219497457E+04  0.15294330000E+03 0.  0.
<mgrwt>
<rscale>  0 0.58881687E+03</rscale>
<asrwt>0</asrwt>
<pdfrwt beam="1">  1        2 0.47171478E-01 0.58881687E+03</pdfrwt>
<pdfrwt beam="2">  1       -2 0.30928276E+00 0.58881687E+03</pdfrwt>
<totfact> 0.31938132E+00</totfact>
</mgrwt>
</event>
<event>
 4    1  0.1104584E-007  0.4081649E+03  0.7818608E-02  0.1040989E+00
          2   -1    0    0  501    0  0.00000000000E+00  0.00000000000E+00  0.52953183143E+03  0.52953183144E+03  0.25500000000E-02 0. -1.
         -2   -1    0    0    0  501 -0.00000000000E+00 -0.00000000000E+00 -0.34030131741E+03  0.34030131742E+03  0.25500000000E-02 0.  1.
    8880022    1    1    2    0    0 -0.91714406859E+02 -0.36714497088E+03 -0.24873140737E+02  0.40892210531E+03  0.15294330000E+03 0.  0.
    8880022    1    1    2    0    0  0.91714406859E+02  0.36714497088E+03  0.21410365476E+03  0.46091104355E+03  0.15294330000E+03 0.  0.
<mgrwt>
<rscale>  0 0.40816494E+03</rscale>
<asrwt>0</asrwt>
<pdfrwt beam="1">  1        2 0.81466436E-01 0.40816494E+03</pdfrwt>
<pdfrwt beam="2">  1       -2 0.52354048E-01 0.40816494E+03</pdfrwt>
<totfact> 0.20375955E+02</totfact>
</mgrwt>
</event>
<event>
 4    1  0.1104584E-007  0.3084803E+03  0.7818608E-02  0.1081077E+00
          2   -1    0    0  501    0  0.00000000000E+00  0.00000000000E+00  0.25989832572E+03  0.25989832573E+03  0.25500000000E-02 0. -1.
         -2   -1    0    0    0  501 -0.00000000000E+00 -0.00000000000E+00 -0.36855204309E+03  0.36855204310E+03  0.25500000000E-02 0.  1.
    8880022    1    1    2    0    0  0.24876798502E+03 -0.99412901674E+02 -0.28924924630E+02  0.30983340632E+03  0.15294330000E+03 0.  0.
    8880022    1    1    2    0    0 -0.24876798502E+03  0.99412901674E+02 -0.79728792746E+02  0.31861696251E+03  0.15294330000E+03 0. -1.
<mgrwt>
<rscale>  0 0.30848029E+03</rscale>
<asrwt>0</asrwt>
<pdfrwt beam="1">  1        2 0.39984358E-01 0.30848029E+03</pdfrwt>
<pdfrwt beam="2">  1       -2 0.56700314E-01 0.30848029E+03</pdfrwt>
<totfact> 0.38177620E+02</totfact>
</mgrwt>
</event>
<event>
 4    1  0.1104584E-007  0.6450556E+03  0.7818608E-02  0.9816101E-01
          2   -1    0    0  501    0  0.00000000000E+00  0.00000000000E+00  0.19617863702E+04  0.19617863702E+04  0.25500000000E-02 0. -1.
         -2   -1    0    0    0  501 -0.00000000000E+00 -0.00000000000E+00 -0.25973136251E+03  0.25973136253E+03  0.25500000000E-02 0.  1.
    8880022    1    1    2    0    0 -0.33924067275E+03  0.52689739143E+03  0.13266909456E+04  0.14751968049E+04  0.15294330000E+03 0.  0.
    8880022    1    1    2    0    0  0.33924067275E+03 -0.52689739143E+03  0.37536406210E+03  0.74632092780E+03  0.15294330000E+03 0.  0.
<mgrwt>
<rscale>  0 0.64505562E+03</rscale>
<asrwt>0</asrwt>
<pdfrwt beam="1">  1        2 0.30181328E+00 0.64505562E+03</pdfrwt>
<pdfrwt beam="2">  1       -2 0.39958672E-01 0.64505562E+03</pdfrwt>
<totfact> 0.43427095E+01</totfact>
</mgrwt>
</event>
<event>
 4    1  0.1104584E-007  0.3596322E+03  0.7818608E-02  0.1058730E+00
          2   -1    0    0  501    0  0.00000000000E+00  0.00000000000E+00  0.67798104328E+02  0.67798104376E+02  0.25500000000E-02 0. -1.
         -2   -1    0    0    0  501 -0.00000000000E+00 -0.00000000000E+00 -0.27304842373E+04  0.27304842373E+04  0.25500000000E-02 0.  1.
    8880022    1    1    2    0    0 -0.34673366219E+02  0.32363777246E+03 -0.20994061753E+04  0.21299862892E+04  0.15294330000E+03 0.  1.
    8880022    1    1    2    0    0  0.34673366219E+02 -0.32363777246E+03 -0.56327995768E+03  0.66829605253E+03  0.15294330000E+03 0.  0.
<mgrwt>
<rscale>  0 0.35963218E+03</rscale>
<asrwt>0</asrwt>
<pdfrwt beam="1">  1        2 0.10430480E-01 0.35963218E+03</pdfrwt>
<pdfrwt beam="2">  1       -2 0.42007441E+00 0.35963218E+03</pdfrwt>
<totfact> 0.39547779E+00</totfact>
</mgrwt>
</event>
<event>
 4    1  0.1104584E-007  0.3620825E+03  0.7818608E-02  0.1057762E+00
         -2   -1    0    0    0  501 -0.00000000000E+00  0.00000000000E+00  0.57140098663E+02  0.57140098720E+02  0.25500000000E-02 0.  1.
          2   -1    0    0  501    0  0.00000000000E+00 -0.00000000000E+00 -0.26413356825E+04  0.26413356825E+04  0.25500000000E-02 0. -1.
    8880022    1    1    2    0    0 -0.10797809270E+03 -0.30992386669E+03 -0.17810709034E+04  0.18175030365E+04  0.15294330000E+03 0.  0.
    8880022    1    1    2    0    0  0.10797809270E+03  0.30992386669E+03 -0.80312468049E+03  0.88097274480E+03  0.15294330000E+03 0.  1.
<mgrwt>
<rscale>  0 0.36208248E+03</rscale>
<asrwt>0</asrwt>
<pdfrwt beam="1">  1        2 0.40635924E+00 0.36208248E+03</pdfrwt>
<pdfrwt beam="2">  1       -2 0.87907864E-02 0.36208248E+03</pdfrwt>
<totfact> 0.26765355E+02</totfact>
</mgrwt>
</event>
<event>
 4    1  0.1104584E-007  0.3986758E+03  0.7818608E-02  0.1044239E+00
          2   -1    0    0  501    0  0.00000000000E+00  0.00000000000E+00  0.84964350665E+03  0.84964350665E+03  0.25500000000E-02 0. -1.
         -2   -1    0    0    0  501 -0.00000000000E+00 -0.00000000000E+00 -0.41444165789E+03  0.41444165790E+03  0.25500000000E-02 0.  1.
    8880022    1    1    2    0    0  0.34762205040E+03  0.12128329154E+03  0.68574904725E+03  0.79321758399E+03  0.15294330000E+03 0.  0.
    8880022    1    1    2    0    0 -0.34762205040E+03 -0.12128329154E+03 -0.25054719850E+03  0.47086758056E+03  0.15294330000E+03 0.  0.
<mgrwt>
<rscale>  0 0.39867578E+03</rscale>
<asrwt>0</asrwt>
<pdfrwt beam="1">  1        2 0.13071438E+00 0.39867578E+03</pdfrwt>
<pdfrwt beam="2">  1       -2 0.63760256E-01 0.39867578E+03</pdfrwt>
<totfact> 0.75810880E+01</totfact>
</mgrwt>
</event>
<event>
 4    1  0.1104584E-007  0.2458850E+03  0.7818608E-02  0.1115933E+00
         -2   -1    0    0    0  501 -0.00000000000E+00  0.00000000000E+00  0.83407446718E+02  0.83407446757E+02  0.25500000000E-02 0.  1.
          2   -1    0    0  501    0  0.00000000000E+00 -0.00000000000E+00 -0.20955860949E+04  0.20955860949E+04  0.25500000000E-02 0. -1.
    8880022    1    1    2    0    0 -0.19107601214E+03 -0.23616253122E+02 -0.12494468717E+03  0.27580898769E+03  0.15294330000E+03 0.  0.
    8880022    1    1    2    0    0  0.19107601214E+03  0.23616253122E+02 -0.18872339610E+04  0.19031845540E+04  0.15294330000E+03 0. -1.
<mgrwt>
<rscale>  0 0.24588498E+03</rscale>
<asrwt>0</asrwt>
<pdfrwt beam="1">  1        2 0.32239782E+00 0.24588498E+03</pdfrwt>
<pdfrwt beam="2">  1       -2 0.12831916E-01 0.24588498E+03</pdfrwt>
<totfact> 0.29586147E+02</totfact>
</mgrwt>
</event>
<event>
 4    1  0.1104584E-007  0.3774024E+03  0.7818608E-02  0.1051898E+00
          2   -1    0    0  501    0  0.00000000000E+00  0.00000000000E+00  0.11761339340E+04  0.11761339340E+04  0.25500000000E-02 0. -1.
         -2   -1    0    0    0  501 -0.00000000000E+00 -0.00000000000E+00 -0.42571071818E+03  0.42571071819E+03  0.25500000000E-02 0.  1.
    8880022    1    1    2    0    0  0.33549061416E+03  0.80541811988E+02  0.10527033711E+04  0.11183098748E+04  0.15294330000E+03 0.  0.
    8880022    1    1    2    0    0 -0.33549061416E+03 -0.80541811988E+02 -0.30228015524E+03  0.48353477738E+03  0.15294330000E+03 0.  0.
<mgrwt>
<rscale>  0 0.37740242E+03</rscale>
<asrwt>0</asrwt>
<pdfrwt beam="1">  1        2 0.18094368E+00 0.37740242E+03</pdfrwt>
<pdfrwt beam="2">  1       -2 0.65493957E-01 0.37740242E+03</pdfrwt>
<totfact> 0.44977714E+01</totfact>
</mgrwt>
</event>
<event>
 4    1  0.1104584E-007  0.6759939E+03  0.7818608E-02  0.9759190E-01
          2   -1    0    0  501    0  0.00000000000E+00  0.00000000000E+00  0.26688607704E+04  0.26688607704E+04  0.25500000000E-02 0. -1.
         -2   -1    0    0    0  501 -0.00000000000E+00 -0.00000000000E+00 -0.47252156478E+03  0.47252156479E+03  0.25500000000E-02 0.  1.
    8880022    1    1    2    0    0  0.63695220430E+03  0.16693688172E+03  0.23524055249E+04  0.24476068801E+04  0.15294330000E+03 0.  0.
    8880022    1    1    2    0    0 -0.63695220430E+03 -0.16693688172E+03 -0.15606631927E+03  0.69377545508E+03  0.15294330000E+03 0.  0.
<mgrwt>
<rscale>  0 0.67599385E+03</rscale>
<asrwt>0</asrwt>
<pdfrwt beam="1">  1        2 0.41059397E+00 0.67599385E+03</pdfrwt>
<pdfrwt beam="2">  1       -2 0.72695625E-01 0.67599385E+03</pdfrwt>
<totfact> 0.50752581E+00</totfact>
</mgrwt>
</event>
<event>
 4    1  0.1104584E-007  0.6265408E+03  0.7818608E-02  0.9851823E-01
         -2   -1    0    0    0  501 -0.00000000000E+00  0.00000000000E+00  0.74728886840E+03  0.74728886840E+03  0.25500000000E-02 0.  1.
          2   -1    0    0  501    0  0.00000000000E+00 -0.00000000000E+00 -0.10818778022E+04  0.10818778022E+04  0.25500000000E-02 0. -1.
    8880022    1    1    2    0    0  0.35864964437E+03  0.49044072136E+03  0.48869342792E+03  0.79459083060E+03  0.15294330000E+03 0.  0.
    8880022    1    1    2    0    0 -0.35864964437E+03 -0.49044072136E+03 -0.82328236172E+03  0.10345758400E+04  0.15294330000E+03 0.  0.
<mgrwt>
<rscale>  0 0.62654076E+03</rscale>
<asrwt>0</asrwt>
<pdfrwt beam="1">  1        2 0.16644274E+00 0.62654076E+03</pdfrwt>
<pdfrwt beam="2">  1       -2 0.11496752E+00 0.62654076E+03</pdfrwt>
<totfact> 0.13640113E+01</totfact>
</mgrwt>
</event>
<event>
 4    1  0.1104584E-007  0.1599509E+03  0.7818608E-02  0.1188752E+00
         -2   -1    0    0    0  501 -0.00000000000E+00  0.00000000000E+00  0.39546338562E+03  0.39546338563E+03  0.25500000000E-02 0.  1.
          2   -1    0    0  501    0  0.00000000000E+00 -0.00000000000E+00 -0.38512671032E+03  0.38512671032E+03  0.25500000000E-02 0. -1.
    8880022    1    1    2    0    0 -0.15146892557E+02  0.44308047610E+02  0.36117599618E+03  0.39500934757E+03  0.15294330000E+03 0.  0.
    8880022    1    1    2    0    0  0.15146892557E+02 -0.44308047610E+02 -0.35083932087E+03  0.38558074838E+03  0.15294330000E+03 0. -1.
<mgrwt>
<rscale>  0 0.15995088E+03</rscale>
<asrwt>0</asrwt>
<pdfrwt beam="1">  1        2 0.59250263E-01 0.15995088E+03</pdfrwt>
<pdfrwt beam="2">  1       -2 0.60840521E-01 0.15995088E+03</pdfrwt>
<totfact> 0.21746051E+02</totfact>
</mgrwt>
</event>
<event>
 4    1  0.1104584E-007  0.1485760E+04  0.7818608E-02  0.8893978E-01
          2   -1    0    0  501    0  0.00000000000E+00  0.00000000000E+00  0.35735802048E+04  0.35735802048E+04  0.25500000000E-02 0. -1.
         -2   -1    0    0    0  501 -0.00000000000E+00 -0.00000000000E+00 -0.96960884352E+03  0.96960884353E+03  0.25500000000E-02 0.  1.
    8880022    1    1    2    0    0  0.56617434994E+03  0.13651140926E+04 -0.66479103125E+02  0.14872461143E+04  0.15294330000E+03 0.  0.
    8880022    1    1    2    0    0 -0.56617434994E+03 -0.13651140926E+04  0.26704504644E+04  0.30559429340E+04  0.15294330000E+03 0.  0.
<mgrwt>
<rscale>  0 0.14857596E+04</rscale>
<asrwt>0</asrwt>
<pdfrwt beam="1">  1        2 0.54978157E+00 0.14857596E+04</pdfrwt>
<pdfrwt beam="2">  1       -2 0.14917059E+00 0.14857596E+04</pdfrwt>
<totfact> 0.20962777E-01</totfact>
</mgrwt>
</event>
<event>
 4    1  0.1104584E-007  0.5395822E+03  0.7818608E-02  0.1003934E+00
         -2   -1    0    0    0  501 -0.00000000000E+00  0.00000000000E+00  0.19308848550E+04  0.19308848550E+04  0.25500000000E-02 0.  1.
          2   -1    0    0  501    0  0.00000000000E+00 -0.00000000000E+00 -0.31214808175E+03  0.31214808176E+03  0.25500000000E-02 0. -1.
    8880022    1    1    2    0    0  0.51668510902E+03 -0.28173718494E+02  0.16157249082E+04  0.17034423654E+04  0.15294330000E+03 0.  0.
    8880022    1    1    2    0    0 -0.51668510902E+03  0.28173718494E+02  0.30118650089E+01  0.53959057130E+03  0.15294330000E+03 0.  0.
<mgrwt>
<rscale>  0 0.53958217E+03</rscale>
<asrwt>0</asrwt>
<pdfrwt beam="1">  1        2 0.48022783E-01 0.53958217E+03</pdfrwt>
<pdfrwt beam="2">  1       -2 0.29705920E+00 0.53958217E+03</pdfrwt>
<totfact> 0.37399964E+00</totfact>
</mgrwt>
</event>
<event>
 4    1  0.1104584E-007  0.7964727E+03  0.7818608E-02  0.9565137E-01
         -2   -1    0    0    0  501 -0.00000000000E+00  0.00000000000E+00  0.19268606093E+04  0.19268606093E+04  0.25500000000E-02 0.  1.
          2   -1    0    0  501    0  0.00000000000E+00 -0.00000000000E+00 -0.74715445635E+03  0.74715445635E+03  0.25500000000E-02 0. -1.
    8880022    1    1    2    0    0  0.98925410155E+02 -0.77536500158E+03  0.15898085552E+04  0.17781619774E+04  0.15294330000E+03 0.  0.
    8880022    1    1    2    0    0 -0.98925410155E+02  0.77536500158E+03 -0.41010240227E+03  0.89585308830E+03  0.15294330000E+03 0.  0.
<mgrwt>
<rscale>  0 0.79647271E+03</rscale>
<asrwt>0</asrwt>
<pdfrwt beam="1">  1        2 0.11494684E+00 0.79647271E+03</pdfrwt>
<pdfrwt beam="2">  1       -2 0.29644009E+00 0.79647271E+03</pdfrwt>
<totfact> 0.13028494E+00</totfact>
</mgrwt>
</event>
<event>
 4    1  0.1104584E-007  0.3597937E+03  0.7818608E-02  0.1058666E+00
         -2   -1    0    0    0  501 -0.00000000000E+00  0.00000000000E+00  0.36494929064E+03  0.36494929065E+03  0.25500000000E-02 0.  1.
          2   -1    0    0  501    0  0.00000000000E+00 -0.00000000000E+00 -0.10423470208E+04  0.10423470208E+04  0.25500000000E-02 0. -1.
    8880022    1    1    2    0    0 -0.32552333866E+03  0.97148249497E+01 -0.91021532670E+03  0.97874583821E+03  0.15294330000E+03 0.  0.
    8880022    1    1    2    0    0  0.32552333866E+03 -0.97148249497E+01  0.23281759654E+03  0.42855047324E+03  0.15294330000E+03 0.  0.
<mgrwt>
<rscale>  0 0.35979366E+03</rscale>
<asrwt>0</asrwt>
<pdfrwt beam="1">  1        2 0.16036108E+00 0.35979366E+03</pdfrwt>
<pdfrwt beam="2">  1       -2 0.56146045E-01 0.35979366E+03</pdfrwt>
<totfact> 0.74820917E+01</totfact>
</mgrwt>
</event>
<event>
 4    1  0.1104584E-007  0.5264504E+03  0.7818608E-02  0.1007097E+00
         -2   -1    0    0    0  501 -0.00000000000E+00  0.00000000000E+00  0.47870031204E+03  0.47870031204E+03  0.25500000000E-02 0.  1.
          2   -1    0    0  501    0  0.00000000000E+00 -0.00000000000E+00 -0.98106879410E+03  0.98106879410E+03  0.25500000000E-02 0. -1.
    8880022    1    1    2    0    0 -0.48764735294E+03 -0.12632662291E+03  0.21609268427E+03  0.56907473823E+03  0.15294330000E+03 0.  0.
    8880022    1    1    2    0    0  0.48764735294E+03  0.12632662291E+03 -0.71846116633E+03  0.89069436791E+03  0.15294330000E+03 0.  0.
<mgrwt>
<rscale>  0 0.52645039E+03</rscale>
<asrwt>0</asrwt>
<pdfrwt beam="1">  1        2 0.15093366E+00 0.52645039E+03</pdfrwt>
<pdfrwt beam="2">  1       -2 0.73646202E-01 0.52645039E+03</pdfrwt>
<totfact> 0.44783590E+01</totfact>
</mgrwt>
</event>
<event>
 4    1  0.1104584E-007  0.3480448E+03  0.7818608E-02  0.1063420E+00
          2   -1    0    0  501    0  0.00000000000E+00  0.00000000000E+00  0.67261509721E+03  0.67261509722E+03  0.25500000000E-02 0. -1.
         -2   -1    0    0    0  501 -0.00000000000E+00 -0.00000000000E+00 -0.18475174070E+03  0.18475174072E+03  0.25500000000E-02 0.  1.
    8880022    1    1    2    0    0  0.27610533790E+03  0.14666083347E+03  0.17587947242E+03  0.38995999734E+03  0.15294330000E+03 0.  1.
    8880022    1    1    2    0    0 -0.27610533790E+03 -0.14666083347E+03  0.31198388409E+03  0.46740684060E+03  0.15294330000E+03 0.  1.
<mgrwt>
<rscale>  0 0.34804484E+03</rscale>
<asrwt>0</asrwt>
<pdfrwt beam="1">  1        2 0.10347925E+00 0.34804484E+03</pdfrwt>
<pdfrwt beam="2">  1       -2 0.28423344E-01 0.34804484E+03</pdfrwt>
<totfact> 0.49777491E+02</totfact>
</mgrwt>
</event>
<event>
 4    1  0.1104584E-007  0.9302826E+03  0.7818608E-02  0.9388499E-01
         -2   -1    0    0    0  501 -0.00000000000E+00  0.00000000000E+00  0.18625799678E+04  0.18625799678E+04  0.25500000000E-02 0.  1.
          2   -1    0    0  501    0  0.00000000000E+00 -0.00000000000E+00 -0.50467746189E+03  0.50467746190E+03  0.25500000000E-02 0. -1.
    8880022    1    1    2    0    0 -0.80177343121E+03  0.44631080541E+03  0.10123408888E+04  0.13748671566E+04  0.15294330000E+03 0.  0.
    8880022    1    1    2    0    0  0.80177343121E+03 -0.44631080541E+03  0.34556161712E+03  0.99239027316E+03  0.15294330000E+03 0.  0.
<mgrwt>
<rscale>  0 0.93028255E+03</rscale>
<asrwt>0</asrwt>
<pdfrwt beam="1">  1        2 0.77642687E-01 0.93028255E+03</pdfrwt>
<pdfrwt beam="2">  1       -2 0.28655076E+00 0.93028255E+03</pdfrwt>
<totfact> 0.23705582E+00</totfact>
</mgrwt>
</event>
<event>
 4    1  0.1104584E-007  0.1682763E+03  0.7818608E-02  0.1179657E+00
         -2   -1    0    0    0  501 -0.00000000000E+00  0.00000000000E+00  0.44946145004E+02  0.44946145076E+02  0.25500000000E-02 0.  1.
          2   -1    0    0  501    0  0.00000000000E+00 -0.00000000000E+00 -0.10913327881E+04  0.10913327881E+04  0.25500000000E-02 0. -1.
    8880022    1    1    2    0    0 -0.11372200871E+02 -0.69252635734E+02 -0.15381214362E+03  0.22798044444E+03  0.15294330000E+03 0.  1.
    8880022    1    1    2    0    0  0.11372200871E+02  0.69252635734E+02 -0.89257449943E+03  0.90829848869E+03  0.15294330000E+03 0.  0.
<mgrwt>
<rscale>  0 0.16827628E+03</rscale>
<asrwt>0</asrwt>
<pdfrwt beam="1">  1        2 0.16789733E+00 0.16827628E+03</pdfrwt>
<pdfrwt beam="2">  1       -2 0.69147923E-02 0.16827628E+03</pdfrwt>
<totfact> 0.27257224E+03</totfact>
</mgrwt>
</event>
<event>
 4    1  0.1104584E-007  0.9375624E+03  0.7818608E-02  0.9379808E-01
          2   -1    0    0  501    0  0.00000000000E+00  0.00000000000E+00  0.16954237621E+04  0.16954237621E+04  0.25500000000E-02 0. -1.
         -2   -1    0    0    0  501 -0.00000000000E+00 -0.00000000000E+00 -0.58704773586E+03  0.58704773587E+03  0.25500000000E-02 0.  1.
    8880022    1    1    2    0    0  0.33737777406E+03  0.86128264648E+03  0.94425222357E+03  0.13306522740E+04  0.15294330000E+03 0.  0.
    8880022    1    1    2    0    0 -0.33737777406E+03 -0.86128264648E+03  0.16412380270E+03  0.95181922400E+03  0.15294330000E+03 0.  0.
<mgrwt>
<rscale>  0 0.93756238E+03</rscale>
<asrwt>0</asrwt>
<pdfrwt beam="1">  1        2 0.26083442E+00 0.93756238E+03</pdfrwt>
<pdfrwt beam="2">  1       -2 0.90315039E-01 0.93756238E+03</pdfrwt>
<totfact> 0.10388780E+01</totfact>
</mgrwt>
</event>
<event>
 4    1  0.1104584E-007  0.1666657E+04  0.7818608E-02  0.8780613E-01
          2   -1    0    0  501    0  0.00000000000E+00  0.00000000000E+00  0.18954386466E+04  0.18954386466E+04  0.25500000000E-02 0. -1.
         -2   -1    0    0    0  501 -0.00000000000E+00 -0.00000000000E+00 -0.17199773373E+04  0.17199773373E+04  0.25500000000E-02 0.  1.
    8880022    1    1    2    0    0 -0.31283812470E+03 -0.16298734646E+04 -0.60761347309E+03  0.17739619468E+04  0.15294330000E+03 0.  0.
    8880022    1    1    2    0    0  0.31283812470E+03  0.16298734646E+04  0.78307478237E+03  0.18414540371E+04  0.15294330000E+03 0.  0.
<mgrwt>
<rscale>  0 0.16666574E+04</rscale>
<asrwt>0</asrwt>
<pdfrwt beam="1">  1        2 0.29160595E+00 0.16666574E+04</pdfrwt>
<pdfrwt beam="2">  1       -2 0.26461190E+00 0.16666574E+04</pdfrwt>
<totfact> 0.36809313E-01</totfact>
</mgrwt>
</event>
<event>
 4    1  0.1104584E-007  0.4865299E+03  0.7818608E-02  0.1017356E+00
         -2   -1    0    0    0  501 -0.00000000000E+00  0.00000000000E+00  0.51007071626E+03  0.51007071626E+03  0.25500000000E-02 0.  1.
          2   -1    0    0  501    0  0.00000000000E+00 -0.00000000000E+00 -0.38536416946E+04  0.38536416946E+04  0.25500000000E-02 0. -1.
    8880022    1    1    2    0    0  0.28260714490E+03  0.36531208003E+03 -0.37180534919E+04  0.37497510765E+04  0.15294330000E+03 0.  0.
    8880022    1    1    2    0    0 -0.28260714490E+03 -0.36531208003E+03  0.37448251353E+03  0.61396133438E+03  0.15294330000E+03 0.  0.
<mgrwt>
<rscale>  0 0.48652992E+03</rscale>
<asrwt>0</asrwt>
<pdfrwt beam="1">  1        2 0.59286793E+00 0.48652992E+03</pdfrwt>
<pdfrwt beam="2">  1       -2 0.78472420E-01 0.48652992E+03</pdfrwt>
<totfact> 0.77515456E-01</totfact>
</mgrwt>
</event>
<event>
 4    1  0.1104584E-007  0.3250710E+03  0.7818608E-02  0.1073339E+00
          2   -1    0    0  501    0  0.00000000000E+00  0.00000000000E+00  0.13727385158E+04  0.13727385158E+04  0.25500000000E-02 0. -1.
         -2   -1    0    0    0  501 -0.00000000000E+00 -0.00000000000E+00 -0.25492353116E+03  0.25492353117E+03  0.25500000000E-02 0.  1.
    8880022    1    1    2    0    0 -0.13153381342E+03  0.25490854692E+03  0.12388502900E+04  0.12807892900E+04  0.15294330000E+03 0. -1.
    8880022    1    1    2    0    0  0.13153381342E+03 -0.25490854692E+03 -0.12103530535E+03  0.34687275696E+03  0.15294330000E+03 0.  0.
<mgrwt>
<rscale>  0 0.32507101E+03</rscale>
<asrwt>0</asrwt>
<pdfrwt beam="1">  1        2 0.21119054E+00 0.32507101E+03</pdfrwt>
<pdfrwt beam="2">  1       -2 0.39219005E-01 0.32507101E+03</pdfrwt>
<totfact> 0.99076264E+01</totfact>
</mgrwt>
</event>
<event>
 4    1  0.1104584E-007  0.3260998E+03  0.7818608E-02  0.1072876E+00
          2   -1    0    0  501    0  0.00000000000E+00  0.00000000000E+00  0.64837355620E+03  0.64837355621E+03  0.25500000000E-02 0. -1.
         -2   -1    0    0    0  501 -0.00000000000E+00 -0.00000000000E+00 -0.12563780047E+04  0.12563780048E+04  0.25500000000E-02 0.  1.
    8880022    1    1    2    0    0 -0.28320472203E+03 -0.52388213367E+02 -0.11920416622E+04  0.12358415824E+04  0.15294330000E+03 0.  0.
    8880022    1    1    2    0    0  0.28320472203E+03  0.52388213367E+02  0.58403721362E+03  0.66890997854E+03  0.15294330000E+03 0.  0.
<mgrwt>
<rscale>  0 0.32609982E+03</rscale>
<asrwt>0</asrwt>
<pdfrwt beam="1">  1        2 0.99749778E-01 0.32609982E+03</pdfrwt>
<pdfrwt beam="2">  1       -2 0.19328892E+00 0.32609982E+03</pdfrwt>
<totfact> 0.73063261E+00</totfact>
</mgrwt>
</event>
<event>
 4    1  0.1104584E-007  0.6535403E+03  0.7818608E-02  0.9800159E-01
         -2   -1    0    0    0  501 -0.00000000000E+00  0.00000000000E+00  0.43530826073E+03  0.43530826074E+03  0.25500000000E-02 0.  1.
          2   -1    0    0  501    0  0.00000000000E+00 -0.00000000000E+00 -0.32519606680E+04  0.32519606680E+04  0.25500000000E-02 0. -1.
    8880022    1    1    2    0    0 -0.43172475637E+02  0.63392382125E+03 -0.29489264146E+04  0.30204771023E+04  0.15294330000E+03 0.  0.
    8880022    1    1    2    0    0  0.43172475637E+02 -0.63392382125E+03  0.13227400731E+03  0.66679182645E+03  0.15294330000E+03 0.  1.
<mgrwt>
<rscale>  0 0.65354030E+03</rscale>
<asrwt>0</asrwt>
<pdfrwt beam="1">  1        2 0.50030162E+00 0.65354030E+03</pdfrwt>
<pdfrwt beam="2">  1       -2 0.66970504E-01 0.65354030E+03</pdfrwt>
<totfact> 0.27009182E+00</totfact>
</mgrwt>
</event>
<event>
 4    1  0.1104584E-007  0.4924313E+03  0.7818608E-02  0.1015774E+00
         -2   -1    0    0    0  501 -0.00000000000E+00  0.00000000000E+00  0.22665694967E+03  0.22665694969E+03  0.25500000000E-02 0.  1.
          2   -1    0    0  501    0  0.00000000000E+00 -0.00000000000E+00 -0.27601884473E+04  0.27601884473E+04  0.25500000000E-02 0. -1.
    8880022    1    1    2    0    0 -0.18953712565E+03  0.42798664418E+03 -0.24354587406E+04  0.24847430088E+04  0.15294330000E+03 0.  0.
    8880022    1    1    2    0    0  0.18953712565E+03 -0.42798664418E+03 -0.98072757096E+02  0.50210238826E+03  0.15294330000E+03 0.  0.
<mgrwt>
<rscale>  0 0.49243126E+03</rscale>
<asrwt>0</asrwt>
<pdfrwt beam="1">  1        2 0.42464435E+00 0.49243126E+03</pdfrwt>
<pdfrwt beam="2">  1       -2 0.34870302E-01 0.49243126E+03</pdfrwt>
<totfact> 0.20879091E+01</totfact>
</mgrwt>
</event>
<event>
 4    1  0.1104584E-007  0.7875196E+03  0.7818608E-02  0.9578260E-01
          2   -1    0    0  501    0  0.00000000000E+00  0.00000000000E+00  0.20179804419E+04  0.20179804419E+04  0.25500000000E-02 0. -1.
         -2   -1    0    0    0  501 -0.00000000000E+00 -0.00000000000E+00 -0.55483862744E+03  0.55483862744E+03  0.25500000000E-02 0.  1.
    8880022    1    1    2    0    0  0.59210580332E+03  0.49619174419E+03 -0.12762170103E+03  0.79779350769E+03  0.15294330000E+03 0.  0.
    8880022    1    1    2    0    0 -0.59210580332E+03 -0.49619174419E+03  0.15907635155E+04  0.17750255617E+04  0.15294330000E+03 0.  0.
<mgrwt>
<rscale>  0 0.78751964E+03</rscale>
<asrwt>0</asrwt>
<pdfrwt beam="1">  1        2 0.31045853E+00 0.78751964E+03</pdfrwt>
<pdfrwt beam="2">  1       -2 0.85359790E-01 0.78751964E+03</pdfrwt>
<totfact> 0.80265915E+00</totfact>
</mgrwt>
</event>
<event>
 4    1  0.1104584E-007  0.2467725E+03  0.7818608E-02  0.1115362E+00
          2   -1    0    0  501    0  0.00000000000E+00  0.00000000000E+00  0.19860992011E+04  0.19860992011E+04  0.25500000000E-02 0. -1.
         -2   -1    0    0    0  501 -0.00000000000E+00 -0.00000000000E+00 -0.64596581169E+02  0.64596581220E+02  0.25500000000E-02 0.  1.
    8880022    1    1    2    0    0  0.19277176856E+03  0.18548308365E+02  0.21757586616E+03  0.32899225682E+03  0.15294330000E+03 0.  0.
    8880022    1    1    2    0    0 -0.19277176856E+03 -0.18548308365E+02  0.17039267538E+04  0.17217035255E+04  0.15294330000E+03 0.  0.
<mgrwt>
<rscale>  0 0.24677246E+03</rscale>
<asrwt>0</asrwt>
<pdfrwt beam="1">  1        2 0.30555375E+00 0.24677246E+03</pdfrwt>
<pdfrwt beam="2">  1       -2 0.99379348E-02 0.24677246E+03</pdfrwt>
<totfact> 0.50959872E+02</totfact>
</mgrwt>
</event>
<event>
 4    1  0.1104584E-007  0.7546038E+03  0.7818608E-02  0.9628155E-01
         -2   -1    0    0    0  501 -0.00000000000E+00  0.00000000000E+00  0.18437341339E+04  0.18437341339E+04  0.25500000000E-02 0.  1.
          2   -1    0    0  501    0  0.00000000000E+00 -0.00000000000E+00 -0.74292278642E+03  0.74292278642E+03  0.25500000000E-02 0. -1.
    8880022    1    1    2    0    0  0.64364153003E+03 -0.36298881503E+03  0.15390067498E+04  0.17140503867E+04  0.15294330000E+03 0.  0.
    8880022    1    1    2    0    0 -0.64364153003E+03  0.36298881503E+03 -0.43819540231E+03  0.87260653369E+03  0.15294330000E+03 0.  0.
<mgrwt>
<rscale>  0 0.75460384E+03</rscale>
<asrwt>0</asrwt>
<pdfrwt beam="1">  1        2 0.11429581E+00 0.75460384E+03</pdfrwt>
<pdfrwt beam="2">  1       -2 0.28365140E+00 0.75460384E+03</pdfrwt>
<totfact> 0.15773680E+00</totfact>
</mgrwt>
</event>
<event>
 4    1  0.1104584E-007  0.4738203E+03  0.7818608E-02  0.1020847E+00
         -2   -1    0    0    0  501 -0.00000000000E+00  0.00000000000E+00  0.43086895205E+03  0.43086895205E+03  0.25500000000E-02 0.  1.
          2   -1    0    0  501    0  0.00000000000E+00 -0.00000000000E+00 -0.32533882867E+04  0.32533882867E+04  0.25500000000E-02 0. -1.
    8880022    1    1    2    0    0 -0.29088582877E+03 -0.34132021565E+03  0.27692117911E+03  0.54880875307E+03  0.15294330000E+03 0.  0.
    8880022    1    1    2    0    0  0.29088582877E+03  0.34132021565E+03 -0.30994405138E+04  0.31354484857E+04  0.15294330000E+03 0.  0.
<mgrwt>
<rscale>  0 0.47382033E+03</rscale>
<asrwt>0</asrwt>
<pdfrwt beam="1">  1        2 0.50052126E+00 0.47382033E+03</pdfrwt>
<pdfrwt beam="2">  1       -2 0.66287533E-01 0.47382033E+03</pdfrwt>
<totfact> 0.29029963E+00</totfact>
</mgrwt>
</event>
<event>
 4    1  0.1104584E-007  0.1830102E+03  0.7818608E-02  0.1164921E+00
         -2   -1    0    0    0  501 -0.00000000000E+00  0.00000000000E+00  0.75167375950E+02  0.75167375993E+02  0.25500000000E-02 0.  1.
          2   -1    0    0  501    0  0.00000000000E+00 -0.00000000000E+00 -0.18083447385E+04  0.18083447385E+04  0.25500000000E-02 0. -1.
    8880022    1    1    2    0    0 -0.61500426119E+02  0.79490743060E+02 -0.16841286338E+04  0.16940430895E+04  0.15294330000E+03 0.  0.
    8880022    1    1    2    0    0  0.61500426119E+02 -0.79490743060E+02 -0.49048728724E+02  0.18946902504E+03  0.15294330000E+03 0.  0.
<mgrwt>
<rscale>  0 0.18301020E+03</rscale>
<asrwt>0</asrwt>
<pdfrwt beam="1">  1        2 0.27820685E+00 0.18301020E+03</pdfrwt>
<pdfrwt beam="2">  1       -2 0.11564213E-01 0.18301020E+03</pdfrwt>
<totfact> 0.50159362E+02</totfact>
</mgrwt>
</event>
<event>
 4    1  0.1104584E-007  0.7441454E+03  0.7818608E-02  0.9644580E-01
          2   -1    0    0  501    0  0.00000000000E+00  0.00000000000E+00  0.19188771848E+04  0.19188771848E+04  0.25500000000E-02 0. -1.
         -2   -1    0    0    0  501 -0.00000000000E+00 -0.00000000000E+00 -0.30185945466E+03  0.30185945467E+03  0.25500000000E-02 0.  1.
    8880022    1    1    2    0    0 -0.55013516313E+03 -0.47719187843E+03  0.57562982394E+03  0.94079866803E+03  0.15294330000E+03 0.  0.
    8880022    1    1    2    0    0  0.55013516313E+03  0.47719187843E+03  0.10413879062E+04  0.12799379715E+04  0.15294330000E+03 0.  0.
<mgrwt>
<rscale>  0 0.74414544E+03</rscale>
<asrwt>0</asrwt>
<pdfrwt beam="1">  1        2 0.29521188E+00 0.74414544E+03</pdfrwt>
<pdfrwt beam="2">  1       -2 0.46439915E-01 0.74414544E+03</pdfrwt>
<totfact> 0.33601848E+01</totfact>
</mgrwt>
</event>
<event>
 4    1  0.1104584E-007  0.5366965E+03  0.7818608E-02  0.1004621E+00
         -2   -1    0    0    0  501 -0.00000000000E+00  0.00000000000E+00  0.21919734869E+03  0.21919734871E+03  0.25500000000E-02 0.  1.
          2   -1    0    0  501    0  0.00000000000E+00 -0.00000000000E+00 -0.21392021484E+04  0.21392021484E+04  0.25500000000E-02 0. -1.
    8880022    1    1    2    0    0 -0.51425718567E+03  0.13820968626E+02 -0.22764974670E+03  0.58298158837E+03  0.15294330000E+03 0.  0.
    8880022    1    1    2    0    0  0.51425718567E+03 -0.13820968626E+02 -0.16923550530E+04  0.17754179087E+04  0.15294330000E+03 0. -1.
<mgrwt>
<rscale>  0 0.53669649E+03</rscale>
<asrwt>0</asrwt>
<pdfrwt beam="1">  1        2 0.32910801E+00 0.53669649E+03</pdfrwt>
<pdfrwt beam="2">  1       -2 0.33722671E-01 0.53669649E+03</pdfrwt>
<totfact> 0.48969836E+01</totfact>
</mgrwt>
</event>
<event>
 4    1  0.1104584E-007  0.7939295E+03  0.7818608E-02  0.9568846E-01
         -2   -1    0    0    0  501 -0.00000000000E+00  0.00000000000E+00  0.34875855139E+03  0.34875855140E+03  0.25500000000E-02 0.  1.
          2   -1    0    0  501    0  0.00000000000E+00 -0.00000000000E+00 -0.19361172743E+04  0.19361172743E+04  0.25500000000E-02 0. -1.
    8880022    1    1    2    0    0 -0.67003826141E+03  0.39746844264E+03 -0.10883196680E+04  0.13471316889E+04  0.15294330000E+03 0.  0.
    8880022    1    1    2    0    0  0.67003826141E+03 -0.39746844264E+03 -0.49903905492E+03  0.93774413674E+03  0.15294330000E+03 0.  0.
<mgrwt>
<rscale>  0 0.79392952E+03</rscale>
<asrwt>0</asrwt>
<pdfrwt beam="1">  1        2 0.29786419E+00 0.79392952E+03</pdfrwt>
<pdfrwt beam="2">  1       -2 0.53655163E-01 0.79392952E+03</pdfrwt>
<totfact> 0.24353595E+01</totfact>
</mgrwt>
</event>
<event>
 4    1  0.1104584E-007  0.5568839E+03  0.7818608E-02  0.9999130E-01
         -2   -1    0    0    0  501 -0.00000000000E+00  0.00000000000E+00  0.28495925801E+03  0.28495925802E+03  0.25500000000E-02 0.  1.
          2   -1    0    0  501    0  0.00000000000E+00 -0.00000000000E+00 -0.15609624027E+04  0.15609624027E+04  0.25500000000E-02 0. -1.
    8880022    1    1    2    0    0 -0.52093208650E+03  0.12392668887E+03 -0.13011713310E+03  0.57188301628E+03  0.15294330000E+03 0.  0.
    8880022    1    1    2    0    0  0.52093208650E+03 -0.12392668887E+03 -0.11458860116E+04  0.12740386444E+04  0.15294330000E+03 0.  0.
<mgrwt>
<rscale>  0 0.55688393E+03</rscale>
<asrwt>0</asrwt>
<pdfrwt beam="1">  1        2 0.24014806E+00 0.55688393E+03</pdfrwt>
<pdfrwt beam="2">  1       -2 0.43839887E-01 0.55688393E+03</pdfrwt>
<totfact> 0.60515391E+01</totfact>
</mgrwt>
</event>
<event>
 4    1  0.1104584E-007  0.9168036E+03  0.7818608E-02  0.9404817E-01
         -2   -1    0    0    0  501 -0.00000000000E+00  0.00000000000E+00  0.10025720505E+04  0.10025720505E+04  0.25500000000E-02 0.  1.
          2   -1    0    0  501    0  0.00000000000E+00 -0.00000000000E+00 -0.28656937759E+04  0.28656937759E+04  0.25500000000E-02 0. -1.
    8880022    1    1    2    0    0 -0.77079896648E+03  0.47223516502E+03 -0.25583554675E+04  0.27176665448E+04  0.15294330000E+03 0.  0.
    8880022    1    1    2    0    0  0.77079896648E+03 -0.47223516502E+03  0.69523374200E+03  0.11505992816E+04  0.15294330000E+03 0.  0.
<mgrwt>
<rscale>  0 0.91680355E+03</rscale>
<asrwt>0</asrwt>
<pdfrwt beam="1">  1        2 0.44087596E+00 0.91680355E+03</pdfrwt>
<pdfrwt beam="2">  1       -2 0.15424186E+00 0.91680355E+03</pdfrwt>
<totfact> 0.60344149E-01</totfact>
</mgrwt>
</event>
<event>
 4    1  0.1104584E-007  0.4132033E+03  0.7818608E-02  0.1039301E+00
          2   -1    0    0  501    0  0.00000000000E+00  0.00000000000E+00  0.10272402900E+04  0.10272402900E+04  0.25500000000E-02 0. -1.
         -2   -1    0    0    0  501 -0.00000000000E+00 -0.00000000000E+00 -0.29967164279E+03  0.29967164280E+03  0.25500000000E-02 0.  1.
    8880022    1    1    2    0    0  0.20060809786E+03 -0.32726395569E+03 -0.78975843140E+02  0.42068294764E+03  0.15294330000E+03 0.  0.
    8880022    1    1    2    0    0 -0.20060809786E+03  0.32726395569E+03  0.80654449037E+03  0.90622898519E+03  0.15294330000E+03 0.  0.
<mgrwt>
<rscale>  0 0.41320329E+03</rscale>
<asrwt>0</asrwt>
<pdfrwt beam="1">  1        2 0.15803697E+00 0.41320329E+03</pdfrwt>
<pdfrwt beam="2">  1       -2 0.46103329E-01 0.41320329E+03</pdfrwt>
<totfact> 0.11295936E+02</totfact>
</mgrwt>
</event>
<event>
 4    1  0.1104584E-007  0.4016070E+03  0.7818608E-02  0.1043225E+00
          2   -1    0    0  501    0  0.00000000000E+00  0.00000000000E+00  0.14321048936E+04  0.14321048936E+04  0.25500000000E-02 0. -1.
         -2   -1    0    0    0  501 -0.00000000000E+00 -0.00000000000E+00 -0.78890734185E+03  0.78890734186E+03  0.25500000000E-02 0.  1.
    8880022    1    1    2    0    0  0.36916055238E+03  0.40212604149E+02  0.13497868495E+04  0.14082658694E+04  0.15294330000E+03 0.  0.
    8880022    1    1    2    0    0 -0.36916055238E+03 -0.40212604149E+02 -0.70658929768E+03  0.81274636608E+03  0.15294330000E+03 0.  0.
<mgrwt>
<rscale>  0 0.40160705E+03</rscale>
<asrwt>0</asrwt>
<pdfrwt beam="1">  1        2 0.22032383E+00 0.40160705E+03</pdfrwt>
<pdfrwt beam="2">  1       -2 0.12137036E+00 0.40160705E+03</pdfrwt>
<totfact> 0.78345609E+00</totfact>
</mgrwt>
</event>
<event>
 4    1  0.1104584E-007  0.3273237E+03  0.7818608E-02  0.1072327E+00
         -2   -1    0    0    0  501 -0.00000000000E+00  0.00000000000E+00  0.88928829175E+02  0.88928829211E+02  0.25500000000E-02 0.  1.
          2   -1    0    0  501    0  0.00000000000E+00 -0.00000000000E+00 -0.12299405894E+04  0.12299405894E+04  0.25500000000E-02 0. -1.
    8880022    1    1    2    0    0 -0.21836893969E+03  0.18990567878E+03 -0.66479890976E+03  0.74101174355E+03  0.15294330000E+03 0.  0.
    8880022    1    1    2    0    0  0.21836893969E+03 -0.18990567878E+03 -0.47621285042E+03  0.57785767502E+03  0.15294330000E+03 0.  0.
<mgrwt>
<rscale>  0 0.32732371E+03</rscale>
<asrwt>0</asrwt>
<pdfrwt beam="1">  1        2 0.18922162E+00 0.32732371E+03</pdfrwt>
<pdfrwt beam="2">  1       -2 0.13681359E-01 0.32732371E+03</pdfrwt>
<totfact> 0.76521335E+02</totfact>
</mgrwt>
</event>
<event>
 4    1  0.1104584E-007  0.3586017E+03  0.7818608E-02  0.1059139E+00
          2   -1    0    0  501    0  0.00000000000E+00  0.00000000000E+00  0.61092318621E+03  0.61092318622E+03  0.25500000000E-02 0. -1.
         -2   -1    0    0    0  501 -0.00000000000E+00 -0.00000000000E+00 -0.83853201342E+03  0.83853201342E+03  0.25500000000E-02 0.  1.
    8880022    1    1    2    0    0  0.30156779365E+03  0.11941683189E+03  0.51339872738E+03  0.62623751101E+03  0.15294330000E+03 0.  0.
    8880022    1    1    2    0    0 -0.30156779365E+03 -0.11941683189E+03 -0.74100755458E+03  0.82321768863E+03  0.15294330000E+03 0.  1.
<mgrwt>
<rscale>  0 0.35860168E+03</rscale>
<asrwt>0</asrwt>
<pdfrwt beam="1">  1        2 0.93988182E-01 0.35860168E+03</pdfrwt>
<pdfrwt beam="2">  1       -2 0.12900493E+00 0.35860168E+03</pdfrwt>
<totfact> 0.22864223E+01</totfact>
</mgrwt>
</event>
<event>
 4    1  0.1104584E-007  0.1932275E+03  0.7818608E-02  0.1155582E+00
          2   -1    0    0  501    0  0.00000000000E+00  0.00000000000E+00  0.35831276515E+04  0.35831276515E+04  0.25500000000E-02 0. -1.
         -2   -1    0    0    0  501 -0.00000000000E+00 -0.00000000000E+00 -0.16733834913E+03  0.16733834915E+03  0.25500000000E-02 0.  1.
    8880022    1    1    2    0    0 -0.10322300067E+03  0.57360429512E+02 -0.10801444316E+03  0.22136842523E+03  0.15294330000E+03 0.  0.
    8880022    1    1    2    0    0  0.10322300067E+03 -0.57360429512E+02  0.35238037456E+04  0.35290975755E+04  0.15294330000E+03 0. -1.
<mgrwt>
<rscale>  0 0.19322748E+03</rscale>
<asrwt>0</asrwt>
<pdfrwt beam="1">  1        2 0.55125041E+00 0.19322748E+03</pdfrwt>
<pdfrwt beam="2">  1       -2 0.25744361E-01 0.19322748E+03</pdfrwt>
<totfact> 0.12808684E+01</totfact>
</mgrwt>
</event>
<event>
 4    1  0.1104584E-007  0.3480908E+03  0.7818608E-02  0.1063401E+00
          2   -1    0    0  501    0  0.00000000000E+00  0.00000000000E+00  0.21796325928E+04  0.21796325928E+04  0.25500000000E-02 0. -1.
         -2   -1    0    0    0  501 -0.00000000000E+00 -0.00000000000E+00 -0.59597329409E+02  0.59597329464E+02  0.25500000000E-02 0.  1.
    8880022    1    1    2    0    0 -0.29342850990E+03 -0.10805224161E+03  0.13503173760E+04  0.13944619917E+04  0.15294330000E+03 0.  0.
    8880022    1    1    2    0    0  0.29342850990E+03  0.10805224161E+03  0.76971788742E+03  0.84476793059E+03  0.15294330000E+03 0.  0.
<mgrwt>
<rscale>  0 0.34809084E+03</rscale>
<asrwt>0</asrwt>
<pdfrwt beam="1">  1        2 0.33532808E+00 0.34809084E+03</pdfrwt>
<pdfrwt beam="2">  1       -2 0.91688202E-02 0.34809084E+03</pdfrwt>
<totfact> 0.44959816E+02</totfact>
</mgrwt>
</event>
<event>
 4    1  0.1104584E-007  0.7570636E+03  0.7818608E-02  0.9624333E-01
          2   -1    0    0  501    0  0.00000000000E+00  0.00000000000E+00  0.10404452940E+04  0.10404452940E+04  0.25500000000E-02 0. -1.
         -2   -1    0    0    0  501 -0.00000000000E+00 -0.00000000000E+00 -0.67108051671E+03  0.67108051672E+03  0.25500000000E-02 0.  1.
    8880022    1    1    2    0    0 -0.18824102947E+03  0.71716036154E+03  0.54688007114E+03  0.93392887018E+03  0.15294330000E+03 0.  0.
    8880022    1    1    2    0    0  0.18824102947E+03 -0.71716036154E+03 -0.17751529387E+03  0.77759694052E+03  0.15294330000E+03 0.  0.
<mgrwt>
<rscale>  0 0.75706362E+03</rscale>
<asrwt>0</asrwt>
<pdfrwt beam="1">  1        2 0.16006851E+00 0.75706362E+03</pdfrwt>
<pdfrwt beam="2">  1       -2 0.10324316E+00 0.75706362E+03</pdfrwt>
<totfact> 0.18464618E+01</totfact>
</mgrwt>
</event>
<event>
 4    1  0.1104584E-007  0.2357683E+03  0.7818608E-02  0.1122644E+00
         -2   -1    0    0    0  501 -0.00000000000E+00  0.00000000000E+00  0.28533730031E+03  0.28533730033E+03  0.25500000000E-02 0.  1.
          2   -1    0    0  501    0  0.00000000000E+00 -0.00000000000E+00 -0.93639196860E+03  0.93639196860E+03  0.25500000000E-02 0. -1.
    8880022    1    1    2    0    0  0.29412792858E+02  0.17700262387E+03 -0.86914753301E+03  0.90055767632E+03  0.15294330000E+03 0.  0.
    8880022    1    1    2    0    0 -0.29412792858E+02 -0.17700262387E+03  0.21809286472E+03  0.32117159261E+03  0.15294330000E+03 0.  0.
<mgrwt>
<rscale>  0 0.23576831E+03</rscale>
<asrwt>0</asrwt>
<pdfrwt beam="1">  1        2 0.14406030E+00 0.23576831E+03</pdfrwt>
<pdfrwt beam="2">  1       -2 0.43898047E-01 0.23576831E+03</pdfrwt>
<totfact> 0.14569797E+02</totfact>
</mgrwt>
</event>
<event>
 4    1  0.1104584E-007  0.4473784E+03  0.7818608E-02  0.1028507E+00
         -2   -1    0    0    0  501 -0.00000000000E+00  0.00000000000E+00  0.89592719603E+03  0.89592719603E+03  0.25500000000E-02 0.  1.
          2   -1    0    0  501    0  0.00000000000E+00 -0.00000000000E+00 -0.81168704565E+03  0.81168704566E+03  0.25500000000E-02 0. -1.
    8880022    1    1    2    0    0  0.36711833907E+02 -0.41881737829E+03  0.76899758465E+03  0.88966549518E+03  0.15294330000E+03 0.  1.
    8880022    1    1    2    0    0 -0.36711833907E+02  0.41881737829E+03 -0.68475743427E+03  0.81794874651E+03  0.15294330000E+03 0.  0.
<mgrwt>
<rscale>  0 0.44737837E+03</rscale>
<asrwt>0</asrwt>
<pdfrwt beam="1">  1        2 0.12487493E+00 0.44737837E+03</pdfrwt>
<pdfrwt beam="2">  1       -2 0.13783495E+00 0.44737837E+03</pdfrwt>
<totfact> 0.13379345E+01</totfact>
</mgrwt>
</event>
<event>
 4    1  0.1104584E-007  0.2282569E+03  0.7818608E-02  0.1127873E+00
         -2   -1    0    0    0  501 -0.00000000000E+00  0.00000000000E+00  0.32368197103E+03  0.32368197104E+03  0.25500000000E-02 0.  1.
          2   -1    0    0  501    0  0.00000000000E+00 -0.00000000000E+00 -0.40393299175E+03  0.40393299176E+03  0.25500000000E-02 0. -1.
    8880022    1    1    2    0    0 -0.16873184470E+03  0.15463257670E+02  0.24203240227E+03  0.33268736753E+03  0.15294330000E+03 0.  1.
    8880022    1    1    2    0    0  0.16873184470E+03 -0.15463257670E+02 -0.32228342298E+03  0.39492759526E+03  0.15294330000E+03 0.  0.
<mgrwt>
<rscale>  0 0.22825687E+03</rscale>
<asrwt>0</asrwt>
<pdfrwt beam="1">  1        2 0.62143537E-01 0.22825687E+03</pdfrwt>
<pdfrwt beam="2">  1       -2 0.49797226E-01 0.22825687E+03</pdfrwt>
<totfact> 0.30868111E+02</totfact>
</mgrwt>
</event>
<event>
 4    1  0.1104584E-007  0.4623781E+03  0.7818608E-02  0.1024094E+00
         -2   -1    0    0    0  501 -0.00000000000E+00  0.00000000000E+00  0.15577296513E+03  0.15577296515E+03  0.25500000000E-02 0.  1.
          2   -1    0    0  501    0  0.00000000000E+00 -0.00000000000E+00 -0.21133591020E+04  0.21133591020E+04  0.25500000000E-02 0. -1.
    8880022    1    1    2    0    0  0.12083881630E+03  0.41928490449E+03 -0.30702378582E+03  0.55502892603E+03  0.15294330000E+03 0.  1.
    8880022    1    1    2    0    0 -0.12083881630E+03 -0.41928490449E+03 -0.16505623510E+04  0.17141031411E+04  0.15294330000E+03 0.  0.
<mgrwt>
<rscale>  0 0.46237810E+03</rscale>
<asrwt>0</asrwt>
<pdfrwt beam="1">  1        2 0.32513215E+00 0.46237810E+03</pdfrwt>
<pdfrwt beam="2">  1       -2 0.23965073E-01 0.46237810E+03</pdfrwt>
<totfact> 0.95697876E+01</totfact>
</mgrwt>
</event>
<event>
 4    1  0.1104584E-007  0.3802927E+03  0.7818608E-02  0.1050826E+00
          2   -1    0    0  501    0  0.00000000000E+00  0.00000000000E+00  0.76691720703E+03  0.76691720703E+03  0.25500000000E-02 0. -1.
         -2   -1    0    0    0  501 -0.00000000000E+00 -0.00000000000E+00 -0.28343845766E+03  0.28343845767E+03  0.25500000000E-02 0.  1.
    8880022    1    1    2    0    0 -0.34046061015E+03 -0.72920879849E+02  0.54556410634E+03  0.66502836701E+03  0.15294330000E+03 0. -1.
    8880022    1    1    2    0    0  0.34046061015E+03  0.72920879849E+02 -0.62085356977E+02  0.38532729769E+03  0.15294330000E+03 0.  0.
<mgrwt>
<rscale>  0 0.38029270E+03</rscale>
<asrwt>0</asrwt>
<pdfrwt beam="1">  1        2 0.11798726E+00 0.38029270E+03</pdfrwt>
<pdfrwt beam="2">  1       -2 0.43605917E-01 0.38029270E+03</pdfrwt>
<totfact> 0.18825796E+02</totfact>
</mgrwt>
</event>
<event>
 4    1  0.1104584E-007  0.4191373E+03  0.7818608E-02  0.1037347E+00
          2   -1    0    0  501    0  0.00000000000E+00  0.00000000000E+00  0.15243850855E+04  0.15243850855E+04  0.25500000000E-02 0. -1.
         -2   -1    0    0    0  501 -0.00000000000E+00 -0.00000000000E+00 -0.16838234250E+03  0.16838234252E+03  0.25500000000E-02 0.  1.
    8880022    1    1    2    0    0  0.37514794332E+03 -0.10746366427E+03  0.20253099483E+03  0.46550496817E+03  0.15294330000E+03 0.  0.
    8880022    1    1    2    0    0 -0.37514794332E+03  0.10746366427E+03  0.11534717482E+04  0.12272624599E+04  0.15294330000E+03 0.  0.
<mgrwt>
<rscale>  0 0.41913729E+03</rscale>
<asrwt>0</asrwt>
<pdfrwt beam="1">  1        2 0.23452079E+00 0.41913729E+03</pdfrwt>
<pdfrwt beam="2">  1       -2 0.25904974E-01 0.41913729E+03</pdfrwt>
<totfact> 0.17378526E+02</totfact>
</mgrwt>
</event>
<event>
 4    1  0.1104584E-007  0.3020616E+03  0.7818608E-02  0.1084215E+00
         -2   -1    0    0    0  501 -0.00000000000E+00  0.00000000000E+00  0.99841426319E+03  0.99841426320E+03  0.25500000000E-02 0.  1.
          2   -1    0    0  501    0  0.00000000000E+00 -0.00000000000E+00 -0.85012958283E+03  0.85012958283E+03  0.25500000000E-02 0. -1.
    8880022    1    1    2    0    0 -0.30214088022E+02  0.25872125085E+03  0.94732413059E+03  0.99431596496E+03  0.15294330000E+03 0.  0.
    8880022    1    1    2    0    0  0.30214088022E+02 -0.25872125085E+03 -0.79903945023E+03  0.85422788107E+03  0.15294330000E+03 0.  0.
<mgrwt>
<rscale>  0 0.30206163E+03</rscale>
<asrwt>0</asrwt>
<pdfrwt beam="1">  1        2 0.13078917E+00 0.30206163E+03</pdfrwt>
<pdfrwt beam="2">  1       -2 0.15360219E+00 0.30206163E+03</pdfrwt>
<totfact> 0.98385936E+00</totfact>
</mgrwt>
</event>
<event>
 4    1  0.1104584E-007  0.3551432E+03  0.7818608E-02  0.1060524E+00
         -2   -1    0    0    0  501 -0.00000000000E+00  0.00000000000E+00  0.15842140733E+03  0.15842140735E+03  0.25500000000E-02 0.  1.
          2   -1    0    0  501    0  0.00000000000E+00 -0.00000000000E+00 -0.22402712873E+04  0.22402712873E+04  0.25500000000E-02 0. -1.
    8880022    1    1    2    0    0  0.32050373860E+03 -0.35187500511E+01 -0.77990674357E+02  0.36360586678E+03  0.15294330000E+03 0.  0.
    8880022    1    1    2    0    0 -0.32050373860E+03  0.35187500511E+01 -0.20038592056E+04  0.20350868279E+04  0.15294330000E+03 0.  0.
<mgrwt>
<rscale>  0 0.35514318E+03</rscale>
<asrwt>0</asrwt>
<pdfrwt beam="1">  1        2 0.34465710E+00 0.35514318E+03</pdfrwt>
<pdfrwt beam="2">  1       -2 0.24372526E-01 0.35514318E+03</pdfrwt>
<totfact> 0.81158265E+01</totfact>
</mgrwt>
</event>
<event>
 4    1  0.1104584E-007  0.7204687E+03  0.7818608E-02  0.9682854E-01
          2   -1    0    0  501    0  0.00000000000E+00  0.00000000000E+00  0.16563102469E+04  0.16563102469E+04  0.25500000000E-02 0. -1.
         -2   -1    0    0    0  501 -0.00000000000E+00 -0.00000000000E+00 -0.42328894850E+03  0.42328894851E+03  0.25500000000E-02 0.  1.
    8880022    1    1    2    0    0 -0.46827132568E+03 -0.52574275893E+03  0.86697056585E+02  0.72566625639E+03  0.15294330000E+03 0.  0.
    8880022    1    1    2    0    0  0.46827132568E+03  0.52574275893E+03  0.11463242419E+04  0.13539329391E+04  0.15294330000E+03 0.  0.
<mgrwt>
<rscale>  0 0.72046869E+03</rscale>
<asrwt>0</asrwt>
<pdfrwt beam="1">  1        2 0.25481696E+00 0.72046869E+03</pdfrwt>
<pdfrwt beam="2">  1       -2 0.65121377E-01 0.72046869E+03</pdfrwt>
<totfact> 0.23240539E+01</totfact>
</mgrwt>
</event>
<event>
 4    1  0.1104584E-007  0.2675319E+03  0.7818608E-02  0.1102701E+00
         -2   -1    0    0    0  501 -0.00000000000E+00  0.00000000000E+00  0.27071061496E+03  0.27071061498E+03  0.25500000000E-02 0.  1.
          2   -1    0    0  501    0  0.00000000000E+00 -0.00000000000E+00 -0.12517592545E+04  0.12517592545E+04  0.25500000000E-02 0. -1.
    8880022    1    1    2    0    0  0.21705033369E+03  0.32723292123E+02  0.18555553552E+03  0.32558281739E+03  0.15294330000E+03 0.  0.
    8880022    1    1    2    0    0 -0.21705033369E+03 -0.32723292123E+02 -0.11666041750E+04  0.11968870520E+04  0.15294330000E+03 0. -1.
<mgrwt>
<rscale>  0 0.26753189E+03</rscale>
<asrwt>0</asrwt>
<pdfrwt beam="1">  1        2 0.19257834E+00 0.26753189E+03</pdfrwt>
<pdfrwt beam="2">  1       -2 0.41647788E-01 0.26753189E+03</pdfrwt>
<totfact> 0.10431145E+02</totfact>
</mgrwt>
</event>
<event>
 4    1  0.1104584E-007  0.3021216E+03  0.7818608E-02  0.1084185E+00
         -2   -1    0    0    0  501 -0.00000000000E+00  0.00000000000E+00  0.16115914020E+03  0.16115914022E+03  0.25500000000E-02 0.  1.
          2   -1    0    0  501    0  0.00000000000E+00 -0.00000000000E+00 -0.88110232967E+03  0.88110232967E+03  0.25500000000E-02 0. -1.
    8880022    1    1    2    0    0  0.16484659204E+03 -0.20177075376E+03 -0.48515709609E+02  0.30599225982E+03  0.15294330000E+03 0.  0.
    8880022    1    1    2    0    0 -0.16484659204E+03  0.20177075376E+03 -0.67142747986E+03  0.73626921007E+03  0.15294330000E+03 0.  0.
<mgrwt>
<rscale>  0 0.30212165E+03</rscale>
<asrwt>0</asrwt>
<pdfrwt beam="1">  1        2 0.13555420E+00 0.30212165E+03</pdfrwt>
<pdfrwt beam="2">  1       -2 0.24793714E-01 0.30212165E+03</pdfrwt>
<totfact> 0.45249601E+02</totfact>
</mgrwt>
</event>
<event>
 4    1  0.1104584E-007  0.3236774E+03  0.7818608E-02  0.1073969E+00
          2   -1    0    0  501    0  0.00000000000E+00  0.00000000000E+00  0.13211976119E+04  0.13211976119E+04  0.25500000000E-02 0. -1.
         -2   -1    0    0    0  501 -0.00000000000E+00 -0.00000000000E+00 -0.18550080121E+03  0.18550080123E+03  0.25500000000E-02 0.  1.
    8880022    1    1    2    0    0  0.16704624573E+03  0.23123782924E+03  0.11378727812E+04  0.11830137367E+04  0.15294330000E+03 0. -1.
    8880022    1    1    2    0    0 -0.16704624573E+03 -0.23123782924E+03 -0.21759705745E+01  0.32368467642E+03  0.15294330000E+03 0.  0.
<mgrwt>
<rscale>  0 0.32367736E+03</rscale>
<asrwt>0</asrwt>
<pdfrwt beam="1">  1        2 0.20326117E+00 0.32367736E+03</pdfrwt>
<pdfrwt beam="2">  1       -2 0.28538586E-01 0.32367736E+03</pdfrwt>
<totfact> 0.19141022E+02</totfact>
</mgrwt>
</event>
<event>
 4    1  0.1104584E-007  0.6491872E+03  0.7818608E-02  0.9808305E-01
          2   -1    0    0  501    0  0.00000000000E+00  0.00000000000E+00  0.14935004797E+04  0.14935004797E+04  0.25500000000E-02 0. -1.
         -2   -1    0    0    0  501 -0.00000000000E+00 -0.00000000000E+00 -0.14157298065E+04  0.14157298065E+04  0.25500000000E-02 0.  1.
    8880022    1    1    2    0    0  0.36037946687E+03  0.51786006533E+03 -0.12627135901E+04  0.14198202954E+04  0.15294330000E+03 0.  0.
    8880022    1    1    2    0    0 -0.36037946687E+03 -0.51786006533E+03  0.13404842633E+04  0.14894099908E+04  0.15294330000E+03 0.  0.
<mgrwt>
<rscale>  0 0.64918723E+03</rscale>
<asrwt>0</asrwt>
<pdfrwt beam="1">  1        2 0.22976930E+00 0.64918723E+03</pdfrwt>
<pdfrwt beam="2">  1       -2 0.21780459E+00 0.64918723E+03</pdfrwt>
<totfact> 0.13805017E+00</totfact>
</mgrwt>
</event>
<event>
 4    1  0.1104584E-007  0.2894898E+03  0.7818608E-02  0.1090616E+00
         -2   -1    0    0    0  501 -0.00000000000E+00  0.00000000000E+00  0.20206353419E+03  0.20206353420E+03  0.25500000000E-02 0.  1.
          2   -1    0    0  501    0  0.00000000000E+00 -0.00000000000E+00 -0.46656767104E+03  0.46656767105E+03  0.25500000000E-02 0. -1.
    8880022    1    1    2    0    0  0.19133070953E+03  0.15428945545E+03 -0.24367377800E+03  0.37839296977E+03  0.15294330000E+03 0. -1.
    8880022    1    1    2    0    0 -0.19133070953E+03 -0.15428945545E+03 -0.20830358856E+02  0.29023823548E+03  0.15294330000E+03 0.  1.
<mgrwt>
<rscale>  0 0.28948977E+03</rscale>
<asrwt>0</asrwt>
<pdfrwt beam="1">  1        2 0.71779641E-01 0.28948977E+03</pdfrwt>
<pdfrwt beam="2">  1       -2 0.31086698E-01 0.28948977E+03</pdfrwt>
<totfact> 0.64703701E+02</totfact>
</mgrwt>
</event>
<event>
 4    1  0.1104584E-007  0.7781767E+03  0.7818608E-02  0.9592154E-01
          2   -1    0    0  501    0  0.00000000000E+00  0.00000000000E+00  0.14346031794E+04  0.14346031794E+04  0.25500000000E-02 0. -1.
         -2   -1    0    0    0  501 -0.00000000000E+00 -0.00000000000E+00 -0.56580405476E+03  0.56580405477E+03  0.25500000000E-02 0.  1.
    8880022    1    1    2    0    0 -0.64154914640E+03 -0.41301582315E+03  0.93845253571E+03  0.12191194331E+04  0.15294330000E+03 0.  0.
    8880022    1    1    2    0    0  0.64154914640E+03  0.41301582315E+03 -0.69653411036E+02  0.78128780108E+03  0.15294330000E+03 0.  0.
<mgrwt>
<rscale>  0 0.77817673E+03</rscale>
<asrwt>0</asrwt>
<pdfrwt beam="1">  1        2 0.22070818E+00 0.77817673E+03</pdfrwt>
<pdfrwt beam="2">  1       -2 0.87046778E-01 0.77817673E+03</pdfrwt>
<totfact> 0.16086247E+01</totfact>
</mgrwt>
</event>
<event>
 4    1  0.1104584E-007  0.1504482E+04  0.7818608E-02  0.8881478E-01
         -2   -1    0    0    0  501 -0.00000000000E+00  0.00000000000E+00  0.97087814857E+03  0.97087814858E+03  0.25500000000E-02 0.  1.
          2   -1    0    0  501    0  0.00000000000E+00 -0.00000000000E+00 -0.43402246565E+04  0.43402246565E+04  0.25500000000E-02 0. -1.
    8880022    1    1    2    0    0 -0.89882158705E+03  0.11967437384E+04  0.12197595734E+03  0.15094189637E+04  0.15294330000E+03 0.  0.
    8880022    1    1    2    0    0  0.89882158705E+03 -0.11967437384E+04 -0.34913224652E+04  0.38016838414E+04  0.15294330000E+03 0.  0.
<mgrwt>
<rscale>  0 0.15044825E+04</rscale>
<asrwt>0</asrwt>
<pdfrwt beam="1">  1        2 0.66772686E+00 0.15044825E+04</pdfrwt>
<pdfrwt beam="2">  1       -2 0.14936587E+00 0.15044825E+04</pdfrwt>
<totfact> 0.51102056E-02</totfact>
</mgrwt>
</event>
<event>
 4    1  0.1104584E-007  0.9132838E+03  0.7818608E-02  0.9409127E-01
          2   -1    0    0  501    0  0.00000000000E+00  0.00000000000E+00  0.92125186250E+03  0.92125186250E+03  0.25500000000E-02 0. -1.
         -2   -1    0    0    0  501 -0.00000000000E+00 -0.00000000000E+00 -0.17469185277E+04  0.17469185277E+04  0.25500000000E-02 0.  1.
    8880022    1    1    2    0    0 -0.79863094174E+02  0.89683748621E+03 -0.13387737802E+04  0.16206179309E+04  0.15294330000E+03 0.  0.
    8880022    1    1    2    0    0  0.79863094174E+02 -0.89683748621E+03  0.51310711498E+03  0.10475524593E+04  0.15294330000E+03 0.  0.
<mgrwt>
<rscale>  0 0.91328377E+03</rscale>
<asrwt>0</asrwt>
<pdfrwt beam="1">  1        2 0.14173106E+00 0.91328377E+03</pdfrwt>
<pdfrwt beam="2">  1       -2 0.26875670E+00 0.91328377E+03</pdfrwt>
<totfact> 0.14150405E+00</totfact>
</mgrwt>
</event>
<event>
 4    1  0.1104584E-007  0.5770710E+03  0.7818608E-02  0.9954153E-01
         -2   -1    0    0    0  501 -0.00000000000E+00  0.00000000000E+00  0.19545665797E+04  0.19545665797E+04  0.25500000000E-02 0.  1.
          2   -1    0    0  501    0  0.00000000000E+00 -0.00000000000E+00 -0.31890352640E+03  0.31890352641E+03  0.25500000000E-02 0. -1.
    8880022    1    1    2    0    0 -0.55381255736E+03 -0.53952574841E+02  0.15936021505E+04  0.16948683419E+04  0.15294330000E+03 0.  0.
    8880022    1    1    2    0    0  0.55381255736E+03  0.53952574841E+02  0.42060902742E+02  0.57860176423E+03  0.15294330000E+03 0. -1.
<mgrwt>
<rscale>  0 0.57707095E+03</rscale>
<asrwt>0</asrwt>
<pdfrwt beam="1">  1        2 0.49062080E-01 0.57707095E+03</pdfrwt>
<pdfrwt beam="2">  1       -2 0.30070256E+00 0.57707095E+03</pdfrwt>
<totfact> 0.34497794E+00</totfact>
</mgrwt>
</event>
<event>
 4    1  0.1104584E-007  0.9885496E+03  0.7818608E-02  0.9321193E-01
          2   -1    0    0  501    0  0.00000000000E+00  0.00000000000E+00  0.39840101734E+04  0.39840101734E+04  0.25500000000E-02 0. -1.
         -2   -1    0    0    0  501 -0.00000000000E+00 -0.00000000000E+00 -0.38663489875E+03  0.38663489876E+03  0.25500000000E-02 0.  1.
    8880022    1    1    2    0    0 -0.64650767229E+03  0.73202901157E+03  0.31200076185E+04  0.32728699694E+04  0.15294330000E+03 0.  0.
    8880022    1    1    2    0    0  0.64650767229E+03 -0.73202901157E+03  0.47736765617E+03  0.10977751028E+04  0.15294330000E+03 0.  0.
<mgrwt>
<rscale>  0 0.98854959E+03</rscale>
<asrwt>0</asrwt>
<pdfrwt beam="1">  1        2 0.61292467E+00 0.98854959E+03</pdfrwt>
<pdfrwt beam="2">  1       -2 0.59482289E-01 0.98854959E+03</pdfrwt>
<totfact> 0.98185724E-01</totfact>
</mgrwt>
</event>
<event>
 4    1  0.1104584E-007  0.3687397E+03  0.7818608E-02  0.1055176E+00
          2   -1    0    0  501    0  0.00000000000E+00  0.00000000000E+00  0.58429284211E+03  0.58429284212E+03  0.25500000000E-02 0. -1.
         -2   -1    0    0    0  501 -0.00000000000E+00 -0.00000000000E+00 -0.68781758403E+03  0.68781758403E+03  0.25500000000E-02 0.  1.
    8880022    1    1    2    0    0 -0.12456099417E+03  0.31154754738E+03  0.46562604491E+03  0.59394998296E+03  0.15294330000E+03 0.  0.
    8880022    1    1    2    0    0  0.12456099417E+03 -0.31154754738E+03 -0.56915078683E+03  0.67816044319E+03  0.15294330000E+03 0.  0.
<mgrwt>
<rscale>  0 0.36873970E+03</rscale>
<asrwt>0</asrwt>
<pdfrwt beam="1">  1        2 0.89891207E-01 0.36873970E+03</pdfrwt>
<pdfrwt beam="2">  1       -2 0.10581809E+00 0.36873970E+03</pdfrwt>
<totfact> 0.38941874E+01</totfact>
</mgrwt>
</event>
<event>
 4    1  0.1104584E-007  0.6313040E+03  0.7818608E-02  0.9842507E-01
          2   -1    0    0  501    0  0.00000000000E+00  0.00000000000E+00  0.25990331009E+04  0.25990331010E+04  0.25500000000E-02 0. -1.
         -2   -1    0    0    0  501 -0.00000000000E+00 -0.00000000000E+00 -0.21045408361E+03  0.21045408363E+03  0.25500000000E-02 0.  1.
    8880022    1    1    2    0    0  0.96694212931E+02 -0.60481674089E+03  0.19260633042E+04  0.20268854348E+04  0.15294330000E+03 0.  0.
    8880022    1    1    2    0    0 -0.96694212931E+02  0.60481674089E+03  0.46251571310E+03  0.78260174978E+03  0.15294330000E+03 0.  0.
<mgrwt>
<rscale>  0 0.63130398E+03</rscale>
<asrwt>0</asrwt>
<pdfrwt beam="1">  1        2 0.39985125E+00 0.63130398E+03</pdfrwt>
<pdfrwt beam="2">  1       -2 0.32377551E-01 0.63130398E+03</pdfrwt>
<totfact> 0.28871181E+01</totfact>
</mgrwt>
</event>
<event>
 4    1  0.1104584E-007  0.3711291E+03  0.7818608E-02  0.1054262E+00
          2   -1    0    0  501    0  0.00000000000E+00  0.00000000000E+00  0.28255262045E+03  0.28255262046E+03  0.25500000000E-02 0. -1.
         -2   -1    0    0    0  501 -0.00000000000E+00 -0.00000000000E+00 -0.99161467402E+03  0.99161467402E+03  0.25500000000E-02 0.  1.
    8880022    1    1    2    0    0 -0.18238731431E+03 -0.28474548216E+03 -0.80878766502E+03  0.88987317194E+03  0.15294330000E+03 0.  0.
    8880022    1    1    2    0    0  0.18238731431E+03  0.28474548216E+03  0.99725611444E+02  0.38429412255E+03  0.15294330000E+03 0. -1.
<mgrwt>
<rscale>  0 0.37112905E+03</rscale>
<asrwt>0</asrwt>
<pdfrwt beam="1">  1        2 0.43469634E-01 0.37112905E+03</pdfrwt>
<pdfrwt beam="2">  1       -2 0.15255610E+00 0.37112905E+03</pdfrwt>
<totfact> 0.35217600E+01</totfact>
</mgrwt>
</event>
<event>
 4    1  0.1104584E-007  0.7123310E+03  0.7818608E-02  0.9696374E-01
          2   -1    0    0  501    0  0.00000000000E+00  0.00000000000E+00  0.12065014167E+04  0.12065014167E+04  0.25500000000E-02 0. -1.
         -2   -1    0    0    0  501 -0.00000000000E+00 -0.00000000000E+00 -0.95077346391E+03  0.95077346391E+03  0.25500000000E-02 0.  1.
    8880022    1    1    2    0    0  0.37719404313E+03 -0.58459254021E+03 -0.67762428792E+03  0.98315314821E+03  0.15294330000E+03 0.  0.
    8880022    1    1    2    0    0 -0.37719404313E+03  0.58459254021E+03  0.93335224069E+03  0.11741217324E+04  0.15294330000E+03 0.  0.
<mgrwt>
<rscale>  0 0.71233099E+03</rscale>
<asrwt>0</asrwt>
<pdfrwt beam="1">  1        2 0.18561560E+00 0.71233099E+03</pdfrwt>
<pdfrwt beam="2">  1       -2 0.14627284E+00 0.71233099E+03</pdfrwt>
<totfact> 0.61710860E+00</totfact>
</mgrwt>
</event>
<event>
 4    1  0.1104584E-007  0.4181389E+03  0.7818608E-02  0.1037674E+00
          2   -1    0    0  501    0  0.00000000000E+00  0.00000000000E+00  0.27994856939E+04  0.27994856939E+04  0.25500000000E-02 0. -1.
         -2   -1    0    0    0  501 -0.00000000000E+00 -0.00000000000E+00 -0.13722649314E+03  0.13722649316E+03  0.25500000000E-02 0.  1.
    8880022    1    1    2    0    0  0.21588914457E+03 -0.32379057463E+03  0.24724694377E+03  0.48576863132E+03  0.15294330000E+03 0.  1.
    8880022    1    1    2    0    0 -0.21588914457E+03  0.32379057463E+03  0.24150122570E+04  0.24509435557E+04  0.15294330000E+03 0.  0.
<mgrwt>
<rscale>  0 0.41813887E+03</rscale>
<asrwt>0</asrwt>
<pdfrwt beam="1">  1        2 0.43069011E+00 0.41813887E+03</pdfrwt>
<pdfrwt beam="2">  1       -2 0.21111768E-01 0.41813887E+03</pdfrwt>
<totfact> 0.50151512E+01</totfact>
</mgrwt>
</event>
<event>
 4    1  0.1104584E-007  0.2421983E+03  0.7818608E-02  0.1118337E+00
         -2   -1    0    0    0  501 -0.00000000000E+00  0.00000000000E+00  0.15151995746E+02  0.15151995961E+02  0.25500000000E-02 0.  1.
          2   -1    0    0  501    0  0.00000000000E+00 -0.00000000000E+00 -0.43311301543E+04  0.43311301543E+04  0.25500000000E-02 0. -1.
    8880022    1    1    2    0    0  0.17873157239E+03  0.57649007703E+02 -0.14500105048E+04  0.14700988062E+04  0.15294330000E+03 0.  0.
    8880022    1    1    2    0    0 -0.17873157239E+03 -0.57649007703E+02 -0.28659676538E+04  0.28761833441E+04  0.15294330000E+03 0.  0.
<mgrwt>
<rscale>  0 0.24219834E+03</rscale>
<asrwt>0</asrwt>
<pdfrwt beam="1">  1        2 0.66632673E+00 0.24219834E+03</pdfrwt>
<pdfrwt beam="2">  1       -2 0.23310797E-02 0.24219834E+03</pdfrwt>
<totfact> 0.15022103E+02</totfact>
</mgrwt>
</event>
<event>
 4    1  0.1104584E-007  0.2289517E+03  0.7818608E-02  0.1127380E+00
          2   -1    0    0  501    0  0.00000000000E+00  0.00000000000E+00  0.74832380626E+02  0.74832380669E+02  0.25500000000E-02 0. -1.
         -2   -1    0    0    0  501 -0.00000000000E+00 -0.00000000000E+00 -0.23226312828E+04  0.23226312828E+04  0.25500000000E-02 0.  1.
    8880022    1    1    2    0    0  0.17033797566E+03  0.34953596469E+01 -0.21256902167E+04  0.21379845167E+04  0.15294330000E+03 0.  1.
    8880022    1    1    2    0    0 -0.17033797566E+03 -0.34953596469E+01 -0.12210868545E+03  0.25947914669E+03  0.15294330000E+03 0.  0.
<mgrwt>
<rscale>  0 0.22895173E+03</rscale>
<asrwt>0</asrwt>
<pdfrwt beam="1">  1        2 0.11512676E-01 0.22895173E+03</pdfrwt>
<pdfrwt beam="2">  1       -2 0.35732783E+00 0.22895173E+03</pdfrwt>
<totfact> 0.90820630E+00</totfact>
</mgrwt>
</event>
<event>
 4    1  0.2017839E-007  0.1041533E+04  0.7818608E-02  0.9264130E-01
          2   -1    0    0  501    0  0.00000000000E+00  0.00000000000E+00  0.22564568320E+04  0.22564568320E+04  0.25500000000E-02 0. -1.
         -2   -1    0    0    0  501 -0.00000000000E+00 -0.00000000000E+00 -0.15347151904E+04  0.15347151904E+04  0.25500000000E-02 0.  1.
    8880022    1    1    2    0    0  0.10133301191E+04 -0.18590644128E+03  0.19317500927E+04  0.21946410205E+04  0.15294330000E+03 0.  0.
    8880022    1    1    2    0    0 -0.10133301191E+04  0.18590644128E+03 -0.12100084511E+04  0.15965310019E+04  0.15294330000E+03 0.  0.
<mgrwt>
<rscale>  0 0.10415329E+04</rscale>
<asrwt>0</asrwt>
<pdfrwt beam="1">  1        2 0.34714721E+00 0.10415329E+04</pdfrwt>
<pdfrwt beam="2">  1       -2 0.23611003E+00 0.10415329E+04</pdfrwt>
<totfact> 0.37514155E-01</totfact>
</mgrwt>
</event>
<event>
 4    1  0.1104584E-007  0.2345208E+03  0.7818608E-02  0.1123498E+00
          2   -1    0    0  501    0  0.00000000000E+00  0.00000000000E+00  0.92770180965E+03  0.92770180966E+03  0.25500000000E-02 0. -1.
         -2   -1    0    0    0  501 -0.00000000000E+00 -0.00000000000E+00 -0.56538485654E+03  0.56538485654E+03  0.25500000000E-02 0.  1.
    8880022    1    1    2    0    0  0.26674116377E+01  0.17776736085E+03  0.88747682300E+03  0.91794069201E+03  0.15294330000E+03 0.  0.
    8880022    1    1    2    0    0 -0.26674116377E+01 -0.17776736085E+03 -0.52515986989E+03  0.57514597419E+03  0.15294330000E+03 0.  0.
<mgrwt>
<rscale>  0 0.23452079E+03</rscale>
<asrwt>0</asrwt>
<pdfrwt beam="1">  1        2 0.14272336E+00 0.23452079E+03</pdfrwt>
<pdfrwt beam="2">  1       -2 0.86982285E-01 0.23452079E+03</pdfrwt>
<totfact> 0.35327585E+01</totfact>
</mgrwt>
</event>
<event>
 4    1  0.1104584E-007  0.2044863E+04  0.7818608E-02  0.8585928E-01
          2   -1    0    0  501    0  0.00000000000E+00  0.00000000000E+00  0.31277058934E+04  0.31277058934E+04  0.25500000000E-02 0. -1.
         -2   -1    0    0    0  501 -0.00000000000E+00 -0.00000000000E+00 -0.18322882907E+04  0.18322882907E+04  0.25500000000E-02 0.  1.
    8880022    1    1    2    0    0  0.73886563722E+03  0.19005654504E+04 -0.64179461582E+03  0.21432133452E+04  0.15294330000E+03 0.  0.
    8880022    1    1    2    0    0 -0.73886563722E+03 -0.19005654504E+04  0.19372122186E+04  0.28167808388E+04  0.15294330000E+03 0.  0.
<mgrwt>
<rscale>  0 0.20448626E+04</rscale>
<asrwt>0</asrwt>
<pdfrwt beam="1">  1        2 0.48118552E+00 0.20448626E+04</pdfrwt>
<pdfrwt beam="2">  1       -2 0.28189051E+00 0.20448626E+04</pdfrwt>
<totfact> 0.52212240E-02</totfact>
</mgrwt>
</event>
<event>
 4    1  0.1104584E-007  0.8205578E+03  0.7818608E-02  0.9530728E-01
         -2   -1    0    0    0  501 -0.00000000000E+00  0.00000000000E+00  0.80140714393E+03  0.80140714393E+03  0.25500000000E-02 0.  1.
          2   -1    0    0  501    0  0.00000000000E+00 -0.00000000000E+00 -0.24546643498E+04  0.24546643498E+04  0.25500000000E-02 0. -1.
    8880022    1    1    2    0    0  0.78977641970E+03  0.16179209439E+03  0.49371408885E+03  0.95763705518E+03  0.15294330000E+03 0.  0.
    8880022    1    1    2    0    0 -0.78977641970E+03 -0.16179209439E+03 -0.21469712947E+04  0.22984344385E+04  0.15294330000E+03 0.  0.
<mgrwt>
<rscale>  0 0.82055782E+03</rscale>
<asrwt>0</asrwt>
<pdfrwt beam="1">  1        2 0.37764067E+00 0.82055782E+03</pdfrwt>
<pdfrwt beam="2">  1       -2 0.12329341E+00 0.82055782E+03</pdfrwt>
<totfact> 0.19007246E+00</totfact>
</mgrwt>
</event>
<event>
 4    1  0.1104584E-007  0.8342057E+03  0.7818608E-02  0.9511784E-01
          2   -1    0    0  501    0  0.00000000000E+00  0.00000000000E+00  0.12015229222E+04  0.12015229222E+04  0.25500000000E-02 0. -1.
         -2   -1    0    0    0  501 -0.00000000000E+00 -0.00000000000E+00 -0.69151983172E+03  0.69151983172E+03  0.25500000000E-02 0.  1.
    8880022    1    1    2    0    0  0.46259176886E+03 -0.67713839725E+03 -0.12649720933E+03  0.84374211145E+03  0.15294330000E+03 0.  0.
    8880022    1    1    2    0    0 -0.46259176886E+03  0.67713839725E+03  0.63650029984E+03  0.10493006425E+04  0.15294330000E+03 0.  0.
<mgrwt>
<rscale>  0 0.83420573E+03</rscale>
<asrwt>0</asrwt>
<pdfrwt beam="1">  1        2 0.18484968E+00 0.83420573E+03</pdfrwt>
<pdfrwt beam="2">  1       -2 0.10638767E+00 0.83420573E+03</pdfrwt>
<totfact> 0.13594373E+01</totfact>
</mgrwt>
</event>
<event>
 4    1  0.1104584E-007  0.1156706E+04  0.7818608E-02  0.9151620E-01
          2   -1    0    0  501    0  0.00000000000E+00  0.00000000000E+00  0.12210571356E+04  0.12210571356E+04  0.25500000000E-02 0. -1.
         -2   -1    0    0    0  501 -0.00000000000E+00 -0.00000000000E+00 -0.11949694191E+04  0.11949694191E+04  0.25500000000E-02 0.  1.
    8880022    1    1    2    0    0  0.53982243367E+03  0.10115175970E+04 -0.33505426264E+03  0.12042545914E+04  0.15294330000E+03 0.  0.
    8880022    1    1    2    0    0 -0.53982243367E+03 -0.10115175970E+04  0.36114197908E+03  0.12117719633E+04  0.15294330000E+03 0.  0.
<mgrwt>
<rscale>  0 0.11567056E+04</rscale>
<asrwt>0</asrwt>
<pdfrwt beam="1">  1        2 0.18785494E+00 0.11567056E+04</pdfrwt>
<pdfrwt beam="2">  1       -2 0.18384145E+00 0.11567056E+04</pdfrwt>
<totfact> 0.30619991E+00</totfact>
</mgrwt>
</event>
<event>
 4    1  0.1104584E-007  0.7797035E+03  0.7818608E-02  0.9589869E-01
          2   -1    0    0  501    0  0.00000000000E+00  0.00000000000E+00  0.19699039418E+04  0.19699039418E+04  0.25500000000E-02 0. -1.
         -2   -1    0    0    0  501 -0.00000000000E+00 -0.00000000000E+00 -0.53398307890E+03  0.53398307891E+03  0.25500000000E-02 0.  1.
    8880022    1    1    2    0    0  0.70140347331E+03  0.30426804211E+03 -0.95374319324E+02  0.78551498243E+03  0.15294330000E+03 0.  0.
    8880022    1    1    2    0    0 -0.70140347331E+03 -0.30426804211E+03  0.15312951822E+04  0.17183720382E+04  0.15294330000E+03 0.  0.
<mgrwt>
<rscale>  0 0.77970349E+03</rscale>
<asrwt>0</asrwt>
<pdfrwt beam="1">  1        2 0.30306214E+00 0.77970349E+03</pdfrwt>
<pdfrwt beam="2">  1       -2 0.82151243E-01 0.77970349E+03</pdfrwt>
<totfact> 0.93132643E+00</totfact>
</mgrwt>
</event>
<event>
 4    1  0.1104584E-007  0.4528828E+03  0.7818608E-02  0.1026866E+00
         -2   -1    0    0    0  501 -0.00000000000E+00  0.00000000000E+00  0.43605546023E+03  0.43605546024E+03  0.25500000000E-02 0.  1.
          2   -1    0    0  501    0  0.00000000000E+00 -0.00000000000E+00 -0.48637788026E+03  0.48637788027E+03  0.25500000000E-02 0. -1.
    8880022    1    1    2    0    0 -0.11548746278E+03 -0.41033375890E+03 -0.10886174662E+03  0.46578286856E+03  0.15294330000E+03 0.  0.
    8880022    1    1    2    0    0  0.11548746278E+03  0.41033375890E+03  0.58539326587E+02  0.45665047194E+03  0.15294330000E+03 0.  0.
<mgrwt>
<rscale>  0 0.45288277E+03</rscale>
<asrwt>0</asrwt>
<pdfrwt beam="1">  1        2 0.74827366E-01 0.45288277E+03</pdfrwt>
<pdfrwt beam="2">  1       -2 0.67085455E-01 0.45288277E+03</pdfrwt>
<totfact> 0.13334884E+02</totfact>
</mgrwt>
</event>
<event>
 4    1  0.1104584E-007  0.4676636E+03  0.7818608E-02  0.1022582E+00
         -2   -1    0    0    0  501 -0.00000000000E+00  0.00000000000E+00  0.48370846164E+03  0.48370846165E+03  0.25500000000E-02 0.  1.
          2   -1    0    0  501    0  0.00000000000E+00 -0.00000000000E+00 -0.69692536153E+03  0.69692536154E+03  0.25500000000E-02 0. -1.
    8880022    1    1    2    0    0 -0.93629319039E+02 -0.43191565220E+03 -0.45645299930E+03  0.65349718713E+03  0.15294330000E+03 0.  0.
    8880022    1    1    2    0    0  0.93629319039E+02  0.43191565220E+03  0.24323609941E+03  0.52713663606E+03  0.15294330000E+03 0.  0.
<mgrwt>
<rscale>  0 0.46766359E+03</rscale>
<asrwt>0</asrwt>
<pdfrwt beam="1">  1        2 0.10721929E+00 0.46766359E+03</pdfrwt>
<pdfrwt beam="2">  1       -2 0.74416686E-01 0.46766359E+03</pdfrwt>
<totfact> 0.69447386E+01</totfact>
</mgrwt>
</event>
<event>
 4    1  0.1104584E-007  0.1898737E+03  0.7818608E-02  0.1158575E+00
         -2   -1    0    0    0  501 -0.00000000000E+00  0.00000000000E+00  0.74382055996E+02  0.74382056040E+02  0.25500000000E-02 0.  1.
          2   -1    0    0  501    0  0.00000000000E+00 -0.00000000000E+00 -0.14356416381E+04  0.14356416381E+04  0.25500000000E-02 0. -1.
    8880022    1    1    2    0    0  0.35098078346E+02  0.10690417356E+03 -0.66145763978E+02  0.20106539368E+03  0.15294330000E+03 0.  0.
    8880022    1    1    2    0    0 -0.35098078346E+02 -0.10690417356E+03 -0.12951138182E+04  0.13089583005E+04  0.15294330000E+03 0. -1.
<mgrwt>
<rscale>  0 0.18987372E+03</rscale>
<asrwt>0</asrwt>
<pdfrwt beam="1">  1        2 0.22086792E+00 0.18987372E+03</pdfrwt>
<pdfrwt beam="2">  1       -2 0.11443394E-01 0.18987372E+03</pdfrwt>
<totfact> 0.79812256E+02</totfact>
</mgrwt>
</event>
<event>
 4    1  0.1104584E-007  0.1794399E+04  0.7818608E-02  0.8709284E-01
          2   -1    0    0  501    0  0.00000000000E+00  0.00000000000E+00  0.99466728325E+03  0.99466728326E+03  0.25500000000E-02 0. -1.
         -2   -1    0    0    0  501 -0.00000000000E+00 -0.00000000000E+00 -0.44703899178E+04  0.44703899178E+04  0.25500000000E-02 0.  1.
    8880022    1    1    2    0    0  0.17368004373E+04 -0.42426377711E+03 -0.30263844592E+03  0.18197409688E+04  0.15294330000E+03 0.  0.
    8880022    1    1    2    0    0 -0.17368004373E+04  0.42426377711E+03 -0.31730841887E+04  0.36453162322E+04  0.15294330000E+03 0.  0.
<mgrwt>
<rscale>  0 0.17943988E+04</rscale>
<asrwt>0</asrwt>
<pdfrwt beam="1">  1        2 0.15302574E+00 0.17943988E+04</pdfrwt>
<pdfrwt beam="2">  1       -2 0.68775228E+00 0.17943988E+04</pdfrwt>
<totfact> 0.57404594E-03</totfact>
</mgrwt>
</event>
<event>
 4    1  0.1104584E-007  0.1498185E+04  0.7818608E-02  0.8885661E-01
         -2   -1    0    0    0  501 -0.00000000000E+00  0.00000000000E+00  0.21253386607E+04  0.21253386607E+04  0.25500000000E-02 0.  1.
          2   -1    0    0  501    0  0.00000000000E+00 -0.00000000000E+00 -0.17207353985E+04  0.17207353985E+04  0.25500000000E-02 0. -1.
    8880022    1    1    2    0    0 -0.12751512495E+04 -0.77146346841E+03 -0.99285318555E+03  0.17973079016E+04  0.15294330000E+03 0.  0.
    8880022    1    1    2    0    0  0.12751512495E+04  0.77146346841E+03  0.13974564477E+04  0.20487661576E+04  0.15294330000E+03 0.  0.
<mgrwt>
<rscale>  0 0.14981850E+04</rscale>
<asrwt>0</asrwt>
<pdfrwt beam="1">  1        2 0.26472852E+00 0.14981850E+04</pdfrwt>
<pdfrwt beam="2">  1       -2 0.32697518E+00 0.14981850E+04</pdfrwt>
<totfact> 0.19460184E-01</totfact>
</mgrwt>
</event>
<event>
 4    1  0.1104584E-007  0.2461260E+03  0.7818608E-02  0.1115778E+00
         -2   -1    0    0    0  501 -0.00000000000E+00  0.00000000000E+00  0.13191043737E+03  0.13191043740E+03  0.25500000000E-02 0.  1.
          2   -1    0    0  501    0  0.00000000000E+00 -0.00000000000E+00 -0.12193425339E+04  0.12193425339E+04  0.25500000000E-02 0. -1.
    8880022    1    1    2    0    0 -0.14786330866E+03 -0.12378534514E+03 -0.10281628483E+02  0.24634068811E+03  0.15294330000E+03 0.  0.
    8880022    1    1    2    0    0  0.14786330866E+03  0.12378534514E+03 -0.10771504680E+04  0.11049122832E+04  0.15294330000E+03 0.  0.
<mgrwt>
<rscale>  0 0.24612603E+03</rscale>
<asrwt>0</asrwt>
<pdfrwt beam="1">  1        2 0.18759115E+00 0.24612603E+03</pdfrwt>
<pdfrwt beam="2">  1       -2 0.20293914E-01 0.24612603E+03</pdfrwt>
<totfact> 0.40302392E+02</totfact>
</mgrwt>
</event>
<event>
 4    1  0.1104584E-007  0.2497605E+03  0.7818608E-02  0.1113456E+00
          2   -1    0    0  501    0  0.00000000000E+00  0.00000000000E+00  0.12922197046E+04  0.12922197047E+04  0.25500000000E-02 0. -1.
         -2   -1    0    0    0  501 -0.00000000000E+00 -0.00000000000E+00 -0.14335631257E+03  0.14335631259E+03  0.25500000000E-02 0.  1.
    8880022    1    1    2    0    0 -0.18921947648E+03  0.56432518233E+02  0.11590039852E+04  0.11856097714E+04  0.15294330000E+03 0.  0.
    8880022    1    1    2    0    0  0.18921947648E+03 -0.56432518233E+02 -0.10140593135E+02  0.24996624580E+03  0.15294330000E+03 0.  0.
<mgrwt>
<rscale>  0 0.24976047E+03</rscale>
<asrwt>0</asrwt>
<pdfrwt beam="1">  1        2 0.19880303E+00 0.24976047E+03</pdfrwt>
<pdfrwt beam="2">  1       -2 0.22054818E-01 0.24976047E+03</pdfrwt>
<totfact> 0.31762103E+02</totfact>
</mgrwt>
</event>
<event>
 4    1  0.1104584E-007  0.2412725E+03  0.7818608E-02  0.1118948E+00
          2   -1    0    0  501    0  0.00000000000E+00  0.00000000000E+00  0.20279111311E+04  0.20279111311E+04  0.25500000000E-02 0. -1.
         -2   -1    0    0    0  501 -0.00000000000E+00 -0.00000000000E+00 -0.77857110852E+02  0.77857110894E+02  0.25500000000E-02 0.  1.
    8880022    1    1    2    0    0  0.19877924136E+02 -0.18554140423E+03  0.13846163013E+03  0.27817983497E+03  0.15294330000E+03 0.  0.
    8880022    1    1    2    0    0 -0.19877924136E+02  0.18554140423E+03  0.18115923901E+04  0.18275884070E+04  0.15294330000E+03 0.  0.
<mgrwt>
<rscale>  0 0.24127246E+03</rscale>
<asrwt>0</asrwt>
<pdfrwt beam="1">  1        2 0.31198632E+00 0.24127246E+03</pdfrwt>
<pdfrwt beam="2">  1       -2 0.11978017E-01 0.24127246E+03</pdfrwt>
<totfact> 0.35948085E+02</totfact>
</mgrwt>
</event>
<event>
 4    1  0.1104584E-007  0.4217708E+03  0.7818608E-02  0.1036492E+00
          2   -1    0    0  501    0  0.00000000000E+00  0.00000000000E+00  0.28717471106E+04  0.28717471106E+04  0.25500000000E-02 0. -1.
         -2   -1    0    0    0  501 -0.00000000000E+00 -0.00000000000E+00 -0.16173512745E+03  0.16173512747E+03  0.25500000000E-02 0.  1.
    8880022    1    1    2    0    0 -0.17438609533E+03  0.35226190960E+03  0.25463930791E+04  0.25810866568E+04  0.15294330000E+03 0. -1.
    8880022    1    1    2    0    0  0.17438609533E+03 -0.35226190960E+03  0.16361890397E+03  0.45239558126E+03  0.15294330000E+03 0.  0.
<mgrwt>
<rscale>  0 0.42177081E+03</rscale>
<asrwt>0</asrwt>
<pdfrwt beam="1">  1        2 0.44180723E+00 0.42177081E+03</pdfrwt>
<pdfrwt beam="2">  1       -2 0.24882328E-01 0.42177081E+03</pdfrwt>
<totfact> 0.34020877E+01</totfact>
</mgrwt>
</event>
<event>
 4    1  0.1104584E-007  0.8624229E+03  0.7818608E-02  0.9473813E-01
          2   -1    0    0  501    0  0.00000000000E+00  0.00000000000E+00  0.25470847280E+04  0.25470847280E+04  0.25500000000E-02 0. -1.
         -2   -1    0    0    0  501 -0.00000000000E+00 -0.00000000000E+00 -0.40697141545E+03  0.40697141546E+03  0.25500000000E-02 0.  1.
    8880022    1    1    2    0    0 -0.21336211022E+03 -0.82149751610E+03  0.28503147403E+03  0.90830399825E+03  0.15294330000E+03 0.  0.
    8880022    1    1    2    0    0  0.21336211022E+03  0.82149751610E+03  0.18550818385E+04  0.20457521452E+04  0.15294330000E+03 0.  0.
<mgrwt>
<rscale>  0 0.86242287E+03</rscale>
<asrwt>0</asrwt>
<pdfrwt beam="1">  1        2 0.39185919E+00 0.86242287E+03</pdfrwt>
<pdfrwt beam="2">  1       -2 0.62610987E-01 0.86242287E+03</pdfrwt>
<totfact> 0.79769885E+00</totfact>
</mgrwt>
</event>
<event>
 4    1  0.1104584E-007  0.4436639E+03  0.7818608E-02  0.1029629E+00
          2   -1    0    0  501    0  0.00000000000E+00  0.00000000000E+00  0.32704303791E+04  0.32704303791E+04  0.25500000000E-02 0. -1.
         -2   -1    0    0    0  501 -0.00000000000E+00 -0.00000000000E+00 -0.74035488816E+02  0.74035488860E+02  0.25500000000E-02 0.  1.
    8880022    1    1    2    0    0  0.18712750161E+03 -0.37206087624E+03  0.87496690421E+03  0.98102229025E+03  0.15294330000E+03 0.  1.
    8880022    1    1    2    0    0 -0.18712750161E+03  0.37206087624E+03  0.23214279861E+04  0.23634435777E+04  0.15294330000E+03 0. -1.
<mgrwt>
<rscale>  0 0.44366389E+03</rscale>
<asrwt>0</asrwt>
<pdfrwt beam="1">  1        2 0.50314312E+00 0.44366389E+03</pdfrwt>
<pdfrwt beam="2">  1       -2 0.11390076E-01 0.44366389E+03</pdfrwt>
<totfact> 0.72914847E+01</totfact>
</mgrwt>
</event>
<event>
 4    1  0.1104584E-007  0.5083976E+03  0.7818608E-02  0.1011610E+00
          2   -1    0    0  501    0  0.00000000000E+00  0.00000000000E+00  0.15573626866E+04  0.15573626866E+04  0.25500000000E-02 0. -1.
         -2   -1    0    0    0  501 -0.00000000000E+00 -0.00000000000E+00 -0.31613404122E+03  0.31613404123E+03  0.25500000000E-02 0.  1.
    8880022    1    1    2    0    0 -0.11702650117E+02  0.48470558646E+03 -0.25005911279E+02  0.50901218667E+03  0.15294330000E+03 0.  0.
    8880022    1    1    2    0    0  0.11702650117E+02 -0.48470558646E+03  0.12662345567E+04  0.13644845412E+04  0.15294330000E+03 0.  0.
<mgrwt>
<rscale>  0 0.50839759E+03</rscale>
<asrwt>0</asrwt>
<pdfrwt beam="1">  1        2 0.23959426E+00 0.50839759E+03</pdfrwt>
<pdfrwt beam="2">  1       -2 0.48636006E-01 0.50839759E+03</pdfrwt>
<totfact> 0.49783627E+01</totfact>
</mgrwt>
</event>
<event>
 4    1  0.1104584E-007  0.4867847E+03  0.7818608E-02  0.1017287E+00
          2   -1    0    0  501    0  0.00000000000E+00  0.00000000000E+00  0.27425070756E+04  0.27425070756E+04  0.25500000000E-02 0. -1.
         -2   -1    0    0    0  501 -0.00000000000E+00 -0.00000000000E+00 -0.48548942714E+03  0.48548942715E+03  0.25500000000E-02 0.  1.
    8880022    1    1    2    0    0 -0.44776786291E+03  0.11433142561E+03  0.25918545339E+04  0.26371707021E+04  0.15294330000E+03 0.  0.
    8880022    1    1    2    0    0  0.44776786291E+03 -0.11433142561E+03 -0.33483688542E+03  0.59082580071E+03  0.15294330000E+03 0.  0.
<mgrwt>
<rscale>  0 0.48678474E+03</rscale>
<asrwt>0</asrwt>
<pdfrwt beam="1">  1        2 0.42192416E+00 0.48678474E+03</pdfrwt>
<pdfrwt beam="2">  1       -2 0.74690681E-01 0.48678474E+03</pdfrwt>
<totfact> 0.45429835E+00</totfact>
</mgrwt>
</event>
<event>
 4    1  0.1104584E-007  0.5139619E+03  0.7818608E-02  0.1010198E+00
          2   -1    0    0  501    0  0.00000000000E+00  0.00000000000E+00  0.33502807252E+04  0.33502807252E+04  0.25500000000E-02 0. -1.
         -2   -1    0    0    0  501 -0.00000000000E+00 -0.00000000000E+00 -0.16210337592E+03  0.16210337594E+03  0.25500000000E-02 0.  1.
    8880022    1    1    2    0    0  0.40277132680E+03  0.28025064361E+03  0.28526862249E+04  0.28986161381E+04  0.15294330000E+03 0.  0.
    8880022    1    1    2    0    0 -0.40277132680E+03 -0.28025064361E+03  0.33549112429E+03  0.61376796302E+03  0.15294330000E+03 0.  0.
<mgrwt>
<rscale>  0 0.51396188E+03</rscale>
<asrwt>0</asrwt>
<pdfrwt beam="1">  1        2 0.51542782E+00 0.51396188E+03</pdfrwt>
<pdfrwt beam="2">  1       -2 0.24938980E-01 0.51396188E+03</pdfrwt>
<totfact> 0.16737673E+01</totfact>
</mgrwt>
</event>
<event>
 4    1  0.1104584E-007  0.3771567E+03  0.7818608E-02  0.1051990E+00
         -2   -1    0    0    0  501 -0.00000000000E+00  0.00000000000E+00  0.32186228207E+03  0.32186228208E+03  0.25500000000E-02 0.  1.
          2   -1    0    0  501    0  0.00000000000E+00 -0.00000000000E+00 -0.24279194510E+04  0.24279194510E+04  0.25500000000E-02 0. -1.
    8880022    1    1    2    0    0  0.34442369582E+03  0.15093704078E+02 -0.22965043653E+04  0.23272686685E+04  0.15294330000E+03 0.  0.
    8880022    1    1    2    0    0 -0.34442369582E+03 -0.15093704078E+02  0.19044719641E+03  0.42251306463E+03  0.15294330000E+03 0.  0.
<mgrwt>
<rscale>  0 0.37715667E+03</rscale>
<asrwt>0</asrwt>
<pdfrwt beam="1">  1        2 0.37352606E+00 0.37715667E+03</pdfrwt>
<pdfrwt beam="2">  1       -2 0.49517276E-01 0.37715667E+03</pdfrwt>
<totfact> 0.16772589E+01</totfact>
</mgrwt>
</event>
<event>
 4    1  0.1104584E-007  0.8600422E+03  0.7818608E-02  0.9476957E-01
         -2   -1    0    0    0  501 -0.00000000000E+00  0.00000000000E+00  0.64229318435E+03  0.64229318435E+03  0.25500000000E-02 0.  1.
          2   -1    0    0  501    0  0.00000000000E+00 -0.00000000000E+00 -0.42914319857E+04  0.42914319857E+04  0.25500000000E-02 0. -1.
    8880022    1    1    2    0    0  0.84512301923E+03 -0.45254560907E+02 -0.39346362533E+04  0.40275346046E+04  0.15294330000E+03 0.  0.
    8880022    1    1    2    0    0 -0.84512301923E+03  0.45254560907E+02  0.28549745187E+03  0.90619056547E+03  0.15294330000E+03 0.  0.
<mgrwt>
<rscale>  0 0.86004218E+03</rscale>
<asrwt>0</asrwt>
<pdfrwt beam="1">  1        2 0.66022029E+00 0.86004218E+03</pdfrwt>
<pdfrwt beam="2">  1       -2 0.98814339E-01 0.86004218E+03</pdfrwt>
<totfact> 0.18014473E-01</totfact>
</mgrwt>
</event>
<event>
 4    1  0.1104584E-007  0.4521168E+03  0.7818608E-02  0.1027093E+00
          2   -1    0    0  501    0  0.00000000000E+00  0.00000000000E+00  0.15595934994E+04  0.15595934994E+04  0.25500000000E-02 0. -1.
         -2   -1    0    0    0  501 -0.00000000000E+00 -0.00000000000E+00 -0.38779622831E+03  0.38779622831E+03  0.25500000000E-02 0.  1.
    8880022    1    1    2    0    0 -0.12655100768E+02  0.42527380561E+03 -0.20634658658E+03  0.49697940412E+03  0.15294330000E+03 0.  0.
    8880022    1    1    2    0    0  0.12655100768E+02 -0.42527380561E+03  0.13781438576E+04  0.14504103236E+04  0.15294330000E+03 0. -1.
<mgrwt>
<rscale>  0 0.45211681E+03</rscale>
<asrwt>0</asrwt>
<pdfrwt beam="1">  1        2 0.23993746E+00 0.45211681E+03</pdfrwt>
<pdfrwt beam="2">  1       -2 0.59660959E-01 0.45211681E+03</pdfrwt>
<totfact> 0.32964987E+01</totfact>
</mgrwt>
</event>
<event>
 4    1  0.1104584E-007  0.7024432E+03  0.7818608E-02  0.9713063E-01
          2   -1    0    0  501    0  0.00000000000E+00  0.00000000000E+00  0.80391962079E+03  0.80391962079E+03  0.25500000000E-02 0. -1.
         -2   -1    0    0    0  501 -0.00000000000E+00 -0.00000000000E+00 -0.11073257764E+04  0.11073257764E+04  0.25500000000E-02 0.  1.
    8880022    1    1    2    0    0 -0.81572197304E+02  0.68072080935E+03 -0.78969366534E+03  0.10569023520E+04  0.15294330000E+03 0.  0.
    8880022    1    1    2    0    0  0.81572197304E+02 -0.68072080935E+03  0.48628750974E+03  0.85434304515E+03  0.15294330000E+03 0.  0.
<mgrwt>
<rscale>  0 0.70244323E+03</rscale>
<asrwt>0</asrwt>
<pdfrwt beam="1">  1        2 0.12367994E+00 0.70244323E+03</pdfrwt>
<pdfrwt beam="2">  1       -2 0.17035781E+00 0.70244323E+03</pdfrwt>
<totfact> 0.74260805E+00</totfact>
</mgrwt>
</event>
<event>
 4    1  0.1104584E-007  0.2221698E+03  0.7818608E-02  0.1132276E+00
          2   -1    0    0  501    0  0.00000000000E+00  0.00000000000E+00  0.22685459102E+04  0.22685459102E+04  0.25500000000E-02 0. -1.
         -2   -1    0    0    0  501 -0.00000000000E+00 -0.00000000000E+00 -0.12077689892E+03  0.12077689894E+03  0.25500000000E-02 0.  1.
    8880022    1    1    2    0    0  0.58078661000E+02 -0.15031518585E+03  0.21555962360E+04  0.21670151295E+04  0.15294330000E+03 0.  0.
    8880022    1    1    2    0    0 -0.58078661000E+02  0.15031518585E+03 -0.78272246974E+01  0.22230767963E+03  0.15294330000E+03 0.  0.
<mgrwt>
<rscale>  0 0.22216984E+03</rscale>
<asrwt>0</asrwt>
<pdfrwt beam="1">  1        2 0.34900703E+00 0.22216984E+03</pdfrwt>
<pdfrwt beam="2">  1       -2 0.18581063E-01 0.22216984E+03</pdfrwt>
<totfact> 0.13058357E+02</totfact>
</mgrwt>
</event>
<event>
 4    1  0.1104584E-007  0.4394800E+03  0.7818608E-02  0.1030906E+00
          2   -1    0    0  501    0  0.00000000000E+00  0.00000000000E+00  0.31206024939E+04  0.31206024939E+04  0.25500000000E-02 0. -1.
         -2   -1    0    0    0  501 -0.00000000000E+00 -0.00000000000E+00 -0.13395161264E+03  0.13395161266E+03  0.25500000000E-02 0.  1.
    8880022    1    1    2    0    0  0.27544411533E+03  0.30640094282E+03  0.29980119287E+03  0.53199944238E+03  0.15294330000E+03 0.  0.
    8880022    1    1    2    0    0 -0.27544411533E+03 -0.30640094282E+03  0.26868496884E+04  0.27225546642E+04  0.15294330000E+03 0.  0.
<mgrwt>
<rscale>  0 0.43947998E+03</rscale>
<asrwt>0</asrwt>
<pdfrwt beam="1">  1        2 0.48009274E+00 0.43947998E+03</pdfrwt>
<pdfrwt beam="2">  1       -2 0.20607938E-01 0.43947998E+03</pdfrwt>
<totfact> 0.33434503E+01</totfact>
</mgrwt>
</event>
<event>
 4    1  0.1104584E-007  0.2953726E+03  0.7818608E-02  0.1087577E+00
          2   -1    0    0  501    0  0.00000000000E+00  0.00000000000E+00  0.12557268678E+04  0.12557268678E+04  0.25500000000E-02 0. -1.
         -2   -1    0    0    0  501 -0.00000000000E+00 -0.00000000000E+00 -0.12679786840E+03  0.12679786843E+03  0.25500000000E-02 0.  1.
    8880022    1    1    2    0    0 -0.20795671651E+03  0.14355251605E+03  0.99691607084E+02  0.31174250648E+03  0.15294330000E+03 0.  0.
    8880022    1    1    2    0    0  0.20795671651E+03 -0.14355251605E+03  0.10292373923E+04  0.10707822297E+04  0.15294330000E+03 0.  0.
<mgrwt>
<rscale>  0 0.29537260E+03</rscale>
<asrwt>0</asrwt>
<pdfrwt beam="1">  1        2 0.19318875E+00 0.29537260E+03</pdfrwt>
<pdfrwt beam="2">  1       -2 0.19507365E-01 0.29537260E+03</pdfrwt>
<totfact> 0.40884274E+02</totfact>
</mgrwt>
</event>
<event>
 4    1  0.1104584E-007  0.4873136E+03  0.7818608E-02  0.1017144E+00
         -2   -1    0    0    0  501 -0.00000000000E+00  0.00000000000E+00  0.29908488500E+03  0.29908488501E+03  0.25500000000E-02 0.  1.
          2   -1    0    0  501    0  0.00000000000E+00 -0.00000000000E+00 -0.12198178058E+04  0.12198178058E+04  0.25500000000E-02 0. -1.
    8880022    1    1    2    0    0 -0.56230471584E+02  0.45926136989E+03 -0.90907306326E+03  0.10314496397E+04  0.15294330000E+03 0.  0.
    8880022    1    1    2    0    0  0.56230471584E+02 -0.45926136989E+03 -0.11659857563E+02  0.48745305117E+03  0.15294330000E+03 0.  0.
<mgrwt>
<rscale>  0 0.48731358E+03</rscale>
<asrwt>0</asrwt>
<pdfrwt beam="1">  1        2 0.18766428E+00 0.48731358E+03</pdfrwt>
<pdfrwt beam="2">  1       -2 0.46013060E-01 0.48731358E+03</pdfrwt>
<totfact> 0.86204767E+01</totfact>
</mgrwt>
</event>
<event>
 4    1  0.1104584E-007  0.5162457E+03  0.7818608E-02  0.1009623E+00
         -2   -1    0    0    0  501 -0.00000000000E+00  0.00000000000E+00  0.15938924340E+04  0.15938924340E+04  0.25500000000E-02 0.  1.
          2   -1    0    0  501    0  0.00000000000E+00 -0.00000000000E+00 -0.11162458620E+04  0.11162458620E+04  0.25500000000E-02 0. -1.
    8880022    1    1    2    0    0  0.33519471990E+03 -0.36161086901E+03 -0.10106402375E+04  0.11348582570E+04  0.15294330000E+03 0.  0.
    8880022    1    1    2    0    0 -0.33519471990E+03  0.36161086901E+03  0.14882868095E+04  0.15752800390E+04  0.15294330000E+03 0.  0.
<mgrwt>
<rscale>  0 0.51624565E+03</rscale>
<asrwt>0</asrwt>
<pdfrwt beam="1">  1        2 0.17173013E+00 0.51624565E+03</pdfrwt>
<pdfrwt beam="2">  1       -2 0.24521422E+00 0.51624565E+03</pdfrwt>
<totfact> 0.15923555E+00</totfact>
</mgrwt>
</event>
<event>
 4    1  0.1104584E-007  0.4456734E+03  0.7818608E-02  0.1029020E+00
         -2   -1    0    0    0  501 -0.00000000000E+00  0.00000000000E+00  0.29724483209E+03  0.29724483210E+03  0.25500000000E-02 0.  1.
          2   -1    0    0  501    0  0.00000000000E+00 -0.00000000000E+00 -0.15091625745E+04  0.15091625745E+04  0.25500000000E-02 0. -1.
    8880022    1    1    2    0    0 -0.39697343600E+03  0.13283528138E+03 -0.12801779100E+04  0.13555368882E+04  0.15294330000E+03 0. -1.
    8880022    1    1    2    0    0  0.39697343600E+03 -0.13283528138E+03  0.68260167631E+02  0.45087051841E+03  0.15294330000E+03 0.  0.
<mgrwt>
<rscale>  0 0.44567339E+03</rscale>
<asrwt>0</asrwt>
<pdfrwt beam="1">  1        2 0.23217885E+00 0.44567339E+03</pdfrwt>
<pdfrwt beam="2">  1       -2 0.45729975E-01 0.44567339E+03</pdfrwt>
<totfact> 0.60447654E+01</totfact>
</mgrwt>
</event>
<event>
 4    1  0.1104584E-007  0.3484348E+03  0.7818608E-02  0.1063259E+00
          2   -1    0    0  501    0  0.00000000000E+00  0.00000000000E+00  0.11854153563E+04  0.11854153563E+04  0.25500000000E-02 0. -1.
         -2   -1    0    0    0  501 -0.00000000000E+00 -0.00000000000E+00 -0.15700485647E+03  0.15700485649E+03  0.25500000000E-02 0.  1.
    8880022    1    1    2    0    0  0.14507002139E+03  0.27743443660E+03  0.11842923260E+03  0.36801129584E+03  0.15294330000E+03 0.  0.
    8880022    1    1    2    0    0 -0.14507002139E+03 -0.27743443660E+03  0.90998126723E+03  0.97440891695E+03  0.15294330000E+03 0.  0.
<mgrwt>
<rscale>  0 0.34843483E+03</rscale>
<asrwt>0</asrwt>
<pdfrwt beam="1">  1        2 0.18237160E+00 0.34843483E+03</pdfrwt>
<pdfrwt beam="2">  1       -2 0.24154593E-01 0.34843483E+03</pdfrwt>
<totfact> 0.30710092E+02</totfact>
</mgrwt>
</event>
<event>
 4    1  0.1104584E-007  0.5843411E+03  0.7818608E-02  0.9938437E-01
          2   -1    0    0  501    0  0.00000000000E+00  0.00000000000E+00  0.12230911340E+04  0.12230911340E+04  0.25500000000E-02 0. -1.
         -2   -1    0    0    0  501 -0.00000000000E+00 -0.00000000000E+00 -0.59842678351E+03  0.59842678352E+03  0.25500000000E-02 0.  1.
    8880022    1    1    2    0    0  0.23656868376E+03  0.51195520471E+03  0.97755276930E+03  0.11388871514E+04  0.15294330000E+03 0.  0.
    8880022    1    1    2    0    0 -0.23656868376E+03 -0.51195520471E+03 -0.35288841881E+03  0.68263076616E+03  0.15294330000E+03 0.  0.
<mgrwt>
<rscale>  0 0.58434110E+03</rscale>
<asrwt>0</asrwt>
<pdfrwt beam="1">  1        2 0.18816787E+00 0.58434110E+03</pdfrwt>
<pdfrwt beam="2">  1       -2 0.92065660E-01 0.58434110E+03</pdfrwt>
<totfact> 0.19163452E+01</totfact>
</mgrwt>
</event>
<event>
 4    1  0.1104584E-007  0.5170332E+03  0.7818608E-02  0.1009426E+00
          2   -1    0    0  501    0  0.00000000000E+00  0.00000000000E+00  0.92614480982E+03  0.92614480983E+03  0.25500000000E-02 0. -1.
         -2   -1    0    0    0  501 -0.00000000000E+00 -0.00000000000E+00 -0.41262801673E+03  0.41262801673E+03  0.25500000000E-02 0.  1.
    8880022    1    1    2    0    0 -0.49327656599E+03 -0.24696305642E+02  0.62369049491E+03  0.81013157235E+03  0.15294330000E+03 0.  0.
    8880022    1    1    2    0    0  0.49327656599E+03  0.24696305642E+02 -0.11017370181E+03  0.52864125421E+03  0.15294330000E+03 0.  0.
<mgrwt>
<rscale>  0 0.51703320E+03</rscale>
<asrwt>0</asrwt>
<pdfrwt beam="1">  1        2 0.14248382E+00 0.51703320E+03</pdfrwt>
<pdfrwt beam="2">  1       -2 0.63481234E-01 0.51703320E+03</pdfrwt>
<totfact> 0.67050232E+01</totfact>
</mgrwt>
</event>
<event>
 4    1  0.1104584E-007  0.1809061E+03  0.7818608E-02  0.1166929E+00
          2   -1    0    0  501    0  0.00000000000E+00  0.00000000000E+00  0.35613000127E+03  0.35613000128E+03  0.25500000000E-02 0. -1.
         -2   -1    0    0    0  501 -0.00000000000E+00 -0.00000000000E+00 -0.43775745569E+03  0.43775745569E+03  0.25500000000E-02 0.  1.
    8880022    1    1    2    0    0  0.47779022587E+02  0.83979399223E+02 -0.39364174637E+03  0.43322148146E+03  0.15294330000E+03 0.  0.
    8880022    1    1    2    0    0 -0.47779022587E+02 -0.83979399223E+02  0.31201429196E+03  0.36066597551E+03  0.15294330000E+03 0. -1.
<mgrwt>
<rscale>  0 0.18090613E+03</rscale>
<asrwt>0</asrwt>
<pdfrwt beam="1">  1        2 0.54789231E-01 0.18090613E+03</pdfrwt>
<pdfrwt beam="2">  1       -2 0.67347301E-01 0.18090613E+03</pdfrwt>
<totfact> 0.19086169E+02</totfact>
</mgrwt>
</event>
<event>
 4    1  0.1104584E-007  0.1049054E+04  0.7818608E-02  0.9256321E-01
         -2   -1    0    0    0  501 -0.00000000000E+00  0.00000000000E+00  0.10794641162E+04  0.10794641162E+04  0.25500000000E-02 0.  1.
          2   -1    0    0  501    0  0.00000000000E+00 -0.00000000000E+00 -0.16381821425E+04  0.16381821425E+04  0.25500000000E-02 0. -1.
    8880022    1    1    2    0    0 -0.45822830033E+02 -0.10368333724E+04  0.55569631235E+03  0.11871449863E+04  0.15294330000E+03 0.  0.
    8880022    1    1    2    0    0  0.45822830033E+02  0.10368333724E+04 -0.11144143386E+04  0.15305012724E+04  0.15294330000E+03 0.  0.
<mgrwt>
<rscale>  0 0.10490543E+04</rscale>
<asrwt>0</asrwt>
<pdfrwt beam="1">  1        2 0.25202802E+00 0.10490543E+04</pdfrwt>
<pdfrwt beam="2">  1       -2 0.16607140E+00 0.10490543E+04</pdfrwt>
<totfact> 0.23844737E+00</totfact>
</mgrwt>
</event>
<event>
 4    1  0.1104584E-007  0.2538861E+03  0.7818608E-02  0.1110873E+00
          2   -1    0    0  501    0  0.00000000000E+00  0.00000000000E+00  0.95496728377E+03  0.95496728377E+03  0.25500000000E-02 0. -1.
         -2   -1    0    0    0  501 -0.00000000000E+00 -0.00000000000E+00 -0.13007263840E+03  0.13007263842E+03  0.25500000000E-02 0.  1.
    8880022    1    1    2    0    0  0.16094012302E+03 -0.12314544054E+03  0.78873731663E+03  0.82859201684E+03  0.15294330000E+03 0.  0.
    8880022    1    1    2    0    0 -0.16094012302E+03  0.12314544054E+03  0.36157328742E+02  0.25644790535E+03  0.15294330000E+03 0.  1.
<mgrwt>
<rscale>  0 0.25388615E+03</rscale>
<asrwt>0</asrwt>
<pdfrwt beam="1">  1        2 0.14691804E+00 0.25388615E+03</pdfrwt>
<pdfrwt beam="2">  1       -2 0.20011175E-01 0.25388615E+03</pdfrwt>
<totfact> 0.59156568E+02</totfact>
</mgrwt>
</event>
<event>
 4    1  0.1104584E-007  0.5397640E+03  0.7818608E-02  0.1003891E+00
         -2   -1    0    0    0  501 -0.00000000000E+00  0.00000000000E+00  0.24176740879E+03  0.24176740881E+03  0.25500000000E-02 0.  1.
          2   -1    0    0  501    0  0.00000000000E+00 -0.00000000000E+00 -0.18512756601E+04  0.18512756601E+04  0.25500000000E-02 0. -1.
    8880022    1    1    2    0    0 -0.49744700386E+01  0.51761837824E+03 -0.14230552585E+04  0.15219827373E+04  0.15294330000E+03 0.  0.
    8880022    1    1    2    0    0  0.49744700386E+01 -0.51761837824E+03 -0.18645299286E+03  0.57106033167E+03  0.15294330000E+03 0.  0.
<mgrwt>
<rscale>  0 0.53976401E+03</rscale>
<asrwt>0</asrwt>
<pdfrwt beam="1">  1        2 0.28481163E+00 0.53976401E+03</pdfrwt>
<pdfrwt beam="2">  1       -2 0.37194987E-01 0.53976401E+03</pdfrwt>
<totfact> 0.58134837E+01</totfact>
</mgrwt>
</event>
<event>
 4    1  0.1104584E-007  0.3964738E+03  0.7818608E-02  0.1045008E+00
         -2   -1    0    0    0  501 -0.00000000000E+00  0.00000000000E+00  0.65356961637E+03  0.65356961637E+03  0.25500000000E-02 0.  1.
          2   -1    0    0  501    0  0.00000000000E+00 -0.00000000000E+00 -0.55916137907E+03  0.55916137907E+03  0.25500000000E-02 0. -1.
    8880022    1    1    2    0    0  0.36162350547E+03 -0.55029513006E+02 -0.41053950863E+03  0.57073123988E+03  0.15294330000E+03 0.  0.
    8880022    1    1    2    0    0 -0.36162350547E+03  0.55029513006E+02  0.50494774593E+03  0.64199975557E+03  0.15294330000E+03 0.  0.
<mgrwt>
<rscale>  0 0.39647378E+03</rscale>
<asrwt>0</asrwt>
<pdfrwt beam="1">  1        2 0.86024828E-01 0.39647378E+03</pdfrwt>
<pdfrwt beam="2">  1       -2 0.10054917E+00 0.39647378E+03</pdfrwt>
<totfact> 0.46078761E+01</totfact>
</mgrwt>
</event>
<event>
 4    1  0.1104584E-007  0.3023987E+03  0.7818608E-02  0.1084048E+00
          2   -1    0    0  501    0  0.00000000000E+00  0.00000000000E+00  0.20404025162E+03  0.20404025163E+03  0.25500000000E-02 0. -1.
         -2   -1    0    0    0  501 -0.00000000000E+00 -0.00000000000E+00 -0.85004196559E+03  0.85004196559E+03  0.25500000000E-02 0.  1.
    8880022    1    1    2    0    0 -0.77318580548E+02 -0.24914881419E+03  0.39381928946E+02  0.30495226488E+03  0.15294330000E+03 0.  0.
    8880022    1    1    2    0    0  0.77318580548E+02  0.24914881419E+03 -0.68538364292E+03  0.74912995235E+03  0.15294330000E+03 0.  0.
<mgrwt>
<rscale>  0 0.30239866E+03</rscale>
<asrwt>0</asrwt>
<pdfrwt beam="1">  1        2 0.31390808E-01 0.30239866E+03</pdfrwt>
<pdfrwt beam="2">  1       -2 0.13077569E+00 0.30239866E+03</pdfrwt>
<totfact> 0.75215333E+01</totfact>
</mgrwt>
</event>
<event>
 4    1  0.1104584E-007  0.3743066E+03  0.7818608E-02  0.1053058E+00
          2   -1    0    0  501    0  0.00000000000E+00  0.00000000000E+00  0.38906988069E+04  0.38906988069E+04  0.25500000000E-02 0. -1.
         -2   -1    0    0    0  501 -0.00000000000E+00 -0.00000000000E+00 -0.32679353514E+03  0.32679353515E+03  0.25500000000E-02 0.  1.
    8880022    1    1    2    0    0  0.33230639145E+03 -0.79285834433E+02  0.37711241067E+04  0.37896546627E+04  0.15294330000E+03 0. -1.
    8880022    1    1    2    0    0 -0.33230639145E+03  0.79285834433E+02 -0.20721883491E+03  0.42783767938E+03  0.15294330000E+03 0.  0.
<mgrwt>
<rscale>  0 0.37430660E+03</rscale>
<asrwt>0</asrwt>
<pdfrwt beam="1">  1        2 0.59856903E+00 0.37430660E+03</pdfrwt>
<pdfrwt beam="2">  1       -2 0.50275930E-01 0.37430660E+03</pdfrwt>
<totfact> 0.19630792E+00</totfact>
</mgrwt>
</event>
<event>
 4    1  0.1104584E-007  0.4424896E+03  0.7818608E-02  0.1029986E+00
          2   -1    0    0  501    0  0.00000000000E+00  0.00000000000E+00  0.36335121602E+04  0.36335121602E+04  0.25500000000E-02 0. -1.
         -2   -1    0    0    0  501 -0.00000000000E+00 -0.00000000000E+00 -0.71402515963E+02  0.71402516008E+02  0.25500000000E-02 0.  1.
    8880022    1    1    2    0    0 -0.89110654690E+02  0.40554244281E+03  0.86354680301E+03  0.97031444167E+03  0.15294330000E+03 0.  1.
    8880022    1    1    2    0    0  0.89110654690E+02 -0.40554244281E+03  0.26985628413E+04  0.27346002346E+04  0.15294330000E+03 0.  0.
<mgrwt>
<rscale>  0 0.44248959E+03</rscale>
<asrwt>0</asrwt>
<pdfrwt beam="1">  1        2 0.55900191E+00 0.44248959E+03</pdfrwt>
<pdfrwt beam="2">  1       -2 0.10985002E-01 0.44248959E+03</pdfrwt>
<totfact> 0.44373370E+01</totfact>
</mgrwt>
</event>
<event>
 4    1  0.1104584E-007  0.3485722E+03  0.7818608E-02  0.1063203E+00
         -2   -1    0    0    0  501 -0.00000000000E+00  0.00000000000E+00  0.20912060670E+03  0.20912060672E+03  0.25500000000E-02 0.  1.
          2   -1    0    0  501    0  0.00000000000E+00 -0.00000000000E+00 -0.72149106530E+03  0.72149106530E+03  0.25500000000E-02 0. -1.
    8880022    1    1    2    0    0  0.28784532791E+03 -0.12351502350E+03 -0.46150070851E+03  0.57834717152E+03  0.15294330000E+03 0.  0.
    8880022    1    1    2    0    0 -0.28784532791E+03  0.12351502350E+03 -0.50869750084E+02  0.35226450051E+03  0.15294330000E+03 0.  0.
<mgrwt>
<rscale>  0 0.34857215E+03</rscale>
<asrwt>0</asrwt>
<pdfrwt beam="1">  1        2 0.11099862E+00 0.34857215E+03</pdfrwt>
<pdfrwt beam="2">  1       -2 0.32172401E-01 0.34857215E+03</pdfrwt>
<totfact> 0.36380464E+02</totfact>
</mgrwt>
</event>
<event>
 4    1  0.1104584E-007  0.7875120E+03  0.7818608E-02  0.9578271E-01
          2   -1    0    0  501    0  0.00000000000E+00  0.00000000000E+00  0.29062432988E+04  0.29062432988E+04  0.25500000000E-02 0. -1.
         -2   -1    0    0    0  501 -0.00000000000E+00 -0.00000000000E+00 -0.24634287759E+03  0.24634287760E+03  0.25500000000E-02 0.  1.
    8880022    1    1    2    0    0  0.42601391462E+03  0.64443441830E+03  0.75346722338E+03  0.10899027868E+04  0.15294330000E+03 0.  0.
    8880022    1    1    2    0    0 -0.42601391462E+03 -0.64443441830E+03  0.19064331978E+04  0.20626833896E+04  0.15294330000E+03 0.  0.
<mgrwt>
<rscale>  0 0.78751205E+03</rscale>
<asrwt>0</asrwt>
<pdfrwt beam="1">  1        2 0.44711439E+00 0.78751205E+03</pdfrwt>
<pdfrwt beam="2">  1       -2 0.37898901E-01 0.78751205E+03</pdfrwt>
<totfact> 0.13766172E+01</totfact>
</mgrwt>
</event>
<event>
 4    1  0.1104584E-007  0.8882937E+03  0.7818608E-02  0.9440334E-01
         -2   -1    0    0    0  501 -0.00000000000E+00  0.00000000000E+00  0.81643930523E+03  0.81643930523E+03  0.25500000000E-02 0.  1.
          2   -1    0    0  501    0  0.00000000000E+00 -0.00000000000E+00 -0.43659318874E+04  0.43659318874E+04  0.25500000000E-02 0. -1.
    8880022    1    1    2    0    0 -0.49808512458E+03 -0.71943400425E+03  0.51172105358E+03  0.10251459250E+04  0.15294330000E+03 0.  0.
    8880022    1    1    2    0    0  0.49808512458E+03  0.71943400425E+03 -0.40612136358E+04  0.41572252677E+04  0.15294330000E+03 0.  0.
<mgrwt>
<rscale>  0 0.88829372E+03</rscale>
<asrwt>0</asrwt>
<pdfrwt beam="1">  1        2 0.67168182E+00 0.88829372E+03</pdfrwt>
<pdfrwt beam="2">  1       -2 0.12560605E+00 0.88829372E+03</pdfrwt>
<totfact> 0.85525833E-02</totfact>
</mgrwt>
</event>
<event>
 4    1  0.1104584E-007  0.6185565E+03  0.7818608E-02  0.9867638E-01
         -2   -1    0    0    0  501 -0.00000000000E+00  0.00000000000E+00  0.28277833104E+03  0.28277833105E+03  0.25500000000E-02 0.  1.
          2   -1    0    0  501    0  0.00000000000E+00 -0.00000000000E+00 -0.29893266463E+04  0.29893266463E+04  0.25500000000E-02 0. -1.
    8880022    1    1    2    0    0 -0.59916775504E+03 -0.14780879234E+02 -0.25637034523E+04  0.26372689505E+04  0.15294330000E+03 0.  0.
    8880022    1    1    2    0    0  0.59916775504E+03  0.14780879234E+02 -0.14284486296E+03  0.63483602683E+03  0.15294330000E+03 0.  1.
<mgrwt>
<rscale>  0 0.61855649E+03</rscale>
<asrwt>0</asrwt>
<pdfrwt beam="1">  1        2 0.45989639E+00 0.61855649E+03</pdfrwt>
<pdfrwt beam="2">  1       -2 0.43504361E-01 0.61855649E+03</pdfrwt>
<totfact> 0.96691206E+00</totfact>
</mgrwt>
</event>
<event>
 4    1  0.1104584E-007  0.6303866E+03  0.7818608E-02  0.9844295E-01
         -2   -1    0    0    0  501 -0.00000000000E+00  0.00000000000E+00  0.40337286565E+03  0.40337286566E+03  0.25500000000E-02 0.  1.
          2   -1    0    0  501    0  0.00000000000E+00 -0.00000000000E+00 -0.11035814288E+04  0.11035814288E+04  0.25500000000E-02 0. -1.
    8880022    1    1    2    0    0  0.74582688080E+02 -0.60698689292E+03 -0.10328405867E+03  0.63879176210E+03  0.15294330000E+03 0.  0.
    8880022    1    1    2    0    0 -0.74582688080E+02  0.60698689292E+03 -0.59692450443E+03  0.86816253233E+03  0.15294330000E+03 0.  0.
<mgrwt>
<rscale>  0 0.63038664E+03</rscale>
<asrwt>0</asrwt>
<pdfrwt beam="1">  1        2 0.16978176E+00 0.63038664E+03</pdfrwt>
<pdfrwt beam="2">  1       -2 0.62057364E-01 0.63038664E+03</pdfrwt>
<totfact> 0.53741180E+01</totfact>
</mgrwt>
</event>
<event>
 4    1  0.1104584E-007  0.3964410E+03  0.7818608E-02  0.1045019E+00
          2   -1    0    0  501    0  0.00000000000E+00  0.00000000000E+00  0.69060348216E+03  0.69060348217E+03  0.25500000000E-02 0. -1.
         -2   -1    0    0    0  501 -0.00000000000E+00 -0.00000000000E+00 -0.30458338883E+03  0.30458338884E+03  0.25500000000E-02 0.  1.
    8880022    1    1    2    0    0  0.10965394412E+03 -0.34892668278E+03 -0.57188571527E+02  0.40054463315E+03  0.15294330000E+03 0.  0.
    8880022    1    1    2    0    0 -0.10965394412E+03  0.34892668278E+03  0.44320866486E+03  0.59464223786E+03  0.15294330000E+03 0.  0.
<mgrwt>
<rscale>  0 0.39644100E+03</rscale>
<asrwt>0</asrwt>
<pdfrwt beam="1">  1        2 0.10624669E+00 0.39644100E+03</pdfrwt>
<pdfrwt beam="2">  1       -2 0.46858984E-01 0.39644100E+03</pdfrwt>
<totfact> 0.18594360E+02</totfact>
</mgrwt>
</event>
<event>
 4    1  0.1104584E-007  0.8691658E+03  0.7818608E-02  0.9464968E-01
         -2   -1    0    0    0  501 -0.00000000000E+00  0.00000000000E+00  0.12051627713E+04  0.12051627713E+04  0.25500000000E-02 0.  1.
          2   -1    0    0  501    0  0.00000000000E+00 -0.00000000000E+00 -0.72090291078E+03  0.72090291078E+03  0.25500000000E-02 0. -1.
    8880022    1    1    2    0    0 -0.85549688349E+03 -0.13515082135E+02  0.58998820897E+03  0.10504928914E+04  0.15294330000E+03 0.  0.
    8880022    1    1    2    0    0  0.85549688349E+03  0.13515082135E+02 -0.10572834846E+03  0.87557279069E+03  0.15294330000E+03 0.  0.
<mgrwt>
<rscale>  0 0.86916582E+03</rscale>
<asrwt>0</asrwt>
<pdfrwt beam="1">  1        2 0.11090814E+00 0.86916582E+03</pdfrwt>
<pdfrwt beam="2">  1       -2 0.18540965E+00 0.86916582E+03</pdfrwt>
<totfact> 0.66054774E+00</totfact>
</mgrwt>
</event>
<event>
 4    1  0.1104584E-007  0.2764281E+03  0.7818608E-02  0.1097656E+00
         -2   -1    0    0    0  501 -0.00000000000E+00  0.00000000000E+00  0.28891949201E+03  0.28891949203E+03  0.25500000000E-02 0.  1.
          2   -1    0    0  501    0  0.00000000000E+00 -0.00000000000E+00 -0.15999238357E+04  0.15999238357E+04  0.25500000000E-02 0. -1.
    8880022    1    1    2    0    0 -0.59055847282E+02 -0.22256068751E+03 -0.15183408780E+04  0.15432989106E+04  0.15294330000E+03 0.  0.
    8880022    1    1    2    0    0  0.59055847282E+02  0.22256068751E+03  0.20733653430E+03  0.34554441711E+03  0.15294330000E+03 0.  1.
<mgrwt>
<rscale>  0 0.27642812E+03</rscale>
<asrwt>0</asrwt>
<pdfrwt beam="1">  1        2 0.24614212E+00 0.27642812E+03</pdfrwt>
<pdfrwt beam="2">  1       -2 0.44449154E-01 0.27642812E+03</pdfrwt>
<totfact> 0.59307788E+01</totfact>
</mgrwt>
</event>
<event>
 4    1  0.1104584E-007  0.5996668E+03  0.7818608E-02  0.9906098E-01
         -2   -1    0    0    0  501 -0.00000000000E+00  0.00000000000E+00  0.22322628966E+03  0.22322628968E+03  0.25500000000E-02 0.  1.
          2   -1    0    0  501    0  0.00000000000E+00 -0.00000000000E+00 -0.17554802540E+04  0.17554802540E+04  0.25500000000E-02 0. -1.
    8880022    1    1    2    0    0  0.11090859683E+03  0.56912902616E+03 -0.10500328358E+04  0.12092018750E+04  0.15294330000E+03 0.  0.
    8880022    1    1    2    0    0 -0.11090859683E+03 -0.56912902616E+03 -0.48222112854E+03  0.76950466866E+03  0.15294330000E+03 0.  0.
<mgrwt>
<rscale>  0 0.59966676E+03</rscale>
<asrwt>0</asrwt>
<pdfrwt beam="1">  1        2 0.27007388E+00 0.59966676E+03</pdfrwt>
<pdfrwt beam="2">  1       -2 0.34342507E-01 0.59966676E+03</pdfrwt>
<totfact> 0.75574296E+01</totfact>
</mgrwt>
</event>
<event>
 4    1  0.1104584E-007  0.6961303E+03  0.7818608E-02  0.9723873E-01
         -2   -1    0    0    0  501 -0.00000000000E+00  0.00000000000E+00  0.61719655623E+03  0.61719655623E+03  0.25500000000E-02 0.  1.
          2   -1    0    0  501    0  0.00000000000E+00 -0.00000000000E+00 -0.10116733459E+04  0.10116733459E+04  0.25500000000E-02 0. -1.
    8880022    1    1    2    0    0 -0.63477317835E+03 -0.24138934260E+03 -0.58261386422E+03  0.90776449064E+03  0.15294330000E+03 0.  0.
    8880022    1    1    2    0    0  0.63477317835E+03  0.24138934260E+03  0.18813707454E+03  0.72110541150E+03  0.15294330000E+03 0.  0.
<mgrwt>
<rscale>  0 0.69613034E+03</rscale>
<asrwt>0</asrwt>
<pdfrwt beam="1">  1        2 0.15564205E+00 0.69613034E+03</pdfrwt>
<pdfrwt beam="2">  1       -2 0.94953316E-01 0.69613034E+03</pdfrwt>
<totfact> 0.23616249E+01</totfact>
</mgrwt>
</event>
<event>
 4    1  0.1104584E-007  0.6254830E+03  0.7818608E-02  0.9853903E-01
          2   -1    0    0  501    0  0.00000000000E+00  0.00000000000E+00  0.17134803649E+04  0.17134803649E+04  0.25500000000E-02 0. -1.
         -2   -1    0    0    0  501 -0.00000000000E+00 -0.00000000000E+00 -0.63707048995E+03  0.63707048995E+03  0.25500000000E-02 0.  1.
    8880022    1    1    2    0    0 -0.11781760533E+03 -0.59494231252E+03  0.14796019922E+04  0.16063782406E+04  0.15294330000E+03 0.  0.
    8880022    1    1    2    0    0  0.11781760533E+03  0.59494231252E+03 -0.40319211730E+03  0.74417261426E+03  0.15294330000E+03 0.  0.
<mgrwt>
<rscale>  0 0.62548301E+03</rscale>
<asrwt>0</asrwt>
<pdfrwt beam="1">  1        2 0.26361236E+00 0.62548301E+03</pdfrwt>
<pdfrwt beam="2">  1       -2 0.98010846E-01 0.62548301E+03</pdfrwt>
<totfact> 0.87642326E+00</totfact>
</mgrwt>
</event>
<event>
 4    1  0.1104584E-007  0.1962777E+03  0.7818608E-02  0.1152918E+00
          2   -1    0    0  501    0  0.00000000000E+00  0.00000000000E+00  0.11219868289E+04  0.11219868289E+04  0.25500000000E-02 0. -1.
         -2   -1    0    0    0  501 -0.00000000000E+00 -0.00000000000E+00 -0.11309534656E+03  0.11309534659E+03  0.25500000000E-02 0.  1.
    8880022    1    1    2    0    0  0.40534928080E+02 -0.11614740758E+03  0.10197853524E+04  0.10385023441E+04  0.15294330000E+03 0.  0.
    8880022    1    1    2    0    0 -0.40534928080E+02  0.11614740758E+03 -0.10893870097E+02  0.19657983137E+03  0.15294330000E+03 0.  1.
<mgrwt>
<rscale>  0 0.19627775E+03</rscale>
<asrwt>0</asrwt>
<pdfrwt beam="1">  1        2 0.17261335E+00 0.19627775E+03</pdfrwt>
<pdfrwt beam="2">  1       -2 0.17399285E-01 0.19627775E+03</pdfrwt>
<totfact> 0.59831089E+02</totfact>
</mgrwt>
</event>
<event>
 4    1  0.1104584E-007  0.2253069E+03  0.7818608E-02  0.1129987E+00
          2   -1    0    0  501    0  0.00000000000E+00  0.00000000000E+00  0.56998408388E+03  0.56998408389E+03  0.25500000000E-02 0. -1.
         -2   -1    0    0    0  501 -0.00000000000E+00 -0.00000000000E+00 -0.11918578162E+04  0.11918578162E+04  0.25500000000E-02 0.  1.
    8880022    1    1    2    0    0  0.31303784066E+02 -0.16245501063E+03  0.53643202287E+03  0.58182688624E+03  0.15294330000E+03 0.  0.
    8880022    1    1    2    0    0 -0.31303784066E+02  0.16245501063E+03 -0.11583057552E+04  0.11800150139E+04  0.15294330000E+03 0.  0.
<mgrwt>
<rscale>  0 0.22530692E+03</rscale>
<asrwt>0</asrwt>
<pdfrwt beam="1">  1        2 0.87689859E-01 0.22530692E+03</pdfrwt>
<pdfrwt beam="2">  1       -2 0.18336274E+00 0.22530692E+03</pdfrwt>
<totfact> 0.10188372E+01</totfact>
</mgrwt>
</event>
<event>
 4    1  0.1104584E-007  0.2097261E+03  0.7818608E-02  0.1141783E+00
          2   -1    0    0  501    0  0.00000000000E+00  0.00000000000E+00  0.82200915222E+03  0.82200915222E+03  0.25500000000E-02 0. -1.
         -2   -1    0    0    0  501 -0.00000000000E+00 -0.00000000000E+00 -0.12904962452E+03  0.12904962455E+03  0.25500000000E-02 0.  1.
    8880022    1    1    2    0    0  0.11238371715E+03  0.89237240965E+02  0.71030158985E+03  0.74061689598E+03  0.15294330000E+03 0. -1.
    8880022    1    1    2    0    0 -0.11238371715E+03 -0.89237240965E+02 -0.17342062155E+02  0.21044188079E+03  0.15294330000E+03 0.  0.
<mgrwt>
<rscale>  0 0.20972610E+03</rscale>
<asrwt>0</asrwt>
<pdfrwt beam="1">  1        2 0.12646294E+00 0.20972610E+03</pdfrwt>
<pdfrwt beam="2">  1       -2 0.19853789E-01 0.20972610E+03</pdfrwt>
<totfact> 0.73358011E+02</totfact>
</mgrwt>
</event>
<event>
 4    1  0.1104584E-007  0.2403792E+03  0.7818608E-02  0.1119540E+00
         -2   -1    0    0    0  501 -0.00000000000E+00  0.00000000000E+00  0.56148856169E+02  0.56148856227E+02  0.25500000000E-02 0.  1.
          2   -1    0    0  501    0  0.00000000000E+00 -0.00000000000E+00 -0.15746708745E+04  0.15746708745E+04  0.25500000000E-02 0. -1.
    8880022    1    1    2    0    0  0.13917116516E+03 -0.12256377010E+03 -0.12392278311E+04  0.12623263291E+04  0.15294330000E+03 0.  0.
    8880022    1    1    2    0    0 -0.13917116516E+03  0.12256377010E+03 -0.27929418725E+03  0.36849340157E+03  0.15294330000E+03 0.  1.
<mgrwt>
<rscale>  0 0.24037917E+03</rscale>
<asrwt>0</asrwt>
<pdfrwt beam="1">  1        2 0.24225702E+00 0.24037917E+03</pdfrwt>
<pdfrwt beam="2">  1       -2 0.86382868E-02 0.24037917E+03</pdfrwt>
<totfact> 0.10468136E+03</totfact>
</mgrwt>
</event>
<event>
 4    1  0.1104584E-007  0.6938228E+03  0.7818608E-02  0.9727855E-01
         -2   -1    0    0    0  501 -0.00000000000E+00  0.00000000000E+00  0.59045383529E+03  0.59045383529E+03  0.25500000000E-02 0.  1.
          2   -1    0    0  501    0  0.00000000000E+00 -0.00000000000E+00 -0.11224233093E+04  0.11224233093E+04  0.25500000000E-02 0. -1.
    8880022    1    1    2    0    0 -0.26614668009E+03 -0.62222534373E+03  0.18201995458E+03  0.71730143635E+03  0.15294330000E+03 0.  0.
    8880022    1    1    2    0    0  0.26614668009E+03  0.62222534373E+03 -0.71398942863E+03  0.99557570828E+03  0.15294330000E+03 0.  0.
<mgrwt>
<rscale>  0 0.69382281E+03</rscale>
<asrwt>0</asrwt>
<pdfrwt beam="1">  1        2 0.17268051E+00 0.69382281E+03</pdfrwt>
<pdfrwt beam="2">  1       -2 0.90839052E-01 0.69382281E+03</pdfrwt>
<totfact> 0.22361184E+01</totfact>
</mgrwt>
</event>
<event>
 4    1  0.1104584E-007  0.9463565E+03  0.7818608E-02  0.9369419E-01
         -2   -1    0    0    0  501 -0.00000000000E+00  0.00000000000E+00  0.12503184748E+04  0.12503184748E+04  0.25500000000E-02 0.  1.
          2   -1    0    0  501    0  0.00000000000E+00 -0.00000000000E+00 -0.15167025296E+04  0.15167025296E+04  0.25500000000E-02 0. -1.
    8880022    1    1    2    0    0  0.50215228900E+03 -0.78742744845E+03 -0.11382455886E+04  0.14802680774E+04  0.15294330000E+03 0.  0.
    8880022    1    1    2    0    0 -0.50215228900E+03  0.78742744845E+03  0.87186153387E+03  0.12867529270E+04  0.15294330000E+03 0.  0.
<mgrwt>
<rscale>  0 0.94635647E+03</rscale>
<asrwt>0</asrwt>
<pdfrwt beam="1">  1        2 0.23333885E+00 0.94635647E+03</pdfrwt>
<pdfrwt beam="2">  1       -2 0.19235669E+00 0.94635647E+03</pdfrwt>
<totfact> 0.18574845E+00</totfact>
</mgrwt>
</event>
<event>
 4    1  0.1104584E-007  0.4798927E+03  0.7818608E-02  0.1019165E+00
         -2   -1    0    0    0  501 -0.00000000000E+00  0.00000000000E+00  0.49858827137E+03  0.49858827138E+03  0.25500000000E-02 0.  1.
          2   -1    0    0  501    0  0.00000000000E+00 -0.00000000000E+00 -0.50423050693E+03  0.50423050694E+03  0.25500000000E-02 0. -1.
    8880022    1    1    2    0    0  0.22869518297E+03  0.39319695689E+03 -0.14810393976E+03  0.50222680495E+03  0.15294330000E+03 0.  0.
    8880022    1    1    2    0    0 -0.22869518297E+03 -0.39319695689E+03  0.14246170419E+03  0.50059197337E+03  0.15294330000E+03 0.  0.
<mgrwt>
<rscale>  0 0.47989268E+03</rscale>
<asrwt>0</asrwt>
<pdfrwt beam="1">  1        2 0.77573924E-01 0.47989268E+03</pdfrwt>
<pdfrwt beam="2">  1       -2 0.76705888E-01 0.47989268E+03</pdfrwt>
<totfact> 0.95349520E+01</totfact>
</mgrwt>
</event>
<event>
 4    1  0.1104584E-007  0.2951112E+03  0.7818608E-02  0.1087710E+00
         -2   -1    0    0    0  501 -0.00000000000E+00  0.00000000000E+00  0.13017985962E+03  0.13017985964E+03  0.25500000000E-02 0.  1.
          2   -1    0    0  501    0  0.00000000000E+00 -0.00000000000E+00 -0.86252936112E+03  0.86252936113E+03  0.25500000000E-02 0. -1.
    8880022    1    1    2    0    0  0.25256508359E+02  0.25111962612E+03 -0.13106204830E+03  0.32290535975E+03  0.15294330000E+03 0. -1.
    8880022    1    1    2    0    0 -0.25256508359E+02 -0.25111962612E+03 -0.60128745320E+03  0.66980386101E+03  0.15294330000E+03 0. -1.
<mgrwt>
<rscale>  0 0.29511118E+03</rscale>
<asrwt>0</asrwt>
<pdfrwt beam="1">  1        2 0.13269682E+00 0.29511118E+03</pdfrwt>
<pdfrwt beam="2">  1       -2 0.20027671E-01 0.29511118E+03</pdfrwt>
<totfact> 0.67611438E+02</totfact>
</mgrwt>
</event>
<event>
 4    1  0.1104584E-007  0.1145286E+04  0.7818608E-02  0.9162143E-01
         -2   -1    0    0    0  501 -0.00000000000E+00  0.00000000000E+00  0.44556822846E+03  0.44556822847E+03  0.25500000000E-02 0.  1.
          2   -1    0    0  501    0  0.00000000000E+00 -0.00000000000E+00 -0.41899457185E+04  0.41899457185E+04  0.25500000000E-02 0. -1.
    8880022    1    1    2    0    0 -0.55159348896E+03 -0.99198459167E+03 -0.31361727496E+04  0.33387512599E+04  0.15294330000E+03 0.  0.
    8880022    1    1    2    0    0  0.55159348896E+03  0.99198459167E+03 -0.60820474039E+03  0.12967626870E+04  0.15294330000E+03 0.  0.
<mgrwt>
<rscale>  0 0.11452862E+04</rscale>
<asrwt>0</asrwt>
<pdfrwt beam="1">  1        2 0.64460701E+00 0.11452862E+04</pdfrwt>
<pdfrwt beam="2">  1       -2 0.68548961E-01 0.11452862E+04</pdfrwt>
<totfact> 0.47716180E-01</totfact>
</mgrwt>
</event>
<event>
 4    1  0.1104584E-007  0.6176678E+03  0.7818608E-02  0.9869414E-01
         -2   -1    0    0    0  501 -0.00000000000E+00  0.00000000000E+00  0.35422431316E+03  0.35422431317E+03  0.25500000000E-02 0.  1.
          2   -1    0    0  501    0  0.00000000000E+00 -0.00000000000E+00 -0.10996993369E+04  0.10996993369E+04  0.25500000000E-02 0. -1.
    8880022    1    1    2    0    0 -0.18068115400E+03  0.57050521668E+03 -0.47709032527E+03  0.78046698403E+03  0.15294330000E+03 0.  0.
    8880022    1    1    2    0    0  0.18068115400E+03 -0.57050521668E+03 -0.26838469848E+03  0.67345666606E+03  0.15294330000E+03 0.  0.
<mgrwt>
<rscale>  0 0.61766782E+03</rscale>
<asrwt>0</asrwt>
<pdfrwt beam="1">  1        2 0.16918451E+00 0.61766782E+03</pdfrwt>
<pdfrwt beam="2">  1       -2 0.54496049E-01 0.61766782E+03</pdfrwt>
<totfact> 0.71014168E+01</totfact>
</mgrwt>
</event>
<event>
 4    1  0.1104584E-007  0.2401376E+03  0.7818608E-02  0.1119701E+00
          2   -1    0    0  501    0  0.00000000000E+00  0.00000000000E+00  0.18807515165E+04  0.18807515165E+04  0.25500000000E-02 0. -1.
         -2   -1    0    0    0  501 -0.00000000000E+00 -0.00000000000E+00 -0.42645015962E+02  0.42645016038E+02  0.25500000000E-02 0.  1.
    8880022    1    1    2    0    0 -0.12148855083E+03 -0.13969593782E+03  0.14288563524E+04  0.14488949416E+04  0.15294330000E+03 0.  0.
    8880022    1    1    2    0    0  0.12148855083E+03  0.13969593782E+03  0.40925014816E+03  0.47450159094E+03  0.15294330000E+03 0.  1.
<mgrwt>
<rscale>  0 0.24013762E+03</rscale>
<asrwt>0</asrwt>
<pdfrwt beam="1">  1        2 0.28934647E+00 0.24013762E+03</pdfrwt>
<pdfrwt beam="2">  1       -2 0.65607697E-02 0.24013762E+03</pdfrwt>
<totfact> 0.11103774E+03</totfact>
</mgrwt>
</event>
<event>
 4    1  0.1104584E-007  0.2683665E+03  0.7818608E-02  0.1102218E+00
          2   -1    0    0  501    0  0.00000000000E+00  0.00000000000E+00  0.13905018279E+04  0.13905018279E+04  0.25500000000E-02 0. -1.
         -2   -1    0    0    0  501 -0.00000000000E+00 -0.00000000000E+00 -0.53224082692E+03  0.53224082693E+03  0.25500000000E-02 0.  1.
    8880022    1    1    2    0    0 -0.43112542711E+02  0.21626426288E+03 -0.48426619710E+03  0.55365542119E+03  0.15294330000E+03 0.  1.
    8880022    1    1    2    0    0  0.43112542711E+02 -0.21626426288E+03  0.13425271981E+04  0.13690872336E+04  0.15294330000E+03 0.  0.
<mgrwt>
<rscale>  0 0.26836650E+03</rscale>
<asrwt>0</asrwt>
<pdfrwt beam="1">  1        2 0.21392336E+00 0.26836650E+03</pdfrwt>
<pdfrwt beam="2">  1       -2 0.81883205E-01 0.26836650E+03</pdfrwt>
<totfact> 0.21555211E+01</totfact>
</mgrwt>
</event>
<event>
 4    1  0.1104584E-007  0.6111640E+03  0.7818608E-02  0.9882511E-01
          2   -1    0    0  501    0  0.00000000000E+00  0.00000000000E+00  0.22147057430E+04  0.22147057430E+04  0.25500000000E-02 0. -1.
         -2   -1    0    0    0  501 -0.00000000000E+00 -0.00000000000E+00 -0.38007523145E+03  0.38007523146E+03  0.25500000000E-02 0.  1.
    8880022    1    1    2    0    0 -0.17307244559E+02  0.59146443711E+03 -0.50314276839E+02  0.61323152280E+03  0.15294330000E+03 0.  0.
    8880022    1    1    2    0    0  0.17307244559E+02 -0.59146443711E+03  0.18849447884E+04  0.19815494516E+04  0.15294330000E+03 0.  0.
<mgrwt>
<rscale>  0 0.61116395E+03</rscale>
<asrwt>0</asrwt>
<pdfrwt beam="1">  1        2 0.34072396E+00 0.61116395E+03</pdfrwt>
<pdfrwt beam="2">  1       -2 0.58473113E-01 0.61116395E+03</pdfrwt>
<totfact> 0.14748921E+01</totfact>
</mgrwt>
</event>
<event>
 4    1  0.1104584E-007  0.6759951E+03  0.7818608E-02  0.9759188E-01
          2   -1    0    0  501    0  0.00000000000E+00  0.00000000000E+00  0.24018853490E+04  0.24018853490E+04  0.25500000000E-02 0. -1.
         -2   -1    0    0    0  501 -0.00000000000E+00 -0.00000000000E+00 -0.31327215889E+03  0.31327215890E+03  0.25500000000E-02 0.  1.
    8880022    1    1    2    0    0 -0.44782140847E+02  0.65694163427E+03  0.18950291149E+04  0.20119902460E+04  0.15294330000E+03 0.  0.
    8880022    1    1    2    0    0  0.44782140847E+02 -0.65694163427E+03  0.19358407530E+03  0.70316726190E+03  0.15294330000E+03 0.  0.
<mgrwt>
<rscale>  0 0.67599512E+03</rscale>
<asrwt>0</asrwt>
<pdfrwt beam="1">  1        2 0.36952081E+00 0.67599512E+03</pdfrwt>
<pdfrwt beam="2">  1       -2 0.48195718E-01 0.67599512E+03</pdfrwt>
<totfact> 0.17089835E+01</totfact>
</mgrwt>
</event>
<event>
 4    1  0.1104584E-007  0.2593674E+03  0.7818608E-02  0.1107524E+00
         -2   -1    0    0    0  501 -0.00000000000E+00  0.00000000000E+00  0.18247755187E+03  0.18247755189E+03  0.25500000000E-02 0.  1.
          2   -1    0    0  501    0  0.00000000000E+00 -0.00000000000E+00 -0.99534622236E+03  0.99534622236E+03  0.25500000000E-02 0. -1.
    8880022    1    1    2    0    0 -0.52833183651E+02  0.20270281989E+03 -0.87372781172E+03  0.91141193786E+03  0.15294330000E+03 0.  0.
    8880022    1    1    2    0    0  0.52833183651E+02 -0.20270281989E+03  0.60859141237E+02  0.26641183639E+03  0.15294330000E+03 0.  0.
<mgrwt>
<rscale>  0 0.25936737E+03</rscale>
<asrwt>0</asrwt>
<pdfrwt beam="1">  1        2 0.15313019E+00 0.25936737E+03</pdfrwt>
<pdfrwt beam="2">  1       -2 0.28073470E-01 0.25936737E+03</pdfrwt>
<totfact> 0.30787828E+02</totfact>
</mgrwt>
</event>
<event>
 4    1  0.1104584E-007  0.6725410E+03  0.7818608E-02  0.9765378E-01
         -2   -1    0    0    0  501 -0.00000000000E+00  0.00000000000E+00  0.19449796074E+03  0.19449796075E+03  0.25500000000E-02 0.  1.
          2   -1    0    0  501    0  0.00000000000E+00 -0.00000000000E+00 -0.24908316024E+04  0.24908316024E+04  0.25500000000E-02 0. -1.
    8880022    1    1    2    0    0  0.65047659318E+03  0.76157369087E+02 -0.14940506094E+04  0.16384439629E+04  0.15294330000E+03 0.  1.
    8880022    1    1    2    0    0 -0.65047659318E+03 -0.76157369087E+02 -0.80228303228E+03  0.10468856003E+04  0.15294330000E+03 0.  0.
<mgrwt>
<rscale>  0 0.67254100E+03</rscale>
<asrwt>0</asrwt>
<pdfrwt beam="1">  1        2 0.38320484E+00 0.67254100E+03</pdfrwt>
<pdfrwt beam="2">  1       -2 0.29922765E-01 0.67254100E+03</pdfrwt>
<totfact> 0.38256959E+01</totfact>
</mgrwt>
</event>
<event>
 4    1  0.1104584E-007  0.1153025E+04  0.7818608E-02  0.9154998E-01
          2   -1    0    0  501    0  0.00000000000E+00  0.00000000000E+00  0.16266579967E+04  0.16266579967E+04  0.25500000000E-02 0. -1.
         -2   -1    0    0    0  501 -0.00000000000E+00 -0.00000000000E+00 -0.81922306372E+03  0.81922306372E+03  0.25500000000E-02 0.  1.
    8880022    1    1    2    0    0  0.11315845387E+04  0.15997159517E+03  0.34445201504E+03  0.12033758030E+04  0.15294330000E+03 0.  0.
    8880022    1    1    2    0    0 -0.11315845387E+04 -0.15997159517E+03  0.46298291792E+03  0.12425052574E+04  0.15294330000E+03 0.  0.
<mgrwt>
<rscale>  0 0.11530248E+04</rscale>
<asrwt>0</asrwt>
<pdfrwt beam="1">  1        2 0.25025508E+00 0.11530248E+04</pdfrwt>
<pdfrwt beam="2">  1       -2 0.12603432E+00 0.11530248E+04</pdfrwt>
<totfact> 0.49530494E+00</totfact>
</mgrwt>
</event>
<event>
 4    1  0.1104584E-007  0.6989567E+03  0.7818608E-02  0.9719018E-01
         -2   -1    0    0    0  501 -0.00000000000E+00  0.00000000000E+00  0.12442524950E+04  0.12442524951E+04  0.25500000000E-02 0.  1.
          2   -1    0    0  501    0  0.00000000000E+00 -0.00000000000E+00 -0.19194683631E+04  0.19194683631E+04  0.25500000000E-02 0. -1.
    8880022    1    1    2    0    0  0.38644763179E+03  0.56196717218E+03  0.10732169440E+04  0.12807556896E+04  0.15294330000E+03 0.  0.
    8880022    1    1    2    0    0 -0.38644763179E+03 -0.56196717218E+03 -0.17484328120E+04  0.18829651685E+04  0.15294330000E+03 0.  0.
<mgrwt>
<rscale>  0 0.69895674E+03</rscale>
<asrwt>0</asrwt>
<pdfrwt beam="1">  1        2 0.29530283E+00 0.69895674E+03</pdfrwt>
<pdfrwt beam="2">  1       -2 0.19142346E+00 0.69895674E+03</pdfrwt>
<totfact> 0.11808902E+00</totfact>
</mgrwt>
</event>
<event>
 4    1  0.1104584E-007  0.7559604E+03  0.7818608E-02  0.9626045E-01
         -2   -1    0    0    0  501 -0.00000000000E+00  0.00000000000E+00  0.82700823764E+03  0.82700823765E+03  0.25500000000E-02 0.  1.
          2   -1    0    0  501    0  0.00000000000E+00 -0.00000000000E+00 -0.11837667372E+04  0.11837667372E+04  0.25500000000E-02 0. -1.
    8880022    1    1    2    0    0  0.71386534530E+03  0.19616528109E+03  0.47027594900E+03  0.89030088731E+03  0.15294330000E+03 0.  0.
    8880022    1    1    2    0    0 -0.71386534530E+03 -0.19616528109E+03 -0.82703444853E+03  0.11204740875E+04  0.15294330000E+03 0.  0.
<mgrwt>
<rscale>  0 0.75596045E+03</rscale>
<asrwt>0</asrwt>
<pdfrwt beam="1">  1        2 0.18211796E+00 0.75596045E+03</pdfrwt>
<pdfrwt beam="2">  1       -2 0.12723204E+00 0.75596045E+03</pdfrwt>
<totfact> 0.90521783E+00</totfact>
</mgrwt>
</event>
<event>
 4    1  0.1104584E-007  0.5635425E+03  0.7818608E-02  0.9984071E-01
          2   -1    0    0  501    0  0.00000000000E+00  0.00000000000E+00  0.14854027778E+04  0.14854027778E+04  0.25500000000E-02 0. -1.
         -2   -1    0    0    0  501 -0.00000000000E+00 -0.00000000000E+00 -0.25734735679E+03  0.25734735681E+03  0.25500000000E-02 0.  1.
    8880022    1    1    2    0    0  0.29943991133E+03 -0.45224356848E+03  0.25558259589E+03  0.61879125888E+03  0.15294330000E+03 0.  0.
    8880022    1    1    2    0    0 -0.29943991133E+03  0.45224356848E+03  0.97247282511E+03  0.11239588757E+04  0.15294330000E+03 0.  0.
<mgrwt>
<rscale>  0 0.56354251E+03</rscale>
<asrwt>0</asrwt>
<pdfrwt beam="1">  1        2 0.22852350E+00 0.56354251E+03</pdfrwt>
<pdfrwt beam="2">  1       -2 0.39591901E-01 0.56354251E+03</pdfrwt>
<totfact> 0.81210739E+01</totfact>
</mgrwt>
</event>
<event>
 4    1  0.1104584E-007  0.3142170E+03  0.7818608E-02  0.1078342E+00
         -2   -1    0    0    0  501 -0.00000000000E+00  0.00000000000E+00  0.11479661253E+03  0.11479661256E+03  0.25500000000E-02 0.  1.
          2   -1    0    0  501    0  0.00000000000E+00 -0.00000000000E+00 -0.18959676125E+04  0.18959676125E+04  0.25500000000E-02 0. -1.
    8880022    1    1    2    0    0 -0.35717376469E+02  0.27214870904E+03 -0.14743699569E+03  0.34708784410E+03  0.15294330000E+03 0.  1.
    8880022    1    1    2    0    0  0.35717376469E+02 -0.27214870904E+03 -0.16337340042E+04  0.16636763809E+04  0.15294330000E+03 0.  0.
<mgrwt>
<rscale>  0 0.31421697E+03</rscale>
<asrwt>0</asrwt>
<pdfrwt beam="1">  1        2 0.29168730E+00 0.31421697E+03</pdfrwt>
<pdfrwt beam="2">  1       -2 0.17661019E-01 0.31421697E+03</pdfrwt>
<totfact> 0.21841628E+02</totfact>
</mgrwt>
</event>
<event>
 4    1  0.1104584E-007  0.5746795E+03  0.7818608E-02  0.9959377E-01
         -2   -1    0    0    0  501 -0.00000000000E+00  0.00000000000E+00  0.37931926357E+03  0.37931926358E+03  0.25500000000E-02 0.  1.
          2   -1    0    0  501    0  0.00000000000E+00 -0.00000000000E+00 -0.18649400488E+04  0.18649400488E+04  0.25500000000E-02 0. -1.
    8880022    1    1    2    0    0  0.53783494064E+03 -0.13265909499E+03 -0.15621536520E+04  0.16645060963E+04  0.15294330000E+03 0.  0.
    8880022    1    1    2    0    0 -0.53783494064E+03  0.13265909499E+03  0.76532866839E+02  0.57975321610E+03  0.15294330000E+03 0.  0.
<mgrwt>
<rscale>  0 0.57467949E+03</rscale>
<asrwt>0</asrwt>
<pdfrwt beam="1">  1        2 0.28691385E+00 0.57467949E+03</pdfrwt>
<pdfrwt beam="2">  1       -2 0.58356811E-01 0.57467949E+03</pdfrwt>
<totfact> 0.23085016E+01</totfact>
</mgrwt>
</event>
<event>
 4    1  0.1104584E-007  0.2552277E+03  0.7818608E-02  0.1110045E+00
          2   -1    0    0  501    0  0.00000000000E+00  0.00000000000E+00  0.11748416478E+04  0.11748416478E+04  0.25500000000E-02 0. -1.
         -2   -1    0    0    0  501 -0.00000000000E+00 -0.00000000000E+00 -0.34814590009E+03  0.34814590010E+03  0.25500000000E-02 0.  1.
    8880022    1    1    2    0    0  0.16025280629E+03 -0.12676176627E+03 -0.28487880538E+03  0.38248803129E+03  0.15294330000E+03 0.  0.
    8880022    1    1    2    0    0 -0.16025280629E+03  0.12676176627E+03  0.11115745531E+04  0.11404995166E+04  0.15294330000E+03 0. -1.
<mgrwt>
<rscale>  0 0.25522766E+03</rscale>
<asrwt>0</asrwt>
<pdfrwt beam="1">  1        2 0.18074487E+00 0.25522766E+03</pdfrwt>
<pdfrwt beam="2">  1       -2 0.53560907E-01 0.25522766E+03</pdfrwt>
<totfact> 0.70308022E+01</totfact>
</mgrwt>
</event>
<event>
 4    1  0.1104584E-007  0.5413036E+03  0.7818608E-02  0.1003527E+00
         -2   -1    0    0    0  501 -0.00000000000E+00  0.00000000000E+00  0.10444838015E+04  0.10444838015E+04  0.25500000000E-02 0.  1.
          2   -1    0    0  501    0  0.00000000000E+00 -0.00000000000E+00 -0.55706305411E+03  0.55706305411E+03  0.25500000000E-02 0. -1.
    8880022    1    1    2    0    0  0.38869786893E+03  0.34428460842E+03 -0.32048639798E+03  0.62906367660E+03  0.15294330000E+03 0.  0.
    8880022    1    1    2    0    0 -0.38869786893E+03 -0.34428460842E+03  0.80790714536E+03  0.97248317900E+03  0.15294330000E+03 0.  0.
<mgrwt>
<rscale>  0 0.54130359E+03</rscale>
<asrwt>0</asrwt>
<pdfrwt beam="1">  1        2 0.85702009E-01 0.54130359E+03</pdfrwt>
<pdfrwt beam="2">  1       -2 0.16068981E+00 0.54130359E+03</pdfrwt>
<totfact> 0.14033534E+01</totfact>
</mgrwt>
</event>
<event>
 4    1  0.1104584E-007  0.7783267E+03  0.7818608E-02  0.9591929E-01
          2   -1    0    0  501    0  0.00000000000E+00  0.00000000000E+00  0.18190771049E+04  0.18190771049E+04  0.25500000000E-02 0. -1.
         -2   -1    0    0    0  501 -0.00000000000E+00 -0.00000000000E+00 -0.84858929584E+03  0.84858929585E+03  0.25500000000E-02 0.  1.
    8880022    1    1    2    0    0 -0.42902456674E+03 -0.63114077259E+03 -0.55442605583E+03  0.95560486504E+03  0.15294330000E+03 0.  0.
    8880022    1    1    2    0    0  0.42902456674E+03  0.63114077259E+03  0.15249138649E+04  0.17120615357E+04  0.15294330000E+03 0.  0.
<mgrwt>
<rscale>  0 0.77832667E+03</rscale>
<asrwt>0</asrwt>
<pdfrwt beam="1">  1        2 0.27985801E+00 0.77832667E+03</pdfrwt>
<pdfrwt beam="2">  1       -2 0.13055220E+00 0.77832667E+03</pdfrwt>
<totfact> 0.37181509E+00</totfact>
</mgrwt>
</event>
<event>
 4    1  0.1104584E-007  0.1989612E+03  0.7818608E-02  0.1150618E+00
          2   -1    0    0  501    0  0.00000000000E+00  0.00000000000E+00  0.15366190047E+04  0.15366190047E+04  0.25500000000E-02 0. -1.
         -2   -1    0    0    0  501 -0.00000000000E+00 -0.00000000000E+00 -0.19988358814E+03  0.19988358816E+03  0.25500000000E-02 0.  1.
    8880022    1    1    2    0    0 -0.79858904326E+02  0.99077988406E+02  0.14787386472E+04  0.14920635148E+04  0.15294330000E+03 0.  0.
    8880022    1    1    2    0    0  0.79858904326E+02 -0.99077988406E+02 -0.14200323062E+03  0.24443907811E+03  0.15294330000E+03 0.  1.
<mgrwt>
<rscale>  0 0.19896117E+03</rscale>
<asrwt>0</asrwt>
<pdfrwt beam="1">  1        2 0.23640294E+00 0.19896117E+03</pdfrwt>
<pdfrwt beam="2">  1       -2 0.30751319E-01 0.19896117E+03</pdfrwt>
<totfact> 0.13143847E+02</totfact>
</mgrwt>
</event>
<event>
 4    1  0.1104584E-007  0.4691403E+03  0.7818608E-02  0.1022163E+00
          2   -1    0    0  501    0  0.00000000000E+00  0.00000000000E+00  0.75425187702E+03  0.75425187703E+03  0.25500000000E-02 0. -1.
         -2   -1    0    0    0  501 -0.00000000000E+00 -0.00000000000E+00 -0.42130075732E+03  0.42130075733E+03  0.25500000000E-02 0.  1.
    8880022    1    1    2    0    0 -0.19068078733E+03 -0.40042708538E+03  0.49234808127E+03  0.68007301042E+03  0.15294330000E+03 0.  0.
    8880022    1    1    2    0    0  0.19068078733E+03  0.40042708538E+03 -0.15939696156E+03  0.49547962393E+03  0.15294330000E+03 0.  0.
<mgrwt>
<rscale>  0 0.46914035E+03</rscale>
<asrwt>0</asrwt>
<pdfrwt beam="1">  1        2 0.11603875E+00 0.46914035E+03</pdfrwt>
<pdfrwt beam="2">  1       -2 0.64815501E-01 0.46914035E+03</pdfrwt>
<totfact> 0.84768157E+01</totfact>
</mgrwt>
</event>
<event>
 4    1  0.1104584E-007  0.2084449E+03  0.7818608E-02  0.1142803E+00
         -2   -1    0    0    0  501 -0.00000000000E+00  0.00000000000E+00  0.82864549897E+03  0.82864549897E+03  0.25500000000E-02 0.  1.
          2   -1    0    0  501    0  0.00000000000E+00 -0.00000000000E+00 -0.37255928762E+03  0.37255928763E+03  0.25500000000E-02 0. -1.
    8880022    1    1    2    0    0 -0.13489863875E+03  0.43127327804E+02 -0.32869288763E+03  0.38921494901E+03  0.15294330000E+03 0. -1.
    8880022    1    1    2    0    0  0.13489863875E+03 -0.43127327804E+02  0.78477909898E+03  0.81198983759E+03  0.15294330000E+03 0.  0.
<mgrwt>
<rscale>  0 0.20844487E+03</rscale>
<asrwt>0</asrwt>
<pdfrwt beam="1">  1        2 0.57316814E-01 0.20844487E+03</pdfrwt>
<pdfrwt beam="2">  1       -2 0.12748392E+00 0.20844487E+03</pdfrwt>
<totfact> 0.42263545E+01</totfact>
</mgrwt>
</event>
<event>
 4    1  0.1104584E-007  0.2059410E+03  0.7818608E-02  0.1144821E+00
         -2   -1    0    0    0  501 -0.00000000000E+00  0.00000000000E+00  0.10822741115E+03  0.10822741118E+03  0.25500000000E-02 0.  1.
          2   -1    0    0  501    0  0.00000000000E+00 -0.00000000000E+00 -0.17581621459E+04  0.17581621459E+04  0.25500000000E-02 0. -1.
    8880022    1    1    2    0    0 -0.25277925820E+02  0.13557677070E+03 -0.16476147592E+04  0.16604355098E+04  0.15294330000E+03 0. -1.
    8880022    1    1    2    0    0  0.25277925820E+02 -0.13557677070E+03 -0.23199754864E+01  0.20595404727E+03  0.15294330000E+03 0.  0.
<mgrwt>
<rscale>  0 0.20594098E+03</rscale>
<asrwt>0</asrwt>
<pdfrwt beam="1">  1        2 0.27048646E+00 0.20594098E+03</pdfrwt>
<pdfrwt beam="2">  1       -2 0.16650372E-01 0.20594098E+03</pdfrwt>
<totfact> 0.29190167E+02</totfact>
</mgrwt>
</event>
<event>
 4    1  0.1104584E-007  0.1413966E+04  0.7818608E-02  0.8943771E-01
         -2   -1    0    0    0  501 -0.00000000000E+00  0.00000000000E+00  0.18538050336E+04  0.18538050336E+04  0.25500000000E-02 0.  1.
          2   -1    0    0  501    0  0.00000000000E+00 -0.00000000000E+00 -0.10959218450E+04  0.10959218450E+04  0.25500000000E-02 0. -1.
    8880022    1    1    2    0    0 -0.11410399066E+03 -0.14010307552E+04  0.19289920955E+03  0.14270629474E+04  0.15294330000E+03 0.  0.
    8880022    1    1    2    0    0  0.11410399066E+03  0.14010307552E+04  0.56498397904E+03  0.15226639312E+04  0.15294330000E+03 0.  0.
<mgrwt>
<rscale>  0 0.14139655E+04</rscale>
<asrwt>0</asrwt>
<pdfrwt beam="1">  1        2 0.16860336E+00 0.14139655E+04</pdfrwt>
<pdfrwt beam="2">  1       -2 0.28520078E+00 0.14139655E+04</pdfrwt>
<totfact> 0.81815592E-01</totfact>
</mgrwt>
</event>
<event>
 4    1  0.1104584E-007  0.1238283E+04  0.7818608E-02  0.9079992E-01
          2   -1    0    0  501    0  0.00000000000E+00  0.00000000000E+00  0.10099489711E+04  0.10099489712E+04  0.25500000000E-02 0. -1.
         -2   -1    0    0    0  501 -0.00000000000E+00 -0.00000000000E+00 -0.19232555861E+04  0.19232555861E+04  0.25500000000E-02 0.  1.
    8880022    1    1    2    0    0  0.10738506808E+04 -0.59732644554E+03 -0.11296752870E+04  0.16761599190E+04  0.15294330000E+03 0.  0.
    8880022    1    1    2    0    0 -0.10738506808E+04  0.59732644554E+03  0.21636867205E+03  0.12570446382E+04  0.15294330000E+03 0.  0.
<mgrwt>
<rscale>  0 0.12382834E+04</rscale>
<asrwt>0</asrwt>
<pdfrwt beam="1">  1        2 0.15537677E+00 0.12382834E+04</pdfrwt>
<pdfrwt beam="2">  1       -2 0.29588547E+00 0.12382834E+04</pdfrwt>
<totfact> 0.81372028E-01</totfact>
</mgrwt>
</event>
<event>
 4    1  0.1104584E-007  0.6062714E+03  0.7818608E-02  0.9892480E-01
          2   -1    0    0  501    0  0.00000000000E+00  0.00000000000E+00  0.54096790748E+03  0.54096790749E+03  0.25500000000E-02 0. -1.
         -2   -1    0    0    0  501 -0.00000000000E+00 -0.00000000000E+00 -0.81823035742E+03  0.81823035742E+03  0.25500000000E-02 0.  1.
    8880022    1    1    2    0    0 -0.79287421923E+02  0.58128038621E+03 -0.41850765255E+03  0.73669104170E+03  0.15294330000E+03 0.  0.
    8880022    1    1    2    0    0  0.79287421923E+02 -0.58128038621E+03  0.14124520261E+03  0.62250722321E+03  0.15294330000E+03 0.  0.
<mgrwt>
<rscale>  0 0.60627142E+03</rscale>
<asrwt>0</asrwt>
<pdfrwt beam="1">  1        2 0.83225832E-01 0.60627142E+03</pdfrwt>
<pdfrwt beam="2">  1       -2 0.12588159E+00 0.60627142E+03</pdfrwt>
<totfact> 0.27133102E+01</totfact>
</mgrwt>
</event>
<event>
 4    1  0.1104584E-007  0.7135253E+03  0.7818608E-02  0.9694378E-01
         -2   -1    0    0    0  501 -0.00000000000E+00  0.00000000000E+00  0.18909829636E+04  0.18909829636E+04  0.25500000000E-02 0.  1.
          2   -1    0    0  501    0  0.00000000000E+00 -0.00000000000E+00 -0.60872728744E+03  0.60872728744E+03  0.25500000000E-02 0. -1.
    8880022    1    1    2    0    0  0.63870159192E+03 -0.27890315665E+03  0.15745183870E+04  0.17286487492E+04  0.15294330000E+03 0.  0.
    8880022    1    1    2    0    0 -0.63870159192E+03  0.27890315665E+03 -0.29226271086E+03  0.77106150176E+03  0.15294330000E+03 0.  0.
<mgrwt>
<rscale>  0 0.71352530E+03</rscale>
<asrwt>0</asrwt>
<pdfrwt beam="1">  1        2 0.93650352E-01 0.71352530E+03</pdfrwt>
<pdfrwt beam="2">  1       -2 0.29092046E+00 0.71352530E+03</pdfrwt>
<totfact> 0.18417449E+00</totfact>
</mgrwt>
</event>
<event>
 4    1  0.1104584E-007  0.5700199E+03  0.7818608E-02  0.9969634E-01
          2   -1    0    0  501    0  0.00000000000E+00  0.00000000000E+00  0.34179374042E+04  0.34179374042E+04  0.25500000000E-02 0. -1.
         -2   -1    0    0    0  501 -0.00000000000E+00 -0.00000000000E+00 -0.20202777567E+03  0.20202777569E+03  0.25500000000E-02 0.  1.
    8880022    1    1    2    0    0  0.78869376277E+02 -0.54342497480E+03  0.29249593120E+04  0.29799848509E+04  0.15294330000E+03 0.  0.
    8880022    1    1    2    0    0 -0.78869376277E+02  0.54342497480E+03  0.29095031649E+03  0.63998032894E+03  0.15294330000E+03 0.  0.
<mgrwt>
<rscale>  0 0.57001994E+03</rscale>
<asrwt>0</asrwt>
<pdfrwt beam="1">  1        2 0.52583654E+00 0.57001994E+03</pdfrwt>
<pdfrwt beam="2">  1       -2 0.31081196E-01 0.57001994E+03</pdfrwt>
<totfact> 0.99640847E+00</totfact>
</mgrwt>
</event>
<event>
 4    1  0.1104584E-007  0.5334333E+03  0.7818608E-02  0.1005403E+00
         -2   -1    0    0    0  501 -0.00000000000E+00  0.00000000000E+00  0.19927386652E+03  0.19927386654E+03  0.25500000000E-02 0.  1.
          2   -1    0    0  501    0  0.00000000000E+00 -0.00000000000E+00 -0.18833560741E+04  0.18833560741E+04  0.25500000000E-02 0. -1.
    8880022    1    1    2    0    0 -0.44864117674E+03 -0.24470506441E+03 -0.13541001774E+04  0.14553825674E+04  0.15294330000E+03 0.  0.
    8880022    1    1    2    0    0  0.44864117674E+03  0.24470506441E+03 -0.32998203023E+03  0.62724737330E+03  0.15294330000E+03 0.  0.
<mgrwt>
<rscale>  0 0.53343334E+03</rscale>
<asrwt>0</asrwt>
<pdfrwt beam="1">  1        2 0.28974708E+00 0.53343334E+03</pdfrwt>
<pdfrwt beam="2">  1       -2 0.30657519E-01 0.53343334E+03</pdfrwt>
<totfact> 0.80470005E+01</totfact>
</mgrwt>
</event>
<event>
 4    1  0.1104584E-007  0.2477358E+03  0.7818608E-02  0.1114744E+00
          2   -1    0    0  501    0  0.00000000000E+00  0.00000000000E+00  0.47927041229E+03  0.47927041229E+03  0.25500000000E-02 0. -1.
         -2   -1    0    0    0  501 -0.00000000000E+00 -0.00000000000E+00 -0.22213609239E+03  0.22213609240E+03  0.25500000000E-02 0.  1.
    8880022    1    1    2    0    0 -0.17831940880E+03  0.78635674334E+02  0.35680156396E+03  0.43437356031E+03  0.15294330000E+03 0.  0.
    8880022    1    1    2    0    0  0.17831940880E+03 -0.78635674334E+02 -0.99667244067E+02  0.26703294439E+03  0.15294330000E+03 0.  0.
<mgrwt>
<rscale>  0 0.24773581E+03</rscale>
<asrwt>0</asrwt>
<pdfrwt beam="1">  1        2 0.73733909E-01 0.24773581E+03</pdfrwt>
<pdfrwt beam="2">  1       -2 0.34174784E-01 0.24773581E+03</pdfrwt>
<totfact> 0.52748421E+02</totfact>
</mgrwt>
</event>
<event>
 4    1  0.1104584E-007  0.4760690E+03  0.7818608E-02  0.1020221E+00
          2   -1    0    0  501    0  0.00000000000E+00  0.00000000000E+00  0.52795032482E+03  0.52795032483E+03  0.25500000000E-02 0. -1.
         -2   -1    0    0    0  501 -0.00000000000E+00 -0.00000000000E+00 -0.22021127122E+04  0.22021127122E+04  0.25500000000E-02 0.  1.
    8880022    1    1    2    0    0 -0.31915926629E+03  0.31841392531E+03 -0.20618554313E+04  0.21161024402E+04  0.15294330000E+03 0.  0.
    8880022    1    1    2    0    0  0.31915926629E+03 -0.31841392531E+03  0.38769304390E+03  0.61396059678E+03  0.15294330000E+03 0.  0.
<mgrwt>
<rscale>  0 0.47606903E+03</rscale>
<asrwt>0</asrwt>
<pdfrwt beam="1">  1        2 0.81223128E-01 0.47606903E+03</pdfrwt>
<pdfrwt beam="2">  1       -2 0.33878656E+00 0.47606903E+03</pdfrwt>
<totfact> 0.11815167E+00</totfact>
</mgrwt>
</event>
<event>
 4    1  0.1104584E-007  0.2592761E+03  0.7818608E-02  0.1107579E+00
         -2   -1    0    0    0  501 -0.00000000000E+00  0.00000000000E+00  0.77065256883E+02  0.77065256925E+02  0.25500000000E-02 0.  1.
          2   -1    0    0  501    0  0.00000000000E+00 -0.00000000000E+00 -0.89081312136E+03  0.89081312136E+03  0.25500000000E-02 0. -1.
    8880022    1    1    2    0    0  0.19231600183E+03 -0.82746671183E+02 -0.33711107004E+03  0.42528576594E+03  0.15294330000E+03 0. -1.
    8880022    1    1    2    0    0 -0.19231600183E+03  0.82746671183E+02 -0.47663679443E+03  0.54259261234E+03  0.15294330000E+03 0.  1.
<mgrwt>
<rscale>  0 0.25927613E+03</rscale>
<asrwt>0</asrwt>
<pdfrwt beam="1">  1        2 0.13704817E+00 0.25927613E+03</pdfrwt>
<pdfrwt beam="2">  1       -2 0.11856194E-01 0.25927613E+03</pdfrwt>
<totfact> 0.15527779E+03</totfact>
</mgrwt>
</event>
<event>
 4    1  0.1104584E-007  0.6613408E+03  0.7818608E-02  0.9785729E-01
          2   -1    0    0  501    0  0.00000000000E+00  0.00000000000E+00  0.15569312314E+04  0.15569312314E+04  0.25500000000E-02 0. -1.
         -2   -1    0    0    0  501 -0.00000000000E+00 -0.00000000000E+00 -0.77039283146E+03  0.77039283146E+03  0.25500000000E-02 0.  1.
    8880022    1    1    2    0    0  0.32303371653E+02  0.64260137346E+03  0.13208151899E+04  0.14771338639E+04  0.15294330000E+03 0.  0.
    8880022    1    1    2    0    0 -0.32303371653E+02 -0.64260137346E+03 -0.53427679000E+03  0.85019019892E+03  0.15294330000E+03 0.  0.
<mgrwt>
<rscale>  0 0.66134082E+03</rscale>
<asrwt>0</asrwt>
<pdfrwt beam="1">  1        2 0.23952788E+00 0.66134082E+03</pdfrwt>
<pdfrwt beam="2">  1       -2 0.11852198E+00 0.66134082E+03</pdfrwt>
<totfact> 0.67174356E+00</totfact>
</mgrwt>
</event>
<event>
 4    1  0.1104584E-007  0.3682772E+03  0.7818608E-02  0.1055354E+00
         -2   -1    0    0    0  501 -0.00000000000E+00  0.00000000000E+00  0.17572504678E+03  0.17572504680E+03  0.25500000000E-02 0.  1.
          2   -1    0    0  501    0  0.00000000000E+00 -0.00000000000E+00 -0.85005348965E+03  0.85005348965E+03  0.25500000000E-02 0. -1.
    8880022    1    1    2    0    0  0.17612201907E+03  0.28498678144E+03 -0.49275977212E+03  0.61517499724E+03  0.15294330000E+03 0.  0.
    8880022    1    1    2    0    0 -0.17612201907E+03 -0.28498678144E+03 -0.18156867075E+03  0.41060353921E+03  0.15294330000E+03 0.  0.
<mgrwt>
<rscale>  0 0.36827718E+03</rscale>
<asrwt>0</asrwt>
<pdfrwt beam="1">  1        2 0.13077746E+00 0.36827718E+03</pdfrwt>
<pdfrwt beam="2">  1       -2 0.27034623E-01 0.36827718E+03</pdfrwt>
<totfact> 0.40464346E+02</totfact>
</mgrwt>
</event>
<event>
 4    1  0.1104584E-007  0.2311288E+03  0.7818608E-02  0.1125848E+00
          2   -1    0    0  501    0  0.00000000000E+00  0.00000000000E+00  0.18318410447E+04  0.18318410447E+04  0.25500000000E-02 0. -1.
         -2   -1    0    0    0  501 -0.00000000000E+00 -0.00000000000E+00 -0.12922068684E+03  0.12922068686E+03  0.25500000000E-02 0.  1.
    8880022    1    1    2    0    0  0.17259170598E+03 -0.15523764744E+02 -0.11513759215E+02  0.23141543576E+03  0.15294330000E+03 0.  0.
    8880022    1    1    2    0    0 -0.17259170598E+03  0.15523764744E+02  0.17141341171E+04  0.17296462958E+04  0.15294330000E+03 0.  0.
<mgrwt>
<rscale>  0 0.23112883E+03</rscale>
<asrwt>0</asrwt>
<pdfrwt beam="1">  1        2 0.28182171E+00 0.23112883E+03</pdfrwt>
<pdfrwt beam="2">  1       -2 0.19880105E-01 0.23112883E+03</pdfrwt>
<totfact> 0.19672214E+02</totfact>
</mgrwt>
</event>
<event>
 4    1  0.1104584E-007  0.9483402E+03  0.7818608E-02  0.9367093E-01
         -2   -1    0    0    0  501 -0.00000000000E+00  0.00000000000E+00  0.38384115191E+04  0.38384115191E+04  0.25500000000E-02 0.  1.
          2   -1    0    0  501    0  0.00000000000E+00 -0.00000000000E+00 -0.42522184357E+03  0.42522184358E+03  0.25500000000E-02 0. -1.
    8880022    1    1    2    0    0  0.70956235445E+03 -0.61031039604E+03  0.27813803121E+03  0.98828636123E+03  0.15294330000E+03 0.  0.
    8880022    1    1    2    0    0 -0.70956235445E+03  0.61031039604E+03  0.31350516443E+04  0.32753470014E+04  0.15294330000E+03 0.  0.
<mgrwt>
<rscale>  0 0.94834022E+03</rscale>
<asrwt>0</asrwt>
<pdfrwt beam="1">  1        2 0.65418745E-01 0.94834022E+03</pdfrwt>
<pdfrwt beam="2">  1       -2 0.59052485E+00 0.94834022E+03</pdfrwt>
<totfact> 0.40789840E-02</totfact>
</mgrwt>
</event>
<event>
 4    1  0.1104584E-007  0.2055000E+04  0.7818608E-02  0.8581329E-01
         -2   -1    0    0    0  501 -0.00000000000E+00  0.00000000000E+00  0.28488814137E+04  0.28488814137E+04  0.25500000000E-02 0.  1.
          2   -1    0    0  501    0  0.00000000000E+00 -0.00000000000E+00 -0.18919794821E+04  0.18919794821E+04  0.25500000000E-02 0. -1.
    8880022    1    1    2    0    0 -0.96111429502E+03 -0.18099432198E+04 -0.62452727983E+03  0.21478037907E+04  0.15294330000E+03 0.  0.
    8880022    1    1    2    0    0  0.96111429502E+03  0.18099432198E+04  0.15814292114E+04  0.25930571052E+04  0.15294330000E+03 0.  0.
<mgrwt>
<rscale>  0 0.20550004E+04</rscale>
<asrwt>0</asrwt>
<pdfrwt beam="1">  1        2 0.29107377E+00 0.20550004E+04</pdfrwt>
<pdfrwt beam="2">  1       -2 0.43828945E+00 0.20550004E+04</pdfrwt>
<totfact> 0.28015811E-02</totfact>
</mgrwt>
</event>
<event>
 4    1  0.1104584E-007  0.1112416E+04  0.7818608E-02  0.9193174E-01
          2   -1    0    0  501    0  0.00000000000E+00  0.00000000000E+00  0.13549056299E+04  0.13549056299E+04  0.25500000000E-02 0. -1.
         -2   -1    0    0    0  501 -0.00000000000E+00 -0.00000000000E+00 -0.15903406054E+04  0.15903406054E+04  0.25500000000E-02 0.  1.
    8880022    1    1    2    0    0  0.68373493664E+03  0.86405072592E+03 -0.10785462099E+04  0.15494291531E+04  0.15294330000E+03 0.  0.
    8880022    1    1    2    0    0 -0.68373493664E+03 -0.86405072592E+03  0.84311123432E+03  0.13958170822E+04  0.15294330000E+03 0.  0.
<mgrwt>
<rscale>  0 0.11124157E+04</rscale>
<asrwt>0</asrwt>
<pdfrwt beam="1">  1        2 0.20844702E+00 0.11124157E+04</pdfrwt>
<pdfrwt beam="2">  1       -2 0.24466779E+00 0.11124157E+04</pdfrwt>
<totfact> 0.10455906E+00</totfact>
</mgrwt>
</event>
<event>
 4    1  0.1104584E-007  0.2860183E+03  0.7818608E-02  0.1092447E+00
          2   -1    0    0  501    0  0.00000000000E+00  0.00000000000E+00  0.16060929478E+04  0.16060929478E+04  0.25500000000E-02 0. -1.
         -2   -1    0    0    0  501 -0.00000000000E+00 -0.00000000000E+00 -0.13964968695E+03  0.13964968697E+03  0.25500000000E-02 0.  1.
    8880022    1    1    2    0    0  0.23981743885E+03  0.30040437041E+02  0.37512364652E+02  0.28846778390E+03  0.15294330000E+03 0.  1.
    8880022    1    1    2    0    0 -0.23981743885E+03 -0.30040437041E+02  0.14289308962E+04  0.14572748508E+04  0.15294330000E+03 0.  0.
<mgrwt>
<rscale>  0 0.28601833E+03</rscale>
<asrwt>0</asrwt>
<pdfrwt beam="1">  1        2 0.24709123E+00 0.28601833E+03</pdfrwt>
<pdfrwt beam="2">  1       -2 0.21484567E-01 0.28601833E+03</pdfrwt>
<totfact> 0.22338427E+02</totfact>
</mgrwt>
</event>
<event>
 4    1  0.1104584E-007  0.1731413E+03  0.7818608E-02  0.1174611E+00
          2   -1    0    0  501    0  0.00000000000E+00  0.00000000000E+00  0.34533676916E+03  0.34533676917E+03  0.25500000000E-02 0. -1.
         -2   -1    0    0    0  501 -0.00000000000E+00 -0.00000000000E+00 -0.19544474454E+03  0.19544474455E+03  0.25500000000E-02 0.  1.
    8880022    1    1    2    0    0 -0.14489394961E+02  0.79851815488E+02  0.27653588641E+03  0.32626676890E+03  0.15294330000E+03 0.  0.
    8880022    1    1    2    0    0  0.14489394961E+02 -0.79851815488E+02 -0.12664386178E+03  0.21451474482E+03  0.15294330000E+03 0.  0.
<mgrwt>
<rscale>  0 0.17314129E+03</rscale>
<asrwt>0</asrwt>
<pdfrwt beam="1">  1        2 0.53128733E-01 0.17314129E+03</pdfrwt>
<pdfrwt beam="2">  1       -2 0.30068422E-01 0.17314129E+03</pdfrwt>
<totfact> 0.95160120E+02</totfact>
</mgrwt>
</event>
<event>
 4    1  0.1104584E-007  0.8459097E+03  0.7818608E-02  0.9495843E-01
          2   -1    0    0  501    0  0.00000000000E+00  0.00000000000E+00  0.10508641569E+04  0.10508641570E+04  0.25500000000E-02 0. -1.
         -2   -1    0    0    0  501 -0.00000000000E+00 -0.00000000000E+00 -0.11324098277E+04  0.11324098277E+04  0.25500000000E-02 0.  1.
    8880022    1    1    2    0    0 -0.47516486161E+03 -0.68292742265E+03 -0.73005400362E+03  0.11173817662E+04  0.15294330000E+03 0.  0.
    8880022    1    1    2    0    0  0.47516486161E+03  0.68292742265E+03  0.64850833291E+03  0.10658922184E+04  0.15294330000E+03 0.  0.
<mgrwt>
<rscale>  0 0.84590967E+03</rscale>
<asrwt>0</asrwt>
<pdfrwt beam="1">  1        2 0.16167141E+00 0.84590967E+03</pdfrwt>
<pdfrwt beam="2">  1       -2 0.17421690E+00 0.84590967E+03</pdfrwt>
<totfact> 0.46920166E+00</totfact>
</mgrwt>
</event>
<event>
 4    1  0.1104584E-007  0.8484567E+03  0.7818608E-02  0.9492411E-01
          2   -1    0    0  501    0  0.00000000000E+00  0.00000000000E+00  0.22488434666E+04  0.22488434666E+04  0.25500000000E-02 0. -1.
         -2   -1    0    0    0  501 -0.00000000000E+00 -0.00000000000E+00 -0.39228885681E+03  0.39228885681E+03  0.25500000000E-02 0.  1.
    8880022    1    1    2    0    0  0.59845133228E+03  0.58167265159E+03  0.14947255685E+04  0.17187446723E+04  0.15294330000E+03 0.  0.
    8880022    1    1    2    0    0 -0.59845133228E+03 -0.58167265159E+03  0.36182904138E+03  0.92238765111E+03  0.15294330000E+03 0.  0.
<mgrwt>
<rscale>  0 0.84845667E+03</rscale>
<asrwt>0</asrwt>
<pdfrwt beam="1">  1        2 0.34597592E+00 0.84845667E+03</pdfrwt>
<pdfrwt beam="2">  1       -2 0.60352132E-01 0.84845667E+03</pdfrwt>
<totfact> 0.12724650E+01</totfact>
</mgrwt>
</event>
<event>
 4    1  0.1104584E-007  0.8883859E+03  0.7818608E-02  0.9440217E-01
          2   -1    0    0  501    0  0.00000000000E+00  0.00000000000E+00  0.10656924205E+04  0.10656924205E+04  0.25500000000E-02 0. -1.
         -2   -1    0    0    0  501 -0.00000000000E+00 -0.00000000000E+00 -0.12254853422E+04  0.12254853422E+04  0.25500000000E-02 0.  1.
    8880022    1    1    2    0    0 -0.73352972042E+03  0.47725466453E+03 -0.80051200038E+03  0.11958465543E+04  0.15294330000E+03 0.  0.
    8880022    1    1    2    0    0  0.73352972042E+03 -0.47725466453E+03  0.64071907867E+03  0.10953312085E+04  0.15294330000E+03 0.  0.
<mgrwt>
<rscale>  0 0.88838591E+03</rscale>
<asrwt>0</asrwt>
<pdfrwt beam="1">  1        2 0.16395268E+00 0.88838591E+03</pdfrwt>
<pdfrwt beam="2">  1       -2 0.18853621E+00 0.88838591E+03</pdfrwt>
<totfact> 0.36445344E+00</totfact>
</mgrwt>
</event>
<event>
 4    1  0.1104584E-007  0.3473990E+03  0.7818608E-02  0.1063688E+00
         -2   -1    0    0    0  501 -0.00000000000E+00  0.00000000000E+00  0.57390970537E+03  0.57390970538E+03  0.25500000000E-02 0.  1.
          2   -1    0    0  501    0  0.00000000000E+00 -0.00000000000E+00 -0.69300013119E+03  0.69300013119E+03  0.25500000000E-02 0. -1.
    8880022    1    1    2    0    0  0.29536488862E+03  0.10026970138E+03  0.46913535684E+03  0.58375856867E+03  0.15294330000E+03 0.  0.
    8880022    1    1    2    0    0 -0.29536488862E+03 -0.10026970138E+03 -0.58822578265E+03  0.68315126790E+03  0.15294330000E+03 0.  0.
<mgrwt>
<rscale>  0 0.34739903E+03</rscale>
<asrwt>0</asrwt>
<pdfrwt beam="1">  1        2 0.10661541E+00 0.34739903E+03</pdfrwt>
<pdfrwt beam="2">  1       -2 0.88293800E-01 0.34739903E+03</pdfrwt>
<totfact> 0.48494485E+01</totfact>
</mgrwt>
</event>
<event>
 4    1  0.1104584E-007  0.6476029E+03  0.7818608E-02  0.9811288E-01
          2   -1    0    0  501    0  0.00000000000E+00  0.00000000000E+00  0.40748000320E+03  0.40748000321E+03  0.25500000000E-02 0. -1.
         -2   -1    0    0    0  501 -0.00000000000E+00 -0.00000000000E+00 -0.17473801202E+04  0.17473801202E+04  0.25500000000E-02 0.  1.
    8880022    1    1    2    0    0 -0.55426224486E+03 -0.29797861291E+03  0.20772800890E+02  0.64793599383E+03  0.15294330000E+03 0.  0.
    8880022    1    1    2    0    0  0.55426224486E+03  0.29797861291E+03 -0.13606729179E+04  0.15069241296E+04  0.15294330000E+03 0.  0.
<mgrwt>
<rscale>  0 0.64760292E+03</rscale>
<asrwt>0</asrwt>
<pdfrwt beam="1">  1        2 0.62689232E-01 0.64760292E+03</pdfrwt>
<pdfrwt beam="2">  1       -2 0.26882771E+00 0.64760292E+03</pdfrwt>
<totfact> 0.40220898E+00</totfact>
</mgrwt>
</event>
<event>
 4    1  0.1104584E-007  0.7960712E+03  0.7818608E-02  0.9565721E-01
          2   -1    0    0  501    0  0.00000000000E+00  0.00000000000E+00  0.13302799459E+04  0.13302799459E+04  0.25500000000E-02 0. -1.
         -2   -1    0    0    0  501 -0.00000000000E+00 -0.00000000000E+00 -0.98625045507E+03  0.98625045508E+03  0.25500000000E-02 0.  1.
    8880022    1    1    2    0    0 -0.61671959397E+03  0.47957752098E+03 -0.66078569558E+03  0.10345854458E+04  0.15294330000E+03 0.  0.
    8880022    1    1    2    0    0  0.61671959397E+03 -0.47957752098E+03  0.10048151864E+04  0.12819449552E+04  0.15294330000E+03 0.  0.
<mgrwt>
<rscale>  0 0.79607117E+03</rscale>
<asrwt>0</asrwt>
<pdfrwt beam="1">  1        2 0.20465845E+00 0.79607117E+03</pdfrwt>
<pdfrwt beam="2">  1       -2 0.15173084E+00 0.79607117E+03</pdfrwt>
<totfact> 0.46911613E+00</totfact>
</mgrwt>
</event>
<event>
 4    1  0.1104584E-007  0.6216072E+03  0.7818608E-02  0.9861565E-01
          2   -1    0    0  501    0  0.00000000000E+00  0.00000000000E+00  0.28022948240E+04  0.28022948240E+04  0.25500000000E-02 0. -1.
         -2   -1    0    0    0  501 -0.00000000000E+00 -0.00000000000E+00 -0.20359921627E+03  0.20359921629E+03  0.25500000000E-02 0.  1.
    8880022    1    1    2    0    0  0.16885332327E+03  0.57835315727E+03  0.44549295628E+03  0.76476103877E+03  0.15294330000E+03 0.  0.
    8880022    1    1    2    0    0 -0.16885332327E+03 -0.57835315727E+03  0.21532026514E+04  0.22411330015E+04  0.15294330000E+03 0.  0.
<mgrwt>
<rscale>  0 0.62160717E+03</rscale>
<asrwt>0</asrwt>
<pdfrwt beam="1">  1        2 0.43112226E+00 0.62160717E+03</pdfrwt>
<pdfrwt beam="2">  1       -2 0.31322958E-01 0.62160717E+03</pdfrwt>
<totfact> 0.23463153E+01</totfact>
</mgrwt>
</event>
<event>
 4    1  0.1104584E-007  0.6659042E+03  0.7818608E-02  0.9777385E-01
          2   -1    0    0  501    0  0.00000000000E+00  0.00000000000E+00  0.24254459830E+04  0.24254459830E+04  0.25500000000E-02 0. -1.
         -2   -1    0    0    0  501 -0.00000000000E+00 -0.00000000000E+00 -0.65000878161E+03  0.65000878161E+03  0.25500000000E-02 0.  1.
    8880022    1    1    2    0    0  0.47657682435E+03 -0.43921660317E+03  0.21913786172E+04  0.22903206306E+04  0.15294330000E+03 0.  0.
    8880022    1    1    2    0    0 -0.47657682435E+03  0.43921660317E+03 -0.41594141580E+03  0.78513413402E+03  0.15294330000E+03 0.  0.
<mgrwt>
<rscale>  0 0.66590416E+03</rscale>
<asrwt>0</asrwt>
<pdfrwt beam="1">  1        2 0.37314554E+00 0.66590416E+03</pdfrwt>
<pdfrwt beam="2">  1       -2 0.10000135E+00 0.66590416E+03</pdfrwt>
<totfact> 0.33833168E+00</totfact>
</mgrwt>
</event>
<event>
 4    1  0.1104584E-007  0.6074163E+03  0.7818608E-02  0.9890138E-01
         -2   -1    0    0    0  501 -0.00000000000E+00  0.00000000000E+00  0.55783520823E+03  0.55783520823E+03  0.25500000000E-02 0.  1.
          2   -1    0    0  501    0  0.00000000000E+00 -0.00000000000E+00 -0.11851137339E+04  0.11851137339E+04  0.25500000000E-02 0. -1.
    8880022    1    1    2    0    0  0.16108645969E+03  0.56534421830E+03  0.26568253151E+03  0.66297948176E+03  0.15294330000E+03 0.  0.
    8880022    1    1    2    0    0 -0.16108645969E+03 -0.56534421830E+03 -0.89296105714E+03  0.10799694603E+04  0.15294330000E+03 0.  0.
<mgrwt>
<rscale>  0 0.60741632E+03</rscale>
<asrwt>0</asrwt>
<pdfrwt beam="1">  1        2 0.18232519E+00 0.60741632E+03</pdfrwt>
<pdfrwt beam="2">  1       -2 0.85820801E-01 0.60741632E+03</pdfrwt>
<totfact> 0.23620379E+01</totfact>
</mgrwt>
</event>
<event>
 4    1  0.1104584E-007  0.2526265E+03  0.7818608E-02  0.1111656E+00
          2   -1    0    0  501    0  0.00000000000E+00  0.00000000000E+00  0.79727874931E+03  0.79727874931E+03  0.25500000000E-02 0. -1.
         -2   -1    0    0    0  501 -0.00000000000E+00 -0.00000000000E+00 -0.12365537440E+03  0.12365537443E+03  0.25500000000E-02 0.  1.
    8880022    1    1    2    0    0 -0.16303785789E+03 -0.11767388807E+03  0.61025966888E+03  0.66048240212E+03  0.15294330000E+03 0.  0.
    8880022    1    1    2    0    0  0.16303785789E+03  0.11767388807E+03  0.63363706021E+02  0.26045172162E+03  0.15294330000E+03 0.  1.
<mgrwt>
<rscale>  0 0.25262648E+03</rscale>
<asrwt>0</asrwt>
<pdfrwt beam="1">  1        2 0.12265827E+00 0.25262648E+03</pdfrwt>
<pdfrwt beam="2">  1       -2 0.19023904E-01 0.25262648E+03</pdfrwt>
<totfact> 0.81913575E+02</totfact>
</mgrwt>
</event>
<event>
 4    1  0.1104584E-007  0.2937852E+03  0.7818608E-02  0.1088389E+00
          2   -1    0    0  501    0  0.00000000000E+00  0.00000000000E+00  0.13550388391E+04  0.13550388391E+04  0.25500000000E-02 0. -1.
         -2   -1    0    0    0  501 -0.00000000000E+00 -0.00000000000E+00 -0.90266482600E+02  0.90266482636E+02  0.25500000000E-02 0.  1.
    8880022    1    1    2    0    0  0.24830211161E+03 -0.35555085102E+02  0.24030961604E+03  0.37955034881E+03  0.15294330000E+03 0.  0.
    8880022    1    1    2    0    0 -0.24830211161E+03  0.35555085102E+02  0.10244627404E+04  0.10657549729E+04  0.15294330000E+03 0.  0.
<mgrwt>
<rscale>  0 0.29378522E+03</rscale>
<asrwt>0</asrwt>
<pdfrwt beam="1">  1        2 0.20846751E+00 0.29378522E+03</pdfrwt>
<pdfrwt beam="2">  1       -2 0.13887152E-01 0.29378522E+03</pdfrwt>
<totfact> 0.63722747E+02</totfact>
</mgrwt>
</event>
<event>
 4    1  0.1104584E-007  0.3681757E+03  0.7818608E-02  0.1055393E+00
          2   -1    0    0  501    0  0.00000000000E+00  0.00000000000E+00  0.19288452088E+04  0.19288452088E+04  0.25500000000E-02 0. -1.
         -2   -1    0    0    0  501 -0.00000000000E+00 -0.00000000000E+00 -0.44018168362E+03  0.44018168363E+03  0.25500000000E-02 0.  1.
    8880022    1    1    2    0    0 -0.28544946992E+03 -0.17515780796E+03  0.18301795993E+04  0.18668451131E+04  0.15294330000E+03 0.  0.
    8880022    1    1    2    0    0  0.28544946992E+03  0.17515780796E+03 -0.34151607414E+03  0.50218177932E+03  0.15294330000E+03 0.  0.
<mgrwt>
<rscale>  0 0.36817565E+03</rscale>
<asrwt>0</asrwt>
<pdfrwt beam="1">  1        2 0.29674542E+00 0.36817565E+03</pdfrwt>
<pdfrwt beam="2">  1       -2 0.67720259E-01 0.36817565E+03</pdfrwt>
<totfact> 0.16310899E+01</totfact>
</mgrwt>
</event>
<event>
 4    1  0.1104584E-007  0.2292215E+03  0.7818608E-02  0.1127189E+00
         -2   -1    0    0    0  501 -0.00000000000E+00  0.00000000000E+00  0.25309793330E+03  0.25309793331E+03  0.25500000000E-02 0.  1.
          2   -1    0    0  501    0  0.00000000000E+00 -0.00000000000E+00 -0.62726097349E+03  0.62726097349E+03  0.25500000000E-02 0. -1.
    8880022    1    1    2    0    0 -0.12417663322E+03  0.11717943358E+03 -0.54712603289E+03  0.59320266754E+03  0.15294330000E+03 0. -1.
    8880022    1    1    2    0    0  0.12417663322E+03 -0.11717943358E+03  0.17296299270E+03  0.28715623927E+03  0.15294330000E+03 0.  0.
<mgrwt>
<rscale>  0 0.22922153E+03</rscale>
<asrwt>0</asrwt>
<pdfrwt beam="1">  1        2 0.96501688E-01 0.22922153E+03</pdfrwt>
<pdfrwt beam="2">  1       -2 0.38938144E-01 0.22922153E+03</pdfrwt>
<totfact> 0.30388948E+02</totfact>
</mgrwt>
</event>
<event>
 4    1  0.1104584E-007  0.1652420E+03  0.7818608E-02  0.1182902E+00
          2   -1    0    0  501    0  0.00000000000E+00  0.00000000000E+00  0.20074622054E+04  0.20074622054E+04  0.25500000000E-02 0. -1.
         -2   -1    0    0    0  501 -0.00000000000E+00 -0.00000000000E+00 -0.23828665896E+03  0.23828665897E+03  0.25500000000E-02 0.  1.
    8880022    1    1    2    0    0  0.57904500211E+02 -0.23671562166E+02  0.19749437680E+04  0.19818445484E+04  0.15294330000E+03 0. -1.
    8880022    1    1    2    0    0 -0.57904500211E+02  0.23671562166E+02 -0.20576822156E+03  0.26390431603E+03  0.15294330000E+03 0.  0.
<mgrwt>
<rscale>  0 0.16524203E+03</rscale>
<asrwt>0</asrwt>
<pdfrwt beam="1">  1        2 0.30884035E+00 0.16524203E+03</pdfrwt>
<pdfrwt beam="2">  1       -2 0.36659485E-01 0.16524203E+03</pdfrwt>
<totfact> 0.54956364E+01</totfact>
</mgrwt>
</event>
<event>
 4    1  0.1104584E-007  0.1252256E+04  0.7818608E-02  0.9068308E-01
          2   -1    0    0  501    0  0.00000000000E+00  0.00000000000E+00  0.16892406824E+04  0.16892406824E+04  0.25500000000E-02 0. -1.
         -2   -1    0    0    0  501 -0.00000000000E+00 -0.00000000000E+00 -0.16341286795E+04  0.16341286795E+04  0.25500000000E-02 0.  1.
    8880022    1    1    2    0    0  0.11325597085E+04 -0.51191907654E+03  0.11196275791E+04  0.16797946908E+04  0.15294330000E+03 0.  0.
    8880022    1    1    2    0    0 -0.11325597085E+04  0.51191907654E+03 -0.10645155763E+04  0.16435746711E+04  0.15294330000E+03 0.  0.
<mgrwt>
<rscale>  0 0.12522557E+04</rscale>
<asrwt>0</asrwt>
<pdfrwt beam="1">  1        2 0.25988318E+00 0.12522557E+04</pdfrwt>
<pdfrwt beam="2">  1       -2 0.25140441E+00 0.12522557E+04</pdfrwt>
<totfact> 0.60470417E-01</totfact>
</mgrwt>
</event>
<event>
 4    1  0.1104584E-007  0.6025795E+03  0.7818608E-02  0.9900069E-01
          2   -1    0    0  501    0  0.00000000000E+00  0.00000000000E+00  0.26091676353E+04  0.26091676353E+04  0.25500000000E-02 0. -1.
         -2   -1    0    0    0  501 -0.00000000000E+00 -0.00000000000E+00 -0.24250208564E+03  0.24250208566E+03  0.25500000000E-02 0.  1.
    8880022    1    1    2    0    0  0.42294524737E+03  0.40103326396E+03  0.21141016437E+04  0.21983011109E+04  0.15294330000E+03 0.  0.
    8880022    1    1    2    0    0 -0.42294524737E+03 -0.40103326396E+03  0.25256390597E+03  0.65336861012E+03  0.15294330000E+03 0.  0.
<mgrwt>
<rscale>  0 0.60257947E+03</rscale>
<asrwt>0</asrwt>
<pdfrwt beam="1">  1        2 0.40141039E+00 0.60257947E+03</pdfrwt>
<pdfrwt beam="2">  1       -2 0.37308015E-01 0.60257947E+03</pdfrwt>
<totfact> 0.21889331E+01</totfact>
</mgrwt>
</event>
<event>
 4    1  0.1104584E-007  0.3928275E+03  0.7818608E-02  0.1046292E+00
         -2   -1    0    0    0  501 -0.00000000000E+00  0.00000000000E+00  0.22747696223E+04  0.22747696223E+04  0.25500000000E-02 0.  1.
          2   -1    0    0  501    0  0.00000000000E+00 -0.00000000000E+00 -0.37586891387E+03  0.37586891388E+03  0.25500000000E-02 0. -1.
    8880022    1    1    2    0    0 -0.24590514180E+03  0.26542888228E+03  0.21492263932E+04  0.21848312457E+04  0.15294330000E+03 0.  1.
    8880022    1    1    2    0    0  0.24590514180E+03 -0.26542888228E+03 -0.25032568478E+03  0.46580729039E+03  0.15294330000E+03 0.  0.
<mgrwt>
<rscale>  0 0.39282755E+03</rscale>
<asrwt>0</asrwt>
<pdfrwt beam="1">  1        2 0.57825988E-01 0.39282755E+03</pdfrwt>
<pdfrwt beam="2">  1       -2 0.34996455E+00 0.39282755E+03</pdfrwt>
<totfact> 0.15178007E+00</totfact>
</mgrwt>
</event>
<event>
 4    1  0.1104584E-007  0.3475365E+03  0.7818608E-02  0.1063631E+00
          2   -1    0    0  501    0  0.00000000000E+00  0.00000000000E+00  0.11392330999E+04  0.11392330999E+04  0.25500000000E-02 0. -1.
         -2   -1    0    0    0  501 -0.00000000000E+00 -0.00000000000E+00 -0.40741078689E+03  0.40741078689E+03  0.25500000000E-02 0.  1.
    8880022    1    1    2    0    0  0.26734529490E+03 -0.16098588475E+03 -0.29922258740E+03  0.45860197516E+03  0.15294330000E+03 0.  1.
    8880022    1    1    2    0    0 -0.26734529490E+03  0.16098588475E+03  0.10310449004E+04  0.10880419116E+04  0.15294330000E+03 0.  0.
<mgrwt>
<rscale>  0 0.34753649E+03</rscale>
<asrwt>0</asrwt>
<pdfrwt beam="1">  1        2 0.17526663E+00 0.34753649E+03</pdfrwt>
<pdfrwt beam="2">  1       -2 0.62678583E-01 0.34753649E+03</pdfrwt>
<totfact> 0.52179800E+01</totfact>
</mgrwt>
</event>
<event>
 4    1  0.1104584E-007  0.8521378E+03  0.7818608E-02  0.9487472E-01
         -2   -1    0    0    0  501 -0.00000000000E+00  0.00000000000E+00  0.66974667611E+03  0.66974667612E+03  0.25500000000E-02 0.  1.
          2   -1    0    0  501    0  0.00000000000E+00 -0.00000000000E+00 -0.15149664334E+04  0.15149664334E+04  0.25500000000E-02 0. -1.
    8880022    1    1    2    0    0  0.61779667872E+03  0.56663430162E+03  0.15987443781E+03  0.86700556912E+03  0.15294330000E+03 0.  0.
    8880022    1    1    2    0    0 -0.61779667872E+03 -0.56663430162E+03 -0.10050941951E+04  0.13177075404E+04  0.15294330000E+03 0.  0.
<mgrwt>
<rscale>  0 0.85213779E+03</rscale>
<asrwt>0</asrwt>
<pdfrwt beam="1">  1        2 0.23307176E+00 0.85213779E+03</pdfrwt>
<pdfrwt beam="2">  1       -2 0.10303795E+00 0.85213779E+03</pdfrwt>
<totfact> 0.96862735E+00</totfact>
</mgrwt>
</event>
<event>
 4    1  0.1104584E-007  0.3988497E+03  0.7818608E-02  0.1044179E+00
          2   -1    0    0  501    0  0.00000000000E+00  0.00000000000E+00  0.51720733246E+03  0.51720733247E+03  0.25500000000E-02 0. -1.
         -2   -1    0    0    0  501 -0.00000000000E+00 -0.00000000000E+00 -0.63378489043E+03  0.63378489043E+03  0.25500000000E-02 0.  1.
    8880022    1    1    2    0    0 -0.36835305153E+03  0.23365886425E+01 -0.47116386688E+03  0.61731391746E+03  0.15294330000E+03 0.  0.
    8880022    1    1    2    0    0  0.36835305153E+03 -0.23365886425E+01  0.35458630892E+03  0.53367830545E+03  0.15294330000E+03 0.  0.
<mgrwt>
<rscale>  0 0.39884970E+03</rscale>
<asrwt>0</asrwt>
<pdfrwt beam="1">  1        2 0.79570359E-01 0.39884970E+03</pdfrwt>
<pdfrwt beam="2">  1       -2 0.97505368E-01 0.39884970E+03</pdfrwt>
<totfact> 0.54165076E+01</totfact>
</mgrwt>
</event>
<event>
 4    1  0.1104584E-007  0.3347375E+03  0.7818608E-02  0.1069060E+00
         -2   -1    0    0    0  501 -0.00000000000E+00  0.00000000000E+00  0.18551794749E+03  0.18551794751E+03  0.25500000000E-02 0.  1.
          2   -1    0    0  501    0  0.00000000000E+00 -0.00000000000E+00 -0.66174524163E+03  0.66174524163E+03  0.25500000000E-02 0. -1.
    8880022    1    1    2    0    0 -0.17953806035E+03  0.23753661197E+03 -0.11295104003E+03  0.35328055083E+03  0.15294330000E+03 0.  0.
    8880022    1    1    2    0    0  0.17953806035E+03 -0.23753661197E+03 -0.36327625411E+03  0.49398263831E+03  0.15294330000E+03 0.  0.
<mgrwt>
<rscale>  0 0.33473752E+03</rscale>
<asrwt>0</asrwt>
<pdfrwt beam="1">  1        2 0.10180696E+00 0.33473752E+03</pdfrwt>
<pdfrwt beam="2">  1       -2 0.28541223E-01 0.33473752E+03</pdfrwt>
<totfact> 0.50421465E+02</totfact>
</mgrwt>
</event>
<event>
 4    1  0.1104584E-007  0.2916993E+03  0.7818608E-02  0.1089465E+00
         -2   -1    0    0    0  501 -0.00000000000E+00  0.00000000000E+00  0.89509859693E+02  0.89509859730E+02  0.25500000000E-02 0.  1.
          2   -1    0    0  501    0  0.00000000000E+00 -0.00000000000E+00 -0.20534342729E+04  0.20534342729E+04  0.25500000000E-02 0. -1.
    8880022    1    1    2    0    0  0.68712676564E+02  0.23869519786E+03 -0.19673619837E+03  0.35184316700E+03  0.15294330000E+03 0.  0.
    8880022    1    1    2    0    0 -0.68712676564E+02 -0.23869519786E+03 -0.17671882148E+04  0.17911009656E+04  0.15294330000E+03 0. -1.
<mgrwt>
<rscale>  0 0.29169930E+03</rscale>
<asrwt>0</asrwt>
<pdfrwt beam="1">  1        2 0.31591293E+00 0.29169930E+03</pdfrwt>
<pdfrwt beam="2">  1       -2 0.13770749E-01 0.29169930E+03</pdfrwt>
<totfact> 0.27451701E+02</totfact>
</mgrwt>
</event>
<event>
 4    1  0.1104584E-007  0.3695609E+03  0.7818608E-02  0.1054861E+00
         -2   -1    0    0    0  501 -0.00000000000E+00  0.00000000000E+00  0.14259390550E+03  0.14259390553E+03  0.25500000000E-02 0.  1.
          2   -1    0    0  501    0  0.00000000000E+00 -0.00000000000E+00 -0.32599558836E+04  0.32599558836E+04  0.25500000000E-02 0. -1.
    8880022    1    1    2    0    0  0.26721881525E+03  0.20439587714E+03 -0.12900770287E+03  0.39143097761E+03  0.15294330000E+03 0.  0.
    8880022    1    1    2    0    0 -0.26721881525E+03 -0.20439587714E+03 -0.29883542752E+04  0.30111188115E+04  0.15294330000E+03 0.  0.
<mgrwt>
<rscale>  0 0.36956085E+03</rscale>
<asrwt>0</asrwt>
<pdfrwt beam="1">  1        2 0.50153162E+00 0.36956085E+03</pdfrwt>
<pdfrwt beam="2">  1       -2 0.21937526E-01 0.36956085E+03</pdfrwt>
<totfact> 0.25081849E+01</totfact>
</mgrwt>
</event>
<event>
 4    1  0.1104584E-007  0.3024853E+03  0.7818608E-02  0.1084005E+00
         -2   -1    0    0    0  501 -0.00000000000E+00  0.00000000000E+00  0.23050921846E+03  0.23050921847E+03  0.25500000000E-02 0.  1.
          2   -1    0    0  501    0  0.00000000000E+00 -0.00000000000E+00 -0.51940382064E+03  0.51940382064E+03  0.25500000000E-02 0. -1.
    8880022    1    1    2    0    0  0.26088843844E+03 -0.65497024794E+01  0.37623345995E+02  0.30481608405E+03  0.15294330000E+03 0.  0.
    8880022    1    1    2    0    0 -0.26088843844E+03  0.65497024794E+01 -0.32651794817E+03  0.44509695507E+03  0.15294330000E+03 0.  0.
<mgrwt>
<rscale>  0 0.30248525E+03</rscale>
<asrwt>0</asrwt>
<pdfrwt beam="1">  1        2 0.79908280E-01 0.30248525E+03</pdfrwt>
<pdfrwt beam="2">  1       -2 0.35462957E-01 0.30248525E+03</pdfrwt>
<totfact> 0.44879260E+02</totfact>
</mgrwt>
</event>
<event>
 4    1  0.1104584E-007  0.6348817E+03  0.7818608E-02  0.9835569E-01
         -2   -1    0    0    0  501 -0.00000000000E+00  0.00000000000E+00  0.19164970736E+03  0.19164970738E+03  0.25500000000E-02 0.  1.
          2   -1    0    0  501    0  0.00000000000E+00 -0.00000000000E+00 -0.23601491163E+04  0.23601491163E+04  0.25500000000E-02 0. -1.
    8880022    1    1    2    0    0  0.24436431374E+03  0.56565820474E+03 -0.66324880920E+03  0.91813602388E+03  0.15294330000E+03 0.  0.
    8880022    1    1    2    0    0 -0.24436431374E+03 -0.56565820474E+03 -0.15052505997E+04  0.16336627998E+04  0.15294330000E+03 0.  0.
<mgrwt>
<rscale>  0 0.63488170E+03</rscale>
<asrwt>0</asrwt>
<pdfrwt beam="1">  1        2 0.36309984E+00 0.63488170E+03</pdfrwt>
<pdfrwt beam="2">  1       -2 0.29484572E-01 0.63488170E+03</pdfrwt>
<totfact> 0.46803190E+01</totfact>
</mgrwt>
</event>
<event>
 4    1  0.1104584E-007  0.4519373E+03  0.7818608E-02  0.1027146E+00
          2   -1    0    0  501    0  0.00000000000E+00  0.00000000000E+00  0.14044674868E+04  0.14044674868E+04  0.25500000000E-02 0. -1.
         -2   -1    0    0    0  501 -0.00000000000E+00 -0.00000000000E+00 -0.37196033743E+03  0.37196033744E+03  0.25500000000E-02 0.  1.
    8880022    1    1    2    0    0  0.24910519566E+03 -0.34467710134E+03 -0.17690948530E+03  0.48532908598E+03  0.15294330000E+03 0.  0.
    8880022    1    1    2    0    0 -0.24910519566E+03  0.34467710134E+03  0.12094166347E+04  0.12910987383E+04  0.15294330000E+03 0. -1.
<mgrwt>
<rscale>  0 0.45193734E+03</rscale>
<asrwt>0</asrwt>
<pdfrwt beam="1">  1        2 0.21607192E+00 0.45193734E+03</pdfrwt>
<pdfrwt beam="2">  1       -2 0.57224668E-01 0.45193734E+03</pdfrwt>
<totfact> 0.43742412E+01</totfact>
</mgrwt>
</event>
<event>
 4    1  0.1104584E-007  0.1045828E+04  0.7818608E-02  0.9259662E-01
          2   -1    0    0  501    0  0.00000000000E+00  0.00000000000E+00  0.26044806709E+04  0.26044806709E+04  0.25500000000E-02 0. -1.
         -2   -1    0    0    0  501 -0.00000000000E+00 -0.00000000000E+00 -0.57277735722E+03  0.57277735723E+03  0.25500000000E-02 0.  1.
    8880022    1    1    2    0    0  0.92222139286E+03 -0.46890578532E+03  0.19525936647E+03  0.10638998102E+04  0.15294330000E+03 0.  0.
    8880022    1    1    2    0    0 -0.92222139286E+03  0.46890578532E+03  0.18364439472E+04  0.21133582179E+04  0.15294330000E+03 0.  0.
<mgrwt>
<rscale>  0 0.10458282E+04</rscale>
<asrwt>0</asrwt>
<pdfrwt beam="1">  1        2 0.40068934E+00 0.10458282E+04</pdfrwt>
<pdfrwt beam="2">  1       -2 0.88119593E-01 0.10458282E+04</pdfrwt>
<totfact> 0.33737521E+00</totfact>
</mgrwt>
</event>
<event>
 4    1  0.1104584E-007  0.4243180E+03  0.7818608E-02  0.1035670E+00
         -2   -1    0    0    0  501 -0.00000000000E+00  0.00000000000E+00  0.10566002209E+03  0.10566002212E+03  0.25500000000E-02 0.  1.
          2   -1    0    0  501    0  0.00000000000E+00 -0.00000000000E+00 -0.35791860932E+04  0.35791860932E+04  0.25500000000E-02 0. -1.
    8880022    1    1    2    0    0  0.64557721879E+02  0.39049508490E+03 -0.40318566654E+03  0.58532422255E+03  0.15294330000E+03 0.  0.
    8880022    1    1    2    0    0 -0.64557721879E+02 -0.39049508490E+03 -0.30703404046E+04  0.30995218927E+04  0.15294330000E+03 0.  0.
<mgrwt>
<rscale>  0 0.42431800E+03</rscale>
<asrwt>0</asrwt>
<pdfrwt beam="1">  1        2 0.55064392E+00 0.42431800E+03</pdfrwt>
<pdfrwt beam="2">  1       -2 0.16255391E-01 0.42431800E+03</pdfrwt>
<totfact> 0.25422366E+01</totfact>
</mgrwt>
</event>
<event>
 4    1  0.1104584E-007  0.8003187E+03  0.7818608E-02  0.9559556E-01
         -2   -1    0    0    0  501 -0.00000000000E+00  0.00000000000E+00  0.70419647545E+03  0.70419647545E+03  0.25500000000E-02 0.  1.
          2   -1    0    0  501    0  0.00000000000E+00 -0.00000000000E+00 -0.12455718960E+04  0.12455718960E+04  0.25500000000E-02 0. -1.
    8880022    1    1    2    0    0 -0.73852513228E+03 -0.26776656510E+03 -0.77703095907E+03  0.11154761623E+04  0.15294330000E+03 0.  0.
    8880022    1    1    2    0    0  0.73852513228E+03  0.26776656510E+03  0.23565553849E+03  0.83429220914E+03  0.15294330000E+03 0.  0.
<mgrwt>
<rscale>  0 0.80031866E+03</rscale>
<asrwt>0</asrwt>
<pdfrwt beam="1">  1        2 0.19162645E+00 0.80031866E+03</pdfrwt>
<pdfrwt beam="2">  1       -2 0.10833792E+00 0.80031866E+03</pdfrwt>
<totfact> 0.12302113E+01</totfact>
</mgrwt>
</event>
<event>
 4    1  0.1104584E-007  0.4986018E+03  0.7818608E-02  0.1014145E+00
         -2   -1    0    0    0  501 -0.00000000000E+00  0.00000000000E+00  0.55513860513E+03  0.55513860514E+03  0.25500000000E-02 0.  1.
          2   -1    0    0  501    0  0.00000000000E+00 -0.00000000000E+00 -0.16717906015E+04  0.16717906016E+04  0.25500000000E-02 0. -1.
    8880022    1    1    2    0    0 -0.45582446192E+03  0.13204604085E+03  0.39440536972E+03  0.63573527955E+03  0.15294330000E+03 0.  0.
    8880022    1    1    2    0    0  0.45582446192E+03 -0.13204604085E+03 -0.15110573661E+04  0.15911939271E+04  0.15294330000E+03 0.  0.
<mgrwt>
<rscale>  0 0.49860180E+03</rscale>
<asrwt>0</asrwt>
<pdfrwt beam="1">  1        2 0.25719855E+00 0.49860180E+03</pdfrwt>
<pdfrwt beam="2">  1       -2 0.85405940E-01 0.49860180E+03</pdfrwt>
<totfact> 0.12994608E+01</totfact>
</mgrwt>
</event>
<event>
 4    1  0.1104584E-007  0.5639603E+03  0.7818608E-02  0.9983133E-01
         -2   -1    0    0    0  501 -0.00000000000E+00  0.00000000000E+00  0.51051345660E+03  0.51051345661E+03  0.25500000000E-02 0.  1.
          2   -1    0    0  501    0  0.00000000000E+00 -0.00000000000E+00 -0.11266517266E+04  0.11266517266E+04  0.25500000000E-02 0. -1.
    8880022    1    1    2    0    0 -0.45260590711E+03 -0.29967884009E+03 -0.85537706461E+03  0.10245589734E+04  0.15294330000E+03 0.  0.
    8880022    1    1    2    0    0  0.45260590711E+03  0.29967884009E+03  0.23923879465E+03  0.61260620975E+03  0.15294330000E+03 0.  0.
<mgrwt>
<rscale>  0 0.56396025E+03</rscale>
<asrwt>0</asrwt>
<pdfrwt beam="1">  1        2 0.17333103E+00 0.56396025E+03</pdfrwt>
<pdfrwt beam="2">  1       -2 0.78540532E-01 0.56396025E+03</pdfrwt>
<totfact> 0.31429791E+01</totfact>
</mgrwt>
</event>
<event>
 4    1  0.1104584E-007  0.1644016E+04  0.7818608E-02  0.8793955E-01
          2   -1    0    0  501    0  0.00000000000E+00  0.00000000000E+00  0.44606460073E+04  0.44606460073E+04  0.25500000000E-02 0. -1.
         -2   -1    0    0    0  501 -0.00000000000E+00 -0.00000000000E+00 -0.63071252494E+03  0.63071252494E+03  0.25500000000E-02 0.  1.
    8880022    1    1    2    0    0  0.13638525095E+04  0.90515322597E+03  0.14102334226E+04  0.21659976891E+04  0.15294330000E+03 0.  0.
    8880022    1    1    2    0    0 -0.13638525095E+04 -0.90515322597E+03  0.24197000598E+04  0.29253608431E+04  0.15294330000E+03 0.  0.
<mgrwt>
<rscale>  0 0.16440157E+04</rscale>
<asrwt>0</asrwt>
<pdfrwt beam="1">  1        2 0.68625322E+00 0.16440157E+04</pdfrwt>
<pdfrwt beam="2">  1       -2 0.97032699E-01 0.16440157E+04</pdfrwt>
<totfact> 0.11456353E-01</totfact>
</mgrwt>
</event>
<event>
 4    1  0.1104584E-007  0.5902983E+03  0.7818608E-02  0.9925741E-01
          2   -1    0    0  501    0  0.00000000000E+00  0.00000000000E+00  0.81354567575E+03  0.81354567575E+03  0.25500000000E-02 0. -1.
         -2   -1    0    0    0  501 -0.00000000000E+00 -0.00000000000E+00 -0.67792320943E+03  0.67792320944E+03  0.25500000000E-02 0.  1.
    8880022    1    1    2    0    0  0.12821274501E+03  0.55553754339E+03  0.52031812015E+03  0.78688186488E+03  0.15294330000E+03 0.  0.
    8880022    1    1    2    0    0 -0.12821274501E+03 -0.55553754339E+03 -0.38469565383E+03  0.70458702031E+03  0.15294330000E+03 0.  0.
<mgrwt>
<rscale>  0 0.59029833E+03</rscale>
<asrwt>0</asrwt>
<pdfrwt beam="1">  1        2 0.12516087E+00 0.59029833E+03</pdfrwt>
<pdfrwt beam="2">  1       -2 0.10429588E+00 0.59029833E+03</pdfrwt>
<totfact> 0.25954101E+01</totfact>
</mgrwt>
</event>
<event>
 4    1  0.1104584E-007  0.5134057E+03  0.7818608E-02  0.1010338E+00
         -2   -1    0    0    0  501 -0.00000000000E+00  0.00000000000E+00  0.67409794701E+03  0.67409794701E+03  0.25500000000E-02 0.  1.
          2   -1    0    0  501    0  0.00000000000E+00 -0.00000000000E+00 -0.14971918854E+04  0.14971918854E+04  0.25500000000E-02 0. -1.
    8880022    1    1    2    0    0  0.40785079916E+03  0.27175629880E+03 -0.13447163609E+04  0.14393913660E+04  0.15294330000E+03 0.  0.
    8880022    1    1    2    0    0 -0.40785079916E+03 -0.27175629880E+03  0.52162242255E+03  0.73189846634E+03  0.15294330000E+03 0.  0.
<mgrwt>
<rscale>  0 0.51340570E+03</rscale>
<asrwt>0</asrwt>
<pdfrwt beam="1">  1        2 0.23033721E+00 0.51340570E+03</pdfrwt>
<pdfrwt beam="2">  1       -2 0.10370738E+00 0.51340570E+03</pdfrwt>
<totfact> 0.10277931E+01</totfact>
</mgrwt>
</event>
<event>
 4    1  0.1104584E-007  0.1011013E+04  0.7818608E-02  0.9296548E-01
          2   -1    0    0  501    0  0.00000000000E+00  0.00000000000E+00  0.23597823787E+04  0.23597823787E+04  0.25500000000E-02 0. -1.
         -2   -1    0    0    0  501 -0.00000000000E+00 -0.00000000000E+00 -0.90708191703E+03  0.90708191703E+03  0.25500000000E-02 0.  1.
    8880022    1    1    2    0    0  0.69593173328E+03 -0.71724102242E+03 -0.45433560049E+03  0.11084079360E+04  0.15294330000E+03 0.  0.
    8880022    1    1    2    0    0 -0.69593173328E+03  0.71724102242E+03  0.19070360621E+04  0.21584563598E+04  0.15294330000E+03 0.  0.
<mgrwt>
<rscale>  0 0.10110130E+04</rscale>
<asrwt>0</asrwt>
<pdfrwt beam="1">  1        2 0.36304344E+00 0.10110130E+04</pdfrwt>
<pdfrwt beam="2">  1       -2 0.13955106E+00 0.10110130E+04</pdfrwt>
<totfact> 0.15210965E+00</totfact>
</mgrwt>
</event>
<event>
 4    1  0.1104584E-007  0.4103086E+03  0.7818608E-02  0.1040267E+00
         -2   -1    0    0    0  501 -0.00000000000E+00  0.00000000000E+00  0.12759318718E+04  0.12759318718E+04  0.25500000000E-02 0.  1.
          2   -1    0    0  501    0  0.00000000000E+00 -0.00000000000E+00 -0.69548594856E+03  0.69548594857E+03  0.25500000000E-02 0. -1.
    8880022    1    1    2    0    0  0.36836666327E+03  0.96268043891E+02  0.11775161219E+04  0.12469552539E+04  0.15294330000E+03 0.  0.
    8880022    1    1    2    0    0 -0.36836666327E+03 -0.96268043891E+02 -0.59707019873E+03  0.72446256640E+03  0.15294330000E+03 0.  0.
<mgrwt>
<rscale>  0 0.41030865E+03</rscale>
<asrwt>0</asrwt>
<pdfrwt beam="1">  1        2 0.10699784E+00 0.41030865E+03</pdfrwt>
<pdfrwt beam="2">  1       -2 0.19629721E+00 0.41030865E+03</pdfrwt>
<totfact> 0.62779863E+00</totfact>
</mgrwt>
</event>
<event>
 4    1  0.1104584E-007  0.8589903E+03  0.7818608E-02  0.9478349E-01
         -2   -1    0    0    0  501 -0.00000000000E+00  0.00000000000E+00  0.63110927800E+03  0.63110927800E+03  0.25500000000E-02 0.  1.
          2   -1    0    0  501    0  0.00000000000E+00 -0.00000000000E+00 -0.13213274137E+04  0.13213274137E+04  0.25500000000E-02 0. -1.
    8880022    1    1    2    0    0  0.81495130240E+03 -0.22433699285E+03 -0.13817664531E+02  0.85910144483E+03  0.15294330000E+03 0.  0.
    8880022    1    1    2    0    0 -0.81495130240E+03  0.22433699285E+03 -0.67640047117E+03  0.10933352469E+04  0.15294330000E+03 0.  0.
<mgrwt>
<rscale>  0 0.85899032E+03</rscale>
<asrwt>0</asrwt>
<pdfrwt beam="1">  1        2 0.20328114E+00 0.85899032E+03</pdfrwt>
<pdfrwt beam="2">  1       -2 0.97093736E-01 0.85899032E+03</pdfrwt>
<totfact> 0.14349140E+01</totfact>
</mgrwt>
</event>
<event>
 4    1  0.1104584E-007  0.2081472E+03  0.7818608E-02  0.1143042E+00
         -2   -1    0    0    0  501 -0.00000000000E+00  0.00000000000E+00  0.64090783790E+03  0.64090783790E+03  0.25500000000E-02 0.  1.
          2   -1    0    0  501    0  0.00000000000E+00 -0.00000000000E+00 -0.89650008940E+03  0.89650008941E+03  0.25500000000E-02 0. -1.
    8880022    1    1    2    0    0 -0.11069354709E+03  0.87638711483E+02  0.61135814528E+03  0.64582043939E+03  0.15294330000E+03 0.  1.
    8880022    1    1    2    0    0  0.11069354709E+03 -0.87638711483E+02 -0.86695039679E+03  0.89158748792E+03  0.15294330000E+03 0.  0.
<mgrwt>
<rscale>  0 0.20814720E+03</rscale>
<asrwt>0</asrwt>
<pdfrwt beam="1">  1        2 0.13792309E+00 0.20814720E+03</pdfrwt>
<pdfrwt beam="2">  1       -2 0.98601206E-01 0.20814720E+03</pdfrwt>
<totfact> 0.28028106E+01</totfact>
</mgrwt>
</event>
<event>
 4    1  0.1104584E-007  0.8503574E+03  0.7818608E-02  0.9489857E-01
          2   -1    0    0  501    0  0.00000000000E+00  0.00000000000E+00  0.14530149635E+04  0.14530149635E+04  0.25500000000E-02 0. -1.
         -2   -1    0    0    0  501 -0.00000000000E+00 -0.00000000000E+00 -0.82925512035E+03  0.82925512035E+03  0.25500000000E-02 0.  1.
    8880022    1    1    2    0    0  0.58152068244E+03 -0.60129013844E+03 -0.40972064209E+03  0.94391672952E+03  0.15294330000E+03 0.  0.
    8880022    1    1    2    0    0 -0.58152068244E+03  0.60129013844E+03  0.10334804853E+04  0.13383533544E+04  0.15294330000E+03 0.  0.
<mgrwt>
<rscale>  0 0.85035745E+03</rscale>
<asrwt>0</asrwt>
<pdfrwt beam="1">  1        2 0.22354076E+00 0.85035745E+03</pdfrwt>
<pdfrwt beam="2">  1       -2 0.12757771E+00 0.85035745E+03</pdfrwt>
<totfact> 0.62128162E+00</totfact>
</mgrwt>
</event>
<event>
 4    1  0.1104584E-007  0.5529868E+03  0.7818608E-02  0.1000805E+00
         -2   -1    0    0    0  501 -0.00000000000E+00  0.00000000000E+00  0.58087835012E+03  0.58087835013E+03  0.25500000000E-02 0.  1.
          2   -1    0    0  501    0  0.00000000000E+00 -0.00000000000E+00 -0.63498953856E+03  0.63498953857E+03  0.25500000000E-02 0. -1.
    8880022    1    1    2    0    0 -0.23359300170E+03  0.47732281942E+03  0.22430549762E+03  0.59674732816E+03  0.15294330000E+03 0.  0.
    8880022    1    1    2    0    0  0.23359300170E+03 -0.47732281942E+03 -0.27841668606E+03  0.61912056054E+03  0.15294330000E+03 0.  0.
<mgrwt>
<rscale>  0 0.55298681E+03</rscale>
<asrwt>0</asrwt>
<pdfrwt beam="1">  1        2 0.97690698E-01 0.55298681E+03</pdfrwt>
<pdfrwt beam="2">  1       -2 0.89365900E-01 0.55298681E+03</pdfrwt>
<totfact> 0.51168668E+01</totfact>
</mgrwt>
</event>
<event>
 4    1  0.1104584E-007  0.2900996E+03  0.7818608E-02  0.1090297E+00
          2   -1    0    0  501    0  0.00000000000E+00  0.00000000000E+00  0.24398320182E+03  0.24398320184E+03  0.25500000000E-02 0. -1.
         -2   -1    0    0    0  501 -0.00000000000E+00 -0.00000000000E+00 -0.53183361756E+03  0.53183361756E+03  0.25500000000E-02 0.  1.
    8880022    1    1    2    0    0 -0.21430891523E+03 -0.12181053347E+03 -0.37388244765E+03  0.47322917798E+03  0.15294330000E+03 0.  0.
    8880022    1    1    2    0    0  0.21430891523E+03  0.12181053347E+03  0.86032031912E+02  0.30258764143E+03  0.15294330000E+03 0.  0.
<mgrwt>
<rscale>  0 0.29009959E+03</rscale>
<asrwt>0</asrwt>
<pdfrwt beam="1">  1        2 0.37535877E-01 0.29009959E+03</pdfrwt>
<pdfrwt beam="2">  1       -2 0.81820556E-01 0.29009959E+03</pdfrwt>
<totfact> 0.18664522E+02</totfact>
</mgrwt>
</event>
<event>
 4    1  0.1104584E-007  0.3813104E+03  0.7818608E-02  0.1050450E+00
         -2   -1    0    0    0  501 -0.00000000000E+00  0.00000000000E+00  0.39786818722E+03  0.39786818723E+03  0.25500000000E-02 0.  1.
          2   -1    0    0  501    0  0.00000000000E+00 -0.00000000000E+00 -0.53388066606E+03  0.53388066607E+03  0.25500000000E-02 0. -1.
    8880022    1    1    2    0    0 -0.34672912745E+03 -0.42247719661E+02 -0.32968478059E+03  0.50407307526E+03  0.15294330000E+03 0.  0.
    8880022    1    1    2    0    0  0.34672912745E+03  0.42247719661E+02  0.19367230175E+03  0.42767577804E+03  0.15294330000E+03 0.  1.
<mgrwt>
<rscale>  0 0.38131039E+03</rscale>
<asrwt>0</asrwt>
<pdfrwt beam="1">  1        2 0.82135487E-01 0.38131039E+03</pdfrwt>
<pdfrwt beam="2">  1       -2 0.61210490E-01 0.38131039E+03</pdfrwt>
<totfact> 0.14643019E+02</totfact>
</mgrwt>
</event>
<event>
 4    1  0.1104584E-007  0.9923118E+03  0.7818608E-02  0.9317017E-01
         -2   -1    0    0    0  501 -0.00000000000E+00  0.00000000000E+00  0.87086736658E+03  0.87086736659E+03  0.25500000000E-02 0.  1.
          2   -1    0    0  501    0  0.00000000000E+00 -0.00000000000E+00 -0.17237091526E+04  0.17237091527E+04  0.25500000000E-02 0. -1.
    8880022    1    1    2    0    0 -0.93861762911E+03 -0.28335151051E+03 -0.11873393400E+04  0.15474034682E+04  0.15294330000E+03 0.  0.
    8880022    1    1    2    0    0  0.93861762911E+03  0.28335151051E+03  0.33449755391E+03  0.10471730510E+04  0.15294330000E+03 0.  0.
<mgrwt>
<rscale>  0 0.99231184E+03</rscale>
<asrwt>0</asrwt>
<pdfrwt beam="1">  1        2 0.26518602E+00 0.99231184E+03</pdfrwt>
<pdfrwt beam="2">  1       -2 0.13397960E+00 0.99231184E+03</pdfrwt>
<totfact> 0.38114566E+00</totfact>
</mgrwt>
</event>
<event>
 4    1  0.1104584E-007  0.7673660E+03  0.7818608E-02  0.9608493E-01
         -2   -1    0    0    0  501 -0.00000000000E+00  0.00000000000E+00  0.24455822453E+03  0.24455822454E+03  0.25500000000E-02 0.  1.
          2   -1    0    0  501    0  0.00000000000E+00 -0.00000000000E+00 -0.31747376736E+04  0.31747376736E+04  0.25500000000E-02 0. -1.
    8880022    1    1    2    0    0 -0.70747163488E+03 -0.25483887804E+03 -0.23053792497E+04  0.24297374562E+04  0.15294330000E+03 0.  0.
    8880022    1    1    2    0    0  0.70747163488E+03  0.25483887804E+03 -0.62480019935E+03  0.98955844195E+03  0.15294330000E+03 0.  0.
<mgrwt>
<rscale>  0 0.76736603E+03</rscale>
<asrwt>0</asrwt>
<pdfrwt beam="1">  1        2 0.48842115E+00 0.76736603E+03</pdfrwt>
<pdfrwt beam="2">  1       -2 0.37624345E-01 0.76736603E+03</pdfrwt>
<totfact> 0.95638657E+00</totfact>
</mgrwt>
</event>
<event>
 4    1  0.1104584E-007  0.3393067E+03  0.7818608E-02  0.1067092E+00
          2   -1    0    0  501    0  0.00000000000E+00  0.00000000000E+00  0.11723511523E+04  0.11723511523E+04  0.25500000000E-02 0. -1.
         -2   -1    0    0    0  501 -0.00000000000E+00 -0.00000000000E+00 -0.21342244929E+03  0.21342244931E+03  0.25500000000E-02 0.  1.
    8880022    1    1    2    0    0  0.29495914060E+03 -0.68822273532E+02  0.98856551162E+03  0.10451750206E+04  0.15294330000E+03 0.  0.
    8880022    1    1    2    0    0 -0.29495914060E+03  0.68822273532E+02 -0.29636808576E+02  0.34059858102E+03  0.15294330000E+03 0.  0.
<mgrwt>
<rscale>  0 0.33930672E+03</rscale>
<asrwt>0</asrwt>
<pdfrwt beam="1">  1        2 0.18036172E+00 0.33930672E+03</pdfrwt>
<pdfrwt beam="2">  1       -2 0.32834223E-01 0.33930672E+03</pdfrwt>
<totfact> 0.17929600E+02</totfact>
</mgrwt>
</event>
<event>
 4    1  0.1104584E-007  0.3610551E+03  0.7818608E-02  0.1058167E+00
         -2   -1    0    0    0  501 -0.00000000000E+00  0.00000000000E+00  0.96758917908E+03  0.96758917909E+03  0.25500000000E-02 0.  1.
          2   -1    0    0  501    0  0.00000000000E+00 -0.00000000000E+00 -0.14807427149E+03  0.14807427151E+03  0.25500000000E-02 0. -1.
    8880022    1    1    2    0    0 -0.12198185605E+03 -0.30346261719E+03  0.24228131195E+03  0.43481147682E+03  0.15294330000E+03 0.  0.
    8880022    1    1    2    0    0  0.12198185605E+03  0.30346261719E+03  0.57723359565E+03  0.68085197378E+03  0.15294330000E+03 0.  0.
<mgrwt>
<rscale>  0 0.36105510E+03</rscale>
<asrwt>0</asrwt>
<pdfrwt beam="1">  1        2 0.22780657E-01 0.36105510E+03</pdfrwt>
<pdfrwt beam="2">  1       -2 0.14885987E+00 0.36105510E+03</pdfrwt>
<totfact> 0.77119252E+01</totfact>
</mgrwt>
</event>
<event>
 4    1  0.1104584E-007  0.3591629E+03  0.7818608E-02  0.1058916E+00
         -2   -1    0    0    0  501 -0.00000000000E+00  0.00000000000E+00  0.26921724408E+04  0.26921724408E+04  0.25500000000E-02 0.  1.
          2   -1    0    0  501    0  0.00000000000E+00 -0.00000000000E+00 -0.68748377227E+03  0.68748377228E+03  0.25500000000E-02 0. -1.
    8880022    1    1    2    0    0 -0.26452693402E+03 -0.18876392945E+03 -0.62753183502E+03  0.72304507250E+03  0.15294330000E+03 0.  0.
    8880022    1    1    2    0    0  0.26452693402E+03  0.18876392945E+03  0.26322205035E+04  0.26566111405E+04  0.15294330000E+03 0.  0.
<mgrwt>
<rscale>  0 0.35916288E+03</rscale>
<asrwt>0</asrwt>
<pdfrwt beam="1">  1        2 0.10576673E+00 0.35916288E+03</pdfrwt>
<pdfrwt beam="2">  1       -2 0.41418038E+00 0.35916288E+03</pdfrwt>
<totfact> 0.30277313E-01</totfact>
</mgrwt>
</event>
<event>
 4    1  0.1104584E-007  0.7427155E+03  0.7818608E-02  0.9646848E-01
          2   -1    0    0  501    0  0.00000000000E+00  0.00000000000E+00  0.19453012331E+04  0.19453012331E+04  0.25500000000E-02 0. -1.
         -2   -1    0    0    0  501 -0.00000000000E+00 -0.00000000000E+00 -0.50931904476E+03  0.50931904476E+03  0.25500000000E-02 0.  1.
    8880022    1    1    2    0    0 -0.71331868771E+03  0.13932397869E+03 -0.99105984856E+02  0.74929858569E+03  0.15294330000E+03 0.  0.
    8880022    1    1    2    0    0  0.71331868771E+03 -0.13932397869E+03  0.15350881732E+04  0.17053216922E+04  0.15294330000E+03 0.  0.
<mgrwt>
<rscale>  0 0.74271554E+03</rscale>
<asrwt>0</asrwt>
<pdfrwt beam="1">  1        2 0.29927711E+00 0.74271554E+03</pdfrwt>
<pdfrwt beam="2">  1       -2 0.78356776E-01 0.74271554E+03</pdfrwt>
<totfact> 0.10742699E+01</totfact>
</mgrwt>
</event>
<event>
 4    1  0.1441812E-007  0.5118144E+03  0.7818608E-02  0.1010740E+00
         -2   -1    0    0    0  501 -0.00000000000E+00  0.00000000000E+00  0.10762446013E+04  0.10762446013E+04  0.25500000000E-02 0.  1.
          2   -1    0    0  501    0  0.00000000000E+00 -0.00000000000E+00 -0.25309672943E+04  0.25309672943E+04  0.25500000000E-02 0. -1.
    8880022    1    1    2    0    0  0.12703626113E+02  0.48826323175E+03  0.98732889851E+03  0.11121026807E+04  0.15294330000E+03 0.  0.
    8880022    1    1    2    0    0 -0.12703626113E+02 -0.48826323175E+03 -0.24420515915E+04  0.24951092149E+04  0.15294330000E+03 0. -1.
<mgrwt>
<rscale>  0 0.51181444E+03</rscale>
<asrwt>0</asrwt>
<pdfrwt beam="1">  1        2 0.38937958E+00 0.51181444E+03</pdfrwt>
<pdfrwt beam="2">  1       -2 0.16557609E+00 0.51181444E+03</pdfrwt>
<totfact> 0.86107676E-01</totfact>
</mgrwt>
</event>
<event>
 4    1  0.1104584E-007  0.2325150E+03  0.7818608E-02  0.1124882E+00
         -2   -1    0    0    0  501 -0.00000000000E+00  0.00000000000E+00  0.19128630868E+03  0.19128630869E+03  0.25500000000E-02 0.  1.
          2   -1    0    0  501    0  0.00000000000E+00 -0.00000000000E+00 -0.43380065726E+03  0.43380065727E+03  0.25500000000E-02 0. -1.
    8880022    1    1    2    0    0 -0.10936801514E+03 -0.13678524997E+03  0.63244076063E+02  0.24096272226E+03  0.15294330000E+03 0. -1.
    8880022    1    1    2    0    0  0.10936801514E+03  0.13678524997E+03 -0.30575842465E+03  0.38412424371E+03  0.15294330000E+03 0.  0.
<mgrwt>
<rscale>  0 0.23251499E+03</rscale>
<asrwt>0</asrwt>
<pdfrwt beam="1">  1        2 0.66738563E-01 0.23251499E+03</pdfrwt>
<pdfrwt beam="2">  1       -2 0.29428663E-01 0.23251499E+03</pdfrwt>
<totfact> 0.77509997E+02</totfact>
</mgrwt>
</event>
<event>
 4    1  0.1104584E-007  0.1060990E+04  0.7818608E-02  0.9244071E-01
         -2   -1    0    0    0  501 -0.00000000000E+00  0.00000000000E+00  0.45545943839E+03  0.45545943839E+03  0.25500000000E-02 0.  1.
          2   -1    0    0  501    0  0.00000000000E+00 -0.00000000000E+00 -0.36484983121E+04  0.36484983121E+04  0.25500000000E-02 0. -1.
    8880022    1    1    2    0    0  0.75365372587E+03 -0.73096736557E+03 -0.43107594190E+03  0.11452184721E+04  0.15294330000E+03 0.  0.
    8880022    1    1    2    0    0 -0.75365372587E+03  0.73096736557E+03 -0.27619629318E+04  0.29587392784E+04  0.15294330000E+03 0.  0.
<mgrwt>
<rscale>  0 0.10609896E+04</rscale>
<asrwt>0</asrwt>
<pdfrwt beam="1">  1        2 0.56130741E+00 0.10609896E+04</pdfrwt>
<pdfrwt beam="2">  1       -2 0.70070686E-01 0.10609896E+04</pdfrwt>
<totfact> 0.12167055E+00</totfact>
</mgrwt>
</event>
<event>
 4    1  0.1104584E-007  0.1530299E+04  0.7818608E-02  0.8864551E-01
         -2   -1    0    0    0  501 -0.00000000000E+00  0.00000000000E+00  0.27564625950E+04  0.27564625950E+04  0.25500000000E-02 0.  1.
          2   -1    0    0  501    0  0.00000000000E+00 -0.00000000000E+00 -0.94161586084E+03  0.94161586085E+03  0.25500000000E-02 0. -1.
    8880022    1    1    2    0    0 -0.91126132873E+03 -0.12198462213E+04  0.14855280167E+04  0.21327463877E+04  0.15294330000E+03 0.  0.
    8880022    1    1    2    0    0  0.91126132873E+03  0.12198462213E+04  0.32931871743E+03  0.15653320681E+04  0.15294330000E+03 0.  0.
<mgrwt>
<rscale>  0 0.15302986E+04</rscale>
<asrwt>0</asrwt>
<pdfrwt beam="1">  1        2 0.14486398E+00 0.15302986E+04</pdfrwt>
<pdfrwt beam="2">  1       -2 0.42407117E+00 0.15302986E+04</pdfrwt>
<totfact> 0.13423397E-01</totfact>
</mgrwt>
</event>
<event>
 4    1  0.1104584E-007  0.7371326E+03  0.7818608E-02  0.9655756E-01
          2   -1    0    0  501    0  0.00000000000E+00  0.00000000000E+00  0.34840565772E+04  0.34840565772E+04  0.25500000000E-02 0. -1.
         -2   -1    0    0    0  501 -0.00000000000E+00 -0.00000000000E+00 -0.16770574755E+03  0.16770574756E+03  0.25500000000E-02 0.  1.
    8880022    1    1    2    0    0  0.57463013657E+03  0.43562945107E+03  0.21414418223E+04  0.22647599307E+04  0.15294330000E+03 0.  0.
    8880022    1    1    2    0    0 -0.57463013657E+03 -0.43562945107E+03  0.11749090073E+04  0.13870023940E+04  0.15294330000E+03 0.  0.
<mgrwt>
<rscale>  0 0.73713260E+03</rscale>
<asrwt>0</asrwt>
<pdfrwt beam="1">  1        2 0.53600866E+00 0.73713260E+03</pdfrwt>
<pdfrwt beam="2">  1       -2 0.25800886E-01 0.73713260E+03</pdfrwt>
<totfact> 0.12202898E+01</totfact>
</mgrwt>
</event>
<event>
 4    1  0.1104584E-007  0.3936965E+03  0.7818608E-02  0.1045984E+00
          2   -1    0    0  501    0  0.00000000000E+00  0.00000000000E+00  0.22043361257E+03  0.22043361258E+03  0.25500000000E-02 0. -1.
         -2   -1    0    0    0  501 -0.00000000000E+00 -0.00000000000E+00 -0.17329115254E+04  0.17329115254E+04  0.25500000000E-02 0.  1.
    8880022    1    1    2    0    0  0.30981978627E+03 -0.18872462078E+03 -0.33515314409E+01  0.39371076722E+03  0.15294330000E+03 0.  0.
    8880022    1    1    2    0    0 -0.30981978627E+03  0.18872462078E+03 -0.15091263814E+04  0.15596343708E+04  0.15294330000E+03 0.  0.
<mgrwt>
<rscale>  0 0.39369650E+03</rscale>
<asrwt>0</asrwt>
<pdfrwt beam="1">  1        2 0.33912865E-01 0.39369650E+03</pdfrwt>
<pdfrwt beam="2">  1       -2 0.26660176E+00 0.39369650E+03</pdfrwt>
<totfact> 0.85637432E+00</totfact>
</mgrwt>
</event>
<event>
 4    1  0.1104584E-007  0.7325003E+03  0.7818608E-02  0.9663212E-01
         -2   -1    0    0    0  501 -0.00000000000E+00  0.00000000000E+00  0.87039160822E+03  0.87039160822E+03  0.25500000000E-02 0.  1.
          2   -1    0    0  501    0  0.00000000000E+00 -0.00000000000E+00 -0.10615087094E+04  0.10615087094E+04  0.25500000000E-02 0. -1.
    8880022    1    1    2    0    0 -0.65551354980E+03  0.28890659371E+03  0.52990134858E+03  0.90407528786E+03  0.15294330000E+03 0.  0.
    8880022    1    1    2    0    0  0.65551354980E+03 -0.28890659371E+03 -0.72101844973E+03  0.10278250297E+04  0.15294330000E+03 0.  0.
<mgrwt>
<rscale>  0 0.73250030E+03</rscale>
<asrwt>0</asrwt>
<pdfrwt beam="1">  1        2 0.16330903E+00 0.73250030E+03</pdfrwt>
<pdfrwt beam="2">  1       -2 0.13390640E+00 0.73250030E+03</pdfrwt>
<totfact> 0.94633293E+00</totfact>
</mgrwt>
</event>
<event>
 4    1  0.1104584E-007  0.7283345E+03  0.7818608E-02  0.9669967E-01
         -2   -1    0    0    0  501 -0.00000000000E+00  0.00000000000E+00  0.10212227488E+04  0.10212227489E+04  0.25500000000E-02 0.  1.
          2   -1    0    0  501    0  0.00000000000E+00 -0.00000000000E+00 -0.11650857893E+04  0.11650857893E+04  0.25500000000E-02 0. -1.
    8880022    1    1    2    0    0 -0.66470335807E+03  0.25543870589E+03 -0.88569331152E+03  0.11467012609E+04  0.15294330000E+03 0.  0.
    8880022    1    1    2    0    0  0.66470335807E+03 -0.25543870589E+03  0.74183027110E+03  0.10396072772E+04  0.15294330000E+03 0.  0.
<mgrwt>
<rscale>  0 0.72833450E+03</rscale>
<asrwt>0</asrwt>
<pdfrwt beam="1">  1        2 0.17924397E+00 0.72833450E+03</pdfrwt>
<pdfrwt beam="2">  1       -2 0.15711119E+00 0.72833450E+03</pdfrwt>
<totfact> 0.53901559E+00</totfact>
</mgrwt>
</event>
<event>
 4    1  0.1104584E-007  0.2946350E+03  0.7818608E-02  0.1087954E+00
         -2   -1    0    0    0  501 -0.00000000000E+00  0.00000000000E+00  0.27695726251E+03  0.27695726252E+03  0.25500000000E-02 0.  1.
          2   -1    0    0  501    0  0.00000000000E+00 -0.00000000000E+00 -0.15649356561E+04  0.15649356561E+04  0.25500000000E-02 0. -1.
    8880022    1    1    2    0    0  0.19759390962E+03 -0.15612415280E+03 -0.14675594313E+04  0.14968434927E+04  0.15294330000E+03 0. -1.
    8880022    1    1    2    0    0 -0.19759390962E+03  0.15612415280E+03  0.17958103772E+03  0.34504942592E+03  0.15294330000E+03 0.  0.
<mgrwt>
<rscale>  0 0.29463496E+03</rscale>
<asrwt>0</asrwt>
<pdfrwt beam="1">  1        2 0.24075933E+00 0.29463496E+03</pdfrwt>
<pdfrwt beam="2">  1       -2 0.42608810E-01 0.29463496E+03</pdfrwt>
<totfact> 0.66894135E+01</totfact>
</mgrwt>
</event>
<event>
 4    1  0.1104584E-007  0.3180284E+03  0.7818608E-02  0.1076560E+00
         -2   -1    0    0    0  501 -0.00000000000E+00  0.00000000000E+00  0.29445618034E+03  0.29445618035E+03  0.25500000000E-02 0.  1.
          2   -1    0    0  501    0  0.00000000000E+00 -0.00000000000E+00 -0.56437463822E+03  0.56437463823E+03  0.25500000000E-02 0. -1.
    8880022    1    1    2    0    0  0.14111407321E+03 -0.24049378223E+03 -0.40360427619E+03  0.51384677261E+03  0.15294330000E+03 0.  0.
    8880022    1    1    2    0    0 -0.14111407321E+03  0.24049378223E+03  0.13368581830E+03  0.34498404598E+03  0.15294330000E+03 0.  0.
<mgrwt>
<rscale>  0 0.31802845E+03</rscale>
<asrwt>0</asrwt>
<pdfrwt beam="1">  1        2 0.86826868E-01 0.31802845E+03</pdfrwt>
<pdfrwt beam="2">  1       -2 0.45300951E-01 0.31802845E+03</pdfrwt>
<totfact> 0.25455012E+02</totfact>
</mgrwt>
</event>
<event>
 4    1  0.1104584E-007  0.7415478E+03  0.7818608E-02  0.9648705E-01
          2   -1    0    0  501    0  0.00000000000E+00  0.00000000000E+00  0.10558353433E+04  0.10558353433E+04  0.25500000000E-02 0. -1.
         -2   -1    0    0    0  501 -0.00000000000E+00 -0.00000000000E+00 -0.12197256507E+04  0.12197256507E+04  0.25500000000E-02 0.  1.
    8880022    1    1    2    0    0  0.72076567342E+03  0.83655836620E+02 -0.94321404052E+03  0.11998107493E+04  0.15294330000E+03 0.  0.
    8880022    1    1    2    0    0 -0.72076567342E+03 -0.83655836620E+02  0.77932373311E+03  0.10757502447E+04  0.15294330000E+03 0.  0.
<mgrwt>
<rscale>  0 0.74154778E+03</rscale>
<asrwt>0</asrwt>
<pdfrwt beam="1">  1        2 0.16243621E+00 0.74154778E+03</pdfrwt>
<pdfrwt beam="2">  1       -2 0.18765010E+00 0.74154778E+03</pdfrwt>
<totfact> 0.38223028E+00</totfact>
</mgrwt>
</event>
<event>
 4    1  0.1104584E-007  0.7977625E+03  0.7818608E-02  0.9563261E-01
         -2   -1    0    0    0  501 -0.00000000000E+00  0.00000000000E+00  0.14430752309E+04  0.14430752309E+04  0.25500000000E-02 0.  1.
          2   -1    0    0  501    0  0.00000000000E+00 -0.00000000000E+00 -0.10722098324E+04  0.10722098324E+04  0.25500000000E-02 0. -1.
    8880022    1    1    2    0    0 -0.61410773012E+03 -0.48570062992E+03 -0.77950064832E+03  0.11153682441E+04  0.15294330000E+03 0.  0.
    8880022    1    1    2    0    0  0.61410773012E+03  0.48570062992E+03  0.11503660468E+04  0.13999168192E+04  0.15294330000E+03 0.  0.
<mgrwt>
<rscale>  0 0.79776253E+03</rscale>
<asrwt>0</asrwt>
<pdfrwt beam="1">  1        2 0.16495536E+00 0.79776253E+03</pdfrwt>
<pdfrwt beam="2">  1       -2 0.22201157E+00 0.79776253E+03</pdfrwt>
<totfact> 0.22222781E+00</totfact>
</mgrwt>
</event>
<event>
 4    1  0.1104584E-007  0.4610298E+03  0.7818608E-02  0.1024483E+00
          2   -1    0    0  501    0  0.00000000000E+00  0.00000000000E+00  0.12295702428E+04  0.12295702428E+04  0.25500000000E-02 0. -1.
         -2   -1    0    0    0  501 -0.00000000000E+00 -0.00000000000E+00 -0.41289860306E+03  0.41289860307E+03  0.25500000000E-02 0.  1.
    8880022    1    1    2    0    0 -0.22392202335E+03  0.37284820027E+03 -0.21781983835E+03  0.50989605605E+03  0.15294330000E+03 0.  0.
    8880022    1    1    2    0    0  0.22392202335E+03 -0.37284820027E+03  0.10344914781E+04  0.11325727898E+04  0.15294330000E+03 0. -1.
<mgrwt>
<rscale>  0 0.46102983E+03</rscale>
<asrwt>0</asrwt>
<pdfrwt beam="1">  1        2 0.18916465E+00 0.46102983E+03</pdfrwt>
<pdfrwt beam="2">  1       -2 0.63522863E-01 0.46102983E+03</pdfrwt>
<totfact> 0.44043730E+01</totfact>
</mgrwt>
</event>
<event>
 4    1  0.1104584E-007  0.6058277E+03  0.7818608E-02  0.9893389E-01
          2   -1    0    0  501    0  0.00000000000E+00  0.00000000000E+00  0.51413889322E+04  0.51413889322E+04  0.25500000000E-02 0. -1.
         -2   -1    0    0    0  501 -0.00000000000E+00 -0.00000000000E+00 -0.87580493434E+02  0.87580493471E+02  0.25500000000E-02 0.  1.
    8880022    1    1    2    0    0 -0.35993970694E+03  0.46268662126E+03  0.36511357373E+04  0.37010565150E+04  0.15294330000E+03 0.  0.
    8880022    1    1    2    0    0  0.35993970694E+03 -0.46268662126E+03  0.14026727016E+04  0.15279129107E+04  0.15294330000E+03 0.  0.
<mgrwt>
<rscale>  0 0.60582766E+03</rscale>
<asrwt>0</asrwt>
<pdfrwt beam="1">  1        2 0.79098257E+00 0.60582766E+03</pdfrwt>
<pdfrwt beam="2">  1       -2 0.13473928E-01 0.60582766E+03</pdfrwt>
<totfact> 0.11612324E+00</totfact>
</mgrwt>
</event>
<event>
 4    1  0.1104584E-007  0.3973027E+03  0.7818608E-02  0.1044718E+00
          2   -1    0    0  501    0  0.00000000000E+00  0.00000000000E+00  0.13620862038E+04  0.13620862038E+04  0.25500000000E-02 0. -1.
         -2   -1    0    0    0  501 -0.00000000000E+00 -0.00000000000E+00 -0.51352980029E+03  0.51352980030E+03  0.25500000000E-02 0.  1.
    8880022    1    1    2    0    0 -0.16847997008E+03  0.32568736316E+03  0.12495122498E+04  0.13111560831E+04  0.15294330000E+03 0.  0.
    8880022    1    1    2    0    0  0.16847997008E+03 -0.32568736316E+03 -0.40095584623E+03  0.56445992106E+03  0.15294330000E+03 0.  1.
<mgrwt>
<rscale>  0 0.39730267E+03</rscale>
<asrwt>0</asrwt>
<pdfrwt beam="1">  1        2 0.20955172E+00 0.39730267E+03</pdfrwt>
<pdfrwt beam="2">  1       -2 0.79004586E-01 0.39730267E+03</pdfrwt>
<totfact> 0.23359609E+01</totfact>
</mgrwt>
</event>
<event>
 4    1  0.1104584E-007  0.9913398E+03  0.7818608E-02  0.9318094E-01
          2   -1    0    0  501    0  0.00000000000E+00  0.00000000000E+00  0.86410660281E+03  0.86410660281E+03  0.25500000000E-02 0. -1.
         -2   -1    0    0    0  501 -0.00000000000E+00 -0.00000000000E+00 -0.15405487676E+04  0.15405487676E+04  0.25500000000E-02 0.  1.
    8880022    1    1    2    0    0  0.96849827519E+03 -0.14619854765E+03 -0.95335237570E+03  0.13753673435E+04  0.15294330000E+03 0.  0.
    8880022    1    1    2    0    0 -0.96849827519E+03  0.14619854765E+03  0.27691021091E+03  0.10292880269E+04  0.15294330000E+03 0.  0.
<mgrwt>
<rscale>  0 0.99133979E+03</rscale>
<asrwt>0</asrwt>
<pdfrwt beam="1">  1        2 0.13293948E+00 0.99133979E+03</pdfrwt>
<pdfrwt beam="2">  1       -2 0.23700750E+00 0.99133979E+03</pdfrwt>
<totfact> 0.23910266E+00</totfact>
</mgrwt>
</event>
<event>
 4    1  0.1104584E-007  0.2770127E+03  0.7818608E-02  0.1097332E+00
          2   -1    0    0  501    0  0.00000000000E+00  0.00000000000E+00  0.42251104770E+03  0.42251104770E+03  0.25500000000E-02 0. -1.
         -2   -1    0    0    0  501 -0.00000000000E+00 -0.00000000000E+00 -0.35762789757E+03  0.35762789758E+03  0.25500000000E-02 0.  1.
    8880022    1    1    2    0    0  0.23096212408E+03 -0.93238120091E+00  0.30609041138E+03  0.41282849350E+03  0.15294330000E+03 0.  0.
    8880022    1    1    2    0    0 -0.23096212408E+03  0.93238120091E+00 -0.24120726125E+03  0.36731045178E+03  0.15294330000E+03 0.  1.
<mgrwt>
<rscale>  0 0.27701268E+03</rscale>
<asrwt>0</asrwt>
<pdfrwt beam="1">  1        2 0.65001700E-01 0.27701268E+03</pdfrwt>
<pdfrwt beam="2">  1       -2 0.55019676E-01 0.27701268E+03</pdfrwt>
<totfact> 0.23953361E+02</totfact>
</mgrwt>
</event>
<event>
 4    1  0.1104584E-007  0.6279565E+03  0.7818608E-02  0.9849045E-01
          2   -1    0    0  501    0  0.00000000000E+00  0.00000000000E+00  0.23552007156E+04  0.23552007156E+04  0.25500000000E-02 0. -1.
         -2   -1    0    0    0  501 -0.00000000000E+00 -0.00000000000E+00 -0.19973314606E+03  0.19973314607E+03  0.25500000000E-02 0.  1.
    8880022    1    1    2    0    0 -0.50885219968E+03  0.33467468297E+03  0.56398308822E+03  0.84404163484E+03  0.15294330000E+03 0.  0.
    8880022    1    1    2    0    0  0.50885219968E+03 -0.33467468297E+03  0.15914844813E+04  0.17108922269E+04  0.15294330000E+03 0.  0.
<mgrwt>
<rscale>  0 0.62795649E+03</rscale>
<asrwt>0</asrwt>
<pdfrwt beam="1">  1        2 0.36233857E+00 0.62795649E+03</pdfrwt>
<pdfrwt beam="2">  1       -2 0.30728177E-01 0.62795649E+03</pdfrwt>
<totfact> 0.43678444E+01</totfact>
</mgrwt>
</event>
<event>
 4    1  0.1104584E-007  0.4019291E+03  0.7818608E-02  0.1043114E+00
         -2   -1    0    0    0  501 -0.00000000000E+00  0.00000000000E+00  0.43607164986E+03  0.43607164987E+03  0.25500000000E-02 0.  1.
          2   -1    0    0  501    0  0.00000000000E+00 -0.00000000000E+00 -0.54729641775E+03  0.54729641775E+03  0.25500000000E-02 0. -1.
    8880022    1    1    2    0    0 -0.37076626069E+03  0.26224096431E+02 -0.33509899997E+03  0.52329562973E+03  0.15294330000E+03 0.  0.
    8880022    1    1    2    0    0  0.37076626069E+03 -0.26224096431E+02  0.22387423208E+03  0.46007243789E+03  0.15294330000E+03 0.  0.
<mgrwt>
<rscale>  0 0.40192907E+03</rscale>
<asrwt>0</asrwt>
<pdfrwt beam="1">  1        2 0.84199449E-01 0.40192907E+03</pdfrwt>
<pdfrwt beam="2">  1       -2 0.67087946E-01 0.40192907E+03</pdfrwt>
<totfact> 0.11693082E+02</totfact>
</mgrwt>
</event>
<event>
 4    1  0.1104584E-007  0.4676058E+03  0.7818608E-02  0.1022598E+00
         -2   -1    0    0    0  501 -0.00000000000E+00  0.00000000000E+00  0.36212720025E+03  0.36212720026E+03  0.25500000000E-02 0.  1.
          2   -1    0    0  501    0  0.00000000000E+00 -0.00000000000E+00 -0.40318498210E+04  0.40318498211E+04  0.25500000000E-02 0. -1.
    8880022    1    1    2    0    0 -0.42145224183E+03  0.13282155207E+03  0.19094856474E+03  0.50509064952E+03  0.15294330000E+03 0.  0.
    8880022    1    1    2    0    0  0.42145224183E+03 -0.13282155207E+03 -0.38606711855E+04  0.38888863718E+04  0.15294330000E+03 0.  0.
<mgrwt>
<rscale>  0 0.46760583E+03</rscale>
<asrwt>0</asrwt>
<pdfrwt beam="1">  1        2 0.62028456E+00 0.46760583E+03</pdfrwt>
<pdfrwt beam="2">  1       -2 0.55711880E-01 0.46760583E+03</pdfrwt>
<totfact> 0.11892716E+00</totfact>
</mgrwt>
</event>
<event>
 4    1  0.1104584E-007  0.4445990E+03  0.7818608E-02  0.1029345E+00
          2   -1    0    0  501    0  0.00000000000E+00  0.00000000000E+00  0.16661537417E+04  0.16661537417E+04  0.25500000000E-02 0. -1.
         -2   -1    0    0    0  501 -0.00000000000E+00 -0.00000000000E+00 -0.55085151697E+03  0.55085151697E+03  0.25500000000E-02 0.  1.
    8880022    1    1    2    0    0  0.32279363804E+03 -0.26472796771E+03 -0.42425256365E+03  0.61453927492E+03  0.15294330000E+03 0.  0.
    8880022    1    1    2    0    0 -0.32279363804E+03  0.26472796771E+03  0.15395547884E+04  0.16024659838E+04  0.15294330000E+03 0.  0.
<mgrwt>
<rscale>  0 0.44459901E+03</rscale>
<asrwt>0</asrwt>
<pdfrwt beam="1">  1        2 0.25633134E+00 0.44459901E+03</pdfrwt>
<pdfrwt beam="2">  1       -2 0.84746388E-01 0.44459901E+03</pdfrwt>
<totfact> 0.13478319E+01</totfact>
</mgrwt>
</event>
<event>
 4    1  0.1104584E-007  0.1047876E+04  0.7818608E-02  0.9257539E-01
         -2   -1    0    0    0  501 -0.00000000000E+00  0.00000000000E+00  0.52435640262E+03  0.52435640262E+03  0.25500000000E-02 0.  1.
          2   -1    0    0  501    0  0.00000000000E+00 -0.00000000000E+00 -0.24436309923E+04  0.24436309923E+04  0.25500000000E-02 0. -1.
    8880022    1    1    2    0    0 -0.82961785243E+03 -0.62160060911E+03 -0.39837104678E+03  0.11210460482E+04  0.15294330000E+03 0.  0.
    8880022    1    1    2    0    0  0.82961785243E+03  0.62160060911E+03 -0.15209035429E+04  0.18469413467E+04  0.15294330000E+03 0.  0.
<mgrwt>
<rscale>  0 0.10478763E+04</rscale>
<asrwt>0</asrwt>
<pdfrwt beam="1">  1        2 0.37594322E+00 0.10478763E+04</pdfrwt>
<pdfrwt beam="2">  1       -2 0.80670217E-01 0.10478763E+04</pdfrwt>
<totfact> 0.51054068E+00</totfact>
</mgrwt>
</event>
<event>
 4    1  0.1104584E-007  0.4033537E+03  0.7818608E-02  0.1042625E+00
         -2   -1    0    0    0  501 -0.00000000000E+00  0.00000000000E+00  0.44714346016E+03  0.44714346017E+03  0.25500000000E-02 0.  1.
          2   -1    0    0  501    0  0.00000000000E+00 -0.00000000000E+00 -0.93672756855E+03  0.93672756855E+03  0.25500000000E-02 0. -1.
    8880022    1    1    2    0    0 -0.18493013854E+03 -0.32419649866E+03 -0.78590634730E+03  0.88337023135E+03  0.15294330000E+03 0.  0.
    8880022    1    1    2    0    0  0.18493013854E+03  0.32419649866E+03  0.29632223891E+03  0.50050079738E+03  0.15294330000E+03 0.  0.
<mgrwt>
<rscale>  0 0.40335366E+03</rscale>
<asrwt>0</asrwt>
<pdfrwt beam="1">  1        2 0.14411193E+00 0.40335366E+03</pdfrwt>
<pdfrwt beam="2">  1       -2 0.68791302E-01 0.40335366E+03</pdfrwt>
<totfact> 0.56409914E+01</totfact>
</mgrwt>
</event>
<event>
 4    1  0.1104584E-007  0.1130775E+04  0.7818608E-02  0.9175705E-01
          2   -1    0    0  501    0  0.00000000000E+00  0.00000000000E+00  0.22315588010E+04  0.22315588010E+04  0.25500000000E-02 0. -1.
         -2   -1    0    0    0  501 -0.00000000000E+00 -0.00000000000E+00 -0.12518761522E+04  0.12518761522E+04  0.25500000000E-02 0.  1.
    8880022    1    1    2    0    0  0.45144882053E+03 -0.10254042910E+04 -0.79277518002E+03  0.13809938945E+04  0.15294330000E+03 0.  0.
    8880022    1    1    2    0    0 -0.45144882053E+03  0.10254042910E+04  0.17724578287E+04  0.21024410587E+04  0.15294330000E+03 0.  0.
<mgrwt>
<rscale>  0 0.11307748E+04</rscale>
<asrwt>0</asrwt>
<pdfrwt beam="1">  1        2 0.34331674E+00 0.11307748E+04</pdfrwt>
<pdfrwt beam="2">  1       -2 0.19259633E+00 0.11307748E+04</pdfrwt>
<totfact> 0.72504222E-01</totfact>
</mgrwt>
</event>
<event>
 4    1  0.1104584E-007  0.1929900E+03  0.7818608E-02  0.1155792E+00
          2   -1    0    0  501    0  0.00000000000E+00  0.00000000000E+00  0.47100054239E+03  0.47100054239E+03  0.25500000000E-02 0. -1.
         -2   -1    0    0    0  501 -0.00000000000E+00 -0.00000000000E+00 -0.28009996829E+03  0.28009996831E+03  0.25500000000E-02 0.  1.
    8880022    1    1    2    0    0  0.94786464323E+02  0.69778287582E+02 -0.22270179578E+03  0.29468835419E+03  0.15294330000E+03 0.  1.
    8880022    1    1    2    0    0 -0.94786464323E+02 -0.69778287582E+02  0.41360236987E+03  0.45641215651E+03  0.15294330000E+03 0. -1.
<mgrwt>
<rscale>  0 0.19298999E+03</rscale>
<asrwt>0</asrwt>
<pdfrwt beam="1">  1        2 0.72461622E-01 0.19298999E+03</pdfrwt>
<pdfrwt beam="2">  1       -2 0.43092303E-01 0.19298999E+03</pdfrwt>
<totfact> 0.34726630E+02</totfact>
</mgrwt>
</event>
<event>
 4    1  0.1104584E-007  0.4224431E+03  0.7818608E-02  0.1036274E+00
          2   -1    0    0  501    0  0.00000000000E+00  0.00000000000E+00  0.18085545508E+04  0.18085545508E+04  0.25500000000E-02 0. -1.
         -2   -1    0    0    0  501 -0.00000000000E+00 -0.00000000000E+00 -0.19882818275E+03  0.19882818277E+03  0.25500000000E-02 0.  1.
    8880022    1    1    2    0    0 -0.38322997433E+03  0.90561207404E+02  0.15172152689E+04  0.15749286875E+04  0.15294330000E+03 0.  0.
    8880022    1    1    2    0    0  0.38322997433E+03 -0.90561207404E+02  0.92511099188E+02  0.43245404611E+03  0.15294330000E+03 0.  0.
<mgrwt>
<rscale>  0 0.42244313E+03</rscale>
<asrwt>0</asrwt>
<pdfrwt beam="1">  1        2 0.27823917E+00 0.42244313E+03</pdfrwt>
<pdfrwt beam="2">  1       -2 0.30588950E-01 0.42244313E+03</pdfrwt>
<totfact> 0.90275676E+01</totfact>
</mgrwt>
</event>
<event>
 4    1  0.1104584E-007  0.3438253E+03  0.7818608E-02  0.1065178E+00
         -2   -1    0    0    0  501 -0.00000000000E+00  0.00000000000E+00  0.21876014228E+03  0.21876014229E+03  0.25500000000E-02 0.  1.
          2   -1    0    0  501    0  0.00000000000E+00 -0.00000000000E+00 -0.83545685222E+03  0.83545685222E+03  0.25500000000E-02 0. -1.
    8880022    1    1    2    0    0  0.25454932281E+03 -0.17328836730E+03 -0.62160331898E+03  0.71035663941E+03  0.15294330000E+03 0.  0.
    8880022    1    1    2    0    0 -0.25454932281E+03  0.17328836730E+03  0.49066090316E+01  0.34386035510E+03  0.15294330000E+03 0.  0.
<mgrwt>
<rscale>  0 0.34382535E+03</rscale>
<asrwt>0</asrwt>
<pdfrwt beam="1">  1        2 0.12853182E+00 0.34382535E+03</pdfrwt>
<pdfrwt beam="2">  1       -2 0.33655407E-01 0.34382535E+03</pdfrwt>
<totfact> 0.27753861E+02</totfact>
</mgrwt>
</event>
<event>
 4    1  0.1104584E-007  0.3282494E+03  0.7818608E-02  0.1071914E+00
          2   -1    0    0  501    0  0.00000000000E+00  0.00000000000E+00  0.10013976800E+04  0.10013976800E+04  0.25500000000E-02 0. -1.
         -2   -1    0    0    0  501 -0.00000000000E+00 -0.00000000000E+00 -0.15498521514E+03  0.15498521516E+03  0.25500000000E-02 0.  1.
    8880022    1    1    2    0    0 -0.21849208652E+03  0.19135619695E+03  0.10349304739E+03  0.34417793343E+03  0.15294330000E+03 0.  1.
    8880022    1    1    2    0    0  0.21849208652E+03 -0.19135619695E+03  0.74291941744E+03  0.81220496170E+03  0.15294330000E+03 0. -1.
<mgrwt>
<rscale>  0 0.32824935E+03</rscale>
<asrwt>0</asrwt>
<pdfrwt beam="1">  1        2 0.15406119E+00 0.32824935E+03</pdfrwt>
<pdfrwt beam="2">  1       -2 0.23843878E-01 0.32824935E+03</pdfrwt>
<totfact> 0.40546604E+02</totfact>
</mgrwt>
</event>
<event>
 4    1  0.1104584E-007  0.5437632E+03  0.7818608E-02  0.1002948E+00
          2   -1    0    0  501    0  0.00000000000E+00  0.00000000000E+00  0.13983294143E+04  0.13983294144E+04  0.25500000000E-02 0. -1.
         -2   -1    0    0    0  501 -0.00000000000E+00 -0.00000000000E+00 -0.40031589220E+03  0.40031589221E+03  0.25500000000E-02 0.  1.
    8880022    1    1    2    0    0  0.90016575558E+02  0.51398809269E+03  0.11167237344E+04  0.12420749958E+04  0.15294330000E+03 0.  0.
    8880022    1    1    2    0    0 -0.90016575558E+02 -0.51398809269E+03 -0.11871021222E+03  0.55657031075E+03  0.15294330000E+03 0.  1.
<mgrwt>
<rscale>  0 0.54376318E+03</rscale>
<asrwt>0</asrwt>
<pdfrwt beam="1">  1        2 0.21512761E+00 0.54376318E+03</pdfrwt>
<pdfrwt beam="2">  1       -2 0.61587058E-01 0.54376318E+03</pdfrwt>
<totfact> 0.37245006E+01</totfact>
</mgrwt>
</event>
<event>
 4    1  0.1104584E-007  0.1684080E+03  0.7818608E-02  0.1179518E+00
          2   -1    0    0  501    0  0.00000000000E+00  0.00000000000E+00  0.98885491932E+03  0.98885491932E+03  0.25500000000E-02 0. -1.
         -2   -1    0    0    0  501 -0.00000000000E+00 -0.00000000000E+00 -0.14231154793E+04  0.14231154793E+04  0.25500000000E-02 0.  1.
    8880022    1    1    2    0    0 -0.70147329144E+02 -0.69968669774E+01  0.97664059041E+03  0.99105403475E+03  0.15294330000E+03 0. -1.
    8880022    1    1    2    0    0  0.70147329144E+02  0.69968669774E+01 -0.14109011504E+04  0.14209163639E+04  0.15294330000E+03 0.  0.
<mgrwt>
<rscale>  0 0.16840801E+03</rscale>
<asrwt>0</asrwt>
<pdfrwt beam="1">  1        2 0.15213153E+00 0.16840801E+03</pdfrwt>
<pdfrwt beam="2">  1       -2 0.21894084E+00 0.16840801E+03</pdfrwt>
<totfact> 0.31618659E+00</totfact>
</mgrwt>
</event>
<event>
 4    1  0.1104584E-007  0.6851010E+03  0.7818608E-02  0.9743056E-01
          2   -1    0    0  501    0  0.00000000000E+00  0.00000000000E+00  0.23568354665E+04  0.23568354665E+04  0.25500000000E-02 0. -1.
         -2   -1    0    0    0  501 -0.00000000000E+00 -0.00000000000E+00 -0.32854470153E+03  0.32854470154E+03  0.25500000000E-02 0.  1.
    8880022    1    1    2    0    0  0.63130553351E+03 -0.21777305865E+03  0.17151513946E+03  0.70624420549E+03  0.15294330000E+03 0.  0.
    8880022    1    1    2    0    0 -0.63130553351E+03  0.21777305865E+03  0.18567756255E+04  0.19791359626E+04  0.15294330000E+03 0.  0.
<mgrwt>
<rscale>  0 0.68510104E+03</rscale>
<asrwt>0</asrwt>
<pdfrwt beam="1">  1        2 0.36259008E+00 0.68510104E+03</pdfrwt>
<pdfrwt beam="2">  1       -2 0.50545337E-01 0.68510104E+03</pdfrwt>
<totfact> 0.16416742E+01</totfact>
</mgrwt>
</event>
<event>
 4    1  0.1104584E-007  0.5435485E+03  0.7818608E-02  0.1002998E+00
         -2   -1    0    0    0  501 -0.00000000000E+00  0.00000000000E+00  0.37276350050E+03  0.37276350051E+03  0.25500000000E-02 0.  1.
          2   -1    0    0  501    0  0.00000000000E+00 -0.00000000000E+00 -0.83108489098E+03  0.83108489098E+03  0.25500000000E-02 0. -1.
    8880022    1    1    2    0    0 -0.50077325103E+03 -0.14587500611E+03 -0.35872195994E+03  0.65124992431E+03  0.15294330000E+03 0.  0.
    8880022    1    1    2    0    0  0.50077325103E+03  0.14587500611E+03 -0.99599430541E+02  0.55259846718E+03  0.15294330000E+03 0.  0.
<mgrwt>
<rscale>  0 0.54354854E+03</rscale>
<asrwt>0</asrwt>
<pdfrwt beam="1">  1        2 0.12785921E+00 0.54354854E+03</pdfrwt>
<pdfrwt beam="2">  1       -2 0.57348231E-01 0.54354854E+03</pdfrwt>
<totfact> 0.95967368E+01</totfact>
</mgrwt>
</event>
<event>
 4    1  0.1104584E-007  0.2729355E+03  0.7818608E-02  0.1099611E+00
          2   -1    0    0  501    0  0.00000000000E+00  0.00000000000E+00  0.10331993551E+04  0.10331993551E+04  0.25500000000E-02 0. -1.
         -2   -1    0    0    0  501 -0.00000000000E+00 -0.00000000000E+00 -0.21438906066E+03  0.21438906068E+03  0.25500000000E-02 0.  1.
    8880022    1    1    2    0    0 -0.22564458815E+03 -0.13662299797E+02 -0.98784260680E+02  0.29026216042E+03  0.15294330000E+03 0.  0.
    8880022    1    1    2    0    0  0.22564458815E+03  0.13662299797E+02  0.91759455510E+03  0.95732625534E+03  0.15294330000E+03 0. -1.
<mgrwt>
<rscale>  0 0.27293551E+03</rscale>
<asrwt>0</asrwt>
<pdfrwt beam="1">  1        2 0.15895374E+00 0.27293551E+03</pdfrwt>
<pdfrwt beam="2">  1       -2 0.32982933E-01 0.27293551E+03</pdfrwt>
<totfact> 0.21705186E+02</totfact>
</mgrwt>
</event>
<event>
 4    1  0.2529148E-007  0.9215658E+03  0.7818608E-02  0.9399018E-01
          2   -1    0    0  501    0  0.00000000000E+00  0.00000000000E+00  0.15359207989E+04  0.15359207989E+04  0.25500000000E-02 0. -1.
         -2   -1    0    0    0  501 -0.00000000000E+00 -0.00000000000E+00 -0.19792076143E+04  0.19792076143E+04  0.25500000000E-02 0.  1.
    8880022    1    1    2    0    0 -0.34350611598E+03 -0.84136518876E+03 -0.17136299282E+04  0.19457160678E+04  0.15294330000E+03 0.  0.
    8880022    1    1    2    0    0  0.34350611598E+03  0.84136518876E+03  0.12703431128E+04  0.15694123454E+04  0.15294330000E+03 0.  0.
<mgrwt>
<rscale>  0 0.92156578E+03</rscale>
<asrwt>0</asrwt>
<pdfrwt beam="1">  1        2 0.23629551E+00 0.92156578E+03</pdfrwt>
<pdfrwt beam="2">  1       -2 0.30449348E+00 0.92156578E+03</pdfrwt>
<totfact> 0.36871450E-01</totfact>
</mgrwt>
</event>
<event>
 4    1  0.1104584E-007  0.3481117E+03  0.7818608E-02  0.1063393E+00
          2   -1    0    0  501    0  0.00000000000E+00  0.00000000000E+00  0.16452499746E+03  0.16452499748E+03  0.25500000000E-02 0. -1.
         -2   -1    0    0    0  501 -0.00000000000E+00 -0.00000000000E+00 -0.17095908998E+04  0.17095908998E+04  0.25500000000E-02 0.  1.
    8880022    1    1    2    0    0  0.20877999251E+03  0.23281108347E+03 -0.65589391672E+02  0.35423679534E+03  0.15294330000E+03 0. -1.
    8880022    1    1    2    0    0 -0.20877999251E+03 -0.23281108347E+03 -0.14794765107E+04  0.15198791019E+04  0.15294330000E+03 0.  0.
<mgrwt>
<rscale>  0 0.34811168E+03</rscale>
<asrwt>0</asrwt>
<pdfrwt beam="1">  1        2 0.25311539E-01 0.34811168E+03</pdfrwt>
<pdfrwt beam="2">  1       -2 0.26301397E+00 0.34811168E+03</pdfrwt>
<totfact> 0.12585505E+01</totfact>
</mgrwt>
</event>
<event>
 4    1  0.1104584E-007  0.1222726E+04  0.7818608E-02  0.9093194E-01
          2   -1    0    0  501    0  0.00000000000E+00  0.00000000000E+00  0.22865581106E+04  0.22865581106E+04  0.25500000000E-02 0. -1.
         -2   -1    0    0    0  501 -0.00000000000E+00 -0.00000000000E+00 -0.70850977763E+03  0.70850977763E+03  0.25500000000E-02 0.  1.
    8880022    1    1    2    0    0 -0.11572140925E+04 -0.36403641075E+03  0.37306514902E+03  0.12783724898E+04  0.15294330000E+03 0.  0.
    8880022    1    1    2    0    0  0.11572140925E+04  0.36403641075E+03  0.12049831839E+04  0.17166953984E+04  0.15294330000E+03 0.  0.
<mgrwt>
<rscale>  0 0.12227259E+04</rscale>
<asrwt>0</asrwt>
<pdfrwt beam="1">  1        2 0.35177817E+00 0.12227259E+04</pdfrwt>
<pdfrwt beam="2">  1       -2 0.10900150E+00 0.12227259E+04</pdfrwt>
<totfact> 0.30292225E+00</totfact>
</mgrwt>
</event>
<event>
 4    1  0.1104584E-007  0.9804849E+03  0.7818608E-02  0.9330211E-01
          2   -1    0    0  501    0  0.00000000000E+00  0.00000000000E+00  0.21970944685E+04  0.21970944685E+04  0.25500000000E-02 0. -1.
         -2   -1    0    0    0  501 -0.00000000000E+00 -0.00000000000E+00 -0.10967166217E+04  0.10967166217E+04  0.25500000000E-02 0.  1.
    8880022    1    1    2    0    0 -0.54140099713E+03 -0.80302178955E+03  0.18269724871E+04  0.20734462028E+04  0.15294330000E+03 0.  0.
    8880022    1    1    2    0    0  0.54140099713E+03  0.80302178955E+03 -0.72659464024E+03  0.12203648874E+04  0.15294330000E+03 0.  0.
<mgrwt>
<rscale>  0 0.98048492E+03</rscale>
<asrwt>0</asrwt>
<pdfrwt beam="1">  1        2 0.33801453E+00 0.98048492E+03</pdfrwt>
<pdfrwt beam="2">  1       -2 0.16872564E+00 0.98048492E+03</pdfrwt>
<totfact> 0.11319570E+00</totfact>
</mgrwt>
</event>
<event>
 4    1  0.1104584E-007  0.3514272E+03  0.7818608E-02  0.1062031E+00
          2   -1    0    0  501    0  0.00000000000E+00  0.00000000000E+00  0.14672798059E+04  0.14672798059E+04  0.25500000000E-02 0. -1.
         -2   -1    0    0    0  501 -0.00000000000E+00 -0.00000000000E+00 -0.13312793103E+03  0.13312793105E+03  0.25500000000E-02 0.  1.
    8880022    1    1    2    0    0  0.99194976985E+01 -0.31624521341E+03  0.11523389059E+04  0.12047348415E+04  0.15294330000E+03 0.  0.
    8880022    1    1    2    0    0 -0.99194976985E+01  0.31624521341E+03  0.18181296898E+03  0.39567289538E+03  0.15294330000E+03 0.  1.
<mgrwt>
<rscale>  0 0.35142721E+03</rscale>
<asrwt>0</asrwt>
<pdfrwt beam="1">  1        2 0.22573533E+00 0.35142721E+03</pdfrwt>
<pdfrwt beam="2">  1       -2 0.20481223E-01 0.35142721E+03</pdfrwt>
<totfact> 0.28513401E+02</totfact>
</mgrwt>
</event>
<event>
 4    1  0.1104584E-007  0.7421610E+03  0.7818608E-02  0.9647729E-01
          2   -1    0    0  501    0  0.00000000000E+00  0.00000000000E+00  0.20062366264E+04  0.20062366264E+04  0.25500000000E-02 0. -1.
         -2   -1    0    0    0  501 -0.00000000000E+00 -0.00000000000E+00 -0.57691965999E+03  0.57691965999E+03  0.25500000000E-02 0.  1.
    8880022    1    1    2    0    0 -0.62805302679E+03  0.36463778455E+03 -0.22039284264E+03  0.77419375900E+03  0.15294330000E+03 0.  0.
    8880022    1    1    2    0    0  0.62805302679E+03 -0.36463778455E+03  0.16497098090E+04  0.18089625274E+04  0.15294330000E+03 0.  0.
<mgrwt>
<rscale>  0 0.74216101E+03</rscale>
<asrwt>0</asrwt>
<pdfrwt beam="1">  1        2 0.30865179E+00 0.74216101E+03</pdfrwt>
<pdfrwt beam="2">  1       -2 0.88756872E-01 0.74216101E+03</pdfrwt>
<totfact> 0.75014731E+00</totfact>
</mgrwt>
</event>
<event>
 4    1  0.1104584E-007  0.8442416E+03  0.7818608E-02  0.9498098E-01
          2   -1    0    0  501    0  0.00000000000E+00  0.00000000000E+00  0.18666434516E+04  0.18666434516E+04  0.25500000000E-02 0. -1.
         -2   -1    0    0    0  501 -0.00000000000E+00 -0.00000000000E+00 -0.65557541010E+03  0.65557541010E+03  0.25500000000E-02 0.  1.
    8880022    1    1    2    0    0  0.54145938729E+03 -0.62942353935E+03 -0.20938303106E+03  0.86981904250E+03  0.15294330000E+03 0.  0.
    8880022    1    1    2    0    0 -0.54145938729E+03  0.62942353935E+03  0.14204510726E+04  0.16523998193E+04  0.15294330000E+03 0.  0.
<mgrwt>
<rscale>  0 0.84424162E+03</rscale>
<asrwt>0</asrwt>
<pdfrwt beam="1">  1        2 0.28717592E+00 0.84424162E+03</pdfrwt>
<pdfrwt beam="2">  1       -2 0.10085776E+00 0.84424162E+03</pdfrwt>
<totfact> 0.65325661E+00</totfact>
</mgrwt>
</event>
<event>
 4    1  0.1104584E-007  0.1967177E+03  0.7818608E-02  0.1152538E+00
          2   -1    0    0  501    0  0.00000000000E+00  0.00000000000E+00  0.74197586885E+03  0.74197586885E+03  0.25500000000E-02 0. -1.
         -2   -1    0    0    0  501 -0.00000000000E+00 -0.00000000000E+00 -0.38652353253E+03  0.38652353254E+03  0.25500000000E-02 0.  1.
    8880022    1    1    2    0    0  0.64253712332E+02 -0.10572444030E+03  0.70252877162E+03  0.72955090624E+03  0.15294330000E+03 0.  0.
    8880022    1    1    2    0    0 -0.64253712332E+02  0.10572444030E+03 -0.34707643531E+03  0.39894849515E+03  0.15294330000E+03 0.  1.
<mgrwt>
<rscale>  0 0.19671769E+03</rscale>
<asrwt>0</asrwt>
<pdfrwt beam="1">  1        2 0.11415013E+00 0.19671769E+03</pdfrwt>
<pdfrwt beam="2">  1       -2 0.59465160E-01 0.19671769E+03</pdfrwt>
<totfact> 0.10794053E+02</totfact>
</mgrwt>
</event>
<event>
 4    1  0.1104584E-007  0.4850694E+03  0.7818608E-02  0.1017751E+00
         -2   -1    0    0    0  501 -0.00000000000E+00  0.00000000000E+00  0.10150052300E+04  0.10150052300E+04  0.25500000000E-02 0.  1.
          2   -1    0    0  501    0  0.00000000000E+00 -0.00000000000E+00 -0.48717479571E+03  0.48717479572E+03  0.25500000000E-02 0. -1.
    8880022    1    1    2    0    0  0.33943966749E+03  0.31093629033E+03 -0.27986922827E+03  0.56001705551E+03  0.15294330000E+03 0.  0.
    8880022    1    1    2    0    0 -0.33943966749E+03 -0.31093629033E+03  0.80769966254E+03  0.94216297019E+03  0.15294330000E+03 0.  0.
<mgrwt>
<rscale>  0 0.48506939E+03</rscale>
<asrwt>0</asrwt>
<pdfrwt beam="1">  1        2 0.74949969E-01 0.48506939E+03</pdfrwt>
<pdfrwt beam="2">  1       -2 0.15615465E+00 0.48506939E+03</pdfrwt>
<totfact> 0.17833900E+01</totfact>
</mgrwt>
</event>
<event>
 4    1  0.1104584E-007  0.5666325E+03  0.7818608E-02  0.9977158E-01
         -2   -1    0    0    0  501 -0.00000000000E+00  0.00000000000E+00  0.16204089589E+04  0.16204089589E+04  0.25500000000E-02 0.  1.
          2   -1    0    0  501    0  0.00000000000E+00 -0.00000000000E+00 -0.90785044565E+03  0.90785044566E+03  0.25500000000E-02 0. -1.
    8880022    1    1    2    0    0 -0.37808958093E+03  0.39335608561E+03 -0.76141808299E+03  0.94912058845E+03  0.15294330000E+03 0.  0.
    8880022    1    1    2    0    0  0.37808958093E+03 -0.39335608561E+03  0.14739765963E+04  0.15791388161E+04  0.15294330000E+03 0.  0.
<mgrwt>
<rscale>  0 0.56663250E+03</rscale>
<asrwt>0</asrwt>
<pdfrwt beam="1">  1        2 0.13966930E+00 0.56663250E+03</pdfrwt>
<pdfrwt beam="2">  1       -2 0.24929368E+00 0.56663250E+03</pdfrwt>
<totfact> 0.20104899E+00</totfact>
</mgrwt>
</event>
<event>
 4    1  0.1104584E-007  0.4805632E+03  0.7818608E-02  0.1018980E+00
         -2   -1    0    0    0  501 -0.00000000000E+00  0.00000000000E+00  0.67658399420E+03  0.67658399420E+03  0.25500000000E-02 0.  1.
          2   -1    0    0  501    0  0.00000000000E+00 -0.00000000000E+00 -0.16374599598E+04  0.16374599598E+04  0.25500000000E-02 0. -1.
    8880022    1    1    2    0    0 -0.14007009995E+03  0.43350861805E+03 -0.15098278672E+04  0.15844624314E+04  0.15294330000E+03 0.  0.
    8880022    1    1    2    0    0  0.14007009995E+03 -0.43350861805E+03  0.54895190163E+03  0.72958152261E+03  0.15294330000E+03 0.  0.
<mgrwt>
<rscale>  0 0.48056322E+03</rscale>
<asrwt>0</asrwt>
<pdfrwt beam="1">  1        2 0.25191692E+00 0.48056322E+03</pdfrwt>
<pdfrwt beam="2">  1       -2 0.10408985E+00 0.48056322E+03</pdfrwt>
<totfact> 0.86043047E+00</totfact>
</mgrwt>
</event>
<event>
 4    1  0.1104584E-007  0.7410781E+03  0.7818608E-02  0.9649452E-01
          2   -1    0    0  501    0  0.00000000000E+00  0.00000000000E+00  0.20041952600E+04  0.20041952600E+04  0.25500000000E-02 0. -1.
         -2   -1    0    0    0  501 -0.00000000000E+00 -0.00000000000E+00 -0.62496785491E+03  0.62496785491E+03  0.25500000000E-02 0.  1.
    8880022    1    1    2    0    0 -0.42891122027E+03  0.58467110588E+03 -0.29548050855E+03  0.79781296108E+03  0.15294330000E+03 0.  0.
    8880022    1    1    2    0    0  0.42891122027E+03 -0.58467110588E+03  0.16747079136E+04  0.18313501538E+04  0.15294330000E+03 0.  0.
<mgrwt>
<rscale>  0 0.74107813E+03</rscale>
<asrwt>0</asrwt>
<pdfrwt beam="1">  1        2 0.30833773E+00 0.74107813E+03</pdfrwt>
<pdfrwt beam="2">  1       -2 0.96148900E-01 0.74107813E+03</pdfrwt>
<totfact> 0.62472021E+00</totfact>
</mgrwt>
</event>
<event>
 4    1  0.1104584E-007  0.1718377E+03  0.7818608E-02  0.1175945E+00
          2   -1    0    0  501    0  0.00000000000E+00  0.00000000000E+00  0.24667425278E+04  0.24667425278E+04  0.25500000000E-02 0. -1.
         -2   -1    0    0    0  501 -0.00000000000E+00 -0.00000000000E+00 -0.22062506411E+02  0.22062506558E+02  0.25500000000E-02 0.  1.
    8880022    1    1    2    0    0 -0.73197208134E+02 -0.27905137845E+02  0.20639712962E+04  0.20711121874E+04  0.15294330000E+03 0.  0.
    8880022    1    1    2    0    0  0.73197208134E+02  0.27905137845E+02  0.38070872513E+03  0.41769284696E+03  0.15294330000E+03 0.  0.
<mgrwt>
<rscale>  0 0.17183766E+03</rscale>
<asrwt>0</asrwt>
<pdfrwt beam="1">  1        2 0.37949879E+00 0.17183766E+03</pdfrwt>
<pdfrwt beam="2">  1       -2 0.33942323E-02 0.17183766E+03</pdfrwt>
<totfact> 0.14922524E+03</totfact>
</mgrwt>
</event>
<event>
 4    1  0.1104584E-007  0.1076404E+04  0.7818608E-02  0.9228501E-01
          2   -1    0    0  501    0  0.00000000000E+00  0.00000000000E+00  0.30543783878E+04  0.30543783878E+04  0.25500000000E-02 0. -1.
         -2   -1    0    0    0  501 -0.00000000000E+00 -0.00000000000E+00 -0.79948759223E+03  0.79948759224E+03  0.25500000000E-02 0.  1.
    8880022    1    1    2    0    0 -0.64042106885E+03 -0.85153610690E+03  0.25243355504E+04  0.27442511749E+04  0.15294330000E+03 0.  0.
    8880022    1    1    2    0    0  0.64042106885E+03  0.85153610690E+03 -0.26944475489E+03  0.11096148051E+04  0.15294330000E+03 0.  0.
<mgrwt>
<rscale>  0 0.10764035E+04</rscale>
<asrwt>0</asrwt>
<pdfrwt beam="1">  1        2 0.46990437E+00 0.10764035E+04</pdfrwt>
<pdfrwt beam="2">  1       -2 0.12299809E+00 0.10764035E+04</pdfrwt>
<totfact> 0.80866146E-01</totfact>
</mgrwt>
</event>
<event>
 4    1  0.1104584E-007  0.1957352E+03  0.7818608E-02  0.1153388E+00
          2   -1    0    0  501    0  0.00000000000E+00  0.00000000000E+00  0.27498434995E+03  0.27498434996E+03  0.25500000000E-02 0. -1.
         -2   -1    0    0    0  501 -0.00000000000E+00 -0.00000000000E+00 -0.72214002738E+03  0.72214002739E+03  0.25500000000E-02 0.  1.
    8880022    1    1    2    0    0  0.94210124303E+02 -0.77750075618E+02 -0.67147044268E+03  0.69941749348E+03  0.15294330000E+03 0.  1.
    8880022    1    1    2    0    0 -0.94210124303E+02  0.77750075618E+02  0.22431476525E+03  0.29770688387E+03  0.15294330000E+03 0.  0.
<mgrwt>
<rscale>  0 0.19573522E+03</rscale>
<asrwt>0</asrwt>
<pdfrwt beam="1">  1        2 0.42305285E-01 0.19573522E+03</pdfrwt>
<pdfrwt beam="2">  1       -2 0.11109846E+00 0.19573522E+03</pdfrwt>
<totfact> 0.81856140E+01</totfact>
</mgrwt>
</event>
<event>
 4    1  0.1104584E-007  0.7714560E+03  0.7818608E-02  0.9602278E-01
         -2   -1    0    0    0  501 -0.00000000000E+00  0.00000000000E+00  0.62235447145E+03  0.62235447146E+03  0.25500000000E-02 0.  1.
          2   -1    0    0  501    0  0.00000000000E+00 -0.00000000000E+00 -0.20645440885E+04  0.20645440885E+04  0.25500000000E-02 0. -1.
    8880022    1    1    2    0    0 -0.68927190097E+03  0.31089700345E+03  0.26321331707E+03  0.81512306035E+03  0.15294330000E+03 0.  0.
    8880022    1    1    2    0    0  0.68927190097E+03 -0.31089700345E+03 -0.17054029342E+04  0.18717754996E+04  0.15294330000E+03 0.  0.
<mgrwt>
<rscale>  0 0.77145600E+03</rscale>
<asrwt>0</asrwt>
<pdfrwt beam="1">  1        2 0.31762216E+00 0.77145600E+03</pdfrwt>
<pdfrwt beam="2">  1       -2 0.95746843E-01 0.77145600E+03</pdfrwt>
<totfact> 0.58190000E+00</totfact>
</mgrwt>
</event>
<event>
 4    1  0.1104584E-007  0.2443853E+03  0.7818608E-02  0.1116905E+00
          2   -1    0    0  501    0  0.00000000000E+00  0.00000000000E+00  0.12462444229E+04  0.12462444229E+04  0.25500000000E-02 0. -1.
         -2   -1    0    0    0  501 -0.00000000000E+00 -0.00000000000E+00 -0.31788661774E+03  0.31788661775E+03  0.25500000000E-02 0.  1.
    8880022    1    1    2    0    0  0.11639462544E+03  0.15094641691E+03 -0.25652914369E+03  0.35430408435E+03  0.15294330000E+03 0.  0.
    8880022    1    1    2    0    0 -0.11639462544E+03 -0.15094641691E+03  0.11848869488E+04  0.12098269563E+04  0.15294330000E+03 0.  0.
<mgrwt>
<rscale>  0 0.24438532E+03</rscale>
<asrwt>0</asrwt>
<pdfrwt beam="1">  1        2 0.19172991E+00 0.24438532E+03</pdfrwt>
<pdfrwt beam="2">  1       -2 0.48905634E-01 0.24438532E+03</pdfrwt>
<totfact> 0.77114841E+01</totfact>
</mgrwt>
</event>
<event>
 4    1  0.1104584E-007  0.1766868E+03  0.7818608E-02  0.1171049E+00
          2   -1    0    0  501    0  0.00000000000E+00  0.00000000000E+00  0.79899545045E+03  0.79899545045E+03  0.25500000000E-02 0. -1.
         -2   -1    0    0    0  501 -0.00000000000E+00 -0.00000000000E+00 -0.26532349342E+03  0.26532349343E+03  0.25500000000E-02 0.  1.
    8880022    1    1    2    0    0 -0.15026171694E+02  0.87182522408E+02  0.75825256807E+03  0.77856611026E+03  0.15294330000E+03 0. -1.
    8880022    1    1    2    0    0  0.15026171694E+02 -0.87182522408E+02 -0.22458061105E+03  0.28575283362E+03  0.15294330000E+03 0.  0.
<mgrwt>
<rscale>  0 0.17668682E+03</rscale>
<asrwt>0</asrwt>
<pdfrwt beam="1">  1        2 0.12292238E+00 0.17668682E+03</pdfrwt>
<pdfrwt beam="2">  1       -2 0.40819000E-01 0.17668682E+03</pdfrwt>
<totfact> 0.20856827E+02</totfact>
</mgrwt>
</event>
<event>
 4    1  0.1104584E-007  0.6378780E+03  0.7818608E-02  0.9829795E-01
         -2   -1    0    0    0  501 -0.00000000000E+00  0.00000000000E+00  0.49995878576E+03  0.49995878577E+03  0.25500000000E-02 0.  1.
          2   -1    0    0  501    0  0.00000000000E+00 -0.00000000000E+00 -0.96883010108E+03  0.96883010109E+03  0.25500000000E-02 0. -1.
    8880022    1    1    2    0    0 -0.51786638000E+03 -0.33957485562E+03  0.59297061069E+02  0.64062817966E+03  0.15294330000E+03 0.  0.
    8880022    1    1    2    0    0  0.51786638000E+03  0.33957485562E+03 -0.52816837639E+03  0.82816070719E+03  0.15294330000E+03 0.  0.
<mgrwt>
<rscale>  0 0.63787798E+03</rscale>
<asrwt>0</asrwt>
<pdfrwt beam="1">  1        2 0.14905078E+00 0.63787798E+03</pdfrwt>
<pdfrwt beam="2">  1       -2 0.76916736E-01 0.63787798E+03</pdfrwt>
<totfact> 0.40895221E+01</totfact>
</mgrwt>
</event>
<event>
 4    1  0.1104584E-007  0.8298944E+03  0.7818608E-02  0.9517726E-01
         -2   -1    0    0    0  501 -0.00000000000E+00  0.00000000000E+00  0.10227584176E+04  0.10227584176E+04  0.25500000000E-02 0.  1.
          2   -1    0    0  501    0  0.00000000000E+00 -0.00000000000E+00 -0.82991577842E+03  0.82991577843E+03  0.25500000000E-02 0. -1.
    8880022    1    1    2    0    0  0.25852314790E+03  0.77362709847E+03 -0.30586210621E+03  0.88446389780E+03  0.15294330000E+03 0.  0.
    8880022    1    1    2    0    0 -0.25852314790E+03 -0.77362709847E+03  0.49870474536E+03  0.96821029820E+03  0.15294330000E+03 0.  0.
<mgrwt>
<rscale>  0 0.82989443E+03</rscale>
<asrwt>0</asrwt>
<pdfrwt beam="1">  1        2 0.12767935E+00 0.82989443E+03</pdfrwt>
<pdfrwt beam="2">  1       -2 0.15734745E+00 0.82989443E+03</pdfrwt>
<totfact> 0.87124955E+00</totfact>
</mgrwt>
</event>
<event>
 4    1  0.1104584E-007  0.6857395E+03  0.7818608E-02  0.9741935E-01
          2   -1    0    0  501    0  0.00000000000E+00  0.00000000000E+00  0.18908836553E+04  0.18908836553E+04  0.25500000000E-02 0. -1.
         -2   -1    0    0    0  501 -0.00000000000E+00 -0.00000000000E+00 -0.81221349037E+03  0.81221349037E+03  0.25500000000E-02 0.  1.
    8880022    1    1    2    0    0  0.65695138202E+03  0.12353901436E+03  0.16651153447E+04  0.18007908737E+04  0.15294330000E+03 0.  0.
    8880022    1    1    2    0    0 -0.65695138202E+03 -0.12353901436E+03 -0.58644517986E+03  0.90230627195E+03  0.15294330000E+03 0.  0.
<mgrwt>
<rscale>  0 0.68573950E+03</rscale>
<asrwt>0</asrwt>
<pdfrwt beam="1">  1        2 0.29090517E+00 0.68573950E+03</pdfrwt>
<pdfrwt beam="2">  1       -2 0.12495592E+00 0.68573950E+03</pdfrwt>
<totfact> 0.38551608E+00</totfact>
</mgrwt>
</event>
<event>
 4    1  0.1104584E-007  0.2918533E+03  0.7818608E-02  0.1089385E+00
         -2   -1    0    0    0  501 -0.00000000000E+00  0.00000000000E+00  0.57768773799E+03  0.57768773800E+03  0.25500000000E-02 0.  1.
          2   -1    0    0  501    0  0.00000000000E+00 -0.00000000000E+00 -0.88944015737E+03  0.88944015737E+03  0.25500000000E-02 0. -1.
    8880022    1    1    2    0    0  0.20607390759E+03  0.13899734278E+03 -0.82588351682E+03  0.87593490230E+03  0.15294330000E+03 0. -1.
    8880022    1    1    2    0    0 -0.20607390759E+03 -0.13899734278E+03  0.51413109744E+03  0.59119299307E+03  0.15294330000E+03 0.  0.
<mgrwt>
<rscale>  0 0.29185334E+03</rscale>
<asrwt>0</asrwt>
<pdfrwt beam="1">  1        2 0.13683695E+00 0.29185334E+03</pdfrwt>
<pdfrwt beam="2">  1       -2 0.88875037E-01 0.29185334E+03</pdfrwt>
<totfact> 0.35091967E+01</totfact>
</mgrwt>
</event>
<event>
 4    1  0.1104584E-007  0.9609078E+03  0.7818608E-02  0.9352491E-01
          2   -1    0    0  501    0  0.00000000000E+00  0.00000000000E+00  0.28411188788E+04  0.28411188788E+04  0.25500000000E-02 0. -1.
         -2   -1    0    0    0  501 -0.00000000000E+00 -0.00000000000E+00 -0.34615874965E+03  0.34615874966E+03  0.25500000000E-02 0.  1.
    8880022    1    1    2    0    0  0.69079834455E+03  0.65019219401E+03  0.16415456766E+04  0.19021083311E+04  0.15294330000E+03 0.  0.
    8880022    1    1    2    0    0 -0.69079834455E+03 -0.65019219401E+03  0.85341445260E+03  0.12851692974E+04  0.15294330000E+03 0.  0.
<mgrwt>
<rscale>  0 0.96090785E+03</rscale>
<asrwt>0</asrwt>
<pdfrwt beam="1">  1        2 0.43709521E+00 0.96090785E+03</pdfrwt>
<pdfrwt beam="2">  1       -2 0.53255193E-01 0.96090785E+03</pdfrwt>
<totfact> 0.74362703E+00</totfact>
</mgrwt>
</event>
<event>
 4    1  0.1104584E-007  0.2230445E+03  0.7818608E-02  0.1131633E+00
         -2   -1    0    0    0  501 -0.00000000000E+00  0.00000000000E+00  0.10312825648E+03  0.10312825651E+03  0.25500000000E-02 0.  1.
          2   -1    0    0  501    0  0.00000000000E+00 -0.00000000000E+00 -0.23011179530E+04  0.23011179530E+04  0.25500000000E-02 0. -1.
    8880022    1    1    2    0    0 -0.16230538515E+03 -0.37597584857E+01 -0.30278473902E+02  0.22509023264E+03  0.15294330000E+03 0.  0.
    8880022    1    1    2    0    0  0.16230538515E+03  0.37597584857E+01 -0.21677112226E+04  0.21791559769E+04  0.15294330000E+03 0. -1.
<mgrwt>
<rscale>  0 0.22304445E+03</rscale>
<asrwt>0</asrwt>
<pdfrwt beam="1">  1        2 0.35401811E+00 0.22304445E+03</pdfrwt>
<pdfrwt beam="2">  1       -2 0.15865887E-01 0.22304445E+03</pdfrwt>
<totfact> 0.16350611E+02</totfact>
</mgrwt>
</event>
<event>
 4    1  0.1104584E-007  0.1470700E+04  0.7818608E-02  0.8904174E-01
          2   -1    0    0  501    0  0.00000000000E+00  0.00000000000E+00  0.36972897153E+04  0.36972897153E+04  0.25500000000E-02 0. -1.
         -2   -1    0    0    0  501 -0.00000000000E+00 -0.00000000000E+00 -0.62972521646E+03  0.62972521646E+03  0.25500000000E-02 0.  1.
    8880022    1    1    2    0    0 -0.13728868829E+04  0.50472665444E+03  0.95728059083E+03  0.17548063060E+04  0.15294330000E+03 0.  0.
    8880022    1    1    2    0    0  0.13728868829E+04 -0.50472665444E+03  0.21102839080E+04  0.25722086257E+04  0.15294330000E+03 0.  0.
<mgrwt>
<rscale>  0 0.14707002E+04</rscale>
<asrwt>0</asrwt>
<pdfrwt beam="1">  1        2 0.56881380E+00 0.14707002E+04</pdfrwt>
<pdfrwt beam="2">  1       -2 0.96880803E-01 0.14707002E+04</pdfrwt>
<totfact> 0.50578200E-01</totfact>
</mgrwt>
</event>
<event>
 4    1  0.1104584E-007  0.9768381E+03  0.7818608E-02  0.9334320E-01
         -2   -1    0    0    0  501 -0.00000000000E+00  0.00000000000E+00  0.70838519658E+03  0.70838519659E+03  0.25500000000E-02 0.  1.
          2   -1    0    0  501    0  0.00000000000E+00 -0.00000000000E+00 -0.25501357571E+04  0.25501357571E+04  0.25500000000E-02 0. -1.
    8880022    1    1    2    0    0  0.91699524751E+03 -0.29990135367E+03  0.19820599383E+03  0.99674388631E+03  0.15294330000E+03 0.  0.
    8880022    1    1    2    0    0 -0.91699524751E+03  0.29990135367E+03 -0.20399565544E+04  0.22617770674E+04  0.15294330000E+03 0.  0.
<mgrwt>
<rscale>  0 0.97683814E+03</rscale>
<asrwt>0</asrwt>
<pdfrwt beam="1">  1        2 0.39232857E+00 0.97683814E+03</pdfrwt>
<pdfrwt beam="2">  1       -2 0.10898234E+00 0.97683814E+03</pdfrwt>
<totfact> 0.22142365E+00</totfact>
</mgrwt>
</event>
<event>
 4    1  0.1104584E-007  0.3254074E+03  0.7818608E-02  0.1073187E+00
         -2   -1    0    0    0  501 -0.00000000000E+00  0.00000000000E+00  0.19220274217E+03  0.19220274218E+03  0.25500000000E-02 0.  1.
          2   -1    0    0  501    0  0.00000000000E+00 -0.00000000000E+00 -0.86608458719E+03  0.86608458720E+03  0.25500000000E-02 0. -1.
    8880022    1    1    2    0    0  0.50473146246E+02 -0.28275565180E+03 -0.65613612949E+03  0.73239645723E+03  0.15294330000E+03 0.  0.
    8880022    1    1    2    0    0 -0.50473146246E+02  0.28275565180E+03 -0.17745715534E+02  0.32589087215E+03  0.15294330000E+03 0.  0.
<mgrwt>
<rscale>  0 0.32540736E+03</rscale>
<asrwt>0</asrwt>
<pdfrwt beam="1">  1        2 0.13324378E+00 0.32540736E+03</pdfrwt>
<pdfrwt beam="2">  1       -2 0.29569653E-01 0.32540736E+03</pdfrwt>
<totfact> 0.33661259E+02</totfact>
</mgrwt>
</event>
<event>
 4    1  0.1104584E-007  0.2574826E+03  0.7818608E-02  0.1108665E+00
         -2   -1    0    0    0  501 -0.00000000000E+00  0.00000000000E+00  0.38349264975E+03  0.38349264976E+03  0.25500000000E-02 0.  1.
          2   -1    0    0  501    0  0.00000000000E+00 -0.00000000000E+00 -0.41887268816E+03  0.41887268816E+03  0.25500000000E-02 0. -1.
    8880022    1    1    2    0    0  0.17936048389E+03 -0.10361208815E+03 -0.32513282239E+03  0.41473925930E+03  0.15294330000E+03 0.  0.
    8880022    1    1    2    0    0 -0.17936048389E+03  0.10361208815E+03  0.28975278398E+03  0.38762607862E+03  0.15294330000E+03 0.  0.
<mgrwt>
<rscale>  0 0.25748262E+03</rscale>
<asrwt>0</asrwt>
<pdfrwt beam="1">  1        2 0.64441952E-01 0.25748262E+03</pdfrwt>
<pdfrwt beam="2">  1       -2 0.58998869E-01 0.25748262E+03</pdfrwt>
<totfact> 0.20977595E+02</totfact>
</mgrwt>
</event>
<event>
 4    1  0.1104584E-007  0.1032318E+04  0.7818608E-02  0.9273792E-01
          2   -1    0    0  501    0  0.00000000000E+00  0.00000000000E+00  0.10887982130E+04  0.10887982130E+04  0.25500000000E-02 0. -1.
         -2   -1    0    0    0  501 -0.00000000000E+00 -0.00000000000E+00 -0.33333476620E+04  0.33333476620E+04  0.25500000000E-02 0.  1.
    8880022    1    1    2    0    0 -0.18830439619E+03  0.10034092609E+04  0.73604099255E+03  0.12678472645E+04  0.15294330000E+03 0.  0.
    8880022    1    1    2    0    0  0.18830439619E+03 -0.10034092609E+04 -0.29805904416E+04  0.31542986104E+04  0.15294330000E+03 0.  0.
<mgrwt>
<rscale>  0 0.10323179E+04</rscale>
<asrwt>0</asrwt>
<pdfrwt beam="1">  1        2 0.16750742E+00 0.10323179E+04</pdfrwt>
<pdfrwt beam="2">  1       -2 0.51282271E+00 0.10323179E+04</pdfrwt>
<totfact> 0.30494895E-02</totfact>
</mgrwt>
</event>
<event>
 4    1  0.1104584E-007  0.2833950E+03  0.7818608E-02  0.1093849E+00
         -2   -1    0    0    0  501 -0.00000000000E+00  0.00000000000E+00  0.15999929237E+03  0.15999929239E+03  0.25500000000E-02 0.  1.
          2   -1    0    0  501    0  0.00000000000E+00 -0.00000000000E+00 -0.80444631246E+03  0.80444631246E+03  0.25500000000E-02 0. -1.
    8880022    1    1    2    0    0  0.21887174851E+03  0.94953919031E+02 -0.61792555605E+03  0.67981227914E+03  0.15294330000E+03 0.  0.
    8880022    1    1    2    0    0 -0.21887174851E+03 -0.94953919031E+02 -0.26521464048E+02  0.28463332571E+03  0.15294330000E+03 0.  0.
<mgrwt>
<rscale>  0 0.28339503E+03</rscale>
<asrwt>0</asrwt>
<pdfrwt beam="1">  1        2 0.12376097E+00 0.28339503E+03</pdfrwt>
<pdfrwt beam="2">  1       -2 0.24615276E-01 0.28339503E+03</pdfrwt>
<totfact> 0.51704184E+02</totfact>
</mgrwt>
</event>
<event>
 4    1  0.1104584E-007  0.3487468E+03  0.7818608E-02  0.1063131E+00
          2   -1    0    0  501    0  0.00000000000E+00  0.00000000000E+00  0.11629600545E+04  0.11629600545E+04  0.25500000000E-02 0. -1.
         -2   -1    0    0    0  501 -0.00000000000E+00 -0.00000000000E+00 -0.12732008022E+03  0.12732008025E+03  0.25500000000E-02 0.  1.
    8880022    1    1    2    0    0  0.30543958189E+03  0.70280439861E+02  0.24518261178E+03  0.42630839136E+03  0.15294330000E+03 0.  0.
    8880022    1    1    2    0    0 -0.30543958189E+03 -0.70280439861E+02  0.79045736248E+03  0.86397174336E+03  0.15294330000E+03 0.  0.
<mgrwt>
<rscale>  0 0.34874680E+03</rscale>
<asrwt>0</asrwt>
<pdfrwt beam="1">  1        2 0.17891693E+00 0.34874680E+03</pdfrwt>
<pdfrwt beam="2">  1       -2 0.19587705E-01 0.34874680E+03</pdfrwt>
<totfact> 0.45623467E+02</totfact>
</mgrwt>
</event>
<event>
 4    1  0.1104584E-007  0.4978845E+03  0.7818608E-02  0.1014333E+00
          2   -1    0    0  501    0  0.00000000000E+00  0.00000000000E+00  0.16145340111E+04  0.16145340111E+04  0.25500000000E-02 0. -1.
         -2   -1    0    0    0  501 -0.00000000000E+00 -0.00000000000E+00 -0.40253591057E+03  0.40253591058E+03  0.25500000000E-02 0.  1.
    8880022    1    1    2    0    0  0.41903543170E+03  0.22114852204E+03  0.13992092331E+04  0.14851516733E+04  0.15294330000E+03 0.  0.
    8880022    1    1    2    0    0 -0.41903543170E+03 -0.22114852204E+03 -0.18721113252E+03  0.53191824839E+03  0.15294330000E+03 0.  0.
<mgrwt>
<rscale>  0 0.49788454E+03</rscale>
<asrwt>0</asrwt>
<pdfrwt beam="1">  1        2 0.24838985E+00 0.49788454E+03</pdfrwt>
<pdfrwt beam="2">  1       -2 0.61928600E-01 0.49788454E+03</pdfrwt>
<totfact> 0.28208860E+01</totfact>
</mgrwt>
</event>
<event>
 4    1  0.1104584E-007  0.1560167E+03  0.7818608E-02  0.1193269E+00
         -2   -1    0    0    0  501 -0.00000000000E+00  0.00000000000E+00  0.10499811767E+02  0.10499812077E+02  0.25500000000E-02 0.  1.
          2   -1    0    0  501    0  0.00000000000E+00 -0.00000000000E+00 -0.24969356566E+04  0.24969356566E+04  0.25500000000E-02 0. -1.
    8880022    1    1    2    0    0  0.62883456030E+01 -0.30166558068E+02 -0.15785982900E+04  0.15862893112E+04  0.15294330000E+03 0. -1.
    8880022    1    1    2    0    0 -0.62883456030E+01  0.30166558068E+02 -0.90783755477E+03  0.92114615745E+03  0.15294330000E+03 0.  1.
<mgrwt>
<rscale>  0 0.15601672E+03</rscale>
<asrwt>0</asrwt>
<pdfrwt beam="1">  1        2 0.38414347E+00 0.15601672E+03</pdfrwt>
<pdfrwt beam="2">  1       -2 0.16153577E-02 0.15601672E+03</pdfrwt>
<totfact> 0.42749559E+03</totfact>
</mgrwt>
</event>
<event>
 4    1  0.1104584E-007  0.3661473E+03  0.7818608E-02  0.1056176E+00
          2   -1    0    0  501    0  0.00000000000E+00  0.00000000000E+00  0.20522187759E+04  0.20522187760E+04  0.25500000000E-02 0. -1.
         -2   -1    0    0    0  501 -0.00000000000E+00 -0.00000000000E+00 -0.80962296306E+02  0.80962296346E+02  0.25500000000E-02 0.  1.
    8880022    1    1    2    0    0 -0.11531846792E+03  0.31204777649E+03  0.51690187217E+03  0.63344404830E+03  0.15294330000E+03 0.  0.
    8880022    1    1    2    0    0  0.11531846792E+03 -0.31204777649E+03  0.14543546075E+04  0.14997370240E+04  0.15294330000E+03 0.  0.
<mgrwt>
<rscale>  0 0.36614726E+03</rscale>
<asrwt>0</asrwt>
<pdfrwt beam="1">  1        2 0.31572596E+00 0.36614726E+03</pdfrwt>
<pdfrwt beam="2">  1       -2 0.12455738E-01 0.36614726E+03</pdfrwt>
<totfact> 0.31978512E+02</totfact>
</mgrwt>
</event>
<event>
 4    1  0.1104584E-007  0.5656047E+03  0.7818608E-02  0.9979452E-01
         -2   -1    0    0    0  501 -0.00000000000E+00  0.00000000000E+00  0.52123551323E+03  0.52123551324E+03  0.25500000000E-02 0.  1.
          2   -1    0    0  501    0  0.00000000000E+00 -0.00000000000E+00 -0.23714697086E+04  0.23714697086E+04  0.25500000000E-02 0. -1.
    8880022    1    1    2    0    0  0.10834595047E+03  0.53364612065E+03  0.32008577308E+03  0.64989505477E+03  0.15294330000E+03 0.  1.
    8880022    1    1    2    0    0 -0.10834595047E+03 -0.53364612065E+03 -0.21703199684E+04  0.22428101670E+04  0.15294330000E+03 0.  0.
<mgrwt>
<rscale>  0 0.56560470E+03</rscale>
<asrwt>0</asrwt>
<pdfrwt beam="1">  1        2 0.36484149E+00 0.56560470E+03</pdfrwt>
<pdfrwt beam="2">  1       -2 0.80190080E-01 0.56560470E+03</pdfrwt>
<totfact> 0.61586266E+00</totfact>
</mgrwt>
</event>
<event>
 4    1  0.1104584E-007  0.2169568E+03  0.7818608E-02  0.1136172E+00
          2   -1    0    0  501    0  0.00000000000E+00  0.00000000000E+00  0.29026094613E+04  0.29026094613E+04  0.25500000000E-02 0. -1.
         -2   -1    0    0    0  501 -0.00000000000E+00 -0.00000000000E+00 -0.94507354204E+03  0.94507354204E+03  0.25500000000E-02 0.  1.
    8880022    1    1    2    0    0  0.16964205352E+02  0.15294055809E+03  0.28860324314E+04  0.28941757802E+04  0.15294330000E+03 0. -1.
    8880022    1    1    2    0    0 -0.16964205352E+02 -0.15294055809E+03 -0.92849651213E+03  0.95350722316E+03  0.15294330000E+03 0.  0.
<mgrwt>
<rscale>  0 0.21695680E+03</rscale>
<asrwt>0</asrwt>
<pdfrwt beam="1">  1        2 0.44655529E+00 0.21695680E+03</pdfrwt>
<pdfrwt beam="2">  1       -2 0.14539593E+00 0.21695680E+03</pdfrwt>
<totfact> 0.86897468E-01</totfact>
</mgrwt>
</event>
<event>
 4    1  0.1104584E-007  0.6593491E+03  0.7818608E-02  0.9789393E-01
         -2   -1    0    0    0  501 -0.00000000000E+00  0.00000000000E+00  0.91250041015E+03  0.91250041015E+03  0.25500000000E-02 0.  1.
          2   -1    0    0  501    0  0.00000000000E+00 -0.00000000000E+00 -0.89033872253E+03  0.89033872253E+03  0.25500000000E-02 0. -1.
    8880022    1    1    2    0    0 -0.36865501524E+02  0.64030502571E+03 -0.60353308946E+03  0.89386432652E+03  0.15294330000E+03 0.  0.
    8880022    1    1    2    0    0  0.36865501524E+02 -0.64030502571E+03  0.62569477708E+03  0.90897480616E+03  0.15294330000E+03 0.  0.
<mgrwt>
<rscale>  0 0.65934911E+03</rscale>
<asrwt>0</asrwt>
<pdfrwt beam="1">  1        2 0.13697519E+00 0.65934911E+03</pdfrwt>
<pdfrwt beam="2">  1       -2 0.14038468E+00 0.65934911E+03</pdfrwt>
<totfact> 0.10910712E+01</totfact>
</mgrwt>
</event>
<event>
 4    1  0.1104584E-007  0.8480990E+03  0.7818608E-02  0.9492892E-01
         -2   -1    0    0    0  501 -0.00000000000E+00  0.00000000000E+00  0.16447948706E+04  0.16447948706E+04  0.25500000000E-02 0.  1.
          2   -1    0    0  501    0  0.00000000000E+00 -0.00000000000E+00 -0.11487353328E+04  0.11487353328E+04  0.25500000000E-02 0. -1.
    8880022    1    1    2    0    0  0.12431606508E+03 -0.82487925411E+03 -0.85117985305E+03  0.12015735779E+04  0.15294330000E+03 0.  0.
    8880022    1    1    2    0    0 -0.12431606508E+03  0.82487925411E+03  0.13472393909E+04  0.15919566255E+04  0.15294330000E+03 0.  0.
<mgrwt>
<rscale>  0 0.84809900E+03</rscale>
<asrwt>0</asrwt>
<pdfrwt beam="1">  1        2 0.17672851E+00 0.84809900E+03</pdfrwt>
<pdfrwt beam="2">  1       -2 0.25304536E+00 0.84809900E+03</pdfrwt>
<totfact> 0.12763749E+00</totfact>
</mgrwt>
</event>
<event>
 4    1  0.1104584E-007  0.4244524E+03  0.7818608E-02  0.1035627E+00
          2   -1    0    0  501    0  0.00000000000E+00  0.00000000000E+00  0.38393604374E+03  0.38393604375E+03  0.25500000000E-02 0. -1.
         -2   -1    0    0    0  501 -0.00000000000E+00 -0.00000000000E+00 -0.56235763204E+03  0.56235763205E+03  0.25500000000E-02 0.  1.
    8880022    1    1    2    0    0  0.36079530516E+03 -0.16307958562E+03 -0.28173938702E+03  0.50944768003E+03  0.15294330000E+03 0.  0.
    8880022    1    1    2    0    0 -0.36079530516E+03  0.16307958562E+03  0.10331779872E+03  0.43684599577E+03  0.15294330000E+03 0.  0.
<mgrwt>
<rscale>  0 0.42445242E+03</rscale>
<asrwt>0</asrwt>
<pdfrwt beam="1">  1        2 0.59067084E-01 0.42445242E+03</pdfrwt>
<pdfrwt beam="2">  1       -2 0.86516559E-01 0.42445242E+03</pdfrwt>
<totfact> 0.99359008E+01</totfact>
</mgrwt>
</event>
<event>
 4    1  0.1104584E-007  0.2355452E+03  0.7818608E-02  0.1122797E+00
          2   -1    0    0  501    0  0.00000000000E+00  0.00000000000E+00  0.33855834862E+04  0.33855834862E+04  0.25500000000E-02 0. -1.
         -2   -1    0    0    0  501 -0.00000000000E+00 -0.00000000000E+00 -0.39057025218E+02  0.39057025301E+02  0.25500000000E-02 0.  1.
    8880022    1    1    2    0    0  0.17729966441E+03  0.25587057366E+02  0.36872786981E+03  0.43754058496E+03  0.15294330000E+03 0.  0.
    8880022    1    1    2    0    0 -0.17729966441E+03 -0.25587057366E+02  0.29777985912E+04  0.29870999265E+04  0.15294330000E+03 0. -1.
<mgrwt>
<rscale>  0 0.23554516E+03</rscale>
<asrwt>0</asrwt>
<pdfrwt beam="1">  1        2 0.52085922E+00 0.23554516E+03</pdfrwt>
<pdfrwt beam="2">  1       -2 0.60087706E-02 0.23554516E+03</pdfrwt>
<totfact> 0.18037363E+02</totfact>
</mgrwt>
</event>
<event>
 4    1  0.1104584E-007  0.1732122E+03  0.7818608E-02  0.1174539E+00
         -2   -1    0    0    0  501 -0.00000000000E+00  0.00000000000E+00  0.52066509833E+02  0.52066509896E+02  0.25500000000E-02 0.  1.
          2   -1    0    0  501    0  0.00000000000E+00 -0.00000000000E+00 -0.87397869126E+03  0.87397869126E+03  0.25500000000E-02 0. -1.
    8880022    1    1    2    0    0  0.76827869969E+02 -0.26613958115E+02 -0.14070092530E+03  0.22315740581E+03  0.15294330000E+03 0.  1.
    8880022    1    1    2    0    0 -0.76827869969E+02  0.26613958115E+02 -0.68121125613E+03  0.70288779535E+03  0.15294330000E+03 0.  0.
<mgrwt>
<rscale>  0 0.17321223E+03</rscale>
<asrwt>0</asrwt>
<pdfrwt beam="1">  1        2 0.13445825E+00 0.17321223E+03</pdfrwt>
<pdfrwt beam="2">  1       -2 0.80102329E-02 0.17321223E+03</pdfrwt>
<totfact> 0.29489022E+03</totfact>
</mgrwt>
</event>
<event>
 4    1  0.1104584E-007  0.3945336E+03  0.7818608E-02  0.1045689E+00
          2   -1    0    0  501    0  0.00000000000E+00  0.00000000000E+00  0.18734888489E+04  0.18734888489E+04  0.25500000000E-02 0. -1.
         -2   -1    0    0    0  501 -0.00000000000E+00 -0.00000000000E+00 -0.17764984857E+03  0.17764984858E+03  0.25500000000E-02 0.  1.
    8880022    1    1    2    0    0  0.36094562340E+03  0.44534861192E+02  0.15961751693E+04  0.16442116412E+04  0.15294330000E+03 0.  0.
    8880022    1    1    2    0    0 -0.36094562340E+03 -0.44534861192E+02  0.99663831034E+02  0.40692705630E+03  0.15294330000E+03 0.  0.
<mgrwt>
<rscale>  0 0.39453359E+03</rscale>
<asrwt>0</asrwt>
<pdfrwt beam="1">  1        2 0.28822908E+00 0.39453359E+03</pdfrwt>
<pdfrwt beam="2">  1       -2 0.27330744E-01 0.39453359E+03</pdfrwt>
<totfact> 0.10293150E+02</totfact>
</mgrwt>
</event>
<event>
 4    1  0.1104584E-007  0.2088178E+03  0.7818608E-02  0.1142506E+00
         -2   -1    0    0    0  501 -0.00000000000E+00  0.00000000000E+00  0.86101597936E+03  0.86101597937E+03  0.25500000000E-02 0.  1.
          2   -1    0    0  501    0  0.00000000000E+00 -0.00000000000E+00 -0.45049371888E+03  0.45049371889E+03  0.25500000000E-02 0. -1.
    8880022    1    1    2    0    0  0.65322278721E+01 -0.14202312125E+03 -0.41253586625E+03  0.46237509765E+03  0.15294330000E+03 0. -1.
    8880022    1    1    2    0    0 -0.65322278721E+01  0.14202312125E+03  0.82305812672E+03  0.84913460061E+03  0.15294330000E+03 0.  0.
<mgrwt>
<rscale>  0 0.20881784E+03</rscale>
<asrwt>0</asrwt>
<pdfrwt beam="1">  1        2 0.69306727E-01 0.20881784E+03</pdfrwt>
<pdfrwt beam="2">  1       -2 0.13246400E+00 0.20881784E+03</pdfrwt>
<totfact> 0.31266417E+01</totfact>
</mgrwt>
</event>
<event>
 4    1  0.1104584E-007  0.5180735E+03  0.7818608E-02  0.1009166E+00
          2   -1    0    0  501    0  0.00000000000E+00  0.00000000000E+00  0.16229591683E+04  0.16229591683E+04  0.25500000000E-02 0. -1.
         -2   -1    0    0    0  501 -0.00000000000E+00 -0.00000000000E+00 -0.18524086684E+03  0.18524086686E+03  0.25500000000E-02 0.  1.
    8880022    1    1    2    0    0 -0.20772039024E+03  0.44928912418E+03  0.42279904464E+03  0.66869960579E+03  0.15294330000E+03 0.  0.
    8880022    1    1    2    0    0  0.20772039024E+03 -0.44928912418E+03  0.10149192568E+04  0.11395004293E+04  0.15294330000E+03 0.  0.
<mgrwt>
<rscale>  0 0.51807348E+03</rscale>
<asrwt>0</asrwt>
<pdfrwt beam="1">  1        2 0.24968602E+00 0.51807348E+03</pdfrwt>
<pdfrwt beam="2">  1       -2 0.28498596E-01 0.51807348E+03</pdfrwt>
<totfact> 0.12750930E+02</totfact>
</mgrwt>
</event>
<event>
 4    1  0.1104584E-007  0.3968285E+03  0.7818608E-02  0.1044883E+00
         -2   -1    0    0    0  501 -0.00000000000E+00  0.00000000000E+00  0.86160020667E+03  0.86160020668E+03  0.25500000000E-02 0.  1.
          2   -1    0    0  501    0  0.00000000000E+00 -0.00000000000E+00 -0.44543519194E+03  0.44543519195E+03  0.25500000000E-02 0. -1.
    8880022    1    1    2    0    0  0.35092220356E+03  0.10456971990E+03 -0.29376073230E+03  0.49372891360E+03  0.15294330000E+03 0. -1.
    8880022    1    1    2    0    0 -0.35092220356E+03 -0.10456971990E+03  0.70992574703E+03  0.81330648502E+03  0.15294330000E+03 0.  0.
<mgrwt>
<rscale>  0 0.39682852E+03</rscale>
<asrwt>0</asrwt>
<pdfrwt beam="1">  1        2 0.68528492E-01 0.39682852E+03</pdfrwt>
<pdfrwt beam="2">  1       -2 0.13255388E+00 0.39682852E+03</pdfrwt>
<totfact> 0.30516627E+01</totfact>
</mgrwt>
</event>
<event>
 4    1  0.1104584E-007  0.4490573E+03  0.7818608E-02  0.1028004E+00
         -2   -1    0    0    0  501 -0.00000000000E+00  0.00000000000E+00  0.17483317308E+03  0.17483317310E+03  0.25500000000E-02 0.  1.
          2   -1    0    0  501    0  0.00000000000E+00 -0.00000000000E+00 -0.21538767129E+04  0.21538767129E+04  0.25500000000E-02 0. -1.
    8880022    1    1    2    0    0 -0.42074187808E+03 -0.35171485460E+02 -0.19596377588E+03  0.48995327923E+03  0.15294330000E+03 0.  0.
    8880022    1    1    2    0    0  0.42074187808E+03  0.35171485460E+02 -0.17830797640E+04  0.18387566068E+04  0.15294330000E+03 0.  0.
<mgrwt>
<rscale>  0 0.44905725E+03</rscale>
<asrwt>0</asrwt>
<pdfrwt beam="1">  1        2 0.33136563E+00 0.44905725E+03</pdfrwt>
<pdfrwt beam="2">  1       -2 0.26897413E-01 0.44905725E+03</pdfrwt>
<totfact> 0.74170661E+01</totfact>
</mgrwt>
</event>
<event>
 4    1  0.1104584E-007  0.4949198E+03  0.7818608E-02  0.1015113E+00
          2   -1    0    0  501    0  0.00000000000E+00  0.00000000000E+00  0.19123299562E+04  0.19123299562E+04  0.25500000000E-02 0. -1.
         -2   -1    0    0    0  501 -0.00000000000E+00 -0.00000000000E+00 -0.36561222594E+03  0.36561222595E+03  0.25500000000E-02 0.  1.
    8880022    1    1    2    0    0  0.40744503588E+03  0.23567460074E+03  0.16913885577E+04  0.17623112327E+04  0.15294330000E+03 0.  0.
    8880022    1    1    2    0    0 -0.40744503588E+03 -0.23567460074E+03 -0.14467082746E+03  0.51563094945E+03  0.15294330000E+03 0.  0.
<mgrwt>
<rscale>  0 0.49491982E+03</rscale>
<asrwt>0</asrwt>
<pdfrwt beam="1">  1        2 0.29420462E+00 0.49491982E+03</pdfrwt>
<pdfrwt beam="2">  1       -2 0.56248033E-01 0.49491982E+03</pdfrwt>
<totfact> 0.23855769E+01</totfact>
</mgrwt>
</event>
<event>
 4    1  0.1104584E-007  0.1561572E+03  0.7818608E-02  0.1193105E+00
         -2   -1    0    0    0  501 -0.00000000000E+00  0.00000000000E+00  0.19869964509E+03  0.19869964510E+03  0.25500000000E-02 0.  1.
          2   -1    0    0  501    0  0.00000000000E+00 -0.00000000000E+00 -0.30234692989E+04  0.30234692989E+04  0.25500000000E-02 0. -1.
    8880022    1    1    2    0    0  0.17586167955E+02 -0.26156432110E+02 -0.29904334398E+04  0.29945078466E+04  0.15294330000E+03 0. -1.
    8880022    1    1    2    0    0 -0.17586167955E+02  0.26156432110E+02  0.16566378604E+03  0.22766109739E+03  0.15294330000E+03 0.  0.
<mgrwt>
<rscale>  0 0.15615725E+03</rscale>
<asrwt>0</asrwt>
<pdfrwt beam="1">  1        2 0.46514909E+00 0.15615725E+03</pdfrwt>
<pdfrwt beam="2">  1       -2 0.30569178E-01 0.15615725E+03</pdfrwt>
<totfact> 0.21719492E+01</totfact>
</mgrwt>
</event>
<event>
 4    1  0.1104584E-007  0.9125438E+03  0.7818608E-02  0.9410035E-01
         -2   -1    0    0    0  501 -0.00000000000E+00  0.00000000000E+00  0.66746225785E+03  0.66746225786E+03  0.25500000000E-02 0.  1.
          2   -1    0    0  501    0  0.00000000000E+00 -0.00000000000E+00 -0.12637306907E+04  0.12637306908E+04  0.25500000000E-02 0. -1.
    8880022    1    1    2    0    0  0.84962586646E+03  0.29577100214E+03 -0.40717432351E+03  0.99926331935E+03  0.15294330000E+03 0.  1.
    8880022    1    1    2    0    0 -0.84962586646E+03 -0.29577100214E+03 -0.18909410939E+03  0.93192962926E+03  0.15294330000E+03 0.  0.
<mgrwt>
<rscale>  0 0.91254384E+03</rscale>
<asrwt>0</asrwt>
<pdfrwt beam="1">  1        2 0.19442011E+00 0.91254384E+03</pdfrwt>
<pdfrwt beam="2">  1       -2 0.10268650E+00 0.91254384E+03</pdfrwt>
<totfact> 0.13493880E+01</totfact>
</mgrwt>
</event>
<event>
 4    1  0.1104584E-007  0.7135450E+03  0.7818608E-02  0.9694345E-01
         -2   -1    0    0    0  501 -0.00000000000E+00  0.00000000000E+00  0.62534655697E+03  0.62534655697E+03  0.25500000000E-02 0.  1.
          2   -1    0    0  501    0  0.00000000000E+00 -0.00000000000E+00 -0.15067829827E+04  0.15067829827E+04  0.25500000000E-02 0. -1.
    8880022    1    1    2    0    0 -0.46666075126E+03  0.51767031092E+03 -0.11634872077E+04  0.13648622433E+04  0.15294330000E+03 0.  0.
    8880022    1    1    2    0    0  0.46666075126E+03 -0.51767031092E+03  0.28205078195E+03  0.76726729644E+03  0.15294330000E+03 0.  0.
<mgrwt>
<rscale>  0 0.71354500E+03</rscale>
<asrwt>0</asrwt>
<pdfrwt beam="1">  1        2 0.23181277E+00 0.71354500E+03</pdfrwt>
<pdfrwt beam="2">  1       -2 0.96207163E-01 0.71354500E+03</pdfrwt>
<totfact> 0.11723572E+01</totfact>
</mgrwt>
</event>
<event>
 4    1  0.1104584E-007  0.4814290E+03  0.7818608E-02  0.1018743E+00
          2   -1    0    0  501    0  0.00000000000E+00  0.00000000000E+00  0.95550308653E+03  0.95550308654E+03  0.25500000000E-02 0. -1.
         -2   -1    0    0    0  501 -0.00000000000E+00 -0.00000000000E+00 -0.26034687920E+03  0.26034687921E+03  0.25500000000E-02 0.  1.
    8880022    1    1    2    0    0 -0.72354875707E+02  0.45071835149E+03  0.50644490143E+03  0.69875628914E+03  0.15294330000E+03 0.  0.
    8880022    1    1    2    0    0  0.72354875707E+02 -0.45071835149E+03  0.18871130590E+03  0.51709367661E+03  0.15294330000E+03 0.  0.
<mgrwt>
<rscale>  0 0.48142903E+03</rscale>
<asrwt>0</asrwt>
<pdfrwt beam="1">  1        2 0.14700048E+00 0.48142903E+03</pdfrwt>
<pdfrwt beam="2">  1       -2 0.40053366E-01 0.48142903E+03</pdfrwt>
<totfact> 0.16389642E+02</totfact>
</mgrwt>
</event>
<event>
 4    1  0.1104584E-007  0.4411998E+03  0.7818608E-02  0.1030379E+00
          2   -1    0    0  501    0  0.00000000000E+00  0.00000000000E+00  0.38921805745E+03  0.38921805746E+03  0.25500000000E-02 0. -1.
         -2   -1    0    0    0  501 -0.00000000000E+00 -0.00000000000E+00 -0.12524374609E+04  0.12524374609E+04  0.25500000000E-02 0.  1.
    8880022    1    1    2    0    0 -0.62883030671E+01 -0.41379472258E+03  0.20456067812E+03  0.48631506170E+03  0.15294330000E+03 0.  0.
    8880022    1    1    2    0    0  0.62883030671E+01  0.41379472258E+03 -0.10677800816E+04  0.11553404567E+04  0.15294330000E+03 0.  0.
<mgrwt>
<rscale>  0 0.44119981E+03</rscale>
<asrwt>0</asrwt>
<pdfrwt beam="1">  1        2 0.59879702E-01 0.44119981E+03</pdfrwt>
<pdfrwt beam="2">  1       -2 0.19268268E+00 0.44119981E+03</pdfrwt>
<totfact> 0.12895362E+01</totfact>
</mgrwt>
</event>
<event>
 4    1  0.1104584E-007  0.4621323E+03  0.7818608E-02  0.1024165E+00
         -2   -1    0    0    0  501 -0.00000000000E+00  0.00000000000E+00  0.32689758051E+03  0.32689758052E+03  0.25500000000E-02 0.  1.
          2   -1    0    0  501    0  0.00000000000E+00 -0.00000000000E+00 -0.98373584469E+03  0.98373584469E+03  0.25500000000E-02 0. -1.
    8880022    1    1    2    0    0 -0.38795588328E+03  0.19916030193E+03 -0.70821253466E+03  0.84565432684E+03  0.15294330000E+03 0.  0.
    8880022    1    1    2    0    0  0.38795588328E+03 -0.19916030193E+03  0.51374270479E+02  0.46497909837E+03  0.15294330000E+03 0.  0.
<mgrwt>
<rscale>  0 0.46213228E+03</rscale>
<asrwt>0</asrwt>
<pdfrwt beam="1">  1        2 0.15134398E+00 0.46213228E+03</pdfrwt>
<pdfrwt beam="2">  1       -2 0.50291936E-01 0.46213228E+03</pdfrwt>
<totfact> 0.10041968E+02</totfact>
</mgrwt>
</event>
<event>
 4    1  0.1104584E-007  0.3284559E+03  0.7818608E-02  0.1071822E+00
          2   -1    0    0  501    0  0.00000000000E+00  0.00000000000E+00  0.22239602333E+04  0.22239602333E+04  0.25500000000E-02 0. -1.
         -2   -1    0    0    0  501 -0.00000000000E+00 -0.00000000000E+00 -0.56456324937E+03  0.56456324938E+03  0.25500000000E-02 0.  1.
    8880022    1    1    2    0    0  0.15960506372E+01  0.29067009435E+03  0.21627147841E+04  0.21875142380E+04  0.15294330000E+03 0. -1.
    8880022    1    1    2    0    0 -0.15960506372E+01 -0.29067009435E+03 -0.50331780020E+03  0.60100924464E+03  0.15294330000E+03 0.  0.
<mgrwt>
<rscale>  0 0.32845594E+03</rscale>
<asrwt>0</asrwt>
<pdfrwt beam="1">  1        2 0.34214772E+00 0.32845594E+03</pdfrwt>
<pdfrwt beam="2">  1       -2 0.86855885E-01 0.32845594E+03</pdfrwt>
<totfact> 0.66529330E+00</totfact>
</mgrwt>
</event>
<event>
 4    1  0.1104584E-007  0.4509917E+03  0.7818608E-02  0.1027427E+00
          2   -1    0    0  501    0  0.00000000000E+00  0.00000000000E+00  0.14695497597E+04  0.14695497597E+04  0.25500000000E-02 0. -1.
         -2   -1    0    0    0  501 -0.00000000000E+00 -0.00000000000E+00 -0.20821405882E+03  0.20821405883E+03  0.25500000000E-02 0.  1.
    8880022    1    1    2    0    0  0.18867399652E+03 -0.38000528761E+03  0.14493149831E+03  0.47370738625E+03  0.15294330000E+03 0.  1.
    8880022    1    1    2    0    0 -0.18867399652E+03  0.38000528761E+03  0.11164042025E+04  0.12040564322E+04  0.15294330000E+03 0.  0.
<mgrwt>
<rscale>  0 0.45099174E+03</rscale>
<asrwt>0</asrwt>
<pdfrwt beam="1">  1        2 0.22608457E+00 0.45099174E+03</pdfrwt>
<pdfrwt beam="2">  1       -2 0.32032933E-01 0.45099174E+03</pdfrwt>
<totfact> 0.12575294E+02</totfact>
</mgrwt>
</event>
<event>
 4    1  0.1104584E-007  0.3559270E+03  0.7818608E-02  0.1060208E+00
          2   -1    0    0  501    0  0.00000000000E+00  0.00000000000E+00  0.32999763174E+04  0.32999763174E+04  0.25500000000E-02 0. -1.
         -2   -1    0    0    0  501 -0.00000000000E+00 -0.00000000000E+00 -0.61813674412E+02  0.61813674465E+02  0.25500000000E-02 0.  1.
    8880022    1    1    2    0    0  0.16807046339E+03  0.27394286033E+03  0.26538222334E+04  0.26775840735E+04  0.15294330000E+03 0. -1.
    8880022    1    1    2    0    0 -0.16807046339E+03 -0.27394286033E+03  0.58434040967E+03  0.68420591840E+03  0.15294330000E+03 0.  0.
<mgrwt>
<rscale>  0 0.35592699E+03</rscale>
<asrwt>0</asrwt>
<pdfrwt beam="1">  1        2 0.50768889E+00 0.35592699E+03</pdfrwt>
<pdfrwt beam="2">  1       -2 0.95097918E-02 0.35592699E+03</pdfrwt>
<totfact> 0.95660822E+01</totfact>
</mgrwt>
</event>
<event>
 4    1  0.1104584E-007  0.5347173E+03  0.7818608E-02  0.1005094E+00
         -2   -1    0    0    0  501 -0.00000000000E+00  0.00000000000E+00  0.68192304195E+03  0.68192304195E+03  0.25500000000E-02 0.  1.
          2   -1    0    0  501    0  0.00000000000E+00 -0.00000000000E+00 -0.25674056780E+04  0.25674056780E+04  0.25500000000E-02 0. -1.
    8880022    1    1    2    0    0 -0.45599787627E+03 -0.23365983869E+03 -0.24288321917E+04  0.24869958689E+04  0.15294330000E+03 0.  0.
    8880022    1    1    2    0    0  0.45599787627E+03  0.23365983869E+03  0.54334955557E+03  0.76233285114E+03  0.15294330000E+03 0.  0.
<mgrwt>
<rscale>  0 0.53471734E+03</rscale>
<asrwt>0</asrwt>
<pdfrwt beam="1">  1        2 0.39498548E+00 0.53471734E+03</pdfrwt>
<pdfrwt beam="2">  1       -2 0.10491124E+00 0.53471734E+03</pdfrwt>
<totfact> 0.25925744E+00</totfact>
</mgrwt>
</event>
<event>
 4    1  0.1104584E-007  0.5324437E+03  0.7818608E-02  0.1005641E+00
         -2   -1    0    0    0  501 -0.00000000000E+00  0.00000000000E+00  0.16039102764E+03  0.16039102766E+03  0.25500000000E-02 0.  1.
          2   -1    0    0  501    0  0.00000000000E+00 -0.00000000000E+00 -0.27355809366E+04  0.27355809366E+04  0.25500000000E-02 0. -1.
    8880022    1    1    2    0    0  0.50936643752E+03 -0.25503564480E+02 -0.21489620136E+04  0.22139408277E+04  0.15294330000E+03 0.  0.
    8880022    1    1    2    0    0 -0.50936643752E+03  0.25503564480E+02 -0.42622789530E+03  0.68203113655E+03  0.15294330000E+03 0.  0.
<mgrwt>
<rscale>  0 0.53244366E+03</rscale>
<asrwt>0</asrwt>
<pdfrwt beam="1">  1        2 0.42085857E+00 0.53244366E+03</pdfrwt>
<pdfrwt beam="2">  1       -2 0.24675545E-01 0.53244366E+03</pdfrwt>
<totfact> 0.40383129E+01</totfact>
</mgrwt>
</event>
<event>
 4    1  0.1104584E-007  0.3801211E+03  0.7818608E-02  0.1050889E+00
         -2   -1    0    0    0  501 -0.00000000000E+00  0.00000000000E+00  0.44535588840E+03  0.44535588841E+03  0.25500000000E-02 0.  1.
          2   -1    0    0  501    0  0.00000000000E+00 -0.00000000000E+00 -0.21919068861E+04  0.21919068861E+04  0.25500000000E-02 0. -1.
    8880022    1    1    2    0    0  0.18026369569E+03  0.29766661765E+03 -0.20904100847E+04  0.21246897163E+04  0.15294330000E+03 0.  0.
    8880022    1    1    2    0    0 -0.18026369569E+03 -0.29766661765E+03  0.34385908703E+03  0.51257305820E+03  0.15294330000E+03 0.  0.
<mgrwt>
<rscale>  0 0.38012112E+03</rscale>
<asrwt>0</asrwt>
<pdfrwt beam="1">  1        2 0.33721644E+00 0.38012112E+03</pdfrwt>
<pdfrwt beam="2">  1       -2 0.68516292E-01 0.38012112E+03</pdfrwt>
<totfact> 0.11465360E+01</totfact>
</mgrwt>
</event>
<event>
 4    1  0.1104584E-007  0.4161664E+03  0.7818608E-02  0.1038321E+00
         -2   -1    0    0    0  501 -0.00000000000E+00  0.00000000000E+00  0.49001953176E+03  0.49001953176E+03  0.25500000000E-02 0.  1.
          2   -1    0    0  501    0  0.00000000000E+00 -0.00000000000E+00 -0.18499179732E+04  0.18499179732E+04  0.25500000000E-02 0. -1.
    8880022    1    1    2    0    0  0.34859210512E+03  0.16818560014E+03 -0.17322323280E+04  0.17815227596E+04  0.15294330000E+03 0.  0.
    8880022    1    1    2    0    0 -0.34859210512E+03 -0.16818560014E+03  0.37233388649E+03  0.55841474541E+03  0.15294330000E+03 0.  0.
<mgrwt>
<rscale>  0 0.41616644E+03</rscale>
<asrwt>0</asrwt>
<pdfrwt beam="1">  1        2 0.28460276E+00 0.41616644E+03</pdfrwt>
<pdfrwt beam="2">  1       -2 0.75387622E-01 0.41616644E+03</pdfrwt>
<totfact> 0.14045432E+01</totfact>
</mgrwt>
</event>
<event>
 4    1  0.1104584E-007  0.3210846E+03  0.7818608E-02  0.1075151E+00
          2   -1    0    0  501    0  0.00000000000E+00  0.00000000000E+00  0.95669173833E+03  0.95669173833E+03  0.25500000000E-02 0. -1.
         -2   -1    0    0    0  501 -0.00000000000E+00 -0.00000000000E+00 -0.26425265587E+03  0.26425265589E+03  0.25500000000E-02 0.  1.
    8880022    1    1    2    0    0  0.48864128265E+01  0.28227613139E+03 -0.12356631443E+03  0.34404066396E+03  0.15294330000E+03 0.  0.
    8880022    1    1    2    0    0 -0.48864128265E+01 -0.28227613139E+03  0.81600539688E+03  0.87690373025E+03  0.15294330000E+03 0.  0.
<mgrwt>
<rscale>  0 0.32108464E+03</rscale>
<asrwt>0</asrwt>
<pdfrwt beam="1">  1        2 0.14718334E+00 0.32108464E+03</pdfrwt>
<pdfrwt beam="2">  1       -2 0.40654255E-01 0.32108464E+03</pdfrwt>
<totfact> 0.16189468E+02</totfact>
</mgrwt>
</event>
<event>
 4    1  0.1104584E-007  0.9670957E+03  0.7818608E-02  0.9345389E-01
         -2   -1    0    0    0  501 -0.00000000000E+00  0.00000000000E+00  0.58440509872E+03  0.58440509872E+03  0.25500000000E-02 0.  1.
          2   -1    0    0  501    0  0.00000000000E+00 -0.00000000000E+00 -0.23951013128E+04  0.23951013128E+04  0.25500000000E-02 0. -1.
    8880022    1    1    2    0    0  0.67290998159E+03  0.67755039863E+03 -0.17634878863E+04  0.20112591986E+04  0.15294330000E+03 0.  0.
    8880022    1    1    2    0    0 -0.67290998159E+03 -0.67755039863E+03 -0.47208327783E+02  0.96824721287E+03  0.15294330000E+03 0.  0.
<mgrwt>
<rscale>  0 0.96709567E+03</rscale>
<asrwt>0</asrwt>
<pdfrwt beam="1">  1        2 0.36847712E+00 0.96709567E+03</pdfrwt>
<pdfrwt beam="2">  1       -2 0.89908478E-01 0.96709567E+03</pdfrwt>
<totfact> 0.42893376E+00</totfact>
</mgrwt>
</event>
<event>
 4    1  0.1104584E-007  0.4720740E+03  0.7818608E-02  0.1021336E+00
         -2   -1    0    0    0  501 -0.00000000000E+00  0.00000000000E+00  0.70076656028E+03  0.70076656028E+03  0.25500000000E-02 0.  1.
          2   -1    0    0  501    0  0.00000000000E+00 -0.00000000000E+00 -0.77731189272E+03  0.77731189273E+03  0.25500000000E-02 0. -1.
    8880022    1    1    2    0    0  0.39325919954E+03  0.21168239241E+03  0.52981695096E+03  0.70961953737E+03  0.15294330000E+03 0.  0.
    8880022    1    1    2    0    0 -0.39325919954E+03 -0.21168239241E+03 -0.60636228341E+03  0.76845891564E+03  0.15294330000E+03 0. -1.
<mgrwt>
<rscale>  0 0.47207403E+03</rscale>
<asrwt>0</asrwt>
<pdfrwt beam="1">  1        2 0.11958645E+00 0.47207403E+03</pdfrwt>
<pdfrwt beam="2">  1       -2 0.10781024E+00 0.47207403E+03</pdfrwt>
<totfact> 0.25844591E+01</totfact>
</mgrwt>
</event>
<event>
 4    1  0.1104584E-007  0.2918227E+03  0.7818608E-02  0.1089401E+00
         -2   -1    0    0    0  501 -0.00000000000E+00  0.00000000000E+00  0.34806436021E+03  0.34806436022E+03  0.25500000000E-02 0.  1.
          2   -1    0    0  501    0  0.00000000000E+00 -0.00000000000E+00 -0.39688944350E+03  0.39688944350E+03  0.25500000000E-02 0. -1.
    8880022    1    1    2    0    0 -0.15190621457E+03 -0.19670619481E+03 -0.25508800161E+03  0.38759562263E+03  0.15294330000E+03 0.  0.
    8880022    1    1    2    0    0  0.15190621457E+03  0.19670619481E+03  0.20626291833E+03  0.35735818109E+03  0.15294330000E+03 0.  0.
<mgrwt>
<rscale>  0 0.29182268E+03</rscale>
<asrwt>0</asrwt>
<pdfrwt beam="1">  1        2 0.61059914E-01 0.29182268E+03</pdfrwt>
<pdfrwt beam="2">  1       -2 0.53548364E-01 0.29182268E+03</pdfrwt>
<totfact> 0.27088494E+02</totfact>
</mgrwt>
</event>
<event>
 4    1  0.1104584E-007  0.5216362E+03  0.7818608E-02  0.1008281E+00
         -2   -1    0    0    0  501 -0.00000000000E+00  0.00000000000E+00  0.10334979089E+04  0.10334979089E+04  0.25500000000E-02 0.  1.
          2   -1    0    0  501    0  0.00000000000E+00 -0.00000000000E+00 -0.33345650582E+03  0.33345650583E+03  0.25500000000E-02 0. -1.
    8880022    1    1    2    0    0 -0.28846322090E+03  0.40681896534E+03  0.66355515178E+03  0.84404371500E+03  0.15294330000E+03 0.  0.
    8880022    1    1    2    0    0  0.28846322090E+03 -0.40681896534E+03  0.36486251329E+02  0.52291069976E+03  0.15294330000E+03 0.  0.
<mgrwt>
<rscale>  0 0.52163623E+03</rscale>
<asrwt>0</asrwt>
<pdfrwt beam="1">  1        2 0.51301002E-01 0.52163623E+03</pdfrwt>
<pdfrwt beam="2">  1       -2 0.15899968E+00 0.52163623E+03</pdfrwt>
<totfact> 0.25846201E+01</totfact>
</mgrwt>
</event>
<event>
 4    1  0.1104584E-007  0.2133539E+03  0.7818608E-02  0.1138937E+00
         -2   -1    0    0    0  501 -0.00000000000E+00  0.00000000000E+00  0.14212288692E+03  0.14212288695E+03  0.25500000000E-02 0.  1.
          2   -1    0    0  501    0  0.00000000000E+00 -0.00000000000E+00 -0.15761954043E+04  0.15761954043E+04  0.25500000000E-02 0. -1.
    8880022    1    1    2    0    0  0.14849095805E+03  0.88696405046E+01 -0.14839523426E+04  0.14992112737E+04  0.15294330000E+03 0.  0.
    8880022    1    1    2    0    0 -0.14849095805E+03 -0.88696405046E+01  0.49879825233E+02  0.21910701752E+03  0.15294330000E+03 0.  0.
<mgrwt>
<rscale>  0 0.21335390E+03</rscale>
<asrwt>0</asrwt>
<pdfrwt beam="1">  1        2 0.24249159E+00 0.21335390E+03</pdfrwt>
<pdfrwt beam="2">  1       -2 0.21865061E-01 0.21335390E+03</pdfrwt>
<totfact> 0.22837586E+02</totfact>
</mgrwt>
</event>
<event>
 4    1  0.1104584E-007  0.3390336E+03  0.7818608E-02  0.1067208E+00
          2   -1    0    0  501    0  0.00000000000E+00  0.00000000000E+00  0.96612902875E+03  0.96612902875E+03  0.25500000000E-02 0. -1.
         -2   -1    0    0    0  501 -0.00000000000E+00 -0.00000000000E+00 -0.11897356530E+03  0.11897356533E+03  0.25500000000E-02 0.  1.
    8880022    1    1    2    0    0  0.14529298715E+02 -0.30222683644E+03  0.42352948707E+03  0.54251363174E+03  0.15294330000E+03 0. -1.
    8880022    1    1    2    0    0 -0.14529298715E+02  0.30222683644E+03  0.42362597637E+03  0.54258896235E+03  0.15294330000E+03 0.  0.
<mgrwt>
<rscale>  0 0.33903365E+03</rscale>
<asrwt>0</asrwt>
<pdfrwt beam="1">  1        2 0.14863523E+00 0.33903365E+03</pdfrwt>
<pdfrwt beam="2">  1       -2 0.18303626E-01 0.33903365E+03</pdfrwt>
<totfact> 0.67437698E+02</totfact>
</mgrwt>
</event>
<event>
 4    1  0.1104584E-007  0.3879059E+03  0.7818608E-02  0.1048050E+00
         -2   -1    0    0    0  501 -0.00000000000E+00  0.00000000000E+00  0.13130967193E+03  0.13130967195E+03  0.25500000000E-02 0.  1.
          2   -1    0    0  501    0  0.00000000000E+00 -0.00000000000E+00 -0.11861917133E+04  0.11861917133E+04  0.25500000000E-02 0. -1.
    8880022    1    1    2    0    0 -0.24129890779E+03 -0.26240078079E+03 -0.64881310013E+03  0.75592951032E+03  0.15294330000E+03 0.  1.
    8880022    1    1    2    0    0  0.24129890779E+03  0.26240078079E+03 -0.40606894124E+03  0.56157187493E+03  0.15294330000E+03 0. -1.
<mgrwt>
<rscale>  0 0.38790590E+03</rscale>
<asrwt>0</asrwt>
<pdfrwt beam="1">  1        2 0.18249103E+00 0.38790590E+03</pdfrwt>
<pdfrwt beam="2">  1       -2 0.20201489E-01 0.38790590E+03</pdfrwt>
<totfact> 0.41785215E+02</totfact>
</mgrwt>
</event>
<event>
 4    1  0.1104584E-007  0.8795738E+03  0.7818608E-02  0.9451482E-01
          2   -1    0    0  501    0  0.00000000000E+00  0.00000000000E+00  0.63978463402E+03  0.63978463403E+03  0.25500000000E-02 0. -1.
         -2   -1    0    0    0  501 -0.00000000000E+00 -0.00000000000E+00 -0.13297426290E+04  0.13297426290E+04  0.25500000000E-02 0.  1.
    8880022    1    1    2    0    0  0.19875837916E+02  0.86594648166E+03 -0.64143166746E+03  0.10886159080E+04  0.15294330000E+03 0.  0.
    8880022    1    1    2    0    0 -0.19875837916E+02 -0.86594648166E+03 -0.48526327522E+02  0.88091135508E+03  0.15294330000E+03 0.  0.
<mgrwt>
<rscale>  0 0.87957377E+03</rscale>
<asrwt>0</asrwt>
<pdfrwt beam="1">  1        2 0.98428406E-01 0.87957377E+03</pdfrwt>
<pdfrwt beam="2">  1       -2 0.20457579E+00 0.87957377E+03</pdfrwt>
<totfact> 0.57273512E+00</totfact>
</mgrwt>
</event>
<event>
 4    1  0.1104584E-007  0.2205969E+03  0.7818608E-02  0.1133439E+00
          2   -1    0    0  501    0  0.00000000000E+00  0.00000000000E+00  0.50549387090E+03  0.50549387091E+03  0.25500000000E-02 0. -1.
         -2   -1    0    0    0  501 -0.00000000000E+00 -0.00000000000E+00 -0.23489440856E+04  0.23489440856E+04  0.25500000000E-02 0.  1.
    8880022    1    1    2    0    0  0.95854727360E+02  0.12681962010E+03  0.47594161559E+03  0.52457927834E+03  0.15294330000E+03 0. -1.
    8880022    1    1    2    0    0 -0.95854727360E+02 -0.12681962010E+03 -0.23193918303E+04  0.23298586781E+04  0.15294330000E+03 0.  0.
<mgrwt>
<rscale>  0 0.22059691E+03</rscale>
<asrwt>0</asrwt>
<pdfrwt beam="1">  1        2 0.77768289E-01 0.22059691E+03</pdfrwt>
<pdfrwt beam="2">  1       -2 0.36137601E+00 0.22059691E+03</pdfrwt>
<totfact> 0.10083477E+00</totfact>
</mgrwt>
</event>
<event>
 4    1  0.1104584E-007  0.2305805E+03  0.7818608E-02  0.1126232E+00
         -2   -1    0    0    0  501 -0.00000000000E+00  0.00000000000E+00  0.17308323566E+04  0.17308323566E+04  0.25500000000E-02 0.  1.
          2   -1    0    0  501    0  0.00000000000E+00 -0.00000000000E+00 -0.88521017546E+03  0.88521017546E+03  0.25500000000E-02 0. -1.
    8880022    1    1    2    0    0  0.10098052941E+02 -0.17226071744E+03  0.17079370598E+04  0.17234315707E+04  0.15294330000E+03 0.  1.
    8880022    1    1    2    0    0 -0.10098052941E+02  0.17226071744E+03 -0.86231487867E+03  0.89261096141E+03  0.15294330000E+03 0.  0.
<mgrwt>
<rscale>  0 0.23058052E+03</rscale>
<asrwt>0</asrwt>
<pdfrwt beam="1">  1        2 0.13618618E+00 0.23058052E+03</pdfrwt>
<pdfrwt beam="2">  1       -2 0.26628190E+00 0.23058052E+03</pdfrwt>
<totfact> 0.18561104E+00</totfact>
</mgrwt>
</event>
<event>
 4    1  0.1104584E-007  0.3960437E+03  0.7818608E-02  0.1045158E+00
          2   -1    0    0  501    0  0.00000000000E+00  0.00000000000E+00  0.13469407736E+04  0.13469407736E+04  0.25500000000E-02 0. -1.
         -2   -1    0    0    0  501 -0.00000000000E+00 -0.00000000000E+00 -0.17492941187E+03  0.17492941189E+03  0.25500000000E-02 0.  1.
    8880022    1    1    2    0    0  0.17652146685E+02  0.36489367494E+03  0.14603942466E+03  0.42211154789E+03  0.15294330000E+03 0.  0.
    8880022    1    1    2    0    0 -0.17652146685E+02 -0.36489367494E+03  0.10259719371E+04  0.10997586376E+04  0.15294330000E+03 0.  0.
<mgrwt>
<rscale>  0 0.39604374E+03</rscale>
<asrwt>0</asrwt>
<pdfrwt beam="1">  1        2 0.20722166E+00 0.39604374E+03</pdfrwt>
<pdfrwt beam="2">  1       -2 0.26912217E-01 0.39604374E+03</pdfrwt>
<totfact> 0.20379613E+02</totfact>
</mgrwt>
</event>
<event>
 4    1  0.1104584E-007  0.2208309E+03  0.7818608E-02  0.1133265E+00
         -2   -1    0    0    0  501 -0.00000000000E+00  0.00000000000E+00  0.95423469955E+03  0.95423469956E+03  0.25500000000E-02 0.  1.
          2   -1    0    0  501    0  0.00000000000E+00 -0.00000000000E+00 -0.79942645088E+03  0.79942645088E+03  0.25500000000E-02 0. -1.
    8880022    1    1    2    0    0 -0.23574875268E+01 -0.15927667920E+03  0.92574519542E+03  0.95171972667E+03  0.15294330000E+03 0.  0.
    8880022    1    1    2    0    0  0.23574875268E+01  0.15927667920E+03 -0.77093694674E+03  0.80194142377E+03  0.15294330000E+03 0.  0.
<mgrwt>
<rscale>  0 0.22083087E+03</rscale>
<asrwt>0</asrwt>
<pdfrwt beam="1">  1        2 0.12298869E+00 0.22083087E+03</pdfrwt>
<pdfrwt beam="2">  1       -2 0.14680534E+00 0.22083087E+03</pdfrwt>
<totfact> 0.12305518E+01</totfact>
</mgrwt>
</event>
<event>
 4    1  0.1104584E-007  0.6429608E+03  0.7818608E-02  0.9820078E-01
         -2   -1    0    0    0  501 -0.00000000000E+00  0.00000000000E+00  0.17199613375E+03  0.17199613377E+03  0.25500000000E-02 0.  1.
          2   -1    0    0  501    0  0.00000000000E+00 -0.00000000000E+00 -0.41943153906E+04  0.41943153906E+04  0.25500000000E-02 0. -1.
    8880022    1    1    2    0    0 -0.12732906282E+02  0.62437554648E+03 -0.34376716414E+04  0.34972825046E+04  0.15294330000E+03 0.  0.
    8880022    1    1    2    0    0  0.12732906282E+02 -0.62437554648E+03 -0.58464761549E+03  0.86902901981E+03  0.15294330000E+03 0.  0.
<mgrwt>
<rscale>  0 0.64296081E+03</rscale>
<asrwt>0</asrwt>
<pdfrwt beam="1">  1        2 0.64527921E+00 0.64296081E+03</pdfrwt>
<pdfrwt beam="2">  1       -2 0.26460947E-01 0.64296081E+03</pdfrwt>
<totfact> 0.34839925E+00</totfact>
</mgrwt>
</event>
<event>
 4    1  0.1104584E-007  0.5167509E+03  0.7818608E-02  0.1009497E+00
          2   -1    0    0  501    0  0.00000000000E+00  0.00000000000E+00  0.53972069151E+03  0.53972069151E+03  0.25500000000E-02 0. -1.
         -2   -1    0    0    0  501 -0.00000000000E+00 -0.00000000000E+00 -0.15904558829E+04  0.15904558829E+04  0.25500000000E-02 0.  1.
    8880022    1    1    2    0    0  0.49291284772E+03 -0.26014867898E+02  0.35866864688E+03  0.62902678804E+03  0.15294330000E+03 0.  0.
    8880022    1    1    2    0    0 -0.49291284772E+03  0.26014867898E+02 -0.14094038383E+04  0.15011497864E+04  0.15294330000E+03 0.  1.
<mgrwt>
<rscale>  0 0.51675091E+03</rscale>
<asrwt>0</asrwt>
<pdfrwt beam="1">  1        2 0.83033953E-01 0.51675091E+03</pdfrwt>
<pdfrwt beam="2">  1       -2 0.24468552E+00 0.51675091E+03</pdfrwt>
<totfact> 0.41661966E+00</totfact>
</mgrwt>
</event>
<event>
 4    1  0.1104584E-007  0.4663931E+03  0.7818608E-02  0.1022943E+00
         -2   -1    0    0    0  501 -0.00000000000E+00  0.00000000000E+00  0.22176153416E+03  0.22176153417E+03  0.25500000000E-02 0.  1.
          2   -1    0    0  501    0  0.00000000000E+00 -0.00000000000E+00 -0.19559003724E+04  0.19559003724E+04  0.25500000000E-02 0. -1.
    8880022    1    1    2    0    0 -0.43119579369E+03  0.90559831557E+02 -0.98305770697E+02  0.47664092685E+03  0.15294330000E+03 0.  0.
    8880022    1    1    2    0    0  0.43119579369E+03 -0.90559831557E+02 -0.16358330676E+04  0.17010209798E+04  0.15294330000E+03 0.  0.
<mgrwt>
<rscale>  0 0.46639313E+03</rscale>
<asrwt>0</asrwt>
<pdfrwt beam="1">  1        2 0.30090774E+00 0.46639313E+03</pdfrwt>
<pdfrwt beam="2">  1       -2 0.34117160E-01 0.46639313E+03</pdfrwt>
<totfact> 0.60934332E+01</totfact>
</mgrwt>
</event>
<event>
 4    1  0.1104584E-007  0.9931708E+03  0.7818608E-02  0.9316067E-01
         -2   -1    0    0    0  501 -0.00000000000E+00  0.00000000000E+00  0.91408455634E+03  0.91408455634E+03  0.25500000000E-02 0.  1.
          2   -1    0    0  501    0  0.00000000000E+00 -0.00000000000E+00 -0.14600594783E+04  0.14600594783E+04  0.25500000000E-02 0. -1.
    8880022    1    1    2    0    0 -0.33557182880E+03 -0.92216495379E+03 -0.87934864966E+03  0.13265151168E+04  0.15294330000E+03 0.  0.
    8880022    1    1    2    0    0  0.33557182880E+03  0.92216495379E+03  0.33337372770E+03  0.10476289179E+04  0.15294330000E+03 0.  0.
<mgrwt>
<rscale>  0 0.99317083E+03</rscale>
<asrwt>0</asrwt>
<pdfrwt beam="1">  1        2 0.22462453E+00 0.99317083E+03</pdfrwt>
<pdfrwt beam="2">  1       -2 0.14062839E+00 0.99317083E+03</pdfrwt>
<totfact> 0.47164238E+00</totfact>
</mgrwt>
</event>
<event>
 4    1  0.1104584E-007  0.3218313E+03  0.7818608E-02  0.1074810E+00
         -2   -1    0    0    0  501 -0.00000000000E+00  0.00000000000E+00  0.54124008503E+03  0.54124008503E+03  0.25500000000E-02 0.  1.
          2   -1    0    0  501    0  0.00000000000E+00 -0.00000000000E+00 -0.67759542117E+03  0.67759542117E+03  0.25500000000E-02 0. -1.
    8880022    1    1    2    0    0  0.34189181726E+02 -0.28109576957E+03  0.44806052096E+03  0.55166440457E+03  0.15294330000E+03 0.  0.
    8880022    1    1    2    0    0 -0.34189181726E+02  0.28109576957E+03 -0.58441585710E+03  0.66717110163E+03  0.15294330000E+03 0.  0.
<mgrwt>
<rscale>  0 0.32183130E+03</rscale>
<asrwt>0</asrwt>
<pdfrwt beam="1">  1        2 0.10424545E+00 0.32183130E+03</pdfrwt>
<pdfrwt beam="2">  1       -2 0.83267706E-01 0.32183130E+03</pdfrwt>
<totfact> 0.57118677E+01</totfact>
</mgrwt>
</event>
<event>
 4    1  0.1104584E-007  0.2716701E+03  0.7818608E-02  0.1100328E+00
          2   -1    0    0  501    0  0.00000000000E+00  0.00000000000E+00  0.16325792396E+04  0.16325792396E+04  0.25500000000E-02 0. -1.
         -2   -1    0    0    0  501 -0.00000000000E+00 -0.00000000000E+00 -0.29613641381E+03  0.29613641382E+03  0.25500000000E-02 0.  1.
    8880022    1    1    2    0    0  0.21366977097E+03  0.68979770434E+02 -0.21948173289E+03  0.34925186305E+03  0.15294330000E+03 0.  0.
    8880022    1    1    2    0    0 -0.21366977097E+03 -0.68979770434E+02  0.15559245587E+04  0.15794637903E+04  0.15294330000E+03 0.  0.
<mgrwt>
<rscale>  0 0.27167008E+03</rscale>
<asrwt>0</asrwt>
<pdfrwt beam="1">  1        2 0.25116603E+00 0.27167008E+03</pdfrwt>
<pdfrwt beam="2">  1       -2 0.45559449E-01 0.27167008E+03</pdfrwt>
<totfact> 0.54374176E+01</totfact>
</mgrwt>
</event>
<event>
 4    1  0.1104584E-007  0.1750218E+03  0.7818608E-02  0.1172710E+00
          2   -1    0    0  501    0  0.00000000000E+00  0.00000000000E+00  0.20292594536E+03  0.20292594538E+03  0.25500000000E-02 0. -1.
         -2   -1    0    0    0  501 -0.00000000000E+00 -0.00000000000E+00 -0.69557978136E+03  0.69557978137E+03  0.25500000000E-02 0.  1.
    8880022    1    1    2    0    0 -0.82222873718E+02  0.21917676869E+02 -0.64385349735E+03  0.66721807873E+03  0.15294330000E+03 0.  0.
    8880022    1    1    2    0    0  0.82222873718E+02 -0.21917676869E+02  0.15119966134E+03  0.23128764802E+03  0.15294330000E+03 0. -1.
<mgrwt>
<rscale>  0 0.17502182E+03</rscale>
<asrwt>0</asrwt>
<pdfrwt beam="1">  1        2 0.31219376E-01 0.17502182E+03</pdfrwt>
<pdfrwt beam="2">  1       -2 0.10701227E+00 0.17502182E+03</pdfrwt>
<totfact> 0.12444538E+02</totfact>
</mgrwt>
</event>
<event>
 4    1  0.1104584E-007  0.6211685E+03  0.7818608E-02  0.9862436E-01
          2   -1    0    0  501    0  0.00000000000E+00  0.00000000000E+00  0.50935486830E+03  0.50935486831E+03  0.25500000000E-02 0. -1.
         -2   -1    0    0    0  501 -0.00000000000E+00 -0.00000000000E+00 -0.12448978780E+04  0.12448978780E+04  0.25500000000E-02 0.  1.
    8880022    1    1    2    0    0 -0.19651033770E+03 -0.56907143081E+03  0.18104216983E+03  0.64701354426E+03  0.15294330000E+03 0.  0.
    8880022    1    1    2    0    0  0.19651033770E+03  0.56907143081E+03 -0.91658517951E+03  0.11072392020E+04  0.15294330000E+03 0.  0.
<mgrwt>
<rscale>  0 0.62116846E+03</rscale>
<asrwt>0</asrwt>
<pdfrwt beam="1">  1        2 0.78362288E-01 0.62116846E+03</pdfrwt>
<pdfrwt beam="2">  1       -2 0.19152275E+00 0.62116846E+03</pdfrwt>
<totfact> 0.94320295E+00</totfact>
</mgrwt>
</event>
<event>
 4    1  0.1104584E-007  0.4255326E+03  0.7818608E-02  0.1035281E+00
          2   -1    0    0  501    0  0.00000000000E+00  0.00000000000E+00  0.86198806541E+03  0.86198806541E+03  0.25500000000E-02 0. -1.
         -2   -1    0    0    0  501 -0.00000000000E+00 -0.00000000000E+00 -0.41769683359E+03  0.41769683360E+03  0.25500000000E-02 0.  1.
    8880022    1    1    2    0    0 -0.14019978491E+03 -0.37152435145E+03  0.67325724639E+03  0.79646299113E+03  0.15294330000E+03 0.  0.
    8880022    1    1    2    0    0  0.14019978491E+03  0.37152435145E+03 -0.22896601457E+03  0.48322190788E+03  0.15294330000E+03 0.  0.
<mgrwt>
<rscale>  0 0.42553258E+03</rscale>
<asrwt>0</asrwt>
<pdfrwt beam="1">  1        2 0.13261355E+00 0.42553258E+03</pdfrwt>
<pdfrwt beam="2">  1       -2 0.64261052E-01 0.42553258E+03</pdfrwt>
<totfact> 0.72879374E+01</totfact>
</mgrwt>
</event>
<event>
 4    1  0.1104584E-007  0.7642822E+03  0.7818608E-02  0.9613206E-01
          2   -1    0    0  501    0  0.00000000000E+00  0.00000000000E+00  0.12186482741E+04  0.12186482741E+04  0.25500000000E-02 0. -1.
         -2   -1    0    0    0  501 -0.00000000000E+00 -0.00000000000E+00 -0.14190393107E+04  0.14190393107E+04  0.25500000000E-02 0.  1.
    8880022    1    1    2    0    0 -0.56289189476E+03 -0.49385058283E+03 -0.11734292229E+04  0.14003797619E+04  0.15294330000E+03 0.  0.
    8880022    1    1    2    0    0  0.56289189476E+03  0.49385058283E+03  0.97303818632E+03  0.12373078228E+04  0.15294330000E+03 0.  0.
<mgrwt>
<rscale>  0 0.76428224E+03</rscale>
<asrwt>0</asrwt>
<pdfrwt beam="1">  1        2 0.18748435E+00 0.76428224E+03</pdfrwt>
<pdfrwt beam="2">  1       -2 0.21831374E+00 0.76428224E+03</pdfrwt>
<totfact> 0.19226931E+00</totfact>
</mgrwt>
</event>
<event>
 4    1  0.1104584E-007  0.3388058E+03  0.7818608E-02  0.1067306E+00
          2   -1    0    0  501    0  0.00000000000E+00  0.00000000000E+00  0.73295558464E+03  0.73295558465E+03  0.25500000000E-02 0. -1.
         -2   -1    0    0    0  501 -0.00000000000E+00 -0.00000000000E+00 -0.52194796655E+03  0.52194796656E+03  0.25500000000E-02 0.  1.
    8880022    1    1    2    0    0  0.30224160943E+03 -0.69080290372E+01  0.63044806270E+03  0.71571930540E+03  0.15294330000E+03 0.  0.
    8880022    1    1    2    0    0 -0.30224160943E+03  0.69080290372E+01 -0.41944044461E+03  0.53918424581E+03  0.15294330000E+03 0.  0.
<mgrwt>
<rscale>  0 0.33880579E+03</rscale>
<asrwt>0</asrwt>
<pdfrwt beam="1">  1        2 0.11276240E+00 0.33880579E+03</pdfrwt>
<pdfrwt beam="2">  1       -2 0.80299687E-01 0.33880579E+03</pdfrwt>
<totfact> 0.56073772E+01</totfact>
</mgrwt>
</event>
<event>
 4    1  0.1104584E-007  0.1198637E+04  0.7818608E-02  0.9114051E-01
          2   -1    0    0  501    0  0.00000000000E+00  0.00000000000E+00  0.36301806563E+04  0.36301806563E+04  0.25500000000E-02 0. -1.
         -2   -1    0    0    0  501 -0.00000000000E+00 -0.00000000000E+00 -0.62110254291E+03  0.62110254291E+03  0.25500000000E-02 0.  1.
    8880022    1    1    2    0    0  0.15727525127E+03 -0.11783899875E+04  0.27848538291E+04  0.30318543780E+04  0.15294330000E+03 0.  0.
    8880022    1    1    2    0    0 -0.15727525127E+03  0.11783899875E+04  0.22422428430E+03  0.12194288212E+04  0.15294330000E+03 0.  0.
<mgrwt>
<rscale>  0 0.11986368E+04</rscale>
<asrwt>0</asrwt>
<pdfrwt beam="1">  1        2 0.55848933E+00 0.11986368E+04</pdfrwt>
<pdfrwt beam="2">  1       -2 0.95554238E-01 0.11986368E+04</pdfrwt>
<totfact> 0.60635643E-01</totfact>
</mgrwt>
</event>
<event>
 4    1  0.1104584E-007  0.8992941E+03  0.7818608E-02  0.9426464E-01
          2   -1    0    0  501    0  0.00000000000E+00  0.00000000000E+00  0.16713802045E+04  0.16713802045E+04  0.25500000000E-02 0. -1.
         -2   -1    0    0    0  501 -0.00000000000E+00 -0.00000000000E+00 -0.50724380491E+03  0.50724380492E+03  0.25500000000E-02 0.  1.
    8880022    1    1    2    0    0 -0.88475828554E+03  0.50408988528E+02  0.34823129756E+03  0.96436247313E+03  0.15294330000E+03 0.  0.
    8880022    1    1    2    0    0  0.88475828554E+03 -0.50408988528E+02  0.81590510199E+03  0.12142615363E+04  0.15294330000E+03 0.  0.
<mgrwt>
<rscale>  0 0.89929414E+03</rscale>
<asrwt>0</asrwt>
<pdfrwt beam="1">  1        2 0.25713542E+00 0.89929414E+03</pdfrwt>
<pdfrwt beam="2">  1       -2 0.78037508E-01 0.89929414E+03</pdfrwt>
<totfact> 0.15005818E+01</totfact>
</mgrwt>
</event>
<event>
 4    1  0.1104584E-007  0.5071667E+03  0.7818608E-02  0.1011925E+00
         -2   -1    0    0    0  501 -0.00000000000E+00  0.00000000000E+00  0.39489846472E+03  0.39489846473E+03  0.25500000000E-02 0.  1.
          2   -1    0    0  501    0  0.00000000000E+00 -0.00000000000E+00 -0.11746871571E+04  0.11746871571E+04  0.25500000000E-02 0. -1.
    8880022    1    1    2    0    0  0.21135697205E+03  0.43491906138E+03 -0.91371636266E+03  0.10450337813E+04  0.15294330000E+03 0. -1.
    8880022    1    1    2    0    0 -0.21135697205E+03 -0.43491906138E+03  0.13392767027E+03  0.52455184058E+03  0.15294330000E+03 0.  0.
<mgrwt>
<rscale>  0 0.50716665E+03</rscale>
<asrwt>0</asrwt>
<pdfrwt beam="1">  1        2 0.18072110E+00 0.50716665E+03</pdfrwt>
<pdfrwt beam="2">  1       -2 0.60753611E-01 0.50716665E+03</pdfrwt>
<totfact> 0.51734231E+01</totfact>
</mgrwt>
</event>
<event>
 4    1  0.1104584E-007  0.4751724E+03  0.7818608E-02  0.1020470E+00
         -2   -1    0    0    0  501 -0.00000000000E+00  0.00000000000E+00  0.86235707245E+03  0.86235707246E+03  0.25500000000E-02 0.  1.
          2   -1    0    0  501    0  0.00000000000E+00 -0.00000000000E+00 -0.39391832962E+03  0.39391832963E+03  0.25500000000E-02 0. -1.
    8880022    1    1    2    0    0 -0.44359074724E+03  0.74996301380E+02  0.59795680563E+03  0.76376775964E+03  0.15294330000E+03 0.  0.
    8880022    1    1    2    0    0  0.44359074724E+03 -0.74996301380E+02 -0.12951806280E+03  0.49250764244E+03  0.15294330000E+03 0.  0.
<mgrwt>
<rscale>  0 0.47517244E+03</rscale>
<asrwt>0</asrwt>
<pdfrwt beam="1">  1        2 0.60602820E-01 0.47517244E+03</pdfrwt>
<pdfrwt beam="2">  1       -2 0.13267032E+00 0.47517244E+03</pdfrwt>
<totfact> 0.34584369E+01</totfact>
</mgrwt>
</event>
<event>
 4    1  0.1104584E-007  0.6692148E+03  0.7818608E-02  0.9771377E-01
         -2   -1    0    0    0  501 -0.00000000000E+00  0.00000000000E+00  0.83802847407E+03  0.83802847408E+03  0.25500000000E-02 0.  1.
          2   -1    0    0  501    0  0.00000000000E+00 -0.00000000000E+00 -0.11246344720E+04  0.11246344720E+04  0.25500000000E-02 0. -1.
    8880022    1    1    2    0    0 -0.43841458864E+03 -0.48192262664E+03  0.56761527945E+03  0.87751668251E+03  0.15294330000E+03 0.  0.
    8880022    1    1    2    0    0  0.43841458864E+03  0.48192262664E+03 -0.85422127740E+03  0.10851462636E+04  0.15294330000E+03 0.  0.
<mgrwt>
<rscale>  0 0.66921478E+03</rscale>
<asrwt>0</asrwt>
<pdfrwt beam="1">  1        2 0.17302069E+00 0.66921478E+03</pdfrwt>
<pdfrwt beam="2">  1       -2 0.12892746E+00 0.66921478E+03</pdfrwt>
<totfact> 0.96102136E+00</totfact>
</mgrwt>
</event>
<event>
 4    1  0.1104584E-007  0.5779803E+03  0.7818608E-02  0.9952173E-01
         -2   -1    0    0    0  501 -0.00000000000E+00  0.00000000000E+00  0.96967010310E+03  0.96967010310E+03  0.25500000000E-02 0.  1.
          2   -1    0    0  501    0  0.00000000000E+00 -0.00000000000E+00 -0.19738408137E+04  0.19738408137E+04  0.25500000000E-02 0. -1.
    8880022    1    1    2    0    0 -0.20256129331E+03  0.51926722874E+03  0.83507720852E+03  0.10155861015E+04  0.15294330000E+03 0.  0.
    8880022    1    1    2    0    0  0.20256129331E+03 -0.51926722874E+03 -0.18392479191E+04  0.19279248153E+04  0.15294330000E+03 0.  0.
<mgrwt>
<rscale>  0 0.57798026E+03</rscale>
<asrwt>0</asrwt>
<pdfrwt beam="1">  1        2 0.30366782E+00 0.57798026E+03</pdfrwt>
<pdfrwt beam="2">  1       -2 0.14918002E+00 0.57798026E+03</pdfrwt>
<totfact> 0.22584862E+00</totfact>
</mgrwt>
</event>
<event>
 4    1  0.1104584E-007  0.5944287E+03  0.7818608E-02  0.9917033E-01
         -2   -1    0    0    0  501 -0.00000000000E+00  0.00000000000E+00  0.13245615638E+04  0.13245615638E+04  0.25500000000E-02 0.  1.
          2   -1    0    0  501    0  0.00000000000E+00 -0.00000000000E+00 -0.39082420642E+03  0.39082420643E+03  0.25500000000E-02 0. -1.
    8880022    1    1    2    0    0  0.40720277512E+03  0.40514167457E+03 -0.16364873269E+02  0.59465396545E+03  0.15294330000E+03 0. -1.
    8880022    1    1    2    0    0 -0.40720277512E+03 -0.40514167457E+03  0.95010223067E+03  0.11207318048E+04  0.15294330000E+03 0.  0.
<mgrwt>
<rscale>  0 0.59442874E+03</rscale>
<asrwt>0</asrwt>
<pdfrwt beam="1">  1        2 0.60126801E-01 0.59442874E+03</pdfrwt>
<pdfrwt beam="2">  1       -2 0.20377870E+00 0.59442874E+03</pdfrwt>
<totfact> 0.10639364E+01</totfact>
</mgrwt>
</event>
<event>
 4    1  0.1104584E-007  0.8035830E+03  0.7818608E-02  0.9554845E-01
          2   -1    0    0  501    0  0.00000000000E+00  0.00000000000E+00  0.17480453814E+04  0.17480453814E+04  0.25500000000E-02 0. -1.
         -2   -1    0    0    0  501 -0.00000000000E+00 -0.00000000000E+00 -0.57923153384E+03  0.57923153384E+03  0.25500000000E-02 0.  1.
    8880022    1    1    2    0    0 -0.20153842072E+03 -0.76271633206E+03 -0.11594594057E+03  0.81190458329E+03  0.15294330000E+03 0.  0.
    8880022    1    1    2    0    0  0.20153842072E+03  0.76271633206E+03  0.12847597881E+04  0.15153723320E+04  0.15294330000E+03 0.  0.
<mgrwt>
<rscale>  0 0.80358297E+03</rscale>
<asrwt>0</asrwt>
<pdfrwt beam="1">  1        2 0.26893006E+00 0.80358297E+03</pdfrwt>
<pdfrwt beam="2">  1       -2 0.89112542E-01 0.80358297E+03</pdfrwt>
<totfact> 0.10190491E+01</totfact>
</mgrwt>
</event>
<event>
 4    1  0.1104584E-007  0.1289094E+04  0.7818608E-02  0.9038259E-01
          2   -1    0    0  501    0  0.00000000000E+00  0.00000000000E+00  0.97458785150E+03  0.97458785151E+03  0.25500000000E-02 0. -1.
         -2   -1    0    0    0  501 -0.00000000000E+00 -0.00000000000E+00 -0.21405753854E+04  0.21405753854E+04  0.25500000000E-02 0.  1.
    8880022    1    1    2    0    0  0.12798069387E+04 -0.21588405102E+02  0.11954540559E+03  0.12946252804E+04  0.15294330000E+03 0.  0.
    8880022    1    1    2    0    0 -0.12798069387E+04  0.21588405102E+02 -0.12855329395E+04  0.18205379565E+04  0.15294330000E+03 0.  0.
<mgrwt>
<rscale>  0 0.12890941E+04</rscale>
<asrwt>0</asrwt>
<pdfrwt beam="1">  1        2 0.14993659E+00 0.12890941E+04</pdfrwt>
<pdfrwt beam="2">  1       -2 0.32931929E+00 0.12890941E+04</pdfrwt>
<totfact> 0.53233009E-01</totfact>
</mgrwt>
</event>
<event>
 4    1  0.1104584E-007  0.1660223E+03  0.7818608E-02  0.1182061E+00
         -2   -1    0    0    0  501 -0.00000000000E+00  0.00000000000E+00  0.14172305685E+03  0.14172305687E+03  0.25500000000E-02 0.  1.
          2   -1    0    0  501    0  0.00000000000E+00 -0.00000000000E+00 -0.82960988767E+03  0.82960988768E+03  0.25500000000E-02 0. -1.
    8880022    1    1    2    0    0 -0.64585205984E+02 -0.71213427448E+00 -0.76888551894E+03  0.78660558745E+03  0.15294330000E+03 0.  0.
    8880022    1    1    2    0    0  0.64585205984E+02  0.71213427448E+00  0.80998688111E+02  0.18472735709E+03  0.15294330000E+03 0.  1.
<mgrwt>
<rscale>  0 0.16602231E+03</rscale>
<asrwt>0</asrwt>
<pdfrwt beam="1">  1        2 0.12763229E+00 0.16602231E+03</pdfrwt>
<pdfrwt beam="2">  1       -2 0.21803548E-01 0.16602231E+03</pdfrwt>
<totfact> 0.61889068E+02</totfact>
</mgrwt>
</event>
<event>
 4    1  0.1104584E-007  0.3556901E+03  0.7818608E-02  0.1060304E+00
          2   -1    0    0  501    0  0.00000000000E+00  0.00000000000E+00  0.17969656661E+03  0.17969656663E+03  0.25500000000E-02 0. -1.
         -2   -1    0    0    0  501 -0.00000000000E+00 -0.00000000000E+00 -0.92328583328E+03  0.92328583329E+03  0.25500000000E-02 0.  1.
    8880022    1    1    2    0    0  0.22434410967E+03 -0.22976840956E+03 -0.10305866843E+03  0.37031951573E+03  0.15294330000E+03 0.  0.
    8880022    1    1    2    0    0 -0.22434410967E+03  0.22976840956E+03 -0.64053059824E+03  0.73266288419E+03  0.15294330000E+03 0.  0.
<mgrwt>
<rscale>  0 0.35569011E+03</rscale>
<asrwt>0</asrwt>
<pdfrwt beam="1">  1        2 0.27645626E-01 0.35569011E+03</pdfrwt>
<pdfrwt beam="2">  1       -2 0.14204397E+00 0.35569011E+03</pdfrwt>
<totfact> 0.69949244E+01</totfact>
</mgrwt>
</event>
<event>
 4    1  0.1104584E-007  0.4553166E+03  0.7818608E-02  0.1026148E+00
         -2   -1    0    0    0  501 -0.00000000000E+00  0.00000000000E+00  0.52659332955E+03  0.52659332956E+03  0.25500000000E-02 0.  1.
          2   -1    0    0  501    0  0.00000000000E+00 -0.00000000000E+00 -0.11090354703E+04  0.11090354703E+04  0.25500000000E-02 0. -1.
    8880022    1    1    2    0    0 -0.38198386891E+03  0.19496125732E+03 -0.94803250382E+03  0.10517028332E+04  0.15294330000E+03 0.  0.
    8880022    1    1    2    0    0  0.38198386891E+03 -0.19496125732E+03  0.36559036310E+03  0.58392596668E+03  0.15294330000E+03 0.  0.
<mgrwt>
<rscale>  0 0.45531662E+03</rscale>
<asrwt>0</asrwt>
<pdfrwt beam="1">  1        2 0.17062084E+00 0.45531662E+03</pdfrwt>
<pdfrwt beam="2">  1       -2 0.81014359E-01 0.45531662E+03</pdfrwt>
<totfact> 0.30541221E+01</totfact>
</mgrwt>
</event>
<event>
 4    1  0.1104584E-007  0.2292948E+03  0.7818608E-02  0.1127137E+00
         -2   -1    0    0    0  501 -0.00000000000E+00  0.00000000000E+00  0.67383135987E+02  0.67383136035E+02  0.25500000000E-02 0.  1.
          2   -1    0    0  501    0  0.00000000000E+00 -0.00000000000E+00 -0.18309371453E+04  0.18309371453E+04  0.25500000000E-02 0. -1.
    8880022    1    1    2    0    0  0.81097566679E+02 -0.15035838989E+03 -0.16007924005E+04  0.16171309233E+04  0.15294330000E+03 0.  0.
    8880022    1    1    2    0    0 -0.81097566679E+02  0.15035838989E+03 -0.16276160883E+03  0.28118935801E+03  0.15294330000E+03 0.  1.
<mgrwt>
<rscale>  0 0.22929482E+03</rscale>
<asrwt>0</asrwt>
<pdfrwt beam="1">  1        2 0.28168260E+00 0.22929482E+03</pdfrwt>
<pdfrwt beam="2">  1       -2 0.10366638E-01 0.22929482E+03</pdfrwt>
<totfact> 0.57611998E+02</totfact>
</mgrwt>
</event>
<event>
 4    1  0.1104584E-007  0.3779398E+03  0.7818608E-02  0.1051698E+00
         -2   -1    0    0    0  501 -0.00000000000E+00  0.00000000000E+00  0.34689578449E+03  0.34689578450E+03  0.25500000000E-02 0.  1.
          2   -1    0    0  501    0  0.00000000000E+00 -0.00000000000E+00 -0.18942807174E+04  0.18942807174E+04  0.25500000000E-02 0. -1.
    8880022    1    1    2    0    0 -0.24363755666E+03 -0.24512763228E+03  0.21765066609E+03  0.43613103603E+03  0.15294330000E+03 0.  1.
    8880022    1    1    2    0    0  0.24363755666E+03  0.24512763228E+03 -0.17650355990E+04  0.18050454659E+04  0.15294330000E+03 0.  0.
<mgrwt>
<rscale>  0 0.37793977E+03</rscale>
<asrwt>0</asrwt>
<pdfrwt beam="1">  1        2 0.29142780E+00 0.37793977E+03</pdfrwt>
<pdfrwt beam="2">  1       -2 0.53368584E-01 0.37793977E+03</pdfrwt>
<totfact> 0.27923742E+01</totfact>
</mgrwt>
</event>
<event>
 4    1  0.1104584E-007  0.6982866E+03  0.7818608E-02  0.9720167E-01
          2   -1    0    0  501    0  0.00000000000E+00  0.00000000000E+00  0.24473465233E+04  0.24473465233E+04  0.25500000000E-02 0. -1.
         -2   -1    0    0    0  501 -0.00000000000E+00 -0.00000000000E+00 -0.41983259582E+03  0.41983259583E+03  0.25500000000E-02 0.  1.
    8880022    1    1    2    0    0  0.38128879724E+03  0.56465156143E+03  0.20529214200E+04  0.21684304330E+04  0.15294330000E+03 0.  0.
    8880022    1    1    2    0    0 -0.38128879724E+03 -0.56465156143E+03 -0.25407492551E+02  0.69874868617E+03  0.15294330000E+03 0.  0.
<mgrwt>
<rscale>  0 0.69828661E+03</rscale>
<asrwt>0</asrwt>
<pdfrwt beam="1">  1        2 0.37651485E+00 0.69828661E+03</pdfrwt>
<pdfrwt beam="2">  1       -2 0.64589631E-01 0.69828661E+03</pdfrwt>
<totfact> 0.87335852E+00</totfact>
</mgrwt>
</event>
<event>
 4    1  0.1104584E-007  0.2413983E+03  0.7818608E-02  0.1118865E+00
         -2   -1    0    0    0  501 -0.00000000000E+00  0.00000000000E+00  0.36396125291E+02  0.36396125381E+02  0.25500000000E-02 0.  1.
          2   -1    0    0  501    0  0.00000000000E+00 -0.00000000000E+00 -0.34401273402E+04  0.34401273402E+04  0.25500000000E-02 0. -1.
    8880022    1    1    2    0    0  0.15538756666E+03 -0.10361548950E+03 -0.29728035093E+04  0.29825884435E+04  0.15294330000E+03 0.  0.
    8880022    1    1    2    0    0 -0.15538756666E+03  0.10361548950E+03 -0.43092770559E+03  0.49393502204E+03  0.15294330000E+03 0.  1.
<mgrwt>
<rscale>  0 0.24139826E+03</rscale>
<asrwt>0</asrwt>
<pdfrwt beam="1">  1        2 0.52925011E+00 0.24139826E+03</pdfrwt>
<pdfrwt beam="2">  1       -2 0.55994066E-02 0.24139826E+03</pdfrwt>
<totfact> 0.18492119E+02</totfact>
</mgrwt>
</event>
<event>
 4    1  0.1104584E-007  0.2372148E+03  0.7818608E-02  0.1121662E+00
         -2   -1    0    0    0  501 -0.00000000000E+00  0.00000000000E+00  0.10256389039E+04  0.10256389039E+04  0.25500000000E-02 0.  1.
          2   -1    0    0  501    0  0.00000000000E+00 -0.00000000000E+00 -0.28828661392E+03  0.28828661393E+03  0.25500000000E-02 0. -1.
    8880022    1    1    2    0    0 -0.68433439738E+02  0.16791693052E+03 -0.22247667694E+03  0.32521801307E+03  0.15294330000E+03 0. -1.
    8880022    1    1    2    0    0  0.68433439738E+02 -0.16791693052E+03  0.95982896691E+03  0.98870750476E+03  0.15294330000E+03 0.  0.
<mgrwt>
<rscale>  0 0.23721485E+03</rscale>
<asrwt>0</asrwt>
<pdfrwt beam="1">  1        2 0.44351786E-01 0.23721485E+03</pdfrwt>
<pdfrwt beam="2">  1       -2 0.15779060E+00 0.23721485E+03</pdfrwt>
<totfact> 0.32221638E+01</totfact>
</mgrwt>
</event>
<event>
 4    1  0.1104584E-007  0.3026733E+03  0.7818608E-02  0.1083912E+00
         -2   -1    0    0    0  501 -0.00000000000E+00  0.00000000000E+00  0.62232285747E+03  0.62232285748E+03  0.25500000000E-02 0.  1.
          2   -1    0    0  501    0  0.00000000000E+00 -0.00000000000E+00 -0.46141163351E+03  0.46141163352E+03  0.25500000000E-02 0. -1.
    8880022    1    1    2    0    0  0.23511410673E+02  0.26012816502E+03 -0.36669518672E+03  0.47547498530E+03  0.15294330000E+03 0.  0.
    8880022    1    1    2    0    0 -0.23511410673E+02 -0.26012816502E+03  0.52760641068E+03  0.60825950570E+03  0.15294330000E+03 0.  0.
<mgrwt>
<rscale>  0 0.30267326E+03</rscale>
<asrwt>0</asrwt>
<pdfrwt beam="1">  1        2 0.70986405E-01 0.30267326E+03</pdfrwt>
<pdfrwt beam="2">  1       -2 0.95741978E-01 0.30267326E+03</pdfrwt>
<totfact> 0.65099849E+01</totfact>
</mgrwt>
</event>
<event>
 4    1  0.1104584E-007  0.5301104E+03  0.7818608E-02  0.1006205E+00
         -2   -1    0    0    0  501 -0.00000000000E+00  0.00000000000E+00  0.66697534937E+03  0.66697534937E+03  0.25500000000E-02 0.  1.
          2   -1    0    0  501    0  0.00000000000E+00 -0.00000000000E+00 -0.96427359875E+03  0.96427359875E+03  0.25500000000E-02 0. -1.
    8880022    1    1    2    0    0  0.50690874065E+03  0.25862707141E+02  0.46337325271E+03  0.70408222198E+03  0.15294330000E+03 0.  0.
    8880022    1    1    2    0    0 -0.50690874065E+03 -0.25862707141E+02 -0.76067150209E+03  0.92716672615E+03  0.15294330000E+03 0.  0.
<mgrwt>
<rscale>  0 0.53011037E+03</rscale>
<asrwt>0</asrwt>
<pdfrwt beam="1">  1        2 0.14834979E+00 0.53011037E+03</pdfrwt>
<pdfrwt beam="2">  1       -2 0.10261159E+00 0.53011037E+03</pdfrwt>
<totfact> 0.21538316E+01</totfact>
</mgrwt>
</event>
<event>
 4    1  0.1104584E-007  0.5923701E+03  0.7818608E-02  0.9921363E-01
          2   -1    0    0  501    0  0.00000000000E+00  0.00000000000E+00  0.33106815783E+04  0.33106815783E+04  0.25500000000E-02 0. -1.
         -2   -1    0    0    0  501 -0.00000000000E+00 -0.00000000000E+00 -0.11400308209E+03  0.11400308212E+03  0.25500000000E-02 0.  1.
    8880022    1    1    2    0    0  0.54691589071E+03 -0.16850418432E+03  0.20522873363E+04  0.21360677928E+04  0.15294330000E+03 0. -1.
    8880022    1    1    2    0    0 -0.54691589071E+03  0.16850418432E+03  0.11443911599E+04  0.12886168677E+04  0.15294330000E+03 0.  1.
<mgrwt>
<rscale>  0 0.59237007E+03</rscale>
<asrwt>0</asrwt>
<pdfrwt beam="1">  1        2 0.50933554E+00 0.59237007E+03</pdfrwt>
<pdfrwt beam="2">  1       -2 0.17538939E-01 0.59237007E+03</pdfrwt>
<totfact> 0.32299776E+01</totfact>
</mgrwt>
</event>
<event>
 4    1  0.1104584E-007  0.1141122E+04  0.7818608E-02  0.9166013E-01
          2   -1    0    0  501    0  0.00000000000E+00  0.00000000000E+00  0.20305460664E+04  0.20305460664E+04  0.25500000000E-02 0. -1.
         -2   -1    0    0    0  501 -0.00000000000E+00 -0.00000000000E+00 -0.12853895098E+04  0.12853895098E+04  0.25500000000E-02 0.  1.
    8880022    1    1    2    0    0  0.30964736532E+03 -0.10876055979E+04  0.15462234743E+04  0.19217091645E+04  0.15294330000E+03 0.  0.
    8880022    1    1    2    0    0 -0.30964736532E+03  0.10876055979E+04 -0.80106691771E+03  0.13942264117E+04  0.15294330000E+03 0.  0.
<mgrwt>
<rscale>  0 0.11411219E+04</rscale>
<asrwt>0</asrwt>
<pdfrwt beam="1">  1        2 0.31239170E+00 0.11411219E+04</pdfrwt>
<pdfrwt beam="2">  1       -2 0.19775223E+00 0.11411219E+04</pdfrwt>
<totfact> 0.86557113E-01</totfact>
</mgrwt>
</event>
<event>
 4    1  0.1104584E-007  0.5075084E+03  0.7818608E-02  0.1011837E+00
          2   -1    0    0  501    0  0.00000000000E+00  0.00000000000E+00  0.24382244132E+04  0.24382244132E+04  0.25500000000E-02 0. -1.
         -2   -1    0    0    0  501 -0.00000000000E+00 -0.00000000000E+00 -0.27549470165E+03  0.27549470166E+03  0.25500000000E-02 0.  1.
    8880022    1    1    2    0    0  0.43299138987E+03  0.21608234729E+03  0.15942246307E+02  0.50775873478E+03  0.15294330000E+03 0.  0.
    8880022    1    1    2    0    0 -0.43299138987E+03 -0.21608234729E+03  0.21467874652E+04  0.22059603800E+04  0.15294330000E+03 0.  0.
<mgrwt>
<rscale>  0 0.50750840E+03</rscale>
<asrwt>0</asrwt>
<pdfrwt beam="1">  1        2 0.37511147E+00 0.50750840E+03</pdfrwt>
<pdfrwt beam="2">  1       -2 0.42383798E-01 0.50750840E+03</pdfrwt>
<totfact> 0.21764605E+01</totfact>
</mgrwt>
</event>
<event>
 4    1  0.1104584E-007  0.3625170E+03  0.7818608E-02  0.1057592E+00
          2   -1    0    0  501    0  0.00000000000E+00  0.00000000000E+00  0.41738771099E+03  0.41738771100E+03  0.25500000000E-02 0. -1.
         -2   -1    0    0    0  501 -0.00000000000E+00 -0.00000000000E+00 -0.14137599997E+04  0.14137599997E+04  0.25500000000E-02 0.  1.
    8880022    1    1    2    0    0  0.32517409406E+03 -0.47840769747E+02 -0.13053926938E+04  0.13547946962E+04  0.15294330000E+03 0.  0.
    8880022    1    1    2    0    0 -0.32517409406E+03  0.47840769747E+02  0.30902040509E+03  0.47635301455E+03  0.15294330000E+03 0.  0.
<mgrwt>
<rscale>  0 0.36251701E+03</rscale>
<asrwt>0</asrwt>
<pdfrwt beam="1">  1        2 0.64213495E-01 0.36251701E+03</pdfrwt>
<pdfrwt beam="2">  1       -2 0.21750154E+00 0.36251701E+03</pdfrwt>
<totfact> 0.84344622E+00</totfact>
</mgrwt>
</event>
<event>
 4    1  0.1104584E-007  0.5553759E+03  0.7818608E-02  0.1000257E+00
         -2   -1    0    0    0  501 -0.00000000000E+00  0.00000000000E+00  0.21641045482E+03  0.21641045483E+03  0.25500000000E-02 0.  1.
          2   -1    0    0  501    0  0.00000000000E+00 -0.00000000000E+00 -0.20365271554E+04  0.20365271554E+04  0.25500000000E-02 0. -1.
    8880022    1    1    2    0    0  0.48754458937E+03  0.21760285427E+03 -0.15272038970E+04  0.16250520376E+04  0.15294330000E+03 0.  0.
    8880022    1    1    2    0    0 -0.48754458937E+03 -0.21760285427E+03 -0.29291280354E+03  0.62788557262E+03  0.15294330000E+03 0.  0.
<mgrwt>
<rscale>  0 0.55537589E+03</rscale>
<asrwt>0</asrwt>
<pdfrwt beam="1">  1        2 0.31331186E+00 0.55537589E+03</pdfrwt>
<pdfrwt beam="2">  1       -2 0.33293918E-01 0.55537589E+03</pdfrwt>
<totfact> 0.56840063E+01</totfact>
</mgrwt>
</event>
<event>
 4    1  0.1104584E-007  0.4118367E+03  0.7818608E-02  0.1039756E+00
          2   -1    0    0  501    0  0.00000000000E+00  0.00000000000E+00  0.13058342828E+04  0.13058342828E+04  0.25500000000E-02 0. -1.
         -2   -1    0    0    0  501 -0.00000000000E+00 -0.00000000000E+00 -0.61734689087E+03  0.61734689087E+03  0.25500000000E-02 0.  1.
    8880022    1    1    2    0    0 -0.20981240686E+03 -0.31968191806E+03 -0.51022373847E+03  0.65569634063E+03  0.15294330000E+03 0.  0.
    8880022    1    1    2    0    0  0.20981240686E+03  0.31968191806E+03  0.11987111304E+04  0.12674848330E+04  0.15294330000E+03 0.  0.
<mgrwt>
<rscale>  0 0.41183665E+03</rscale>
<asrwt>0</asrwt>
<pdfrwt beam="1">  1        2 0.20089758E+00 0.41183665E+03</pdfrwt>
<pdfrwt beam="2">  1       -2 0.94976444E-01 0.41183665E+03</pdfrwt>
<totfact> 0.16492234E+01</totfact>
</mgrwt>
</event>
<event>
 4    1  0.1104584E-007  0.2711651E+03  0.7818608E-02  0.1100615E+00
          2   -1    0    0  501    0  0.00000000000E+00  0.00000000000E+00  0.85327125050E+02  0.85327125088E+02  0.25500000000E-02 0. -1.
         -2   -1    0    0    0  501 -0.00000000000E+00 -0.00000000000E+00 -0.20895914804E+04  0.20895914804E+04  0.25500000000E-02 0.  1.
    8880022    1    1    2    0    0 -0.17483176527E+03 -0.13990246844E+03 -0.16853971281E+03  0.31927438768E+03  0.15294330000E+03 0. -1.
    8880022    1    1    2    0    0  0.17483176527E+03  0.13990246844E+03 -0.18357246425E+04  0.18556442178E+04  0.15294330000E+03 0.  0.
<mgrwt>
<rscale>  0 0.27116508E+03</rscale>
<asrwt>0</asrwt>
<pdfrwt beam="1">  1        2 0.13127252E-01 0.27116508E+03</pdfrwt>
<pdfrwt beam="2">  1       -2 0.32147557E+00 0.27116508E+03</pdfrwt>
<totfact> 0.12526163E+01</totfact>
</mgrwt>
</event>
<event>
 4    1  0.1104584E-007  0.5348132E+03  0.7818608E-02  0.1005071E+00
         -2   -1    0    0    0  501 -0.00000000000E+00  0.00000000000E+00  0.22388024004E+03  0.22388024006E+03  0.25500000000E-02 0.  1.
          2   -1    0    0  501    0  0.00000000000E+00 -0.00000000000E+00 -0.20195942416E+04  0.20195942416E+04  0.25500000000E-02 0. -1.
    8880022    1    1    2    0    0  0.10615671615E+03  0.50136237274E+03 -0.15777881198E+04  0.16659653301E+04  0.15294330000E+03 0.  0.
    8880022    1    1    2    0    0 -0.10615671615E+03 -0.50136237274E+03 -0.21792588180E+03  0.57750915157E+03  0.15294330000E+03 0. -1.
<mgrwt>
<rscale>  0 0.53481317E+03</rscale>
<asrwt>0</asrwt>
<pdfrwt beam="1">  1        2 0.31070680E+00 0.53481317E+03</pdfrwt>
<pdfrwt beam="2">  1       -2 0.34443115E-01 0.53481317E+03</pdfrwt>
<totfact> 0.54640963E+01</totfact>
</mgrwt>
</event>
<event>
 4    1  0.1104584E-007  0.1286656E+04  0.7818608E-02  0.9040215E-01
         -2   -1    0    0    0  501 -0.00000000000E+00  0.00000000000E+00  0.21412073314E+04  0.21412073314E+04  0.25500000000E-02 0.  1.
          2   -1    0    0  501    0  0.00000000000E+00 -0.00000000000E+00 -0.12584778086E+04  0.12584778086E+04  0.25500000000E-02 0. -1.
    8880022    1    1    2    0    0 -0.65913098695E+03 -0.10943663154E+04  0.14969704782E+04  0.19739309907E+04  0.15294330000E+03 0.  0.
    8880022    1    1    2    0    0  0.65913098695E+03  0.10943663154E+04 -0.61424095541E+03  0.14257541494E+04  0.15294330000E+03 0.  0.
<mgrwt>
<rscale>  0 0.12866557E+04</rscale>
<asrwt>0</asrwt>
<pdfrwt beam="1">  1        2 0.19361197E+00 0.12866557E+04</pdfrwt>
<pdfrwt beam="2">  1       -2 0.32941651E+00 0.12866557E+04</pdfrwt>
<totfact> 0.35430615E-01</totfact>
</mgrwt>
</event>
<event>
 4    1  0.1104584E-007  0.8503880E+03  0.7818608E-02  0.9489816E-01
          2   -1    0    0  501    0  0.00000000000E+00  0.00000000000E+00  0.10587339282E+04  0.10587339282E+04  0.25500000000E-02 0. -1.
         -2   -1    0    0    0  501 -0.00000000000E+00 -0.00000000000E+00 -0.17296174340E+04  0.17296174341E+04  0.25500000000E-02 0.  1.
    8880022    1    1    2    0    0  0.67730663855E+03  0.49094175839E+03 -0.14199372246E+04  0.16551076906E+04  0.15294330000E+03 0.  0.
    8880022    1    1    2    0    0 -0.67730663855E+03 -0.49094175839E+03  0.74905371870E+03  0.11332436716E+04  0.15294330000E+03 0.  0.
<mgrwt>
<rscale>  0 0.85038800E+03</rscale>
<asrwt>0</asrwt>
<pdfrwt beam="1">  1        2 0.16288214E+00 0.85038800E+03</pdfrwt>
<pdfrwt beam="2">  1       -2 0.26609499E+00 0.85038800E+03</pdfrwt>
<totfact> 0.12083888E+00</totfact>
</mgrwt>
</event>
<event>
 4    1  0.1104584E-007  0.4628849E+03  0.7818608E-02  0.1023948E+00
         -2   -1    0    0    0  501 -0.00000000000E+00  0.00000000000E+00  0.14970849016E+04  0.14970849016E+04  0.25500000000E-02 0.  1.
          2   -1    0    0  501    0  0.00000000000E+00 -0.00000000000E+00 -0.41748413347E+03  0.41748413347E+03  0.25500000000E-02 0. -1.
    8880022    1    1    2    0    0 -0.61102805170E+02  0.43259361386E+03 -0.23624103569E+03  0.51968477706E+03  0.15294330000E+03 0.  0.
    8880022    1    1    2    0    0  0.61102805170E+02 -0.43259361386E+03  0.13158418038E+04  0.13948842580E+04  0.15294330000E+03 0.  0.
<mgrwt>
<rscale>  0 0.46288491E+03</rscale>
<asrwt>0</asrwt>
<pdfrwt beam="1">  1        2 0.64228329E-01 0.46288491E+03</pdfrwt>
<pdfrwt beam="2">  1       -2 0.23032075E+00 0.46288491E+03</pdfrwt>
<totfact> 0.68904870E+00</totfact>
</mgrwt>
</event>
<event>
 4    1  0.1104584E-007  0.5867974E+03  0.7818608E-02  0.9933182E-01
          2   -1    0    0  501    0  0.00000000000E+00  0.00000000000E+00  0.20729896907E+04  0.20729896907E+04  0.25500000000E-02 0. -1.
         -2   -1    0    0    0  501 -0.00000000000E+00 -0.00000000000E+00 -0.10199784191E+04  0.10199784191E+04  0.25500000000E-02 0.  1.
    8880022    1    1    2    0    0 -0.43482016818E+03  0.36314033498E+03  0.19414750357E+04  0.20282150894E+04  0.15294330000E+03 0.  0.
    8880022    1    1    2    0    0  0.43482016818E+03 -0.36314033498E+03 -0.88846376409E+03  0.10647530205E+04  0.15294330000E+03 0.  0.
<mgrwt>
<rscale>  0 0.58679735E+03</rscale>
<asrwt>0</asrwt>
<pdfrwt beam="1">  1        2 0.31892149E+00 0.58679735E+03</pdfrwt>
<pdfrwt beam="2">  1       -2 0.15691976E+00 0.58679735E+03</pdfrwt>
<totfact> 0.17416379E+00</totfact>
</mgrwt>
</event>
<event>
 4    1  0.1104584E-007  0.6064257E+03  0.7818608E-02  0.9892164E-01
          2   -1    0    0  501    0  0.00000000000E+00  0.00000000000E+00  0.44910588358E+04  0.44910588358E+04  0.25500000000E-02 0. -1.
         -2   -1    0    0    0  501 -0.00000000000E+00 -0.00000000000E+00 -0.19682122558E+03  0.19682122560E+03  0.25500000000E-02 0.  1.
    8880022    1    1    2    0    0  0.53769192066E+03  0.23504858488E+03  0.39382948165E+04  0.39847105483E+04  0.15294330000E+03 0.  0.
    8880022    1    1    2    0    0 -0.53769192066E+03 -0.23504858488E+03  0.35594279374E+03  0.70316951315E+03  0.15294330000E+03 0.  0.
<mgrwt>
<rscale>  0 0.60642567E+03</rscale>
<asrwt>0</asrwt>
<pdfrwt beam="1">  1        2 0.69093210E+00 0.60642567E+03</pdfrwt>
<pdfrwt beam="2">  1       -2 0.30280190E-01 0.60642567E+03</pdfrwt>
<totfact> 0.14974514E+00</totfact>
</mgrwt>
</event>
<event>
 4    1  0.1104584E-007  0.5099721E+03  0.7818608E-02  0.1011208E+00
         -2   -1    0    0    0  501 -0.00000000000E+00  0.00000000000E+00  0.16492468804E+03  0.16492468806E+03  0.25500000000E-02 0.  1.
          2   -1    0    0  501    0  0.00000000000E+00 -0.00000000000E+00 -0.18496610492E+04  0.18496610492E+04  0.25500000000E-02 0. -1.
    8880022    1    1    2    0    0 -0.10774658146E+03 -0.47441604563E+03 -0.12291731650E+04  0.13307660323E+04  0.15294330000E+03 0.  0.
    8880022    1    1    2    0    0  0.10774658146E+03  0.47441604563E+03 -0.45556319612E+03  0.68381970492E+03  0.15294330000E+03 0.  0.
<mgrwt>
<rscale>  0 0.50997212E+03</rscale>
<asrwt>0</asrwt>
<pdfrwt beam="1">  1        2 0.28456322E+00 0.50997212E+03</pdfrwt>
<pdfrwt beam="2">  1       -2 0.25373030E-01 0.50997212E+03</pdfrwt>
<totfact> 0.11888248E+02</totfact>
</mgrwt>
</event>
<event>
 4    1  0.1104584E-007  0.1124645E+04  0.7818608E-02  0.9181499E-01
          2   -1    0    0  501    0  0.00000000000E+00  0.00000000000E+00  0.62899538664E+03  0.62899538664E+03  0.25500000000E-02 0. -1.
         -2   -1    0    0    0  501 -0.00000000000E+00 -0.00000000000E+00 -0.23736202007E+04  0.23736202007E+04  0.25500000000E-02 0.  1.
    8880022    1    1    2    0    0  0.43090178878E+03 -0.10275008129E+04 -0.14592202123E+04  0.18423217833E+04  0.15294330000E+03 0.  0.
    8880022    1    1    2    0    0 -0.43090178878E+03  0.10275008129E+04 -0.28540460172E+03  0.11602938041E+04  0.15294330000E+03 0.  0.
<mgrwt>
<rscale>  0 0.11246448E+04</rscale>
<asrwt>0</asrwt>
<pdfrwt beam="1">  1        2 0.96768522E-01 0.11246448E+04</pdfrwt>
<pdfrwt beam="2">  1       -2 0.36517233E+00 0.11246448E+04</pdfrwt>
<totfact> 0.58274042E-01</totfact>
</mgrwt>
</event>
<event>
 4    1  0.1104584E-007  0.2908661E+03  0.7818608E-02  0.1089898E+00
          2   -1    0    0  501    0  0.00000000000E+00  0.00000000000E+00  0.89379107380E+03  0.89379107381E+03  0.25500000000E-02 0. -1.
         -2   -1    0    0    0  501 -0.00000000000E+00 -0.00000000000E+00 -0.88728983878E+03  0.88728983878E+03  0.25500000000E-02 0.  1.
    8880022    1    1    2    0    0 -0.24406738456E+03 -0.40528381422E+02  0.84495013999E+03  0.89361279646E+03  0.15294330000E+03 0.  0.
    8880022    1    1    2    0    0  0.24406738456E+03  0.40528381422E+02 -0.83844890496E+03  0.88746811614E+03  0.15294330000E+03 0.  1.
<mgrwt>
<rscale>  0 0.29086610E+03</rscale>
<asrwt>0</asrwt>
<pdfrwt beam="1">  1        2 0.13750632E+00 0.29086610E+03</pdfrwt>
<pdfrwt beam="2">  1       -2 0.13650613E+00 0.29086610E+03</pdfrwt>
<totfact> 0.12508452E+01</totfact>
</mgrwt>
</event>
<event>
 4    1  0.1104584E-007  0.8326930E+03  0.7818608E-02  0.9513865E-01
          2   -1    0    0  501    0  0.00000000000E+00  0.00000000000E+00  0.24322675628E+04  0.24322675629E+04  0.25500000000E-02 0. -1.
         -2   -1    0    0    0  501 -0.00000000000E+00 -0.00000000000E+00 -0.83597135641E+03  0.83597135641E+03  0.25500000000E-02 0.  1.
    8880022    1    1    2    0    0  0.67938288955E+03 -0.45653571641E+03 -0.52840067391E+03  0.98619718929E+03  0.15294330000E+03 0.  0.
    8880022    1    1    2    0    0 -0.67938288955E+03  0.45653571641E+03  0.21246968803E+04  0.22820417300E+04  0.15294330000E+03 0. -1.
<mgrwt>
<rscale>  0 0.83269300E+03</rscale>
<asrwt>0</asrwt>
<pdfrwt beam="1">  1        2 0.37419500E+00 0.83269300E+03</pdfrwt>
<pdfrwt beam="2">  1       -2 0.12861098E+00 0.83269300E+03</pdfrwt>
<totfact> 0.17558834E+00</totfact>
</mgrwt>
</event>
<event>
 4    1  0.1104584E-007  0.8595128E+03  0.7818608E-02  0.9477657E-01
          2   -1    0    0  501    0  0.00000000000E+00  0.00000000000E+00  0.10979315634E+04  0.10979315634E+04  0.25500000000E-02 0. -1.
         -2   -1    0    0    0  501 -0.00000000000E+00 -0.00000000000E+00 -0.17348719386E+04  0.17348719386E+04  0.25500000000E-02 0.  1.
    8880022    1    1    2    0    0 -0.61893029341E+02 -0.84352818223E+03 -0.14266646109E+04  0.16655732065E+04  0.15294330000E+03 0.  0.
    8880022    1    1    2    0    0  0.61893029341E+02  0.84352818223E+03  0.78972423569E+03  0.11672302955E+04  0.15294330000E+03 0.  0.
<mgrwt>
<rscale>  0 0.85951277E+03</rscale>
<asrwt>0</asrwt>
<pdfrwt beam="1">  1        2 0.16891255E+00 0.85951277E+03</pdfrwt>
<pdfrwt beam="2">  1       -2 0.26690337E+00 0.85951277E+03</pdfrwt>
<totfact> 0.11282281E+00</totfact>
</mgrwt>
</event>
<event>
 4    1  0.1104584E-007  0.9588394E+03  0.7818608E-02  0.9354878E-01
         -2   -1    0    0    0  501 -0.00000000000E+00  0.00000000000E+00  0.16098721194E+04  0.16098721194E+04  0.25500000000E-02 0.  1.
          2   -1    0    0  501    0  0.00000000000E+00 -0.00000000000E+00 -0.17499090840E+04  0.17499090840E+04  0.25500000000E-02 0. -1.
    8880022    1    1    2    0    0 -0.51912090315E+03 -0.79151422789E+03  0.13087706718E+04  0.16224221428E+04  0.15294330000E+03 0.  0.
    8880022    1    1    2    0    0  0.51912090315E+03  0.79151422789E+03 -0.14488076365E+04  0.17373590606E+04  0.15294330000E+03 0.  0.
<mgrwt>
<rscale>  0 0.95883937E+03</rscale>
<asrwt>0</asrwt>
<pdfrwt beam="1">  1        2 0.26921678E+00 0.95883937E+03</pdfrwt>
<pdfrwt beam="2">  1       -2 0.24767263E+00 0.95883937E+03</pdfrwt>
<totfact> 0.61518685E-01</totfact>
</mgrwt>
</event>
<event>
 4    1  0.1104584E-007  0.8825862E+03  0.7818608E-02  0.9447615E-01
          2   -1    0    0  501    0  0.00000000000E+00  0.00000000000E+00  0.93385198165E+03  0.93385198165E+03  0.25500000000E-02 0. -1.
         -2   -1    0    0    0  501 -0.00000000000E+00 -0.00000000000E+00 -0.14638477825E+04  0.14638477825E+04  0.25500000000E-02 0.  1.
    8880022    1    1    2    0    0 -0.26956992611E+03 -0.82637692531E+03  0.52130191629E+03  0.10250434667E+04  0.15294330000E+03 0.  0.
    8880022    1    1    2    0    0  0.26956992611E+03  0.82637692531E+03 -0.10512977172E+04  0.13726562974E+04  0.15294330000E+03 0.  0.
<mgrwt>
<rscale>  0 0.88258621E+03</rscale>
<asrwt>0</asrwt>
<pdfrwt beam="1">  1        2 0.14366954E+00 0.88258621E+03</pdfrwt>
<pdfrwt beam="2">  1       -2 0.22520735E+00 0.88258621E+03</pdfrwt>
<totfact> 0.25717503E+00</totfact>
</mgrwt>
</event>
<event>
 4    1  0.1104584E-007  0.7443215E+03  0.7818608E-02  0.9644301E-01
         -2   -1    0    0    0  501 -0.00000000000E+00  0.00000000000E+00  0.66083146700E+03  0.66083146700E+03  0.25500000000E-02 0.  1.
          2   -1    0    0  501    0  0.00000000000E+00 -0.00000000000E+00 -0.24279041197E+04  0.24279041197E+04  0.25500000000E-02 0. -1.
    8880022    1    1    2    0    0  0.30795658618E+03  0.66014052436E+03  0.36606452994E+03  0.82946830197E+03  0.15294330000E+03 0.  0.
    8880022    1    1    2    0    0 -0.30795658618E+03 -0.66014052436E+03 -0.21331371827E+04  0.22592672848E+04  0.15294330000E+03 0.  0.
<mgrwt>
<rscale>  0 0.74432145E+03</rscale>
<asrwt>0</asrwt>
<pdfrwt beam="1">  1        2 0.37352371E+00 0.74432145E+03</pdfrwt>
<pdfrwt beam="2">  1       -2 0.10166638E+00 0.74432145E+03</pdfrwt>
<totfact> 0.31924721E+00</totfact>
</mgrwt>
</event>
<event>
 4    1  0.1104584E-007  0.6947878E+03  0.7818608E-02  0.9726187E-01
         -2   -1    0    0    0  501 -0.00000000000E+00  0.00000000000E+00  0.16152045806E+03  0.16152045808E+03  0.25500000000E-02 0.  1.
          2   -1    0    0  501    0  0.00000000000E+00 -0.00000000000E+00 -0.44150185116E+04  0.44150185116E+04  0.25500000000E-02 0. -1.
    8880022    1    1    2    0    0 -0.57747172025E+03  0.35477435973E+03 -0.34273824773E+04  0.34970960428E+04  0.15294330000E+03 0.  0.
    8880022    1    1    2    0    0  0.57747172025E+03 -0.35477435973E+03 -0.82611557622E+03  0.10794429268E+04  0.15294330000E+03 0.  0.
<mgrwt>
<rscale>  0 0.69478780E+03</rscale>
<asrwt>0</asrwt>
<pdfrwt beam="1">  1        2 0.67923353E+00 0.69478780E+03</pdfrwt>
<pdfrwt beam="2">  1       -2 0.24849305E-01 0.69478780E+03</pdfrwt>
<totfact> 0.24643997E+00</totfact>
</mgrwt>
</event>
<event>
 4    1  0.1323178E-007  0.1228927E+04  0.7818608E-02  0.9087907E-01
         -2   -1    0    0    0  501 -0.00000000000E+00  0.00000000000E+00  0.13060658590E+04  0.13060658590E+04  0.25500000000E-02 0.  1.
          2   -1    0    0  501    0  0.00000000000E+00 -0.00000000000E+00 -0.27025992874E+04  0.27025992874E+04  0.25500000000E-02 0. -1.
    8880022    1    1    2    0    0  0.10223635418E+04 -0.66456280887E+03  0.81780389423E+03  0.14761659124E+04  0.15294330000E+03 0.  0.
    8880022    1    1    2    0    0 -0.10223635418E+04  0.66456280887E+03 -0.22143373227E+04  0.25324992340E+04  0.15294330000E+03 0.  0.
<mgrwt>
<rscale>  0 0.12289274E+04</rscale>
<asrwt>0</asrwt>
<pdfrwt beam="1">  1        2 0.41578450E+00 0.12289274E+04</pdfrwt>
<pdfrwt beam="2">  1       -2 0.20093321E+00 0.12289274E+04</pdfrwt>
<totfact> 0.33804059E-01</totfact>
</mgrwt>
</event>
<event>
 4    1  0.1104584E-007  0.2075453E+03  0.7818608E-02  0.1143525E+00
         -2   -1    0    0    0  501 -0.00000000000E+00  0.00000000000E+00  0.45367181815E+03  0.45367181816E+03  0.25500000000E-02 0.  1.
          2   -1    0    0  501    0  0.00000000000E+00 -0.00000000000E+00 -0.10879223708E+04  0.10879223708E+04  0.25500000000E-02 0. -1.
    8880022    1    1    2    0    0  0.12677233856E+03  0.60101313594E+02  0.41926869461E+03  0.46782612691E+03  0.15294330000E+03 0.  0.
    8880022    1    1    2    0    0 -0.12677233856E+03 -0.60101313594E+02 -0.10535192473E+04  0.10737680621E+04  0.15294330000E+03 0.  0.
<mgrwt>
<rscale>  0 0.20754529E+03</rscale>
<asrwt>0</asrwt>
<pdfrwt beam="1">  1        2 0.16737267E+00 0.20754529E+03</pdfrwt>
<pdfrwt beam="2">  1       -2 0.69795665E-01 0.20754529E+03</pdfrwt>
<totfact> 0.46128882E+01</totfact>
</mgrwt>
</event>
<event>
 4    1  0.1104584E-007  0.1240352E+04  0.7818608E-02  0.9078252E-01
          2   -1    0    0  501    0  0.00000000000E+00  0.00000000000E+00  0.11706744139E+04  0.11706744139E+04  0.25500000000E-02 0. -1.
         -2   -1    0    0    0  501 -0.00000000000E+00 -0.00000000000E+00 -0.14478954098E+04  0.14478954098E+04  0.25500000000E-02 0.  1.
    8880022    1    1    2    0    0  0.10947712199E+04  0.56263433613E+03 -0.53649920014E+03  0.13514083264E+04  0.15294330000E+03 0.  0.
    8880022    1    1    2    0    0 -0.10947712199E+04 -0.56263433613E+03  0.25927820420E+03  0.12671614973E+04  0.15294330000E+03 0.  0.
<mgrwt>
<rscale>  0 0.12403520E+04</rscale>
<asrwt>0</asrwt>
<pdfrwt beam="1">  1        2 0.18010376E+00 0.12403520E+04</pdfrwt>
<pdfrwt beam="2">  1       -2 0.22275314E+00 0.12403520E+04</pdfrwt>
<totfact> 0.18122450E+00</totfact>
</mgrwt>
</event>
<event>
 4    1  0.1104584E-007  0.6109650E+03  0.7818608E-02  0.9882915E-01
          2   -1    0    0  501    0  0.00000000000E+00  0.00000000000E+00  0.43593232399E+03  0.43593232400E+03  0.25500000000E-02 0. -1.
         -2   -1    0    0    0  501 -0.00000000000E+00 -0.00000000000E+00 -0.10414481373E+04  0.10414481373E+04  0.25500000000E-02 0.  1.
    8880022    1    1    2    0    0 -0.50082413837E+03 -0.31474073640E+03 -0.61423911349E+03  0.86635321335E+03  0.15294330000E+03 0.  0.
    8880022    1    1    2    0    0  0.50082413837E+03  0.31474073640E+03  0.87233002035E+01  0.61102724793E+03  0.15294330000E+03 0.  0.
<mgrwt>
<rscale>  0 0.61096498E+03</rscale>
<asrwt>0</asrwt>
<pdfrwt beam="1">  1        2 0.67066512E-01 0.61096498E+03</pdfrwt>
<pdfrwt beam="2">  1       -2 0.16022279E+00 0.61096498E+03</pdfrwt>
<totfact> 0.18597931E+01</totfact>
</mgrwt>
</event>
<event>
 4    1  0.1104584E-007  0.7254937E+03  0.7818608E-02  0.9674601E-01
         -2   -1    0    0    0  501 -0.00000000000E+00  0.00000000000E+00  0.10614110062E+04  0.10614110062E+04  0.25500000000E-02 0.  1.
          2   -1    0    0  501    0  0.00000000000E+00 -0.00000000000E+00 -0.53017963248E+03  0.53017963249E+03  0.25500000000E-02 0. -1.
    8880022    1    1    2    0    0 -0.62367583222E+03  0.33760623793E+03  0.46800278435E+03  0.86334684499E+03  0.15294330000E+03 0.  0.
    8880022    1    1    2    0    0  0.62367583222E+03 -0.33760623793E+03  0.63228589404E+02  0.72824379374E+03  0.15294330000E+03 0.  0.
<mgrwt>
<rscale>  0 0.72549374E+03</rscale>
<asrwt>0</asrwt>
<pdfrwt beam="1">  1        2 0.81566098E-01 0.72549374E+03</pdfrwt>
<pdfrwt beam="2">  1       -2 0.16329400E+00 0.72549374E+03</pdfrwt>
<totfact> 0.13935795E+01</totfact>
</mgrwt>
</event>
<event>
 4    1  0.1104584E-007  0.5304808E+03  0.7818608E-02  0.1006116E+00
          2   -1    0    0  501    0  0.00000000000E+00  0.00000000000E+00  0.71772718284E+03  0.71772718284E+03  0.25500000000E-02 0. -1.
         -2   -1    0    0    0  501 -0.00000000000E+00 -0.00000000000E+00 -0.48187685295E+03  0.48187685296E+03  0.25500000000E-02 0.  1.
    8880022    1    1    2    0    0  0.33901013405E+03 -0.37827282355E+03 -0.14099093848E+03  0.54889734721E+03  0.15294330000E+03 0.  0.
    8880022    1    1    2    0    0 -0.33901013405E+03  0.37827282355E+03  0.37684126836E+03  0.65070668859E+03  0.15294330000E+03 0.  0.
<mgrwt>
<rscale>  0 0.53048078E+03</rscale>
<asrwt>0</asrwt>
<pdfrwt beam="1">  1        2 0.11041957E+00 0.53048078E+03</pdfrwt>
<pdfrwt beam="2">  1       -2 0.74134901E-01 0.53048078E+03</pdfrwt>
<totfact> 0.67063165E+01</totfact>
</mgrwt>
</event>
<event>
 4    1  0.1104584E-007  0.1981030E+03  0.7818608E-02  0.1151349E+00
         -2   -1    0    0    0  501 -0.00000000000E+00  0.00000000000E+00  0.91452844036E+02  0.91452844071E+02  0.25500000000E-02 0.  1.
          2   -1    0    0  501    0  0.00000000000E+00 -0.00000000000E+00 -0.20332990117E+04  0.20332990117E+04  0.25500000000E-02 0. -1.
    8880022    1    1    2    0    0  0.11604678304E+03  0.48849664844E+02 -0.19145562385E+04  0.19247780103E+04  0.15294330000E+03 0.  0.
    8880022    1    1    2    0    0 -0.11604678304E+03 -0.48849664844E+02 -0.27289929141E+02  0.19997384543E+03  0.15294330000E+03 0.  1.
<mgrwt>
<rscale>  0 0.19810300E+03</rscale>
<asrwt>0</asrwt>
<pdfrwt beam="1">  1        2 0.31281520E+00 0.19810300E+03</pdfrwt>
<pdfrwt beam="2">  1       -2 0.14069670E-01 0.19810300E+03</pdfrwt>
<totfact> 0.27800822E+02</totfact>
</mgrwt>
</event>
<event>
 4    1  0.1104584E-007  0.1464337E+04  0.7818608E-02  0.8908521E-01
          2   -1    0    0  501    0  0.00000000000E+00  0.00000000000E+00  0.28495044926E+04  0.28495044926E+04  0.25500000000E-02 0. -1.
         -2   -1    0    0    0  501 -0.00000000000E+00 -0.00000000000E+00 -0.19157066794E+04  0.19157066794E+04  0.25500000000E-02 0.  1.
    8880022    1    1    2    0    0 -0.17513390181E+03 -0.14457586420E+04  0.23234810230E+04  0.27464241573E+04  0.15294330000E+03 0. -1.
    8880022    1    1    2    0    0  0.17513390181E+03  0.14457586420E+04 -0.13896832098E+04  0.20187870148E+04  0.15294330000E+03 0.  1.
<mgrwt>
<rscale>  0 0.14643366E+04</rscale>
<asrwt>0</asrwt>
<pdfrwt beam="1">  1        2 0.43838531E+00 0.14643366E+04</pdfrwt>
<pdfrwt beam="2">  1       -2 0.29472411E+00 0.14643366E+04</pdfrwt>
<totfact> 0.69784345E-02</totfact>
</mgrwt>
</event>
<event>
 4    1  0.1104584E-007  0.7663919E+03  0.7818608E-02  0.9609979E-01
          2   -1    0    0  501    0  0.00000000000E+00  0.00000000000E+00  0.24335623207E+04  0.24335623207E+04  0.25500000000E-02 0. -1.
         -2   -1    0    0    0  501 -0.00000000000E+00 -0.00000000000E+00 -0.58610524604E+03  0.58610524605E+03  0.25500000000E-02 0.  1.
    8880022    1    1    2    0    0 -0.52859633714E+03 -0.53343306551E+03 -0.23422878871E+03  0.80138611261E+03  0.15294330000E+03 0.  0.
    8880022    1    1    2    0    0  0.52859633714E+03  0.53343306551E+03  0.20816858633E+04  0.22182814541E+04  0.15294330000E+03 0.  0.
<mgrwt>
<rscale>  0 0.76639192E+03</rscale>
<asrwt>0</asrwt>
<pdfrwt beam="1">  1        2 0.37439420E+00 0.76639192E+03</pdfrwt>
<pdfrwt beam="2">  1       -2 0.90170039E-01 0.76639192E+03</pdfrwt>
<totfact> 0.41813749E+00</totfact>
</mgrwt>
</event>
<event>
 4    1  0.1104584E-007  0.7420434E+03  0.7818608E-02  0.9647916E-01
         -2   -1    0    0    0  501 -0.00000000000E+00  0.00000000000E+00  0.39492097373E+03  0.39492097374E+03  0.25500000000E-02 0.  1.
          2   -1    0    0  501    0  0.00000000000E+00 -0.00000000000E+00 -0.22989646563E+04  0.22989646563E+04  0.25500000000E-02 0. -1.
    8880022    1    1    2    0    0  0.64634165069E+03 -0.33087636963E+03 -0.10706821232E+03  0.74972792165E+03  0.15294330000E+03 0.  0.
    8880022    1    1    2    0    0 -0.64634165069E+03  0.33087636963E+03 -0.17969754702E+04  0.19441577084E+04  0.15294330000E+03 0.  0.
<mgrwt>
<rscale>  0 0.74204336E+03</rscale>
<asrwt>0</asrwt>
<pdfrwt beam="1">  1        2 0.35368686E+00 0.74204336E+03</pdfrwt>
<pdfrwt beam="2">  1       -2 0.60757074E-01 0.74204336E+03</pdfrwt>
<totfact> 0.11952152E+01</totfact>
</mgrwt>
</event>
<event>
 4    1  0.1104584E-007  0.7957402E+03  0.7818608E-02  0.9566204E-01
          2   -1    0    0  501    0  0.00000000000E+00  0.00000000000E+00  0.13220650868E+04  0.13220650868E+04  0.25500000000E-02 0. -1.
         -2   -1    0    0    0  501 -0.00000000000E+00 -0.00000000000E+00 -0.64265579351E+03  0.64265579352E+03  0.25500000000E-02 0.  1.
    8880022    1    1    2    0    0 -0.63189288740E+03  0.45882701384E+03  0.83551346710E+03  0.11538133543E+04  0.15294330000E+03 0.  0.
    8880022    1    1    2    0    0  0.63189288740E+03 -0.45882701384E+03 -0.15610417377E+03  0.81090752609E+03  0.15294330000E+03 0.  1.
<mgrwt>
<rscale>  0 0.79574022E+03</rscale>
<asrwt>0</asrwt>
<pdfrwt beam="1">  1        2 0.20339463E+00 0.79574022E+03</pdfrwt>
<pdfrwt beam="2">  1       -2 0.98870123E-01 0.79574022E+03</pdfrwt>
<totfact> 0.13832393E+01</totfact>
</mgrwt>
</event>
<event>
 4    1  0.1104584E-007  0.2813280E+03  0.7818608E-02  0.1094966E+00
          2   -1    0    0  501    0  0.00000000000E+00  0.00000000000E+00  0.83675841028E+03  0.83675841029E+03  0.25500000000E-02 0. -1.
         -2   -1    0    0    0  501 -0.00000000000E+00 -0.00000000000E+00 -0.51579976276E+03  0.51579976277E+03  0.25500000000E-02 0.  1.
    8880022    1    1    2    0    0  0.15780847495E+03  0.17564252085E+03 -0.45065512978E+03  0.53125842008E+03  0.15294330000E+03 0.  0.
    8880022    1    1    2    0    0 -0.15780847495E+03 -0.17564252085E+03  0.77161377730E+03  0.82129975297E+03  0.15294330000E+03 0.  0.
<mgrwt>
<rscale>  0 0.28132803E+03</rscale>
<asrwt>0</asrwt>
<pdfrwt beam="1">  1        2 0.12873206E+00 0.28132803E+03</pdfrwt>
<pdfrwt beam="2">  1       -2 0.79353810E-01 0.28132803E+03</pdfrwt>
<totfact> 0.49143139E+01</totfact>
</mgrwt>
</event>
<event>
 4    1  0.1104584E-007  0.5789299E+03  0.7818608E-02  0.9950111E-01
          2   -1    0    0  501    0  0.00000000000E+00  0.00000000000E+00  0.96909866867E+03  0.96909866867E+03  0.25500000000E-02 0. -1.
         -2   -1    0    0    0  501 -0.00000000000E+00 -0.00000000000E+00 -0.44513423076E+03  0.44513423077E+03  0.25500000000E-02 0.  1.
    8880022    1    1    2    0    0  0.48455370321E+03 -0.27744523343E+03  0.59594055659E+03  0.83084592365E+03  0.15294330000E+03 0.  0.
    8880022    1    1    2    0    0 -0.48455370321E+03  0.27744523343E+03 -0.71976118679E+02  0.58338697579E+03  0.15294330000E+03 0.  0.
<mgrwt>
<rscale>  0 0.57892988E+03</rscale>
<asrwt>0</asrwt>
<pdfrwt beam="1">  1        2 0.14909210E+00 0.57892988E+03</pdfrwt>
<pdfrwt beam="2">  1       -2 0.68482190E-01 0.57892988E+03</pdfrwt>
<totfact> 0.53078700E+01</totfact>
</mgrwt>
</event>
<event>
 4    1  0.1104584E-007  0.7681635E+03  0.7818608E-02  0.9607278E-01
         -2   -1    0    0    0  501 -0.00000000000E+00  0.00000000000E+00  0.66305595286E+03  0.66305595286E+03  0.25500000000E-02 0.  1.
          2   -1    0    0  501    0  0.00000000000E+00 -0.00000000000E+00 -0.15513579880E+04  0.15513579880E+04  0.25500000000E-02 0. -1.
    8880022    1    1    2    0    0 -0.45171753437E+03 -0.60219167572E+03 -0.11671092108E+04  0.13972183466E+04  0.15294330000E+03 0.  0.
    8880022    1    1    2    0    0  0.45171753437E+03  0.60219167572E+03  0.27880717560E+03  0.81719559430E+03  0.15294330000E+03 0.  0.
<mgrwt>
<rscale>  0 0.76816352E+03</rscale>
<asrwt>0</asrwt>
<pdfrwt beam="1">  1        2 0.23867046E+00 0.76816352E+03</pdfrwt>
<pdfrwt beam="2">  1       -2 0.10200861E+00 0.76816352E+03</pdfrwt>
<totfact> 0.95716113E+00</totfact>
</mgrwt>
</event>
<event>
 4    1  0.1104584E-007  0.2154571E+03  0.7818608E-02  0.1137316E+00
         -2   -1    0    0    0  501 -0.00000000000E+00  0.00000000000E+00  0.76385330819E+03  0.76385330820E+03  0.25500000000E-02 0.  1.
          2   -1    0    0  501    0  0.00000000000E+00 -0.00000000000E+00 -0.50751172010E+03  0.50751172010E+03  0.25500000000E-02 0. -1.
    8880022    1    1    2    0    0 -0.19040665023E+02  0.15055749116E+03 -0.46823789348E+03  0.51543038615E+03  0.15294330000E+03 0. -1.
    8880022    1    1    2    0    0  0.19040665023E+02 -0.15055749116E+03  0.72457948157E+03  0.75593464215E+03  0.15294330000E+03 0.  0.
<mgrwt>
<rscale>  0 0.21545709E+03</rscale>
<asrwt>0</asrwt>
<pdfrwt beam="1">  1        2 0.78078727E-01 0.21545709E+03</pdfrwt>
<pdfrwt beam="2">  1       -2 0.11751589E+00 0.21545709E+03</pdfrwt>
<totfact> 0.36674157E+01</totfact>
</mgrwt>
</event>
<event>
 4    1  0.1104584E-007  0.3684115E+03  0.7818608E-02  0.1055302E+00
          2   -1    0    0  501    0  0.00000000000E+00  0.00000000000E+00  0.30192360259E+04  0.30192360259E+04  0.25500000000E-02 0. -1.
         -2   -1    0    0    0  501 -0.00000000000E+00 -0.00000000000E+00 -0.66912246664E+02  0.66912246713E+02  0.25500000000E-02 0.  1.
    8880022    1    1    2    0    0  0.15944163166E+03  0.29481138462E+03  0.59220349802E+03  0.69744678829E+03  0.15294330000E+03 0.  0.
    8880022    1    1    2    0    0 -0.15944163166E+03 -0.29481138462E+03  0.23601202812E+04  0.23887014843E+04  0.15294330000E+03 0.  0.
<mgrwt>
<rscale>  0 0.36841151E+03</rscale>
<asrwt>0</asrwt>
<pdfrwt beam="1">  1        2 0.46449787E+00 0.36841151E+03</pdfrwt>
<pdfrwt beam="2">  1       -2 0.10294191E-01 0.36841151E+03</pdfrwt>
<totfact> 0.12517566E+02</totfact>
</mgrwt>
</event>
<event>
 4    1  0.1104584E-007  0.3624664E+03  0.7818608E-02  0.1057612E+00
          2   -1    0    0  501    0  0.00000000000E+00  0.00000000000E+00  0.18949293012E+04  0.18949293012E+04  0.25500000000E-02 0. -1.
         -2   -1    0    0    0  501 -0.00000000000E+00 -0.00000000000E+00 -0.29237171419E+03  0.29237171420E+03  0.25500000000E-02 0.  1.
    8880022    1    1    2    0    0 -0.32852169656E+03  0.79837305042E+01 -0.15393506631E+03  0.39379931782E+03  0.15294330000E+03 0.  0.
    8880022    1    1    2    0    0  0.32852169656E+03 -0.79837305042E+01  0.17564926533E+04  0.17935016976E+04  0.15294330000E+03 0.  0.
<mgrwt>
<rscale>  0 0.36246641E+03</rscale>
<asrwt>0</asrwt>
<pdfrwt beam="1">  1        2 0.29152759E+00 0.36246641E+03</pdfrwt>
<pdfrwt beam="2">  1       -2 0.44980263E-01 0.36246641E+03</pdfrwt>
<totfact> 0.39473204E+01</totfact>
</mgrwt>
</event>
<event>
 4    1  0.1104584E-007  0.4221590E+03  0.7818608E-02  0.1036366E+00
         -2   -1    0    0    0  501 -0.00000000000E+00  0.00000000000E+00  0.40357548288E+03  0.40357548288E+03  0.25500000000E-02 0.  1.
          2   -1    0    0  501    0  0.00000000000E+00 -0.00000000000E+00 -0.24281593864E+04  0.24281593864E+04  0.25500000000E-02 0. -1.
    8880022    1    1    2    0    0  0.24517040378E+03  0.30776299575E+03 -0.22929552431E+04  0.23314935102E+04  0.15294330000E+03 0.  0.
    8880022    1    1    2    0    0 -0.24517040378E+03 -0.30776299575E+03  0.26837133953E+03  0.50024135908E+03  0.15294330000E+03 0.  0.
<mgrwt>
<rscale>  0 0.42215902E+03</rscale>
<asrwt>0</asrwt>
<pdfrwt beam="1">  1        2 0.37356297E+00 0.42215902E+03</pdfrwt>
<pdfrwt beam="2">  1       -2 0.62088538E-01 0.42215902E+03</pdfrwt>
<totfact> 0.10377571E+01</totfact>
</mgrwt>
</event>
<event>
 4    1  0.1104584E-007  0.5710573E+03  0.7818608E-02  0.9967342E-01
         -2   -1    0    0    0  501 -0.00000000000E+00  0.00000000000E+00  0.58015985549E+03  0.58015985549E+03  0.25500000000E-02 0.  1.
          2   -1    0    0  501    0  0.00000000000E+00 -0.00000000000E+00 -0.10581738598E+04  0.10581738598E+04  0.25500000000E-02 0. -1.
    8880022    1    1    2    0    0  0.34414420604E+03  0.42927791632E+03 -0.79988462680E+03  0.98281322397E+03  0.15294330000E+03 0. -1.
    8880022    1    1    2    0    0 -0.34414420604E+03 -0.42927791632E+03  0.32187062244E+03  0.65552049137E+03  0.15294330000E+03 0.  0.
<mgrwt>
<rscale>  0 0.57105728E+03</rscale>
<asrwt>0</asrwt>
<pdfrwt beam="1">  1        2 0.16279598E+00 0.57105728E+03</pdfrwt>
<pdfrwt beam="2">  1       -2 0.89255362E-01 0.57105728E+03</pdfrwt>
<totfact> 0.25879488E+01</totfact>
</mgrwt>
</event>
<event>
 4    1  0.1104584E-007  0.3616244E+03  0.7818608E-02  0.1057943E+00
         -2   -1    0    0    0  501 -0.00000000000E+00  0.00000000000E+00  0.10945910623E+03  0.10945910626E+03  0.25500000000E-02 0.  1.
          2   -1    0    0  501    0  0.00000000000E+00 -0.00000000000E+00 -0.48238061224E+04  0.48238061224E+04  0.25500000000E-02 0. -1.
    8880022    1    1    2    0    0  0.25278796064E+03  0.20851575267E+03 -0.44966553216E+04  0.45111729413E+04  0.15294330000E+03 0.  0.
    8880022    1    1    2    0    0 -0.25278796064E+03 -0.20851575267E+03 -0.21769169463E+03  0.42209228740E+03  0.15294330000E+03 0.  0.
<mgrwt>
<rscale>  0 0.36162443E+03</rscale>
<asrwt>0</asrwt>
<pdfrwt beam="1">  1        2 0.74212386E+00 0.36162443E+03</pdfrwt>
<pdfrwt beam="2">  1       -2 0.16839866E-01 0.36162443E+03</pdfrwt>
<totfact> 0.21510524E+00</totfact>
</mgrwt>
</event>
<event>
 4    1  0.1104584E-007  0.4497689E+03  0.7818608E-02  0.1027791E+00
         -2   -1    0    0    0  501 -0.00000000000E+00  0.00000000000E+00  0.38770118932E+03  0.38770118933E+03  0.25500000000E-02 0.  1.
          2   -1    0    0  501    0  0.00000000000E+00 -0.00000000000E+00 -0.71141003687E+03  0.71141003687E+03  0.25500000000E-02 0. -1.
    8880022    1    1    2    0    0 -0.33705030310E+03 -0.25553373959E+03 -0.44558955913E+03  0.63312092613E+03  0.15294330000E+03 0.  0.
    8880022    1    1    2    0    0  0.33705030310E+03  0.25553373959E+03  0.12188071158E+03  0.46599030007E+03  0.15294330000E+03 0.  0.
<mgrwt>
<rscale>  0 0.44976889E+03</rscale>
<asrwt>0</asrwt>
<pdfrwt beam="1">  1        2 0.10944770E+00 0.44976889E+03</pdfrwt>
<pdfrwt beam="2">  1       -2 0.59646337E-01 0.44976889E+03</pdfrwt>
<totfact> 0.10898867E+02</totfact>
</mgrwt>
</event>
<event>
 4    1  0.1104584E-007  0.5179214E+03  0.7818608E-02  0.1009204E+00
         -2   -1    0    0    0  501 -0.00000000000E+00  0.00000000000E+00  0.62775676423E+03  0.62775676423E+03  0.25500000000E-02 0.  1.
          2   -1    0    0  501    0  0.00000000000E+00 -0.00000000000E+00 -0.23475090245E+04  0.23475090245E+04  0.25500000000E-02 0. -1.
    8880022    1    1    2    0    0 -0.14503260750E+03  0.47309249848E+03  0.48556903462E+03  0.70994359618E+03  0.15294330000E+03 0.  1.
    8880022    1    1    2    0    0  0.14503260750E+03 -0.47309249848E+03 -0.22053212949E+04  0.22653221926E+04  0.15294330000E+03 0.  0.
<mgrwt>
<rscale>  0 0.51792144E+03</rscale>
<asrwt>0</asrwt>
<pdfrwt beam="1">  1        2 0.36115523E+00 0.51792144E+03</pdfrwt>
<pdfrwt beam="2">  1       -2 0.96577965E-01 0.51792144E+03</pdfrwt>
<totfact> 0.42007158E+00</totfact>
</mgrwt>
</event>
<event>
 4    1  0.1104584E-007  0.1105290E+04  0.7818608E-02  0.9200051E-01
         -2   -1    0    0    0  501 -0.00000000000E+00  0.00000000000E+00  0.48770283363E+03  0.48770283363E+03  0.25500000000E-02 0.  1.
          2   -1    0    0  501    0  0.00000000000E+00 -0.00000000000E+00 -0.25519581608E+04  0.25519581608E+04  0.25500000000E-02 0. -1.
    8880022    1    1    2    0    0 -0.42120129983E+03 -0.10103784745E+04 -0.82583378867E+03  0.13797348645E+04  0.15294330000E+03 0.  0.
    8880022    1    1    2    0    0  0.42120129983E+03  0.10103784745E+04 -0.12384215385E+04  0.16599261299E+04  0.15294330000E+03 0.  0.
<mgrwt>
<rscale>  0 0.11052904E+04</rscale>
<asrwt>0</asrwt>
<pdfrwt beam="1">  1        2 0.39260894E+00 0.11052904E+04</pdfrwt>
<pdfrwt beam="2">  1       -2 0.75031206E-01 0.11052904E+04</pdfrwt>
<totfact> 0.51717677E+00</totfact>
</mgrwt>
</event>
<event>
 4    1  0.1104584E-007  0.1540498E+04  0.7818608E-02  0.8857960E-01
          2   -1    0    0  501    0  0.00000000000E+00  0.00000000000E+00  0.18389228385E+04  0.18389228385E+04  0.25500000000E-02 0. -1.
         -2   -1    0    0    0  501 -0.00000000000E+00 -0.00000000000E+00 -0.18848896998E+04  0.18848896998E+04  0.25500000000E-02 0.  1.
    8880022    1    1    2    0    0  0.74990782518E+03  0.13369291198E+04 -0.10685456827E+04  0.18748127231E+04  0.15294330000E+03 0.  0.
    8880022    1    1    2    0    0 -0.74990782518E+03 -0.13369291198E+04  0.10225788214E+04  0.18489998152E+04  0.15294330000E+03 0.  0.
<mgrwt>
<rscale>  0 0.15404976E+04</rscale>
<asrwt>0</asrwt>
<pdfrwt beam="1">  1        2 0.28291121E+00 0.15404976E+04</pdfrwt>
<pdfrwt beam="2">  1       -2 0.28998303E+00 0.15404976E+04</pdfrwt>
<totfact> 0.28066111E-01</totfact>
</mgrwt>
</event>
<event>
 4    1  0.1104584E-007  0.7574734E+03  0.7818608E-02  0.9623698E-01
         -2   -1    0    0    0  501 -0.00000000000E+00  0.00000000000E+00  0.11668129341E+04  0.11668129341E+04  0.25500000000E-02 0.  1.
          2   -1    0    0  501    0  0.00000000000E+00 -0.00000000000E+00 -0.56703534754E+03  0.56703534755E+03  0.25500000000E-02 0. -1.
    8880022    1    1    2    0    0 -0.69402980238E+03 -0.26210095855E+03 -0.16023609244E+02  0.75764284999E+03  0.15294330000E+03 0.  0.
    8880022    1    1    2    0    0  0.69402980238E+03  0.26210095855E+03  0.61580119583E+03  0.97620543169E+03  0.15294330000E+03 0.  0.
<mgrwt>
<rscale>  0 0.75747339E+03</rscale>
<asrwt>0</asrwt>
<pdfrwt beam="1">  1        2 0.87236208E-01 0.75747339E+03</pdfrwt>
<pdfrwt beam="2">  1       -2 0.17950968E+00 0.75747339E+03</pdfrwt>
<totfact> 0.98589746E+00</totfact>
</mgrwt>
</event>
<event>
 4    1  0.1104584E-007  0.1287118E+04  0.7818608E-02  0.9039844E-01
          2   -1    0    0  501    0  0.00000000000E+00  0.00000000000E+00  0.15178738156E+04  0.15178738156E+04  0.25500000000E-02 0. -1.
         -2   -1    0    0    0  501 -0.00000000000E+00 -0.00000000000E+00 -0.16037552398E+04  0.16037552398E+04  0.25500000000E-02 0.  1.
    8880022    1    1    2    0    0  0.12779953696E+04  0.29709314888E+01 -0.92510536111E+03  0.15850844057E+04  0.15294330000E+03 0.  0.
    8880022    1    1    2    0    0 -0.12779953696E+04 -0.29709314888E+01  0.83922393687E+03  0.15365446496E+04  0.15294330000E+03 0.  0.
<mgrwt>
<rscale>  0 0.12871180E+04</rscale>
<asrwt>0</asrwt>
<pdfrwt beam="1">  1        2 0.23351905E+00 0.12871180E+04</pdfrwt>
<pdfrwt beam="2">  1       -2 0.24673157E+00 0.12871180E+04</pdfrwt>
<totfact> 0.80268791E-01</totfact>
</mgrwt>
</event>
<event>
 4    1  0.1104584E-007  0.3700420E+03  0.7818608E-02  0.1054677E+00
          2   -1    0    0  501    0  0.00000000000E+00  0.00000000000E+00  0.45260774759E+03  0.45260774760E+03  0.25500000000E-02 0. -1.
         -2   -1    0    0    0  501 -0.00000000000E+00 -0.00000000000E+00 -0.49158749838E+03  0.49158749839E+03  0.25500000000E-02 0.  1.
    8880022    1    1    2    0    0 -0.99409246314E+01  0.33680948530E+03 -0.31225477527E+03  0.48418400331E+03  0.15294330000E+03 0.  0.
    8880022    1    1    2    0    0  0.99409246314E+01 -0.33680948530E+03  0.27327502448E+03  0.46001124268E+03  0.15294330000E+03 0.  0.
<mgrwt>
<rscale>  0 0.37004203E+03</rscale>
<asrwt>0</asrwt>
<pdfrwt beam="1">  1        2 0.69631961E-01 0.37004203E+03</pdfrwt>
<pdfrwt beam="2">  1       -2 0.75628846E-01 0.37004203E+03</pdfrwt>
<totfact> 0.11225028E+02</totfact>
</mgrwt>
</event>
<event>
 4    1  0.1104584E-007  0.4298885E+03  0.7818608E-02  0.1033895E+00
         -2   -1    0    0    0  501 -0.00000000000E+00  0.00000000000E+00  0.24412716661E+03  0.24412716662E+03  0.25500000000E-02 0.  1.
          2   -1    0    0  501    0  0.00000000000E+00 -0.00000000000E+00 -0.14769627275E+04  0.14769627275E+04  0.25500000000E-02 0. -1.
    8880022    1    1    2    0    0 -0.29061019618E+03  0.27741338154E+03 -0.12172372160E+04  0.12909184960E+04  0.15294330000E+03 0.  0.
    8880022    1    1    2    0    0  0.29061019618E+03 -0.27741338154E+03 -0.15598344939E+02  0.43017139812E+03  0.15294330000E+03 0.  0.
<mgrwt>
<rscale>  0 0.42988850E+03</rscale>
<asrwt>0</asrwt>
<pdfrwt beam="1">  1        2 0.22722503E+00 0.42988850E+03</pdfrwt>
<pdfrwt beam="2">  1       -2 0.37558027E-01 0.42988850E+03</pdfrwt>
<totfact> 0.92589301E+01</totfact>
</mgrwt>
</event>
<event>
 4    1  0.1104584E-007  0.7244337E+03  0.7818608E-02  0.9676336E-01
          2   -1    0    0  501    0  0.00000000000E+00  0.00000000000E+00  0.14799342427E+04  0.14799342427E+04  0.25500000000E-02 0. -1.
         -2   -1    0    0    0  501 -0.00000000000E+00 -0.00000000000E+00 -0.52115868346E+03  0.52115868346E+03  0.25500000000E-02 0.  1.
    8880022    1    1    2    0    0 -0.21027247991E+02 -0.70779258887E+03 -0.86224414441E+02  0.72954698045E+03  0.15294330000E+03 0.  0.
    8880022    1    1    2    0    0  0.21027247991E+02  0.70779258887E+03  0.10449999736E+04  0.12715459457E+04  0.15294330000E+03 0.  0.
<mgrwt>
<rscale>  0 0.72443367E+03</rscale>
<asrwt>0</asrwt>
<pdfrwt beam="1">  1        2 0.22768219E+00 0.72443367E+03</pdfrwt>
<pdfrwt beam="2">  1       -2 0.80178258E-01 0.72443367E+03</pdfrwt>
<totfact> 0.18405006E+01</totfact>
</mgrwt>
</event>
<event>
 4    1  0.1104584E-007  0.5935178E+03  0.7818608E-02  0.9918947E-01
          2   -1    0    0  501    0  0.00000000000E+00  0.00000000000E+00  0.16049030127E+04  0.16049030127E+04  0.25500000000E-02 0. -1.
         -2   -1    0    0    0  501 -0.00000000000E+00 -0.00000000000E+00 -0.34889216757E+03  0.34889216758E+03  0.25500000000E-02 0.  1.
    8880022    1    1    2    0    0  0.48883157927E+03  0.29985892185E+03  0.12229422900E+04  0.13593569007E+04  0.15294330000E+03 0. -1.
    8880022    1    1    2    0    0 -0.48883157927E+03 -0.29985892185E+03  0.33068555201E+02  0.59443827961E+03  0.15294330000E+03 0.  0.
<mgrwt>
<rscale>  0 0.59351777E+03</rscale>
<asrwt>0</asrwt>
<pdfrwt beam="1">  1        2 0.24690815E+00 0.59351777E+03</pdfrwt>
<pdfrwt beam="2">  1       -2 0.53675719E-01 0.59351777E+03</pdfrwt>
<totfact> 0.37877196E+01</totfact>
</mgrwt>
</event>
<event>
 4    1  0.1104584E-007  0.3177533E+03  0.7818608E-02  0.1076688E+00
          2   -1    0    0  501    0  0.00000000000E+00  0.00000000000E+00  0.91609520523E+03  0.91609520523E+03  0.25500000000E-02 0. -1.
         -2   -1    0    0    0  501 -0.00000000000E+00 -0.00000000000E+00 -0.35172170881E+03  0.35172170882E+03  0.25500000000E-02 0.  1.
    8880022    1    1    2    0    0 -0.91833345187E+02 -0.26294896875E+03  0.80746789087E+03  0.86773934522E+03  0.15294330000E+03 0. -1.
    8880022    1    1    2    0    0  0.91833345187E+02  0.26294896875E+03 -0.24309439444E+03  0.40007756883E+03  0.15294330000E+03 0.  0.
<mgrwt>
<rscale>  0 0.31775333E+03</rscale>
<asrwt>0</asrwt>
<pdfrwt beam="1">  1        2 0.14093772E+00 0.31775333E+03</pdfrwt>
<pdfrwt beam="2">  1       -2 0.54111032E-01 0.31775333E+03</pdfrwt>
<totfact> 0.97522511E+01</totfact>
</mgrwt>
</event>
<event>
 4    1  0.1104584E-007  0.4455022E+03  0.7818608E-02  0.1029072E+00
         -2   -1    0    0    0  501 -0.00000000000E+00  0.00000000000E+00  0.24260658177E+03  0.24260658178E+03  0.25500000000E-02 0.  1.
          2   -1    0    0  501    0  0.00000000000E+00 -0.00000000000E+00 -0.22836377967E+04  0.22836377967E+04  0.25500000000E-02 0. -1.
    8880022    1    1    2    0    0  0.29870331070E+03  0.29301346769E+03 -0.86266669739E+01  0.44558571843E+03  0.15294330000E+03 0.  0.
    8880022    1    1    2    0    0 -0.29870331070E+03 -0.29301346769E+03 -0.20324045479E+04  0.20806586600E+04  0.15294330000E+03 0.  0.
<mgrwt>
<rscale>  0 0.44550220E+03</rscale>
<asrwt>0</asrwt>
<pdfrwt beam="1">  1        2 0.35132888E+00 0.44550220E+03</pdfrwt>
<pdfrwt beam="2">  1       -2 0.37324091E-01 0.44550220E+03</pdfrwt>
<totfact> 0.34345185E+01</totfact>
</mgrwt>
</event>
<event>
 4    1  0.1104584E-007  0.8806371E+03  0.7818608E-02  0.9450115E-01
          2   -1    0    0  501    0  0.00000000000E+00  0.00000000000E+00  0.11094428514E+04  0.11094428514E+04  0.25500000000E-02 0. -1.
         -2   -1    0    0    0  501 -0.00000000000E+00 -0.00000000000E+00 -0.73378297032E+03  0.73378297032E+03  0.25500000000E-02 0.  1.
    8880022    1    1    2    0    0 -0.70650509843E+03  0.50297175359E+03 -0.12769208454E+02  0.88072966608E+03  0.15294330000E+03 0.  0.
    8880022    1    1    2    0    0  0.70650509843E+03 -0.50297175359E+03  0.38842908953E+03  0.96249615564E+03  0.15294330000E+03 0.  0.
<mgrwt>
<rscale>  0 0.88063709E+03</rscale>
<asrwt>0</asrwt>
<pdfrwt beam="1">  1        2 0.17068352E+00 0.88063709E+03</pdfrwt>
<pdfrwt beam="2">  1       -2 0.11288969E+00 0.88063709E+03</pdfrwt>
<totfact> 0.13314933E+01</totfact>
</mgrwt>
</event>
<event>
 4    1  0.1104584E-007  0.1942239E+03  0.7818608E-02  0.1154706E+00
          2   -1    0    0  501    0  0.00000000000E+00  0.00000000000E+00  0.11530197292E+04  0.11530197292E+04  0.25500000000E-02 0. -1.
         -2   -1    0    0    0  501 -0.00000000000E+00 -0.00000000000E+00 -0.40712295495E+02  0.40712295575E+02  0.25500000000E-02 0.  1.
    8880022    1    1    2    0    0  0.11745538360E+03 -0.23141126514E+02  0.82066309865E+03  0.84333318052E+03  0.15294330000E+03 0. -1.
    8880022    1    1    2    0    0 -0.11745538360E+03  0.23141126514E+02  0.29164433508E+03  0.35039884427E+03  0.15294330000E+03 0.  0.
<mgrwt>
<rscale>  0 0.19422392E+03</rscale>
<asrwt>0</asrwt>
<pdfrwt beam="1">  1        2 0.17738764E+00 0.19422392E+03</pdfrwt>
<pdfrwt beam="2">  1       -2 0.62634305E-02 0.19422392E+03</pdfrwt>
<totfact> 0.29305650E+03</totfact>
</mgrwt>
</event>
<event>
 4    1  0.1104584E-007  0.4233522E+03  0.7818608E-02  0.1035981E+00
          2   -1    0    0  501    0  0.00000000000E+00  0.00000000000E+00  0.73189538170E+03  0.73189538171E+03  0.25500000000E-02 0. -1.
         -2   -1    0    0    0  501 -0.00000000000E+00 -0.00000000000E+00 -0.45956477569E+03  0.45956477570E+03  0.25500000000E-02 0.  1.
    8880022    1    1    2    0    0 -0.27011200076E+03 -0.28788008571E+03  0.54333554215E+03  0.68879648742E+03  0.15294330000E+03 0.  0.
    8880022    1    1    2    0    0  0.27011200076E+03  0.28788008571E+03 -0.27100493613E+03  0.50266366999E+03  0.15294330000E+03 0.  0.
<mgrwt>
<rscale>  0 0.42335221E+03</rscale>
<asrwt>0</asrwt>
<pdfrwt beam="1">  1        2 0.11259929E+00 0.42335221E+03</pdfrwt>
<pdfrwt beam="2">  1       -2 0.70702273E-01 0.42335221E+03</pdfrwt>
<totfact> 0.73424559E+01</totfact>
</mgrwt>
</event>
<event>
 4    1  0.1104584E-007  0.4138907E+03  0.7818608E-02  0.1039073E+00
          2   -1    0    0  501    0  0.00000000000E+00  0.00000000000E+00  0.70293674218E+03  0.70293674219E+03  0.25500000000E-02 0. -1.
         -2   -1    0    0    0  501 -0.00000000000E+00 -0.00000000000E+00 -0.39072629899E+03  0.39072629900E+03  0.25500000000E-02 0.  1.
    8880022    1    1    2    0    0  0.33703488271E+03 -0.18526029762E+03  0.49154535904E+03  0.64259036955E+03  0.15294330000E+03 0. -1.
    8880022    1    1    2    0    0 -0.33703488271E+03  0.18526029762E+03 -0.17933491585E+03  0.45107267163E+03  0.15294330000E+03 0.  0.
<mgrwt>
<rscale>  0 0.41389074E+03</rscale>
<asrwt>0</asrwt>
<pdfrwt beam="1">  1        2 0.10814411E+00 0.41389074E+03</pdfrwt>
<pdfrwt beam="2">  1       -2 0.60111740E-01 0.41389074E+03</pdfrwt>
<totfact> 0.10924099E+02</totfact>
</mgrwt>
</event>
<event>
 4    1  0.1104584E-007  0.5458106E+03  0.7818608E-02  0.1002468E+00
         -2   -1    0    0    0  501 -0.00000000000E+00  0.00000000000E+00  0.54202082803E+03  0.54202082803E+03  0.25500000000E-02 0.  1.
          2   -1    0    0  501    0  0.00000000000E+00 -0.00000000000E+00 -0.16689567428E+04  0.16689567428E+04  0.25500000000E-02 0. -1.
    8880022    1    1    2    0    0  0.33353913426E+03 -0.40406582099E+03  0.34187026062E+03  0.64403763080E+03  0.15294330000E+03 0.  0.
    8880022    1    1    2    0    0 -0.33353913426E+03  0.40406582099E+03 -0.14688061754E+04  0.15669399401E+04  0.15294330000E+03 0.  0.
<mgrwt>
<rscale>  0 0.54581059E+03</rscale>
<asrwt>0</asrwt>
<pdfrwt beam="1">  1        2 0.25676257E+00 0.54581059E+03</pdfrwt>
<pdfrwt beam="2">  1       -2 0.83387820E-01 0.54581059E+03</pdfrwt>
<totfact> 0.13637001E+01</totfact>
</mgrwt>
</event>
<event>
 4    1  0.1104584E-007  0.5875819E+03  0.7818608E-02  0.9931510E-01
          2   -1    0    0  501    0  0.00000000000E+00  0.00000000000E+00  0.12510875786E+04  0.12510875786E+04  0.25500000000E-02 0. -1.
         -2   -1    0    0    0  501 -0.00000000000E+00 -0.00000000000E+00 -0.71829408069E+03  0.71829408069E+03  0.25500000000E-02 0.  1.
    8880022    1    1    2    0    0 -0.16269692948E+03  0.54349842159E+03 -0.50632480865E+03  0.77563992291E+03  0.15294330000E+03 0.  0.
    8880022    1    1    2    0    0  0.16269692948E+03 -0.54349842159E+03  0.10391183065E+04  0.11937417364E+04  0.15294330000E+03 0.  0.
<mgrwt>
<rscale>  0 0.58758189E+03</rscale>
<asrwt>0</asrwt>
<pdfrwt beam="1">  1        2 0.19247501E+00 0.58758189E+03</pdfrwt>
<pdfrwt beam="2">  1       -2 0.11050678E+00 0.58758189E+03</pdfrwt>
<totfact> 0.11979826E+01</totfact>
</mgrwt>
</event>
<event>
 4    1  0.1104584E-007  0.3277376E+03  0.7818608E-02  0.1072142E+00
         -2   -1    0    0    0  501 -0.00000000000E+00  0.00000000000E+00  0.30966838100E+03  0.30966838101E+03  0.25500000000E-02 0.  1.
          2   -1    0    0  501    0  0.00000000000E+00 -0.00000000000E+00 -0.67958172870E+03  0.67958172870E+03  0.25500000000E-02 0. -1.
    8880022    1    1    2    0    0  0.14649042092E+03 -0.25012164871E+03  0.16113813533E+03  0.36520875434E+03  0.15294330000E+03 0.  0.
    8880022    1    1    2    0    0 -0.14649042092E+03  0.25012164871E+03 -0.53105148303E+03  0.62404135537E+03  0.15294330000E+03 0. -1.
<mgrwt>
<rscale>  0 0.32773760E+03</rscale>
<asrwt>0</asrwt>
<pdfrwt beam="1">  1        2 0.10455103E+00 0.32773760E+03</pdfrwt>
<pdfrwt beam="2">  1       -2 0.47641290E-01 0.32773760E+03</pdfrwt>
<totfact> 0.18469471E+02</totfact>
</mgrwt>
</event>
<event>
 4    1  0.1104584E-007  0.6851599E+03  0.7818608E-02  0.9742953E-01
         -2   -1    0    0    0  501 -0.00000000000E+00  0.00000000000E+00  0.13387934727E+04  0.13387934727E+04  0.25500000000E-02 0.  1.
          2   -1    0    0  501    0  0.00000000000E+00 -0.00000000000E+00 -0.85836995602E+03  0.85836995602E+03  0.25500000000E-02 0. -1.
    8880022    1    1    2    0    0  0.38219409688E+03  0.54770433660E+03  0.10851179210E+04  0.12833257278E+04  0.15294330000E+03 0.  0.
    8880022    1    1    2    0    0 -0.38219409688E+03 -0.54770433660E+03 -0.60469440434E+03  0.91383770095E+03  0.15294330000E+03 0.  0.
<mgrwt>
<rscale>  0 0.68515985E+03</rscale>
<asrwt>0</asrwt>
<pdfrwt beam="1">  1        2 0.13205692E+00 0.68515985E+03</pdfrwt>
<pdfrwt beam="2">  1       -2 0.20596823E+00 0.68515985E+03</pdfrwt>
<totfact> 0.39344860E+00</totfact>
</mgrwt>
</event>
<event>
 4    1  0.1104584E-007  0.3842330E+03  0.7818608E-02  0.1049380E+00
          2   -1    0    0  501    0  0.00000000000E+00  0.00000000000E+00  0.56580798655E+03  0.56580798656E+03  0.25500000000E-02 0. -1.
         -2   -1    0    0    0  501 -0.00000000000E+00 -0.00000000000E+00 -0.46795288803E+03  0.46795288804E+03  0.25500000000E-02 0.  1.
    8880022    1    1    2    0    0  0.28489210518E+03  0.20755676171E+03  0.39272339791E+03  0.54942391758E+03  0.15294330000E+03 0.  0.
    8880022    1    1    2    0    0 -0.28489210518E+03 -0.20755676171E+03 -0.29486829939E+03  0.48433695701E+03  0.15294330000E+03 0.  0.
<mgrwt>
<rscale>  0 0.38423297E+03</rscale>
<asrwt>0</asrwt>
<pdfrwt beam="1">  1        2 0.87047382E-01 0.38423297E+03</pdfrwt>
<pdfrwt beam="2">  1       -2 0.71992752E-01 0.38423297E+03</pdfrwt>
<totfact> 0.96771108E+01</totfact>
</mgrwt>
</event>
<event>
 4    1  0.1104584E-007  0.9127425E+03  0.7818608E-02  0.9409791E-01
         -2   -1    0    0    0  501 -0.00000000000E+00  0.00000000000E+00  0.80751997187E+03  0.80751997187E+03  0.25500000000E-02 0.  1.
          2   -1    0    0  501    0  0.00000000000E+00 -0.00000000000E+00 -0.12956003606E+04  0.12956003606E+04  0.25500000000E-02 0. -1.
    8880022    1    1    2    0    0  0.89697516724E+03 -0.71713716092E+02  0.23057140644E+03  0.94141496388E+03  0.15294330000E+03 0.  0.
    8880022    1    1    2    0    0 -0.89697516724E+03  0.71713716092E+02 -0.71865179518E+03  0.11617053686E+04  0.15294330000E+03 0.  0.
<mgrwt>
<rscale>  0 0.91274255E+03</rscale>
<asrwt>0</asrwt>
<pdfrwt beam="1">  1        2 0.19932313E+00 0.91274255E+03</pdfrwt>
<pdfrwt beam="2">  1       -2 0.12423384E+00 0.91274255E+03</pdfrwt>
<totfact> 0.81115637E+00</totfact>
</mgrwt>
</event>
<event>
 4    1  0.1104584E-007  0.3184818E+03  0.7818608E-02  0.1076350E+00
          2   -1    0    0  501    0  0.00000000000E+00  0.00000000000E+00  0.21242202706E+04  0.21242202707E+04  0.25500000000E-02 0. -1.
         -2   -1    0    0    0  501 -0.00000000000E+00 -0.00000000000E+00 -0.84136687222E+02  0.84136687261E+02  0.25500000000E-02 0.  1.
    8880022    1    1    2    0    0  0.23083366828E+03 -0.15733662174E+03  0.17461816516E+04  0.17749876079E+04  0.15294330000E+03 0. -1.
    8880022    1    1    2    0    0 -0.23083366828E+03  0.15733662174E+03  0.29390193186E+03  0.43336935000E+03  0.15294330000E+03 0.  0.
<mgrwt>
<rscale>  0 0.31848179E+03</rscale>
<asrwt>0</asrwt>
<pdfrwt beam="1">  1        2 0.32680308E+00 0.31848179E+03</pdfrwt>
<pdfrwt beam="2">  1       -2 0.12944107E-01 0.31848179E+03</pdfrwt>
<totfact> 0.27720438E+02</totfact>
</mgrwt>
</event>
<event>
 4    1  0.1104584E-007  0.1028943E+04  0.7818608E-02  0.9277359E-01
          2   -1    0    0  501    0  0.00000000000E+00  0.00000000000E+00  0.31116028598E+04  0.31116028598E+04  0.25500000000E-02 0. -1.
         -2   -1    0    0    0  501 -0.00000000000E+00 -0.00000000000E+00 -0.56652436452E+03  0.56652436453E+03  0.25500000000E-02 0.  1.
    8880022    1    1    2    0    0 -0.79549430428E+03 -0.63444455538E+03  0.24348042878E+04  0.26432923893E+04  0.15294330000E+03 0.  0.
    8880022    1    1    2    0    0  0.79549430428E+03  0.63444455538E+03  0.11027420742E+03  0.10348348351E+04  0.15294330000E+03 0.  0.
<mgrwt>
<rscale>  0 0.10289425E+04</rscale>
<asrwt>0</asrwt>
<pdfrwt beam="1">  1        2 0.47870813E+00 0.10289425E+04</pdfrwt>
<pdfrwt beam="2">  1       -2 0.87157596E-01 0.10289425E+04</pdfrwt>
<totfact> 0.17148039E+00</totfact>
</mgrwt>
</event>
<event>
 4    1  0.1104584E-007  0.8127867E+03  0.7818608E-02  0.9541691E-01
         -2   -1    0    0    0  501 -0.00000000000E+00  0.00000000000E+00  0.62062334519E+03  0.62062334519E+03  0.25500000000E-02 0.  1.
          2   -1    0    0  501    0  0.00000000000E+00 -0.00000000000E+00 -0.25965797627E+04  0.25965797627E+04  0.25500000000E-02 0. -1.
    8880022    1    1    2    0    0 -0.27978347129E+03 -0.74763072496E+03 -0.22236283130E+04  0.23675187473E+04  0.15294330000E+03 0.  0.
    8880022    1    1    2    0    0  0.27978347129E+03  0.74763072496E+03  0.24767189549E+03  0.84968436053E+03  0.15294330000E+03 0.  0.
<mgrwt>
<rscale>  0 0.81278665E+03</rscale>
<asrwt>0</asrwt>
<pdfrwt beam="1">  1        2 0.39947380E+00 0.81278665E+03</pdfrwt>
<pdfrwt beam="2">  1       -2 0.95480516E-01 0.81278665E+03</pdfrwt>
<totfact> 0.29322241E+00</totfact>
</mgrwt>
</event>
<event>
 4    1  0.1104584E-007  0.5576547E+03  0.7818608E-02  0.9997375E-01
         -2   -1    0    0    0  501 -0.00000000000E+00  0.00000000000E+00  0.33146864986E+03  0.33146864987E+03  0.25500000000E-02 0.  1.
          2   -1    0    0  501    0  0.00000000000E+00 -0.00000000000E+00 -0.15306884630E+04  0.15306884630E+04  0.25500000000E-02 0. -1.
    8880022    1    1    2    0    0 -0.17898366264E+03  0.50552147910E+03 -0.11788898965E+04  0.13041319559E+04  0.15294330000E+03 0.  0.
    8880022    1    1    2    0    0  0.17898366264E+03 -0.50552147910E+03 -0.20329916682E+02  0.55802515700E+03  0.15294330000E+03 0.  0.
<mgrwt>
<rscale>  0 0.55765471E+03</rscale>
<asrwt>0</asrwt>
<pdfrwt beam="1">  1        2 0.23549053E+00 0.55765471E+03</pdfrwt>
<pdfrwt beam="2">  1       -2 0.50995178E-01 0.55765471E+03</pdfrwt>
<totfact> 0.46432465E+01</totfact>
</mgrwt>
</event>
<event>
 4    1  0.1104584E-007  0.4020153E+03  0.7818608E-02  0.1043084E+00
         -2   -1    0    0    0  501 -0.00000000000E+00  0.00000000000E+00  0.30502934538E+03  0.30502934539E+03  0.25500000000E-02 0.  1.
          2   -1    0    0  501    0  0.00000000000E+00 -0.00000000000E+00 -0.23076925213E+04  0.23076925213E+04  0.25500000000E-02 0. -1.
    8880022    1    1    2    0    0  0.32291379221E+03  0.18425896379E+03 -0.21479587995E+04  0.21852558982E+04  0.15294330000E+03 0.  0.
    8880022    1    1    2    0    0 -0.32291379221E+03 -0.18425896379E+03  0.14529562366E+03  0.42746596848E+03  0.15294330000E+03 0.  0.
<mgrwt>
<rscale>  0 0.40201534E+03</rscale>
<asrwt>0</asrwt>
<pdfrwt beam="1">  1        2 0.35502961E+00 0.40201534E+03</pdfrwt>
<pdfrwt beam="2">  1       -2 0.46927593E-01 0.40201534E+03</pdfrwt>
<totfact> 0.21566103E+01</totfact>
</mgrwt>
</event>
<event>
 4    1  0.1104584E-007  0.1036551E+04  0.7818608E-02  0.9269340E-01
          2   -1    0    0  501    0  0.00000000000E+00  0.00000000000E+00  0.22699813112E+04  0.22699813112E+04  0.25500000000E-02 0. -1.
         -2   -1    0    0    0  501 -0.00000000000E+00 -0.00000000000E+00 -0.55766158769E+03  0.55766158770E+03  0.25500000000E-02 0.  1.
    8880022    1    1    2    0    0  0.86032217654E+03  0.55757721778E+03  0.14059765916E+04  0.17467708580E+04  0.15294330000E+03 0.  0.
    8880022    1    1    2    0    0 -0.86032217654E+03 -0.55757721778E+03  0.30634313186E+03  0.10808720408E+04  0.15294330000E+03 0.  0.
<mgrwt>
<rscale>  0 0.10365511E+04</rscale>
<asrwt>0</asrwt>
<pdfrwt beam="1">  1        2 0.34922788E+00 0.10365511E+04</pdfrwt>
<pdfrwt beam="2">  1       -2 0.85794094E-01 0.10365511E+04</pdfrwt>
<totfact> 0.55678631E+00</totfact>
</mgrwt>
</event>
<event>
 4    1  0.1104584E-007  0.2168022E+03  0.7818608E-02  0.1136290E+00
          2   -1    0    0  501    0  0.00000000000E+00  0.00000000000E+00  0.60292195246E+03  0.60292195247E+03  0.25500000000E-02 0. -1.
         -2   -1    0    0    0  501 -0.00000000000E+00 -0.00000000000E+00 -0.25118952674E+03  0.25118952675E+03  0.25500000000E-02 0.  1.
    8880022    1    1    2    0    0  0.98333353193E+02  0.11807670654E+03  0.53051295599E+03  0.57310313772E+03  0.15294330000E+03 0.  0.
    8880022    1    1    2    0    0 -0.98333353193E+02 -0.11807670654E+03 -0.17878053027E+03  0.28100834150E+03  0.15294330000E+03 0.  1.
<mgrwt>
<rscale>  0 0.21680224E+03</rscale>
<asrwt>0</asrwt>
<pdfrwt beam="1">  1        2 0.92757222E-01 0.21680224E+03</pdfrwt>
<pdfrwt beam="2">  1       -2 0.38644543E-01 0.21680224E+03</pdfrwt>
<totfact> 0.32320958E+02</totfact>
</mgrwt>
</event>
<event>
 4    1  0.1104584E-007  0.1460710E+04  0.7818608E-02  0.8911009E-01
          2   -1    0    0  501    0  0.00000000000E+00  0.00000000000E+00  0.17166282377E+04  0.17166282377E+04  0.25500000000E-02 0. -1.
         -2   -1    0    0    0  501 -0.00000000000E+00 -0.00000000000E+00 -0.14838030913E+04  0.14838030913E+04  0.25500000000E-02 0.  1.
    8880022    1    1    2    0    0 -0.12102799408E+04  0.80343365068E+03 -0.52830695705E+03  0.15533135743E+04  0.15294330000E+03 0.  0.
    8880022    1    1    2    0    0  0.12102799408E+04 -0.80343365068E+03  0.76113210345E+03  0.16471177548E+04  0.15294330000E+03 0.  0.
<mgrwt>
<rscale>  0 0.14607104E+04</rscale>
<asrwt>0</asrwt>
<pdfrwt beam="1">  1        2 0.26409665E+00 0.14607104E+04</pdfrwt>
<pdfrwt beam="2">  1       -2 0.22827740E+00 0.14607104E+04</pdfrwt>
<totfact> 0.79342678E-01</totfact>
</mgrwt>
</event>
<event>
 4    1  0.1104584E-007  0.5166137E+03  0.7818608E-02  0.1009531E+00
          2   -1    0    0  501    0  0.00000000000E+00  0.00000000000E+00  0.57507674492E+04  0.57507674492E+04  0.25500000000E-02 0. -1.
         -2   -1    0    0    0  501 -0.00000000000E+00 -0.00000000000E+00 -0.67613317941E+02  0.67613317989E+02  0.25500000000E-02 0.  1.
    8880022    1    1    2    0    0 -0.35329921891E+03 -0.34449639000E+03  0.12124163777E+04  0.13178934808E+04  0.15294330000E+03 0.  0.
    8880022    1    1    2    0    0  0.35329921891E+03  0.34449639000E+03  0.44707377536E+04  0.45004872864E+04  0.15294330000E+03 0.  0.
<mgrwt>
<rscale>  0 0.51661374E+03</rscale>
<asrwt>0</asrwt>
<pdfrwt beam="1">  1        2 0.88473334E+00 0.51661374E+03</pdfrwt>
<pdfrwt beam="2">  1       -2 0.10402050E-01 0.51661374E+03</pdfrwt>
<totfact> 0.16009499E-01</totfact>
</mgrwt>
</event>
<event>
 4    1  0.1104584E-007  0.5666109E+03  0.7818608E-02  0.9977206E-01
          2   -1    0    0  501    0  0.00000000000E+00  0.00000000000E+00  0.74563285368E+03  0.74563285369E+03  0.25500000000E-02 0. -1.
         -2   -1    0    0    0  501 -0.00000000000E+00 -0.00000000000E+00 -0.67656331283E+03  0.67656331284E+03  0.25500000000E-02 0.  1.
    8880022    1    1    2    0    0  0.33185581461E+03  0.43304504781E+03  0.46331620923E+03  0.73192202992E+03  0.15294330000E+03 0.  0.
    8880022    1    1    2    0    0 -0.33185581461E+03 -0.43304504781E+03 -0.39424666838E+03  0.69027413661E+03  0.15294330000E+03 0.  0.
<mgrwt>
<rscale>  0 0.56661093E+03</rscale>
<asrwt>0</asrwt>
<pdfrwt beam="1">  1        2 0.11471275E+00 0.56661093E+03</pdfrwt>
<pdfrwt beam="2">  1       -2 0.10408666E+00 0.56661093E+03</pdfrwt>
<totfact> 0.29290774E+01</totfact>
</mgrwt>
</event>
<event>
 4    1  0.1104584E-007  0.3469186E+03  0.7818608E-02  0.1063887E+00
         -2   -1    0    0    0  501 -0.00000000000E+00  0.00000000000E+00  0.31532003862E+03  0.31532003863E+03  0.25500000000E-02 0.  1.
          2   -1    0    0  501    0  0.00000000000E+00 -0.00000000000E+00 -0.19623408062E+04  0.19623408062E+04  0.25500000000E-02 0. -1.
    8880022    1    1    2    0    0 -0.12002803726E+03 -0.28732233449E+03  0.19858324765E+03  0.39973467811E+03  0.15294330000E+03 0.  0.
    8880022    1    1    2    0    0  0.12002803726E+03  0.28732233449E+03 -0.18456040152E+04  0.18779261667E+04  0.15294330000E+03 0. -1.
<mgrwt>
<rscale>  0 0.34691859E+03</rscale>
<asrwt>0</asrwt>
<pdfrwt beam="1">  1        2 0.30189858E+00 0.34691859E+03</pdfrwt>
<pdfrwt beam="2">  1       -2 0.48510776E-01 0.34691859E+03</pdfrwt>
<totfact> 0.31420544E+01</totfact>
</mgrwt>
</event>
<event>
 4    1  0.1104584E-007  0.7894529E+03  0.7818608E-02  0.9575410E-01
          2   -1    0    0  501    0  0.00000000000E+00  0.00000000000E+00  0.13049712017E+04  0.13049712017E+04  0.25500000000E-02 0. -1.
         -2   -1    0    0    0  501 -0.00000000000E+00 -0.00000000000E+00 -0.10325129150E+04  0.10325129150E+04  0.25500000000E-02 0.  1.
    8880022    1    1    2    0    0 -0.58874892373E+03 -0.50320869420E+03  0.99304763882E+03  0.12686132394E+04  0.15294330000E+03 0.  0.
    8880022    1    1    2    0    0  0.58874892373E+03  0.50320869420E+03 -0.72058935213E+03  0.10688708774E+04  0.15294330000E+03 0.  0.
<mgrwt>
<rscale>  0 0.78945294E+03</rscale>
<asrwt>0</asrwt>
<pdfrwt beam="1">  1        2 0.20076480E+00 0.78945294E+03</pdfrwt>
<pdfrwt beam="2">  1       -2 0.15884814E+00 0.78945294E+03</pdfrwt>
<totfact> 0.42941025E+00</totfact>
</mgrwt>
</event>
<event>
 4    1  0.1104584E-007  0.2097237E+03  0.7818608E-02  0.1141785E+00
          2   -1    0    0  501    0  0.00000000000E+00  0.00000000000E+00  0.22906051442E+03  0.22906051443E+03  0.25500000000E-02 0. -1.
         -2   -1    0    0    0  501 -0.00000000000E+00 -0.00000000000E+00 -0.53813631220E+03  0.53813631221E+03  0.25500000000E-02 0.  1.
    8880022    1    1    2    0    0 -0.41233253467E+02  0.13744882012E+03 -0.46217747252E+03  0.50753524849E+03  0.15294330000E+03 0.  1.
    8880022    1    1    2    0    0  0.41233253467E+02 -0.13744882012E+03  0.15310167474E+03  0.25966157815E+03  0.15294330000E+03 0.  0.
<mgrwt>
<rscale>  0 0.20972366E+03</rscale>
<asrwt>0</asrwt>
<pdfrwt beam="1">  1        2 0.35240079E-01 0.20972366E+03</pdfrwt>
<pdfrwt beam="2">  1       -2 0.82790202E-01 0.20972366E+03</pdfrwt>
<totfact> 0.19559070E+02</totfact>
</mgrwt>
</event>
<event>
 4    1  0.1104584E-007  0.7407025E+03  0.7818608E-02  0.9650051E-01
         -2   -1    0    0    0  501 -0.00000000000E+00  0.00000000000E+00  0.15076460810E+04  0.15076460810E+04  0.25500000000E-02 0.  1.
          2   -1    0    0  501    0  0.00000000000E+00 -0.00000000000E+00 -0.52399940833E+03  0.52399940834E+03  0.25500000000E-02 0. -1.
    8880022    1    1    2    0    0  0.47849966022E+03  0.54432213506E+03 -0.69664587858E+02  0.74397131622E+03  0.15294330000E+03 0.  0.
    8880022    1    1    2    0    0 -0.47849966022E+03 -0.54432213506E+03  0.10533112605E+04  0.12876741731E+04  0.15294330000E+03 0.  0.
<mgrwt>
<rscale>  0 0.74070248E+03</rscale>
<asrwt>0</asrwt>
<pdfrwt beam="1">  1        2 0.80615296E-01 0.74070248E+03</pdfrwt>
<pdfrwt beam="2">  1       -2 0.23194554E+00 0.74070248E+03</pdfrwt>
<totfact> 0.49752760E+00</totfact>
</mgrwt>
</event>
<event>
 4    1  0.1104584E-007  0.1769415E+03  0.7818608E-02  0.1170796E+00
          2   -1    0    0  501    0  0.00000000000E+00  0.00000000000E+00  0.11669597740E+04  0.11669597740E+04  0.25500000000E-02 0. -1.
         -2   -1    0    0    0  501 -0.00000000000E+00 -0.00000000000E+00 -0.53758939003E+03  0.53758939004E+03  0.25500000000E-02 0.  1.
    8880022    1    1    2    0    0 -0.74823176759E+02  0.48147035030E+02 -0.51605040617E+03  0.54554222521E+03  0.15294330000E+03 0.  1.
    8880022    1    1    2    0    0  0.74823176759E+02 -0.48147035030E+02  0.11454207901E+04  0.11590069388E+04  0.15294330000E+03 0.  0.
<mgrwt>
<rscale>  0 0.17694151E+03</rscale>
<asrwt>0</asrwt>
<pdfrwt beam="1">  1        2 0.17953227E+00 0.17694151E+03</pdfrwt>
<pdfrwt beam="2">  1       -2 0.82706060E-01 0.17694151E+03</pdfrwt>
<totfact> 0.29058206E+01</totfact>
</mgrwt>
</event>
<event>
 4    1  0.1104584E-007  0.6286516E+03  0.7818608E-02  0.9847684E-01
          2   -1    0    0  501    0  0.00000000000E+00  0.00000000000E+00  0.11643823495E+04  0.11643823495E+04  0.25500000000E-02 0. -1.
         -2   -1    0    0    0  501 -0.00000000000E+00 -0.00000000000E+00 -0.58342666097E+03  0.58342666098E+03  0.25500000000E-02 0.  1.
    8880022    1    1    2    0    0  0.59688770733E+03  0.12464428490E+03  0.85564999871E+03  0.10617625470E+04  0.15294330000E+03 0.  0.
    8880022    1    1    2    0    0 -0.59688770733E+03 -0.12464428490E+03 -0.27469431022E+03  0.68604646344E+03  0.15294330000E+03 0.  0.
<mgrwt>
<rscale>  0 0.62865156E+03</rscale>
<asrwt>0</asrwt>
<pdfrwt beam="1">  1        2 0.17913574E+00 0.62865156E+03</pdfrwt>
<pdfrwt beam="2">  1       -2 0.89757950E-01 0.62865156E+03</pdfrwt>
<totfact> 0.21867054E+01</totfact>
</mgrwt>
</event>
<event>
 4    1  0.1104584E-007  0.8846278E+03  0.7818608E-02  0.9445004E-01
          2   -1    0    0  501    0  0.00000000000E+00  0.00000000000E+00  0.72111975421E+03  0.72111975421E+03  0.25500000000E-02 0. -1.
         -2   -1    0    0    0  501 -0.00000000000E+00 -0.00000000000E+00 -0.23241978426E+04  0.23241978426E+04  0.25500000000E-02 0.  1.
    8880022    1    1    2    0    0  0.56403723567E+03  0.66410591825E+03  0.31019161317E+03  0.93743541846E+03  0.15294330000E+03 0.  0.
    8880022    1    1    2    0    0 -0.56403723567E+03 -0.66410591825E+03 -0.19132697016E+04  0.21078821784E+04  0.15294330000E+03 0.  0.
<mgrwt>
<rscale>  0 0.88462779E+03</rscale>
<asrwt>0</asrwt>
<pdfrwt beam="1">  1        2 0.11094150E+00 0.88462779E+03</pdfrwt>
<pdfrwt beam="2">  1       -2 0.35756890E+00 0.88462779E+03</pdfrwt>
<totfact> 0.56728324E-01</totfact>
</mgrwt>
</event>
<event>
 4    1  0.1104584E-007  0.3561637E+03  0.7818608E-02  0.1060113E+00
         -2   -1    0    0    0  501 -0.00000000000E+00  0.00000000000E+00  0.71329889620E+03  0.71329889620E+03  0.25500000000E-02 0.  1.
          2   -1    0    0  501    0  0.00000000000E+00 -0.00000000000E+00 -0.53263698996E+03  0.53263698996E+03  0.25500000000E-02 0. -1.
    8880022    1    1    2    0    0  0.31310478390E+03 -0.73663525694E+02 -0.41810989142E+03  0.54924352981E+03  0.15294330000E+03 0. -1.
    8880022    1    1    2    0    0 -0.31310478390E+03  0.73663525694E+02  0.59877179766E+03  0.69669235636E+03  0.15294330000E+03 0.  0.
<mgrwt>
<rscale>  0 0.35616369E+03</rscale>
<asrwt>0</asrwt>
<pdfrwt beam="1">  1        2 0.81944153E-01 0.35616369E+03</pdfrwt>
<pdfrwt beam="2">  1       -2 0.10973829E+00 0.35616369E+03</pdfrwt>
<totfact> 0.39830357E+01</totfact>
</mgrwt>
</event>
<event>
 4    1  0.1104584E-007  0.7831397E+03  0.7818608E-02  0.9584748E-01
         -2   -1    0    0    0  501 -0.00000000000E+00  0.00000000000E+00  0.74379729122E+03  0.74379729122E+03  0.25500000000E-02 0.  1.
          2   -1    0    0  501    0  0.00000000000E+00 -0.00000000000E+00 -0.16042167490E+04  0.16042167490E+04  0.25500000000E-02 0. -1.
    8880022    1    1    2    0    0 -0.76403088960E+03 -0.78567669193E+02 -0.12486557735E+04  0.14739229873E+04  0.15294330000E+03 0.  0.
    8880022    1    1    2    0    0  0.76403088960E+03  0.78567669193E+02  0.38823631570E+03  0.87409105289E+03  0.15294330000E+03 0.  0.
<mgrwt>
<rscale>  0 0.78313966E+03</rscale>
<asrwt>0</asrwt>
<pdfrwt beam="1">  1        2 0.24680258E+00 0.78313966E+03</pdfrwt>
<pdfrwt beam="2">  1       -2 0.11443035E+00 0.78313966E+03</pdfrwt>
<totfact> 0.67667531E+00</totfact>
</mgrwt>
</event>
<event>
 4    1  0.1104584E-007  0.4911977E+03  0.7818608E-02  0.1016102E+00
          2   -1    0    0  501    0  0.00000000000E+00  0.00000000000E+00  0.68626320436E+03  0.68626320437E+03  0.25500000000E-02 0. -1.
         -2   -1    0    0    0  501 -0.00000000000E+00 -0.00000000000E+00 -0.10234333793E+04  0.10234333793E+04  0.25500000000E-02 0.  1.
    8880022    1    1    2    0    0  0.22064191599E+03  0.41134004353E+03  0.52403823980E+03  0.71825567613E+03  0.15294330000E+03 0.  0.
    8880022    1    1    2    0    0 -0.22064191599E+03 -0.41134004353E+03 -0.86120841475E+03  0.99144090755E+03  0.15294330000E+03 0.  0.
<mgrwt>
<rscale>  0 0.49119766E+03</rscale>
<asrwt>0</asrwt>
<pdfrwt beam="1">  1        2 0.10557895E+00 0.49119766E+03</pdfrwt>
<pdfrwt beam="2">  1       -2 0.15745129E+00 0.49119766E+03</pdfrwt>
<totfact> 0.11617077E+01</totfact>
</mgrwt>
</event>
<event>
 4    1  0.1104584E-007  0.6851647E+03  0.7818608E-02  0.9742944E-01
         -2   -1    0    0    0  501 -0.00000000000E+00  0.00000000000E+00  0.10416448160E+04  0.10416448160E+04  0.25500000000E-02 0.  1.
          2   -1    0    0  501    0  0.00000000000E+00 -0.00000000000E+00 -0.10927528619E+04  0.10927528619E+04  0.25500000000E-02 0. -1.
    8880022    1    1    2    0    0  0.61393588060E+03 -0.26294819856E+03 -0.84359642359E+03  0.10867868234E+04  0.15294330000E+03 0.  0.
    8880022    1    1    2    0    0 -0.61393588060E+03  0.26294819856E+03  0.79248837771E+03  0.10476108545E+04  0.15294330000E+03 0.  0.
<mgrwt>
<rscale>  0 0.68516471E+03</rscale>
<asrwt>0</asrwt>
<pdfrwt beam="1">  1        2 0.16811583E+00 0.68516471E+03</pdfrwt>
<pdfrwt beam="2">  1       -2 0.16025305E+00 0.68516471E+03</pdfrwt>
<totfact> 0.56866491E+00</totfact>
</mgrwt>
</event>
<event>
 4    1  0.1104584E-007  0.8267688E+03  0.7818608E-02  0.9522059E-01
         -2   -1    0    0    0  501 -0.00000000000E+00  0.00000000000E+00  0.22958062800E+03  0.22958062802E+03  0.25500000000E-02 0.  1.
          2   -1    0    0  501    0  0.00000000000E+00 -0.00000000000E+00 -0.32416788209E+04  0.32416788209E+04  0.25500000000E-02 0. -1.
    8880022    1    1    2    0    0  0.70350568706E+03  0.40649083164E+03 -0.20016443124E+04  0.21656700244E+04  0.15294330000E+03 0.  0.
    8880022    1    1    2    0    0 -0.70350568706E+03 -0.40649083164E+03 -0.10104538805E+04  0.13055894246E+04  0.15294330000E+03 0.  0.
<mgrwt>
<rscale>  0 0.82676883E+03</rscale>
<asrwt>0</asrwt>
<pdfrwt beam="1">  1        2 0.49871979E+00 0.82676883E+03</pdfrwt>
<pdfrwt beam="2">  1       -2 0.35320099E-01 0.82676883E+03</pdfrwt>
<totfact> 0.96844310E+00</totfact>
</mgrwt>
</event>
<event>
 4    1  0.1104584E-007  0.6825922E+03  0.7818608E-02  0.9747474E-01
          2   -1    0    0  501    0  0.00000000000E+00  0.00000000000E+00  0.18149626746E+04  0.18149626746E+04  0.25500000000E-02 0. -1.
         -2   -1    0    0    0  501 -0.00000000000E+00 -0.00000000000E+00 -0.79748731553E+03  0.79748731554E+03  0.25500000000E-02 0.  1.
    8880022    1    1    2    0    0 -0.65920661835E+03  0.89370571488E+02  0.15843665329E+04  0.17251520015E+04  0.15294330000E+03 0.  0.
    8880022    1    1    2    0    0  0.65920661835E+03 -0.89370571488E+02 -0.56689117380E+03  0.88729798866E+03  0.15294330000E+03 0.  0.
<mgrwt>
<rscale>  0 0.68259220E+03</rscale>
<asrwt>0</asrwt>
<pdfrwt beam="1">  1        2 0.27922503E+00 0.68259220E+03</pdfrwt>
<pdfrwt beam="2">  1       -2 0.12269036E+00 0.68259220E+03</pdfrwt>
<totfact> 0.44401083E+00</totfact>
</mgrwt>
</event>
<event>
 4    1  0.1104584E-007  0.3657158E+03  0.7818608E-02  0.1056343E+00
         -2   -1    0    0    0  501 -0.00000000000E+00  0.00000000000E+00  0.16146174920E+03  0.16146174922E+03  0.25500000000E-02 0.  1.
          2   -1    0    0  501    0  0.00000000000E+00 -0.00000000000E+00 -0.14040336375E+04  0.14040336375E+04  0.25500000000E-02 0. -1.
    8880022    1    1    2    0    0  0.24431456302E+03  0.22509281162E+03 -0.11224987943E+04  0.11805725627E+04  0.15294330000E+03 0.  0.
    8880022    1    1    2    0    0 -0.24431456302E+03 -0.22509281162E+03 -0.12007309400E+03  0.38492282404E+03  0.15294330000E+03 0.  0.
<mgrwt>
<rscale>  0 0.36571578E+03</rscale>
<asrwt>0</asrwt>
<pdfrwt beam="1">  1        2 0.21600517E+00 0.36571578E+03</pdfrwt>
<pdfrwt beam="2">  1       -2 0.24840270E-01 0.36571578E+03</pdfrwt>
<totfact> 0.21963313E+02</totfact>
</mgrwt>
</event>
<event>
 4    1  0.1104584E-007  0.1343074E+04  0.7818608E-02  0.8996088E-01
         -2   -1    0    0    0  501 -0.00000000000E+00  0.00000000000E+00  0.94579727451E+03  0.94579727452E+03  0.25500000000E-02 0.  1.
          2   -1    0    0  501    0  0.00000000000E+00 -0.00000000000E+00 -0.21602883365E+04  0.21602883365E+04  0.25500000000E-02 0. -1.
    8880022    1    1    2    0    0 -0.12845665758E+04  0.36103326488E+03 -0.11387934293E+04  0.17608800168E+04  0.15294330000E+03 0.  0.
    8880022    1    1    2    0    0  0.12845665758E+04 -0.36103326488E+03 -0.75697632744E+02  0.13452055942E+04  0.15294330000E+03 0.  0.
<mgrwt>
<rscale>  0 0.13430741E+04</rscale>
<asrwt>0</asrwt>
<pdfrwt beam="1">  1        2 0.33235205E+00 0.13430741E+04</pdfrwt>
<pdfrwt beam="2">  1       -2 0.14550727E+00 0.13430741E+04</pdfrwt>
<totfact> 0.16937786E+00</totfact>
</mgrwt>
</event>
<event>
 4    1  0.1104584E-007  0.2751980E+03  0.7818608E-02  0.1098341E+00
          2   -1    0    0  501    0  0.00000000000E+00  0.00000000000E+00  0.65332835458E+03  0.65332835458E+03  0.25500000000E-02 0. -1.
         -2   -1    0    0    0  501 -0.00000000000E+00 -0.00000000000E+00 -0.13037418805E+03  0.13037418807E+03  0.25500000000E-02 0.  1.
    8880022    1    1    2    0    0  0.13594235542E+03  0.18401627054E+03  0.13100456716E+03  0.30478871609E+03  0.15294330000E+03 0.  0.
    8880022    1    1    2    0    0 -0.13594235542E+03 -0.18401627054E+03  0.39194959937E+03  0.47891382657E+03  0.15294330000E+03 0.  0.
<mgrwt>
<rscale>  0 0.27519805E+03</rscale>
<asrwt>0</asrwt>
<pdfrwt beam="1">  1        2 0.10051205E+00 0.27519805E+03</pdfrwt>
<pdfrwt beam="2">  1       -2 0.20057568E-01 0.27519805E+03</pdfrwt>
<totfact> 0.95591677E+02</totfact>
</mgrwt>
</event>
<event>
 4    1  0.1104584E-007  0.3077576E+03  0.7818608E-02  0.1081426E+00
         -2   -1    0    0    0  501 -0.00000000000E+00  0.00000000000E+00  0.65202517642E+02  0.65202517692E+02  0.25500000000E-02 0.  1.
          2   -1    0    0  501    0  0.00000000000E+00 -0.00000000000E+00 -0.21915233237E+04  0.21915233237E+04  0.25500000000E-02 0. -1.
    8880022    1    1    2    0    0 -0.25939842991E+03  0.63526077180E+02 -0.40796882380E+03  0.51103162537E+03  0.15294330000E+03 0.  0.
    8880022    1    1    2    0    0  0.25939842991E+03 -0.63526077180E+02 -0.17183519823E+04  0.17456942160E+04  0.15294330000E+03 0.  0.
<mgrwt>
<rscale>  0 0.30775763E+03</rscale>
<asrwt>0</asrwt>
<pdfrwt beam="1">  1        2 0.33715738E+00 0.30775763E+03</pdfrwt>
<pdfrwt beam="2">  1       -2 0.10031158E-01 0.30775763E+03</pdfrwt>
<totfact> 0.38645054E+02</totfact>
</mgrwt>
</event>
<event>
 4    1  0.1104584E-007  0.7054738E+03  0.7818608E-02  0.9707917E-01
         -2   -1    0    0    0  501 -0.00000000000E+00  0.00000000000E+00  0.64557011949E+03  0.64557011949E+03  0.25500000000E-02 0.  1.
          2   -1    0    0  501    0  0.00000000000E+00 -0.00000000000E+00 -0.15135634685E+04  0.15135634685E+04  0.25500000000E-02 0. -1.
    8880022    1    1    2    0    0  0.25308896458E+03  0.64050579514E+03 -0.11901931629E+04  0.13835653637E+04  0.15294330000E+03 0.  0.
    8880022    1    1    2    0    0 -0.25308896458E+03 -0.64050579514E+03  0.32219981381E+03  0.77556822436E+03  0.15294330000E+03 0.  0.
<mgrwt>
<rscale>  0 0.70547385E+03</rscale>
<asrwt>0</asrwt>
<pdfrwt beam="1">  1        2 0.23285592E+00 0.70547385E+03</pdfrwt>
<pdfrwt beam="2">  1       -2 0.99318481E-01 0.70547385E+03</pdfrwt>
<totfact> 0.10796812E+01</totfact>
</mgrwt>
</event>
<event>
 4    1  0.1104584E-007  0.5926229E+03  0.7818608E-02  0.9920831E-01
         -2   -1    0    0    0  501 -0.00000000000E+00  0.00000000000E+00  0.23511021010E+03  0.23511021011E+03  0.25500000000E-02 0.  1.
          2   -1    0    0  501    0  0.00000000000E+00 -0.00000000000E+00 -0.19691724039E+04  0.19691724039E+04  0.25500000000E-02 0. -1.
    8880022    1    1    2    0    0  0.46887570406E+03  0.32858144703E+03 -0.32549971020E+03  0.67613009661E+03  0.15294330000E+03 0.  0.
    8880022    1    1    2    0    0 -0.46887570406E+03 -0.32858144703E+03 -0.14085624836E+04  0.15281525174E+04  0.15294330000E+03 0.  0.
<mgrwt>
<rscale>  0 0.59262285E+03</rscale>
<asrwt>0</asrwt>
<pdfrwt beam="1">  1        2 0.30294959E+00 0.59262285E+03</pdfrwt>
<pdfrwt beam="2">  1       -2 0.36170803E-01 0.59262285E+03</pdfrwt>
<totfact> 0.52529539E+01</totfact>
</mgrwt>
</event>
<event>
 4    1  0.1104584E-007  0.7118629E+03  0.7818608E-02  0.9697157E-01
          2   -1    0    0  501    0  0.00000000000E+00  0.00000000000E+00  0.34586891753E+04  0.34586891753E+04  0.25500000000E-02 0. -1.
         -2   -1    0    0    0  501 -0.00000000000E+00 -0.00000000000E+00 -0.33130803807E+03  0.33130803808E+03  0.25500000000E-02 0.  1.
    8880022    1    1    2    0    0 -0.67147246583E+03  0.18022709597E+03  0.29789501036E+04  0.30628242606E+04  0.15294330000E+03 0. -1.
    8880022    1    1    2    0    0  0.67147246583E+03 -0.18022709597E+03  0.14843103360E+03  0.72717295277E+03  0.15294330000E+03 0.  0.
<mgrwt>
<rscale>  0 0.71186286E+03</rscale>
<asrwt>0</asrwt>
<pdfrwt beam="1">  1        2 0.53210602E+00 0.71186286E+03</pdfrwt>
<pdfrwt beam="2">  1       -2 0.50970468E-01 0.71186286E+03</pdfrwt>
<totfact> 0.34547019E+00</totfact>
</mgrwt>
</event>
<event>
 4    1  0.1104584E-007  0.6908735E+03  0.7818608E-02  0.9732968E-01
          2   -1    0    0  501    0  0.00000000000E+00  0.00000000000E+00  0.10814121244E+04  0.10814121244E+04  0.25500000000E-02 0. -1.
         -2   -1    0    0    0  501 -0.00000000000E+00 -0.00000000000E+00 -0.55788013361E+03  0.55788013362E+03  0.25500000000E-02 0.  1.
    8880022    1    1    2    0    0  0.67075829063E+03  0.63228208737E+02 -0.11280327985E+03  0.70002194522E+03  0.15294330000E+03 0.  0.
    8880022    1    1    2    0    0 -0.67075829063E+03 -0.63228208737E+02  0.63633527064E+03  0.93927031280E+03  0.15294330000E+03 0.  0.
<mgrwt>
<rscale>  0 0.69087346E+03</rscale>
<asrwt>0</asrwt>
<pdfrwt beam="1">  1        2 0.16637109E+00 0.69087346E+03</pdfrwt>
<pdfrwt beam="2">  1       -2 0.85827714E-01 0.69087346E+03</pdfrwt>
<totfact> 0.26989855E+01</totfact>
</mgrwt>
</event>
<event>
 4    1  0.1104584E-007  0.5830178E+03  0.7818608E-02  0.9941279E-01
         -2   -1    0    0    0  501 -0.00000000000E+00  0.00000000000E+00  0.18001885941E+03  0.18001885943E+03  0.25500000000E-02 0.  1.
          2   -1    0    0  501    0  0.00000000000E+00 -0.00000000000E+00 -0.34538365167E+04  0.34538365167E+04  0.25500000000E-02 0. -1.
    8880022    1    1    2    0    0  0.23994250154E+03 -0.50886702963E+03 -0.28602108384E+04  0.29190265074E+04  0.15294330000E+03 0.  0.
    8880022    1    1    2    0    0 -0.23994250154E+03  0.50886702963E+03 -0.41360681888E+03  0.71482886870E+03  0.15294330000E+03 0.  0.
<mgrwt>
<rscale>  0 0.58301776E+03</rscale>
<asrwt>0</asrwt>
<pdfrwt beam="1">  1        2 0.53135942E+00 0.58301776E+03</pdfrwt>
<pdfrwt beam="2">  1       -2 0.27695212E-01 0.58301776E+03</pdfrwt>
<totfact> 0.11623340E+01</totfact>
</mgrwt>
</event>
<event>
 4    1  0.1104584E-007  0.8231396E+03  0.7818608E-02  0.9527115E-01
          2   -1    0    0  501    0  0.00000000000E+00  0.00000000000E+00  0.13838532531E+04  0.13838532531E+04  0.25500000000E-02 0. -1.
         -2   -1    0    0    0  501 -0.00000000000E+00 -0.00000000000E+00 -0.13574977217E+04  0.13574977217E+04  0.25500000000E-02 0.  1.
    8880022    1    1    2    0    0 -0.73124004854E+03 -0.34562275813E+03 -0.10827829573E+04  0.13601388478E+04  0.15294330000E+03 0.  0.
    8880022    1    1    2    0    0  0.73124004854E+03  0.34562275813E+03  0.11091384888E+04  0.13812121270E+04  0.15294330000E+03 0.  0.
<mgrwt>
<rscale>  0 0.82313957E+03</rscale>
<asrwt>0</asrwt>
<pdfrwt beam="1">  1        2 0.21290050E+00 0.82313957E+03</pdfrwt>
<pdfrwt beam="2">  1       -2 0.20884580E+00 0.82313957E+03</pdfrwt>
<totfact> 0.17548772E+00</totfact>
</mgrwt>
</event>
<event>
 4    1  0.1104584E-007  0.5293318E+03  0.7818608E-02  0.1006394E+00
         -2   -1    0    0    0  501 -0.00000000000E+00  0.00000000000E+00  0.33688394614E+03  0.33688394615E+03  0.25500000000E-02 0.  1.
          2   -1    0    0  501    0  0.00000000000E+00 -0.00000000000E+00 -0.21196085193E+04  0.21196085193E+04  0.25500000000E-02 0. -1.
    8880022    1    1    2    0    0 -0.50687221734E+02 -0.50421352639E+03 -0.18487707073E+04  0.19230562279E+04  0.15294330000E+03 0.  0.
    8880022    1    1    2    0    0  0.50687221734E+02  0.50421352639E+03  0.66046134142E+02  0.53343623751E+03  0.15294330000E+03 0.  0.
<mgrwt>
<rscale>  0 0.52933177E+03</rscale>
<asrwt>0</asrwt>
<pdfrwt beam="1">  1        2 0.32609361E+00 0.52933177E+03</pdfrwt>
<pdfrwt beam="2">  1       -2 0.51828301E-01 0.52933177E+03</pdfrwt>
<totfact> 0.21668322E+01</totfact>
</mgrwt>
</event>
<event>
 4    1  0.1104584E-007  0.1310270E+04  0.7818608E-02  0.9021460E-01
         -2   -1    0    0    0  501 -0.00000000000E+00  0.00000000000E+00  0.13469220336E+04  0.13469220336E+04  0.25500000000E-02 0.  1.
          2   -1    0    0  501    0  0.00000000000E+00 -0.00000000000E+00 -0.24831196856E+04  0.24831196856E+04  0.25500000000E-02 0. -1.
    8880022    1    1    2    0    0  0.26552458779E+03 -0.12739358436E+04  0.76787758413E+03  0.15186979547E+04  0.15294330000E+03 0.  0.
    8880022    1    1    2    0    0 -0.26552458779E+03  0.12739358436E+04 -0.19040752361E+04  0.23113437646E+04  0.15294330000E+03 0.  0.
<mgrwt>
<rscale>  0 0.13102700E+04</rscale>
<asrwt>0</asrwt>
<pdfrwt beam="1">  1        2 0.38201841E+00 0.13102700E+04</pdfrwt>
<pdfrwt beam="2">  1       -2 0.20721877E+00 0.13102700E+04</pdfrwt>
<totfact> 0.40834091E-01</totfact>
</mgrwt>
</event>
<event>
 4    1  0.1104584E-007  0.3917782E+03  0.7818608E-02  0.1046664E+00
         -2   -1    0    0    0  501 -0.00000000000E+00  0.00000000000E+00  0.35372162115E+03  0.35372162116E+03  0.25500000000E-02 0.  1.
          2   -1    0    0  501    0  0.00000000000E+00 -0.00000000000E+00 -0.12248428245E+04  0.12248428245E+04  0.25500000000E-02 0. -1.
    8880022    1    1    2    0    0  0.23691309593E+03 -0.27197557047E+03  0.19868379390E+03  0.43927830464E+03  0.15294330000E+03 0.  0.
    8880022    1    1    2    0    0 -0.23691309593E+03  0.27197557047E+03 -0.10698049973E+04  0.11392861411E+04  0.15294330000E+03 0.  0.
<mgrwt>
<rscale>  0 0.39177823E+03</rscale>
<asrwt>0</asrwt>
<pdfrwt beam="1">  1        2 0.18843736E+00 0.39177823E+03</pdfrwt>
<pdfrwt beam="2">  1       -2 0.54418712E-01 0.39177823E+03</pdfrwt>
<totfact> 0.61910572E+01</totfact>
</mgrwt>
</event>
<event>
 4    1  0.1104584E-007  0.5562050E+03  0.7818608E-02  0.1000068E+00
         -2   -1    0    0    0  501 -0.00000000000E+00  0.00000000000E+00  0.16187896215E+04  0.16187896215E+04  0.25500000000E-02 0.  1.
          2   -1    0    0  501    0  0.00000000000E+00 -0.00000000000E+00 -0.37334020006E+03  0.37334020006E+03  0.25500000000E-02 0. -1.
    8880022    1    1    2    0    0  0.33637855136E+03  0.41571843800E+03 -0.73176449650E+02  0.56099803503E+03  0.15294330000E+03 0.  0.
    8880022    1    1    2    0    0 -0.33637855136E+03 -0.41571843800E+03  0.13186258711E+04  0.14311317866E+04  0.15294330000E+03 0.  0.
<mgrwt>
<rscale>  0 0.55620500E+03</rscale>
<asrwt>0</asrwt>
<pdfrwt beam="1">  1        2 0.57436953E-01 0.55620500E+03</pdfrwt>
<pdfrwt beam="2">  1       -2 0.24904456E+00 0.55620500E+03</pdfrwt>
<totfact> 0.59136556E+00</totfact>
</mgrwt>
</event>
<event>
 4    1  0.1104584E-007  0.6198673E+03  0.7818608E-02  0.9865024E-01
         -2   -1    0    0    0  501 -0.00000000000E+00  0.00000000000E+00  0.12060022932E+04  0.12060022932E+04  0.25500000000E-02 0.  1.
          2   -1    0    0  501    0  0.00000000000E+00 -0.00000000000E+00 -0.52647752281E+03  0.52647752282E+03  0.25500000000E-02 0. -1.
    8880022    1    1    2    0    0  0.55905490985E+03 -0.21977598166E+03  0.88407608895E+03  0.10797342536E+04  0.15294330000E+03 0.  0.
    8880022    1    1    2    0    0 -0.55905490985E+03  0.21977598166E+03 -0.20455131855E+03  0.65274556243E+03  0.15294330000E+03 0.  0.
<mgrwt>
<rscale>  0 0.61986735E+03</rscale>
<asrwt>0</asrwt>
<pdfrwt beam="1">  1        2 0.80996543E-01 0.61986735E+03</pdfrwt>
<pdfrwt beam="2">  1       -2 0.18553881E+00 0.61986735E+03</pdfrwt>
<totfact> 0.99500669E+00</totfact>
</mgrwt>
</event>
<event>
 4    1  0.1104584E-007  0.2385101E+03  0.7818608E-02  0.1120789E+00
          2   -1    0    0  501    0  0.00000000000E+00  0.00000000000E+00  0.15956315906E+04  0.15956315906E+04  0.25500000000E-02 0. -1.
         -2   -1    0    0    0  501 -0.00000000000E+00 -0.00000000000E+00 -0.87107031798E+03  0.87107031798E+03  0.25500000000E-02 0.  1.
    8880022    1    1    2    0    0 -0.14228281705E+03 -0.11511308992E+03  0.15701281939E+04  0.15881403029E+04  0.15294330000E+03 0. -1.
    8880022    1    1    2    0    0  0.14228281705E+03  0.11511308992E+03 -0.84556692129E+03  0.87856160563E+03  0.15294330000E+03 0.  0.
<mgrwt>
<rscale>  0 0.23851012E+03</rscale>
<asrwt>0</asrwt>
<pdfrwt beam="1">  1        2 0.24548178E+00 0.23851012E+03</pdfrwt>
<pdfrwt beam="2">  1       -2 0.13401082E+00 0.23851012E+03</pdfrwt>
<totfact> 0.53116281E+00</totfact>
</mgrwt>
</event>
<event>
 4    1  0.1104584E-007  0.3591388E+03  0.7818608E-02  0.1058925E+00
          2   -1    0    0  501    0  0.00000000000E+00  0.00000000000E+00  0.11928901670E+04  0.11928901670E+04  0.25500000000E-02 0. -1.
         -2   -1    0    0    0  501 -0.00000000000E+00 -0.00000000000E+00 -0.85346824196E+03  0.85346824197E+03  0.25500000000E-02 0.  1.
    8880022    1    1    2    0    0 -0.28260967131E+03 -0.16037706067E+03 -0.78646169361E+03  0.86458237111E+03  0.15294330000E+03 0.  0.
    8880022    1    1    2    0    0  0.28260967131E+03  0.16037706067E+03  0.11258836187E+04  0.11817760379E+04  0.15294330000E+03 0. -1.
<mgrwt>
<rscale>  0 0.35913880E+03</rscale>
<asrwt>0</asrwt>
<pdfrwt beam="1">  1        2 0.18352157E+00 0.35913880E+03</pdfrwt>
<pdfrwt beam="2">  1       -2 0.13130281E+00 0.35913880E+03</pdfrwt>
<totfact> 0.88848335E+00</totfact>
</mgrwt>
</event>
<event>
 4    1  0.1104584E-007  0.3962449E+03  0.7818608E-02  0.1045088E+00
          2   -1    0    0  501    0  0.00000000000E+00  0.00000000000E+00  0.37380732821E+04  0.37380732821E+04  0.25500000000E-02 0. -1.
         -2   -1    0    0    0  501 -0.00000000000E+00 -0.00000000000E+00 -0.45602338819E+02  0.45602338891E+02  0.25500000000E-02 0.  1.
    8880022    1    1    2    0    0  0.32124687228E+03  0.17440980034E+03  0.23777396400E+04  0.24105301865E+04  0.15294330000E+03 0.  1.
    8880022    1    1    2    0    0 -0.32124687228E+03 -0.17440980034E+03  0.13147313032E+04  0.13731454344E+04  0.15294330000E+03 0.  0.
<mgrwt>
<rscale>  0 0.39624485E+03</rscale>
<asrwt>0</asrwt>
<pdfrwt beam="1">  1        2 0.57508820E+00 0.39624485E+03</pdfrwt>
<pdfrwt beam="2">  1       -2 0.70157444E-02 0.39624485E+03</pdfrwt>
<totfact> 0.77570905E+01</totfact>
</mgrwt>
</event>
<event>
 4    1  0.1104584E-007  0.5510417E+03  0.7818608E-02  0.1001253E+00
         -2   -1    0    0    0  501 -0.00000000000E+00  0.00000000000E+00  0.78006942610E+03  0.78006942611E+03  0.25500000000E-02 0.  1.
          2   -1    0    0  501    0  0.00000000000E+00 -0.00000000000E+00 -0.21965584433E+04  0.21965584433E+04  0.25500000000E-02 0. -1.
    8880022    1    1    2    0    0 -0.42347170424E+03  0.31769014478E+03 -0.20582593538E+04  0.21307460039E+04  0.15294330000E+03 0.  0.
    8880022    1    1    2    0    0  0.42347170424E+03 -0.31769014478E+03  0.64177033666E+03  0.84588186551E+03  0.15294330000E+03 0.  0.
<mgrwt>
<rscale>  0 0.55104171E+03</rscale>
<asrwt>0</asrwt>
<pdfrwt beam="1">  1        2 0.33793207E+00 0.55104171E+03</pdfrwt>
<pdfrwt beam="2">  1       -2 0.12001068E+00 0.55104171E+03</pdfrwt>
<totfact> 0.29932982E+00</totfact>
</mgrwt>
</event>
<event>
 4    1  0.1104584E-007  0.1667103E+03  0.7818608E-02  0.1181323E+00
         -2   -1    0    0    0  501 -0.00000000000E+00  0.00000000000E+00  0.21565466049E+02  0.21565466200E+02  0.25500000000E-02 0.  1.
          2   -1    0    0  501    0  0.00000000000E+00 -0.00000000000E+00 -0.14961820261E+04  0.14961820261E+04  0.25500000000E-02 0. -1.
    8880022    1    1    2    0    0 -0.39104642855E+02  0.53586495594E+02 -0.45474040753E+03  0.48433581001E+03  0.15294330000E+03 0.  0.
    8880022    1    1    2    0    0  0.39104642855E+02 -0.53586495594E+02 -0.10198761525E+04  0.10334116823E+04  0.15294330000E+03 0.  0.
<mgrwt>
<rscale>  0 0.16671034E+03</rscale>
<asrwt>0</asrwt>
<pdfrwt beam="1">  1        2 0.23018177E+00 0.16671034E+03</pdfrwt>
<pdfrwt beam="2">  1       -2 0.33177652E-02 0.16671034E+03</pdfrwt>
<totfact> 0.49486667E+03</totfact>
</mgrwt>
</event>
<event>
 4    1  0.1104584E-007  0.4643309E+03  0.7818608E-02  0.1023533E+00
         -2   -1    0    0    0  501 -0.00000000000E+00  0.00000000000E+00  0.25040838857E+03  0.25040838859E+03  0.25500000000E-02 0.  1.
          2   -1    0    0  501    0  0.00000000000E+00 -0.00000000000E+00 -0.22895515449E+04  0.22895515449E+04  0.25500000000E-02 0. -1.
    8880022    1    1    2    0    0 -0.43434942741E+03  0.59599518084E+02 -0.16415129313E+02  0.46462096071E+03  0.15294330000E+03 0.  1.
    8880022    1    1    2    0    0  0.43434942741E+03 -0.59599518084E+02 -0.20227280271E+04  0.20753389728E+04  0.15294330000E+03 0.  0.
<mgrwt>
<rscale>  0 0.46433090E+03</rscale>
<asrwt>0</asrwt>
<pdfrwt beam="1">  1        2 0.35223869E+00 0.46433090E+03</pdfrwt>
<pdfrwt beam="2">  1       -2 0.38524369E-01 0.46433090E+03</pdfrwt>
<totfact> 0.31945489E+01</totfact>
</mgrwt>
</event>
<event>
 4    1  0.1104584E-007  0.3322477E+03  0.7818608E-02  0.1070147E+00
         -2   -1    0    0    0  501 -0.00000000000E+00  0.00000000000E+00  0.86303873196E+02  0.86303873234E+02  0.25500000000E-02 0.  1.
          2   -1    0    0  501    0  0.00000000000E+00 -0.00000000000E+00 -0.33434195383E+04  0.33434195383E+04  0.25500000000E-02 0. -1.
    8880022    1    1    2    0    0  0.27017213415E+03  0.11833793540E+03 -0.29760477269E+04  0.29945364541E+04  0.15294330000E+03 0.  0.
    8880022    1    1    2    0    0 -0.27017213415E+03 -0.11833793540E+03 -0.28106793817E+03  0.43518695742E+03  0.15294330000E+03 0.  0.
<mgrwt>
<rscale>  0 0.33224765E+03</rscale>
<asrwt>0</asrwt>
<pdfrwt beam="1">  1        2 0.51437214E+00 0.33224765E+03</pdfrwt>
<pdfrwt beam="2">  1       -2 0.13277522E-01 0.33224765E+03</pdfrwt>
<totfact> 0.52645328E+01</totfact>
</mgrwt>
</event>
<event>
 4    1  0.1104584E-007  0.6021757E+03  0.7818608E-02  0.9900902E-01
         -2   -1    0    0    0  501 -0.00000000000E+00  0.00000000000E+00  0.73259458094E+03  0.73259458094E+03  0.25500000000E-02 0.  1.
          2   -1    0    0  501    0  0.00000000000E+00 -0.00000000000E+00 -0.13092310530E+04  0.13092310530E+04  0.25500000000E-02 0. -1.
    8880022    1    1    2    0    0 -0.30408816566E+03 -0.49674371273E+03  0.51680277137E+03  0.79353682091E+03  0.15294330000E+03 0.  1.
    8880022    1    1    2    0    0  0.30408816566E+03  0.49674371273E+03 -0.10934392434E+04  0.12482888130E+04  0.15294330000E+03 0.  0.
<mgrwt>
<rscale>  0 0.60217571E+03</rscale>
<asrwt>0</asrwt>
<pdfrwt beam="1">  1        2 0.20142016E+00 0.60217571E+03</pdfrwt>
<pdfrwt beam="2">  1       -2 0.11270686E+00 0.60217571E+03</pdfrwt>
<totfact> 0.10551127E+01</totfact>
</mgrwt>
</event>
<event>
 4    1  0.1104584E-007  0.1534571E+04  0.7818608E-02  0.8861784E-01
         -2   -1    0    0    0  501 -0.00000000000E+00  0.00000000000E+00  0.13432572822E+04  0.13432572822E+04  0.25500000000E-02 0.  1.
          2   -1    0    0  501    0  0.00000000000E+00 -0.00000000000E+00 -0.35848210679E+04  0.35848210679E+04  0.25500000000E-02 0. -1.
    8880022    1    1    2    0    0 -0.95059022479E+03  0.11949455079E+04 -0.28821075708E+04  0.32651879341E+04  0.15294330000E+03 0.  0.
    8880022    1    1    2    0    0  0.95059022479E+03 -0.11949455079E+04  0.64054378504E+03  0.16628904161E+04  0.15294330000E+03 0.  0.
<mgrwt>
<rscale>  0 0.15345710E+04</rscale>
<asrwt>0</asrwt>
<pdfrwt beam="1">  1        2 0.55151093E+00 0.15345710E+04</pdfrwt>
<pdfrwt beam="2">  1       -2 0.20665497E+00 0.15345710E+04</pdfrwt>
<totfact> 0.80427017E-02</totfact>
</mgrwt>
</event>
<event>
 4    1  0.1104584E-007  0.7831829E+03  0.7818608E-02  0.9584683E-01
         -2   -1    0    0    0  501 -0.00000000000E+00  0.00000000000E+00  0.24548713504E+03  0.24548713505E+03  0.25500000000E-02 0.  1.
          2   -1    0    0  501    0  0.00000000000E+00 -0.00000000000E+00 -0.26139855139E+04  0.26139855139E+04  0.25500000000E-02 0. -1.
    8880022    1    1    2    0    0 -0.24328122512E+03  0.72855887249E+03 -0.88386976919E+03  0.11809323465E+04  0.15294330000E+03 0. -1.
    8880022    1    1    2    0    0  0.24328122512E+03 -0.72855887249E+03 -0.14846286097E+04  0.16785403024E+04  0.15294330000E+03 0.  0.
<mgrwt>
<rscale>  0 0.78318289E+03</rscale>
<asrwt>0</asrwt>
<pdfrwt beam="1">  1        2 0.40215160E+00 0.78318289E+03</pdfrwt>
<pdfrwt beam="2">  1       -2 0.37767253E-01 0.78318289E+03</pdfrwt>
<totfact> 0.20607435E+01</totfact>
</mgrwt>
</event>
<event>
 4    1  0.4446855E-007  0.1175026E+04  0.7818608E-02  0.9135001E-01
          2   -1    0    0  501    0  0.00000000000E+00  0.00000000000E+00  0.28368869674E+04  0.28368869674E+04  0.25500000000E-02 0. -1.
         -2   -1    0    0    0  501 -0.00000000000E+00 -0.00000000000E+00 -0.23949485640E+04  0.23949485640E+04  0.25500000000E-02 0.  1.
    8880022    1    1    2    0    0 -0.62761574669E+03  0.98152614105E+03  0.25560102138E+04  0.28131610258E+04  0.15294330000E+03 0.  0.
    8880022    1    1    2    0    0  0.62761574669E+03 -0.98152614105E+03 -0.21140718104E+04  0.24186745056E+04  0.15294330000E+03 0.  0.
<mgrwt>
<rscale>  0 0.11750263E+04</rscale>
<asrwt>0</asrwt>
<pdfrwt beam="1">  1        2 0.43644415E+00 0.11750263E+04</pdfrwt>
<pdfrwt beam="2">  1       -2 0.36845363E+00 0.11750263E+04</pdfrwt>
<totfact> 0.26005548E-02</totfact>
</mgrwt>
</event>
<event>
 4    1  0.1104584E-007  0.2096474E+03  0.7818608E-02  0.1141846E+00
         -2   -1    0    0    0  501 -0.00000000000E+00  0.00000000000E+00  0.53702963521E+02  0.53702963582E+02  0.25500000000E-02 0.  1.
          2   -1    0    0  501    0  0.00000000000E+00 -0.00000000000E+00 -0.12443573157E+04  0.12443573157E+04  0.25500000000E-02 0. -1.
    8880022    1    1    2    0    0 -0.10688478199E+03 -0.95582512401E+02 -0.97504494009E+03  0.99732876300E+03  0.15294330000E+03 0. -1.
    8880022    1    1    2    0    0  0.10688478199E+03  0.95582512401E+02 -0.21560941214E+03  0.30073151633E+03  0.15294330000E+03 0.  0.
<mgrwt>
<rscale>  0 0.20964739E+03</rscale>
<asrwt>0</asrwt>
<pdfrwt beam="1">  1        2 0.19143957E+00 0.20964739E+03</pdfrwt>
<pdfrwt beam="2">  1       -2 0.82619953E-02 0.20964739E+03</pdfrwt>
<totfact> 0.16962264E+03</totfact>
</mgrwt>
</event>
<event>
 4    1  0.1104584E-007  0.4304907E+03  0.7818608E-02  0.1033705E+00
          2   -1    0    0  501    0  0.00000000000E+00  0.00000000000E+00  0.89367080028E+03  0.89367080029E+03  0.25500000000E-02 0. -1.
         -2   -1    0    0    0  501 -0.00000000000E+00 -0.00000000000E+00 -0.15276602179E+04  0.15276602179E+04  0.25500000000E-02 0.  1.
    8880022    1    1    2    0    0  0.29124358297E+02  0.40135065610E+03  0.80850444326E+03  0.91597034078E+03  0.15294330000E+03 0.  0.
    8880022    1    1    2    0    0 -0.29124358297E+02 -0.40135065610E+03 -0.14424938609E+04  0.15053606774E+04  0.15294330000E+03 0.  0.
<mgrwt>
<rscale>  0 0.43049069E+03</rscale>
<asrwt>0</asrwt>
<pdfrwt beam="1">  1        2 0.13748781E+00 0.43049069E+03</pdfrwt>
<pdfrwt beam="2">  1       -2 0.23502465E+00 0.43049069E+03</pdfrwt>
<totfact> 0.25905553E+00</totfact>
</mgrwt>
</event>
<event>
 4    1  0.1104584E-007  0.2583664E+03  0.7818608E-02  0.1108129E+00
          2   -1    0    0  501    0  0.00000000000E+00  0.00000000000E+00  0.54989640193E+03  0.54989640194E+03  0.25500000000E-02 0. -1.
         -2   -1    0    0    0  501 -0.00000000000E+00 -0.00000000000E+00 -0.24198813866E+03  0.24198813867E+03  0.25500000000E-02 0.  1.
    8880022    1    1    2    0    0  0.20759340968E+03  0.16324821567E+02  0.43346650073E+03  0.50462499325E+03  0.15294330000E+03 0.  0.
    8880022    1    1    2    0    0 -0.20759340968E+03 -0.16324821567E+02 -0.12555823745E+03  0.28725954736E+03  0.15294330000E+03 0.  0.
<mgrwt>
<rscale>  0 0.25836636E+03</rscale>
<asrwt>0</asrwt>
<pdfrwt beam="1">  1        2 0.84599447E-01 0.25836636E+03</pdfrwt>
<pdfrwt beam="2">  1       -2 0.37228944E-01 0.25836636E+03</pdfrwt>
<totfact> 0.38453594E+02</totfact>
</mgrwt>
</event>
<event>
 4    1  0.1104584E-007  0.4833826E+03  0.7818608E-02  0.1018210E+00
          2   -1    0    0  501    0  0.00000000000E+00  0.00000000000E+00  0.17172234749E+04  0.17172234749E+04  0.25500000000E-02 0. -1.
         -2   -1    0    0    0  501 -0.00000000000E+00 -0.00000000000E+00 -0.67166588011E+03  0.67166588012E+03  0.25500000000E-02 0.  1.
    8880022    1    1    2    0    0 -0.21103419240E+02 -0.45806301610E+03  0.15893968310E+04  0.16612769247E+04  0.15294330000E+03 0.  0.
    8880022    1    1    2    0    0  0.21103419240E+02  0.45806301610E+03 -0.54383923618E+03  0.72761243038E+03  0.15294330000E+03 0.  0.
<mgrwt>
<rscale>  0 0.48338260E+03</rscale>
<asrwt>0</asrwt>
<pdfrwt beam="1">  1        2 0.26418823E+00 0.48338260E+03</pdfrwt>
<pdfrwt beam="2">  1       -2 0.10333321E+00 0.48338260E+03</pdfrwt>
<totfact> 0.79234282E+00</totfact>
</mgrwt>
</event>
<event>
 4    1  0.1104584E-007  0.7939321E+03  0.7818608E-02  0.9568842E-01
          2   -1    0    0  501    0  0.00000000000E+00  0.00000000000E+00  0.25083293757E+04  0.25083293757E+04  0.25500000000E-02 0. -1.
         -2   -1    0    0    0  501 -0.00000000000E+00 -0.00000000000E+00 -0.56669064285E+03  0.56669064285E+03  0.25500000000E-02 0.  1.
    8880022    1    1    2    0    0 -0.15562794110E+03  0.76335866317E+03  0.21178458735E+04  0.22617690646E+04  0.15294330000E+03 0.  0.
    8880022    1    1    2    0    0  0.15562794110E+03 -0.76335866317E+03 -0.17620714063E+03  0.81325095396E+03  0.15294330000E+03 0.  0.
<mgrwt>
<rscale>  0 0.79393209E+03</rscale>
<asrwt>0</asrwt>
<pdfrwt beam="1">  1        2 0.38589683E+00 0.79393209E+03</pdfrwt>
<pdfrwt beam="2">  1       -2 0.87183174E-01 0.79393209E+03</pdfrwt>
<totfact> 0.40793234E+00</totfact>
</mgrwt>
</event>
<event>
 4    1  0.1104584E-007  0.5176956E+03  0.7818608E-02  0.1009261E+00
          2   -1    0    0  501    0  0.00000000000E+00  0.00000000000E+00  0.17552109822E+03  0.17552109823E+03  0.25500000000E-02 0. -1.
         -2   -1    0    0    0  501 -0.00000000000E+00 -0.00000000000E+00 -0.17910192248E+04  0.17910192248E+04  0.25500000000E-02 0.  1.
    8880022    1    1    2    0    0  0.13075799429E+02  0.49441487094E+03 -0.11853185089E+04  0.12934406293E+04  0.15294330000E+03 0.  1.
    8880022    1    1    2    0    0 -0.13075799429E+02 -0.49441487094E+03 -0.43017961771E+03  0.67309969369E+03  0.15294330000E+03 0.  0.
<mgrwt>
<rscale>  0 0.51769556E+03</rscale>
<asrwt>0</asrwt>
<pdfrwt beam="1">  1        2 0.27003247E-01 0.51769556E+03</pdfrwt>
<pdfrwt beam="2">  1       -2 0.27554141E+00 0.51769556E+03</pdfrwt>
<totfact> 0.95648507E+00</totfact>
</mgrwt>
</event>
<event>
 4    1  0.1104584E-007  0.6725902E+03  0.7818608E-02  0.9765290E-01
          2   -1    0    0  501    0  0.00000000000E+00  0.00000000000E+00  0.28417542541E+04  0.28417542541E+04  0.25500000000E-02 0. -1.
         -2   -1    0    0    0  501 -0.00000000000E+00 -0.00000000000E+00 -0.23201379418E+03  0.23201379420E+03  0.25500000000E-02 0.  1.
    8880022    1    1    2    0    0  0.62909097673E+03  0.18229235829E+03  0.44383256128E+03  0.80583184124E+03  0.15294330000E+03 0.  0.
    8880022    1    1    2    0    0 -0.62909097673E+03 -0.18229235829E+03  0.21659078986E+04  0.22679362071E+04  0.15294330000E+03 0.  0.
<mgrwt>
<rscale>  0 0.67259023E+03</rscale>
<asrwt>0</asrwt>
<pdfrwt beam="1">  1        2 0.43719297E+00 0.67259023E+03</pdfrwt>
<pdfrwt beam="2">  1       -2 0.35694429E-01 0.67259023E+03</pdfrwt>
<totfact> 0.17217163E+01</totfact>
</mgrwt>
</event>
<event>
 4    1  0.1104584E-007  0.6615432E+03  0.7818608E-02  0.9785357E-01
         -2   -1    0    0    0  501 -0.00000000000E+00  0.00000000000E+00  0.43420159703E+03  0.43420159703E+03  0.25500000000E-02 0.  1.
          2   -1    0    0  501    0  0.00000000000E+00 -0.00000000000E+00 -0.17672134194E+04  0.17672134194E+04  0.25500000000E-02 0. -1.
    8880022    1    1    2    0    0 -0.33652025303E+03 -0.54863634697E+03  0.54988498200E+02  0.66382460776E+03  0.15294330000E+03 0.  0.
    8880022    1    1    2    0    0  0.33652025303E+03  0.54863634697E+03 -0.13880003205E+04  0.15375904086E+04  0.15294330000E+03 0.  0.
<mgrwt>
<rscale>  0 0.66154318E+03</rscale>
<asrwt>0</asrwt>
<pdfrwt beam="1">  1        2 0.27187898E+00 0.66154318E+03</pdfrwt>
<pdfrwt beam="2">  1       -2 0.66800246E-01 0.66154318E+03</pdfrwt>
<totfact> 0.19299266E+01</totfact>
</mgrwt>
</event>
<event>
 4    1  0.1104584E-007  0.6491931E+03  0.7818608E-02  0.9808294E-01
          2   -1    0    0  501    0  0.00000000000E+00  0.00000000000E+00  0.21229495489E+04  0.21229495489E+04  0.25500000000E-02 0. -1.
         -2   -1    0    0    0  501 -0.00000000000E+00 -0.00000000000E+00 -0.27266717272E+03  0.27266717273E+03  0.25500000000E-02 0.  1.
    8880022    1    1    2    0    0  0.61926196790E+03  0.12072550954E+03  0.30052526939E+03  0.71537900731E+03  0.15294330000E+03 0.  0.
    8880022    1    1    2    0    0 -0.61926196790E+03 -0.12072550954E+03  0.15497571068E+04  0.16802377143E+04  0.15294330000E+03 0.  0.
<mgrwt>
<rscale>  0 0.64919310E+03</rscale>
<asrwt>0</asrwt>
<pdfrwt beam="1">  1        2 0.32660763E+00 0.64919310E+03</pdfrwt>
<pdfrwt beam="2">  1       -2 0.41948795E-01 0.64919310E+03</pdfrwt>
<totfact> 0.32252185E+01</totfact>
</mgrwt>
</event>
<event>
 4    1  0.1104584E-007  0.1549492E+03  0.7818608E-02  0.1194520E+00
         -2   -1    0    0    0  501 -0.00000000000E+00  0.00000000000E+00  0.97315780121E+02  0.97315780154E+02  0.25500000000E-02 0.  1.
          2   -1    0    0  501    0  0.00000000000E+00 -0.00000000000E+00 -0.77680962148E+03  0.77680962148E+03  0.25500000000E-02 0. -1.
    8880022    1    1    2    0    0 -0.56250978199E+01  0.24206530895E+02  0.21299626248E+02  0.15640628170E+03  0.15294330000E+03 0.  0.
    8880022    1    1    2    0    0  0.56250978199E+01 -0.24206530895E+02 -0.70079346760E+03  0.71771911993E+03  0.15294330000E+03 0. -1.
<mgrwt>
<rscale>  0 0.15494919E+03</rscale>
<asrwt>0</asrwt>
<pdfrwt beam="1">  1        2 0.11950917E+00 0.15494919E+03</pdfrwt>
<pdfrwt beam="2">  1       -2 0.14971659E-01 0.15494919E+03</pdfrwt>
<totfact> 0.12626945E+03</totfact>
</mgrwt>
</event>
<event>
 4    1  0.1104584E-007  0.1257350E+04  0.7818608E-02  0.9064088E-01
          2   -1    0    0  501    0  0.00000000000E+00  0.00000000000E+00  0.31101548439E+04  0.31101548439E+04  0.25500000000E-02 0. -1.
         -2   -1    0    0    0  501 -0.00000000000E+00 -0.00000000000E+00 -0.53603004766E+03  0.53603004766E+03  0.25500000000E-02 0.  1.
    8880022    1    1    2    0    0  0.12236776552E+04  0.24525705094E+03  0.87249627719E+03  0.15304180578E+04  0.15294330000E+03 0.  0.
    8880022    1    1    2    0    0 -0.12236776552E+04 -0.24525705094E+03  0.17016285190E+04  0.21157668337E+04  0.15294330000E+03 0.  0.
<mgrwt>
<rscale>  0 0.12573503E+04</rscale>
<asrwt>0</asrwt>
<pdfrwt beam="1">  1        2 0.47848536E+00 0.12573503E+04</pdfrwt>
<pdfrwt beam="2">  1       -2 0.82466160E-01 0.12573503E+04</pdfrwt>
<totfact> 0.18901103E+00</totfact>
</mgrwt>
</event>
<event>
 4    1  0.1104584E-007  0.3895675E+03  0.7818608E-02  0.1047453E+00
         -2   -1    0    0    0  501 -0.00000000000E+00  0.00000000000E+00  0.40857099199E+03  0.40857099200E+03  0.25500000000E-02 0.  1.
          2   -1    0    0  501    0  0.00000000000E+00 -0.00000000000E+00 -0.97668847884E+03  0.97668847884E+03  0.25500000000E-02 0. -1.
    8880022    1    1    2    0    0 -0.35824437776E+03  0.56726850847E+01  0.26118048307E+03  0.46901824198E+03  0.15294330000E+03 0.  0.
    8880022    1    1    2    0    0  0.35824437776E+03 -0.56726850847E+01 -0.82929796992E+03  0.91624122887E+03  0.15294330000E+03 0.  0.
<mgrwt>
<rscale>  0 0.38956754E+03</rscale>
<asrwt>0</asrwt>
<pdfrwt beam="1">  1        2 0.15025977E+00 0.38956754E+03</pdfrwt>
<pdfrwt beam="2">  1       -2 0.62857076E-01 0.38956754E+03</pdfrwt>
<totfact> 0.64620878E+01</totfact>
</mgrwt>
</event>
<event>
 4    1  0.1104584E-007  0.3124595E+03  0.7818608E-02  0.1079173E+00
         -2   -1    0    0    0  501 -0.00000000000E+00  0.00000000000E+00  0.94752141349E+02  0.94752141384E+02  0.25500000000E-02 0.  1.
          2   -1    0    0  501    0  0.00000000000E+00 -0.00000000000E+00 -0.13618901704E+04  0.13618901704E+04  0.25500000000E-02 0. -1.
    8880022    1    1    2    0    0 -0.15548689201E+03 -0.22374783534E+03 -0.27423455592E+03  0.41573490602E+03  0.15294330000E+03 0.  0.
    8880022    1    1    2    0    0  0.15548689201E+03  0.22374783534E+03 -0.99290347313E+03  0.10409074058E+04  0.15294330000E+03 0.  0.
<mgrwt>
<rscale>  0 0.31245947E+03</rscale>
<asrwt>0</asrwt>
<pdfrwt beam="1">  1        2 0.20952155E+00 0.31245947E+03</pdfrwt>
<pdfrwt beam="2">  1       -2 0.14577254E-01 0.31245947E+03</pdfrwt>
<totfact> 0.58195512E+02</totfact>
</mgrwt>
</event>
<event>
 4    1  0.1104584E-007  0.5024797E+03  0.7818608E-02  0.1013134E+00
         -2   -1    0    0    0  501 -0.00000000000E+00  0.00000000000E+00  0.22022311084E+03  0.22022311086E+03  0.25500000000E-02 0.  1.
          2   -1    0    0  501    0  0.00000000000E+00 -0.00000000000E+00 -0.33960466644E+04  0.33960466644E+04  0.25500000000E-02 0. -1.
    8880022    1    1    2    0    0 -0.45909184238E+03 -0.13538426810E+03 -0.11630604334E+03  0.51576445062E+03  0.15294330000E+03 0.  0.
    8880022    1    1    2    0    0  0.45909184238E+03  0.13538426810E+03 -0.30595175102E+04  0.31005053246E+04  0.15294330000E+03 0.  0.
<mgrwt>
<rscale>  0 0.50247972E+03</rscale>
<asrwt>0</asrwt>
<pdfrwt beam="1">  1        2 0.52246868E+00 0.50247972E+03</pdfrwt>
<pdfrwt beam="2">  1       -2 0.33880481E-01 0.50247972E+03</pdfrwt>
<totfact> 0.89306623E+00</totfact>
</mgrwt>
</event>
<event>
 4    1  0.1104584E-007  0.1694414E+03  0.7818608E-02  0.1178432E+00
          2   -1    0    0  501    0  0.00000000000E+00  0.00000000000E+00  0.25817213385E+03  0.25817213386E+03  0.25500000000E-02 0. -1.
         -2   -1    0    0    0  501 -0.00000000000E+00 -0.00000000000E+00 -0.35277465438E+03  0.35277465439E+03  0.25500000000E-02 0.  1.
    8880022    1    1    2    0    0  0.36077800782E+02 -0.63380865472E+02  0.20547985700E+03  0.26633130958E+03  0.15294330000E+03 0.  0.
    8880022    1    1    2    0    0 -0.36077800782E+02  0.63380865472E+02 -0.30008237754E+03  0.34461547867E+03  0.15294330000E+03 0.  0.
<mgrwt>
<rscale>  0 0.16944142E+03</rscale>
<asrwt>0</asrwt>
<pdfrwt beam="1">  1        2 0.39718790E-01 0.16944142E+03</pdfrwt>
<pdfrwt beam="2">  1       -2 0.54273024E-01 0.16944142E+03</pdfrwt>
<totfact> 0.42079200E+02</totfact>
</mgrwt>
</event>
<event>
 4    1  0.1104584E-007  0.1301736E+04  0.7818608E-02  0.9028189E-01
         -2   -1    0    0    0  501 -0.00000000000E+00  0.00000000000E+00  0.76801586166E+03  0.76801586167E+03  0.25500000000E-02 0.  1.
          2   -1    0    0  501    0  0.00000000000E+00 -0.00000000000E+00 -0.27165818968E+04  0.27165818968E+04  0.25500000000E-02 0. -1.
    8880022    1    1    2    0    0  0.11641071359E+04  0.56212152389E+03 -0.17293609810E+04  0.21645339191E+04  0.15294330000E+03 0.  0.
    8880022    1    1    2    0    0 -0.11641071359E+04 -0.56212152389E+03 -0.21920505422E+03  0.13200638394E+04  0.15294330000E+03 0.  0.
<mgrwt>
<rscale>  0 0.13017364E+04</rscale>
<asrwt>0</asrwt>
<pdfrwt beam="1">  1        2 0.41793567E+00 0.13017364E+04</pdfrwt>
<pdfrwt beam="2">  1       -2 0.11815629E+00 0.13017364E+04</pdfrwt>
<totfact> 0.13916344E+00</totfact>
</mgrwt>
</event>
<event>
 4    1  0.1104584E-007  0.3866189E+03  0.7818608E-02  0.1048514E+00
          2   -1    0    0  501    0  0.00000000000E+00  0.00000000000E+00  0.13918714869E+04  0.13918714869E+04  0.25500000000E-02 0. -1.
         -2   -1    0    0    0  501 -0.00000000000E+00 -0.00000000000E+00 -0.11204623355E+03  0.11204623358E+03  0.25500000000E-02 0.  1.
    8880022    1    1    2    0    0 -0.25241867131E+03  0.24973449287E+03  0.79318954252E+03  0.88239662620E+03  0.15294330000E+03 0. -1.
    8880022    1    1    2    0    0  0.25241867131E+03 -0.24973449287E+03  0.48663571082E+03  0.62152109427E+03  0.15294330000E+03 0.  1.
<mgrwt>
<rscale>  0 0.38661888E+03</rscale>
<asrwt>0</asrwt>
<pdfrwt beam="1">  1        2 0.21413406E+00 0.38661888E+03</pdfrwt>
<pdfrwt beam="2">  1       -2 0.17237883E-01 0.38661888E+03</pdfrwt>
<totfact> 0.41969092E+02</totfact>
</mgrwt>
</event>
<event>
 4    1  0.1104584E-007  0.4607819E+03  0.7818608E-02  0.1024555E+00
          2   -1    0    0  501    0  0.00000000000E+00  0.00000000000E+00  0.16507657355E+04  0.16507657355E+04  0.25500000000E-02 0. -1.
         -2   -1    0    0    0  501 -0.00000000000E+00 -0.00000000000E+00 -0.17317269158E+03  0.17317269160E+03  0.25500000000E-02 0.  1.
    8880022    1    1    2    0    0 -0.42494405833E+03 -0.91383120148E+02  0.12013712489E+04  0.12867062050E+04  0.15294330000E+03 0.  0.
    8880022    1    1    2    0    0  0.42494405833E+03  0.91383120148E+02  0.27622179501E+03  0.53723222206E+03  0.15294330000E+03 0.  0.
<mgrwt>
<rscale>  0 0.46078192E+03</rscale>
<asrwt>0</asrwt>
<pdfrwt beam="1">  1        2 0.25396396E+00 0.46078192E+03</pdfrwt>
<pdfrwt beam="2">  1       -2 0.26641952E-01 0.46078192E+03</pdfrwt>
<totfact> 0.14030270E+02</totfact>
</mgrwt>
</event>
<event>
 4    1  0.1104584E-007  0.9330013E+03  0.7818608E-02  0.9385243E-01
         -2   -1    0    0    0  501 -0.00000000000E+00  0.00000000000E+00  0.35847051256E+03  0.35847051257E+03  0.25500000000E-02 0.  1.
          2   -1    0    0  501    0  0.00000000000E+00 -0.00000000000E+00 -0.26316015698E+04  0.26316015698E+04  0.25500000000E-02 0. -1.
    8880022    1    1    2    0    0 -0.39752527164E+03  0.83010451478E+03 -0.72107641574E+03  0.11791703428E+04  0.15294330000E+03 0.  0.
    8880022    1    1    2    0    0  0.39752527164E+03 -0.83010451478E+03 -0.15520546415E+04  0.18109017395E+04  0.15294330000E+03 0.  0.
<mgrwt>
<rscale>  0 0.93300134E+03</rscale>
<asrwt>0</asrwt>
<pdfrwt beam="1">  1        2 0.40486177E+00 0.93300134E+03</pdfrwt>
<pdfrwt beam="2">  1       -2 0.55149311E-01 0.93300134E+03</pdfrwt>
<totfact> 0.92259164E+00</totfact>
</mgrwt>
</event>
<event>
 4    1  0.1104584E-007  0.7098159E+03  0.7818608E-02  0.9700591E-01
         -2   -1    0    0    0  501 -0.00000000000E+00  0.00000000000E+00  0.47968293436E+03  0.47968293437E+03  0.25500000000E-02 0.  1.
          2   -1    0    0  501    0  0.00000000000E+00 -0.00000000000E+00 -0.26854413161E+04  0.26854413161E+04  0.25500000000E-02 0. -1.
    8880022    1    1    2    0    0 -0.20138868910E+03 -0.66324165850E+03  0.13199566615E+03  0.72198435618E+03  0.15294330000E+03 0.  0.
    8880022    1    1    2    0    0  0.20138868910E+03  0.66324165850E+03 -0.23377540479E+04  0.24431398943E+04  0.15294330000E+03 0.  0.
<mgrwt>
<rscale>  0 0.70981586E+03</rscale>
<asrwt>0</asrwt>
<pdfrwt beam="1">  1        2 0.41314481E+00 0.70981586E+03</pdfrwt>
<pdfrwt beam="2">  1       -2 0.73797376E-01 0.70981586E+03</pdfrwt>
<totfact> 0.47696540E+00</totfact>
</mgrwt>
</event>
<event>
 4    1  0.1104584E-007  0.1612626E+03  0.7818608E-02  0.1187279E+00
         -2   -1    0    0    0  501 -0.00000000000E+00  0.00000000000E+00  0.15640564313E+03  0.15640564315E+03  0.25500000000E-02 0.  1.
          2   -1    0    0  501    0  0.00000000000E+00 -0.00000000000E+00 -0.14795835323E+04  0.14795835323E+04  0.25500000000E-02 0. -1.
    8880022    1    1    2    0    0 -0.51090135505E+02  0.19453788355E+01  0.10907460407E+03  0.19468669372E+03  0.15294330000E+03 0.  1.
    8880022    1    1    2    0    0  0.51090135505E+02 -0.19453788355E+01 -0.14322524933E+04  0.14413024818E+04  0.15294330000E+03 0.  0.
<mgrwt>
<rscale>  0 0.16126264E+03</rscale>
<asrwt>0</asrwt>
<pdfrwt beam="1">  1        2 0.22762823E+00 0.16126264E+03</pdfrwt>
<pdfrwt beam="2">  1       -2 0.24062408E-01 0.16126264E+03</pdfrwt>
<totfact> 0.22063815E+02</totfact>
</mgrwt>
</event>
<event>
 4    1  0.1104584E-007  0.2837487E+03  0.7818608E-02  0.1093659E+00
          2   -1    0    0  501    0  0.00000000000E+00  0.00000000000E+00  0.16232142814E+04  0.16232142814E+04  0.25500000000E-02 0. -1.
         -2   -1    0    0    0  501 -0.00000000000E+00 -0.00000000000E+00 -0.18335089558E+03  0.18335089560E+03  0.25500000000E-02 0.  1.
    8880022    1    1    2    0    0 -0.23884150817E+03  0.87421962252E+01 -0.51555202424E+02  0.28839432021E+03  0.15294330000E+03 0.  1.
    8880022    1    1    2    0    0  0.23884150817E+03 -0.87421962252E+01  0.14914185882E+04  0.15181708567E+04  0.15294330000E+03 0.  0.
<mgrwt>
<rscale>  0 0.28374874E+03</rscale>
<asrwt>0</asrwt>
<pdfrwt beam="1">  1        2 0.24972527E+00 0.28374874E+03</pdfrwt>
<pdfrwt beam="2">  1       -2 0.28207830E-01 0.28374874E+03</pdfrwt>
<totfact> 0.13517111E+02</totfact>
</mgrwt>
</event>
<event>
 4    1  0.1104584E-007  0.6599200E+03  0.7818608E-02  0.9788341E-01
         -2   -1    0    0    0  501 -0.00000000000E+00  0.00000000000E+00  0.64715447469E+03  0.64715447470E+03  0.25500000000E-02 0.  1.
          2   -1    0    0  501    0  0.00000000000E+00 -0.00000000000E+00 -0.11207689499E+04  0.11207689499E+04  0.25500000000E-02 0. -1.
    8880022    1    1    2    0    0  0.17423151312E+03 -0.61785603908E+03  0.32196242767E+03  0.73427117814E+03  0.15294330000E+03 0.  1.
    8880022    1    1    2    0    0 -0.17423151312E+03  0.61785603908E+03 -0.79557690283E+03  0.10336522464E+04  0.15294330000E+03 0.  0.
<mgrwt>
<rscale>  0 0.65991996E+03</rscale>
<asrwt>0</asrwt>
<pdfrwt beam="1">  1        2 0.17242599E+00 0.65991996E+03</pdfrwt>
<pdfrwt beam="2">  1       -2 0.99562227E-01 0.65991996E+03</pdfrwt>
<totfact> 0.18168867E+01</totfact>
</mgrwt>
</event>
<event>
 4    1  0.1104584E-007  0.5176442E+03  0.7818608E-02  0.1009273E+00
          2   -1    0    0  501    0  0.00000000000E+00  0.00000000000E+00  0.57920402069E+03  0.57920402070E+03  0.25500000000E-02 0. -1.
         -2   -1    0    0    0  501 -0.00000000000E+00 -0.00000000000E+00 -0.72490924746E+03  0.72490924746E+03  0.25500000000E-02 0.  1.
    8880022    1    1    2    0    0 -0.47697375588E+03 -0.13061341409E+03  0.31936569029E+03  0.60823509015E+03  0.15294330000E+03 0.  0.
    8880022    1    1    2    0    0  0.47697375588E+03  0.13061341409E+03 -0.46507091705E+03  0.69587817801E+03  0.15294330000E+03 0.  0.
<mgrwt>
<rscale>  0 0.51764416E+03</rscale>
<asrwt>0</asrwt>
<pdfrwt beam="1">  1        2 0.89108311E-01 0.51764416E+03</pdfrwt>
<pdfrwt beam="2">  1       -2 0.11152450E+00 0.51764416E+03</pdfrwt>
<totfact> 0.34029356E+01</totfact>
</mgrwt>
</event>
<event>
 4    1  0.1104584E-007  0.8407286E+03  0.7818608E-02  0.9502866E-01
          2   -1    0    0  501    0  0.00000000000E+00  0.00000000000E+00  0.94021035597E+03  0.94021035598E+03  0.25500000000E-02 0. -1.
         -2   -1    0    0    0  501 -0.00000000000E+00 -0.00000000000E+00 -0.15621212306E+04  0.15621212306E+04  0.25500000000E-02 0.  1.
    8880022    1    1    2    0    0  0.79312295345E+03 -0.23321424421E+03  0.59018690617E+03  0.10272025799E+04  0.15294330000E+03 0.  0.
    8880022    1    1    2    0    0 -0.79312295345E+03  0.23321424421E+03 -0.12120977808E+04  0.14751290066E+04  0.15294330000E+03 0.  0.
<mgrwt>
<rscale>  0 0.84072859E+03</rscale>
<asrwt>0</asrwt>
<pdfrwt beam="1">  1        2 0.14464775E+00 0.84072859E+03</pdfrwt>
<pdfrwt beam="2">  1       -2 0.24032634E+00 0.84072859E+03</pdfrwt>
<totfact> 0.20661724E+00</totfact>
</mgrwt>
</event>
<event>
 4    1  0.1104584E-007  0.5753691E+03  0.7818608E-02  0.9957867E-01
         -2   -1    0    0    0  501 -0.00000000000E+00  0.00000000000E+00  0.28401637052E+03  0.28401637053E+03  0.25500000000E-02 0.  1.
          2   -1    0    0  501    0  0.00000000000E+00 -0.00000000000E+00 -0.11974060331E+04  0.11974060331E+04  0.25500000000E-02 0. -1.
    8880022    1    1    2    0    0 -0.20332181342E+03 -0.51606025193E+03 -0.33597456596E+03  0.66627960003E+03  0.15294330000E+03 0.  0.
    8880022    1    1    2    0    0  0.20332181342E+03  0.51606025193E+03 -0.57741509659E+03  0.81514280357E+03  0.15294330000E+03 0.  0.
<mgrwt>
<rscale>  0 0.57536910E+03</rscale>
<asrwt>0</asrwt>
<pdfrwt beam="1">  1        2 0.18421631E+00 0.57536910E+03</pdfrwt>
<pdfrwt beam="2">  1       -2 0.43694827E-01 0.57536910E+03</pdfrwt>
<totfact> 0.97415084E+01</totfact>
</mgrwt>
</event>
<event>
 4    1  0.1104584E-007  0.4157382E+03  0.7818608E-02  0.1038462E+00
         -2   -1    0    0    0  501 -0.00000000000E+00  0.00000000000E+00  0.32366602441E+03  0.32366602442E+03  0.25500000000E-02 0.  1.
          2   -1    0    0  501    0  0.00000000000E+00 -0.00000000000E+00 -0.58124988066E+03  0.58124988067E+03  0.25500000000E-02 0. -1.
    8880022    1    1    2    0    0 -0.30208070149E+03  0.24123405062E+03  0.20769343290E+00  0.41573827529E+03  0.15294330000E+03 0.  0.
    8880022    1    1    2    0    0  0.30208070149E+03 -0.24123405062E+03 -0.25779154969E+03  0.48917762980E+03  0.15294330000E+03 0.  1.
<mgrwt>
<rscale>  0 0.41573822E+03</rscale>
<asrwt>0</asrwt>
<pdfrwt beam="1">  1        2 0.89423059E-01 0.41573822E+03</pdfrwt>
<pdfrwt beam="2">  1       -2 0.49794773E-01 0.41573822E+03</pdfrwt>
<totfact> 0.20224054E+02</totfact>
</mgrwt>
</event>
<event>
 4    1  0.1104584E-007  0.3864450E+03  0.7818608E-02  0.1048577E+00
         -2   -1    0    0    0  501 -0.00000000000E+00  0.00000000000E+00  0.30943760742E+03  0.30943760743E+03  0.25500000000E-02 0.  1.
          2   -1    0    0  501    0  0.00000000000E+00 -0.00000000000E+00 -0.22098127701E+04  0.22098127701E+04  0.25500000000E-02 0. -1.
    8880022    1    1    2    0    0 -0.14425157758E+03  0.32425232176E+03 -0.20638009224E+04  0.20996699707E+04  0.15294330000E+03 0.  0.
    8880022    1    1    2    0    0  0.14425157758E+03 -0.32425232176E+03  0.16342575972E+03  0.41958040678E+03  0.15294330000E+03 0.  0.
<mgrwt>
<rscale>  0 0.38644500E+03</rscale>
<asrwt>0</asrwt>
<pdfrwt beam="1">  1        2 0.33997119E+00 0.38644500E+03</pdfrwt>
<pdfrwt beam="2">  1       -2 0.47605787E-01 0.38644500E+03</pdfrwt>
<totfact> 0.23786557E+01</totfact>
</mgrwt>
</event>
<event>
 4    1  0.1104584E-007  0.6494960E+03  0.7818608E-02  0.9807725E-01
         -2   -1    0    0    0  501 -0.00000000000E+00  0.00000000000E+00  0.68489168096E+03  0.68489168097E+03  0.25500000000E-02 0.  1.
          2   -1    0    0  501    0  0.00000000000E+00 -0.00000000000E+00 -0.12855648779E+04  0.12855648779E+04  0.25500000000E-02 0. -1.
    8880022    1    1    2    0    0  0.47348787394E+03  0.41744771646E+03 -0.10114011898E+04  0.12019889278E+04  0.15294330000E+03 0.  0.
    8880022    1    1    2    0    0 -0.47348787394E+03 -0.41744771646E+03  0.41072799294E+03  0.76846763103E+03  0.15294330000E+03 0.  0.
<mgrwt>
<rscale>  0 0.64949597E+03</rscale>
<asrwt>0</asrwt>
<pdfrwt beam="1">  1        2 0.19777921E+00 0.64949597E+03</pdfrwt>
<pdfrwt beam="2">  1       -2 0.10536795E+00 0.64949597E+03</pdfrwt>
<totfact> 0.12712448E+01</totfact>
</mgrwt>
</event>
<event>
 4    1  0.1104584E-007  0.4708624E+03  0.7818608E-02  0.1021677E+00
         -2   -1    0    0    0  501 -0.00000000000E+00  0.00000000000E+00  0.12787949386E+03  0.12787949388E+03  0.25500000000E-02 0.  1.
          2   -1    0    0  501    0  0.00000000000E+00 -0.00000000000E+00 -0.26492753937E+04  0.26492753937E+04  0.25500000000E-02 0. -1.
    8880022    1    1    2    0    0  0.12658525535E+03  0.42696125960E+03 -0.44441420419E+03  0.64746844091E+03  0.15294330000E+03 0.  0.
    8880022    1    1    2    0    0 -0.12658525535E+03 -0.42696125960E+03 -0.20769816956E+04  0.21296864466E+04  0.15294330000E+03 0.  0.
<mgrwt>
<rscale>  0 0.47086240E+03</rscale>
<asrwt>0</asrwt>
<pdfrwt beam="1">  1        2 0.40758079E+00 0.47086240E+03</pdfrwt>
<pdfrwt beam="2">  1       -2 0.19673770E-01 0.47086240E+03</pdfrwt>
<totfact> 0.68320680E+01</totfact>
</mgrwt>
</event>
<event>
 4    1  0.1104584E-007  0.4451699E+03  0.7818608E-02  0.1029172E+00
         -2   -1    0    0    0  501 -0.00000000000E+00  0.00000000000E+00  0.61999966632E+03  0.61999966632E+03  0.25500000000E-02 0.  1.
          2   -1    0    0  501    0  0.00000000000E+00 -0.00000000000E+00 -0.49015280885E+03  0.49015280886E+03  0.25500000000E-02 0. -1.
    8880022    1    1    2    0    0  0.31880838517E+03  0.27045479919E+03  0.39231412072E+03  0.59336886268E+03  0.15294330000E+03 0.  0.
    8880022    1    1    2    0    0 -0.31880838517E+03 -0.27045479919E+03 -0.26246726326E+03  0.51678361251E+03  0.15294330000E+03 0.  0.
<mgrwt>
<rscale>  0 0.44516990E+03</rscale>
<asrwt>0</asrwt>
<pdfrwt beam="1">  1        2 0.75408125E-01 0.44516990E+03</pdfrwt>
<pdfrwt beam="2">  1       -2 0.95384563E-01 0.44516990E+03</pdfrwt>
<totfact> 0.60304005E+01</totfact>
</mgrwt>
</event>
<event>
 4    1  0.1104584E-007  0.4451110E+03  0.7818608E-02  0.1029190E+00
         -2   -1    0    0    0  501 -0.00000000000E+00  0.00000000000E+00  0.17583624239E+03  0.17583624241E+03  0.25500000000E-02 0.  1.
          2   -1    0    0  501    0  0.00000000000E+00 -0.00000000000E+00 -0.24673716906E+04  0.24673716906E+04  0.25500000000E-02 0. -1.
    8880022    1    1    2    0    0 -0.31457149335E+03  0.27527603360E+03 -0.21199425489E+04  0.21661671641E+04  0.15294330000E+03 0.  0.
    8880022    1    1    2    0    0  0.31457149335E+03 -0.27527603360E+03 -0.17159289929E+03  0.47704076892E+03  0.15294330000E+03 0.  1.
<mgrwt>
<rscale>  0 0.44511097E+03</rscale>
<asrwt>0</asrwt>
<pdfrwt beam="1">  1        2 0.37959562E+00 0.44511097E+03</pdfrwt>
<pdfrwt beam="2">  1       -2 0.27051731E-01 0.44511097E+03</pdfrwt>
<totfact> 0.49498914E+01</totfact>
</mgrwt>
</event>
<event>
 4    1  0.1104584E-007  0.4872367E+03  0.7818608E-02  0.1017165E+00
          2   -1    0    0  501    0  0.00000000000E+00  0.00000000000E+00  0.14955898394E+04  0.14955898394E+04  0.25500000000E-02 0. -1.
         -2   -1    0    0    0  501 -0.00000000000E+00 -0.00000000000E+00 -0.41310960241E+03  0.41310960242E+03  0.25500000000E-02 0.  1.
    8880022    1    1    2    0    0 -0.45080569205E+03 -0.10383723721E+03 -0.20764191254E+03  0.52963644198E+03  0.15294330000E+03 0.  0.
    8880022    1    1    2    0    0  0.45080569205E+03  0.10383723721E+03  0.12901221495E+04  0.13790629998E+04  0.15294330000E+03 0. -1.
<mgrwt>
<rscale>  0 0.48723669E+03</rscale>
<asrwt>0</asrwt>
<pdfrwt beam="1">  1        2 0.23009075E+00 0.48723669E+03</pdfrwt>
<pdfrwt beam="2">  1       -2 0.63555323E-01 0.48723669E+03</pdfrwt>
<totfact> 0.31063436E+01</totfact>
</mgrwt>
</event>
<event>
 4    1  0.1104584E-007  0.8337033E+03  0.7818608E-02  0.9512475E-01
          2   -1    0    0  501    0  0.00000000000E+00  0.00000000000E+00  0.21843281818E+04  0.21843281818E+04  0.25500000000E-02 0. -1.
         -2   -1    0    0    0  501 -0.00000000000E+00 -0.00000000000E+00 -0.39002714571E+03  0.39002714572E+03  0.25500000000E-02 0.  1.
    8880022    1    1    2    0    0  0.53561516858E+03 -0.62031113008E+03  0.14495132929E+04  0.16721692337E+04  0.15294330000E+03 0.  0.
    8880022    1    1    2    0    0 -0.53561516858E+03  0.62031113008E+03  0.34478774315E+03  0.90218609375E+03  0.15294330000E+03 0.  0.
<mgrwt>
<rscale>  0 0.83370328E+03</rscale>
<asrwt>0</asrwt>
<pdfrwt beam="1">  1        2 0.33605050E+00 0.83370328E+03</pdfrwt>
<pdfrwt beam="2">  1       -2 0.60004175E-01 0.83370328E+03</pdfrwt>
<totfact> 0.14014194E+01</totfact>
</mgrwt>
</event>
<event>
 4    1  0.1104584E-007  0.1990953E+03  0.7818608E-02  0.1150505E+00
         -2   -1    0    0    0  501 -0.00000000000E+00  0.00000000000E+00  0.13481427457E+03  0.13481427459E+03  0.25500000000E-02 0.  1.
          2   -1    0    0  501    0  0.00000000000E+00 -0.00000000000E+00 -0.30648929562E+04  0.30648929562E+04  0.25500000000E-02 0. -1.
    8880022    1    1    2    0    0  0.11112055093E+03  0.62446017775E+02  0.56139966615E+02  0.20685896365E+03  0.15294330000E+03 0.  0.
    8880022    1    1    2    0    0 -0.11112055093E+03 -0.62446017775E+02 -0.29862186482E+04  0.29928482671E+04  0.15294330000E+03 0. -1.
<mgrwt>
<rscale>  0 0.19909529E+03</rscale>
<asrwt>0</asrwt>
<pdfrwt beam="1">  1        2 0.47152194E+00 0.19909529E+03</pdfrwt>
<pdfrwt beam="2">  1       -2 0.20740660E-01 0.19909529E+03</pdfrwt>
<totfact> 0.39366806E+01</totfact>
</mgrwt>
</event>
<event>
 4    1  0.1104584E-007  0.8241885E+03  0.7818608E-02  0.9525651E-01
         -2   -1    0    0    0  501 -0.00000000000E+00  0.00000000000E+00  0.85412828570E+03  0.85412828570E+03  0.25500000000E-02 0.  1.
          2   -1    0    0  501    0  0.00000000000E+00 -0.00000000000E+00 -0.10240193497E+04  0.10240193497E+04  0.25500000000E-02 0. -1.
    8880022    1    1    2    0    0  0.28212673477E+02  0.80938186346E+03 -0.52875738981E+03  0.97921958014E+03  0.15294330000E+03 0.  0.
    8880022    1    1    2    0    0 -0.28212673477E+02 -0.80938186346E+03  0.35886632576E+03  0.89892805531E+03  0.15294330000E+03 0.  0.
<mgrwt>
<rscale>  0 0.82418845E+03</rscale>
<asrwt>0</asrwt>
<pdfrwt beam="1">  1        2 0.15754144E+00 0.82418845E+03</pdfrwt>
<pdfrwt beam="2">  1       -2 0.13140435E+00 0.82418845E+03</pdfrwt>
<totfact> 0.10368878E+01</totfact>
</mgrwt>
</event>
<event>
 4    1  0.1104584E-007  0.5754578E+03  0.7818608E-02  0.9957674E-01
          2   -1    0    0  501    0  0.00000000000E+00  0.00000000000E+00  0.45297256134E+03  0.45297256135E+03  0.25500000000E-02 0. -1.
         -2   -1    0    0    0  501 -0.00000000000E+00 -0.00000000000E+00 -0.19133632062E+04  0.19133632062E+04  0.25500000000E-02 0.  1.
    8880022    1    1    2    0    0  0.24102438347E+03 -0.49966713311E+03 -0.16602564151E+04  0.17571576520E+04  0.15294330000E+03 0.  0.
    8880022    1    1    2    0    0 -0.24102438347E+03  0.49966713311E+03  0.19986577019E+03  0.60917811553E+03  0.15294330000E+03 0.  0.
<mgrwt>
<rscale>  0 0.57545777E+03</rscale>
<asrwt>0</asrwt>
<pdfrwt beam="1">  1        2 0.69688087E-01 0.57545777E+03</pdfrwt>
<pdfrwt beam="2">  1       -2 0.29436357E+00 0.57545777E+03</pdfrwt>
<totfact> 0.25445810E+00</totfact>
</mgrwt>
</event>
<event>
 4    1  0.1104584E-007  0.2557044E+03  0.7818608E-02  0.1109752E+00
          2   -1    0    0  501    0  0.00000000000E+00  0.00000000000E+00  0.11271491936E+04  0.11271491936E+04  0.25500000000E-02 0. -1.
         -2   -1    0    0    0  501 -0.00000000000E+00 -0.00000000000E+00 -0.10292078663E+03  0.10292078666E+03  0.25500000000E-02 0.  1.
    8880022    1    1    2    0    0 -0.10843069830E+03 -0.17388461631E+03  0.10583112434E+03  0.27673987067E+03  0.15294330000E+03 0.  1.
    8880022    1    1    2    0    0  0.10843069830E+03  0.17388461631E+03  0.91839728260E+03  0.95333010958E+03  0.15294330000E+03 0.  0.
<mgrwt>
<rscale>  0 0.25570438E+03</rscale>
<asrwt>0</asrwt>
<pdfrwt beam="1">  1        2 0.17340756E+00 0.25570438E+03</pdfrwt>
<pdfrwt beam="2">  1       -2 0.15833968E-01 0.25570438E+03</pdfrwt>
<totfact> 0.69181857E+02</totfact>
</mgrwt>
</event>
<event>
 4    1  0.1104584E-007  0.8602837E+03  0.7818608E-02  0.9476637E-01
          2   -1    0    0  501    0  0.00000000000E+00  0.00000000000E+00  0.19555920928E+04  0.19555920928E+04  0.25500000000E-02 0. -1.
         -2   -1    0    0    0  501 -0.00000000000E+00 -0.00000000000E+00 -0.11767804473E+04  0.11767804473E+04  0.25500000000E-02 0.  1.
    8880022    1    1    2    0    0  0.58616904346E+03 -0.61082099770E+03 -0.90058860640E+03  0.12454508941E+04  0.15294330000E+03 0.  0.
    8880022    1    1    2    0    0 -0.58616904346E+03  0.61082099770E+03  0.16794002519E+04  0.18869216459E+04  0.15294330000E+03 0.  0.
<mgrwt>
<rscale>  0 0.86028373E+03</rscale>
<asrwt>0</asrwt>
<pdfrwt beam="1">  1        2 0.30086032E+00 0.86028373E+03</pdfrwt>
<pdfrwt beam="2">  1       -2 0.18104315E+00 0.86028373E+03</pdfrwt>
<totfact> 0.12855499E+00</totfact>
</mgrwt>
</event>
<event>
 4    1  0.1104584E-007  0.6826671E+03  0.7818608E-02  0.9747342E-01
         -2   -1    0    0    0  501 -0.00000000000E+00  0.00000000000E+00  0.99841765311E+03  0.99841765311E+03  0.25500000000E-02 0.  1.
          2   -1    0    0  501    0  0.00000000000E+00 -0.00000000000E+00 -0.66181466064E+03  0.66181466065E+03  0.25500000000E-02 0. -1.
    8880022    1    1    2    0    0  0.14643760183E+03 -0.64899829415E+03  0.61894629240E+03  0.92148191676E+03  0.15294330000E+03 0.  0.
    8880022    1    1    2    0    0 -0.14643760183E+03  0.64899829415E+03 -0.28234329993E+03  0.73875039700E+03  0.15294330000E+03 0.  0.
<mgrwt>
<rscale>  0 0.68266713E+03</rscale>
<asrwt>0</asrwt>
<pdfrwt beam="1">  1        2 0.10181764E+00 0.68266713E+03</pdfrwt>
<pdfrwt beam="2">  1       -2 0.15360271E+00 0.68266713E+03</pdfrwt>
<totfact> 0.12646126E+01</totfact>
</mgrwt>
</event>
<event>
 4    1  0.1104584E-007  0.3089220E+03  0.7818608E-02  0.1080864E+00
         -2   -1    0    0    0  501 -0.00000000000E+00  0.00000000000E+00  0.73170811213E+02  0.73170811258E+02  0.25500000000E-02 0.  1.
          2   -1    0    0  501    0  0.00000000000E+00 -0.00000000000E+00 -0.26069538788E+04  0.26069538788E+04  0.25500000000E-02 0. -1.
    8880022    1    1    2    0    0  0.13937570487E+03 -0.22938085357E+03 -0.31960432808E+03  0.44449942929E+03  0.15294330000E+03 0.  0.
    8880022    1    1    2    0    0 -0.13937570487E+03  0.22938085357E+03 -0.22141787395E+04  0.22356252608E+04  0.15294330000E+03 0.  0.
<mgrwt>
<rscale>  0 0.30892202E+03</rscale>
<asrwt>0</asrwt>
<pdfrwt beam="1">  1        2 0.40106976E+00 0.30892202E+03</pdfrwt>
<pdfrwt beam="2">  1       -2 0.11257050E-01 0.30892202E+03</pdfrwt>
<totfact> 0.19054268E+02</totfact>
</mgrwt>
</event>
<event>
 4    1  0.1104584E-007  0.7806383E+03  0.7818608E-02  0.9588473E-01
         -2   -1    0    0    0  501 -0.00000000000E+00  0.00000000000E+00  0.80373653071E+03  0.80373653072E+03  0.25500000000E-02 0.  1.
          2   -1    0    0  501    0  0.00000000000E+00 -0.00000000000E+00 -0.17287526714E+04  0.17287526714E+04  0.25500000000E-02 0. -1.
    8880022    1    1    2    0    0  0.30504887234E+02 -0.76490123928E+03 -0.14112757347E+04  0.16127911540E+04  0.15294330000E+03 0.  0.
    8880022    1    1    2    0    0 -0.30504887234E+02  0.76490123928E+03  0.48625959400E+03  0.91969804815E+03  0.15294330000E+03 0.  0.
<mgrwt>
<rscale>  0 0.78063827E+03</rscale>
<asrwt>0</asrwt>
<pdfrwt beam="1">  1        2 0.26596195E+00 0.78063827E+03</pdfrwt>
<pdfrwt beam="2">  1       -2 0.12365177E+00 0.78063827E+03</pdfrwt>
<totfact> 0.47743887E+00</totfact>
</mgrwt>
</event>
<event>
 4    1  0.1104584E-007  0.4498282E+03  0.7818608E-02  0.1027773E+00
          2   -1    0    0  501    0  0.00000000000E+00  0.00000000000E+00  0.13531937614E+04  0.13531937614E+04  0.25500000000E-02 0. -1.
         -2   -1    0    0    0  501 -0.00000000000E+00 -0.00000000000E+00 -0.42589470431E+03  0.42589470432E+03  0.25500000000E-02 0.  1.
    8880022    1    1    2    0    0 -0.35390819090E+02 -0.42154621189E+03  0.11802158231E+04  0.12630339508E+04  0.15294330000E+03 0.  0.
    8880022    1    1    2    0    0  0.35390819090E+02  0.42154621189E+03 -0.25291676599E+03  0.51605451492E+03  0.15294330000E+03 0.  1.
<mgrwt>
<rscale>  0 0.44982816E+03</rscale>
<asrwt>0</asrwt>
<pdfrwt beam="1">  1        2 0.20818365E+00 0.44982816E+03</pdfrwt>
<pdfrwt beam="2">  1       -2 0.65522263E-01 0.44982816E+03</pdfrwt>
<totfact> 0.35144362E+01</totfact>
</mgrwt>
</event>
<event>
 4    1  0.1104584E-007  0.1755208E+03  0.7818608E-02  0.1172210E+00
         -2   -1    0    0    0  501 -0.00000000000E+00  0.00000000000E+00  0.60155982868E+03  0.60155982868E+03  0.25500000000E-02 0.  1.
          2   -1    0    0  501    0  0.00000000000E+00 -0.00000000000E+00 -0.51223568388E+03  0.51223568389E+03  0.25500000000E-02 0. -1.
    8880022    1    1    2    0    0 -0.78420483510E+02 -0.35582770589E+02 -0.48366370214E+03  0.51452709897E+03  0.15294330000E+03 0.  0.
    8880022    1    1    2    0    0  0.78420483510E+02  0.35582770589E+02  0.57298784693E+03  0.59926841360E+03  0.15294330000E+03 0.  1.
<mgrwt>
<rscale>  0 0.17552082E+03</rscale>
<asrwt>0</asrwt>
<pdfrwt beam="1">  1        2 0.78805490E-01 0.17552082E+03</pdfrwt>
<pdfrwt beam="2">  1       -2 0.92547666E-01 0.17552082E+03</pdfrwt>
<totfact> 0.64083851E+01</totfact>
</mgrwt>
</event>
<event>
 4    1  0.1104584E-007  0.3770197E+03  0.7818608E-02  0.1052041E+00
         -2   -1    0    0    0  501 -0.00000000000E+00  0.00000000000E+00  0.12731034428E+04  0.12731034428E+04  0.25500000000E-02 0.  1.
          2   -1    0    0  501    0  0.00000000000E+00 -0.00000000000E+00 -0.14751511378E+03  0.14751511380E+03  0.25500000000E-02 0. -1.
    8880022    1    1    2    0    0 -0.88439629456E+02 -0.33306250838E+03  0.21256161372E+03  0.43281207838E+03  0.15294330000E+03 0.  0.
    8880022    1    1    2    0    0  0.88439629456E+02  0.33306250838E+03  0.91302671526E+03  0.98780647818E+03  0.15294330000E+03 0.  0.
<mgrwt>
<rscale>  0 0.37701970E+03</rscale>
<asrwt>0</asrwt>
<pdfrwt beam="1">  1        2 0.22694634E-01 0.37701970E+03</pdfrwt>
<pdfrwt beam="2">  1       -2 0.19586206E+00 0.37701970E+03</pdfrwt>
<totfact> 0.36422904E+01</totfact>
</mgrwt>
</event>
<event>
 4    1  0.1371543E-007  0.1288377E+04  0.7818608E-02  0.9038833E-01
          2   -1    0    0  501    0  0.00000000000E+00  0.00000000000E+00  0.33244903031E+04  0.33244903031E+04  0.25500000000E-02 0. -1.
         -2   -1    0    0    0  501 -0.00000000000E+00 -0.00000000000E+00 -0.20518162901E+04  0.20518162901E+04  0.25500000000E-02 0.  1.
    8880022    1    1    2    0    0 -0.64088164494E+03  0.11071559817E+04  0.29746518762E+04  0.32416768945E+04  0.15294330000E+03 0.  0.
    8880022    1    1    2    0    0  0.64088164494E+03 -0.11071559817E+04 -0.17019778632E+04  0.21346296987E+04  0.15294330000E+03 0.  0.
<mgrwt>
<rscale>  0 0.12883770E+04</rscale>
<asrwt>0</asrwt>
<pdfrwt beam="1">  1        2 0.51146005E+00 0.12883770E+04</pdfrwt>
<pdfrwt beam="2">  1       -2 0.31566404E+00 0.12883770E+04</pdfrwt>
<totfact> 0.26748355E-02</totfact>
</mgrwt>
</event>
<event>
 4    1  0.1104584E-007  0.2524231E+03  0.7818608E-02  0.1111783E+00
          2   -1    0    0  501    0  0.00000000000E+00  0.00000000000E+00  0.27694848758E+04  0.27694848758E+04  0.25500000000E-02 0. -1.
         -2   -1    0    0    0  501 -0.00000000000E+00 -0.00000000000E+00 -0.72568519826E+02  0.72568519871E+02  0.25500000000E-02 0.  1.
    8880022    1    1    2    0    0 -0.20041266122E+03  0.12669855562E+02  0.17409990552E+03  0.30664016393E+03  0.15294330000E+03 0.  1.
    8880022    1    1    2    0    0  0.20041266122E+03 -0.12669855562E+02  0.25228164504E+04  0.25354132317E+04  0.15294330000E+03 0.  0.
<mgrwt>
<rscale>  0 0.25242308E+03</rscale>
<asrwt>0</asrwt>
<pdfrwt beam="1">  1        2 0.42607461E+00 0.25242308E+03</pdfrwt>
<pdfrwt beam="2">  1       -2 0.11164387E-01 0.25242308E+03</pdfrwt>
<totfact> 0.15906710E+02</totfact>
</mgrwt>
</event>
<event>
 4    1  0.1104584E-007  0.6127963E+03  0.7818608E-02  0.9879208E-01
         -2   -1    0    0    0  501 -0.00000000000E+00  0.00000000000E+00  0.40496440180E+03  0.40496440180E+03  0.25500000000E-02 0.  1.
          2   -1    0    0  501    0  0.00000000000E+00 -0.00000000000E+00 -0.11393761626E+04  0.11393761626E+04  0.25500000000E-02 0. -1.
    8880022    1    1    2    0    0  0.59305792821E+03  0.20246742015E+02 -0.70035300253E+03  0.93059852673E+03  0.15294330000E+03 0.  0.
    8880022    1    1    2    0    0 -0.59305792821E+03 -0.20246742015E+02 -0.34058758258E+02  0.61374203767E+03  0.15294330000E+03 0.  0.
<mgrwt>
<rscale>  0 0.61279629E+03</rscale>
<asrwt>0</asrwt>
<pdfrwt beam="1">  1        2 0.17528864E+00 0.61279629E+03</pdfrwt>
<pdfrwt beam="2">  1       -2 0.62302216E-01 0.61279629E+03</pdfrwt>
<totfact> 0.50806721E+01</totfact>
</mgrwt>
</event>
<event>
 4    1  0.1104584E-007  0.3944779E+03  0.7818608E-02  0.1045709E+00
         -2   -1    0    0    0  501 -0.00000000000E+00  0.00000000000E+00  0.16697008741E+03  0.16697008743E+03  0.25500000000E-02 0.  1.
          2   -1    0    0  501    0  0.00000000000E+00 -0.00000000000E+00 -0.23794422809E+04  0.23794422809E+04  0.25500000000E-02 0. -1.
    8880022    1    1    2    0    0 -0.25400915274E+03 -0.26019316219E+03 -0.11320058879E+03  0.41039877881E+03  0.15294330000E+03 0.  0.
    8880022    1    1    2    0    0  0.25400915274E+03  0.26019316219E+03 -0.20992716047E+04  0.21360135895E+04  0.15294330000E+03 0.  0.
<mgrwt>
<rscale>  0 0.39447786E+03</rscale>
<asrwt>0</asrwt>
<pdfrwt beam="1">  1        2 0.36606802E+00 0.39447786E+03</pdfrwt>
<pdfrwt beam="2">  1       -2 0.25687707E-01 0.39447786E+03</pdfrwt>
<totfact> 0.61484464E+01</totfact>
</mgrwt>
</event>
<event>
 4    1  0.1104584E-007  0.2466427E+03  0.7818608E-02  0.1115445E+00
          2   -1    0    0  501    0  0.00000000000E+00  0.00000000000E+00  0.18776803501E+04  0.18776803501E+04  0.25500000000E-02 0. -1.
         -2   -1    0    0    0  501 -0.00000000000E+00 -0.00000000000E+00 -0.11402168702E+03  0.11402168705E+03  0.25500000000E-02 0.  1.
    8880022    1    1    2    0    0 -0.15660451929E+03  0.11364851216E+03  0.39252684136E+02  0.24974664363E+03  0.15294330000E+03 0.  0.
    8880022    1    1    2    0    0  0.15660451929E+03 -0.11364851216E+03  0.17244059789E+04  0.17419553935E+04  0.15294330000E+03 0. -1.
<mgrwt>
<rscale>  0 0.24664268E+03</rscale>
<asrwt>0</asrwt>
<pdfrwt beam="1">  1        2 0.28887391E+00 0.24664268E+03</pdfrwt>
<pdfrwt beam="2">  1       -2 0.17541797E-01 0.24664268E+03</pdfrwt>
<totfact> 0.22930364E+02</totfact>
</mgrwt>
</event>
<event>
 4    1  0.1104584E-007  0.4497615E+03  0.7818608E-02  0.1027793E+00
          2   -1    0    0  501    0  0.00000000000E+00  0.00000000000E+00  0.23286614512E+04  0.23286614512E+04  0.25500000000E-02 0. -1.
         -2   -1    0    0    0  501 -0.00000000000E+00 -0.00000000000E+00 -0.11922925357E+03  0.11922925360E+03  0.25500000000E-02 0.  1.
    8880022    1    1    2    0    0  0.17031965262E+03 -0.38714984830E+03  0.17423704981E+04  0.17994833689E+04  0.15294330000E+03 0.  0.
    8880022    1    1    2    0    0 -0.17031965262E+03  0.38714984830E+03  0.46706169947E+03  0.64840733589E+03  0.15294330000E+03 0.  0.
<mgrwt>
<rscale>  0 0.44976154E+03</rscale>
<asrwt>0</asrwt>
<pdfrwt beam="1">  1        2 0.35825562E+00 0.44976154E+03</pdfrwt>
<pdfrwt beam="2">  1       -2 0.18342962E-01 0.44976154E+03</pdfrwt>
<totfact> 0.11686326E+02</totfact>
</mgrwt>
</event>
<event>
 4    1  0.1104584E-007  0.8913081E+03  0.7818608E-02  0.9436512E-01
          2   -1    0    0  501    0  0.00000000000E+00  0.00000000000E+00  0.21026653669E+04  0.21026653669E+04  0.25500000000E-02 0. -1.
         -2   -1    0    0    0  501 -0.00000000000E+00 -0.00000000000E+00 -0.42804167636E+03  0.42804167637E+03  0.25500000000E-02 0.  1.
    8880022    1    1    2    0    0  0.83278910051E+03 -0.27838976892E+03  0.12707349308E+04  0.15521589695E+04  0.15294330000E+03 0.  0.
    8880022    1    1    2    0    0 -0.83278910051E+03  0.27838976892E+03  0.40388875976E+03  0.97854807375E+03  0.15294330000E+03 0.  0.
<mgrwt>
<rscale>  0 0.89130814E+03</rscale>
<asrwt>0</asrwt>
<pdfrwt beam="1">  1        2 0.32348698E+00 0.89130814E+03</pdfrwt>
<pdfrwt beam="2">  1       -2 0.65852566E-01 0.89130814E+03</pdfrwt>
<totfact> 0.12648784E+01</totfact>
</mgrwt>
</event>
<event>
 4    1  0.1104584E-007  0.4868454E+03  0.7818608E-02  0.1017271E+00
          2   -1    0    0  501    0  0.00000000000E+00  0.00000000000E+00  0.14959876713E+04  0.14959876713E+04  0.25500000000E-02 0. -1.
         -2   -1    0    0    0  501 -0.00000000000E+00 -0.00000000000E+00 -0.27416146524E+03  0.27416146526E+03  0.25500000000E-02 0.  1.
    8880022    1    1    2    0    0  0.22447789458E+02  0.46165237291E+03  0.11859436472E+04  0.12819831528E+04  0.15294330000E+03 0.  0.
    8880022    1    1    2    0    0 -0.22447789458E+02 -0.46165237291E+03  0.35882558851E+02  0.48816598377E+03  0.15294330000E+03 0.  0.
<mgrwt>
<rscale>  0 0.48684543E+03</rscale>
<asrwt>0</asrwt>
<pdfrwt beam="1">  1        2 0.23015195E+00 0.48684543E+03</pdfrwt>
<pdfrwt beam="2">  1       -2 0.42178686E-01 0.48684543E+03</pdfrwt>
<totfact> 0.71590984E+01</totfact>
</mgrwt>
</event>
<event>
 4    1  0.1104584E-007  0.6596935E+03  0.7818608E-02  0.9788758E-01
          2   -1    0    0  501    0  0.00000000000E+00  0.00000000000E+00  0.26449520116E+03  0.26449520118E+03  0.25500000000E-02 0. -1.
         -2   -1    0    0    0  501 -0.00000000000E+00 -0.00000000000E+00 -0.24216023126E+04  0.24216023126E+04  0.25500000000E-02 0.  1.
    8880022    1    1    2    0    0 -0.39671458623E+03  0.50440200196E+03 -0.18389376534E+04  0.19536855398E+04  0.15294330000E+03 0.  0.
    8880022    1    1    2    0    0  0.39671458623E+03 -0.50440200196E+03 -0.31816945804E+03  0.73241197393E+03  0.15294330000E+03 0.  0.
<mgrwt>
<rscale>  0 0.65969349E+03</rscale>
<asrwt>0</asrwt>
<pdfrwt beam="1">  1        2 0.40691571E-01 0.65969349E+03</pdfrwt>
<pdfrwt beam="2">  1       -2 0.37255419E+00 0.65969349E+03</pdfrwt>
<totfact> 0.15162165E+00</totfact>
</mgrwt>
</event>
<event>
 4    1  0.1104584E-007  0.1194478E+04  0.7818608E-02  0.9117704E-01
          2   -1    0    0  501    0  0.00000000000E+00  0.00000000000E+00  0.25105469535E+04  0.25105469535E+04  0.25500000000E-02 0. -1.
         -2   -1    0    0    0  501 -0.00000000000E+00 -0.00000000000E+00 -0.61281095421E+03  0.61281095421E+03  0.25500000000E-02 0.  1.
    8880022    1    1    2    0    0 -0.80457973910E+03  0.86950357122E+03  0.13696897058E+04  0.18173680310E+04  0.15294330000E+03 0.  0.
    8880022    1    1    2    0    0  0.80457973910E+03 -0.86950357122E+03  0.52804629348E+03  0.13059898767E+04  0.15294330000E+03 0.  0.
<mgrwt>
<rscale>  0 0.11944776E+04</rscale>
<asrwt>0</asrwt>
<pdfrwt beam="1">  1        2 0.38623799E+00 0.11944776E+04</pdfrwt>
<pdfrwt beam="2">  1       -2 0.94278608E-01 0.11944776E+04</pdfrwt>
<totfact> 0.32074483E+00</totfact>
</mgrwt>
</event>
<event>
 4    1  0.1104584E-007  0.8176586E+03  0.7818608E-02  0.9534803E-01
          2   -1    0    0  501    0  0.00000000000E+00  0.00000000000E+00  0.16886490438E+04  0.16886490438E+04  0.25500000000E-02 0. -1.
         -2   -1    0    0    0  501 -0.00000000000E+00 -0.00000000000E+00 -0.94033571269E+03  0.94033571269E+03  0.25500000000E-02 0.  1.
    8880022    1    1    2    0    0  0.79819220545E+03 -0.89794681938E+02 -0.62603439985E+03  0.10297983320E+04  0.15294330000E+03 0.  0.
    8880022    1    1    2    0    0 -0.79819220545E+03  0.89794681938E+02  0.13743477310E+04  0.15991864245E+04  0.15294330000E+03 0.  0.
<mgrwt>
<rscale>  0 0.81765857E+03</rscale>
<asrwt>0</asrwt>
<pdfrwt beam="1">  1        2 0.25979216E+00 0.81765857E+03</pdfrwt>
<pdfrwt beam="2">  1       -2 0.14466703E+00 0.81765857E+03</pdfrwt>
<totfact> 0.33434835E+00</totfact>
</mgrwt>
</event>
<event>
 4    1  0.1104584E-007  0.7640898E+03  0.7818608E-02  0.9613501E-01
         -2   -1    0    0    0  501 -0.00000000000E+00  0.00000000000E+00  0.52737283066E+03  0.52737283067E+03  0.25500000000E-02 0.  1.
          2   -1    0    0  501    0  0.00000000000E+00 -0.00000000000E+00 -0.24654919908E+04  0.24654919908E+04  0.25500000000E-02 0. -1.
    8880022    1    1    2    0    0 -0.60915496389E+03  0.43516871074E+03 -0.20798299834E+04  0.22157450191E+04  0.15294330000E+03 0.  0.
    8880022    1    1    2    0    0  0.60915496389E+03 -0.43516871074E+03  0.14171082322E+03  0.77711980239E+03  0.15294330000E+03 0.  0.
<mgrwt>
<rscale>  0 0.76408980E+03</rscale>
<asrwt>0</asrwt>
<pdfrwt beam="1">  1        2 0.37930645E+00 0.76408980E+03</pdfrwt>
<pdfrwt beam="2">  1       -2 0.81134283E-01 0.76408980E+03</pdfrwt>
<totfact> 0.51064703E+00</totfact>
</mgrwt>
</event>
<event>
 4    1  0.1104584E-007  0.4390448E+03  0.7818608E-02  0.1031040E+00
         -2   -1    0    0    0  501 -0.00000000000E+00  0.00000000000E+00  0.62414863988E+03  0.62414863988E+03  0.25500000000E-02 0.  1.
          2   -1    0    0  501    0  0.00000000000E+00 -0.00000000000E+00 -0.37578945853E+03  0.37578945854E+03  0.25500000000E-02 0. -1.
    8880022    1    1    2    0    0  0.88938283147E+00 -0.41154325645E+03 -0.86854955895E+02  0.44755343738E+03  0.15294330000E+03 0.  0.
    8880022    1    1    2    0    0 -0.88938283147E+00  0.41154325645E+03  0.33521413724E+03  0.55238466104E+03  0.15294330000E+03 0.  1.
<mgrwt>
<rscale>  0 0.43904475E+03</rscale>
<asrwt>0</asrwt>
<pdfrwt beam="1">  1        2 0.57813763E-01 0.43904475E+03</pdfrwt>
<pdfrwt beam="2">  1       -2 0.96022867E-01 0.43904475E+03</pdfrwt>
<totfact> 0.79993719E+01</totfact>
</mgrwt>
</event>
<event>
 4    1  0.1104584E-007  0.2836902E+03  0.7818608E-02  0.1093690E+00
          2   -1    0    0  501    0  0.00000000000E+00  0.00000000000E+00  0.43689706751E+03  0.43689706752E+03  0.25500000000E-02 0. -1.
         -2   -1    0    0    0  501 -0.00000000000E+00 -0.00000000000E+00 -0.38695454184E+03  0.38695454184E+03  0.25500000000E-02 0.  1.
    8880022    1    1    2    0    0 -0.23415993250E+03 -0.47514313322E+02  0.32314216345E+03  0.43000115671E+03  0.15294330000E+03 0. -1.
    8880022    1    1    2    0    0  0.23415993250E+03  0.47514313322E+02 -0.27319963778E+03  0.39385045265E+03  0.15294330000E+03 0.  0.
<mgrwt>
<rscale>  0 0.28369021E+03</rscale>
<asrwt>0</asrwt>
<pdfrwt beam="1">  1        2 0.67214933E-01 0.28369021E+03</pdfrwt>
<pdfrwt beam="2">  1       -2 0.59531468E-01 0.28369021E+03</pdfrwt>
<totfact> 0.19615793E+02</totfact>
</mgrwt>
</event>
<event>
 4    1  0.1104584E-007  0.1064854E+04  0.7818608E-02  0.9240141E-01
          2   -1    0    0  501    0  0.00000000000E+00  0.00000000000E+00  0.24794051936E+04  0.24794051936E+04  0.25500000000E-02 0. -1.
         -2   -1    0    0    0  501 -0.00000000000E+00 -0.00000000000E+00 -0.58818161183E+03  0.58818161183E+03  0.25500000000E-02 0.  1.
    8880022    1    1    2    0    0 -0.35652850937E+03 -0.99167023165E+03  0.16690401457E+04  0.19798002645E+04  0.15294330000E+03 0.  0.
    8880022    1    1    2    0    0  0.35652850937E+03  0.99167023165E+03  0.22218343606E+03  0.10877865409E+04  0.15294330000E+03 0.  0.
<mgrwt>
<rscale>  0 0.10648540E+04</rscale>
<asrwt>0</asrwt>
<pdfrwt beam="1">  1        2 0.38144695E+00 0.10648540E+04</pdfrwt>
<pdfrwt beam="2">  1       -2 0.90489480E-01 0.10648540E+04</pdfrwt>
<totfact> 0.37358131E+00</totfact>
</mgrwt>
</event>
<event>
 4    1  0.1104584E-007  0.8545049E+03  0.7818608E-02  0.9484310E-01
         -2   -1    0    0    0  501 -0.00000000000E+00  0.00000000000E+00  0.62187802338E+03  0.62187802338E+03  0.25500000000E-02 0.  1.
          2   -1    0    0  501    0  0.00000000000E+00 -0.00000000000E+00 -0.13270482642E+04  0.13270482642E+04  0.25500000000E-02 0. -1.
    8880022    1    1    2    0    0  0.83797935521E+03  0.67657971881E+02 -0.21818231703E+02  0.85478341653E+03  0.15294330000E+03 0.  0.
    8880022    1    1    2    0    0 -0.83797935521E+03 -0.67657971881E+02 -0.68335200916E+03  0.10941428711E+04  0.15294330000E+03 0.  0.
<mgrwt>
<rscale>  0 0.85450492E+03</rscale>
<asrwt>0</asrwt>
<pdfrwt beam="1">  1        2 0.20416127E+00 0.85450492E+03</pdfrwt>
<pdfrwt beam="2">  1       -2 0.95673542E-01 0.85450492E+03</pdfrwt>
<totfact> 0.14749443E+01</totfact>
</mgrwt>
</event>
<event>
 4    1  0.1104584E-007  0.6516710E+03  0.7818608E-02  0.9803649E-01
         -2   -1    0    0    0  501 -0.00000000000E+00  0.00000000000E+00  0.10373411588E+04  0.10373411588E+04  0.25500000000E-02 0.  1.
          2   -1    0    0  501    0  0.00000000000E+00 -0.00000000000E+00 -0.67858912683E+03  0.67858912684E+03  0.25500000000E-02 0. -1.
    8880022    1    1    2    0    0  0.18176451435E+00  0.63346932099E+03 -0.36101061696E+03  0.74498572621E+03  0.15294330000E+03 0.  0.
    8880022    1    1    2    0    0 -0.18176451435E+00 -0.63346932099E+03  0.71976264891E+03  0.97094455941E+03  0.15294330000E+03 0.  0.
<mgrwt>
<rscale>  0 0.65167098E+03</rscale>
<asrwt>0</asrwt>
<pdfrwt beam="1">  1        2 0.10439833E+00 0.65167098E+03</pdfrwt>
<pdfrwt beam="2">  1       -2 0.15959095E+00 0.65167098E+03</pdfrwt>
<totfact> 0.11104835E+01</totfact>
</mgrwt>
</event>
<event>
 4    1  0.1104584E-007  0.1059251E+04  0.7818608E-02  0.9245845E-01
         -2   -1    0    0    0  501 -0.00000000000E+00  0.00000000000E+00  0.80238635124E+03  0.80238635124E+03  0.25500000000E-02 0.  1.
          2   -1    0    0  501    0  0.00000000000E+00 -0.00000000000E+00 -0.22432104908E+04  0.22432104908E+04  0.25500000000E-02 0. -1.
    8880022    1    1    2    0    0 -0.53204932902E+03 -0.90307504716E+03  0.21413520013E+03  0.10806787526E+04  0.15294330000E+03 0.  0.
    8880022    1    1    2    0    0  0.53204932902E+03  0.90307504716E+03 -0.16549593397E+04  0.19649180895E+04  0.15294330000E+03 0.  0.
<mgrwt>
<rscale>  0 0.10592510E+04</rscale>
<asrwt>0</asrwt>
<pdfrwt beam="1">  1        2 0.34510930E+00 0.10592510E+04</pdfrwt>
<pdfrwt beam="2">  1       -2 0.12344405E+00 0.10592510E+04</pdfrwt>
<totfact> 0.24021950E+00</totfact>
</mgrwt>
</event>
<event>
 4    1  0.1104584E-007  0.1246621E+04  0.7818608E-02  0.9073000E-01
          2   -1    0    0  501    0  0.00000000000E+00  0.00000000000E+00  0.20242730795E+04  0.20242730795E+04  0.25500000000E-02 0. -1.
         -2   -1    0    0    0  501 -0.00000000000E+00 -0.00000000000E+00 -0.10407716625E+04  0.10407716626E+04  0.25500000000E-02 0.  1.
    8880022    1    1    2    0    0  0.12126802884E+04 -0.24511021735E+03  0.12767255522E+04  0.17844025020E+04  0.15294330000E+03 0.  0.
    8880022    1    1    2    0    0 -0.12126802884E+04  0.24511021735E+03 -0.29322413526E+03  0.12806422401E+04  0.15294330000E+03 0.  0.
<mgrwt>
<rscale>  0 0.12466211E+04</rscale>
<asrwt>0</asrwt>
<pdfrwt beam="1">  1        2 0.31142663E+00 0.12466211E+04</pdfrwt>
<pdfrwt beam="2">  1       -2 0.16011872E+00 0.12466211E+04</pdfrwt>
<totfact> 0.15753381E+00</totfact>
</mgrwt>
</event>
<event>
 4    1  0.1104584E-007  0.1860973E+03  0.7818608E-02  0.1162029E+00
          2   -1    0    0  501    0  0.00000000000E+00  0.00000000000E+00  0.26327954924E+03  0.26327954925E+03  0.25500000000E-02 0. -1.
         -2   -1    0    0    0  501 -0.00000000000E+00 -0.00000000000E+00 -0.39035027522E+03  0.39035027523E+03  0.25500000000E-02 0.  1.
    8880022    1    1    2    0    0  0.71770312798E+02  0.78035610204E+02  0.20257642754E+03  0.27508070865E+03  0.15294330000E+03 0. -1.
    8880022    1    1    2    0    0 -0.71770312798E+02 -0.78035610204E+02 -0.32964715352E+03  0.37854911583E+03  0.15294330000E+03 0.  0.
<mgrwt>
<rscale>  0 0.18609725E+03</rscale>
<asrwt>0</asrwt>
<pdfrwt beam="1">  1        2 0.40504546E-01 0.18609725E+03</pdfrwt>
<pdfrwt beam="2">  1       -2 0.60053888E-01 0.18609725E+03</pdfrwt>
<totfact> 0.33510015E+02</totfact>
</mgrwt>
</event>
<event>
 4    1  0.1104584E-007  0.4522289E+03  0.7818608E-02  0.1027059E+00
          2   -1    0    0  501    0  0.00000000000E+00  0.00000000000E+00  0.27955822975E+04  0.27955822975E+04  0.25500000000E-02 0. -1.
         -2   -1    0    0    0  501 -0.00000000000E+00 -0.00000000000E+00 -0.21282132313E+03  0.21282132314E+03  0.25500000000E-02 0.  1.
    8880022    1    1    2    0    0 -0.32030473231E+03  0.28022168664E+03  0.25099331605E+04  0.25503481014E+04  0.15294330000E+03 0.  0.
    8880022    1    1    2    0    0  0.32030473231E+03 -0.28022168664E+03  0.72827813872E+02  0.45805551923E+03  0.15294330000E+03 0.  1.
<mgrwt>
<rscale>  0 0.45222889E+03</rscale>
<asrwt>0</asrwt>
<pdfrwt beam="1">  1        2 0.43008955E+00 0.45222889E+03</pdfrwt>
<pdfrwt beam="2">  1       -2 0.32741744E-01 0.45222889E+03</pdfrwt>
<totfact> 0.22651650E+01</totfact>
</mgrwt>
</event>
<event>
 4    1  0.1104584E-007  0.3153013E+03  0.7818608E-02  0.1077832E+00
         -2   -1    0    0    0  501 -0.00000000000E+00  0.00000000000E+00  0.69209175531E+02  0.69209175578E+02  0.25500000000E-02 0.  1.
          2   -1    0    0  501    0  0.00000000000E+00 -0.00000000000E+00 -0.15260055429E+04  0.15260055429E+04  0.25500000000E-02 0. -1.
    8880022    1    1    2    0    0 -0.23771974946E+03  0.13968733954E+03 -0.53516594659E+03  0.62114207354E+03  0.15294330000E+03 0.  1.
    8880022    1    1    2    0    0  0.23771974946E+03 -0.13968733954E+03 -0.92163042078E+03  0.97407264495E+03  0.15294330000E+03 0. -1.
<mgrwt>
<rscale>  0 0.31530126E+03</rscale>
<asrwt>0</asrwt>
<pdfrwt beam="1">  1        2 0.23477006E+00 0.31530126E+03</pdfrwt>
<pdfrwt beam="2">  1       -2 0.10647567E-01 0.31530126E+03</pdfrwt>
<totfact> 0.79126158E+02</totfact>
</mgrwt>
</event>
<event>
 4    1  0.1104584E-007  0.5060296E+03  0.7818608E-02  0.1012217E+00
          2   -1    0    0  501    0  0.00000000000E+00  0.00000000000E+00  0.54951497087E+03  0.54951497088E+03  0.25500000000E-02 0. -1.
         -2   -1    0    0    0  501 -0.00000000000E+00 -0.00000000000E+00 -0.55715538202E+03  0.55715538202E+03  0.25500000000E-02 0.  1.
    8880022    1    1    2    0    0  0.47481352806E+03 -0.85008355959E+02  0.22001377661E+03  0.55178983493E+03  0.15294330000E+03 0.  0.
    8880022    1    1    2    0    0 -0.47481352806E+03  0.85008355959E+02 -0.22765418775E+03  0.55488051798E+03  0.15294330000E+03 0.  0.
<mgrwt>
<rscale>  0 0.50602960E+03</rscale>
<asrwt>0</asrwt>
<pdfrwt beam="1">  1        2 0.84540764E-01 0.50602960E+03</pdfrwt>
<pdfrwt beam="2">  1       -2 0.85716213E-01 0.50602960E+03</pdfrwt>
<totfact> 0.67140087E+01</totfact>
</mgrwt>
</event>
<event>
 4    1  0.1104584E-007  0.5183601E+03  0.7818608E-02  0.1009095E+00
         -2   -1    0    0    0  501 -0.00000000000E+00  0.00000000000E+00  0.46548840996E+03  0.46548840997E+03  0.25500000000E-02 0.  1.
          2   -1    0    0  501    0  0.00000000000E+00 -0.00000000000E+00 -0.18421250754E+04  0.18421250754E+04  0.25500000000E-02 0. -1.
    8880022    1    1    2    0    0 -0.41049706820E+03 -0.27712400591E+03 -0.16444100064E+04  0.17241755942E+04  0.15294330000E+03 0.  0.
    8880022    1    1    2    0    0  0.41049706820E+03  0.27712400591E+03  0.26777334096E+03  0.58343789112E+03  0.15294330000E+03 0.  0.
<mgrwt>
<rscale>  0 0.51836012E+03</rscale>
<asrwt>0</asrwt>
<pdfrwt beam="1">  1        2 0.28340386E+00 0.51836012E+03</pdfrwt>
<pdfrwt beam="2">  1       -2 0.71613602E-01 0.51836012E+03</pdfrwt>
<totfact> 0.15500508E+01</totfact>
</mgrwt>
</event>
<event>
 4    1  0.1104584E-007  0.8096071E+03  0.7818608E-02  0.9546214E-01
          2   -1    0    0  501    0  0.00000000000E+00  0.00000000000E+00  0.24474882622E+04  0.24474882622E+04  0.25500000000E-02 0. -1.
         -2   -1    0    0    0  501 -0.00000000000E+00 -0.00000000000E+00 -0.88341866467E+03  0.88341866467E+03  0.25500000000E-02 0.  1.
    8880022    1    1    2    0    0  0.73605462822E+03  0.30049230387E+03 -0.60824211219E+03  0.10126313053E+04  0.15294330000E+03 0.  0.
    8880022    1    1    2    0    0 -0.73605462822E+03 -0.30049230387E+03  0.21723117097E+04  0.23182756216E+04  0.15294330000E+03 0.  0.
<mgrwt>
<rscale>  0 0.80960712E+03</rscale>
<asrwt>0</asrwt>
<pdfrwt beam="1">  1        2 0.37653665E+00 0.80960712E+03</pdfrwt>
<pdfrwt beam="2">  1       -2 0.13591057E+00 0.80960712E+03</pdfrwt>
<totfact> 0.15023389E+00</totfact>
</mgrwt>
</event>
<event>
 4    1  0.1104584E-007  0.3313957E+03  0.7818608E-02  0.1070521E+00
         -2   -1    0    0    0  501 -0.00000000000E+00  0.00000000000E+00  0.43395115821E+03  0.43395115822E+03  0.25500000000E-02 0.  1.
          2   -1    0    0  501    0  0.00000000000E+00 -0.00000000000E+00 -0.80740303257E+03  0.80740303257E+03  0.25500000000E-02 0. -1.
    8880022    1    1    2    0    0 -0.10284016725E+03 -0.27541853526E+03  0.32755817676E+03  0.46595866956E+03  0.15294330000E+03 0.  0.
    8880022    1    1    2    0    0  0.10284016725E+03  0.27541853526E+03 -0.70101005112E+03  0.77539552123E+03  0.15294330000E+03 0.  0.
<mgrwt>
<rscale>  0 0.33139572E+03</rscale>
<asrwt>0</asrwt>
<pdfrwt beam="1">  1        2 0.12421585E+00 0.33139572E+03</pdfrwt>
<pdfrwt beam="2">  1       -2 0.66761717E-01 0.33139572E+03</pdfrwt>
<totfact> 0.74231973E+01</totfact>
</mgrwt>
</event>
<event>
 4    1  0.1104584E-007  0.2329023E+03  0.7818608E-02  0.1124614E+00
         -2   -1    0    0    0  501 -0.00000000000E+00  0.00000000000E+00  0.21546691047E+03  0.21546691048E+03  0.25500000000E-02 0.  1.
          2   -1    0    0  501    0  0.00000000000E+00 -0.00000000000E+00 -0.73836093277E+03  0.73836093277E+03  0.25500000000E-02 0. -1.
    8880022    1    1    2    0    0  0.12041282002E+03  0.12787713267E+03  0.12571903806E+03  0.26466722093E+03  0.15294330000E+03 0.  0.
    8880022    1    1    2    0    0 -0.12041282002E+03 -0.12787713267E+03 -0.64861306036E+03  0.68916062233E+03  0.15294330000E+03 0.  0.
<mgrwt>
<rscale>  0 0.23290226E+03</rscale>
<asrwt>0</asrwt>
<pdfrwt beam="1">  1        2 0.11359399E+00 0.23290226E+03</pdfrwt>
<pdfrwt beam="2">  1       -2 0.33148756E-01 0.23290226E+03</pdfrwt>
<totfact> 0.33764218E+02</totfact>
</mgrwt>
</event>
<event>
 4    1  0.1104584E-007  0.3954780E+03  0.7818608E-02  0.1045357E+00
         -2   -1    0    0    0  501 -0.00000000000E+00  0.00000000000E+00  0.14039473807E+04  0.14039473807E+04  0.25500000000E-02 0.  1.
          2   -1    0    0  501    0  0.00000000000E+00 -0.00000000000E+00 -0.17039881344E+03  0.17039881345E+03  0.25500000000E-02 0. -1.
    8880022    1    1    2    0    0  0.35803355469E+03 -0.69449123105E+02  0.10799549407E+04  0.11500893591E+04  0.15294330000E+03 0.  0.
    8880022    1    1    2    0    0 -0.35803355469E+03  0.69449123105E+02  0.15359362664E+03  0.42425683512E+03  0.15294330000E+03 0. -1.
<mgrwt>
<rscale>  0 0.39547801E+03</rscale>
<asrwt>0</asrwt>
<pdfrwt beam="1">  1        2 0.26215202E-01 0.39547801E+03</pdfrwt>
<pdfrwt beam="2">  1       -2 0.21599190E+00 0.39547801E+03</pdfrwt>
<totfact> 0.23003797E+01</totfact>
</mgrwt>
</event>
<event>
 4    1  0.1104584E-007  0.3976325E+03  0.7818608E-02  0.1044603E+00
          2   -1    0    0  501    0  0.00000000000E+00  0.00000000000E+00  0.21592386994E+04  0.21592386994E+04  0.25500000000E-02 0. -1.
         -2   -1    0    0    0  501 -0.00000000000E+00 -0.00000000000E+00 -0.16872543018E+03  0.16872543020E+03  0.25500000000E-02 0.  1.
    8880022    1    1    2    0    0 -0.25802472038E+03  0.26104251913E+03  0.18709604791E+04  0.19127479500E+04  0.15294330000E+03 0. -1.
    8880022    1    1    2    0    0  0.25802472038E+03 -0.26104251913E+03  0.11955279015E+03  0.41521617956E+03  0.15294330000E+03 0.  0.
<mgrwt>
<rscale>  0 0.39763250E+03</rscale>
<asrwt>0</asrwt>
<pdfrwt beam="1">  1        2 0.33219054E+00 0.39763250E+03</pdfrwt>
<pdfrwt beam="2">  1       -2 0.25957761E-01 0.39763250E+03</pdfrwt>
<totfact> 0.79395971E+01</totfact>
</mgrwt>
</event>
<event>
 4    1  0.1104584E-007  0.5955081E+03  0.7818608E-02  0.9914769E-01
          2   -1    0    0  501    0  0.00000000000E+00  0.00000000000E+00  0.14922323351E+04  0.14922323351E+04  0.25500000000E-02 0. -1.
         -2   -1    0    0    0  501 -0.00000000000E+00 -0.00000000000E+00 -0.95722311031E+03  0.95722311031E+03  0.25500000000E-02 0.  1.
    8880022    1    1    2    0    0  0.82235877682E+02 -0.56962756582E+03  0.13293718791E+04  0.14566604098E+04  0.15294330000E+03 0. -1.
    8880022    1    1    2    0    0 -0.82235877682E+02  0.56962756582E+03 -0.79436265430E+03  0.99279503569E+03  0.15294330000E+03 0.  0.
<mgrwt>
<rscale>  0 0.59550815E+03</rscale>
<asrwt>0</asrwt>
<pdfrwt beam="1">  1        2 0.22957420E+00 0.59550815E+03</pdfrwt>
<pdfrwt beam="2">  1       -2 0.14726510E+00 0.59550815E+03</pdfrwt>
<totfact> 0.42525633E+00</totfact>
</mgrwt>
</event>
<event>
 4    1  0.1104584E-007  0.1571066E+03  0.7818608E-02  0.1192003E+00
         -2   -1    0    0    0  501 -0.00000000000E+00  0.00000000000E+00  0.12149633810E+03  0.12149633813E+03  0.25500000000E-02 0.  1.
          2   -1    0    0  501    0  0.00000000000E+00 -0.00000000000E+00 -0.76174601240E+03  0.76174601240E+03  0.25500000000E-02 0. -1.
    8880022    1    1    2    0    0 -0.14269139725E+02 -0.32973216890E+02 -0.69829918586E+03  0.71575432054E+03  0.15294330000E+03 0.  0.
    8880022    1    1    2    0    0  0.14269139725E+02  0.32973216890E+02  0.58049511567E+02  0.16748802999E+03  0.15294330000E+03 0.  1.
<mgrwt>
<rscale>  0 0.15710663E+03</rscale>
<asrwt>0</asrwt>
<pdfrwt beam="1">  1        2 0.11719169E+00 0.15710663E+03</pdfrwt>
<pdfrwt beam="2">  1       -2 0.18691745E-01 0.15710663E+03</pdfrwt>
<totfact> 0.89503262E+02</totfact>
</mgrwt>
</event>
<event>
 4    1  0.1104584E-007  0.7401233E+03  0.7818608E-02  0.9650974E-01
         -2   -1    0    0    0  501 -0.00000000000E+00  0.00000000000E+00  0.30640037773E+03  0.30640037774E+03  0.25500000000E-02 0.  1.
          2   -1    0    0  501    0  0.00000000000E+00 -0.00000000000E+00 -0.28610190017E+04  0.28610190017E+04  0.25500000000E-02 0. -1.
    8880022    1    1    2    0    0  0.56968420700E+03 -0.44704670860E+03 -0.22472818461E+04  0.23660215984E+04  0.15294330000E+03 0.  0.
    8880022    1    1    2    0    0 -0.56968420700E+03  0.44704670860E+03 -0.30733677786E+03  0.80139778102E+03  0.15294330000E+03 0.  0.
<mgrwt>
<rscale>  0 0.74012331E+03</rscale>
<asrwt>0</asrwt>
<pdfrwt beam="1">  1        2 0.44015675E+00 0.74012331E+03</pdfrwt>
<pdfrwt beam="2">  1       -2 0.47138522E-01 0.74012331E+03</pdfrwt>
<totfact> 0.96080988E+00</totfact>
</mgrwt>
</event>
<event>
 4    1  0.1104584E-007  0.5917335E+03  0.7818608E-02  0.9922706E-01
         -2   -1    0    0    0  501 -0.00000000000E+00  0.00000000000E+00  0.60928389033E+03  0.60928389033E+03  0.25500000000E-02 0.  1.
          2   -1    0    0  501    0  0.00000000000E+00 -0.00000000000E+00 -0.28909214306E+04  0.28909214306E+04  0.25500000000E-02 0. -1.
    8880022    1    1    2    0    0 -0.41465064331E+00  0.57162636916E+03  0.42570317572E+03  0.72895248452E+03  0.15294330000E+03 0.  0.
    8880022    1    1    2    0    0  0.41465064331E+00 -0.57162636916E+03 -0.27073407160E+04  0.27712528364E+04  0.15294330000E+03 0.  0.
<mgrwt>
<rscale>  0 0.59173350E+03</rscale>
<asrwt>0</asrwt>
<pdfrwt beam="1">  1        2 0.44475714E+00 0.59173350E+03</pdfrwt>
<pdfrwt beam="2">  1       -2 0.93735985E-01 0.59173350E+03</pdfrwt>
<totfact> 0.21600623E+00</totfact>
</mgrwt>
</event>
<event>
 4    1  0.1104584E-007  0.3595850E+03  0.7818608E-02  0.1058748E+00
          2   -1    0    0  501    0  0.00000000000E+00  0.00000000000E+00  0.17618276823E+03  0.17618276825E+03  0.25500000000E-02 0. -1.
         -2   -1    0    0    0  501 -0.00000000000E+00 -0.00000000000E+00 -0.93299743928E+03  0.93299743929E+03  0.25500000000E-02 0.  1.
    8880022    1    1    2    0    0  0.32209732873E+03 -0.46508213162E+02 -0.12221883287E+03  0.37978783444E+03  0.15294330000E+03 0.  0.
    8880022    1    1    2    0    0 -0.32209732873E+03  0.46508213162E+02 -0.63459583819E+03  0.72939237309E+03  0.15294330000E+03 0.  0.
<mgrwt>
<rscale>  0 0.35958498E+03</rscale>
<asrwt>0</asrwt>
<pdfrwt beam="1">  1        2 0.27105042E-01 0.35958498E+03</pdfrwt>
<pdfrwt beam="2">  1       -2 0.14353806E+00 0.35958498E+03</pdfrwt>
<totfact> 0.69593700E+01</totfact>
</mgrwt>
</event>
<event>
 4    1  0.1104584E-007  0.5180008E+03  0.7818608E-02  0.1009184E+00
          2   -1    0    0  501    0  0.00000000000E+00  0.00000000000E+00  0.10725522319E+04  0.10725522319E+04  0.25500000000E-02 0. -1.
         -2   -1    0    0    0  501 -0.00000000000E+00 -0.00000000000E+00 -0.26519004678E+03  0.26519004679E+03  0.25500000000E-02 0.  1.
    8880022    1    1    2    0    0 -0.48123846230E+03  0.11551046432E+03  0.56284344905E+03  0.76492975241E+03  0.15294330000E+03 0.  0.
    8880022    1    1    2    0    0  0.48123846230E+03 -0.11551046432E+03  0.24451873608E+03  0.57281252629E+03  0.15294330000E+03 0.  0.
<mgrwt>
<rscale>  0 0.51800075E+03</rscale>
<asrwt>0</asrwt>
<pdfrwt beam="1">  1        2 0.16500804E+00 0.51800075E+03</pdfrwt>
<pdfrwt beam="2">  1       -2 0.40798468E-01 0.51800075E+03</pdfrwt>
<totfact> 0.13312249E+02</totfact>
</mgrwt>
</event>
<event>
 4    1  0.1104584E-007  0.3581390E+03  0.7818608E-02  0.1059323E+00
         -2   -1    0    0    0  501 -0.00000000000E+00  0.00000000000E+00  0.67357342662E+03  0.67357342662E+03  0.25500000000E-02 0.  1.
          2   -1    0    0  501    0  0.00000000000E+00 -0.00000000000E+00 -0.26671883639E+04  0.26671883639E+04  0.25500000000E-02 0. -1.
    8880022    1    1    2    0    0  0.29288381159E+03  0.13817003057E+03  0.61284139284E+03  0.70981554663E+03  0.15294330000E+03 0.  0.
    8880022    1    1    2    0    0 -0.29288381159E+03 -0.13817003057E+03 -0.26064563301E+04  0.26309462439E+04  0.15294330000E+03 0. -1.
<mgrwt>
<rscale>  0 0.35813899E+03</rscale>
<asrwt>0</asrwt>
<pdfrwt beam="1">  1        2 0.41033666E+00 0.35813899E+03</pdfrwt>
<pdfrwt beam="2">  1       -2 0.10362668E+00 0.35813899E+03</pdfrwt>
<totfact> 0.24928702E+00</totfact>
</mgrwt>
</event>
<event>
 4    1  0.1104584E-007  0.7054727E+03  0.7818608E-02  0.9707919E-01
         -2   -1    0    0    0  501 -0.00000000000E+00  0.00000000000E+00  0.23097958840E+03  0.23097958841E+03  0.25500000000E-02 0.  1.
          2   -1    0    0  501    0  0.00000000000E+00 -0.00000000000E+00 -0.23550630190E+04  0.23550630190E+04  0.25500000000E-02 0. -1.
    8880022    1    1    2    0    0  0.64575232797E+03  0.23938256561E+03 -0.14391908571E+04  0.16027981963E+04  0.15294330000E+03 0.  0.
    8880022    1    1    2    0    0 -0.64575232797E+03 -0.23938256561E+03 -0.68489257351E+03  0.98324441116E+03  0.15294330000E+03 0.  0.
<mgrwt>
<rscale>  0 0.70547270E+03</rscale>
<asrwt>0</asrwt>
<pdfrwt beam="1">  1        2 0.36231737E+00 0.70547270E+03</pdfrwt>
<pdfrwt beam="2">  1       -2 0.35535323E-01 0.70547270E+03</pdfrwt>
<totfact> 0.32835263E+01</totfact>
</mgrwt>
</event>
<event>
 4    1  0.1121558E-007  0.1129915E+04  0.7818608E-02  0.9176515E-01
         -2   -1    0    0    0  501 -0.00000000000E+00  0.00000000000E+00  0.22676469599E+04  0.22676469599E+04  0.25500000000E-02 0.  1.
          2   -1    0    0  501    0  0.00000000000E+00 -0.00000000000E+00 -0.13786513907E+04  0.13786513907E+04  0.25500000000E-02 0. -1.
    8880022    1    1    2    0    0 -0.41712446294E+03  0.10389049775E+04 -0.95781401787E+03  0.14812547774E+04  0.15294330000E+03 0.  0.
    8880022    1    1    2    0    0  0.41712446294E+03 -0.10389049775E+04  0.18468095871E+04  0.21650435732E+04  0.15294330000E+03 0.  0.
<mgrwt>
<rscale>  0 0.11299151E+04</rscale>
<asrwt>0</asrwt>
<pdfrwt beam="1">  1        2 0.21210022E+00 0.11299151E+04</pdfrwt>
<pdfrwt beam="2">  1       -2 0.34886876E+00 0.11299151E+04</pdfrwt>
<totfact> 0.23321061E-01</totfact>
</mgrwt>
</event>
<event>
 4    1  0.1104584E-007  0.4018493E+03  0.7818608E-02  0.1043141E+00
          2   -1    0    0  501    0  0.00000000000E+00  0.00000000000E+00  0.21790220680E+04  0.21790220680E+04  0.25500000000E-02 0. -1.
         -2   -1    0    0    0  501 -0.00000000000E+00 -0.00000000000E+00 -0.83963001462E+02  0.83963001501E+02  0.25500000000E-02 0.  1.
    8880022    1    1    2    0    0 -0.36235110822E+03 -0.82419022342E+02  0.14351770516E+04  0.14903744641E+04  0.15294330000E+03 0.  0.
    8880022    1    1    2    0    0  0.36235110822E+03  0.82419022342E+02  0.65988201491E+03  0.77261060535E+03  0.15294330000E+03 0.  0.
<mgrwt>
<rscale>  0 0.40184932E+03</rscale>
<asrwt>0</asrwt>
<pdfrwt beam="1">  1        2 0.33523416E+00 0.40184932E+03</pdfrwt>
<pdfrwt beam="2">  1       -2 0.12917385E-01 0.40184932E+03</pdfrwt>
<totfact> 0.25608982E+02</totfact>
</mgrwt>
</event>
<event>
 4    1  0.1104584E-007  0.1979038E+03  0.7818608E-02  0.1151520E+00
         -2   -1    0    0    0  501 -0.00000000000E+00  0.00000000000E+00  0.16508951610E+03  0.16508951612E+03  0.25500000000E-02 0.  1.
          2   -1    0    0  501    0  0.00000000000E+00 -0.00000000000E+00 -0.84659842141E+03  0.84659842142E+03  0.25500000000E-02 0. -1.
    8880022    1    1    2    0    0 -0.21205491827E+02 -0.12379251339E+03 -0.76990937176E+03  0.79493795544E+03  0.15294330000E+03 0.  0.
    8880022    1    1    2    0    0  0.21205491827E+02  0.12379251339E+03  0.88400466446E+02  0.21674998209E+03  0.15294330000E+03 0.  1.
<mgrwt>
<rscale>  0 0.19790380E+03</rscale>
<asrwt>0</asrwt>
<pdfrwt beam="1">  1        2 0.13024591E+00 0.19790380E+03</pdfrwt>
<pdfrwt beam="2">  1       -2 0.25398388E-01 0.19790380E+03</pdfrwt>
<totfact> 0.46107628E+02</totfact>
</mgrwt>
</event>
<event>
 4    1  0.1104584E-007  0.6836297E+03  0.7818608E-02  0.9745644E-01
          2   -1    0    0  501    0  0.00000000000E+00  0.00000000000E+00  0.13537025386E+04  0.13537025386E+04  0.25500000000E-02 0. -1.
         -2   -1    0    0    0  501 -0.00000000000E+00 -0.00000000000E+00 -0.99201491165E+03  0.99201491165E+03  0.25500000000E-02 0.  1.
    8880022    1    1    2    0    0  0.65563858404E+03  0.11872660024E+03  0.11278740460E+04  0.13188819034E+04  0.15294330000E+03 0.  0.
    8880022    1    1    2    0    0 -0.65563858404E+03 -0.11872660024E+03 -0.76618641907E+03  0.10268355468E+04  0.15294330000E+03 0.  0.
<mgrwt>
<rscale>  0 0.68362973E+03</rscale>
<asrwt>0</asrwt>
<pdfrwt beam="1">  1        2 0.20826193E+00 0.68362973E+03</pdfrwt>
<pdfrwt beam="2">  1       -2 0.15261768E+00 0.68362973E+03</pdfrwt>
<totfact> 0.45555047E+00</totfact>
</mgrwt>
</event>
<event>
 4    1  0.1104584E-007  0.1714106E+03  0.7818608E-02  0.1176385E+00
         -2   -1    0    0    0  501 -0.00000000000E+00  0.00000000000E+00  0.11367995310E+03  0.11367995313E+03  0.25500000000E-02 0.  1.
          2   -1    0    0  501    0  0.00000000000E+00 -0.00000000000E+00 -0.12494371562E+04  0.12494371562E+04  0.25500000000E-02 0. -1.
    8880022    1    1    2    0    0 -0.31350575935E+02 -0.70760781191E+02  0.39106483273E+02  0.17581500737E+03  0.15294330000E+03 0.  1.
    8880022    1    1    2    0    0  0.31350575935E+02  0.70760781191E+02 -0.11748636864E+04  0.11873021020E+04  0.15294330000E+03 0.  0.
<mgrwt>
<rscale>  0 0.17141062E+03</rscale>
<asrwt>0</asrwt>
<pdfrwt beam="1">  1        2 0.19222109E+00 0.17141062E+03</pdfrwt>
<pdfrwt beam="2">  1       -2 0.17489224E-01 0.17141062E+03</pdfrwt>
<totfact> 0.50438465E+02</totfact>
</mgrwt>
</event>
<event>
 4    1  0.1104584E-007  0.3550354E+03  0.7818608E-02  0.1060567E+00
         -2   -1    0    0    0  501 -0.00000000000E+00  0.00000000000E+00  0.14679191595E+03  0.14679191597E+03  0.25500000000E-02 0.  1.
          2   -1    0    0  501    0  0.00000000000E+00 -0.00000000000E+00 -0.12028444865E+04  0.12028444865E+04  0.25500000000E-02 0. -1.
    8880022    1    1    2    0    0  0.26530795260E+03  0.17963907250E+03 -0.16707157854E+03  0.39238128326E+03  0.15294330000E+03 0.  0.
    8880022    1    1    2    0    0 -0.26530795260E+03 -0.17963907250E+03 -0.88898099203E+03  0.95725511923E+03  0.15294330000E+03 0.  0.
<mgrwt>
<rscale>  0 0.35503543E+03</rscale>
<asrwt>0</asrwt>
<pdfrwt beam="1">  1        2 0.18505299E+00 0.35503543E+03</pdfrwt>
<pdfrwt beam="2">  1       -2 0.22583373E-01 0.35503543E+03</pdfrwt>
<totfact> 0.33760453E+02</totfact>
</mgrwt>
</event>
<event>
 4    1  0.1104584E-007  0.1706650E+03  0.7818608E-02  0.1177156E+00
          2   -1    0    0  501    0  0.00000000000E+00  0.00000000000E+00  0.18023226033E+03  0.18023226035E+03  0.25500000000E-02 0. -1.
         -2   -1    0    0    0  501 -0.00000000000E+00 -0.00000000000E+00 -0.11846216607E+04  0.11846216607E+04  0.25500000000E-02 0.  1.
    8880022    1    1    2    0    0  0.24802839198E+02  0.71552120662E+02  0.13197804085E+03  0.21574230713E+03  0.15294330000E+03 0.  0.
    8880022    1    1    2    0    0 -0.24802839198E+02 -0.71552120662E+02 -0.11363674413E+04  0.11491116140E+04  0.15294330000E+03 0.  1.
<mgrwt>
<rscale>  0 0.17066499E+03</rscale>
<asrwt>0</asrwt>
<pdfrwt beam="1">  1        2 0.27728041E-01 0.17066499E+03</pdfrwt>
<pdfrwt beam="2">  1       -2 0.18224948E+00 0.17066499E+03</pdfrwt>
<totfact> 0.36917664E+01</totfact>
</mgrwt>
</event>
<event>
 4    1  0.1104584E-007  0.5171147E+03  0.7818608E-02  0.1009406E+00
          2   -1    0    0  501    0  0.00000000000E+00  0.00000000000E+00  0.26563276313E+04  0.26563276313E+04  0.25500000000E-02 0. -1.
         -2   -1    0    0    0  501 -0.00000000000E+00 -0.00000000000E+00 -0.30936947988E+03  0.30936947989E+03  0.25500000000E-02 0.  1.
    8880022    1    1    2    0    0  0.21061615276E+03  0.44682972485E+03 -0.44446248579E+02  0.51902127976E+03  0.15294330000E+03 0.  0.
    8880022    1    1    2    0    0 -0.21061615276E+03 -0.44682972485E+03  0.23914044000E+04  0.24466758315E+04  0.15294330000E+03 0.  0.
<mgrwt>
<rscale>  0 0.51711471E+03</rscale>
<asrwt>0</asrwt>
<pdfrwt beam="1">  1        2 0.40866579E+00 0.51711471E+03</pdfrwt>
<pdfrwt beam="2">  1       -2 0.47595305E-01 0.51711471E+03</pdfrwt>
<totfact> 0.13003077E+01</totfact>
</mgrwt>
</event>
<event>
 4    1  0.1104584E-007  0.4621151E+03  0.7818608E-02  0.1024170E+00
          2   -1    0    0  501    0  0.00000000000E+00  0.00000000000E+00  0.96566694721E+03  0.96566694722E+03  0.25500000000E-02 0. -1.
         -2   -1    0    0    0  501 -0.00000000000E+00 -0.00000000000E+00 -0.55120310904E+03  0.55120310904E+03  0.25500000000E-02 0.  1.
    8880022    1    1    2    0    0  0.98197154599E+02  0.42487174657E+03 -0.37966141284E+03  0.59807451343E+03  0.15294330000E+03 0.  0.
    8880022    1    1    2    0    0 -0.98197154599E+02 -0.42487174657E+03  0.79412525102E+03  0.91879554283E+03  0.15294330000E+03 0.  0.
<mgrwt>
<rscale>  0 0.46211507E+03</rscale>
<asrwt>0</asrwt>
<pdfrwt beam="1">  1        2 0.14856414E+00 0.46211507E+03</pdfrwt>
<pdfrwt beam="2">  1       -2 0.84800480E-01 0.46211507E+03</pdfrwt>
<totfact> 0.33753330E+01</totfact>
</mgrwt>
</event>
<event>
 4    1  0.1104584E-007  0.5591477E+03  0.7818608E-02  0.9993985E-01
          2   -1    0    0  501    0  0.00000000000E+00  0.00000000000E+00  0.25575097035E+04  0.25575097035E+04  0.25500000000E-02 0. -1.
         -2   -1    0    0    0  501 -0.00000000000E+00 -0.00000000000E+00 -0.61106315087E+03  0.61106315087E+03  0.25500000000E-02 0.  1.
    8880022    1    1    2    0    0  0.29183239533E+03  0.45176134610E+03 -0.44375677367E+03  0.71383904908E+03  0.15294330000E+03 0.  0.
    8880022    1    1    2    0    0 -0.29183239533E+03 -0.45176134610E+03  0.23902033263E+04  0.24547338053E+04  0.15294330000E+03 0.  0.
<mgrwt>
<rscale>  0 0.55914767E+03</rscale>
<asrwt>0</asrwt>
<pdfrwt beam="1">  1        2 0.39346303E+00 0.55914767E+03</pdfrwt>
<pdfrwt beam="2">  1       -2 0.94009716E-01 0.55914767E+03</pdfrwt>
<totfact> 0.33779217E+00</totfact>
</mgrwt>
</event>
<event>
 4    1  0.1104584E-007  0.1970999E+03  0.7818608E-02  0.1152209E+00
          2   -1    0    0  501    0  0.00000000000E+00  0.00000000000E+00  0.25558901690E+04  0.25558901690E+04  0.25500000000E-02 0. -1.
         -2   -1    0    0    0  501 -0.00000000000E+00 -0.00000000000E+00 -0.89459123707E+02  0.89459123744E+02  0.25500000000E-02 0.  1.
    8880022    1    1    2    0    0 -0.62062298368E+02 -0.10772636533E+03  0.24382985444E+04  0.24462518561E+04  0.15294330000E+03 0. -1.
    8880022    1    1    2    0    0  0.62062298368E+02  0.10772636533E+03  0.28132500876E+02  0.19909743666E+03  0.15294330000E+03 0.  0.
<mgrwt>
<rscale>  0 0.19709985E+03</rscale>
<asrwt>0</asrwt>
<pdfrwt beam="1">  1        2 0.39321390E+00 0.19709985E+03</pdfrwt>
<pdfrwt beam="2">  1       -2 0.13762941E-01 0.19709985E+03</pdfrwt>
<totfact> 0.15218033E+02</totfact>
</mgrwt>
</event>
<event>
 4    1  0.1104584E-007  0.5363350E+03  0.7818608E-02  0.1004707E+00
          2   -1    0    0  501    0  0.00000000000E+00  0.00000000000E+00  0.13318344646E+04  0.13318344646E+04  0.25500000000E-02 0. -1.
         -2   -1    0    0    0  501 -0.00000000000E+00 -0.00000000000E+00 -0.43659229542E+03  0.43659229542E+03  0.25500000000E-02 0.  1.
    8880022    1    1    2    0    0  0.36084303504E+03 -0.36613641630E+03  0.10761565013E+04  0.12024009480E+04  0.15294330000E+03 0. -1.
    8880022    1    1    2    0    0 -0.36084303504E+03  0.36613641630E+03 -0.18091433219E+03  0.56602581203E+03  0.15294330000E+03 0.  0.
<mgrwt>
<rscale>  0 0.53633499E+03</rscale>
<asrwt>0</asrwt>
<pdfrwt beam="1">  1        2 0.20489761E+00 0.53633499E+03</pdfrwt>
<pdfrwt beam="2">  1       -2 0.67168045E-01 0.53633499E+03</pdfrwt>
<totfact> 0.33774966E+01</totfact>
</mgrwt>
</event>
<event>
 4    1  0.1104584E-007  0.9152925E+03  0.7818608E-02  0.9406664E-01
          2   -1    0    0  501    0  0.00000000000E+00  0.00000000000E+00  0.29988647889E+04  0.29988647890E+04  0.25500000000E-02 0. -1.
         -2   -1    0    0    0  501 -0.00000000000E+00 -0.00000000000E+00 -0.39997692164E+03  0.39997692165E+03  0.25500000000E-02 0.  1.
    8880022    1    1    2    0    0 -0.85489703281E+03 -0.28899788242E+03  0.22326748092E+04  0.24130058370E+04  0.15294330000E+03 0.  0.
    8880022    1    1    2    0    0  0.85489703281E+03  0.28899788242E+03  0.36621305813E+03  0.98583587362E+03  0.15294330000E+03 0.  0.
<mgrwt>
<rscale>  0 0.91529250E+03</rscale>
<asrwt>0</asrwt>
<pdfrwt beam="1">  1        2 0.46136381E+00 0.91529250E+03</pdfrwt>
<pdfrwt beam="2">  1       -2 0.61534911E-01 0.91529250E+03</pdfrwt>
<totfact> 0.44341910E+00</totfact>
</mgrwt>
</event>
<event>
 4    1  0.1104584E-007  0.5927796E+03  0.7818608E-02  0.9920500E-01
          2   -1    0    0  501    0  0.00000000000E+00  0.00000000000E+00  0.28572547870E+03  0.28572547871E+03  0.25500000000E-02 0. -1.
         -2   -1    0    0    0  501 -0.00000000000E+00 -0.00000000000E+00 -0.19923986631E+04  0.19923986631E+04  0.25500000000E-02 0.  1.
    8880022    1    1    2    0    0 -0.57190500806E+03  0.30342086765E+02 -0.14863564009E+03  0.61113025370E+03  0.15294330000E+03 0. -1.
    8880022    1    1    2    0    0  0.57190500806E+03 -0.30342086765E+02 -0.15580375443E+04  0.16669938881E+04  0.15294330000E+03 0.  0.
<mgrwt>
<rscale>  0 0.59277958E+03</rscale>
<asrwt>0</asrwt>
<pdfrwt beam="1">  1        2 0.43957767E-01 0.59277958E+03</pdfrwt>
<pdfrwt beam="2">  1       -2 0.30652286E+00 0.59277958E+03</pdfrwt>
<totfact> 0.35846058E+00</totfact>
</mgrwt>
</event>
<event>
 4    1  0.1104584E-007  0.1113571E+04  0.7818608E-02  0.9192065E-01
         -2   -1    0    0    0  501 -0.00000000000E+00  0.00000000000E+00  0.15826156218E+04  0.15826156218E+04  0.25500000000E-02 0.  1.
          2   -1    0    0  501    0  0.00000000000E+00 -0.00000000000E+00 -0.16040333521E+04  0.16040333521E+04  0.25500000000E-02 0. -1.
    8880022    1    1    2    0    0  0.10840279775E+04  0.20379257825E+03  0.11288468281E+04  0.15856654393E+04  0.15294330000E+03 0.  0.
    8880022    1    1    2    0    0 -0.10840279775E+04 -0.20379257825E+03 -0.11502645584E+04  0.16009835347E+04  0.15294330000E+03 0.  0.
<mgrwt>
<rscale>  0 0.11135707E+04</rscale>
<asrwt>0</asrwt>
<pdfrwt beam="1">  1        2 0.24677436E+00 0.11135707E+04</pdfrwt>
<pdfrwt beam="2">  1       -2 0.24347933E+00 0.11135707E+04</pdfrwt>
<totfact> 0.76816916E-01</totfact>
</mgrwt>
</event>
<event>
 4    1  0.1104584E-007  0.4706696E+03  0.7818608E-02  0.1021731E+00
         -2   -1    0    0    0  501 -0.00000000000E+00  0.00000000000E+00  0.64290248538E+03  0.64290248539E+03  0.25500000000E-02 0.  1.
          2   -1    0    0  501    0  0.00000000000E+00 -0.00000000000E+00 -0.64743833666E+03  0.64743833667E+03  0.25500000000E-02 0. -1.
    8880022    1    1    2    0    0 -0.39734358136E+03 -0.20063969407E+03  0.43899419636E+03  0.64361927095E+03  0.15294330000E+03 0.  0.
    8880022    1    1    2    0    0  0.39734358136E+03  0.20063969407E+03 -0.44353004764E+03  0.64672155110E+03  0.15294330000E+03 0.  0.
<mgrwt>
<rscale>  0 0.47066959E+03</rscale>
<asrwt>0</asrwt>
<pdfrwt beam="1">  1        2 0.99605898E-01 0.47066959E+03</pdfrwt>
<pdfrwt beam="2">  1       -2 0.98908075E-01 0.47066959E+03</pdfrwt>
<totfact> 0.39860065E+01</totfact>
</mgrwt>
</event>
<event>
 4    1  0.1104584E-007  0.1195931E+04  0.7818608E-02  0.9116425E-01
          2   -1    0    0  501    0  0.00000000000E+00  0.00000000000E+00  0.39576246641E+04  0.39576246641E+04  0.25500000000E-02 0. -1.
         -2   -1    0    0    0  501 -0.00000000000E+00 -0.00000000000E+00 -0.41614401715E+03  0.41614401715E+03  0.25500000000E-02 0.  1.
    8880022    1    1    2    0    0  0.35817066614E+03 -0.11307401631E+04  0.97749640390E+03  0.15445874580E+04  0.15294330000E+03 0.  0.
    8880022    1    1    2    0    0 -0.35817066614E+03  0.11307401631E+04  0.25639842431E+04  0.28291812233E+04  0.15294330000E+03 0.  0.
<mgrwt>
<rscale>  0 0.11959311E+04</rscale>
<asrwt>0</asrwt>
<pdfrwt beam="1">  1        2 0.60886531E+00 0.11959311E+04</pdfrwt>
<pdfrwt beam="2">  1       -2 0.64022159E-01 0.11959311E+04</pdfrwt>
<totfact> 0.85011467E-01</totfact>
</mgrwt>
</event>
<event>
 4    1  0.1104584E-007  0.5301010E+03  0.7818608E-02  0.1006208E+00
          2   -1    0    0  501    0  0.00000000000E+00  0.00000000000E+00  0.34591367347E+04  0.34591367347E+04  0.25500000000E-02 0. -1.
         -2   -1    0    0    0  501 -0.00000000000E+00 -0.00000000000E+00 -0.29547983912E+03  0.29547983913E+03  0.25500000000E-02 0.  1.
    8880022    1    1    2    0    0  0.48258001827E+03  0.15726386993E+03  0.31803763674E+04  0.32242519893E+04  0.15294330000E+03 0.  0.
    8880022    1    1    2    0    0 -0.48258001827E+03 -0.15726386993E+03 -0.16719471835E+02  0.53036458458E+03  0.15294330000E+03 0.  0.
<mgrwt>
<rscale>  0 0.53010098E+03</rscale>
<asrwt>0</asrwt>
<pdfrwt beam="1">  1        2 0.53217485E+00 0.53010098E+03</pdfrwt>
<pdfrwt beam="2">  1       -2 0.45458440E-01 0.53010098E+03</pdfrwt>
<totfact> 0.45578533E+00</totfact>
</mgrwt>
</event>
<event>
 4    1  0.1104584E-007  0.8633467E+03  0.7818608E-02  0.9472596E-01
          2   -1    0    0  501    0  0.00000000000E+00  0.00000000000E+00  0.23111805751E+04  0.23111805751E+04  0.25500000000E-02 0. -1.
         -2   -1    0    0    0  501 -0.00000000000E+00 -0.00000000000E+00 -0.34621948482E+03  0.34621948483E+03  0.25500000000E-02 0.  1.
    8880022    1    1    2    0    0 -0.69355693268E+03  0.49087139420E+03  0.13302222878E+04  0.15858306759E+04  0.15294330000E+03 0.  0.
    8880022    1    1    2    0    0  0.69355693268E+03 -0.49087139420E+03  0.63473880250E+03  0.10715693841E+04  0.15294330000E+03 0.  0.
<mgrwt>
<rscale>  0 0.86334674E+03</rscale>
<asrwt>0</asrwt>
<pdfrwt beam="1">  1        2 0.35556626E+00 0.86334674E+03</pdfrwt>
<pdfrwt beam="2">  1       -2 0.53264534E-01 0.86334674E+03</pdfrwt>
<totfact> 0.15224821E+01</totfact>
</mgrwt>
</event>
<event>
 4    1  0.1104584E-007  0.1092557E+04  0.7818608E-02  0.9212477E-01
         -2   -1    0    0    0  501 -0.00000000000E+00  0.00000000000E+00  0.58957937730E+03  0.58957937731E+03  0.25500000000E-02 0.  1.
          2   -1    0    0  501    0  0.00000000000E+00 -0.00000000000E+00 -0.30493515856E+04  0.30493515856E+04  0.25500000000E-02 0. -1.
    8880022    1    1    2    0    0 -0.98453469039E+03  0.44830874475E+03 -0.22846195278E+04  0.25324232125E+04  0.15294330000E+03 0.  0.
    8880022    1    1    2    0    0  0.98453469039E+03 -0.44830874475E+03 -0.17515268045E+03  0.11065077504E+04  0.15294330000E+03 0.  0.
<mgrwt>
<rscale>  0 0.10925571E+04</rscale>
<asrwt>0</asrwt>
<pdfrwt beam="1">  1        2 0.46913100E+00 0.10925571E+04</pdfrwt>
<pdfrwt beam="2">  1       -2 0.90704522E-01 0.10925571E+04</pdfrwt>
<totfact> 0.16947608E+00</totfact>
</mgrwt>
</event>
<event>
 4    1  0.1104584E-007  0.5992015E+03  0.7818608E-02  0.9907064E-01
         -2   -1    0    0    0  501 -0.00000000000E+00  0.00000000000E+00  0.40538077962E+03  0.40538077963E+03  0.25500000000E-02 0.  1.
          2   -1    0    0  501    0  0.00000000000E+00 -0.00000000000E+00 -0.14847239727E+04  0.14847239727E+04  0.25500000000E-02 0. -1.
    8880022    1    1    2    0    0  0.54312865396E+03  0.20164819118E+03  0.60614297593E+02  0.60225947385E+03  0.15294330000E+03 0.  1.
    8880022    1    1    2    0    0 -0.54312865396E+03 -0.20164819118E+03 -0.11399574907E+04  0.12878452785E+04  0.15294330000E+03 0. -1.
<mgrwt>
<rscale>  0 0.59920145E+03</rscale>
<asrwt>0</asrwt>
<pdfrwt beam="1">  1        2 0.22841907E+00 0.59920145E+03</pdfrwt>
<pdfrwt beam="2">  1       -2 0.62366274E-01 0.59920145E+03</pdfrwt>
<totfact> 0.32205351E+01</totfact>
</mgrwt>
</event>
<event>
 4    1  0.1104584E-007  0.5861077E+03  0.7818608E-02  0.9934655E-01
         -2   -1    0    0    0  501 -0.00000000000E+00  0.00000000000E+00  0.15794565040E+04  0.15794565040E+04  0.25500000000E-02 0.  1.
          2   -1    0    0  501    0  0.00000000000E+00 -0.00000000000E+00 -0.22543147030E+03  0.22543147031E+03  0.25500000000E-02 0. -1.
    8880022    1    1    2    0    0  0.56130822699E+03  0.71159527975E+02  0.50767429062E+03  0.77540663041E+03  0.15294330000E+03 0.  0.
    8880022    1    1    2    0    0 -0.56130822699E+03 -0.71159527975E+02  0.84635074304E+03  0.10294813439E+04  0.15294330000E+03 0.  0.
<mgrwt>
<rscale>  0 0.58610772E+03</rscale>
<asrwt>0</asrwt>
<pdfrwt beam="1">  1        2 0.34681763E-01 0.58610772E+03</pdfrwt>
<pdfrwt beam="2">  1       -2 0.24299332E+00 0.58610772E+03</pdfrwt>
<totfact> 0.11198758E+01</totfact>
</mgrwt>
</event>
<event>
 4    1  0.1104584E-007  0.2787487E+03  0.7818608E-02  0.1096374E+00
         -2   -1    0    0    0  501 -0.00000000000E+00  0.00000000000E+00  0.18382926803E+03  0.18382926805E+03  0.25500000000E-02 0.  1.
          2   -1    0    0  501    0  0.00000000000E+00 -0.00000000000E+00 -0.36169888056E+04  0.36169888056E+04  0.25500000000E-02 0. -1.
    8880022    1    1    2    0    0 -0.11425273614E+02  0.23276312335E+03 -0.35024997181E+04  0.35135744103E+04  0.15294330000E+03 0.  0.
    8880022    1    1    2    0    0  0.11425273614E+02 -0.23276312335E+03  0.69340180545E+02  0.28724366333E+03  0.15294330000E+03 0.  1.
<mgrwt>
<rscale>  0 0.27874874E+03</rscale>
<asrwt>0</asrwt>
<pdfrwt beam="1">  1        2 0.55645977E+00 0.27874874E+03</pdfrwt>
<pdfrwt beam="2">  1       -2 0.28281428E-01 0.27874874E+03</pdfrwt>
<totfact> 0.96964838E+00</totfact>
</mgrwt>
</event>
<event>
 4    1  0.1104584E-007  0.5929109E+03  0.7818608E-02  0.9920224E-01
          2   -1    0    0  501    0  0.00000000000E+00  0.00000000000E+00  0.18708877013E+04  0.18708877013E+04  0.25500000000E-02 0. -1.
         -2   -1    0    0    0  501 -0.00000000000E+00 -0.00000000000E+00 -0.38006661683E+03  0.38006661683E+03  0.25500000000E-02 0.  1.
    8880022    1    1    2    0    0 -0.21570052951E+03  0.53068348760E+03 -0.54872582804E+02  0.59544465385E+03  0.15294330000E+03 0.  0.
    8880022    1    1    2    0    0  0.21570052951E+03 -0.53068348760E+03  0.15456936672E+04  0.16555096642E+04  0.15294330000E+03 0.  0.
<mgrwt>
<rscale>  0 0.59291090E+03</rscale>
<asrwt>0</asrwt>
<pdfrwt beam="1">  1        2 0.28782888E+00 0.59291090E+03</pdfrwt>
<pdfrwt beam="2">  1       -2 0.58471786E-01 0.59291090E+03</pdfrwt>
<totfact> 0.22748881E+01</totfact>
</mgrwt>
</event>
<event>
 4    1  0.1104584E-007  0.4510863E+03  0.7818608E-02  0.1027399E+00
          2   -1    0    0  501    0  0.00000000000E+00  0.00000000000E+00  0.12610700967E+04  0.12610700967E+04  0.25500000000E-02 0. -1.
         -2   -1    0    0    0  501 -0.00000000000E+00 -0.00000000000E+00 -0.22056172576E+03  0.22056172577E+03  0.25500000000E-02 0.  1.
    8880022    1    1    2    0    0  0.31549496727E+03  0.28381356170E+03  0.13642857609E+03  0.47126597752E+03  0.15294330000E+03 0.  0.
    8880022    1    1    2    0    0 -0.31549496727E+03 -0.28381356170E+03  0.90407979488E+03  0.10103658450E+04  0.15294330000E+03 0.  0.
<mgrwt>
<rscale>  0 0.45108632E+03</rscale>
<asrwt>0</asrwt>
<pdfrwt beam="1">  1        2 0.19401078E+00 0.45108632E+03</pdfrwt>
<pdfrwt beam="2">  1       -2 0.33932573E-01 0.45108632E+03</pdfrwt>
<totfact> 0.14768410E+02</totfact>
</mgrwt>
</event>
<event>
 4    1  0.1104584E-007  0.9487013E+03  0.7818608E-02  0.9366670E-01
         -2   -1    0    0    0  501 -0.00000000000E+00  0.00000000000E+00  0.39250742730E+03  0.39250742731E+03  0.25500000000E-02 0.  1.
          2   -1    0    0  501    0  0.00000000000E+00 -0.00000000000E+00 -0.34415395330E+04  0.34415395330E+04  0.25500000000E-02 0. -1.
    8880022    1    1    2    0    0  0.71472172192E+03 -0.60482667541E+03 -0.41708420940E+03  0.10363364984E+04  0.15294330000E+03 0.  0.
    8880022    1    1    2    0    0 -0.71472172192E+03  0.60482667541E+03 -0.26319478963E+04  0.27977104619E+04  0.15294330000E+03 0.  0.
<mgrwt>
<rscale>  0 0.94870127E+03</rscale>
<asrwt>0</asrwt>
<pdfrwt beam="1">  1        2 0.52946760E+00 0.94870127E+03</pdfrwt>
<pdfrwt beam="2">  1       -2 0.60385760E-01 0.94870127E+03</pdfrwt>
<totfact> 0.23808909E+00</totfact>
</mgrwt>
</event>
<event>
 4    1  0.1104584E-007  0.1908098E+03  0.7818608E-02  0.1157733E+00
         -2   -1    0    0    0  501 -0.00000000000E+00  0.00000000000E+00  0.93569756138E+02  0.93569756172E+02  0.25500000000E-02 0.  1.
          2   -1    0    0  501    0  0.00000000000E+00 -0.00000000000E+00 -0.15603790432E+04  0.15603790432E+04  0.25500000000E-02 0. -1.
    8880022    1    1    2    0    0 -0.90065134808E+02  0.70035713057E+02 -0.14498885236E+04  0.14623902056E+04  0.15294330000E+03 0.  0.
    8880022    1    1    2    0    0  0.90065134808E+02 -0.70035713057E+02 -0.16920763524E+02  0.19155859382E+03  0.15294330000E+03 0.  1.
<mgrwt>
<rscale>  0 0.19080981E+03</rscale>
<asrwt>0</asrwt>
<pdfrwt beam="1">  1        2 0.24005829E+00 0.19080981E+03</pdfrwt>
<pdfrwt beam="2">  1       -2 0.14395348E-01 0.19080981E+03</pdfrwt>
<totfact> 0.47265248E+02</totfact>
</mgrwt>
</event>
<event>
 4    1  0.1104584E-007  0.3871068E+03  0.7818608E-02  0.1048338E+00
          2   -1    0    0  501    0  0.00000000000E+00  0.00000000000E+00  0.65877160360E+03  0.65877160361E+03  0.25500000000E-02 0. -1.
         -2   -1    0    0    0  501 -0.00000000000E+00 -0.00000000000E+00 -0.75223983388E+03  0.75223983389E+03  0.25500000000E-02 0.  1.
    8880022    1    1    2    0    0  0.35142123936E+03 -0.54434833945E+02 -0.63599312419E+03  0.74453941847E+03  0.15294330000E+03 0.  0.
    8880022    1    1    2    0    0 -0.35142123936E+03  0.54434833945E+02  0.54252489391E+03  0.66647201903E+03  0.15294330000E+03 0.  0.
<mgrwt>
<rscale>  0 0.38710682E+03</rscale>
<asrwt>0</asrwt>
<pdfrwt beam="1">  1        2 0.10134948E+00 0.38710682E+03</pdfrwt>
<pdfrwt beam="2">  1       -2 0.11572920E+00 0.38710682E+03</pdfrwt>
<totfact> 0.27152700E+01</totfact>
</mgrwt>
</event>
<event>
 4    1  0.1104584E-007  0.3151755E+03  0.7818608E-02  0.1077891E+00
         -2   -1    0    0    0  501 -0.00000000000E+00  0.00000000000E+00  0.14171136667E+03  0.14171136669E+03  0.25500000000E-02 0.  1.
          2   -1    0    0  501    0  0.00000000000E+00 -0.00000000000E+00 -0.18605345923E+04  0.18605345923E+04  0.25500000000E-02 0. -1.
    8880022    1    1    2    0    0 -0.85137056704E+02 -0.26209847795E+03 -0.69068254825E+02  0.32265462558E+03  0.15294330000E+03 0.  0.
    8880022    1    1    2    0    0  0.85137056704E+02  0.26209847795E+03 -0.16497549708E+04  0.16795913334E+04  0.15294330000E+03 0.  0.
<mgrwt>
<rscale>  0 0.31517548E+03</rscale>
<asrwt>0</asrwt>
<pdfrwt beam="1">  1        2 0.28623607E+00 0.31517548E+03</pdfrwt>
<pdfrwt beam="2">  1       -2 0.21801750E-01 0.31517548E+03</pdfrwt>
<totfact> 0.15875111E+02</totfact>
</mgrwt>
</event>
<event>
 4    1  0.1104584E-007  0.2490993E+03  0.7818608E-02  0.1113875E+00
          2   -1    0    0  501    0  0.00000000000E+00  0.00000000000E+00  0.16660078154E+04  0.16660078154E+04  0.25500000000E-02 0. -1.
         -2   -1    0    0    0  501 -0.00000000000E+00 -0.00000000000E+00 -0.47495605542E+02  0.47495605611E+02  0.25500000000E-02 0.  1.
    8880022    1    1    2    0    0 -0.16088763819E+03  0.11302212603E+03  0.41123810882E+03  0.48079857348E+03  0.15294330000E+03 0.  1.
    8880022    1    1    2    0    0  0.16088763819E+03 -0.11302212603E+03  0.12072741011E+04  0.12327048476E+04  0.15294330000E+03 0.  0.
<mgrwt>
<rscale>  0 0.24909935E+03</rscale>
<asrwt>0</asrwt>
<pdfrwt beam="1">  1        2 0.25630887E+00 0.24909935E+03</pdfrwt>
<pdfrwt beam="2">  1       -2 0.73070170E-02 0.24909935E+03</pdfrwt>
<totfact> 0.12164302E+03</totfact>
</mgrwt>
</event>
<event>
 4    1  0.1104584E-007  0.4562416E+03  0.7818608E-02  0.1025877E+00
         -2   -1    0    0    0  501 -0.00000000000E+00  0.00000000000E+00  0.20983729879E+03  0.20983729880E+03  0.25500000000E-02 0.  1.
          2   -1    0    0  501    0  0.00000000000E+00 -0.00000000000E+00 -0.17423942182E+04  0.17423942182E+04  0.25500000000E-02 0. -1.
    8880022    1    1    2    0    0  0.12179374640E+03  0.41222696533E+03 -0.14068620828E+04  0.14789920083E+04  0.15294330000E+03 0.  0.
    8880022    1    1    2    0    0 -0.12179374640E+03 -0.41222696533E+03 -0.12569483658E+03  0.47323950867E+03  0.15294330000E+03 0.  0.
<mgrwt>
<rscale>  0 0.45624165E+03</rscale>
<asrwt>0</asrwt>
<pdfrwt beam="1">  1        2 0.26806064E+00 0.45624165E+03</pdfrwt>
<pdfrwt beam="2">  1       -2 0.32282662E-01 0.45624165E+03</pdfrwt>
<totfact> 0.88117746E+01</totfact>
</mgrwt>
</event>
<event>
 4    1  0.1104584E-007  0.1522646E+04  0.7818608E-02  0.8869532E-01
         -2   -1    0    0    0  501 -0.00000000000E+00  0.00000000000E+00  0.11557996035E+04  0.11557996035E+04  0.25500000000E-02 0.  1.
          2   -1    0    0  501    0  0.00000000000E+00 -0.00000000000E+00 -0.28491388244E+04  0.28491388244E+04  0.25500000000E-02 0. -1.
    8880022    1    1    2    0    0  0.15351828626E+03  0.15071467530E+04 -0.19360438833E+04  0.24630705979E+04  0.15294330000E+03 0.  0.
    8880022    1    1    2    0    0 -0.15351828626E+03 -0.15071467530E+04  0.24270466238E+03  0.15418678300E+04  0.15294330000E+03 0.  0.
<mgrwt>
<rscale>  0 0.15226460E+04</rscale>
<asrwt>0</asrwt>
<pdfrwt beam="1">  1        2 0.43832905E+00 0.15226460E+04</pdfrwt>
<pdfrwt beam="2">  1       -2 0.17781533E+00 0.15226460E+04</pdfrwt>
<totfact> 0.38133567E-01</totfact>
</mgrwt>
</event>
<event>
 4    1  0.1104584E-007  0.2440157E+03  0.7818608E-02  0.1117146E+00
          2   -1    0    0  501    0  0.00000000000E+00  0.00000000000E+00  0.52234753118E+03  0.52234753119E+03  0.25500000000E-02 0. -1.
         -2   -1    0    0    0  501 -0.00000000000E+00 -0.00000000000E+00 -0.15573043038E+03  0.15573043041E+03  0.25500000000E-02 0.  1.
    8880022    1    1    2    0    0 -0.13448194665E+03 -0.13441214042E+03  0.77877257876E+01  0.24413995813E+03  0.15294330000E+03 0.  0.
    8880022    1    1    2    0    0  0.13448194665E+03  0.13441214042E+03  0.35882937501E+03  0.43393800347E+03  0.15294330000E+03 0.  0.
<mgrwt>
<rscale>  0 0.24401572E+03</rscale>
<asrwt>0</asrwt>
<pdfrwt beam="1">  1        2 0.80361158E-01 0.24401572E+03</pdfrwt>
<pdfrwt beam="2">  1       -2 0.23958528E-01 0.24401572E+03</pdfrwt>
<totfact> 0.90986843E+02</totfact>
</mgrwt>
</event>
<event>
 4    1  0.1104584E-007  0.8354469E+03  0.7818608E-02  0.9510081E-01
          2   -1    0    0  501    0  0.00000000000E+00  0.00000000000E+00  0.13447001872E+04  0.13447001872E+04  0.25500000000E-02 0. -1.
         -2   -1    0    0    0  501 -0.00000000000E+00 -0.00000000000E+00 -0.12820985476E+04  0.12820985476E+04  0.25500000000E-02 0.  1.
    8880022    1    1    2    0    0  0.74311485973E+03  0.34980011716E+03  0.10445380987E+04  0.13375467504E+04  0.15294330000E+03 0.  0.
    8880022    1    1    2    0    0 -0.74311485973E+03 -0.34980011716E+03 -0.98193645909E+03  0.12892519845E+04  0.15294330000E+03 0.  0.
<mgrwt>
<rscale>  0 0.83544687E+03</rscale>
<asrwt>0</asrwt>
<pdfrwt beam="1">  1        2 0.20687695E+00 0.83544687E+03</pdfrwt>
<pdfrwt beam="2">  1       -2 0.19724593E+00 0.83544687E+03</pdfrwt>
<totfact> 0.21921582E+00</totfact>
</mgrwt>
</event>
<event>
 4    1  0.1104584E-007  0.7240705E+03  0.7818608E-02  0.9676931E-01
          2   -1    0    0  501    0  0.00000000000E+00  0.00000000000E+00  0.35092480995E+04  0.35092480995E+04  0.25500000000E-02 0. -1.
         -2   -1    0    0    0  501 -0.00000000000E+00 -0.00000000000E+00 -0.80317520633E+03  0.80317520633E+03  0.25500000000E-02 0.  1.
    8880022    1    1    2    0    0  0.20704045195E+02 -0.70743044874E+03 -0.59232720958E+03  0.93548365754E+03  0.15294330000E+03 0.  0.
    8880022    1    1    2    0    0 -0.20704045195E+02  0.70743044874E+03  0.32984001028E+04  0.33769396483E+04  0.15294330000E+03 0.  0.
<mgrwt>
<rscale>  0 0.72407054E+03</rscale>
<asrwt>0</asrwt>
<pdfrwt beam="1">  1        2 0.53988432E+00 0.72407054E+03</pdfrwt>
<pdfrwt beam="2">  1       -2 0.12356542E+00 0.72407054E+03</pdfrwt>
<totfact> 0.43370309E-01</totfact>
</mgrwt>
</event>
<event>
 4    1  0.1104584E-007  0.2349336E+03  0.7818608E-02  0.1123215E+00
         -2   -1    0    0    0  501 -0.00000000000E+00  0.00000000000E+00  0.96523803779E+02  0.96523803813E+02  0.25500000000E-02 0.  1.
          2   -1    0    0  501    0  0.00000000000E+00 -0.00000000000E+00 -0.11495125203E+04  0.11495125203E+04  0.25500000000E-02 0. -1.
    8880022    1    1    2    0    0  0.15203418095E+03 -0.93208176140E+02 -0.96816029895E+03  0.99625708216E+03  0.15294330000E+03 0.  0.
    8880022    1    1    2    0    0 -0.15203418095E+03  0.93208176140E+02 -0.84828417588E+02  0.24977924197E+03  0.15294330000E+03 0.  1.
<mgrwt>
<rscale>  0 0.23493363E+03</rscale>
<asrwt>0</asrwt>
<pdfrwt beam="1">  1        2 0.17684807E+00 0.23493363E+03</pdfrwt>
<pdfrwt beam="2">  1       -2 0.14849817E-01 0.23493363E+03</pdfrwt>
<totfact> 0.74819307E+02</totfact>
</mgrwt>
</event>
<event>
 4    1  0.1104584E-007  0.3268349E+03  0.7818608E-02  0.1072546E+00
          2   -1    0    0  501    0  0.00000000000E+00  0.00000000000E+00  0.10234008125E+04  0.10234008125E+04  0.25500000000E-02 0. -1.
         -2   -1    0    0    0  501 -0.00000000000E+00 -0.00000000000E+00 -0.29447274622E+03  0.29447274623E+03  0.25500000000E-02 0.  1.
    8880022    1    1    2    0    0  0.26857551797E+03 -0.10628548305E+03  0.89389050743E+03  0.95176746374E+03  0.15294330000E+03 0.  0.
    8880022    1    1    2    0    0 -0.26857551797E+03  0.10628548305E+03 -0.16496244117E+03  0.36610609497E+03  0.15294330000E+03 0.  0.
<mgrwt>
<rscale>  0 0.32683492E+03</rscale>
<asrwt>0</asrwt>
<pdfrwt beam="1">  1        2 0.15744628E+00 0.32683492E+03</pdfrwt>
<pdfrwt beam="2">  1       -2 0.45303500E-01 0.32683492E+03</pdfrwt>
<totfact> 0.11903517E+02</totfact>
</mgrwt>
</event>
<event>
 4    1  0.1104584E-007  0.4310586E+03  0.7818608E-02  0.1033526E+00
         -2   -1    0    0    0  501 -0.00000000000E+00  0.00000000000E+00  0.44116780058E+03  0.44116780058E+03  0.25500000000E-02 0.  1.
          2   -1    0    0  501    0  0.00000000000E+00 -0.00000000000E+00 -0.16323522625E+04  0.16323522625E+04  0.25500000000E-02 0. -1.
    8880022    1    1    2    0    0 -0.33984724623E+03  0.21661890966E+03  0.29745423833E+03  0.52372758159E+03  0.15294330000E+03 0.  0.
    8880022    1    1    2    0    0  0.33984724623E+03 -0.21661890966E+03 -0.14886387003E+04  0.15497924815E+04  0.15294330000E+03 0.  0.
<mgrwt>
<rscale>  0 0.43105865E+03</rscale>
<asrwt>0</asrwt>
<pdfrwt beam="1">  1        2 0.25113112E+00 0.43105865E+03</pdfrwt>
<pdfrwt beam="2">  1       -2 0.67871970E-01 0.43105865E+03</pdfrwt>
<totfact> 0.23001945E+01</totfact>
</mgrwt>
</event>
<event>
 4    1  0.1104584E-007  0.3373016E+03  0.7818608E-02  0.1067951E+00
          2   -1    0    0  501    0  0.00000000000E+00  0.00000000000E+00  0.91213025276E+03  0.91213025276E+03  0.25500000000E-02 0. -1.
         -2   -1    0    0    0  501 -0.00000000000E+00 -0.00000000000E+00 -0.13724171169E+03  0.13724171172E+03  0.25500000000E-02 0.  1.
    8880022    1    1    2    0    0  0.21328053769E+03 -0.21187762318E+03  0.22903892832E+03  0.40771460443E+03  0.15294330000E+03 0.  0.
    8880022    1    1    2    0    0 -0.21328053769E+03  0.21187762318E+03  0.54584961274E+03  0.64165736005E+03  0.15294330000E+03 0.  0.
<mgrwt>
<rscale>  0 0.33730160E+03</rscale>
<asrwt>0</asrwt>
<pdfrwt beam="1">  1        2 0.14032773E+00 0.33730160E+03</pdfrwt>
<pdfrwt beam="2">  1       -2 0.21114109E-01 0.33730160E+03</pdfrwt>
<totfact> 0.57110617E+02</totfact>
</mgrwt>
</event>
<event>
 4    1  0.1104584E-007  0.5816423E+03  0.7818608E-02  0.9944242E-01
         -2   -1    0    0    0  501 -0.00000000000E+00  0.00000000000E+00  0.45769521984E+03  0.45769521985E+03  0.25500000000E-02 0.  1.
          2   -1    0    0  501    0  0.00000000000E+00 -0.00000000000E+00 -0.32949842116E+04  0.32949842116E+04  0.25500000000E-02 0. -1.
    8880022    1    1    2    0    0  0.30637854509E+03 -0.47015775502E+03  0.23389064692E+03  0.62690718231E+03  0.15294330000E+03 0.  1.
    8880022    1    1    2    0    0 -0.30637854509E+03  0.47015775502E+03 -0.30711796386E+04  0.31257722491E+04  0.15294330000E+03 0.  0.
<mgrwt>
<rscale>  0 0.58164231E+03</rscale>
<asrwt>0</asrwt>
<pdfrwt beam="1">  1        2 0.50692063E+00 0.58164231E+03</pdfrwt>
<pdfrwt beam="2">  1       -2 0.70414651E-01 0.58164231E+03</pdfrwt>
<totfact> 0.23166303E+00</totfact>
</mgrwt>
</event>
<event>
 4    1  0.1104584E-007  0.4449180E+03  0.7818608E-02  0.1029248E+00
          2   -1    0    0  501    0  0.00000000000E+00  0.00000000000E+00  0.16474736350E+04  0.16474736350E+04  0.25500000000E-02 0. -1.
         -2   -1    0    0    0  501 -0.00000000000E+00 -0.00000000000E+00 -0.34764448287E+03  0.34764448288E+03  0.25500000000E-02 0.  1.
    8880022    1    1    2    0    0  0.11188401271E+03 -0.40254480263E+03  0.14568740387E+04  0.15232970715E+04  0.15294330000E+03 0.  0.
    8880022    1    1    2    0    0 -0.11188401271E+03  0.40254480263E+03 -0.15704488654E+03  0.47182104640E+03  0.15294330000E+03 0.  1.
<mgrwt>
<rscale>  0 0.44491797E+03</rscale>
<asrwt>0</asrwt>
<pdfrwt beam="1">  1        2 0.25345748E+00 0.44491797E+03</pdfrwt>
<pdfrwt beam="2">  1       -2 0.53483766E-01 0.44491797E+03</pdfrwt>
<totfact> 0.37100330E+01</totfact>
</mgrwt>
</event>
<event>
 4    1  0.1104584E-007  0.4922716E+03  0.7818608E-02  0.1015816E+00
         -2   -1    0    0    0  501 -0.00000000000E+00  0.00000000000E+00  0.31889849564E+03  0.31889849565E+03  0.25500000000E-02 0.  1.
          2   -1    0    0  501    0  0.00000000000E+00 -0.00000000000E+00 -0.15817105893E+04  0.15817105893E+04  0.25500000000E-02 0. -1.
    8880022    1    1    2    0    0 -0.43017612085E+03 -0.18408753879E+03  0.53584892067E+02  0.49517947308E+03  0.15294330000E+03 0.  0.
    8880022    1    1    2    0    0  0.43017612085E+03  0.18408753879E+03 -0.13163969857E+04  0.14054296119E+04  0.15294330000E+03 0.  1.
<mgrwt>
<rscale>  0 0.49227164E+03</rscale>
<asrwt>0</asrwt>
<pdfrwt beam="1">  1        2 0.24334009E+00 0.49227164E+03</pdfrwt>
<pdfrwt beam="2">  1       -2 0.49061308E-01 0.49227164E+03</pdfrwt>
<totfact> 0.47571043E+01</totfact>
</mgrwt>
</event>
<event>
 4    1  0.1104584E-007  0.7540015E+03  0.7818608E-02  0.9629094E-01
         -2   -1    0    0    0  501 -0.00000000000E+00  0.00000000000E+00  0.21250136971E+03  0.21250136973E+03  0.25500000000E-02 0.  1.
          2   -1    0    0  501    0  0.00000000000E+00 -0.00000000000E+00 -0.34251814890E+04  0.34251814890E+04  0.25500000000E-02 0. -1.
    8880022    1    1    2    0    0 -0.72518806933E+03 -0.13866804995E+03 -0.75533678313E+03  0.10672637317E+04  0.15294330000E+03 0.  0.
    8880022    1    1    2    0    0  0.72518806933E+03  0.13866804995E+03 -0.24573433362E+04  0.25704191271E+04  0.15294330000E+03 0.  0.
<mgrwt>
<rscale>  0 0.75400147E+03</rscale>
<asrwt>0</asrwt>
<pdfrwt beam="1">  1        2 0.52695096E+00 0.75400147E+03</pdfrwt>
<pdfrwt beam="2">  1       -2 0.32692521E-01 0.75400147E+03</pdfrwt>
<totfact> 0.86084040E+00</totfact>
</mgrwt>
</event>
<event>
 4    1  0.1104584E-007  0.1002316E+04  0.7818608E-02  0.9306009E-01
          2   -1    0    0  501    0  0.00000000000E+00  0.00000000000E+00  0.20963798313E+04  0.20963798313E+04  0.25500000000E-02 0. -1.
         -2   -1    0    0    0  501 -0.00000000000E+00 -0.00000000000E+00 -0.73051245626E+03  0.73051245627E+03  0.25500000000E-02 0.  1.
    8880022    1    1    2    0    0 -0.18248721552E+03 -0.97362372684E+03  0.15119276412E+04  0.18139905156E+04  0.15294330000E+03 0.  0.
    8880022    1    1    2    0    0  0.18248721552E+03  0.97362372684E+03 -0.14606026620E+03  0.10129017720E+04  0.15294330000E+03 0.  0.
<mgrwt>
<rscale>  0 0.10023155E+04</rscale>
<asrwt>0</asrwt>
<pdfrwt beam="1">  1        2 0.32251997E+00 0.10023155E+04</pdfrwt>
<pdfrwt beam="2">  1       -2 0.11238653E+00 0.10023155E+04</pdfrwt>
<totfact> 0.36838149E+00</totfact>
</mgrwt>
</event>
<event>
 4    1  0.1104584E-007  0.5544154E+03  0.7818608E-02  0.1000477E+00
          2   -1    0    0  501    0  0.00000000000E+00  0.00000000000E+00  0.11537393954E+04  0.11537393954E+04  0.25500000000E-02 0. -1.
         -2   -1    0    0    0  501 -0.00000000000E+00 -0.00000000000E+00 -0.30449965903E+03  0.30449965904E+03  0.25500000000E-02 0.  1.
    8880022    1    1    2    0    0 -0.49136050646E+03 -0.20627573257E+03  0.68246892554E+03  0.87928397716E+03  0.15294330000E+03 0.  0.
    8880022    1    1    2    0    0  0.49136050646E+03  0.20627573257E+03  0.16677081084E+03  0.57895507729E+03  0.15294330000E+03 0.  0.
<mgrwt>
<rscale>  0 0.55441544E+03</rscale>
<asrwt>0</asrwt>
<pdfrwt beam="1">  1        2 0.17749836E+00 0.55441544E+03</pdfrwt>
<pdfrwt beam="2">  1       -2 0.46846103E-01 0.55441544E+03</pdfrwt>
<totfact> 0.90216363E+01</totfact>
</mgrwt>
</event>
<event>
 4    1  0.1104584E-007  0.6334899E+03  0.7818608E-02  0.9838262E-01
         -2   -1    0    0    0  501 -0.00000000000E+00  0.00000000000E+00  0.33272161495E+03  0.33272161496E+03  0.25500000000E-02 0.  1.
          2   -1    0    0  501    0  0.00000000000E+00 -0.00000000000E+00 -0.31934420515E+04  0.31934420515E+04  0.25500000000E-02 0. -1.
    8880022    1    1    2    0    0 -0.61441899365E+03 -0.20175409133E+02 -0.39528103962E+02  0.63472188469E+03  0.15294330000E+03 0.  1.
    8880022    1    1    2    0    0  0.61441899365E+03  0.20175409133E+02 -0.28211923326E+04  0.28914417818E+04  0.15294330000E+03 0.  0.
<mgrwt>
<rscale>  0 0.63348986E+03</rscale>
<asrwt>0</asrwt>
<pdfrwt beam="1">  1        2 0.49129876E+00 0.63348986E+03</pdfrwt>
<pdfrwt beam="2">  1       -2 0.51187943E-01 0.63348986E+03</pdfrwt>
<totfact> 0.51961692E+00</totfact>
</mgrwt>
</event>
<event>
 4    1  0.1104584E-007  0.8230982E+03  0.7818608E-02  0.9527172E-01
          2   -1    0    0  501    0  0.00000000000E+00  0.00000000000E+00  0.39601668300E+04  0.39601668300E+04  0.25500000000E-02 0. -1.
         -2   -1    0    0    0  501 -0.00000000000E+00 -0.00000000000E+00 -0.77651297555E+03  0.77651297556E+03  0.25500000000E-02 0.  1.
    8880022    1    1    2    0    0 -0.47468901078E+03 -0.65480477162E+03  0.36830677331E+04  0.37739208425E+04  0.15294330000E+03 0.  0.
    8880022    1    1    2    0    0  0.47468901078E+03  0.65480477162E+03 -0.49941387860E+03  0.96275896311E+03  0.15294330000E+03 0.  0.
<mgrwt>
<rscale>  0 0.82309817E+03</rscale>
<asrwt>0</asrwt>
<pdfrwt beam="1">  1        2 0.60925643E+00 0.82309817E+03</pdfrwt>
<pdfrwt beam="2">  1       -2 0.11946354E+00 0.82309817E+03</pdfrwt>
<totfact> 0.21581425E-01</totfact>
</mgrwt>
</event>
<event>
 4    1  0.1104584E-007  0.5657592E+03  0.7818608E-02  0.9979107E-01
          2   -1    0    0  501    0  0.00000000000E+00  0.00000000000E+00  0.23987774313E+04  0.23987774313E+04  0.25500000000E-02 0. -1.
         -2   -1    0    0    0  501 -0.00000000000E+00 -0.00000000000E+00 -0.34349997827E+03  0.34349997827E+03  0.25500000000E-02 0.  1.
    8880022    1    1    2    0    0  0.44688052992E+03 -0.31143154878E+03 -0.44605553094E+02  0.56751486851E+03  0.15294330000E+03 0.  0.
    8880022    1    1    2    0    0 -0.44688052992E+03  0.31143154878E+03  0.20998830061E+04  0.21747625410E+04  0.15294330000E+03 0.  0.
<mgrwt>
<rscale>  0 0.56575920E+03</rscale>
<asrwt>0</asrwt>
<pdfrwt beam="1">  1        2 0.36904268E+00 0.56575920E+03</pdfrwt>
<pdfrwt beam="2">  1       -2 0.52846151E-01 0.56575920E+03</pdfrwt>
<totfact> 0.14527793E+01</totfact>
</mgrwt>
</event>
<event>
 4    1  0.1104584E-007  0.7362122E+03  0.7818608E-02  0.9657233E-01
          2   -1    0    0  501    0  0.00000000000E+00  0.00000000000E+00  0.16144183179E+04  0.16144183179E+04  0.25500000000E-02 0. -1.
         -2   -1    0    0    0  501 -0.00000000000E+00 -0.00000000000E+00 -0.13567795281E+04  0.13567795281E+04  0.25500000000E-02 0.  1.
    8880022    1    1    2    0    0  0.47591112486E+03  0.54048615334E+03 -0.11599356625E+04  0.13738482721E+04  0.15294330000E+03 0.  0.
    8880022    1    1    2    0    0 -0.47591112486E+03 -0.54048615334E+03  0.14175744522E+04  0.15973495739E+04  0.15294330000E+03 0.  0.
<mgrwt>
<rscale>  0 0.73621215E+03</rscale>
<asrwt>0</asrwt>
<pdfrwt beam="1">  1        2 0.24837205E+00 0.73621215E+03</pdfrwt>
<pdfrwt beam="2">  1       -2 0.20873531E+00 0.73621215E+03</pdfrwt>
<totfact> 0.13269208E+00</totfact>
</mgrwt>
</event>
<event>
 4    1  0.1104584E-007  0.7198855E+03  0.7818608E-02  0.9683817E-01
          2   -1    0    0  501    0  0.00000000000E+00  0.00000000000E+00  0.33496165762E+04  0.33496165762E+04  0.25500000000E-02 0. -1.
         -2   -1    0    0    0  501 -0.00000000000E+00 -0.00000000000E+00 -0.32397541386E+03  0.32397541387E+03  0.25500000000E-02 0.  1.
    8880022    1    1    2    0    0  0.96964546461E+01  0.70338426502E+03  0.18517267690E+03  0.74331959398E+03  0.15294330000E+03 0.  0.
    8880022    1    1    2    0    0 -0.96964546461E+01 -0.70338426502E+03  0.28404684854E+04  0.29302723961E+04  0.15294330000E+03 0.  0.
<mgrwt>
<rscale>  0 0.71988548E+03</rscale>
<asrwt>0</asrwt>
<pdfrwt beam="1">  1        2 0.51532564E+00 0.71988548E+03</pdfrwt>
<pdfrwt beam="2">  1       -2 0.49842370E-01 0.71988548E+03</pdfrwt>
<totfact> 0.42661824E+00</totfact>
</mgrwt>
</event>
<event>
 4    1  0.1104584E-007  0.5038880E+03  0.7818608E-02  0.1012769E+00
         -2   -1    0    0    0  501 -0.00000000000E+00  0.00000000000E+00  0.47775202769E+03  0.47775202769E+03  0.25500000000E-02 0.  1.
          2   -1    0    0  501    0  0.00000000000E+00 -0.00000000000E+00 -0.19258440481E+04  0.19258440481E+04  0.25500000000E-02 0. -1.
    8880022    1    1    2    0    0  0.47264257900E+03 -0.84382909121E+02  0.29857120475E+03  0.58570291117E+03  0.15294330000E+03 0.  0.
    8880022    1    1    2    0    0 -0.47264257900E+03  0.84382909121E+02 -0.17466632252E+04  0.18178931647E+04  0.15294330000E+03 0.  0.
<mgrwt>
<rscale>  0 0.50388802E+03</rscale>
<asrwt>0</asrwt>
<pdfrwt beam="1">  1        2 0.29628370E+00 0.50388802E+03</pdfrwt>
<pdfrwt beam="2">  1       -2 0.73500313E-01 0.50388802E+03</pdfrwt>
<totfact> 0.13241232E+01</totfact>
</mgrwt>
</event>
<event>
 4    1  0.1104584E-007  0.6625590E+03  0.7818608E-02  0.9783494E-01
         -2   -1    0    0    0  501 -0.00000000000E+00  0.00000000000E+00  0.34326756548E+03  0.34326756549E+03  0.25500000000E-02 0.  1.
          2   -1    0    0  501    0  0.00000000000E+00 -0.00000000000E+00 -0.26530696818E+04  0.26530696819E+04  0.25500000000E-02 0. -1.
    8880022    1    1    2    0    0 -0.53619710254E+03 -0.35789030266E+03 -0.76659771840E+02  0.66697914146E+03  0.15294330000E+03 0.  1.
    8880022    1    1    2    0    0  0.53619710254E+03  0.35789030266E+03 -0.22331423445E+04  0.23293581059E+04  0.15294330000E+03 0.  0.
<mgrwt>
<rscale>  0 0.66255902E+03</rscale>
<asrwt>0</asrwt>
<pdfrwt beam="1">  1        2 0.40816455E+00 0.66255902E+03</pdfrwt>
<pdfrwt beam="2">  1       -2 0.52810396E-01 0.66255902E+03</pdfrwt>
<totfact> 0.10245232E+01</totfact>
</mgrwt>
</event>
