<event>
 4    1  0.2293715E-008  0.1091607E+04  0.7818608E-02  0.9213411E-01
          1   -1    0    0  501    0  0.00000000000E+00  0.00000000000E+00  0.18813873206E+04  0.18813873206E+04  0.50400000000E-02 0. -1.
         -1   -1    0    0    0  501 -0.00000000000E+00 -0.00000000000E+00 -0.10351565387E+04  0.10351565387E+04  0.50400000000E-02 0.  1.
    8880022    1    1    2    0    0 -0.91535913860E+03 -0.57474490146E+03  0.13316378276E+04  0.17218783381E+04  0.15294330000E+03 0.  0.
    8880022    1    1    2    0    0  0.91535913860E+03  0.57474490146E+03 -0.48540704573E+03  0.11946655212E+04  0.15294330000E+03 0.  0.
<mgrwt>
<rscale>  0 0.10916069E+04</rscale>
<asrwt>0</asrwt>
<pdfrwt beam="1">  1        1 0.28944420E+00 0.10916069E+04</pdfrwt>
<pdfrwt beam="2">  1       -1 0.15925485E+00 0.10916069E+04</pdfrwt>
<totfact> 0.10579165E+00</totfact>
</mgrwt>
</event>
<event>
 4    1  0.2293715E-008  0.4209522E+03  0.7818608E-02  0.1036757E+00
          1   -1    0    0  501    0  0.00000000000E+00  0.00000000000E+00  0.17833885841E+04  0.17833885841E+04  0.50400000000E-02 0. -1.
         -1   -1    0    0    0  501 -0.00000000000E+00 -0.00000000000E+00 -0.33939544445E+03  0.33939544449E+03  0.50400000000E-02 0.  1.
    8880022    1    1    2    0    0 -0.26200718601E+03 -0.29182419818E+03  0.16146005718E+04  0.16685729795E+04  0.15294330000E+03 0. -1.
    8880022    1    1    2    0    0  0.26200718601E+03  0.29182419818E+03 -0.17060743224E+03  0.45421104909E+03  0.15294330000E+03 0.  0.
<mgrwt>
<rscale>  0 0.42095223E+03</rscale>
<asrwt>0</asrwt>
<pdfrwt beam="1">  1        1 0.27436747E+00 0.42095223E+03</pdfrwt>
<pdfrwt beam="2">  1       -1 0.52214684E-01 0.42095223E+03</pdfrwt>
<totfact> 0.17096841E+01</totfact>
</mgrwt>
</event>
<event>
 4    1  0.2293715E-008  0.1195376E+04  0.7818608E-02  0.9116914E-01
         -1   -1    0    0    0  501 -0.00000000000E+00  0.00000000000E+00  0.11055504719E+04  0.11055504719E+04  0.50400000000E-02 0.  1.
          1   -1    0    0  501    0  0.00000000000E+00 -0.00000000000E+00 -0.16902942837E+04  0.16902942837E+04  0.50400000000E-02 0. -1.
    8880022    1    1    2    0    0 -0.70301256252E+03 -0.95462302597E+03 -0.97053075782E+03  0.15397575750E+04  0.15294330000E+03 0.  0.
    8880022    1    1    2    0    0  0.70301256252E+03  0.95462302597E+03  0.38578694597E+03  0.12560871807E+04  0.15294330000E+03 0.  0.
<mgrwt>
<rscale>  0 0.11953759E+04</rscale>
<asrwt>0</asrwt>
<pdfrwt beam="1">  1        1 0.26004527E+00 0.11953759E+04</pdfrwt>
<pdfrwt beam="2">  1       -1 0.17008469E+00 0.11953759E+04</pdfrwt>
<totfact> 0.11667825E+00</totfact>
</mgrwt>
</event>
<event>
 4    1  0.2293715E-008  0.9606288E+03  0.7818608E-02  0.9352813E-01
          1   -1    0    0  501    0  0.00000000000E+00  0.00000000000E+00  0.15736734466E+04  0.15736734466E+04  0.50400000000E-02 0. -1.
         -1   -1    0    0    0  501 -0.00000000000E+00 -0.00000000000E+00 -0.11185312771E+04  0.11185312771E+04  0.50400000000E-02 0.  1.
    8880022    1    1    2    0    0  0.88296178832E+03 -0.34611334013E+03 -0.70088632136E+03  0.11891380291E+04  0.15294330000E+03 0.  0.
    8880022    1    1    2    0    0 -0.88296178832E+03  0.34611334013E+03  0.11560284908E+04  0.15030666946E+04  0.15294330000E+03 0.  0.
<mgrwt>
<rscale>  0 0.96062876E+03</rscale>
<asrwt>0</asrwt>
<pdfrwt beam="1">  1        1 0.24210361E+00 0.96062876E+03</pdfrwt>
<pdfrwt beam="2">  1       -1 0.17208174E+00 0.96062876E+03</pdfrwt>
<totfact> 0.13995631E+00</totfact>
</mgrwt>
</event>
<event>
 4    1  0.2293715E-008  0.4147878E+03  0.7818608E-02  0.1038776E+00
          1   -1    0    0  501    0  0.00000000000E+00  0.00000000000E+00  0.23367957004E+04  0.23367957004E+04  0.50400000000E-02 0. -1.
         -1   -1    0    0    0  501 -0.00000000000E+00 -0.00000000000E+00 -0.10259974850E+03  0.10259974862E+03  0.50400000000E-02 0.  1.
    8880022    1    1    2    0    0  0.21208582679E+03  0.32198888977E+03  0.46893907961E+03  0.62606130408E+03  0.15294330000E+03 0.  0.
    8880022    1    1    2    0    0 -0.21208582679E+03 -0.32198888977E+03  0.17652568722E+04  0.18133341449E+04  0.15294330000E+03 0.  0.
<mgrwt>
<rscale>  0 0.41478777E+03</rscale>
<asrwt>0</asrwt>
<pdfrwt beam="1">  1        1 0.35950702E+00 0.41478777E+03</pdfrwt>
<pdfrwt beam="2">  1       -1 0.15784577E-01 0.41478777E+03</pdfrwt>
<totfact> 0.58243610E+01</totfact>
</mgrwt>
</event>
<event>
 4    1  0.2293715E-008  0.3235327E+03  0.7818608E-02  0.1074035E+00
         -1   -1    0    0    0  501 -0.00000000000E+00  0.00000000000E+00  0.29096974194E+03  0.29096974199E+03  0.50400000000E-02 0.  1.
          1   -1    0    0  501    0  0.00000000000E+00 -0.00000000000E+00 -0.74052717129E+03  0.74052717131E+03  0.50400000000E-02 0. -1.
    8880022    1    1    2    0    0 -0.13689538357E+03  0.25008275639E+03 -0.59461432964E+03  0.67693395919E+03  0.15294330000E+03 0.  0.
    8880022    1    1    2    0    0  0.13689538357E+03 -0.25008275639E+03  0.14505690029E+03  0.35456295410E+03  0.15294330000E+03 0.  1.
<mgrwt>
<rscale>  0 0.32353266E+03</rscale>
<asrwt>0</asrwt>
<pdfrwt beam="1">  1        1 0.11392726E+00 0.32353266E+03</pdfrwt>
<pdfrwt beam="2">  1       -1 0.44764576E-01 0.32353266E+03</pdfrwt>
<totfact> 0.13105462E+02</totfact>
</mgrwt>
</event>
<event>
 4    1  0.2293715E-008  0.3626996E+03  0.7818608E-02  0.1057520E+00
          1   -1    0    0  501    0  0.00000000000E+00  0.00000000000E+00  0.32391115868E+04  0.32391115868E+04  0.50400000000E-02 0. -1.
         -1   -1    0    0    0  501 -0.00000000000E+00 -0.00000000000E+00 -0.24080731502E+03  0.24080731507E+03  0.50400000000E-02 0.  1.
    8880022    1    1    2    0    0  0.32870144288E+03  0.10711399544E+02  0.30856147036E+04  0.31068584012E+04  0.15294330000E+03 0.  0.
    8880022    1    1    2    0    0 -0.32870144288E+03 -0.10711399544E+02 -0.87310431880E+02  0.37306050067E+03  0.15294330000E+03 0.  0.
<mgrwt>
<rscale>  0 0.36269964E+03</rscale>
<asrwt>0</asrwt>
<pdfrwt beam="1">  1        1 0.49832483E+00 0.36269964E+03</pdfrwt>
<pdfrwt beam="2">  1       -1 0.37047281E-01 0.36269964E+03</pdfrwt>
<totfact> 0.33482397E+00</totfact>
</mgrwt>
</event>
<event>
 4    1  0.2293715E-008  0.7490764E+03  0.7818608E-02  0.9636801E-01
          1   -1    0    0  501    0  0.00000000000E+00  0.00000000000E+00  0.10842153818E+04  0.10842153818E+04  0.50400000000E-02 0. -1.
         -1   -1    0    0    0  501 -0.00000000000E+00 -0.00000000000E+00 -0.10173572996E+04  0.10173572996E+04  0.50400000000E-02 0.  1.
    8880022    1    1    2    0    0 -0.67949690032E+03 -0.27569493818E+03  0.76995335831E+03  0.10742176518E+04  0.15294330000E+03 0. -1.
    8880022    1    1    2    0    0  0.67949690032E+03  0.27569493818E+03 -0.70309527610E+03  0.10273550296E+04  0.15294330000E+03 0.  0.
<mgrwt>
<rscale>  0 0.74907636E+03</rscale>
<asrwt>0</asrwt>
<pdfrwt beam="1">  1        1 0.16680237E+00 0.74907636E+03</pdfrwt>
<pdfrwt beam="2">  1       -1 0.15651651E+00 0.74907636E+03</pdfrwt>
<totfact> 0.42045408E+00</totfact>
</mgrwt>
</event>
<event>
 4    1  0.2293715E-008  0.2711279E+03  0.7818608E-02  0.1100636E+00
         -1   -1    0    0    0  501 -0.00000000000E+00  0.00000000000E+00  0.11623949749E+03  0.11623949760E+03  0.50400000000E-02 0.  1.
          1   -1    0    0  501    0  0.00000000000E+00 -0.00000000000E+00 -0.83825041449E+03  0.83825041451E+03  0.50400000000E-02 0. -1.
    8880022    1    1    2    0    0 -0.36200705815E+02 -0.22092574729E+03 -0.12450823250E+03  0.29834984480E+03  0.15294330000E+03 0.  0.
    8880022    1    1    2    0    0  0.36200705815E+02  0.22092574729E+03 -0.59750268451E+03  0.65614006731E+03  0.15294330000E+03 0.  0.
<mgrwt>
<rscale>  0 0.27112788E+03</rscale>
<asrwt>0</asrwt>
<pdfrwt beam="1">  1        1 0.12896160E+00 0.27112788E+03</pdfrwt>
<pdfrwt beam="2">  1       -1 0.17883000E-01 0.27112788E+03</pdfrwt>
<totfact> 0.52093417E+02</totfact>
</mgrwt>
</event>
<event>
 4    1  0.2293715E-008  0.6104933E+03  0.7818608E-02  0.9883872E-01
         -1   -1    0    0    0  501 -0.00000000000E+00  0.00000000000E+00  0.63717776820E+03  0.63717776822E+03  0.50400000000E-02 0.  1.
          1   -1    0    0  501    0  0.00000000000E+00 -0.00000000000E+00 -0.18834573448E+04  0.18834573448E+04  0.50400000000E-02 0. -1.
    8880022    1    1    2    0    0  0.50382852741E+03  0.30897778324E+03 -0.16696133017E+04  0.17777262685E+04  0.15294330000E+03 0.  0.
    8880022    1    1    2    0    0 -0.50382852741E+03 -0.30897778324E+03  0.42333372503E+03  0.74290884456E+03  0.15294330000E+03 0.  0.
<mgrwt>
<rscale>  0 0.61049333E+03</rscale>
<asrwt>0</asrwt>
<pdfrwt beam="1">  1        1 0.28976267E+00 0.61049333E+03</pdfrwt>
<pdfrwt beam="2">  1       -1 0.98027350E-01 0.61049333E+03</pdfrwt>
<totfact> 0.38484946E+00</totfact>
</mgrwt>
</event>
<event>
 4    1  0.2293715E-008  0.1035677E+04  0.7818608E-02  0.9270258E-01
          1   -1    0    0  501    0  0.00000000000E+00  0.00000000000E+00  0.14933041688E+04  0.14933041688E+04  0.50400000000E-02 0. -1.
         -1   -1    0    0    0  501 -0.00000000000E+00 -0.00000000000E+00 -0.97955434056E+03  0.97955434057E+03  0.50400000000E-02 0.  1.
    8880022    1    1    2    0    0  0.10184447992E+04  0.10956791709E+03 -0.38167439666E+03  0.11037671564E+04  0.15294330000E+03 0.  0.
    8880022    1    1    2    0    0 -0.10184447992E+04 -0.10956791709E+03  0.89542422491E+03  0.13690913530E+04  0.15294330000E+03 0.  0.
<mgrwt>
<rscale>  0 0.10356769E+04</rscale>
<asrwt>0</asrwt>
<pdfrwt beam="1">  1        1 0.22973910E+00 0.10356769E+04</pdfrwt>
<pdfrwt beam="2">  1       -1 0.15070067E+00 0.10356769E+04</pdfrwt>
<totfact> 0.22796102E+00</totfact>
</mgrwt>
</event>
<event>
 4    1  0.2293715E-008  0.4300642E+03  0.7818608E-02  0.1033840E+00
          1   -1    0    0  501    0  0.00000000000E+00  0.00000000000E+00  0.17041517503E+04  0.17041517503E+04  0.50400000000E-02 0. -1.
         -1   -1    0    0    0  501 -0.00000000000E+00 -0.00000000000E+00 -0.22264519167E+03  0.22264519173E+03  0.50400000000E-02 0.  1.
    8880022    1    1    2    0    0  0.40079657619E+03  0.30424353231E+02  0.14304640442E+04  0.14937143540E+04  0.15294330000E+03 0.  0.
    8880022    1    1    2    0    0 -0.40079657619E+03 -0.30424353231E+02  0.51042514487E+02  0.43308258803E+03  0.15294330000E+03 0.  0.
<mgrwt>
<rscale>  0 0.43006417E+03</rscale>
<asrwt>0</asrwt>
<pdfrwt beam="1">  1        1 0.26217720E+00 0.43006417E+03</pdfrwt>
<pdfrwt beam="2">  1       -1 0.34253106E-01 0.43006417E+03</pdfrwt>
<totfact> 0.41427089E+01</totfact>
</mgrwt>
</event>
<event>
 4    1  0.2293715E-008  0.5313874E+03  0.7818608E-02  0.1005896E+00
         -1   -1    0    0    0  501 -0.00000000000E+00  0.00000000000E+00  0.68739354527E+03  0.68739354529E+03  0.50400000000E-02 0.  1.
          1   -1    0    0  501    0  0.00000000000E+00 -0.00000000000E+00 -0.79218894831E+03  0.79218894832E+03  0.50400000000E-02 0. -1.
    8880022    1    1    2    0    0 -0.42437292098E+02 -0.50712918043E+03  0.46091976864E+03  0.70343415864E+03  0.15294330000E+03 0.  0.
    8880022    1    1    2    0    0  0.42437292098E+02  0.50712918043E+03 -0.56571517168E+03  0.77614833497E+03  0.15294330000E+03 0.  0.
<mgrwt>
<rscale>  0 0.53138741E+03</rscale>
<asrwt>0</asrwt>
<pdfrwt beam="1">  1        1 0.12187522E+00 0.53138741E+03</pdfrwt>
<pdfrwt beam="2">  1       -1 0.10575285E+00 0.53138741E+03</pdfrwt>
<totfact> 0.19918446E+01</totfact>
</mgrwt>
</event>
<event>
 4    1  0.2293715E-008  0.1123559E+04  0.7818608E-02  0.9182529E-01
         -1   -1    0    0    0  501 -0.00000000000E+00  0.00000000000E+00  0.20649976609E+04  0.20649976609E+04  0.50400000000E-02 0.  1.
          1   -1    0    0  501    0  0.00000000000E+00 -0.00000000000E+00 -0.69601136422E+03  0.69601136424E+03  0.50400000000E-02 0. -1.
    8880022    1    1    2    0    0  0.10391730675E+04  0.39888933948E+03  0.11660371782E+04  0.16192676503E+04  0.15294330000E+03 0.  0.
    8880022    1    1    2    0    0 -0.10391730675E+04 -0.39888933948E+03  0.20294911842E+03  0.11417413748E+04  0.15294330000E+03 0.  0.
<mgrwt>
<rscale>  0 0.11235591E+04</rscale>
<asrwt>0</asrwt>
<pdfrwt beam="1">  1        1 0.10707867E+00 0.11235591E+04</pdfrwt>
<pdfrwt beam="2">  1       -1 0.31769195E+00 0.11235591E+04</pdfrwt>
<totfact> 0.69567257E-01</totfact>
</mgrwt>
</event>
<event>
 4    1  0.2293715E-008  0.4206462E+03  0.7818608E-02  0.1036856E+00
         -1   -1    0    0    0  501 -0.00000000000E+00  0.00000000000E+00  0.12341296118E+04  0.12341296118E+04  0.50400000000E-02 0.  1.
          1   -1    0    0  501    0  0.00000000000E+00 -0.00000000000E+00 -0.29744281309E+03  0.29744281314E+03  0.50400000000E-02 0. -1.
    8880022    1    1    2    0    0  0.31214057885E+03  0.23689623139E+03  0.10194833500E+04  0.11028551670E+04  0.15294330000E+03 0.  0.
    8880022    1    1    2    0    0 -0.31214057885E+03 -0.23689623139E+03 -0.82796551236E+02  0.42871725802E+03  0.15294330000E+03 0.  0.
<mgrwt>
<rscale>  0 0.42064619E+03</rscale>
<asrwt>0</asrwt>
<pdfrwt beam="1">  1        1 0.45760434E-01 0.42064619E+03</pdfrwt>
<pdfrwt beam="2">  1       -1 0.18986609E+00 0.42064619E+03</pdfrwt>
<totfact> 0.16905919E+01</totfact>
</mgrwt>
</event>
<event>
 4    1  0.2293715E-008  0.4246050E+03  0.7818608E-02  0.1035578E+00
         -1   -1    0    0    0  501 -0.00000000000E+00  0.00000000000E+00  0.49270947923E+03  0.49270947925E+03  0.50400000000E-02 0.  1.
          1   -1    0    0  501    0  0.00000000000E+00 -0.00000000000E+00 -0.17934835514E+04  0.17934835514E+04  0.50400000000E-02 0. -1.
    8880022    1    1    2    0    0  0.39531448162E+03 -0.24983552497E+02 -0.16702288570E+04  0.17233553913E+04  0.15294330000E+03 0.  0.
    8880022    1    1    2    0    0 -0.39531448162E+03  0.24983552497E+02  0.36945478475E+03  0.56283763935E+03  0.15294330000E+03 0.  0.
<mgrwt>
<rscale>  0 0.42460496E+03</rscale>
<asrwt>0</asrwt>
<pdfrwt beam="1">  1        1 0.27592054E+00 0.42460496E+03</pdfrwt>
<pdfrwt beam="2">  1       -1 0.75801459E-01 0.42460496E+03</pdfrwt>
<totfact> 0.80612841E+00</totfact>
</mgrwt>
</event>
<event>
 4    1  0.2293715E-008  0.9014535E+03  0.7818608E-02  0.9423766E-01
          1   -1    0    0  501    0  0.00000000000E+00  0.00000000000E+00  0.11404524663E+04  0.11404524663E+04  0.50400000000E-02 0. -1.
         -1   -1    0    0    0  501 -0.00000000000E+00 -0.00000000000E+00 -0.84941039094E+03  0.84941039096E+03  0.50400000000E-02 0.  1.
    8880022    1    1    2    0    0  0.25523683780E+03  0.85092943916E+03 -0.25386102313E+03  0.93651685830E+03  0.15294330000E+03 0.  0.
    8880022    1    1    2    0    0 -0.25523683780E+03 -0.85092943916E+03  0.54490309850E+03  0.10533459990E+04  0.15294330000E+03 0.  0.
<mgrwt>
<rscale>  0 0.90145350E+03</rscale>
<asrwt>0</asrwt>
<pdfrwt beam="1">  1        1 0.17545423E+00 0.90145350E+03</pdfrwt>
<pdfrwt beam="2">  1       -1 0.13067852E+00 0.90145350E+03</pdfrwt>
<totfact> 0.60061043E+00</totfact>
</mgrwt>
</event>
<event>
 4    1  0.2293715E-008  0.5287588E+03  0.7818608E-02  0.1006534E+00
         -1   -1    0    0    0  501 -0.00000000000E+00  0.00000000000E+00  0.23425809637E+03  0.23425809642E+03  0.50400000000E-02 0.  1.
          1   -1    0    0  501    0  0.00000000000E+00 -0.00000000000E+00 -0.18860060877E+04  0.18860060877E+04  0.50400000000E-02 0. -1.
    8880022    1    1    2    0    0  0.24774210659E+03  0.44138201813E+03 -0.14682684314E+04  0.15605762003E+04  0.15294330000E+03 0.  0.
    8880022    1    1    2    0    0 -0.24774210659E+03 -0.44138201813E+03 -0.18347955995E+03  0.55968798383E+03  0.15294330000E+03 0.  0.
<mgrwt>
<rscale>  0 0.52875882E+03</rscale>
<asrwt>0</asrwt>
<pdfrwt beam="1">  1        1 0.29015477E+00 0.52875882E+03</pdfrwt>
<pdfrwt beam="2">  1       -1 0.36039708E-01 0.52875882E+03</pdfrwt>
<totfact> 0.28141062E+01</totfact>
</mgrwt>
</event>
<event>
 4    1  0.2293715E-008  0.3088690E+03  0.7818608E-02  0.1080889E+00
          1   -1    0    0  501    0  0.00000000000E+00  0.00000000000E+00  0.87849163664E+03  0.87849163666E+03  0.50400000000E-02 0. -1.
         -1   -1    0    0    0  501 -0.00000000000E+00 -0.00000000000E+00 -0.69760370951E+03  0.69760370952E+03  0.50400000000E-02 0.  1.
    8880022    1    1    2    0    0 -0.26737568941E+03  0.22773418686E+02 -0.63367322619E+03  0.70494098936E+03  0.15294330000E+03 0.  1.
    8880022    1    1    2    0    0  0.26737568941E+03 -0.22773418686E+02  0.81456115333E+03  0.87115435682E+03  0.15294330000E+03 0.  0.
<mgrwt>
<rscale>  0 0.30886897E+03</rscale>
<asrwt>0</asrwt>
<pdfrwt beam="1">  1        1 0.13515256E+00 0.30886897E+03</pdfrwt>
<pdfrwt beam="2">  1       -1 0.10732365E+00 0.30886897E+03</pdfrwt>
<totfact> 0.17160064E+01</totfact>
</mgrwt>
</event>
<event>
 4    1  0.2293715E-008  0.2669938E+03  0.7818608E-02  0.1103013E+00
          1   -1    0    0  501    0  0.00000000000E+00  0.00000000000E+00  0.47586748331E+03  0.47586748334E+03  0.50400000000E-02 0. -1.
         -1   -1    0    0    0  501 -0.00000000000E+00 -0.00000000000E+00 -0.20028078419E+03  0.20028078425E+03  0.50400000000E-02 0.  1.
    8880022    1    1    2    0    0  0.18153167442E+03 -0.12223056499E+03  0.30751937612E+03  0.40725161698E+03  0.15294330000E+03 0.  0.
    8880022    1    1    2    0    0 -0.18153167442E+03  0.12223056499E+03 -0.31932676993E+02  0.26889665061E+03  0.15294330000E+03 0.  0.
<mgrwt>
<rscale>  0 0.26699384E+03</rscale>
<asrwt>0</asrwt>
<pdfrwt beam="1">  1        1 0.73210382E-01 0.26699384E+03</pdfrwt>
<pdfrwt beam="2">  1       -1 0.30812428E-01 0.26699384E+03</pdfrwt>
<totfact> 0.47358398E+02</totfact>
</mgrwt>
</event>
<event>
 4    1  0.2293715E-008  0.3528103E+03  0.7818608E-02  0.1061467E+00
         -1   -1    0    0    0  501 -0.00000000000E+00  0.00000000000E+00  0.96556244351E+03  0.96556244352E+03  0.50400000000E-02 0.  1.
          1   -1    0    0  501    0  0.00000000000E+00 -0.00000000000E+00 -0.17668390514E+03  0.17668390521E+03  0.50400000000E-02 0. -1.
    8880022    1    1    2    0    0 -0.15338248744E+03 -0.27849106639E+03  0.69140454063E+03  0.77621862470E+03  0.15294330000E+03 0.  1.
    8880022    1    1    2    0    0  0.15338248744E+03  0.27849106639E+03  0.97473997740E+02  0.36602772403E+03  0.15294330000E+03 0. -1.
<mgrwt>
<rscale>  0 0.35281031E+03</rscale>
<asrwt>0</asrwt>
<pdfrwt beam="1">  1        1 0.27182140E-01 0.35281031E+03</pdfrwt>
<pdfrwt beam="2">  1       -1 0.14854806E+00 0.35281031E+03</pdfrwt>
<totfact> 0.66281563E+01</totfact>
</mgrwt>
</event>
<event>
 4    1  0.2293715E-008  0.4133079E+03  0.7818608E-02  0.1039267E+00
         -1   -1    0    0    0  501 -0.00000000000E+00  0.00000000000E+00  0.15256520088E+03  0.15256520097E+03  0.50400000000E-02 0.  1.
          1   -1    0    0  501    0  0.00000000000E+00 -0.00000000000E+00 -0.17478790398E+04  0.17478790398E+04  0.50400000000E-02 0. -1.
    8880022    1    1    2    0    0 -0.28382094099E+03 -0.25860669432E+03 -0.13673223962E+04  0.14284235846E+04  0.15294330000E+03 0.  0.
    8880022    1    1    2    0    0  0.28382094099E+03  0.25860669432E+03 -0.22799144274E+03  0.47202065619E+03  0.15294330000E+03 0.  0.
<mgrwt>
<rscale>  0 0.41330788E+03</rscale>
<asrwt>0</asrwt>
<pdfrwt beam="1">  1        1 0.26890445E+00 0.41330788E+03</pdfrwt>
<pdfrwt beam="2">  1       -1 0.23471571E-01 0.41330788E+03</pdfrwt>
<totfact> 0.74296651E+01</totfact>
</mgrwt>
</event>
<event>
 4    1  0.2293715E-008  0.9874184E+03  0.7818608E-02  0.9322453E-01
          1   -1    0    0  501    0  0.00000000000E+00  0.00000000000E+00  0.44083153692E+03  0.44083153694E+03  0.50400000000E-02 0. -1.
         -1   -1    0    0    0  501 -0.00000000000E+00 -0.00000000000E+00 -0.27290366974E+04  0.27290366974E+04  0.50400000000E-02 0.  1.
    8880022    1    1    2    0    0  0.74206989553E+03  0.63319476917E+03 -0.45404447976E+03  0.10868078893E+04  0.15294330000E+03 0.  0.
    8880022    1    1    2    0    0 -0.74206989553E+03 -0.63319476917E+03 -0.18341606807E+04  0.20830603451E+04  0.15294330000E+03 0.  0.
<mgrwt>
<rscale>  0 0.98741835E+03</rscale>
<asrwt>0</asrwt>
<pdfrwt beam="1">  1        1 0.67820238E-01 0.98741835E+03</pdfrwt>
<pdfrwt beam="2">  1       -1 0.41985179E+00 0.98741835E+03</pdfrwt>
<totfact> 0.28322493E-01</totfact>
</mgrwt>
</event>
<event>
 4    1  0.2293715E-008  0.5965383E+03  0.7818608E-02  0.9912614E-01
         -1   -1    0    0    0  501 -0.00000000000E+00  0.00000000000E+00  0.56787950253E+03  0.56787950256E+03  0.50400000000E-02 0.  1.
          1   -1    0    0  501    0  0.00000000000E+00 -0.00000000000E+00 -0.24243884772E+04  0.24243884772E+04  0.50400000000E-02 0. -1.
    8880022    1    1    2    0    0 -0.53579457271E+03 -0.21305035596E+03  0.36009426252E+03  0.69679682062E+03  0.15294330000E+03 0.  0.
    8880022    1    1    2    0    0  0.53579457271E+03  0.21305035596E+03 -0.22166032372E+04  0.22954711592E+04  0.15294330000E+03 0.  0.
<mgrwt>
<rscale>  0 0.59653829E+03</rscale>
<asrwt>0</asrwt>
<pdfrwt beam="1">  1        1 0.37298284E+00 0.59653829E+03</pdfrwt>
<pdfrwt beam="2">  1       -1 0.87366079E-01 0.59653829E+03</pdfrwt>
<totfact> 0.21677890E+00</totfact>
</mgrwt>
</event>
<event>
 4    1  0.2293715E-008  0.2875824E+03  0.7818608E-02  0.1091618E+00
         -1   -1    0    0    0  501 -0.00000000000E+00  0.00000000000E+00  0.46092184592E+03  0.46092184595E+03  0.50400000000E-02 0.  1.
          1   -1    0    0  501    0  0.00000000000E+00 -0.00000000000E+00 -0.32307315076E+03  0.32307315080E+03  0.50400000000E-02 0. -1.
    8880022    1    1    2    0    0  0.22499919737E+03  0.93205776909E+02 -0.19245664644E+03  0.34603925997E+03  0.15294330000E+03 0. -1.
    8880022    1    1    2    0    0 -0.22499919737E+03 -0.93205776909E+02  0.33030534161E+03  0.43795573678E+03  0.15294330000E+03 0.  0.
<mgrwt>
<rscale>  0 0.28758235E+03</rscale>
<asrwt>0</asrwt>
<pdfrwt beam="1">  1        1 0.49703562E-01 0.28758235E+03</pdfrwt>
<pdfrwt beam="2">  1       -1 0.70911053E-01 0.28758235E+03</pdfrwt>
<totfact> 0.16773411E+02</totfact>
</mgrwt>
</event>
<event>
 4    1  0.2293715E-008  0.9000009E+03  0.7818608E-02  0.9425580E-01
         -1   -1    0    0    0  501 -0.00000000000E+00  0.00000000000E+00  0.84862291943E+03  0.84862291944E+03  0.50400000000E-02 0.  1.
          1   -1    0    0  501    0  0.00000000000E+00 -0.00000000000E+00 -0.10488892759E+04  0.10488892759E+04  0.50400000000E-02 0. -1.
    8880022    1    1    2    0    0  0.70824474563E+03 -0.53385333077E+03  0.18449328659E+03  0.91871618267E+03  0.15294330000E+03 0.  0.
    8880022    1    1    2    0    0 -0.70824474563E+03  0.53385333077E+03 -0.38475964305E+03  0.97879601267E+03  0.15294330000E+03 0.  0.
<mgrwt>
<rscale>  0 0.90000092E+03</rscale>
<asrwt>0</asrwt>
<pdfrwt beam="1">  1        1 0.16136758E+00 0.90000092E+03</pdfrwt>
<pdfrwt beam="2">  1       -1 0.13055737E+00 0.90000092E+03</pdfrwt>
<totfact> 0.70554901E+00</totfact>
</mgrwt>
</event>
<event>
 4    1  0.2293715E-008  0.1552670E+03  0.7818608E-02  0.1194146E+00
         -1   -1    0    0    0  501 -0.00000000000E+00  0.00000000000E+00  0.23060778156E+03  0.23060778161E+03  0.50400000000E-02 0.  1.
          1   -1    0    0  501    0  0.00000000000E+00 -0.00000000000E+00 -0.74477583685E+03  0.74477583687E+03  0.50400000000E-02 0. -1.
    8880022    1    1    2    0    0  0.23096404296E+02  0.13518096046E+02  0.19508677715E+03  0.24933248173E+03  0.15294330000E+03 0.  1.
    8880022    1    1    2    0    0 -0.23096404296E+02 -0.13518096046E+02 -0.70925483244E+03  0.72605113675E+03  0.15294330000E+03 0.  0.
<mgrwt>
<rscale>  0 0.15526698E+03</rscale>
<asrwt>0</asrwt>
<pdfrwt beam="1">  1        1 0.11458090E+00 0.15526698E+03</pdfrwt>
<pdfrwt beam="2">  1       -1 0.35478121E-01 0.15526698E+03</pdfrwt>
<totfact> 0.20263111E+02</totfact>
</mgrwt>
</event>
<event>
 4    1  0.2293715E-008  0.3251969E+03  0.7818608E-02  0.1073282E+00
          1   -1    0    0  501    0  0.00000000000E+00  0.00000000000E+00  0.34702141482E+03  0.34702141486E+03  0.50400000000E-02 0. -1.
         -1   -1    0    0    0  501 -0.00000000000E+00 -0.00000000000E+00 -0.50186308681E+03  0.50186308683E+03  0.50400000000E-02 0.  1.
    8880022    1    1    2    0    0 -0.20336946944E+03 -0.20249006997E+03 -0.34342551669E+03  0.47296311491E+03  0.15294330000E+03 0.  0.
    8880022    1    1    2    0    0  0.20336946944E+03  0.20249006997E+03  0.18858384471E+03  0.37592138678E+03  0.15294330000E+03 0.  0.
<mgrwt>
<rscale>  0 0.32519690E+03</rscale>
<asrwt>0</asrwt>
<pdfrwt beam="1">  1        1 0.53387910E-01 0.32519690E+03</pdfrwt>
<pdfrwt beam="2">  1       -1 0.77209706E-01 0.32519690E+03</pdfrwt>
<totfact> 0.12813413E+02</totfact>
</mgrwt>
</event>
<event>
 4    1  0.2293715E-008  0.3120687E+03  0.7818608E-02  0.1079359E+00
         -1   -1    0    0    0  501 -0.00000000000E+00  0.00000000000E+00  0.27521790495E+03  0.27521790500E+03  0.50400000000E-02 0.  1.
          1   -1    0    0  501    0  0.00000000000E+00 -0.00000000000E+00 -0.63863129847E+03  0.63863129849E+03  0.50400000000E-02 0. -1.
    8880022    1    1    2    0    0 -0.23427082827E+03  0.13824750430E+03  0.12341453611E+03  0.33558604583E+03  0.15294330000E+03 0.  0.
    8880022    1    1    2    0    0  0.23427082827E+03 -0.13824750430E+03 -0.48682792962E+03  0.57826315765E+03  0.15294330000E+03 0. -1.
<mgrwt>
<rscale>  0 0.31206866E+03</rscale>
<asrwt>0</asrwt>
<pdfrwt beam="1">  1        1 0.98250968E-01 0.31206866E+03</pdfrwt>
<pdfrwt beam="2">  1       -1 0.42341216E-01 0.31206866E+03</pdfrwt>
<totfact> 0.18037224E+02</totfact>
</mgrwt>
</event>
<event>
 4    1  0.2293715E-008  0.7715145E+03  0.7818608E-02  0.9602189E-01
         -1   -1    0    0    0  501 -0.00000000000E+00  0.00000000000E+00  0.13681102252E+04  0.13681102253E+04  0.50400000000E-02 0.  1.
          1   -1    0    0  501    0  0.00000000000E+00 -0.00000000000E+00 -0.93540191091E+03  0.93540191092E+03  0.50400000000E-02 0. -1.
    8880022    1    1    2    0    0 -0.75619276537E+03 -0.39271756128E+01 -0.62598509610E+03  0.99352499448E+03  0.15294330000E+03 0.  0.
    8880022    1    1    2    0    0  0.75619276537E+03  0.39271756128E+01  0.10586934104E+04  0.13099871417E+04  0.15294330000E+03 0.  0.
<mgrwt>
<rscale>  0 0.77151447E+03</rscale>
<asrwt>0</asrwt>
<pdfrwt beam="1">  1        1 0.14390799E+00 0.77151447E+03</pdfrwt>
<pdfrwt beam="2">  1       -1 0.21047850E+00 0.77151447E+03</pdfrwt>
<totfact> 0.22581164E+00</totfact>
</mgrwt>
</event>
<event>
 4    1  0.2293715E-008  0.9147099E+03  0.7818608E-02  0.9407378E-01
         -1   -1    0    0    0  501 -0.00000000000E+00  0.00000000000E+00  0.63057001769E+03  0.63057001771E+03  0.50400000000E-02 0.  1.
          1   -1    0    0  501    0  0.00000000000E+00 -0.00000000000E+00 -0.18492195171E+04  0.18492195171E+04  0.50400000000E-02 0. -1.
    8880022    1    1    2    0    0 -0.78937917197E+03  0.43609993995E+03 -0.12682933166E+04  0.15637334250E+04  0.15294330000E+03 0.  0.
    8880022    1    1    2    0    0  0.78937917197E+03 -0.43609993995E+03  0.49643817100E+02  0.91605610982E+03  0.15294330000E+03 0.  0.
<mgrwt>
<rscale>  0 0.91470995E+03</rscale>
<asrwt>0</asrwt>
<pdfrwt beam="1">  1        1 0.28449531E+00 0.91470995E+03</pdfrwt>
<pdfrwt beam="2">  1       -1 0.97010773E-01 0.91470995E+03</pdfrwt>
<totfact> 0.39339834E+00</totfact>
</mgrwt>
</event>
<event>
 4    1  0.2293715E-008  0.4985698E+03  0.7818608E-02  0.1014153E+00
         -1   -1    0    0    0  501 -0.00000000000E+00  0.00000000000E+00  0.62825365664E+03  0.62825365666E+03  0.50400000000E-02 0.  1.
          1   -1    0    0  501    0  0.00000000000E+00 -0.00000000000E+00 -0.74305612433E+03  0.74305612435E+03  0.50400000000E-02 0. -1.
    8880022    1    1    2    0    0  0.46486333691E+03 -0.95300947886E+02 -0.52622566399E+03  0.72490364541E+03  0.15294330000E+03 0.  0.
    8880022    1    1    2    0    0 -0.46486333691E+03  0.95300947886E+02  0.41142319629E+03  0.64640613560E+03  0.15294330000E+03 0.  0.
<mgrwt>
<rscale>  0 0.49856980E+03</rscale>
<asrwt>0</asrwt>
<pdfrwt beam="1">  1        1 0.11431633E+00 0.49856980E+03</pdfrwt>
<pdfrwt beam="2">  1       -1 0.96654409E-01 0.49856980E+03</pdfrwt>
<totfact> 0.27133906E+01</totfact>
</mgrwt>
</event>
<event>
 4    1  0.2293715E-008  0.7809676E+03  0.7818608E-02  0.9587982E-01
         -1   -1    0    0    0  501 -0.00000000000E+00  0.00000000000E+00  0.45050818108E+03  0.45050818110E+03  0.50400000000E-02 0.  1.
          1   -1    0    0  501    0  0.00000000000E+00 -0.00000000000E+00 -0.25339697060E+04  0.25339697060E+04  0.50400000000E-02 0. -1.
    8880022    1    1    2    0    0 -0.68303132369E+03 -0.34639138088E+03 -0.20600989044E+04  0.22031608945E+04  0.15294330000E+03 0.  0.
    8880022    1    1    2    0    0  0.68303132369E+03  0.34639138088E+03 -0.23362620464E+02  0.78131699261E+03  0.15294330000E+03 0.  0.
<mgrwt>
<rscale>  0 0.78096762E+03</rscale>
<asrwt>0</asrwt>
<pdfrwt beam="1">  1        1 0.38984148E+00 0.78096762E+03</pdfrwt>
<pdfrwt beam="2">  1       -1 0.69308953E-01 0.78096762E+03</pdfrwt>
<totfact> 0.28545196E+00</totfact>
</mgrwt>
</event>
<event>
 4    1  0.2293715E-008  0.3688931E+03  0.7818608E-02  0.1055117E+00
          1   -1    0    0  501    0  0.00000000000E+00  0.00000000000E+00  0.97815135179E+03  0.97815135180E+03  0.50400000000E-02 0. -1.
         -1   -1    0    0    0  501 -0.00000000000E+00 -0.00000000000E+00 -0.35855691512E+03  0.35855691515E+03  0.50400000000E-02 0.  1.
    8880022    1    1    2    0    0  0.13380048504E+03 -0.30787644779E+03  0.83265153482E+03  0.91070890429E+03  0.15294330000E+03 0. -1.
    8880022    1    1    2    0    0 -0.13380048504E+03  0.30787644779E+03 -0.21305709815E+03  0.42599936266E+03  0.15294330000E+03 0.  0.
<mgrwt>
<rscale>  0 0.36889311E+03</rscale>
<asrwt>0</asrwt>
<pdfrwt beam="1">  1        1 0.15048482E+00 0.36889311E+03</pdfrwt>
<pdfrwt beam="2">  1       -1 0.55162602E-01 0.36889311E+03</pdfrwt>
<totfact> 0.56334977E+01</totfact>
</mgrwt>
</event>
<event>
 4    1  0.2293715E-008  0.8187602E+03  0.7818608E-02  0.9533253E-01
          1   -1    0    0  501    0  0.00000000000E+00  0.00000000000E+00  0.28504764877E+04  0.28504764877E+04  0.50400000000E-02 0. -1.
         -1   -1    0    0    0  501 -0.00000000000E+00 -0.00000000000E+00 -0.32943744725E+03  0.32943744729E+03  0.50400000000E-02 0.  1.
    8880022    1    1    2    0    0 -0.58003709745E+03 -0.55725541941E+03  0.41004325701E+03  0.91569851070E+03  0.15294330000E+03 0.  0.
    8880022    1    1    2    0    0  0.58003709745E+03  0.55725541941E+03  0.21109957834E+04  0.22642154243E+04  0.15294330000E+03 0.  0.
<mgrwt>
<rscale>  0 0.81876022E+03</rscale>
<asrwt>0</asrwt>
<pdfrwt beam="1">  1        1 0.43853485E+00 0.81876022E+03</pdfrwt>
<pdfrwt beam="2">  1       -1 0.50682684E-01 0.81876022E+03</pdfrwt>
<totfact> 0.31639808E+00</totfact>
</mgrwt>
</event>
<event>
 4    1  0.2293715E-008  0.4141060E+03  0.7818608E-02  0.1039002E+00
          1   -1    0    0  501    0  0.00000000000E+00  0.00000000000E+00  0.52033334156E+03  0.52033334159E+03  0.50400000000E-02 0. -1.
         -1   -1    0    0    0  501 -0.00000000000E+00 -0.00000000000E+00 -0.15728631329E+04  0.15728631329E+04  0.50400000000E-02 0.  1.
    8880022    1    1    2    0    0  0.75912461994E+02  0.37726576399E+03  0.40424741145E+03  0.57870526285E+03  0.15294330000E+03 0.  0.
    8880022    1    1    2    0    0 -0.75912461994E+02 -0.37726576399E+03 -0.14567772027E+04  0.15144912116E+04  0.15294330000E+03 0.  0.
<mgrwt>
<rscale>  0 0.41410604E+03</rscale>
<asrwt>0</asrwt>
<pdfrwt beam="1">  1        1 0.80051284E-01 0.41410604E+03</pdfrwt>
<pdfrwt beam="2">  1       -1 0.24197894E+00 0.41410604E+03</pdfrwt>
<totfact> 0.36845431E+00</totfact>
</mgrwt>
</event>
<event>
 4    1  0.2293715E-008  0.2600310E+03  0.7818608E-02  0.1107125E+00
         -1   -1    0    0    0  501 -0.00000000000E+00  0.00000000000E+00  0.45948359413E+03  0.45948359416E+03  0.50400000000E-02 0.  1.
          1   -1    0    0  501    0  0.00000000000E+00 -0.00000000000E+00 -0.25712701376E+03  0.25712701381E+03  0.50400000000E-02 0. -1.
    8880022    1    1    2    0    0 -0.37296934700E+02  0.20696230814E+03 -0.13314584452E+03  0.29213682968E+03  0.15294330000E+03 0.  0.
    8880022    1    1    2    0    0  0.37296934700E+02 -0.20696230814E+03  0.33550242489E+03  0.42447377828E+03  0.15294330000E+03 0.  0.
<mgrwt>
<rscale>  0 0.26003098E+03</rscale>
<asrwt>0</asrwt>
<pdfrwt beam="1">  1        1 0.39558002E-01 0.26003098E+03</pdfrwt>
<pdfrwt beam="2">  1       -1 0.70689783E-01 0.26003098E+03</pdfrwt>
<totfact> 0.22588237E+02</totfact>
</mgrwt>
</event>
<event>
 4    1  0.2293715E-008  0.3928355E+03  0.7818608E-02  0.1046289E+00
         -1   -1    0    0    0  501 -0.00000000000E+00  0.00000000000E+00  0.13606094209E+03  0.13606094218E+03  0.50400000000E-02 0.  1.
          1   -1    0    0  501    0  0.00000000000E+00 -0.00000000000E+00 -0.29532419788E+04  0.29532419788E+04  0.50400000000E-02 0. -1.
    8880022    1    1    2    0    0  0.33749664451E+03 -0.13047636511E+03 -0.19631071284E+03  0.43915557141E+03  0.15294330000E+03 0.  0.
    8880022    1    1    2    0    0 -0.33749664451E+03  0.13047636511E+03 -0.26208703238E+04  0.26501473496E+04  0.15294330000E+03 0. -1.
<mgrwt>
<rscale>  0 0.39283549E+03</rscale>
<asrwt>0</asrwt>
<pdfrwt beam="1">  1        1 0.45434487E+00 0.39283549E+03</pdfrwt>
<pdfrwt beam="2">  1       -1 0.20932455E-01 0.39283549E+03</pdfrwt>
<totfact> 0.14042211E+01</totfact>
</mgrwt>
</event>
<event>
 4    1  0.2293715E-008  0.6505115E+03  0.7818608E-02  0.9805820E-01
         -1   -1    0    0    0  501 -0.00000000000E+00  0.00000000000E+00  0.13277073806E+04  0.13277073806E+04  0.50400000000E-02 0.  1.
          1   -1    0    0  501    0  0.00000000000E+00 -0.00000000000E+00 -0.52390407409E+03  0.52390407411E+03  0.50400000000E-02 0. -1.
    8880022    1    1    2    0    0  0.54708877328E+03 -0.31696597930E+03 -0.17748320778E+03  0.67428888464E+03  0.15294330000E+03 0.  0.
    8880022    1    1    2    0    0 -0.54708877328E+03  0.31696597930E+03  0.98128651433E+03  0.11773225701E+04  0.15294330000E+03 0.  0.
<mgrwt>
<rscale>  0 0.65051150E+03</rscale>
<asrwt>0</asrwt>
<pdfrwt beam="1">  1        1 0.80600626E-01 0.65051150E+03</pdfrwt>
<pdfrwt beam="2">  1       -1 0.20426268E+00 0.65051150E+03</pdfrwt>
<totfact> 0.61384263E+00</totfact>
</mgrwt>
</event>
<event>
 4    1  0.2293715E-008  0.2848361E+03  0.7818608E-02  0.1093077E+00
         -1   -1    0    0    0  501 -0.00000000000E+00  0.00000000000E+00  0.79626103882E+03  0.79626103884E+03  0.50400000000E-02 0.  1.
          1   -1    0    0  501    0  0.00000000000E+00 -0.00000000000E+00 -0.15261166229E+03  0.15261166237E+03  0.50400000000E-02 0. -1.
    8880022    1    1    2    0    0  0.94527412708E+02  0.22091743209E+03  0.59533759639E+03  0.65996852217E+03  0.15294330000E+03 0.  0.
    8880022    1    1    2    0    0 -0.94527412708E+02 -0.22091743209E+03  0.48311780140E+02  0.28890417904E+03  0.15294330000E+03 0.  0.
<mgrwt>
<rscale>  0 0.28483609E+03</rscale>
<asrwt>0</asrwt>
<pdfrwt beam="1">  1        1 0.23478717E-01 0.28483609E+03</pdfrwt>
<pdfrwt beam="2">  1       -1 0.12250170E+00 0.28483609E+03</pdfrwt>
<totfact> 0.13111909E+02</totfact>
</mgrwt>
</event>
<event>
 4    1  0.2293715E-008  0.7869308E+03  0.7818608E-02  0.9579129E-01
         -1   -1    0    0    0  501 -0.00000000000E+00  0.00000000000E+00  0.48717441998E+03  0.48717442001E+03  0.50400000000E-02 0.  1.
          1   -1    0    0  501    0  0.00000000000E+00 -0.00000000000E+00 -0.14144823622E+04  0.14144823622E+04  0.50400000000E-02 0. -1.
    8880022    1    1    2    0    0  0.35373354937E+03  0.68610572948E+03 -0.76635341196E+03  0.10984342042E+04  0.15294330000E+03 0.  0.
    8880022    1    1    2    0    0 -0.35373354937E+03 -0.68610572948E+03 -0.16095453025E+03  0.80322257799E+03  0.15294330000E+03 0.  0.
<mgrwt>
<rscale>  0 0.78693084E+03</rscale>
<asrwt>0</asrwt>
<pdfrwt beam="1">  1        1 0.21761267E+00 0.78693084E+03</pdfrwt>
<pdfrwt beam="2">  1       -1 0.74949911E-01 0.78693084E+03</pdfrwt>
<totfact> 0.13845787E+01</totfact>
</mgrwt>
</event>
<event>
 4    1  0.2293715E-008  0.5628377E+03  0.7818608E-02  0.9985654E-01
         -1   -1    0    0    0  501 -0.00000000000E+00  0.00000000000E+00  0.62356932041E+03  0.62356932043E+03  0.50400000000E-02 0.  1.
          1   -1    0    0  501    0  0.00000000000E+00 -0.00000000000E+00 -0.65794567413E+03  0.65794567415E+03  0.50400000000E-02 0. -1.
    8880022    1    1    2    0    0 -0.53929060532E+03 -0.50599194586E+02  0.28868069736E+03  0.63255263300E+03  0.15294330000E+03 0.  0.
    8880022    1    1    2    0    0  0.53929060532E+03  0.50599194586E+02 -0.32305705107E+03  0.64896236157E+03  0.15294330000E+03 0.  0.
<mgrwt>
<rscale>  0 0.56283771E+03</rscale>
<asrwt>0</asrwt>
<pdfrwt beam="1">  1        1 0.10122241E+00 0.56283771E+03</pdfrwt>
<pdfrwt beam="2">  1       -1 0.95933741E-01 0.56283771E+03</pdfrwt>
<totfact> 0.32789832E+01</totfact>
</mgrwt>
</event>
<event>
 4    1  0.2293715E-008  0.6464955E+03  0.7818608E-02  0.9813378E-01
         -1   -1    0    0    0  501 -0.00000000000E+00  0.00000000000E+00  0.86916443654E+03  0.86916443656E+03  0.50400000000E-02 0.  1.
          1   -1    0    0  501    0  0.00000000000E+00 -0.00000000000E+00 -0.50755679372E+03  0.50755679374E+03  0.50400000000E-02 0. -1.
    8880022    1    1    2    0    0 -0.35026606933E+02  0.62716652776E+03  0.22966381570E+02  0.64690325740E+03  0.15294330000E+03 0. -1.
    8880022    1    1    2    0    0  0.35026606933E+02 -0.62716652776E+03  0.33864126126E+03  0.72981797290E+03  0.15294330000E+03 0.  0.
<mgrwt>
<rscale>  0 0.64649545E+03</rscale>
<asrwt>0</asrwt>
<pdfrwt beam="1">  1        1 0.78085660E-01 0.64649545E+03</pdfrwt>
<pdfrwt beam="2">  1       -1 0.13371761E+00 0.64649545E+03</pdfrwt>
<totfact> 0.21269829E+01</totfact>
</mgrwt>
</event>
<event>
 4    1  0.2293715E-008  0.7636537E+03  0.7818608E-02  0.9614170E-01
         -1   -1    0    0    0  501 -0.00000000000E+00  0.00000000000E+00  0.11378795981E+04  0.11378795981E+04  0.50400000000E-02 0.  1.
          1   -1    0    0  501    0  0.00000000000E+00 -0.00000000000E+00 -0.62069858527E+03  0.62069858529E+03  0.50400000000E-02 0. -1.
    8880022    1    1    2    0    0  0.74181475294E+03  0.97397262790E+02  0.62569994380E+03  0.98725246374E+03  0.15294330000E+03 0.  0.
    8880022    1    1    2    0    0 -0.74181475294E+03 -0.97397262790E+02 -0.10851893095E+03  0.77132571970E+03  0.15294330000E+03 0.  0.
<mgrwt>
<rscale>  0 0.76365372E+03</rscale>
<asrwt>0</asrwt>
<pdfrwt beam="1">  1        1 0.95492090E-01 0.76365372E+03</pdfrwt>
<pdfrwt beam="2">  1       -1 0.17505840E+00 0.76365372E+03</pdfrwt>
<totfact> 0.75924142E+00</totfact>
</mgrwt>
</event>
<event>
 4    1  0.3009092E-008  0.1116002E+04  0.7818608E-02  0.9189734E-01
          1   -1    0    0  501    0  0.00000000000E+00  0.00000000000E+00  0.22281688892E+04  0.22281688892E+04  0.50400000000E-02 0. -1.
         -1   -1    0    0    0  501 -0.00000000000E+00 -0.00000000000E+00 -0.14491215528E+04  0.14491215528E+04  0.50400000000E-02 0.  1.
    8880022    1    1    2    0    0 -0.68493226421E+03 -0.86771959866E+03 -0.10515278954E+04  0.15333532132E+04  0.15294330000E+03 0.  0.
    8880022    1    1    2    0    0  0.68493226421E+03  0.86771959866E+03  0.18305752319E+04  0.21439372288E+04  0.15294330000E+03 0.  0.
<mgrwt>
<rscale>  0 0.11160023E+04</rscale>
<asrwt>0</asrwt>
<pdfrwt beam="1">  1        1 0.34279521E+00 0.11160023E+04</pdfrwt>
<pdfrwt beam="2">  1       -1 0.22294178E+00 0.11160023E+04</pdfrwt>
<totfact> 0.21851300E-01</totfact>
</mgrwt>
</event>
<event>
 4    1  0.2293715E-008  0.1496449E+04  0.7818608E-02  0.8886818E-01
          1   -1    0    0  501    0  0.00000000000E+00  0.00000000000E+00  0.31425555705E+04  0.31425555705E+04  0.50400000000E-02 0. -1.
         -1   -1    0    0    0  501 -0.00000000000E+00 -0.00000000000E+00 -0.10523047840E+04  0.10523047840E+04  0.50400000000E-02 0.  1.
    8880022    1    1    2    0    0 -0.93012340426E+03 -0.11622556067E+04 -0.14659074342E+03  0.15036116991E+04  0.15294330000E+03 0.  0.
    8880022    1    1    2    0    0  0.93012340426E+03  0.11622556067E+04  0.22368415299E+04  0.26912486554E+04  0.15294330000E+03 0.  0.
<mgrwt>
<rscale>  0 0.14964489E+04</rscale>
<asrwt>0</asrwt>
<pdfrwt beam="1">  1        1 0.48347008E+00 0.14964489E+04</pdfrwt>
<pdfrwt beam="2">  1       -1 0.16189305E+00 0.14964489E+04</pdfrwt>
<totfact> 0.12633872E-01</totfact>
</mgrwt>
</event>
<event>
 4    1  0.2293715E-008  0.9366398E+03  0.7818608E-02  0.9380904E-01
          1   -1    0    0  501    0  0.00000000000E+00  0.00000000000E+00  0.11588252598E+04  0.11588252598E+04  0.50400000000E-02 0. -1.
         -1   -1    0    0    0  501 -0.00000000000E+00 -0.00000000000E+00 -0.83490206744E+03  0.83490206746E+03  0.50400000000E-02 0.  1.
    8880022    1    1    2    0    0  0.52131637447E+03  0.76297554589E+03  0.46635833009E+03  0.10463193542E+04  0.15294330000E+03 0.  0.
    8880022    1    1    2    0    0 -0.52131637447E+03 -0.76297554589E+03 -0.14243513775E+03  0.94740797305E+03  0.15294330000E+03 0.  0.
<mgrwt>
<rscale>  0 0.93663979E+03</rscale>
<asrwt>0</asrwt>
<pdfrwt beam="1">  1        1 0.17828081E+00 0.93663979E+03</pdfrwt>
<pdfrwt beam="2">  1       -1 0.12844647E+00 0.93663979E+03</pdfrwt>
<totfact> 0.60535020E+00</totfact>
</mgrwt>
</event>
<event>
 4    1  0.2293715E-008  0.4757064E+03  0.7818608E-02  0.1020322E+00
          1   -1    0    0  501    0  0.00000000000E+00  0.00000000000E+00  0.84908615771E+03  0.84908615772E+03  0.50400000000E-02 0. -1.
         -1   -1    0    0    0  501 -0.00000000000E+00 -0.00000000000E+00 -0.32238678039E+03  0.32238678043E+03  0.50400000000E-02 0.  1.
    8880022    1    1    2    0    0 -0.44377228323E+03 -0.77272598790E+02  0.19512943379E+02  0.47610639763E+03  0.15294330000E+03 0.  0.
    8880022    1    1    2    0    0  0.44377228323E+03  0.77272598790E+02  0.50718643394E+03  0.69536654052E+03  0.15294330000E+03 0.  0.
<mgrwt>
<rscale>  0 0.47570637E+03</rscale>
<asrwt>0</asrwt>
<pdfrwt beam="1">  1        1 0.13062864E+00 0.47570637E+03</pdfrwt>
<pdfrwt beam="2">  1       -1 0.49597966E-01 0.47570637E+03</pdfrwt>
<totfact> 0.85753924E+01</totfact>
</mgrwt>
</event>
<event>
 4    1  0.2293715E-008  0.4213256E+03  0.7818608E-02  0.1036636E+00
         -1   -1    0    0    0  501 -0.00000000000E+00  0.00000000000E+00  0.66692941328E+03  0.66692941330E+03  0.50400000000E-02 0.  1.
          1   -1    0    0  501    0  0.00000000000E+00 -0.00000000000E+00 -0.51931664158E+03  0.51931664160E+03  0.50400000000E-02 0. -1.
    8880022    1    1    2    0    0 -0.37071048968E+03 -0.12921815625E+03 -0.34030434711E+03  0.54159237508E+03  0.15294330000E+03 0.  0.
    8880022    1    1    2    0    0  0.37071048968E+03  0.12921815625E+03  0.48791711882E+03  0.64465367983E+03  0.15294330000E+03 0.  0.
<mgrwt>
<rscale>  0 0.42132559E+03</rscale>
<asrwt>0</asrwt>
<pdfrwt beam="1">  1        1 0.79894868E-01 0.42132559E+03</pdfrwt>
<pdfrwt beam="2">  1       -1 0.10260452E+00 0.42132559E+03</pdfrwt>
<totfact> 0.40183381E+01</totfact>
</mgrwt>
</event>
<event>
 4    1  0.2293715E-008  0.4593034E+03  0.7818608E-02  0.1024983E+00
          1   -1    0    0  501    0  0.00000000000E+00  0.00000000000E+00  0.52224800558E+03  0.52224800561E+03  0.50400000000E-02 0. -1.
         -1   -1    0    0    0  501 -0.00000000000E+00 -0.00000000000E+00 -0.52474919857E+03  0.52474919860E+03  0.50400000000E-02 0.  1.
    8880022    1    1    2    0    0 -0.36625298110E+03  0.23114223227E+03  0.24992653570E+03  0.52289855992E+03  0.15294330000E+03 0.  0.
    8880022    1    1    2    0    0  0.36625298110E+03 -0.23114223227E+03 -0.25242772869E+03  0.52409864428E+03  0.15294330000E+03 0.  0.
<mgrwt>
<rscale>  0 0.45930342E+03</rscale>
<asrwt>0</asrwt>
<pdfrwt beam="1">  1        1 0.80345848E-01 0.45930342E+03</pdfrwt>
<pdfrwt beam="2">  1       -1 0.80730645E-01 0.45930342E+03</pdfrwt>
<totfact> 0.67004133E+01</totfact>
</mgrwt>
</event>
<event>
 4    1  0.2293715E-008  0.1180170E+04  0.7818608E-02  0.9130393E-01
         -1   -1    0    0    0  501 -0.00000000000E+00  0.00000000000E+00  0.24394678603E+04  0.24394678603E+04  0.50400000000E-02 0.  1.
          1   -1    0    0  501    0  0.00000000000E+00 -0.00000000000E+00 -0.12185936695E+04  0.12185936695E+04  0.50400000000E-02 0. -1.
    8880022    1    1    2    0    0  0.74672497348E+03  0.90100639393E+03  0.19438395118E+04  0.22740524200E+04  0.15294330000E+03 0.  0.
    8880022    1    1    2    0    0 -0.74672497348E+03 -0.90100639393E+03 -0.72296532101E+03  0.13840091099E+04  0.15294330000E+03 0.  0.
<mgrwt>
<rscale>  0 0.11801705E+04</rscale>
<asrwt>0</asrwt>
<pdfrwt beam="1">  1        1 0.18747595E+00 0.11801705E+04</pdfrwt>
<pdfrwt beam="2">  1       -1 0.37530275E+00 0.11801705E+04</pdfrwt>
<totfact> 0.10823918E-01</totfact>
</mgrwt>
</event>
<event>
 4    1  0.2293715E-008  0.1430223E+04  0.7818608E-02  0.8932227E-01
          1   -1    0    0  501    0  0.00000000000E+00  0.00000000000E+00  0.24141947154E+04  0.24141947154E+04  0.50400000000E-02 0. -1.
         -1   -1    0    0    0  501 -0.00000000000E+00 -0.00000000000E+00 -0.13802848473E+04  0.13802848473E+04  0.50400000000E-02 0.  1.
    8880022    1    1    2    0    0 -0.11786841035E+04  0.79551911112E+03  0.16959086465E+04  0.22184780058E+04  0.15294330000E+03 0.  0.
    8880022    1    1    2    0    0  0.11786841035E+04 -0.79551911112E+03 -0.66199877841E+03  0.15760015570E+04  0.15294330000E+03 0.  0.
<mgrwt>
<rscale>  0 0.14302232E+04</rscale>
<asrwt>0</asrwt>
<pdfrwt beam="1">  1        1 0.37141457E+00 0.14302232E+04</pdfrwt>
<pdfrwt beam="2">  1       -1 0.21235152E+00 0.14302232E+04</pdfrwt>
<totfact> 0.18345976E-01</totfact>
</mgrwt>
</event>
<event>
 4    1  0.2293715E-008  0.4989146E+03  0.7818608E-02  0.1014063E+00
          1   -1    0    0  501    0  0.00000000000E+00  0.00000000000E+00  0.24627446747E+04  0.24627446747E+04  0.50400000000E-02 0. -1.
         -1   -1    0    0    0  501 -0.00000000000E+00 -0.00000000000E+00 -0.19603763426E+03  0.19603763432E+03  0.50400000000E-02 0.  1.
    8880022    1    1    2    0    0 -0.47168180547E+03  0.55139894830E+02  0.20586163759E+04  0.21182108417E+04  0.15294330000E+03 0.  0.
    8880022    1    1    2    0    0  0.47168180547E+03 -0.55139894830E+02  0.20809066450E+03  0.54057146732E+03  0.15294330000E+03 0.  0.
<mgrwt>
<rscale>  0 0.49891461E+03</rscale>
<asrwt>0</asrwt>
<pdfrwt beam="1">  1        1 0.37888379E+00 0.49891461E+03</pdfrwt>
<pdfrwt beam="2">  1       -1 0.30159637E-01 0.49891461E+03</pdfrwt>
<totfact> 0.15987070E+01</totfact>
</mgrwt>
</event>
<event>
 4    1  0.2293715E-008  0.7552685E+03  0.7818608E-02  0.9627121E-01
         -1   -1    0    0    0  501 -0.00000000000E+00  0.00000000000E+00  0.84255701440E+03  0.84255701441E+03  0.50400000000E-02 0.  1.
          1   -1    0    0  501    0  0.00000000000E+00 -0.00000000000E+00 -0.13373626306E+04  0.13373626306E+04  0.50400000000E-02 0. -1.
    8880022    1    1    2    0    0  0.57077050870E+03 -0.47038270943E+03  0.51849277037E+03  0.91611422480E+03  0.15294330000E+03 0.  0.
    8880022    1    1    2    0    0 -0.57077050870E+03  0.47038270943E+03 -0.10132983866E+04  0.12638054202E+04  0.15294330000E+03 0.  0.
<mgrwt>
<rscale>  0 0.75526851E+03</rscale>
<asrwt>0</asrwt>
<pdfrwt beam="1">  1        1 0.20574810E+00 0.75526851E+03</pdfrwt>
<pdfrwt beam="2">  1       -1 0.12962416E+00 0.75526851E+03</pdfrwt>
<totfact> 0.45176179E+00</totfact>
</mgrwt>
</event>
<event>
 4    1  0.2293715E-008  0.1553297E+03  0.7818608E-02  0.1194073E+00
         -1   -1    0    0    0  501 -0.00000000000E+00  0.00000000000E+00  0.34543452563E+03  0.34543452567E+03  0.50400000000E-02 0.  1.
          1   -1    0    0  501    0  0.00000000000E+00 -0.00000000000E+00 -0.22055423200E+03  0.22055423206E+03  0.50400000000E-02 0. -1.
    8880022    1    1    2    0    0  0.20579196152E+02  0.17667794345E+02  0.29637139303E+03  0.33460918979E+03  0.15294330000E+03 0.  0.
    8880022    1    1    2    0    0 -0.20579196152E+02 -0.17667794345E+02 -0.17149109940E+03  0.23137956794E+03  0.15294330000E+03 0. -1.
<mgrwt>
<rscale>  0 0.15532967E+03</rscale>
<asrwt>0</asrwt>
<pdfrwt beam="1">  1        1 0.33931420E-01 0.15532967E+03</pdfrwt>
<pdfrwt beam="2">  1       -1 0.53143773E-01 0.15532967E+03</pdfrwt>
<totfact> 0.47776912E+02</totfact>
</mgrwt>
</event>
<event>
 4    1  0.2293715E-008  0.3165880E+03  0.7818608E-02  0.1077230E+00
         -1   -1    0    0    0  501 -0.00000000000E+00  0.00000000000E+00  0.14499294718E+03  0.14499294727E+03  0.50400000000E-02 0.  1.
          1   -1    0    0  501    0  0.00000000000E+00 -0.00000000000E+00 -0.11773846750E+04  0.11773846750E+04  0.50400000000E-02 0. -1.
    8880022    1    1    2    0    0 -0.26812315617E+03  0.70329689427E+02 -0.91341808295E+02  0.32950154938E+03  0.15294330000E+03 0.  0.
    8880022    1    1    2    0    0  0.26812315617E+03 -0.70329689427E+02 -0.94104991950E+03  0.99287607287E+03  0.15294330000E+03 0.  0.
<mgrwt>
<rscale>  0 0.31658797E+03</rscale>
<asrwt>0</asrwt>
<pdfrwt beam="1">  1        1 0.18113610E+00 0.31658797E+03</pdfrwt>
<pdfrwt beam="2">  1       -1 0.22306608E-01 0.31658797E+03</pdfrwt>
<totfact> 0.20023905E+02</totfact>
</mgrwt>
</event>
<event>
 4    1  0.2293715E-008  0.3598402E+03  0.7818608E-02  0.1058647E+00
          1   -1    0    0  501    0  0.00000000000E+00  0.00000000000E+00  0.13308878294E+04  0.13308878294E+04  0.50400000000E-02 0. -1.
         -1   -1    0    0    0  501 -0.00000000000E+00 -0.00000000000E+00 -0.44099495172E+03  0.44099495175E+03  0.50400000000E-02 0.  1.
    8880022    1    1    2    0    0 -0.26345980838E+03  0.19152609295E+03 -0.33718493150E+03  0.49313146924E+03  0.15294330000E+03 0.  0.
    8880022    1    1    2    0    0  0.26345980838E+03 -0.19152609295E+03  0.12270778092E+04  0.12787513119E+04  0.15294330000E+03 0.  0.
<mgrwt>
<rscale>  0 0.35984020E+03</rscale>
<asrwt>0</asrwt>
<pdfrwt beam="1">  1        1 0.20475197E+00 0.35984020E+03</pdfrwt>
<pdfrwt beam="2">  1       -1 0.67845377E-01 0.35984020E+03</pdfrwt>
<totfact> 0.20996670E+01</totfact>
</mgrwt>
</event>
<event>
 4    1  0.2369700E-008  0.9766666E+03  0.7818608E-02  0.9334513E-01
          1   -1    0    0  501    0  0.00000000000E+00  0.00000000000E+00  0.14808367785E+04  0.14808367785E+04  0.50400000000E-02 0. -1.
         -1   -1    0    0    0  501 -0.00000000000E+00 -0.00000000000E+00 -0.12145625430E+04  0.12145625430E+04  0.50400000000E-02 0.  1.
    8880022    1    1    2    0    0 -0.66013523683E+03  0.70335437345E+03  0.10567257912E+04  0.14389395249E+04  0.15294330000E+03 0.  0.
    8880022    1    1    2    0    0  0.66013523683E+03 -0.70335437345E+03 -0.79045155573E+03  0.12564597966E+04  0.15294330000E+03 0.  0.
<mgrwt>
<rscale>  0 0.97666655E+03</rscale>
<asrwt>0</asrwt>
<pdfrwt beam="1">  1        1 0.22782104E+00 0.97666655E+03</pdfrwt>
<pdfrwt beam="2">  1       -1 0.18685578E+00 0.97666655E+03</pdfrwt>
<totfact> 0.12667605E+00</totfact>
</mgrwt>
</event>
<event>
 4    1  0.2293715E-008  0.7734542E+03  0.7818608E-02  0.9599256E-01
         -1   -1    0    0    0  501 -0.00000000000E+00  0.00000000000E+00  0.48998199948E+03  0.48998199950E+03  0.50400000000E-02 0.  1.
          1   -1    0    0  501    0  0.00000000000E+00 -0.00000000000E+00 -0.13599134828E+04  0.13599134828E+04  0.50400000000E-02 0. -1.
    8880022    1    1    2    0    0 -0.57981652361E+03  0.48852076616E+03 -0.13926624871E+03  0.78589215613E+03  0.15294330000E+03 0.  0.
    8880022    1    1    2    0    0  0.57981652361E+03 -0.48852076616E+03 -0.73066523459E+03  0.10640033262E+04  0.15294330000E+03 0.  0.
<mgrwt>
<rscale>  0 0.77345420E+03</rscale>
<asrwt>0</asrwt>
<pdfrwt beam="1">  1        1 0.20921746E+00 0.77345420E+03</pdfrwt>
<pdfrwt beam="2">  1       -1 0.75381846E-01 0.77345420E+03</pdfrwt>
<totfact> 0.14958665E+01</totfact>
</mgrwt>
</event>
<event>
 4    1  0.2293715E-008  0.1187979E+04  0.7818608E-02  0.9123444E-01
          1   -1    0    0  501    0  0.00000000000E+00  0.00000000000E+00  0.17498114201E+04  0.17498114201E+04  0.50400000000E-02 0. -1.
         -1   -1    0    0    0  501 -0.00000000000E+00 -0.00000000000E+00 -0.13398565907E+04  0.13398565908E+04  0.50400000000E-02 0.  1.
    8880022    1    1    2    0    0  0.10554524056E+04  0.52337523240E+03  0.11796195239E+04  0.16741550970E+04  0.15294330000E+03 0.  0.
    8880022    1    1    2    0    0 -0.10554524056E+04 -0.52337523240E+03 -0.76966469454E+03  0.14155129139E+04  0.15294330000E+03 0.  0.
<mgrwt>
<rscale>  0 0.11879786E+04</rscale>
<asrwt>0</asrwt>
<pdfrwt beam="1">  1        1 0.26920176E+00 0.11879786E+04</pdfrwt>
<pdfrwt beam="2">  1       -1 0.20613178E+00 0.11879786E+04</pdfrwt>
<totfact> 0.59126271E-01</totfact>
</mgrwt>
</event>
<event>
 4    1  0.2293715E-008  0.4309647E+03  0.7818608E-02  0.1033556E+00
         -1   -1    0    0    0  501 -0.00000000000E+00  0.00000000000E+00  0.43975880915E+03  0.43975880918E+03  0.50400000000E-02 0.  1.
          1   -1    0    0  501    0  0.00000000000E+00 -0.00000000000E+00 -0.14688245098E+04  0.14688245098E+04  0.50400000000E-02 0. -1.
    8880022    1    1    2    0    0 -0.69174471005E+02  0.39693053848E+03  0.29095912309E+03  0.51998829231E+03  0.15294330000E+03 0.  0.
    8880022    1    1    2    0    0  0.69174471005E+02 -0.39693053848E+03 -0.13200248237E+04  0.13885950267E+04  0.15294330000E+03 0.  0.
<mgrwt>
<rscale>  0 0.43096475E+03</rscale>
<asrwt>0</asrwt>
<pdfrwt beam="1">  1        1 0.22597300E+00 0.43096475E+03</pdfrwt>
<pdfrwt beam="2">  1       -1 0.67655202E-01 0.43096475E+03</pdfrwt>
<totfact> 0.16692988E+01</totfact>
</mgrwt>
</event>
<event>
 4    1  0.2293715E-008  0.1779993E+03  0.7818608E-02  0.1169753E+00
          1   -1    0    0  501    0  0.00000000000E+00  0.00000000000E+00  0.16933990508E+03  0.16933990516E+03  0.50400000000E-02 0. -1.
         -1   -1    0    0    0  501 -0.00000000000E+00 -0.00000000000E+00 -0.23273427061E+03  0.23273427067E+03  0.50400000000E-02 0.  1.
    8880022    1    1    2    0    0 -0.13760523074E+02 -0.90015320212E+02  0.57322097772E+02  0.18700156624E+03  0.15294330000E+03 0.  0.
    8880022    1    1    2    0    0  0.13760523074E+02  0.90015320212E+02 -0.12071646330E+03  0.21507260959E+03  0.15294330000E+03 0.  0.
<mgrwt>
<rscale>  0 0.17799933E+03</rscale>
<asrwt>0</asrwt>
<pdfrwt beam="1">  1        1 0.26052293E-01 0.17799933E+03</pdfrwt>
<pdfrwt beam="2">  1       -1 0.35805272E-01 0.17799933E+03</pdfrwt>
<totfact> 0.13507154E+03</totfact>
</mgrwt>
</event>
<event>
 4    1  0.2293715E-008  0.4540442E+03  0.7818608E-02  0.1026523E+00
          1   -1    0    0  501    0  0.00000000000E+00  0.00000000000E+00  0.27358791506E+04  0.27358791506E+04  0.50400000000E-02 0. -1.
         -1   -1    0    0    0  501 -0.00000000000E+00 -0.00000000000E+00 -0.40907791086E+03  0.40907791090E+03  0.50400000000E-02 0.  1.
    8880022    1    1    2    0    0  0.12356162429E+03  0.40926403278E+03  0.25836877370E+04  0.26232801030E+04  0.15294330000E+03 0.  0.
    8880022    1    1    2    0    0 -0.12356162429E+03 -0.40926403278E+03 -0.25688649726E+03  0.52167695849E+03  0.15294330000E+03 0.  0.
<mgrwt>
<rscale>  0 0.45404425E+03</rscale>
<asrwt>0</asrwt>
<pdfrwt beam="1">  1        1 0.42090447E+00 0.45404425E+03</pdfrwt>
<pdfrwt beam="2">  1       -1 0.62935065E-01 0.45404425E+03</pdfrwt>
<totfact> 0.27322455E+00</totfact>
</mgrwt>
</event>
<event>
 4    1  0.2293715E-008  0.4187180E+03  0.7818608E-02  0.1037484E+00
         -1   -1    0    0    0  501 -0.00000000000E+00  0.00000000000E+00  0.47130774120E+03  0.47130774123E+03  0.50400000000E-02 0.  1.
          1   -1    0    0  501    0  0.00000000000E+00 -0.00000000000E+00 -0.94304345100E+03  0.94304345101E+03  0.50400000000E-02 0. -1.
    8880022    1    1    2    0    0  0.33102930833E+03 -0.20579773699E+03 -0.78616514602E+03  0.89071903614E+03  0.15294330000E+03 0.  0.
    8880022    1    1    2    0    0 -0.33102930833E+03  0.20579773699E+03  0.31442943622E+03  0.52363215609E+03  0.15294330000E+03 0.  0.
<mgrwt>
<rscale>  0 0.41871800E+03</rscale>
<asrwt>0</asrwt>
<pdfrwt beam="1">  1        1 0.14508361E+00 0.41871800E+03</pdfrwt>
<pdfrwt beam="2">  1       -1 0.72508884E-01 0.41871800E+03</pdfrwt>
<totfact> 0.34641011E+01</totfact>
</mgrwt>
</event>
<event>
 4    1  0.2293715E-008  0.4559107E+03  0.7818608E-02  0.1025974E+00
         -1   -1    0    0    0  501 -0.00000000000E+00  0.00000000000E+00  0.14580737330E+04  0.14580737330E+04  0.50400000000E-02 0.  1.
          1   -1    0    0  501    0  0.00000000000E+00 -0.00000000000E+00 -0.41918946733E+03  0.41918946736E+03  0.50400000000E-02 0. -1.
    8880022    1    1    2    0    0 -0.22160093035E+02  0.42891944133E+03 -0.24306467008E+03  0.51665756912E+03  0.15294330000E+03 0.  0.
    8880022    1    1    2    0    0  0.22160093035E+02 -0.42891944133E+03  0.12819489357E+04  0.13606056312E+04  0.15294330000E+03 0.  0.
<mgrwt>
<rscale>  0 0.45591075E+03</rscale>
<asrwt>0</asrwt>
<pdfrwt beam="1">  1        1 0.64490687E-01 0.45591075E+03</pdfrwt>
<pdfrwt beam="2">  1       -1 0.22431904E+00 0.45591075E+03</pdfrwt>
<totfact> 0.63305432E+00</totfact>
</mgrwt>
</event>
<event>
 4    1  0.2293715E-008  0.6417347E+03  0.7818608E-02  0.9822413E-01
         -1   -1    0    0    0  501 -0.00000000000E+00  0.00000000000E+00  0.14857560146E+04  0.14857560146E+04  0.50400000000E-02 0.  1.
          1   -1    0    0  501    0  0.00000000000E+00 -0.00000000000E+00 -0.51799714800E+03  0.51799714802E+03  0.50400000000E-02 0. -1.
    8880022    1    1    2    0    0  0.62324166997E+03  0.12370533847E+01  0.11669936576E+04  0.13318023725E+04  0.15294330000E+03 0.  0.
    8880022    1    1    2    0    0 -0.62324166997E+03 -0.12370533847E+01 -0.19923479095E+03  0.67195079018E+03  0.15294330000E+03 0.  0.
<mgrwt>
<rscale>  0 0.64173465E+03</rscale>
<asrwt>0</asrwt>
<pdfrwt beam="1">  1        1 0.79691870E-01 0.64173465E+03</pdfrwt>
<pdfrwt beam="2">  1       -1 0.22857785E+00 0.64173465E+03</pdfrwt>
<totfact> 0.43037834E+00</totfact>
</mgrwt>
</event>
<event>
 4    1  0.2293715E-008  0.1326019E+04  0.7818608E-02  0.9009183E-01
          1   -1    0    0  501    0  0.00000000000E+00  0.00000000000E+00  0.16445900881E+04  0.16445900881E+04  0.50400000000E-02 0. -1.
         -1   -1    0    0    0  501 -0.00000000000E+00 -0.00000000000E+00 -0.13948659889E+04  0.13948659889E+04  0.50400000000E-02 0.  1.
    8880022    1    1    2    0    0 -0.13171550965E+04  0.61015445256E+01  0.85923036035E+03  0.15800643159E+04  0.15294330000E+03 0.  0.
    8880022    1    1    2    0    0  0.13171550965E+04 -0.61015445256E+01 -0.60950626112E+03  0.14593917611E+04  0.15294330000E+03 0.  0.
<mgrwt>
<rscale>  0 0.13260190E+04</rscale>
<asrwt>0</asrwt>
<pdfrwt beam="1">  1        1 0.25301386E+00 0.13260190E+04</pdfrwt>
<pdfrwt beam="2">  1       -1 0.21459477E+00 0.13260190E+04</pdfrwt>
<totfact> 0.60035955E-01</totfact>
</mgrwt>
</event>
<event>
 4    1  0.2293715E-008  0.5156015E+03  0.7818608E-02  0.1009785E+00
         -1   -1    0    0    0  501 -0.00000000000E+00  0.00000000000E+00  0.15769852929E+03  0.15769852937E+03  0.50400000000E-02 0.  1.
          1   -1    0    0  501    0  0.00000000000E+00 -0.00000000000E+00 -0.19450094855E+04  0.19450094855E+04  0.50400000000E-02 0. -1.
    8880022    1    1    2    0    0 -0.31577320327E+03  0.37781014914E+03 -0.12774785734E+04  0.13776053074E+04  0.15294330000E+03 0.  0.
    8880022    1    1    2    0    0  0.31577320327E+03 -0.37781014914E+03 -0.50983238286E+03  0.72510270743E+03  0.15294330000E+03 0.  0.
<mgrwt>
<rscale>  0 0.51560147E+03</rscale>
<asrwt>0</asrwt>
<pdfrwt beam="1">  1        1 0.29923221E+00 0.51560147E+03</pdfrwt>
<pdfrwt beam="2">  1       -1 0.24261314E-01 0.51560147E+03</pdfrwt>
<totfact> 0.51113702E+01</totfact>
</mgrwt>
</event>
<event>
 4    1  0.2293715E-008  0.1747431E+03  0.7818608E-02  0.1172990E+00
         -1   -1    0    0    0  501 -0.00000000000E+00  0.00000000000E+00  0.25521381269E+03  0.25521381274E+03  0.50400000000E-02 0.  1.
          1   -1    0    0  501    0  0.00000000000E+00 -0.00000000000E+00 -0.12396390641E+03  0.12396390651E+03  0.50400000000E-02 0. -1.
    8880022    1    1    2    0    0  0.81076148551E+02 -0.23878301099E+02  0.10101084272E+03  0.20183745561E+03  0.15294330000E+03 0.  0.
    8880022    1    1    2    0    0 -0.81076148551E+02  0.23878301099E+02  0.30239063568E+02  0.17734026364E+03  0.15294330000E+03 0.  0.
<mgrwt>
<rscale>  0 0.17474315E+03</rscale>
<asrwt>0</asrwt>
<pdfrwt beam="1">  1        1 0.19071370E-01 0.17474315E+03</pdfrwt>
<pdfrwt beam="2">  1       -1 0.39263663E-01 0.17474315E+03</pdfrwt>
<totfact> 0.17094960E+03</totfact>
</mgrwt>
</event>
<event>
 4    1  0.2293715E-008  0.5829946E+03  0.7818608E-02  0.9941329E-01
          1   -1    0    0  501    0  0.00000000000E+00  0.00000000000E+00  0.15956702425E+04  0.15956702425E+04  0.50400000000E-02 0. -1.
         -1   -1    0    0    0  501 -0.00000000000E+00 -0.00000000000E+00 -0.43161012200E+03  0.43161012202E+03  0.50400000000E-02 0.  1.
    8880022    1    1    2    0    0  0.47405442385E+03 -0.30292480887E+03  0.13034199865E+04  0.14278607603E+04  0.15294330000E+03 0.  0.
    8880022    1    1    2    0    0 -0.47405442385E+03  0.30292480887E+03 -0.13935986604E+03  0.59941960418E+03  0.15294330000E+03 0.  0.
<mgrwt>
<rscale>  0 0.58299459E+03</rscale>
<asrwt>0</asrwt>
<pdfrwt beam="1">  1        1 0.24548773E+00 0.58299459E+03</pdfrwt>
<pdfrwt beam="2">  1       -1 0.66401558E-01 0.58299459E+03</pdfrwt>
<totfact> 0.13776903E+01</totfact>
</mgrwt>
</event>
<event>
 4    1  0.2293715E-008  0.3282139E+03  0.7818608E-02  0.1071930E+00
         -1   -1    0    0    0  501 -0.00000000000E+00  0.00000000000E+00  0.11161883787E+04  0.11161883787E+04  0.50400000000E-02 0.  1.
          1   -1    0    0  501    0  0.00000000000E+00 -0.00000000000E+00 -0.32313868504E+03  0.32313868508E+03  0.50400000000E-02 0. -1.
    8880022    1    1    2    0    0  0.27645057469E+03 -0.88925601946E+02  0.99921154187E+03  0.10517357279E+04  0.15294330000E+03 0.  1.
    8880022    1    1    2    0    0 -0.27645057469E+03  0.88925601946E+02 -0.20616184826E+03  0.38759133584E+03  0.15294330000E+03 0.  0.
<mgrwt>
<rscale>  0 0.32821386E+03</rscale>
<asrwt>0</asrwt>
<pdfrwt beam="1">  1        1 0.49713644E-01 0.32821386E+03</pdfrwt>
<pdfrwt beam="2">  1       -1 0.17172129E+00 0.32821386E+03</pdfrwt>
<totfact> 0.20797979E+01</totfact>
</mgrwt>
</event>
<event>
 4    1  0.2293715E-008  0.5380818E+03  0.7818608E-02  0.1004291E+00
          1   -1    0    0  501    0  0.00000000000E+00  0.00000000000E+00  0.27096037076E+03  0.27096037080E+03  0.50400000000E-02 0. -1.
         -1   -1    0    0    0  501 -0.00000000000E+00 -0.00000000000E+00 -0.11011626333E+04  0.11011626333E+04  0.50400000000E-02 0.  1.
    8880022    1    1    2    0    0  0.48569874573E+03 -0.17388831690E+03 -0.29701607564E+03  0.61461420465E+03  0.15294330000E+03 0.  0.
    8880022    1    1    2    0    0 -0.48569874573E+03  0.17388831690E+03 -0.53318618693E+03  0.75750879949E+03  0.15294330000E+03 0.  0.
<mgrwt>
<rscale>  0 0.53808184E+03</rscale>
<asrwt>0</asrwt>
<pdfrwt beam="1">  1        1 0.41686211E-01 0.53808184E+03</pdfrwt>
<pdfrwt beam="2">  1       -1 0.16940963E+00 0.53808184E+03</pdfrwt>
<totfact> 0.26092964E+01</totfact>
</mgrwt>
</event>
<event>
 4    1  0.2293715E-008  0.6492666E+03  0.7818608E-02  0.9808156E-01
          1   -1    0    0  501    0  0.00000000000E+00  0.00000000000E+00  0.82452558029E+03  0.82452558031E+03  0.50400000000E-02 0. -1.
         -1   -1    0    0    0  501 -0.00000000000E+00 -0.00000000000E+00 -0.11085686031E+04  0.11085686031E+04  0.50400000000E-02 0.  1.
    8880022    1    1    2    0    0  0.42074325495E+03 -0.47024521859E+03 -0.85150296479E+03  0.10707961544E+04  0.15294330000E+03 0.  0.
    8880022    1    1    2    0    0 -0.42074325495E+03  0.47024521859E+03  0.56745994195E+03  0.86229802906E+03  0.15294330000E+03 0.  0.
<mgrwt>
<rscale>  0 0.64926659E+03</rscale>
<asrwt>0</asrwt>
<pdfrwt beam="1">  1        1 0.12685009E+00 0.64926659E+03</pdfrwt>
<pdfrwt beam="2">  1       -1 0.17054902E+00 0.64926659E+03</pdfrwt>
<totfact> 0.54016612E+00</totfact>
</mgrwt>
</event>
<event>
 4    1  0.2293715E-008  0.5755845E+03  0.7818608E-02  0.9957396E-01
         -1   -1    0    0    0  501 -0.00000000000E+00  0.00000000000E+00  0.92432341526E+03  0.92432341527E+03  0.50400000000E-02 0.  1.
          1   -1    0    0  501    0  0.00000000000E+00 -0.00000000000E+00 -0.99200638111E+03  0.99200638112E+03  0.50400000000E-02 0. -1.
    8880022    1    1    2    0    0  0.17792186017E+03  0.52559463776E+03  0.73190561558E+03  0.93111943096E+03  0.15294330000E+03 0.  0.
    8880022    1    1    2    0    0 -0.17792186017E+03 -0.52559463776E+03 -0.79958858144E+03  0.98521036543E+03  0.15294330000E+03 0.  0.
<mgrwt>
<rscale>  0 0.57558454E+03</rscale>
<asrwt>0</asrwt>
<pdfrwt beam="1">  1        1 0.15261637E+00 0.57558454E+03</pdfrwt>
<pdfrwt beam="2">  1       -1 0.14220360E+00 0.57558454E+03</pdfrwt>
<totfact> 0.65852939E+00</totfact>
</mgrwt>
</event>
<event>
 4    1  0.2293715E-008  0.9685577E+03  0.7818608E-02  0.9343719E-01
         -1   -1    0    0    0  501 -0.00000000000E+00  0.00000000000E+00  0.59453718846E+03  0.59453718848E+03  0.50400000000E-02 0.  1.
          1   -1    0    0  501    0  0.00000000000E+00 -0.00000000000E+00 -0.26120525926E+04  0.26120525926E+04  0.50400000000E-02 0. -1.
    8880022    1    1    2    0    0 -0.95263371664E+03  0.84860948730E+02 -0.20175934970E+04  0.22380320710E+04  0.15294330000E+03 0.  0.
    8880022    1    1    2    0    0  0.95263371664E+03 -0.84860948730E+02  0.78092837923E-01  0.96855771010E+03  0.15294330000E+03 0.  0.
<mgrwt>
<rscale>  0 0.96855771E+03</rscale>
<asrwt>0</asrwt>
<pdfrwt beam="1">  1        1 0.40185424E+00 0.96855771E+03</pdfrwt>
<pdfrwt beam="2">  1       -1 0.91467261E-01 0.96855771E+03</pdfrwt>
<totfact> 0.13528583E+00</totfact>
</mgrwt>
</event>
<event>
 4    1  0.2293715E-008  0.1080789E+04  0.7818608E-02  0.9224121E-01
          1   -1    0    0  501    0  0.00000000000E+00  0.00000000000E+00  0.56824885502E+03  0.56824885504E+03  0.50400000000E-02 0. -1.
         -1   -1    0    0    0  501 -0.00000000000E+00 -0.00000000000E+00 -0.21053277275E+04  0.21053277275E+04  0.50400000000E-02 0.  1.
    8880022    1    1    2    0    0 -0.10124983723E+04 -0.34577581734E+03 -0.97393960996E+03  0.14548759008E+04  0.15294330000E+03 0.  1.
    8880022    1    1    2    0    0  0.10124983723E+04  0.34577581734E+03 -0.56313926252E+03  0.12187006818E+04  0.15294330000E+03 0.  0.
<mgrwt>
<rscale>  0 0.10807893E+04</rscale>
<asrwt>0</asrwt>
<pdfrwt beam="1">  1        1 0.87422902E-01 0.10807893E+04</pdfrwt>
<pdfrwt beam="2">  1       -1 0.32389657E+00 0.10807893E+04</pdfrwt>
<totfact> 0.86009168E-01</totfact>
</mgrwt>
</event>
<event>
 4    1  0.2293715E-008  0.3103944E+03  0.7818608E-02  0.1080157E+00
         -1   -1    0    0    0  501 -0.00000000000E+00  0.00000000000E+00  0.15573880284E+03  0.15573880292E+03  0.50400000000E-02 0.  1.
          1   -1    0    0  501    0  0.00000000000E+00 -0.00000000000E+00 -0.14808270962E+04  0.14808270962E+04  0.50400000000E-02 0. -1.
    8880022    1    1    2    0    0  0.23408958221E+03 -0.13474082701E+03 -0.12869322725E+04  0.13238350917E+04  0.15294330000E+03 0.  0.
    8880022    1    1    2    0    0 -0.23408958221E+03  0.13474082701E+03 -0.38156020814E+02  0.31273080740E+03  0.15294330000E+03 0.  1.
<mgrwt>
<rscale>  0 0.31039439E+03</rscale>
<asrwt>0</asrwt>
<pdfrwt beam="1">  1        1 0.22781954E+00 0.31039439E+03</pdfrwt>
<pdfrwt beam="2">  1       -1 0.23959817E-01 0.31039439E+03</pdfrwt>
<totfact> 0.11023484E+02</totfact>
</mgrwt>
</event>
<event>
 4    1  0.2293715E-008  0.1215847E+04  0.7818608E-02  0.9099098E-01
         -1   -1    0    0    0  501 -0.00000000000E+00  0.00000000000E+00  0.10415193436E+04  0.10415193436E+04  0.50400000000E-02 0.  1.
          1   -1    0    0  501    0  0.00000000000E+00 -0.00000000000E+00 -0.29875889981E+04  0.29875889981E+04  0.50400000000E-02 0. -1.
    8880022    1    1    2    0    0 -0.11178051610E+04 -0.45321498554E+03  0.48653272658E+03  0.13095793019E+04  0.15294330000E+03 0.  0.
    8880022    1    1    2    0    0  0.11178051610E+04  0.45321498554E+03 -0.24326023811E+04  0.27195290398E+04  0.15294330000E+03 0.  0.
<mgrwt>
<rscale>  0 0.12158470E+04</rscale>
<asrwt>0</asrwt>
<pdfrwt beam="1">  1        1 0.45962907E+00 0.12158470E+04</pdfrwt>
<pdfrwt beam="2">  1       -1 0.16023375E+00 0.12158470E+04</pdfrwt>
<totfact> 0.17580382E-01</totfact>
</mgrwt>
</event>
<event>
 4    1  0.2293715E-008  0.3204804E+03  0.7818608E-02  0.1075428E+00
          1   -1    0    0  501    0  0.00000000000E+00  0.00000000000E+00  0.16776697303E+04  0.16776697303E+04  0.50400000000E-02 0. -1.
         -1   -1    0    0    0  501 -0.00000000000E+00 -0.00000000000E+00 -0.24218479043E+03  0.24218479048E+03  0.50400000000E-02 0.  1.
    8880022    1    1    2    0    0 -0.25061722280E+02 -0.28051371397E+03  0.15475194859E+04  0.15803557340E+04  0.15294330000E+03 0.  0.
    8880022    1    1    2    0    0  0.25061722280E+02  0.28051371397E+03 -0.11203454612E+03  0.33949878673E+03  0.15294330000E+03 0.  0.
<mgrwt>
<rscale>  0 0.32048040E+03</rscale>
<asrwt>0</asrwt>
<pdfrwt beam="1">  1        1 0.25810302E+00 0.32048040E+03</pdfrwt>
<pdfrwt beam="2">  1       -1 0.37259200E-01 0.32048040E+03</pdfrwt>
<totfact> 0.38208765E+01</totfact>
</mgrwt>
</event>
<event>
 4    1  0.2293715E-008  0.5081013E+03  0.7818608E-02  0.1011686E+00
         -1   -1    0    0    0  501 -0.00000000000E+00  0.00000000000E+00  0.52739185816E+03  0.52739185819E+03  0.50400000000E-02 0.  1.
          1   -1    0    0  501    0  0.00000000000E+00 -0.00000000000E+00 -0.75154172381E+03  0.75154172383E+03  0.50400000000E-02 0. -1.
    8880022    1    1    2    0    0 -0.40482900846E+03  0.26624944892E+03 -0.48965851729E+03  0.70564326094E+03  0.15294330000E+03 0.  0.
    8880022    1    1    2    0    0  0.40482900846E+03 -0.26624944892E+03  0.26550865164E+03  0.57329032108E+03  0.15294330000E+03 0.  0.
<mgrwt>
<rscale>  0 0.50810132E+03</rscale>
<asrwt>0</asrwt>
<pdfrwt beam="1">  1        1 0.11562180E+00 0.50810132E+03</pdfrwt>
<pdfrwt beam="2">  1       -1 0.81137209E-01 0.50810132E+03</pdfrwt>
<totfact> 0.38946317E+01</totfact>
</mgrwt>
</event>
<event>
 4    1  0.2293715E-008  0.6946800E+03  0.7818608E-02  0.9726374E-01
          1   -1    0    0  501    0  0.00000000000E+00  0.00000000000E+00  0.10433555440E+04  0.10433555440E+04  0.50400000000E-02 0. -1.
         -1   -1    0    0    0  501 -0.00000000000E+00 -0.00000000000E+00 -0.71327356346E+03  0.71327356348E+03  0.50400000000E-02 0.  1.
    8880022    1    1    2    0    0 -0.63349478926E+03 -0.24056815952E+03 -0.35572104846E+03  0.78045999560E+03  0.15294330000E+03 0.  0.
    8880022    1    1    2    0    0  0.63349478926E+03  0.24056815952E+03  0.68580302895E+03  0.97616911185E+03  0.15294330000E+03 0.  0.
<mgrwt>
<rscale>  0 0.69468003E+03</rscale>
<asrwt>0</asrwt>
<pdfrwt beam="1">  1        1 0.16051624E+00 0.69468003E+03</pdfrwt>
<pdfrwt beam="2">  1       -1 0.10973439E+00 0.69468003E+03</pdfrwt>
<totfact> 0.11184780E+01</totfact>
</mgrwt>
</event>
<event>
 4    1  0.2293715E-008  0.1121211E+04  0.7818608E-02  0.9184761E-01
          1   -1    0    0  501    0  0.00000000000E+00  0.00000000000E+00  0.18746280832E+04  0.18746280832E+04  0.50400000000E-02 0. -1.
         -1   -1    0    0    0  501 -0.00000000000E+00 -0.00000000000E+00 -0.11415942792E+04  0.11415942792E+04  0.50400000000E-02 0.  1.
    8880022    1    1    2    0    0 -0.10051489587E+03 -0.11061733934E+04 -0.60218024040E+03  0.12726883025E+04  0.15294330000E+03 0.  0.
    8880022    1    1    2    0    0  0.10051489587E+03  0.11061733934E+04  0.13352140444E+04  0.17435340598E+04  0.15294330000E+03 0.  0.
<mgrwt>
<rscale>  0 0.11212112E+04</rscale>
<asrwt>0</asrwt>
<pdfrwt beam="1">  1        1 0.28840432E+00 0.11212112E+04</pdfrwt>
<pdfrwt beam="2">  1       -1 0.17562989E+00 0.11212112E+04</pdfrwt>
<totfact> 0.80475650E-01</totfact>
</mgrwt>
</event>
<event>
 4    1  0.2293715E-008  0.7730342E+03  0.7818608E-02  0.9599891E-01
         -1   -1    0    0    0  501 -0.00000000000E+00  0.00000000000E+00  0.95498553173E+03  0.95498553174E+03  0.50400000000E-02 0.  1.
          1   -1    0    0  501    0  0.00000000000E+00 -0.00000000000E+00 -0.93016499265E+03  0.93016499266E+03  0.50400000000E-02 0. -1.
    8880022    1    1    2    0    0  0.71521936672E+03  0.25030290041E+03 -0.52681378135E+03  0.93547565320E+03  0.15294330000E+03 0. -1.
    8880022    1    1    2    0    0 -0.71521936672E+03 -0.25030290041E+03  0.55163432044E+03  0.94967487120E+03  0.15294330000E+03 0.  0.
<mgrwt>
<rscale>  0 0.77303424E+03</rscale>
<asrwt>0</asrwt>
<pdfrwt beam="1">  1        1 0.14310231E+00 0.77303424E+03</pdfrwt>
<pdfrwt beam="2">  1       -1 0.14692085E+00 0.77303424E+03</pdfrwt>
<totfact> 0.65400275E+00</totfact>
</mgrwt>
</event>
<event>
 4    1  0.2293715E-008  0.6744284E+03  0.7818608E-02  0.9761991E-01
         -1   -1    0    0    0  501 -0.00000000000E+00  0.00000000000E+00  0.20885517753E+04  0.20885517753E+04  0.50400000000E-02 0.  1.
          1   -1    0    0  501    0  0.00000000000E+00 -0.00000000000E+00 -0.58448911218E+03  0.58448911220E+03  0.50400000000E-02 0. -1.
    8880022    1    1    2    0    0  0.42888575766E+03  0.49751277070E+03  0.18106651168E+04  0.19321909244E+04  0.15294330000E+03 0.  1.
    8880022    1    1    2    0    0 -0.42888575766E+03 -0.49751277070E+03 -0.30660245372E+03  0.74084996307E+03  0.15294330000E+03 0.  0.
<mgrwt>
<rscale>  0 0.67442835E+03</rscale>
<asrwt>0</asrwt>
<pdfrwt beam="1">  1        1 0.89921401E-01 0.67442835E+03</pdfrwt>
<pdfrwt beam="2">  1       -1 0.32131566E+00 0.67442835E+03</pdfrwt>
<totfact> 0.91845241E-01</totfact>
</mgrwt>
</event>
<event>
 4    1  0.2293715E-008  0.3496408E+03  0.7818608E-02  0.1062763E+00
          1   -1    0    0  501    0  0.00000000000E+00  0.00000000000E+00  0.15078183036E+04  0.15078183036E+04  0.50400000000E-02 0. -1.
         -1   -1    0    0    0  501 -0.00000000000E+00 -0.00000000000E+00 -0.58764284095E+03  0.58764284097E+03  0.50400000000E-02 0.  1.
    8880022    1    1    2    0    0 -0.13486893838E+03 -0.28402006762E+03  0.14328596873E+04  0.14749018835E+04  0.15294330000E+03 0.  0.
    8880022    1    1    2    0    0  0.13486893838E+03  0.28402006762E+03 -0.51268422464E+03  0.62055926112E+03  0.15294330000E+03 0.  1.
<mgrwt>
<rscale>  0 0.34964079E+03</rscale>
<asrwt>0</asrwt>
<pdfrwt beam="1">  1        1 0.23197205E+00 0.34964079E+03</pdfrwt>
<pdfrwt beam="2">  1       -1 0.90406591E-01 0.34964079E+03</pdfrwt>
<totfact> 0.87948534E+00</totfact>
</mgrwt>
</event>
<event>
 4    1  0.2293715E-008  0.2661766E+03  0.7818608E-02  0.1103488E+00
         -1   -1    0    0    0  501 -0.00000000000E+00  0.00000000000E+00  0.22351021902E+03  0.22351021908E+03  0.50400000000E-02 0.  1.
          1   -1    0    0  501    0  0.00000000000E+00 -0.00000000000E+00 -0.83693367264E+03  0.83693367266E+03  0.50400000000E-02 0. -1.
    8880022    1    1    2    0    0 -0.14556687841E+02 -0.21736245955E+03  0.11120647848E+03  0.28847334340E+03  0.15294330000E+03 0.  0.
    8880022    1    1    2    0    0  0.14556687841E+02  0.21736245955E+03 -0.72462993210E+03  0.77197054833E+03  0.15294330000E+03 0.  0.
<mgrwt>
<rscale>  0 0.26617661E+03</rscale>
<asrwt>0</asrwt>
<pdfrwt beam="1">  1        1 0.12875903E+00 0.26617661E+03</pdfrwt>
<pdfrwt beam="2">  1       -1 0.34386188E-01 0.26617661E+03</pdfrwt>
<totfact> 0.17519587E+02</totfact>
</mgrwt>
</event>
<event>
 4    1  0.2293715E-008  0.4512266E+03  0.7818608E-02  0.1027357E+00
          1   -1    0    0  501    0  0.00000000000E+00  0.00000000000E+00  0.15976061708E+04  0.15976061708E+04  0.50400000000E-02 0. -1.
         -1   -1    0    0    0  501 -0.00000000000E+00 -0.00000000000E+00 -0.66883012298E+03  0.66883012300E+03  0.50400000000E-02 0.  1.
    8880022    1    1    2    0    0 -0.26760142184E+03 -0.32955010765E+03 -0.55516340147E+03  0.71541026675E+03  0.15294330000E+03 0.  1.
    8880022    1    1    2    0    0  0.26760142184E+03  0.32955010765E+03  0.14839394493E+04  0.15510260270E+04  0.15294330000E+03 0.  0.
<mgrwt>
<rscale>  0 0.45122660E+03</rscale>
<asrwt>0</asrwt>
<pdfrwt beam="1">  1        1 0.24578556E+00 0.45122660E+03</pdfrwt>
<pdfrwt beam="2">  1       -1 0.10289694E+00 0.45122660E+03</pdfrwt>
<totfact> 0.55631234E+00</totfact>
</mgrwt>
</event>
<event>
 4    1  0.2293715E-008  0.1130559E+04  0.7818608E-02  0.9175908E-01
          1   -1    0    0  501    0  0.00000000000E+00  0.00000000000E+00  0.23811778597E+04  0.23811778597E+04  0.50400000000E-02 0. -1.
         -1   -1    0    0    0  501 -0.00000000000E+00 -0.00000000000E+00 -0.74834204988E+03  0.74834204990E+03  0.50400000000E-02 0.  1.
    8880022    1    1    2    0    0 -0.11201199473E+04 -0.10185964172E+02  0.16484086440E+04  0.19988534616E+04  0.15294330000E+03 0.  0.
    8880022    1    1    2    0    0  0.11201199473E+04  0.10185964172E+02 -0.15572834247E+02  0.11306664479E+04  0.15294330000E+03 0.  0.
<mgrwt>
<rscale>  0 0.11305592E+04</rscale>
<asrwt>0</asrwt>
<pdfrwt beam="1">  1        1 0.36633506E+00 0.11305592E+04</pdfrwt>
<pdfrwt beam="2">  1       -1 0.11512955E+00 0.11305592E+04</pdfrwt>
<totfact> 0.11172894E+00</totfact>
</mgrwt>
</event>
<event>
 4    1  0.2293715E-008  0.2922979E+03  0.7818608E-02  0.1089155E+00
         -1   -1    0    0    0  501 -0.00000000000E+00  0.00000000000E+00  0.72615698678E+03  0.72615698680E+03  0.50400000000E-02 0.  1.
          1   -1    0    0  501    0  0.00000000000E+00 -0.00000000000E+00 -0.15899870022E+03  0.15899870030E+03  0.50400000000E-02 0. -1.
    8880022    1    1    2    0    0 -0.23214071303E+03  0.90316550593E+02  0.57904493121E+02  0.29797814232E+03  0.15294330000E+03 0.  0.
    8880022    1    1    2    0    0  0.23214071303E+03 -0.90316550593E+02  0.50925379343E+03  0.58717754479E+03  0.15294330000E+03 0.  0.
<mgrwt>
<rscale>  0 0.29229787E+03</rscale>
<asrwt>0</asrwt>
<pdfrwt beam="1">  1        1 0.24461338E-01 0.29229787E+03</pdfrwt>
<pdfrwt beam="2">  1       -1 0.11171646E+00 0.29229787E+03</pdfrwt>
<totfact> 0.15457556E+02</totfact>
</mgrwt>
</event>
<event>
 4    1  0.2293715E-008  0.2298321E+03  0.7818608E-02  0.1126758E+00
         -1   -1    0    0    0  501 -0.00000000000E+00  0.00000000000E+00  0.11820961565E+03  0.11820961575E+03  0.50400000000E-02 0.  1.
          1   -1    0    0  501    0  0.00000000000E+00 -0.00000000000E+00 -0.60291031662E+03  0.60291031665E+03  0.50400000000E-02 0. -1.
    8880022    1    1    2    0    0 -0.10302275260E+03  0.13717674131E+03 -0.58913074185E+02  0.23726261660E+03  0.15294330000E+03 0.  0.
    8880022    1    1    2    0    0  0.10302275260E+03 -0.13717674131E+03 -0.42578762679E+03  0.48385731580E+03  0.15294330000E+03 0.  0.
<mgrwt>
<rscale>  0 0.22983211E+03</rscale>
<asrwt>0</asrwt>
<pdfrwt beam="1">  1        1 0.92755432E-01 0.22983211E+03</pdfrwt>
<pdfrwt beam="2">  1       -1 0.18186095E-01 0.22983211E+03</pdfrwt>
<totfact> 0.82566244E+02</totfact>
</mgrwt>
</event>
<event>
 4    1  0.2293715E-008  0.4581742E+03  0.7818608E-02  0.1025312E+00
          1   -1    0    0  501    0  0.00000000000E+00  0.00000000000E+00  0.12484294554E+04  0.12484294554E+04  0.50400000000E-02 0. -1.
         -1   -1    0    0    0  501 -0.00000000000E+00 -0.00000000000E+00 -0.26158309841E+03  0.26158309846E+03  0.50400000000E-02 0.  1.
    8880022    1    1    2    0    0  0.39372473502E+02 -0.43009505347E+03  0.42195480516E+02  0.46011309292E+03  0.15294330000E+03 0.  0.
    8880022    1    1    2    0    0 -0.39372473502E+02  0.43009505347E+03  0.94465087650E+03  0.10498994610E+04  0.15294330000E+03 0.  0.
<mgrwt>
<rscale>  0 0.45817420E+03</rscale>
<asrwt>0</asrwt>
<pdfrwt beam="1">  1        1 0.19206607E+00 0.45817420E+03</pdfrwt>
<pdfrwt beam="2">  1       -1 0.40243554E-01 0.45817420E+03</pdfrwt>
<totfact> 0.63067612E+01</totfact>
</mgrwt>
</event>
<event>
 4    1  0.2293715E-008  0.3277571E+03  0.7818608E-02  0.1072134E+00
          1   -1    0    0  501    0  0.00000000000E+00  0.00000000000E+00  0.70297821929E+03  0.70297821931E+03  0.50400000000E-02 0. -1.
         -1   -1    0    0    0  501 -0.00000000000E+00 -0.00000000000E+00 -0.70450911597E+03  0.70450911599E+03  0.50400000000E-02 0.  1.
    8880022    1    1    2    0    0 -0.17105159827E+03  0.23403933725E+03  0.62199478562E+03  0.70306630342E+03  0.15294330000E+03 0.  0.
    8880022    1    1    2    0    0  0.17105159827E+03 -0.23403933725E+03 -0.62352568230E+03  0.70442103188E+03  0.15294330000E+03 0.  1.
<mgrwt>
<rscale>  0 0.32775710E+03</rscale>
<asrwt>0</asrwt>
<pdfrwt beam="1">  1        1 0.10815050E+00 0.32775710E+03</pdfrwt>
<pdfrwt beam="2">  1       -1 0.10838602E+00 0.32775710E+03</pdfrwt>
<totfact> 0.23537953E+01</totfact>
</mgrwt>
</event>
<event>
 4    1  0.2293715E-008  0.2242698E+03  0.7818608E-02  0.1130739E+00
          1   -1    0    0  501    0  0.00000000000E+00  0.00000000000E+00  0.73303930383E+03  0.73303930384E+03  0.50400000000E-02 0. -1.
         -1   -1    0    0    0  501 -0.00000000000E+00 -0.00000000000E+00 -0.68741212095E+02  0.68741212280E+02  0.50400000000E-02 0.  1.
    8880022    1    1    2    0    0 -0.11553526836E+03  0.11643404203E+03  0.34937824174E+03  0.41516513967E+03  0.15294330000E+03 0.  1.
    8880022    1    1    2    0    0  0.11553526836E+03 -0.11643404203E+03  0.31491984999E+03  0.38661537646E+03  0.15294330000E+03 0. -1.
<mgrwt>
<rscale>  0 0.22426979E+03</rscale>
<asrwt>0</asrwt>
<pdfrwt beam="1">  1        1 0.11277527E+00 0.22426979E+03</pdfrwt>
<pdfrwt beam="2">  1       -1 0.10575572E-01 0.22426979E+03</pdfrwt>
<totfact> 0.14686895E+03</totfact>
</mgrwt>
</event>
<event>
 4    1  0.2293715E-008  0.3982269E+03  0.7818608E-02  0.1044395E+00
         -1   -1    0    0    0  501 -0.00000000000E+00  0.00000000000E+00  0.21555205788E+04  0.21555205788E+04  0.50400000000E-02 0.  1.
          1   -1    0    0  501    0  0.00000000000E+00 -0.00000000000E+00 -0.20277743198E+03  0.20277743204E+03  0.50400000000E-02 0. -1.
    8880022    1    1    2    0    0  0.26908829905E+03  0.25056832349E+03  0.35131764638E+02  0.39977355006E+03  0.15294330000E+03 0.  0.
    8880022    1    1    2    0    0 -0.26908829905E+03 -0.25056832349E+03  0.19176113822E+04  0.19585244608E+04  0.15294330000E+03 0.  1.
<mgrwt>
<rscale>  0 0.39822688E+03</rscale>
<asrwt>0</asrwt>
<pdfrwt beam="1">  1        1 0.31196526E-01 0.39822688E+03</pdfrwt>
<pdfrwt beam="2">  1       -1 0.33161857E+00 0.39822688E+03</pdfrwt>
<totfact> 0.33949249E+00</totfact>
</mgrwt>
</event>
<event>
 4    1  0.2293715E-008  0.2230922E+03  0.7818608E-02  0.1131599E+00
          1   -1    0    0  501    0  0.00000000000E+00  0.00000000000E+00  0.22196290746E+03  0.22196290752E+03  0.50400000000E-02 0. -1.
         -1   -1    0    0    0  501 -0.00000000000E+00 -0.00000000000E+00 -0.43488358561E+03  0.43488358564E+03  0.50400000000E-02 0.  1.
    8880022    1    1    2    0    0 -0.48577717387E+02  0.15497956701E+03 -0.33503849818E+03  0.40251820964E+03  0.15294330000E+03 0.  0.
    8880022    1    1    2    0    0  0.48577717387E+02 -0.15497956701E+03  0.12211782003E+03  0.25432828352E+03  0.15294330000E+03 0. -1.
<mgrwt>
<rscale>  0 0.22309216E+03</rscale>
<asrwt>0</asrwt>
<pdfrwt beam="1">  1        1 0.34148140E-01 0.22309216E+03</pdfrwt>
<pdfrwt beam="2">  1       -1 0.66905167E-01 0.22309216E+03</pdfrwt>
<totfact> 0.30420594E+02</totfact>
</mgrwt>
</event>
<event>
 4    1  0.2293715E-008  0.1142650E+04  0.7818608E-02  0.9164591E-01
         -1   -1    0    0    0  501 -0.00000000000E+00  0.00000000000E+00  0.16093653398E+04  0.16093653398E+04  0.50400000000E-02 0.  1.
          1   -1    0    0  501    0  0.00000000000E+00 -0.00000000000E+00 -0.90557809465E+03  0.90557809466E+03  0.50400000000E-02 0. -1.
    8880022    1    1    2    0    0 -0.95029192757E+03 -0.61579418207E+03  0.75766601117E+03  0.13710239457E+04  0.15294330000E+03 0.  0.
    8880022    1    1    2    0    0  0.95029192757E+03  0.61579418207E+03 -0.53878766016E+02  0.11439194887E+04  0.15294330000E+03 0.  0.
<mgrwt>
<rscale>  0 0.11426499E+04</rscale>
<asrwt>0</asrwt>
<pdfrwt beam="1">  1        1 0.13931971E+00 0.11426499E+04</pdfrwt>
<pdfrwt beam="2">  1       -1 0.24759467E+00 0.11426499E+04</pdfrwt>
<totfact> 0.12879507E+00</totfact>
</mgrwt>
</event>
<event>
 4    1  0.2293715E-008  0.8263229E+03  0.7818608E-02  0.9522678E-01
         -1   -1    0    0    0  501 -0.00000000000E+00  0.00000000000E+00  0.77555944688E+03  0.77555944689E+03  0.50400000000E-02 0.  1.
          1   -1    0    0  501    0  0.00000000000E+00 -0.00000000000E+00 -0.11238966719E+04  0.11238966719E+04  0.50400000000E-02 0. -1.
    8880022    1    1    2    0    0 -0.77241272373E+03  0.25059237491E+03  0.26788450910E+03  0.86866087593E+03  0.15294330000E+03 0.  0.
    8880022    1    1    2    0    0  0.77241272373E+03 -0.25059237491E+03 -0.61622173415E+03  0.10307952429E+04  0.15294330000E+03 0.  0.
<mgrwt>
<rscale>  0 0.82632294E+03</rscale>
<asrwt>0</asrwt>
<pdfrwt beam="1">  1        1 0.17290718E+00 0.82632294E+03</pdfrwt>
<pdfrwt beam="2">  1       -1 0.11931684E+00 0.82632294E+03</pdfrwt>
<totfact> 0.78210036E+00</totfact>
</mgrwt>
</event>
<event>
 4    1  0.2293715E-008  0.1100807E+04  0.7818608E-02  0.9204405E-01
         -1   -1    0    0    0  501 -0.00000000000E+00  0.00000000000E+00  0.87821714399E+03  0.87821714400E+03  0.50400000000E-02 0.  1.
          1   -1    0    0  501    0  0.00000000000E+00 -0.00000000000E+00 -0.24625583967E+04  0.24625583967E+04  0.50400000000E-02 0. -1.
    8880022    1    1    2    0    0 -0.89014888274E+03 -0.62930130661E+03  0.31543942561E+03  0.11451108471E+04  0.15294330000E+03 0.  0.
    8880022    1    1    2    0    0  0.89014888274E+03  0.62930130661E+03 -0.18997806783E+04  0.21956646936E+04  0.15294330000E+03 0.  0.
<mgrwt>
<rscale>  0 0.11008073E+04</rscale>
<asrwt>0</asrwt>
<pdfrwt beam="1">  1        1 0.37885513E+00 0.11008073E+04</pdfrwt>
<pdfrwt beam="2">  1       -1 0.13511033E+00 0.11008073E+04</pdfrwt>
<totfact> 0.66212357E-01</totfact>
</mgrwt>
</event>
<event>
 4    1  0.2293715E-008  0.9319329E+03  0.7818608E-02  0.9386521E-01
         -1   -1    0    0    0  501 -0.00000000000E+00  0.00000000000E+00  0.16256137747E+04  0.16256137747E+04  0.50400000000E-02 0.  1.
          1   -1    0    0  501    0  0.00000000000E+00 -0.00000000000E+00 -0.93392721829E+03  0.93392721830E+03  0.50400000000E-02 0. -1.
    8880022    1    1    2    0    0 -0.89957291640E+03  0.18940907623E+03  0.11830358254E+04  0.15060121670E+04  0.15294330000E+03 0.  0.
    8880022    1    1    2    0    0  0.89957291640E+03 -0.18940907623E+03 -0.49134926896E+03  0.10535288260E+04  0.15294330000E+03 0. -1.
<mgrwt>
<rscale>  0 0.93193287E+03</rscale>
<asrwt>0</asrwt>
<pdfrwt beam="1">  1        1 0.14368111E+00 0.93193287E+03</pdfrwt>
<pdfrwt beam="2">  1       -1 0.25009443E+00 0.93193287E+03</pdfrwt>
<totfact> 0.12104371E+00</totfact>
</mgrwt>
</event>
<event>
 4    1  0.2293715E-008  0.4326913E+03  0.7818608E-02  0.1033013E+00
         -1   -1    0    0    0  501 -0.00000000000E+00  0.00000000000E+00  0.73766104344E+03  0.73766104346E+03  0.50400000000E-02 0.  1.
          1   -1    0    0  501    0  0.00000000000E+00 -0.00000000000E+00 -0.40990196961E+03  0.40990196964E+03  0.50400000000E-02 0. -1.
    8880022    1    1    2    0    0 -0.40257032833E+03 -0.42038227741E+02  0.51796198169E+03  0.67491210490E+03  0.15294330000E+03 0.  1.
    8880022    1    1    2    0    0  0.40257032833E+03  0.42038227741E+02 -0.19020290786E+03  0.47265090820E+03  0.15294330000E+03 0.  0.
<mgrwt>
<rscale>  0 0.43269127E+03</rscale>
<asrwt>0</asrwt>
<pdfrwt beam="1">  1        1 0.63061842E-01 0.43269127E+03</pdfrwt>
<pdfrwt beam="2">  1       -1 0.11348631E+00 0.43269127E+03</pdfrwt>
<totfact> 0.43549742E+01</totfact>
</mgrwt>
</event>
<event>
 4    1  0.2293715E-008  0.3328684E+03  0.7818608E-02  0.1069875E+00
          1   -1    0    0  501    0  0.00000000000E+00  0.00000000000E+00  0.81095725574E+03  0.81095725576E+03  0.50400000000E-02 0. -1.
         -1   -1    0    0    0  501 -0.00000000000E+00 -0.00000000000E+00 -0.52743971906E+03  0.52743971909E+03  0.50400000000E-02 0.  1.
    8880022    1    1    2    0    0  0.29368437361E+03  0.34047247636E+02  0.71779660993E+03  0.79122269470E+03  0.15294330000E+03 0.  0.
    8880022    1    1    2    0    0 -0.29368437361E+03 -0.34047247636E+02 -0.43427907325E+03  0.54717428014E+03  0.15294330000E+03 0.  0.
<mgrwt>
<rscale>  0 0.33286841E+03</rscale>
<asrwt>0</asrwt>
<pdfrwt beam="1">  1        1 0.12476265E+00 0.33286841E+03</pdfrwt>
<pdfrwt beam="2">  1       -1 0.81144572E-01 0.33286841E+03</pdfrwt>
<totfact> 0.35743314E+01</totfact>
</mgrwt>
</event>
<event>
 4    1  0.2293715E-008  0.3004845E+03  0.7818608E-02  0.1084999E+00
          1   -1    0    0  501    0  0.00000000000E+00  0.00000000000E+00  0.46470417801E+03  0.46470417803E+03  0.50400000000E-02 0. -1.
         -1   -1    0    0    0  501 -0.00000000000E+00 -0.00000000000E+00 -0.72016885229E+03  0.72016885231E+03  0.50400000000E-02 0.  1.
    8880022    1    1    2    0    0  0.21877316731E+03  0.13797678844E+03  0.37851684157E+03  0.48328660777E+03  0.15294330000E+03 0.  0.
    8880022    1    1    2    0    0 -0.21877316731E+03 -0.13797678844E+03 -0.63398151585E+03  0.70158642257E+03  0.15294330000E+03 0.  0.
<mgrwt>
<rscale>  0 0.30048452E+03</rscale>
<asrwt>0</asrwt>
<pdfrwt beam="1">  1        1 0.71492950E-01 0.30048452E+03</pdfrwt>
<pdfrwt beam="2">  1       -1 0.11079521E+00 0.30048452E+03</pdfrwt>
<totfact> 0.40006007E+01</totfact>
</mgrwt>
</event>
<event>
 4    1  0.2293715E-008  0.6187399E+03  0.7818608E-02  0.9867272E-01
         -1   -1    0    0    0  501 -0.00000000000E+00  0.00000000000E+00  0.43670658372E+03  0.43670658375E+03  0.50400000000E-02 0.  1.
          1   -1    0    0  501    0  0.00000000000E+00 -0.00000000000E+00 -0.96249149905E+03  0.96249149906E+03  0.50400000000E-02 0. -1.
    8880022    1    1    2    0    0  0.13787303656E+03 -0.58347102989E+03 -0.47182110463E+03  0.77810939123E+03  0.15294330000E+03 0.  0.
    8880022    1    1    2    0    0 -0.13787303656E+03  0.58347102989E+03 -0.53963810693E+02  0.62108869158E+03  0.15294330000E+03 0.  0.
<mgrwt>
<rscale>  0 0.61873990E+03</rscale>
<asrwt>0</asrwt>
<pdfrwt beam="1">  1        1 0.14807561E+00 0.61873990E+03</pdfrwt>
<pdfrwt beam="2">  1       -1 0.67185629E-01 0.61873990E+03</pdfrwt>
<totfact> 0.37845266E+01</totfact>
</mgrwt>
</event>
<event>
 4    1  0.2293715E-008  0.5123823E+03  0.7818608E-02  0.1010597E+00
          1   -1    0    0  501    0  0.00000000000E+00  0.00000000000E+00  0.99194017208E+03  0.99194017209E+03  0.50400000000E-02 0. -1.
         -1   -1    0    0    0  501 -0.00000000000E+00 -0.00000000000E+00 -0.56758240849E+03  0.56758240852E+03  0.50400000000E-02 0.  1.
    8880022    1    1    2    0    0  0.48436772198E+03  0.67318997507E+02  0.78182693619E+03  0.93476678840E+03  0.15294330000E+03 0.  0.
    8880022    1    1    2    0    0 -0.48436772198E+03 -0.67318997507E+02 -0.35746917261E+03  0.62475579221E+03  0.15294330000E+03 0.  0.
<mgrwt>
<rscale>  0 0.51238227E+03</rscale>
<asrwt>0</asrwt>
<pdfrwt beam="1">  1        1 0.15260618E+00 0.51238227E+03</pdfrwt>
<pdfrwt beam="2">  1       -1 0.87320372E-01 0.51238227E+03</pdfrwt>
<totfact> 0.21111998E+01</totfact>
</mgrwt>
</event>
<event>
 4    1  0.2293715E-008  0.5645170E+03  0.7818608E-02  0.9981886E-01
          1   -1    0    0  501    0  0.00000000000E+00  0.00000000000E+00  0.49899860496E+03  0.49899860498E+03  0.50400000000E-02 0. -1.
         -1   -1    0    0    0  501 -0.00000000000E+00 -0.00000000000E+00 -0.98089544732E+03  0.98089544734E+03  0.50400000000E-02 0.  1.
    8880022    1    1    2    0    0  0.54170487769E+03 -0.42937987374E+02  0.19613636348E+03  0.59761942018E+03  0.15294330000E+03 0.  0.
    8880022    1    1    2    0    0 -0.54170487769E+03  0.42937987374E+02 -0.67803320585E+03  0.88227463214E+03  0.15294330000E+03 0.  0.
<mgrwt>
<rscale>  0 0.56451705E+03</rscale>
<asrwt>0</asrwt>
<pdfrwt beam="1">  1        1 0.76769016E-01 0.56451705E+03</pdfrwt>
<pdfrwt beam="2">  1       -1 0.15090699E+00 0.56451705E+03</pdfrwt>
<totfact> 0.16059976E+01</totfact>
</mgrwt>
</event>
<event>
 4    1  0.2293715E-008  0.1800540E+03  0.7818608E-02  0.1167751E+00
         -1   -1    0    0    0  501 -0.00000000000E+00  0.00000000000E+00  0.65636679161E+02  0.65636679354E+02  0.50400000000E-02 0.  1.
          1   -1    0    0  501    0  0.00000000000E+00 -0.00000000000E+00 -0.56277228457E+03  0.56277228459E+03  0.50400000000E-02 0. -1.
    8880022    1    1    2    0    0  0.32047306952E+02  0.89447057007E+02 -0.35846738959E+03  0.40114626797E+03  0.15294330000E+03 0.  0.
    8880022    1    1    2    0    0 -0.32047306952E+02 -0.89447057007E+02 -0.13866821582E+03  0.22726269598E+03  0.15294330000E+03 0.  0.
<mgrwt>
<rscale>  0 0.18005404E+03</rscale>
<asrwt>0</asrwt>
<pdfrwt beam="1">  1        1 0.86580348E-01 0.18005404E+03</pdfrwt>
<pdfrwt beam="2">  1       -1 0.10097951E-01 0.18005404E+03</pdfrwt>
<totfact> 0.22822567E+03</totfact>
</mgrwt>
</event>
<event>
 4    1  0.2293715E-008  0.4637756E+03  0.7818608E-02  0.1023692E+00
         -1   -1    0    0    0  501 -0.00000000000E+00  0.00000000000E+00  0.65164062330E+03  0.65164062332E+03  0.50400000000E-02 0.  1.
          1   -1    0    0  501    0  0.00000000000E+00 -0.00000000000E+00 -0.20726166234E+04  0.20726166234E+04  0.50400000000E-02 0. -1.
    8880022    1    1    2    0    0 -0.32315442556E+03  0.29541056013E+03  0.53847817937E+03  0.71066629614E+03  0.15294330000E+03 0.  0.
    8880022    1    1    2    0    0  0.32315442556E+03 -0.29541056013E+03 -0.19594541795E+04  0.20135909506E+04  0.15294330000E+03 0.  0.
<mgrwt>
<rscale>  0 0.46377563E+03</rscale>
<asrwt>0</asrwt>
<pdfrwt beam="1">  1        1 0.31886409E+00 0.46377563E+03</pdfrwt>
<pdfrwt beam="2">  1       -1 0.10025240E+00 0.46377563E+03</pdfrwt>
<totfact> 0.28513433E+00</totfact>
</mgrwt>
</event>
<event>
 4    1  0.2293715E-008  0.3649902E+03  0.7818608E-02  0.1056625E+00
         -1   -1    0    0    0  501 -0.00000000000E+00  0.00000000000E+00  0.68946933378E+02  0.68946933562E+02  0.50400000000E-02 0.  1.
          1   -1    0    0  501    0  0.00000000000E+00 -0.00000000000E+00 -0.26568239701E+04  0.26568239701E+04  0.50400000000E-02 0. -1.
    8880022    1    1    2    0    0 -0.74043443145E+02  0.32302283781E+03 -0.58216715048E+03  0.68712184461E+03  0.15294330000E+03 0.  0.
    8880022    1    1    2    0    0  0.74043443145E+02 -0.32302283781E+03 -0.20057098862E+04  0.20386490590E+04  0.15294330000E+03 0.  0.
<mgrwt>
<rscale>  0 0.36499019E+03</rscale>
<asrwt>0</asrwt>
<pdfrwt beam="1">  1        1 0.40874207E+00 0.36499019E+03</pdfrwt>
<pdfrwt beam="2">  1       -1 0.10607223E-01 0.36499019E+03</pdfrwt>
<totfact> 0.67555961E+01</totfact>
</mgrwt>
</event>
<event>
 4    1  0.2293715E-008  0.3360241E+03  0.7818608E-02  0.1068502E+00
          1   -1    0    0  501    0  0.00000000000E+00  0.00000000000E+00  0.64219471333E+03  0.64219471335E+03  0.50400000000E-02 0. -1.
         -1   -1    0    0    0  501 -0.00000000000E+00 -0.00000000000E+00 -0.50177948892E+03  0.50177948894E+03  0.50400000000E-02 0.  1.
    8880022    1    1    2    0    0 -0.25517844087E+03  0.15621943124E+03  0.53121725974E+03  0.62857296907E+03  0.15294330000E+03 0.  0.
    8880022    1    1    2    0    0  0.25517844087E+03 -0.15621943124E+03 -0.39080203533E+03  0.51540123323E+03  0.15294330000E+03 0.  0.
<mgrwt>
<rscale>  0 0.33602411E+03</rscale>
<asrwt>0</asrwt>
<pdfrwt beam="1">  1        1 0.98799187E-01 0.33602411E+03</pdfrwt>
<pdfrwt beam="2">  1       -1 0.77196844E-01 0.33602411E+03</pdfrwt>
<totfact> 0.56161887E+01</totfact>
</mgrwt>
</event>
<event>
 4    1  0.2293715E-008  0.7672778E+03  0.7818608E-02  0.9608627E-01
          1   -1    0    0  501    0  0.00000000000E+00  0.00000000000E+00  0.11809211539E+04  0.11809211539E+04  0.50400000000E-02 0. -1.
         -1   -1    0    0    0  501 -0.00000000000E+00 -0.00000000000E+00 -0.97811714352E+03  0.97811714353E+03  0.50400000000E-02 0.  1.
    8880022    1    1    2    0    0 -0.65743338136E+03 -0.36483545142E+03  0.85731583280E+03  0.11505240752E+04  0.15294330000E+03 0.  0.
    8880022    1    1    2    0    0  0.65743338136E+03  0.36483545142E+03 -0.65451182246E+03  0.10085142222E+04  0.15294330000E+03 0.  0.
<mgrwt>
<rscale>  0 0.76727779E+03</rscale>
<asrwt>0</asrwt>
<pdfrwt beam="1">  1        1 0.18168018E+00 0.76727779E+03</pdfrwt>
<pdfrwt beam="2">  1       -1 0.15047956E+00 0.76727779E+03</pdfrwt>
<totfact> 0.39569928E+00</totfact>
</mgrwt>
</event>
<event>
 4    1  0.2293715E-008  0.3645324E+03  0.7818608E-02  0.1056803E+00
          1   -1    0    0  501    0  0.00000000000E+00  0.00000000000E+00  0.30373980090E+03  0.30373980095E+03  0.50400000000E-02 0. -1.
         -1   -1    0    0    0  501 -0.00000000000E+00 -0.00000000000E+00 -0.66730640190E+03  0.66730640192E+03  0.50400000000E-02 0.  1.
    8880022    1    1    2    0    0 -0.14201851905E+03  0.29886952424E+03 -0.46671143701E+03  0.59220222114E+03  0.15294330000E+03 0.  0.
    8880022    1    1    2    0    0  0.14201851905E+03 -0.29886952424E+03  0.10314483601E+03  0.37884398172E+03  0.15294330000E+03 0. -1.
<mgrwt>
<rscale>  0 0.36453245E+03</rscale>
<asrwt>0</asrwt>
<pdfrwt beam="1">  1        1 0.46729200E-01 0.36453245E+03</pdfrwt>
<pdfrwt beam="2">  1       -1 0.10266252E+00 0.36453245E+03</pdfrwt>
<totfact> 0.81628567E+01</totfact>
</mgrwt>
</event>
<event>
 4    1  0.2293715E-008  0.3478613E+03  0.7818608E-02  0.1063496E+00
          1   -1    0    0  501    0  0.00000000000E+00  0.00000000000E+00  0.10727061248E+04  0.10727061248E+04  0.50400000000E-02 0. -1.
         -1   -1    0    0    0  501 -0.00000000000E+00 -0.00000000000E+00 -0.34512294154E+03  0.34512294158E+03  0.50400000000E-02 0.  1.
    8880022    1    1    2    0    0  0.30055047328E+03 -0.85353499676E+02 -0.21783948628E+03  0.41044061897E+03  0.15294330000E+03 0.  0.
    8880022    1    1    2    0    0 -0.30055047328E+03  0.85353499676E+02  0.94542266953E+03  0.10073884474E+04  0.15294330000E+03 0.  0.
<mgrwt>
<rscale>  0 0.34786127E+03</rscale>
<asrwt>0</asrwt>
<pdfrwt beam="1">  1        1 0.16503171E+00 0.34786127E+03</pdfrwt>
<pdfrwt beam="2">  1       -1 0.53095838E-01 0.34786127E+03</pdfrwt>
<totfact> 0.51665869E+01</totfact>
</mgrwt>
</event>
<event>
 4    1  0.2293715E-008  0.7864372E+03  0.7818608E-02  0.9579859E-01
          1   -1    0    0  501    0  0.00000000000E+00  0.00000000000E+00  0.95025795097E+03  0.95025795099E+03  0.50400000000E-02 0. -1.
         -1   -1    0    0    0  501 -0.00000000000E+00 -0.00000000000E+00 -0.69227658659E+03  0.69227658661E+03  0.50400000000E-02 0.  1.
    8880022    1    1    2    0    0 -0.24501109312E+03  0.73147889946E+03 -0.71890698067E+02  0.78971624118E+03  0.15294330000E+03 0.  0.
    8880022    1    1    2    0    0  0.24501109312E+03 -0.73147889946E+03  0.32987206245E+03  0.85281829641E+03  0.15294330000E+03 0.  0.
<mgrwt>
<rscale>  0 0.78643720E+03</rscale>
<asrwt>0</asrwt>
<pdfrwt beam="1">  1        1 0.14619353E+00 0.78643720E+03</pdfrwt>
<pdfrwt beam="2">  1       -1 0.10650409E+00 0.78643720E+03</pdfrwt>
<totfact> 0.13994797E+01</totfact>
</mgrwt>
</event>
<event>
 4    1  0.2293715E-008  0.8096270E+03  0.7818608E-02  0.9546186E-01
         -1   -1    0    0    0  501 -0.00000000000E+00  0.00000000000E+00  0.51735178000E+03  0.51735178003E+03  0.50400000000E-02 0.  1.
          1   -1    0    0  501    0  0.00000000000E+00 -0.00000000000E+00 -0.17762277961E+04  0.17762277961E+04  0.50400000000E-02 0. -1.
    8880022    1    1    2    0    0 -0.51221153236E+03 -0.60806536778E+03 -0.15419597498E+02  0.80977377235E+03  0.15294330000E+03 0.  0.
    8880022    1    1    2    0    0  0.51221153236E+03  0.60806536778E+03 -0.12434564186E+04  0.14838058038E+04  0.15294330000E+03 0.  0.
<mgrwt>
<rscale>  0 0.80962695E+03</rscale>
<asrwt>0</asrwt>
<pdfrwt beam="1">  1        1 0.27326581E+00 0.80962695E+03</pdfrwt>
<pdfrwt beam="2">  1       -1 0.79592582E-01 0.80962695E+03</pdfrwt>
<totfact> 0.69000515E+00</totfact>
</mgrwt>
</event>
<event>
 4    1  0.2293715E-008  0.5538003E+03  0.7818608E-02  0.1000618E+00
          1   -1    0    0  501    0  0.00000000000E+00  0.00000000000E+00  0.31095100310E+03  0.31095100314E+03  0.50400000000E-02 0. -1.
         -1   -1    0    0    0  501 -0.00000000000E+00 -0.00000000000E+00 -0.10533777286E+04  0.10533777286E+04  0.50400000000E-02 0.  1.
    8880022    1    1    2    0    0 -0.30885440778E+03  0.43348824876E+03 -0.54333946023E+03  0.77583021923E+03  0.15294330000E+03 0.  0.
    8880022    1    1    2    0    0  0.30885440778E+03 -0.43348824876E+03 -0.19908726524E+03  0.58849851250E+03  0.15294330000E+03 0.  0.
<mgrwt>
<rscale>  0 0.55380029E+03</rscale>
<asrwt>0</asrwt>
<pdfrwt beam="1">  1        1 0.47838616E-01 0.55380029E+03</pdfrwt>
<pdfrwt beam="2">  1       -1 0.16205811E+00 0.55380029E+03</pdfrwt>
<totfact> 0.24704082E+01</totfact>
</mgrwt>
</event>
<event>
 4    1  0.2293715E-008  0.8116411E+03  0.7818608E-02  0.9543318E-01
         -1   -1    0    0    0  501 -0.00000000000E+00  0.00000000000E+00  0.39087084789E+03  0.39087084792E+03  0.50400000000E-02 0.  1.
          1   -1    0    0  501    0  0.00000000000E+00 -0.00000000000E+00 -0.20240017571E+04  0.20240017571E+04  0.50400000000E-02 0. -1.
    8880022    1    1    2    0    0 -0.77267071617E+03  0.19583044243E+03 -0.13104482063E+04  0.15414395065E+04  0.15294330000E+03 0.  0.
    8880022    1    1    2    0    0  0.77267071617E+03 -0.19583044243E+03 -0.32268270290E+03  0.87343309851E+03  0.15294330000E+03 0.  0.
<mgrwt>
<rscale>  0 0.81164108E+03</rscale>
<asrwt>0</asrwt>
<pdfrwt beam="1">  1        1 0.31138488E+00 0.81164108E+03</pdfrwt>
<pdfrwt beam="2">  1       -1 0.60133978E-01 0.81164108E+03</pdfrwt>
<totfact> 0.83490929E+00</totfact>
</mgrwt>
</event>
<event>
 4    1  0.2293715E-008  0.3314692E+03  0.7818608E-02  0.1070489E+00
          1   -1    0    0  501    0  0.00000000000E+00  0.00000000000E+00  0.10075869737E+03  0.10075869750E+03  0.50400000000E-02 0. -1.
         -1   -1    0    0    0  501 -0.00000000000E+00 -0.00000000000E+00 -0.17360467491E+04  0.17360467491E+04  0.50400000000E-02 0.  1.
    8880022    1    1    2    0    0 -0.13554622958E+03  0.26097390400E+03 -0.25758368066E+03  0.41978704658E+03  0.15294330000E+03 0.  0.
    8880022    1    1    2    0    0  0.13554622958E+03 -0.26097390400E+03 -0.13777043711E+04  0.14170184000E+04  0.15294330000E+03 0.  0.
<mgrwt>
<rscale>  0 0.33146917E+03</rscale>
<asrwt>0</asrwt>
<pdfrwt beam="1">  1        1 0.15501339E-01 0.33146917E+03</pdfrwt>
<pdfrwt beam="2">  1       -1 0.26708409E+00 0.33146917E+03</pdfrwt>
<totfact> 0.21878794E+01</totfact>
</mgrwt>
</event>
<event>
 4    1  0.2293715E-008  0.1314698E+04  0.7818608E-02  0.9017990E-01
         -1   -1    0    0    0  501 -0.00000000000E+00  0.00000000000E+00  0.87232691007E+03  0.87232691009E+03  0.50400000000E-02 0.  1.
          1   -1    0    0  501    0  0.00000000000E+00 -0.00000000000E+00 -0.29870846629E+04  0.29870846629E+04  0.50400000000E-02 0. -1.
    8880022    1    1    2    0    0 -0.30346039155E+03  0.12700198582E+04 -0.21770689042E+04  0.25432379590E+04  0.15294330000E+03 0.  0.
    8880022    1    1    2    0    0  0.30346039155E+03 -0.12700198582E+04  0.62311151401E+02  0.13161736140E+04  0.15294330000E+03 0.  0.
<mgrwt>
<rscale>  0 0.13146978E+04</rscale>
<asrwt>0</asrwt>
<pdfrwt beam="1">  1        1 0.45955148E+00 0.13146978E+04</pdfrwt>
<pdfrwt beam="2">  1       -1 0.13420414E+00 0.13146978E+04</pdfrwt>
<totfact> 0.27910830E-01</totfact>
</mgrwt>
</event>
<event>
 4    1  0.2293715E-008  0.8289592E+03  0.7818608E-02  0.9519021E-01
         -1   -1    0    0    0  501 -0.00000000000E+00  0.00000000000E+00  0.26479263550E+03  0.26479263554E+03  0.50400000000E-02 0.  1.
          1   -1    0    0  501    0  0.00000000000E+00 -0.00000000000E+00 -0.28798128244E+04  0.28798128244E+04  0.50400000000E-02 0. -1.
    8880022    1    1    2    0    0 -0.63534567198E+03 -0.51001717227E+03 -0.81316643532E+03  0.11612118426E+04  0.15294330000E+03 0.  0.
    8880022    1    1    2    0    0  0.63534567198E+03  0.51001717227E+03 -0.18018537536E+04  0.19833936174E+04  0.15294330000E+03 0.  0.
<mgrwt>
<rscale>  0 0.82895916E+03</rscale>
<asrwt>0</asrwt>
<pdfrwt beam="1">  1        1 0.44304810E+00 0.82895916E+03</pdfrwt>
<pdfrwt beam="2">  1       -1 0.40737331E-01 0.82895916E+03</pdfrwt>
<totfact> 0.45244949E+00</totfact>
</mgrwt>
</event>
<event>
 4    1  0.2293715E-008  0.2398191E+03  0.7818608E-02  0.1119913E+00
         -1   -1    0    0    0  501 -0.00000000000E+00  0.00000000000E+00  0.33609813384E+03  0.33609813388E+03  0.50400000000E-02 0.  1.
          1   -1    0    0  501    0  0.00000000000E+00 -0.00000000000E+00 -0.90395376049E+03  0.90395376051E+03  0.50400000000E-02 0. -1.
    8880022    1    1    2    0    0 -0.16747568956E+03  0.77932218463E+02  0.27433592874E+03  0.36438083386E+03  0.15294330000E+03 0.  0.
    8880022    1    1    2    0    0  0.16747568956E+03 -0.77932218463E+02 -0.84219155539E+03  0.87567106053E+03  0.15294330000E+03 0. -1.
<mgrwt>
<rscale>  0 0.23981908E+03</rscale>
<asrwt>0</asrwt>
<pdfrwt beam="1">  1        1 0.13906981E+00 0.23981908E+03</pdfrwt>
<pdfrwt beam="2">  1       -1 0.51707406E-01 0.23981908E+03</pdfrwt>
<totfact> 0.74825789E+01</totfact>
</mgrwt>
</event>
<event>
 4    1  0.2293715E-008  0.7142020E+03  0.7818608E-02  0.9693249E-01
         -1   -1    0    0    0  501 -0.00000000000E+00  0.00000000000E+00  0.31587952425E+03  0.31587952429E+03  0.50400000000E-02 0.  1.
          1   -1    0    0  501    0  0.00000000000E+00 -0.00000000000E+00 -0.18796260545E+04  0.18796260545E+04  0.50400000000E-02 0. -1.
    8880022    1    1    2    0    0  0.61391530398E+03  0.33136200318E+03 -0.11939172046E+04  0.13912306502E+04  0.15294330000E+03 0.  0.
    8880022    1    1    2    0    0 -0.61391530398E+03 -0.33136200318E+03 -0.36982932563E+03  0.80427492857E+03  0.15294330000E+03 0.  0.
<mgrwt>
<rscale>  0 0.71420195E+03</rscale>
<asrwt>0</asrwt>
<pdfrwt beam="1">  1        1 0.28917323E+00 0.71420195E+03</pdfrwt>
<pdfrwt beam="2">  1       -1 0.48596851E-01 0.71420195E+03</pdfrwt>
<totfact> 0.15949225E+01</totfact>
</mgrwt>
</event>
<event>
 4    1  0.2293715E-008  0.4256831E+03  0.7818608E-02  0.1035232E+00
          1   -1    0    0  501    0  0.00000000000E+00  0.00000000000E+00  0.54234803796E+03  0.54234803798E+03  0.50400000000E-02 0. -1.
         -1   -1    0    0    0  501 -0.00000000000E+00 -0.00000000000E+00 -0.77182954626E+03  0.77182954627E+03  0.50400000000E-02 0.  1.
    8880022    1    1    2    0    0  0.26907708849E+03 -0.29225332005E+03  0.38009296707E+03  0.57068099606E+03  0.15294330000E+03 0. -1.
    8880022    1    1    2    0    0 -0.26907708849E+03  0.29225332005E+03 -0.60957447536E+03  0.74349658820E+03  0.15294330000E+03 0.  0.
<mgrwt>
<rscale>  0 0.42568314E+03</rscale>
<asrwt>0</asrwt>
<pdfrwt beam="1">  1        1 0.83438160E-01 0.42568314E+03</pdfrwt>
<pdfrwt beam="2">  1       -1 0.11874301E+00 0.42568314E+03</pdfrwt>
<totfact> 0.26903096E+01</totfact>
</mgrwt>
</event>
<event>
 4    1  0.2293715E-008  0.2325515E+03  0.7818608E-02  0.1124857E+00
          1   -1    0    0  501    0  0.00000000000E+00  0.00000000000E+00  0.63493664979E+03  0.63493664981E+03  0.50400000000E-02 0. -1.
         -1   -1    0    0    0  501 -0.00000000000E+00 -0.00000000000E+00 -0.19537590048E+03  0.19537590054E+03  0.50400000000E-02 0.  1.
    8880022    1    1    2    0    0  0.13376509396E+03 -0.11311698731E+03  0.53157620642E+03  0.58021846698E+03  0.15294330000E+03 0.  0.
    8880022    1    1    2    0    0 -0.13376509396E+03  0.11311698731E+03 -0.92015457103E+02  0.25009408338E+03  0.15294330000E+03 0.  0.
<mgrwt>
<rscale>  0 0.23255151E+03</rscale>
<asrwt>0</asrwt>
<pdfrwt beam="1">  1        1 0.97682560E-01 0.23255151E+03</pdfrwt>
<pdfrwt beam="2">  1       -1 0.30057831E-01 0.23255151E+03</pdfrwt>
<totfact> 0.33450114E+02</totfact>
</mgrwt>
</event>
<event>
 4    1  0.2293715E-008  0.7370721E+03  0.7818608E-02  0.9655853E-01
          1   -1    0    0  501    0  0.00000000000E+00  0.00000000000E+00  0.10287626819E+04  0.10287626819E+04  0.50400000000E-02 0. -1.
         -1   -1    0    0    0  501 -0.00000000000E+00 -0.00000000000E+00 -0.54832245519E+03  0.54832245521E+03  0.50400000000E-02 0.  1.
    8880022    1    1    2    0    0 -0.43581097588E+03  0.57441483667E+03  0.88733812700E+02  0.74239406909E+03  0.15294330000E+03 0.  0.
    8880022    1    1    2    0    0  0.43581097588E+03 -0.57441483667E+03  0.39170641404E+03  0.83469106806E+03  0.15294330000E+03 0.  0.
<mgrwt>
<rscale>  0 0.73707209E+03</rscale>
<asrwt>0</asrwt>
<pdfrwt beam="1">  1        1 0.15827118E+00 0.73707209E+03</pdfrwt>
<pdfrwt beam="2">  1       -1 0.84357302E-01 0.73707209E+03</pdfrwt>
<totfact> 0.20619025E+01</totfact>
</mgrwt>
</event>
<event>
 4    1  0.2293715E-008  0.3559161E+03  0.7818608E-02  0.1060213E+00
         -1   -1    0    0    0  501 -0.00000000000E+00  0.00000000000E+00  0.15348658739E+04  0.15348658739E+04  0.50400000000E-02 0.  1.
          1   -1    0    0  501    0  0.00000000000E+00 -0.00000000000E+00 -0.69717436349E+03  0.69717436350E+03  0.50400000000E-02 0. -1.
    8880022    1    1    2    0    0 -0.29665708282E+03 -0.12360891820E+03 -0.62903630464E+03  0.72274678486E+03  0.15294330000E+03 0.  0.
    8880022    1    1    2    0    0  0.29665708282E+03  0.12360891820E+03  0.14667278151E+04  0.15092934526E+04  0.15294330000E+03 0.  0.
<mgrwt>
<rscale>  0 0.35591606E+03</rscale>
<asrwt>0</asrwt>
<pdfrwt beam="1">  1        1 0.10725759E+00 0.35591606E+03</pdfrwt>
<pdfrwt beam="2">  1       -1 0.23613321E+00 0.35591606E+03</pdfrwt>
<totfact> 0.27060289E+00</totfact>
</mgrwt>
</event>
<event>
 4    1  0.2293715E-008  0.1081334E+04  0.7818608E-02  0.9223578E-01
         -1   -1    0    0    0  501 -0.00000000000E+00  0.00000000000E+00  0.73299005254E+03  0.73299005256E+03  0.50400000000E-02 0.  1.
          1   -1    0    0  501    0  0.00000000000E+00 -0.00000000000E+00 -0.21075157405E+04  0.21075157405E+04  0.50400000000E-02 0. -1.
    8880022    1    1    2    0    0 -0.84532986964E+03  0.65674175965E+03  0.12963696004E+02  0.10814120574E+04  0.15294330000E+03 0.  0.
    8880022    1    1    2    0    0  0.84532986964E+03 -0.65674175965E+03 -0.13874893840E+04  0.17590937357E+04  0.15294330000E+03 0.  0.
<mgrwt>
<rscale>  0 0.10813344E+04</rscale>
<asrwt>0</asrwt>
<pdfrwt beam="1">  1        1 0.32423319E+00 0.10813344E+04</pdfrwt>
<pdfrwt beam="2">  1       -1 0.11276770E+00 0.10813344E+04</pdfrwt>
<totfact> 0.18135581E+00</totfact>
</mgrwt>
</event>
<event>
 4    1  0.2293715E-008  0.6074229E+03  0.7818608E-02  0.9890124E-01
         -1   -1    0    0    0  501 -0.00000000000E+00  0.00000000000E+00  0.35571841421E+03  0.35571841424E+03  0.50400000000E-02 0.  1.
          1   -1    0    0  501    0  0.00000000000E+00 -0.00000000000E+00 -0.11828945773E+04  0.11828945773E+04  0.50400000000E-02 0. -1.
    8880022    1    1    2    0    0 -0.48391344581E+03  0.33376447023E+03 -0.14362768462E+03  0.62417265995E+03  0.15294330000E+03 0.  1.
    8880022    1    1    2    0    0  0.48391344581E+03 -0.33376447023E+03 -0.68354847848E+03  0.91444033161E+03  0.15294330000E+03 0.  0.
<mgrwt>
<rscale>  0 0.60742291E+03</rscale>
<asrwt>0</asrwt>
<pdfrwt beam="1">  1        1 0.18198378E+00 0.60742291E+03</pdfrwt>
<pdfrwt beam="2">  1       -1 0.54725910E-01 0.60742291E+03</pdfrwt>
<totfact> 0.38781903E+01</totfact>
</mgrwt>
</event>
<event>
 4    1  0.2293715E-008  0.1550674E+03  0.7818608E-02  0.1194381E+00
         -1   -1    0    0    0  501 -0.00000000000E+00  0.00000000000E+00  0.85008901230E+02  0.85008901379E+02  0.50400000000E-02 0.  1.
          1   -1    0    0  501    0  0.00000000000E+00 -0.00000000000E+00 -0.28433526144E+03  0.28433526148E+03  0.50400000000E-02 0. -1.
    8880022    1    1    2    0    0  0.24110455302E+02 -0.85394100216E+01 -0.11295091822E+03  0.19184316126E+03  0.15294330000E+03 0. -1.
    8880022    1    1    2    0    0 -0.24110455302E+02  0.85394100216E+01 -0.86375441989E+02  0.17750100161E+03  0.15294330000E+03 0.  1.
<mgrwt>
<rscale>  0 0.15506737E+03</rscale>
<asrwt>0</asrwt>
<pdfrwt beam="1">  1        1 0.43743886E-01 0.15506737E+03</pdfrwt>
<pdfrwt beam="2">  1       -1 0.13078293E-01 0.15506737E+03</pdfrwt>
<totfact> 0.36430855E+03</totfact>
</mgrwt>
</event>
<event>
 4    1  0.2293715E-008  0.3798564E+03  0.7818608E-02  0.1050987E+00
         -1   -1    0    0    0  501 -0.00000000000E+00  0.00000000000E+00  0.32042294358E+03  0.32042294362E+03  0.50400000000E-02 0.  1.
          1   -1    0    0  501    0  0.00000000000E+00 -0.00000000000E+00 -0.12443072826E+04  0.12443072826E+04  0.50400000000E-02 0. -1.
    8880022    1    1    2    0    0  0.28840651528E+03  0.19421882375E+03 -0.10869048461E+04  0.11513700826E+04  0.15294330000E+03 0.  0.
    8880022    1    1    2    0    0 -0.28840651528E+03 -0.19421882375E+03  0.16302050713E+03  0.41336014360E+03  0.15294330000E+03 0.  0.
<mgrwt>
<rscale>  0 0.37985645E+03</rscale>
<asrwt>0</asrwt>
<pdfrwt beam="1">  1        1 0.19143189E+00 0.37985645E+03</pdfrwt>
<pdfrwt beam="2">  1       -1 0.49295838E-01 0.37985645E+03</pdfrwt>
<totfact> 0.44422968E+01</totfact>
</mgrwt>
</event>
<event>
 4    1  0.2293715E-008  0.5450513E+03  0.7818608E-02  0.1002646E+00
          1   -1    0    0  501    0  0.00000000000E+00  0.00000000000E+00  0.57467794008E+03  0.57467794010E+03  0.50400000000E-02 0. -1.
         -1   -1    0    0    0  501 -0.00000000000E+00 -0.00000000000E+00 -0.62574138131E+03  0.62574138133E+03  0.50400000000E-02 0.  1.
    8880022    1    1    2    0    0  0.24161876342E+02  0.52259489746E+03 -0.27579602848E+03  0.61085540470E+03  0.15294330000E+03 0.  0.
    8880022    1    1    2    0    0 -0.24161876342E+02 -0.52259489746E+03  0.22473258725E+03  0.58956391672E+03  0.15294330000E+03 0.  0.
<mgrwt>
<rscale>  0 0.54505126E+03</rscale>
<asrwt>0</asrwt>
<pdfrwt beam="1">  1        1 0.88411991E-01 0.54505126E+03</pdfrwt>
<pdfrwt beam="2">  1       -1 0.96267905E-01 0.54505126E+03</pdfrwt>
<totfact> 0.39610993E+01</totfact>
</mgrwt>
</event>
<event>
 4    1  0.2293715E-008  0.7571506E+03  0.7818608E-02  0.9624199E-01
          1   -1    0    0  501    0  0.00000000000E+00  0.00000000000E+00  0.19311183859E+04  0.19311183859E+04  0.50400000000E-02 0. -1.
         -1   -1    0    0    0  501 -0.00000000000E+00 -0.00000000000E+00 -0.39406271169E+03  0.39406271173E+03  0.50400000000E-02 0.  1.
    8880022    1    1    2    0    0  0.58885725986E+03 -0.45070221335E+03  0.19112716573E+03  0.78090114874E+03  0.15294330000E+03 0.  0.
    8880022    1    1    2    0    0 -0.58885725986E+03  0.45070221335E+03  0.13459285085E+04  0.15442799489E+04  0.15294330000E+03 0.  0.
<mgrwt>
<rscale>  0 0.75715059E+03</rscale>
<asrwt>0</asrwt>
<pdfrwt beam="1">  1        1 0.29709514E+00 0.75715059E+03</pdfrwt>
<pdfrwt beam="2">  1       -1 0.60625032E-01 0.75715059E+03</pdfrwt>
<totfact> 0.95591119E+00</totfact>
</mgrwt>
</event>
<event>
 4    1  0.2293715E-008  0.2322398E+03  0.7818608E-02  0.1125073E+00
         -1   -1    0    0    0  501 -0.00000000000E+00  0.00000000000E+00  0.81111899675E+03  0.81111899676E+03  0.50400000000E-02 0.  1.
          1   -1    0    0  501    0  0.00000000000E+00 -0.00000000000E+00 -0.10317382060E+04  0.10317382060E+04  0.50400000000E-02 0. -1.
    8880022    1    1    2    0    0  0.17330044501E+03 -0.22597402763E+02  0.78093171679E+03  0.81473289252E+03  0.15294330000E+03 0.  0.
    8880022    1    1    2    0    0 -0.17330044501E+03  0.22597402763E+02 -0.10015509260E+04  0.10281243102E+04  0.15294330000E+03 0. -1.
<mgrwt>
<rscale>  0 0.23223983E+03</rscale>
<asrwt>0</asrwt>
<pdfrwt beam="1">  1        1 0.15872895E+00 0.23223983E+03</pdfrwt>
<pdfrwt beam="2">  1       -1 0.12478754E+00 0.23223983E+03</pdfrwt>
<totfact> 0.94594367E+00</totfact>
</mgrwt>
</event>
<event>
 4    1  0.2293715E-008  0.1651127E+03  0.7818608E-02  0.1183043E+00
         -1   -1    0    0    0  501 -0.00000000000E+00  0.00000000000E+00  0.98793572413E+02  0.98793572541E+02  0.50400000000E-02 0.  1.
          1   -1    0    0  501    0  0.00000000000E+00 -0.00000000000E+00 -0.11503026621E+04  0.11503026621E+04  0.50400000000E-02 0. -1.
    8880022    1    1    2    0    0 -0.49672252212E+02 -0.37459344660E+02  0.18751748247E+02  0.16617405399E+03  0.15294330000E+03 0.  1.
    8880022    1    1    2    0    0  0.49672252212E+02  0.37459344660E+02 -0.10702608380E+04  0.10829221807E+04  0.15294330000E+03 0.  0.
<mgrwt>
<rscale>  0 0.16511265E+03</rscale>
<asrwt>0</asrwt>
<pdfrwt beam="1">  1        1 0.17696963E+00 0.16511265E+03</pdfrwt>
<pdfrwt beam="2">  1       -1 0.15199012E-01 0.16511265E+03</pdfrwt>
<totfact> 0.39896020E+02</totfact>
</mgrwt>
</event>
<event>
 4    1  0.2293715E-008  0.1278386E+04  0.7818608E-02  0.9046883E-01
          1   -1    0    0  501    0  0.00000000000E+00  0.00000000000E+00  0.27237862971E+04  0.27237862971E+04  0.50400000000E-02 0. -1.
         -1   -1    0    0    0  501 -0.00000000000E+00 -0.00000000000E+00 -0.68244198018E+03  0.68244198020E+03  0.50400000000E-02 0.  1.
    8880022    1    1    2    0    0 -0.11240811880E+04 -0.58933970231E+03  0.42872163742E+03  0.13483596320E+04  0.15294330000E+03 0.  0.
    8880022    1    1    2    0    0  0.11240811880E+04  0.58933970231E+03  0.16126226795E+04  0.20578686453E+04  0.15294330000E+03 0.  0.
<mgrwt>
<rscale>  0 0.12783863E+04</rscale>
<asrwt>0</asrwt>
<pdfrwt beam="1">  1        1 0.41904405E+00 0.12783863E+04</pdfrwt>
<pdfrwt beam="2">  1       -1 0.10499107E+00 0.12783863E+04</pdfrwt>
<totfact> 0.78939018E-01</totfact>
</mgrwt>
</event>
<event>
 4    1  0.2293715E-008  0.1112554E+04  0.7818608E-02  0.9193042E-01
          1   -1    0    0  501    0  0.00000000000E+00  0.00000000000E+00  0.16815008256E+04  0.16815008256E+04  0.50400000000E-02 0. -1.
         -1   -1    0    0    0  501 -0.00000000000E+00 -0.00000000000E+00 -0.79585706452E+03  0.79585706454E+03  0.50400000000E-02 0.  1.
    8880022    1    1    2    0    0  0.31266680115E+03 -0.10567042335E+04  0.10344240721E+03  0.11173523841E+04  0.15294330000E+03 0.  0.
    8880022    1    1    2    0    0 -0.31266680115E+03  0.10567042335E+04  0.78220135384E+03  0.13600055061E+04  0.15294330000E+03 0.  0.
<mgrwt>
<rscale>  0 0.11125538E+04</rscale>
<asrwt>0</asrwt>
<pdfrwt beam="1">  1        1 0.25869243E+00 0.11125538E+04</pdfrwt>
<pdfrwt beam="2">  1       -1 0.12243955E+00 0.11125538E+04</pdfrwt>
<totfact> 0.28703091E+00</totfact>
</mgrwt>
</event>
<event>
 4    1  0.2293715E-008  0.7023596E+03  0.7818608E-02  0.9713205E-01
          1   -1    0    0  501    0  0.00000000000E+00  0.00000000000E+00  0.97278052557E+03  0.97278052558E+03  0.50400000000E-02 0. -1.
         -1   -1    0    0    0  501 -0.00000000000E+00 -0.00000000000E+00 -0.82308009018E+03  0.82308009020E+03  0.50400000000E-02 0.  1.
    8880022    1    1    2    0    0 -0.47572168256E+03 -0.49356488464E+03 -0.48149315575E+03  0.85155430048E+03  0.15294330000E+03 0.  0.
    8880022    1    1    2    0    0  0.47572168256E+03  0.49356488464E+03  0.63119359114E+03  0.94430631530E+03  0.15294330000E+03 0.  0.
<mgrwt>
<rscale>  0 0.70235964E+03</rscale>
<asrwt>0</asrwt>
<pdfrwt beam="1">  1        1 0.14965854E+00 0.70235964E+03</pdfrwt>
<pdfrwt beam="2">  1       -1 0.12662771E+00 0.70235964E+03</pdfrwt>
<totfact> 0.89589526E+00</totfact>
</mgrwt>
</event>
<event>
 4    1  0.2293715E-008  0.1043579E+04  0.7818608E-02  0.9261998E-01
          1   -1    0    0  501    0  0.00000000000E+00  0.00000000000E+00  0.10832256584E+04  0.10832256584E+04  0.50400000000E-02 0. -1.
         -1   -1    0    0    0  501 -0.00000000000E+00 -0.00000000000E+00 -0.22194500747E+04  0.22194500748E+04  0.50400000000E-02 0.  1.
    8880022    1    1    2    0    0  0.79707481099E+03 -0.65600101623E+03 -0.17894463415E+04  0.20715152545E+04  0.15294330000E+03 0.  0.
    8880022    1    1    2    0    0 -0.79707481099E+03  0.65600101623E+03  0.65322192520E+03  0.12311604786E+04  0.15294330000E+03 0.  0.
<mgrwt>
<rscale>  0 0.10435791E+04</rscale>
<asrwt>0</asrwt>
<pdfrwt beam="1">  1        1 0.16665010E+00 0.10435791E+04</pdfrwt>
<pdfrwt beam="2">  1       -1 0.34145386E+00 0.10435791E+04</pdfrwt>
<totfact> 0.23385836E-01</totfact>
</mgrwt>
</event>
<event>
 4    1  0.2293715E-008  0.4843206E+03  0.7818608E-02  0.1017954E+00
         -1   -1    0    0    0  501 -0.00000000000E+00  0.00000000000E+00  0.34655984698E+03  0.34655984702E+03  0.50400000000E-02 0.  1.
          1   -1    0    0  501    0  0.00000000000E+00 -0.00000000000E+00 -0.15029380703E+04  0.15029380703E+04  0.50400000000E-02 0. -1.
    8880022    1    1    2    0    0  0.42725309341E+03  0.16920275972E+03  0.10740717274E+03  0.49608742526E+03  0.15294330000E+03 0.  0.
    8880022    1    1    2    0    0 -0.42725309341E+03 -0.16920275972E+03 -0.12637853960E+04  0.13534104920E+04  0.15294330000E+03 0.  0.
<mgrwt>
<rscale>  0 0.48432059E+03</rscale>
<asrwt>0</asrwt>
<pdfrwt beam="1">  1        1 0.23122124E+00 0.48432059E+03</pdfrwt>
<pdfrwt beam="2">  1       -1 0.53316901E-01 0.48432059E+03</pdfrwt>
<totfact> 0.24907210E+01</totfact>
</mgrwt>
</event>
<event>
 4    1  0.2293715E-008  0.2045571E+03  0.7818608E-02  0.1145950E+00
         -1   -1    0    0    0  501 -0.00000000000E+00  0.00000000000E+00  0.15562344819E+03  0.15562344827E+03  0.50400000000E-02 0.  1.
          1   -1    0    0  501    0  0.00000000000E+00 -0.00000000000E+00 -0.82061914643E+03  0.82061914645E+03  0.50400000000E-02 0. -1.
    8880022    1    1    2    0    0  0.99700162229E+02 -0.92259501493E+02  0.67746261940E+02  0.21548351906E+03  0.15294330000E+03 0.  1.
    8880022    1    1    2    0    0 -0.99700162229E+02  0.92259501493E+02 -0.73274196018E+03  0.76075907566E+03  0.15294330000E+03 0.  0.
<mgrwt>
<rscale>  0 0.20455706E+03</rscale>
<asrwt>0</asrwt>
<pdfrwt beam="1">  1        1 0.12624910E+00 0.20455706E+03</pdfrwt>
<pdfrwt beam="2">  1       -1 0.23942069E-01 0.20455706E+03</pdfrwt>
<totfact> 0.33671579E+02</totfact>
</mgrwt>
</event>
<event>
 4    1  0.2293715E-008  0.6865576E+03  0.7818608E-02  0.9740501E-01
         -1   -1    0    0    0  501 -0.00000000000E+00  0.00000000000E+00  0.10333843000E+04  0.10333843000E+04  0.50400000000E-02 0.  1.
          1   -1    0    0  501    0  0.00000000000E+00 -0.00000000000E+00 -0.88399439985E+03  0.88399439987E+03  0.50400000000E-02 0. -1.
    8880022    1    1    2    0    0  0.43650412465E+03  0.50737942652E+03 -0.59227206043E+03  0.90672354104E+03  0.15294330000E+03 0.  0.
    8880022    1    1    2    0    0 -0.43650412465E+03 -0.50737942652E+03  0.74166196055E+03  0.10106551588E+04  0.15294330000E+03 0.  0.
<mgrwt>
<rscale>  0 0.68655764E+03</rscale>
<asrwt>0</asrwt>
<pdfrwt beam="1">  1        1 0.13599914E+00 0.68655764E+03</pdfrwt>
<pdfrwt beam="2">  1       -1 0.15898220E+00 0.68655764E+03</pdfrwt>
<totfact> 0.58332866E+00</totfact>
</mgrwt>
</event>
<event>
 4    1  0.2293715E-008  0.2872232E+03  0.7818608E-02  0.1091808E+00
          1   -1    0    0  501    0  0.00000000000E+00  0.00000000000E+00  0.19790255982E+04  0.19790255982E+04  0.50400000000E-02 0. -1.
         -1   -1    0    0    0  501 -0.00000000000E+00 -0.00000000000E+00 -0.86613413332E+02  0.86613413478E+02  0.50400000000E-02 0.  1.
    8880022    1    1    2    0    0  0.10421519804E+03 -0.21964672948E+03  0.16900620051E+04  0.17142948192E+04  0.15294330000E+03 0.  0.
    8880022    1    1    2    0    0 -0.10421519804E+03  0.21964672948E+03  0.20235017975E+03  0.35134419240E+03  0.15294330000E+03 0.  0.
<mgrwt>
<rscale>  0 0.28722316E+03</rscale>
<asrwt>0</asrwt>
<pdfrwt beam="1">  1        1 0.30446545E+00 0.28722316E+03</pdfrwt>
<pdfrwt beam="2">  1       -1 0.13325142E-01 0.28722316E+03</pdfrwt>
<totfact> 0.13514988E+02</totfact>
</mgrwt>
</event>
<event>
 4    1  0.2293715E-008  0.2178183E+03  0.7818608E-02  0.1135520E+00
          1   -1    0    0  501    0  0.00000000000E+00  0.00000000000E+00  0.61224436705E+02  0.61224436912E+02  0.50400000000E-02 0. -1.
         -1   -1    0    0    0  501 -0.00000000000E+00 -0.00000000000E+00 -0.85337694020E+03  0.85337694022E+03  0.50400000000E-02 0.  1.
    8880022    1    1    2    0    0  0.47082410547E+02  0.14777152851E+03 -0.53472353074E+03  0.57738556040E+03  0.15294330000E+03 0.  0.
    8880022    1    1    2    0    0 -0.47082410547E+02 -0.14777152851E+03 -0.25742897276E+03  0.33721581673E+03  0.15294330000E+03 0.  0.
<mgrwt>
<rscale>  0 0.21781834E+03</rscale>
<asrwt>0</asrwt>
<pdfrwt beam="1">  1        1 0.94191447E-02 0.21781834E+03</pdfrwt>
<pdfrwt beam="2">  1       -1 0.13128875E+00 0.21781834E+03</pdfrwt>
<totfact> 0.37046274E+02</totfact>
</mgrwt>
</event>
<event>
 4    1  0.2293715E-008  0.1558381E+04  0.7818608E-02  0.8846532E-01
          1   -1    0    0  501    0  0.00000000000E+00  0.00000000000E+00  0.18572252842E+04  0.18572252843E+04  0.50400000000E-02 0. -1.
         -1   -1    0    0    0  501 -0.00000000000E+00 -0.00000000000E+00 -0.15797514988E+04  0.15797514989E+04  0.50400000000E-02 0.  1.
    8880022    1    1    2    0    0  0.44629527216E+03  0.14852546024E+04  0.85198138885E+03  0.17760699997E+04  0.15294330000E+03 0.  0.
    8880022    1    1    2    0    0 -0.44629527216E+03 -0.14852546024E+04 -0.57450760345E+03  0.16609067834E+04  0.15294330000E+03 0.  0.
<mgrwt>
<rscale>  0 0.15583813E+04</rscale>
<asrwt>0</asrwt>
<pdfrwt beam="1">  1        1 0.28572697E+00 0.15583813E+04</pdfrwt>
<pdfrwt beam="2">  1       -1 0.24303869E+00 0.15583813E+04</pdfrwt>
<totfact> 0.27048056E-01</totfact>
</mgrwt>
</event>
<event>
 4    1  0.2293715E-008  0.2957091E+03  0.7818608E-02  0.1087405E+00
          1   -1    0    0  501    0  0.00000000000E+00  0.00000000000E+00  0.88492214671E+02  0.88492214815E+02  0.50400000000E-02 0. -1.
         -1   -1    0    0    0  501 -0.00000000000E+00 -0.00000000000E+00 -0.14697644734E+04  0.14697644734E+04  0.50400000000E-02 0.  1.
    8880022    1    1    2    0    0 -0.19985989518E+03  0.15526824134E+03 -0.24463753242E+03  0.38378559086E+03  0.15294330000E+03 0. -1.
    8880022    1    1    2    0    0  0.19985989518E+03 -0.15526824134E+03 -0.11366347263E+04  0.11744710973E+04  0.15294330000E+03 0.  0.
<mgrwt>
<rscale>  0 0.29570908E+03</rscale>
<asrwt>0</asrwt>
<pdfrwt beam="1">  1        1 0.13614188E-01 0.29570908E+03</pdfrwt>
<pdfrwt beam="2">  1       -1 0.22611759E+00 0.29570908E+03</pdfrwt>
<totfact> 0.47655087E+01</totfact>
</mgrwt>
</event>
<event>
 4    1  0.2293715E-008  0.2219063E+03  0.7818608E-02  0.1132470E+00
          1   -1    0    0  501    0  0.00000000000E+00  0.00000000000E+00  0.27745075296E+03  0.27745075301E+03  0.50400000000E-02 0. -1.
         -1   -1    0    0    0  501 -0.00000000000E+00 -0.00000000000E+00 -0.38477238065E+03  0.38477238068E+03  0.50400000000E-02 0.  1.
    8880022    1    1    2    0    0  0.31960627592E+02  0.15757302792E+03  0.18937061342E+03  0.29172525274E+03  0.15294330000E+03 0.  0.
    8880022    1    1    2    0    0 -0.31960627592E+02 -0.15757302792E+03 -0.29669224110E+03  0.37049788095E+03  0.15294330000E+03 0.  0.
<mgrwt>
<rscale>  0 0.22190627E+03</rscale>
<asrwt>0</asrwt>
<pdfrwt beam="1">  1        1 0.42684731E-01 0.22190627E+03</pdfrwt>
<pdfrwt beam="2">  1       -1 0.59195751E-01 0.22190627E+03</pdfrwt>
<totfact> 0.29170817E+02</totfact>
</mgrwt>
</event>
<event>
 4    1  0.2293715E-008  0.2609864E+03  0.7818608E-02  0.1106552E+00
          1   -1    0    0  501    0  0.00000000000E+00  0.00000000000E+00  0.97988948162E+03  0.97988948164E+03  0.50400000000E-02 0. -1.
         -1   -1    0    0    0  501 -0.00000000000E+00 -0.00000000000E+00 -0.58848464118E+03  0.58848464120E+03  0.50400000000E-02 0.  1.
    8880022    1    1    2    0    0  0.21030694151E+03  0.22209155300E+02  0.93212044490E+03  0.96796819836E+03  0.15294330000E+03 0. -1.
    8880022    1    1    2    0    0 -0.21030694151E+03 -0.22209155300E+02 -0.54071560446E+03  0.60040592447E+03  0.15294330000E+03 0.  0.
<mgrwt>
<rscale>  0 0.26098642E+03</rscale>
<asrwt>0</asrwt>
<pdfrwt beam="1">  1        1 0.15075223E+00 0.26098642E+03</pdfrwt>
<pdfrwt beam="2">  1       -1 0.90536099E-01 0.26098642E+03</pdfrwt>
<totfact> 0.21235650E+01</totfact>
</mgrwt>
</event>
<event>
 4    1  0.2293715E-008  0.1149569E+04  0.7818608E-02  0.9158182E-01
          1   -1    0    0  501    0  0.00000000000E+00  0.00000000000E+00  0.14396189308E+04  0.14396189308E+04  0.50400000000E-02 0. -1.
         -1   -1    0    0    0  501 -0.00000000000E+00 -0.00000000000E+00 -0.25177485060E+04  0.25177485060E+04  0.50400000000E-02 0.  1.
    8880022    1    1    2    0    0  0.79737153416E+03 -0.81382746461E+03 -0.21163197810E+04  0.24083848475E+04  0.15294330000E+03 0.  0.
    8880022    1    1    2    0    0 -0.79737153416E+03  0.81382746461E+03  0.10381902057E+04  0.15489825893E+04  0.15294330000E+03 0.  0.
<mgrwt>
<rscale>  0 0.11495687E+04</rscale>
<asrwt>0</asrwt>
<pdfrwt beam="1">  1        1 0.22147984E+00 0.11495687E+04</pdfrwt>
<pdfrwt beam="2">  1       -1 0.38734592E+00 0.11495687E+04</pdfrwt>
<totfact> 0.62801735E-02</totfact>
</mgrwt>
</event>
<event>
 4    1  0.2293715E-008  0.4063574E+03  0.7818608E-02  0.1041600E+00
          1   -1    0    0  501    0  0.00000000000E+00  0.00000000000E+00  0.89641696060E+03  0.89641696061E+03  0.50400000000E-02 0. -1.
         -1   -1    0    0    0  501 -0.00000000000E+00 -0.00000000000E+00 -0.43907516413E+03  0.43907516416E+03  0.50400000000E-02 0.  1.
    8880022    1    1    2    0    0 -0.34906634910E+03 -0.14102248674E+03 -0.28007352859E+03  0.49352557408E+03  0.15294330000E+03 0.  0.
    8880022    1    1    2    0    0  0.34906634910E+03  0.14102248674E+03  0.73741532505E+03  0.84196655069E+03  0.15294330000E+03 0.  0.
<mgrwt>
<rscale>  0 0.40635737E+03</rscale>
<asrwt>0</asrwt>
<pdfrwt beam="1">  1        1 0.13791030E+00 0.40635737E+03</pdfrwt>
<pdfrwt beam="2">  1       -1 0.67550026E-01 0.40635737E+03</pdfrwt>
<totfact> 0.43623910E+01</totfact>
</mgrwt>
</event>
<event>
 4    1  0.2293715E-008  0.3427415E+03  0.7818608E-02  0.1065634E+00
         -1   -1    0    0    0  501 -0.00000000000E+00  0.00000000000E+00  0.94590036355E+03  0.94590036357E+03  0.50400000000E-02 0.  1.
          1   -1    0    0  501    0  0.00000000000E+00 -0.00000000000E+00 -0.26425254200E+03  0.26425254205E+03  0.50400000000E-02 0. -1.
    8880022    1    1    2    0    0  0.11327042395E+03  0.28504364975E+03  0.78133929559E+03  0.85320737166E+03  0.15294330000E+03 0.  0.
    8880022    1    1    2    0    0 -0.11327042395E+03 -0.28504364975E+03 -0.99691474034E+02  0.35694553396E+03  0.15294330000E+03 0. -1.
<mgrwt>
<rscale>  0 0.34274148E+03</rscale>
<asrwt>0</asrwt>
<pdfrwt beam="1">  1        1 0.40654238E-01 0.34274148E+03</pdfrwt>
<pdfrwt beam="2">  1       -1 0.14552313E+00 0.34274148E+03</pdfrwt>
<totfact> 0.41957311E+01</totfact>
</mgrwt>
</event>
<event>
 4    1  0.2293715E-008  0.1002877E+04  0.7818608E-02  0.9305395E-01
         -1   -1    0    0    0  501 -0.00000000000E+00  0.00000000000E+00  0.90757483857E+03  0.90757483859E+03  0.50400000000E-02 0.  1.
          1   -1    0    0  501    0  0.00000000000E+00 -0.00000000000E+00 -0.17559852583E+04  0.17559852584E+04  0.50400000000E-02 0. -1.
    8880022    1    1    2    0    0 -0.33261602036E+03  0.93366912039E+03 -0.12330995379E+04  0.15894330961E+04  0.15294330000E+03 0.  0.
    8880022    1    1    2    0    0  0.33261602036E+03 -0.93366912039E+03  0.38468911817E+03  0.10741270009E+04  0.15294330000E+03 0.  0.
<mgrwt>
<rscale>  0 0.10028774E+04</rscale>
<asrwt>0</asrwt>
<pdfrwt beam="1">  1        1 0.27015158E+00 0.10028774E+04</pdfrwt>
<pdfrwt beam="2">  1       -1 0.13962690E+00 0.10028774E+04</pdfrwt>
<totfact> 0.18563898E+00</totfact>
</mgrwt>
</event>
<event>
 4    1  0.2293715E-008  0.3078991E+03  0.7818608E-02  0.1081357E+00
          1   -1    0    0  501    0  0.00000000000E+00  0.00000000000E+00  0.25240419878E+03  0.25240419883E+03  0.50400000000E-02 0. -1.
         -1   -1    0    0    0  501 -0.00000000000E+00 -0.00000000000E+00 -0.70327212151E+03  0.70327212152E+03  0.50400000000E-02 0.  1.
    8880022    1    1    2    0    0 -0.12315035219E+03  0.23715863808E+03 -0.55160234065E+03  0.63171751922E+03  0.15294330000E+03 0.  0.
    8880022    1    1    2    0    0  0.12315035219E+03 -0.23715863808E+03  0.10073441793E+03  0.32395880114E+03  0.15294330000E+03 0.  0.
<mgrwt>
<rscale>  0 0.30789914E+03</rscale>
<asrwt>0</asrwt>
<pdfrwt beam="1">  1        1 0.38831415E-01 0.30789914E+03</pdfrwt>
<pdfrwt beam="2">  1       -1 0.10819571E+00 0.30789914E+03</pdfrwt>
<totfact> 0.92292242E+01</totfact>
</mgrwt>
</event>
<event>
 4    1  0.2293715E-008  0.4024166E+03  0.7818608E-02  0.1042946E+00
         -1   -1    0    0    0  501 -0.00000000000E+00  0.00000000000E+00  0.44571714253E+03  0.44571714255E+03  0.50400000000E-02 0.  1.
          1   -1    0    0  501    0  0.00000000000E+00 -0.00000000000E+00 -0.26211298930E+04  0.26211298930E+04  0.50400000000E-02 0. -1.
    8880022    1    1    2    0    0  0.17430717349E+03  0.32888374156E+03  0.33547834810E+03  0.52391304741E+03  0.15294330000E+03 0.  0.
    8880022    1    1    2    0    0 -0.17430717349E+03 -0.32888374156E+03 -0.25108910985E+04  0.25429339881E+04  0.15294330000E+03 0.  0.
<mgrwt>
<rscale>  0 0.40241665E+03</rscale>
<asrwt>0</asrwt>
<pdfrwt beam="1">  1        1 0.40325074E+00 0.40241665E+03</pdfrwt>
<pdfrwt beam="2">  1       -1 0.68571870E-01 0.40241665E+03</pdfrwt>
<totfact> 0.28111251E+00</totfact>
</mgrwt>
</event>
<event>
 4    1  0.2477488E-008  0.7870709E+03  0.7818608E-02  0.9578922E-01
          1   -1    0    0  501    0  0.00000000000E+00  0.00000000000E+00  0.12978796147E+04  0.12978796147E+04  0.50400000000E-02 0. -1.
         -1   -1    0    0    0  501 -0.00000000000E+00 -0.00000000000E+00 -0.21117004824E+04  0.21117004824E+04  0.50400000000E-02 0.  1.
    8880022    1    1    2    0    0 -0.62146778498E+03 -0.45811208152E+03 -0.19067117031E+04  0.20627724205E+04  0.15294330000E+03 0.  0.
    8880022    1    1    2    0    0  0.62146778498E+03  0.45811208152E+03  0.10928908354E+04  0.13468076767E+04  0.15294330000E+03 0.  0.
<mgrwt>
<rscale>  0 0.78707086E+03</rscale>
<asrwt>0</asrwt>
<pdfrwt beam="1">  1        1 0.19967379E+00 0.78707086E+03</pdfrwt>
<pdfrwt beam="2">  1       -1 0.32487700E+00 0.78707086E+03</pdfrwt>
<totfact> 0.21971016E-01</totfact>
</mgrwt>
</event>
<event>
 4    1  0.2293715E-008  0.4148167E+03  0.7818608E-02  0.1038767E+00
          1   -1    0    0  501    0  0.00000000000E+00  0.00000000000E+00  0.10978996415E+04  0.10978996415E+04  0.50400000000E-02 0. -1.
         -1   -1    0    0    0  501 -0.00000000000E+00 -0.00000000000E+00 -0.47280610740E+03  0.47280610743E+03  0.50400000000E-02 0.  1.
    8880022    1    1    2    0    0 -0.33550134290E+02  0.38412971993E+03  0.95467194463E+03  0.10408993362E+04  0.15294330000E+03 0.  0.
    8880022    1    1    2    0    0  0.33550134290E+02 -0.38412971993E+03 -0.32957841054E+03  0.52980641272E+03  0.15294330000E+03 0.  0.
<mgrwt>
<rscale>  0 0.41481671E+03</rscale>
<asrwt>0</asrwt>
<pdfrwt beam="1">  1        1 0.16890763E+00 0.41481671E+03</pdfrwt>
<pdfrwt beam="2">  1       -1 0.72739403E-01 0.41481671E+03</pdfrwt>
<totfact> 0.26306771E+01</totfact>
</mgrwt>
</event>
<event>
 4    1  0.2293715E-008  0.1867927E+03  0.7818608E-02  0.1161386E+00
         -1   -1    0    0    0  501 -0.00000000000E+00  0.00000000000E+00  0.48733009073E+03  0.48733009075E+03  0.50400000000E-02 0.  1.
          1   -1    0    0  501    0  0.00000000000E+00 -0.00000000000E+00 -0.17702081882E+04  0.17702081882E+04  0.50400000000E-02 0. -1.
    8880022    1    1    2    0    0  0.99338265056E+02  0.40395383615E+02  0.46426755470E+03  0.50043570345E+03  0.15294330000E+03 0.  1.
    8880022    1    1    2    0    0 -0.99338265056E+02 -0.40395383615E+02 -0.17471456522E+04  0.17571025755E+04  0.15294330000E+03 0.  0.
<mgrwt>
<rscale>  0 0.18679275E+03</rscale>
<asrwt>0</asrwt>
<pdfrwt beam="1">  1        1 0.27233972E+00 0.18679275E+03</pdfrwt>
<pdfrwt beam="2">  1       -1 0.74973861E-01 0.18679275E+03</pdfrwt>
<totfact> 0.94834725E+00</totfact>
</mgrwt>
</event>
<event>
 4    1  0.2293715E-008  0.8008395E+03  0.7818608E-02  0.9558803E-01
         -1   -1    0    0    0  501 -0.00000000000E+00  0.00000000000E+00  0.36124456302E+03  0.36124456305E+03  0.50400000000E-02 0.  1.
          1   -1    0    0  501    0  0.00000000000E+00 -0.00000000000E+00 -0.19004305574E+04  0.19004305574E+04  0.50400000000E-02 0. -1.
    8880022    1    1    2    0    0 -0.62737603265E+03 -0.47365770208E+03 -0.10596802486E+04  0.13282568228E+04  0.15294330000E+03 0.  0.
    8880022    1    1    2    0    0  0.62737603265E+03  0.47365770208E+03 -0.47950574576E+03  0.93341829761E+03  0.15294330000E+03 0.  0.
<mgrwt>
<rscale>  0 0.80083953E+03</rscale>
<asrwt>0</asrwt>
<pdfrwt beam="1">  1        1 0.29237393E+00 0.80083953E+03</pdfrwt>
<pdfrwt beam="2">  1       -1 0.55576088E-01 0.80083953E+03</pdfrwt>
<totfact> 0.11804501E+01</totfact>
</mgrwt>
</event>
<event>
 4    1  0.2293715E-008  0.6435759E+03  0.7818608E-02  0.9818909E-01
         -1   -1    0    0    0  501 -0.00000000000E+00  0.00000000000E+00  0.30919454810E+03  0.30919454814E+03  0.50400000000E-02 0.  1.
          1   -1    0    0  501    0  0.00000000000E+00 -0.00000000000E+00 -0.22964331433E+04  0.22964331433E+04  0.50400000000E-02 0. -1.
    8880022    1    1    2    0    0  0.61898324008E+03 -0.87510430128E+02 -0.18345858679E+04  0.19441952799E+04  0.15294330000E+03 0.  0.
    8880022    1    1    2    0    0 -0.61898324008E+03  0.87510430128E+02 -0.15265272738E+03  0.66143241156E+03  0.15294330000E+03 0.  0.
<mgrwt>
<rscale>  0 0.64357593E+03</rscale>
<asrwt>0</asrwt>
<pdfrwt beam="1">  1        1 0.35329740E+00 0.64357593E+03</pdfrwt>
<pdfrwt beam="2">  1       -1 0.47568393E-01 0.64357593E+03</pdfrwt>
<totfact> 0.88498603E+00</totfact>
</mgrwt>
</event>
<event>
 4    1  0.2293715E-008  0.1904962E+03  0.7818608E-02  0.1158015E+00
         -1   -1    0    0    0  501 -0.00000000000E+00  0.00000000000E+00  0.31610989891E+02  0.31610990292E+02  0.50400000000E-02 0.  1.
          1   -1    0    0  501    0  0.00000000000E+00 -0.00000000000E+00 -0.12993977988E+04  0.12993977988E+04  0.50400000000E-02 0. -1.
    8880022    1    1    2    0    0 -0.16250765179E+02 -0.11239685301E+03 -0.86107227776E+03  0.88189243135E+03  0.15294330000E+03 0. -1.
    8880022    1    1    2    0    0  0.16250765179E+02  0.11239685301E+03 -0.40671453116E+03  0.44911635776E+03  0.15294330000E+03 0.  1.
<mgrwt>
<rscale>  0 0.19049618E+03</rscale>
<asrwt>0</asrwt>
<pdfrwt beam="1">  1        1 0.19990731E+00 0.19049618E+03</pdfrwt>
<pdfrwt beam="2">  1       -1 0.48632303E-02 0.19049618E+03</pdfrwt>
<totfact> 0.17924605E+03</totfact>
</mgrwt>
</event>
<event>
 4    1  0.2293715E-008  0.5595285E+03  0.7818608E-02  0.9993122E-01
          1   -1    0    0  501    0  0.00000000000E+00  0.00000000000E+00  0.14267653518E+04  0.14267653518E+04  0.50400000000E-02 0. -1.
         -1   -1    0    0    0  501 -0.00000000000E+00 -0.00000000000E+00 -0.58394585501E+03  0.58394585503E+03  0.50400000000E-02 0.  1.
    8880022    1    1    2    0    0 -0.51034508969E+03 -0.17096308743E+03 -0.37290544332E+03  0.67240658125E+03  0.15294330000E+03 0.  0.
    8880022    1    1    2    0    0  0.51034508969E+03  0.17096308743E+03  0.12157249401E+04  0.13383046256E+04  0.15294330000E+03 0. -1.
<mgrwt>
<rscale>  0 0.55952850E+03</rscale>
<asrwt>0</asrwt>
<pdfrwt beam="1">  1        1 0.21950236E+00 0.55952850E+03</pdfrwt>
<pdfrwt beam="2">  1       -1 0.89837825E-01 0.55952850E+03</pdfrwt>
<totfact> 0.95730368E+00</totfact>
</mgrwt>
</event>
<event>
 4    1  0.2293715E-008  0.1171632E+04  0.7818608E-02  0.9138056E-01
          1   -1    0    0  501    0  0.00000000000E+00  0.00000000000E+00  0.15574437049E+04  0.15574437049E+04  0.50400000000E-02 0. -1.
         -1   -1    0    0    0  501 -0.00000000000E+00 -0.00000000000E+00 -0.10266351050E+04  0.10266351050E+04  0.50400000000E-02 0.  1.
    8880022    1    1    2    0    0 -0.58401311867E+03  0.10041208613E+04  0.75137752113E+03  0.13918656038E+04  0.15294330000E+03 0.  0.
    8880022    1    1    2    0    0  0.58401311867E+03 -0.10041208613E+04 -0.22056892126E+03  0.11922132061E+04  0.15294330000E+03 0.  0.
<mgrwt>
<rscale>  0 0.11716321E+04</rscale>
<asrwt>0</asrwt>
<pdfrwt beam="1">  1        1 0.23960673E+00 0.11716321E+04</pdfrwt>
<pdfrwt beam="2">  1       -1 0.15794386E+00 0.11716321E+04</pdfrwt>
<totfact> 0.17797509E+00</totfact>
</mgrwt>
</event>
<event>
 4    1  0.2293715E-008  0.3281992E+03  0.7818608E-02  0.1071936E+00
         -1   -1    0    0    0  501 -0.00000000000E+00  0.00000000000E+00  0.22293119757E+03  0.22293119763E+03  0.50400000000E-02 0.  1.
          1   -1    0    0  501    0  0.00000000000E+00 -0.00000000000E+00 -0.19421059724E+04  0.19421059724E+04  0.50400000000E-02 0. -1.
    8880022    1    1    2    0    0  0.23673264329E+03  0.16816864324E+03  0.78657771935E+02  0.33749331114E+03  0.15294330000E+03 0.  1.
    8880022    1    1    2    0    0 -0.23673264329E+03 -0.16816864324E+03 -0.17978325468E+04  0.18275438589E+04  0.15294330000E+03 0.  0.
<mgrwt>
<rscale>  0 0.32819916E+03</rscale>
<asrwt>0</asrwt>
<pdfrwt beam="1">  1        1 0.29878552E+00 0.32819916E+03</pdfrwt>
<pdfrwt beam="2">  1       -1 0.34297109E-01 0.32819916E+03</pdfrwt>
<totfact> 0.29597152E+01</totfact>
</mgrwt>
</event>
<event>
 4    1  0.2293715E-008  0.3078586E+03  0.7818608E-02  0.1081377E+00
         -1   -1    0    0    0  501 -0.00000000000E+00  0.00000000000E+00  0.51907392748E+03  0.51907392750E+03  0.50400000000E-02 0.  1.
          1   -1    0    0  501    0  0.00000000000E+00 -0.00000000000E+00 -0.20015717850E+04  0.20015717850E+04  0.50400000000E-02 0. -1.
    8880022    1    1    2    0    0 -0.25492419276E+03 -0.79993315975E+02 -0.19427124292E+04  0.19669541200E+04  0.15294330000E+03 0.  0.
    8880022    1    1    2    0    0  0.25492419276E+03  0.79993315975E+02  0.46021457165E+03  0.55369159252E+03  0.15294330000E+03 0.  1.
<mgrwt>
<rscale>  0 0.30785862E+03</rscale>
<asrwt>0</asrwt>
<pdfrwt beam="1">  1        1 0.30793412E+00 0.30785862E+03</pdfrwt>
<pdfrwt beam="2">  1       -1 0.79857528E-01 0.30785862E+03</pdfrwt>
<totfact> 0.55148064E+00</totfact>
</mgrwt>
</event>
<event>
 4    1  0.2293715E-008  0.1394695E+04  0.7818608E-02  0.8957668E-01
         -1   -1    0    0    0  501 -0.00000000000E+00  0.00000000000E+00  0.11355046281E+04  0.11355046281E+04  0.50400000000E-02 0.  1.
          1   -1    0    0  501    0  0.00000000000E+00 -0.00000000000E+00 -0.20450343953E+04  0.20450343953E+04  0.50400000000E-02 0. -1.
    8880022    1    1    2    0    0 -0.10951562772E+04 -0.84995001871E+03 -0.10955029888E+04  0.17734995791E+04  0.15294330000E+03 0.  0.
    8880022    1    1    2    0    0  0.10951562772E+04  0.84995001871E+03  0.18597322162E+03  0.14070394443E+04  0.15294330000E+03 0.  0.
<mgrwt>
<rscale>  0 0.13946949E+04</rscale>
<asrwt>0</asrwt>
<pdfrwt beam="1">  1        1 0.31462068E+00 0.13946949E+04</pdfrwt>
<pdfrwt beam="2">  1       -1 0.17469302E+00 0.13946949E+04</pdfrwt>
<totfact> 0.60527847E-01</totfact>
</mgrwt>
</event>
<event>
 4    1  0.2293715E-008  0.6628831E+03  0.7818608E-02  0.9782901E-01
         -1   -1    0    0    0  501 -0.00000000000E+00  0.00000000000E+00  0.12953497036E+04  0.12953497036E+04  0.50400000000E-02 0.  1.
          1   -1    0    0  501    0  0.00000000000E+00 -0.00000000000E+00 -0.79805029542E+03  0.79805029544E+03  0.50400000000E-02 0. -1.
    8880022    1    1    2    0    0 -0.18960754095E+03 -0.61649926318E+03 -0.54500415159E+03  0.85816288626E+03  0.15294330000E+03 0.  0.
    8880022    1    1    2    0    0  0.18960754095E+03  0.61649926318E+03  0.10423035598E+04  0.12352371128E+04  0.15294330000E+03 0.  0.
<mgrwt>
<rscale>  0 0.66288311E+03</rscale>
<asrwt>0</asrwt>
<pdfrwt beam="1">  1        1 0.12277697E+00 0.66288311E+03</pdfrwt>
<pdfrwt beam="2">  1       -1 0.19928457E+00 0.66288311E+03</pdfrwt>
<totfact> 0.35631360E+00</totfact>
</mgrwt>
</event>
<event>
 4    1  0.2293715E-008  0.9107088E+03  0.7818608E-02  0.9412293E-01
         -1   -1    0    0    0  501 -0.00000000000E+00  0.00000000000E+00  0.18733716750E+04  0.18733716750E+04  0.50400000000E-02 0.  1.
          1   -1    0    0  501    0  0.00000000000E+00 -0.00000000000E+00 -0.18169825323E+04  0.18169825323E+04  0.50400000000E-02 0. -1.
    8880022    1    1    2    0    0 -0.88537881687E+03  0.14867175962E+03  0.16329045936E+04  0.18696973034E+04  0.15294330000E+03 0.  0.
    8880022    1    1    2    0    0  0.88537881687E+03 -0.14867175962E+03 -0.15765154510E+04  0.18206569039E+04  0.15294330000E+03 0.  0.
<mgrwt>
<rscale>  0 0.91070884E+03</rscale>
<asrwt>0</asrwt>
<pdfrwt beam="1">  1        1 0.27953578E+00 0.91070884E+03</pdfrwt>
<pdfrwt beam="2">  1       -1 0.28821102E+00 0.91070884E+03</pdfrwt>
<totfact> 0.16205262E-01</totfact>
</mgrwt>
</event>
<event>
 4    1  0.2293715E-008  0.1286148E+04  0.7818608E-02  0.9040623E-01
         -1   -1    0    0    0  501 -0.00000000000E+00  0.00000000000E+00  0.13939806415E+04  0.13939806415E+04  0.50400000000E-02 0.  1.
          1   -1    0    0  501    0  0.00000000000E+00 -0.00000000000E+00 -0.12105398322E+04  0.12105398322E+04  0.50400000000E-02 0. -1.
    8880022    1    1    2    0    0 -0.35890436026E+03 -0.12255497208E+04 -0.91197495528E+02  0.12893770178E+04  0.15294330000E+03 0.  0.
    8880022    1    1    2    0    0  0.35890436026E+03  0.12255497208E+04  0.27463830485E+03  0.13151434558E+04  0.15294330000E+03 0.  0.
<mgrwt>
<rscale>  0 0.12861478E+04</rscale>
<asrwt>0</asrwt>
<pdfrwt beam="1">  1        1 0.18623690E+00 0.12861478E+04</pdfrwt>
<pdfrwt beam="2">  1       -1 0.21445856E+00 0.12861478E+04</pdfrwt>
<totfact> 0.12218817E+00</totfact>
</mgrwt>
</event>
<event>
 4    1  0.2293715E-008  0.4269818E+03  0.7818608E-02  0.1034818E+00
         -1   -1    0    0    0  501 -0.00000000000E+00  0.00000000000E+00  0.60686667139E+03  0.60686667142E+03  0.50400000000E-02 0.  1.
          1   -1    0    0  501    0  0.00000000000E+00 -0.00000000000E+00 -0.64783511480E+03  0.64783511482E+03  0.50400000000E-02 0. -1.
    8880022    1    1    2    0    0  0.33216185768E+03  0.22043218204E+03  0.43892960341E+03  0.61235014194E+03  0.15294330000E+03 0.  0.
    8880022    1    1    2    0    0 -0.33216185768E+03 -0.22043218204E+03 -0.47989804681E+03  0.64235164429E+03  0.15294330000E+03 0.  0.
<mgrwt>
<rscale>  0 0.42698185E+03</rscale>
<asrwt>0</asrwt>
<pdfrwt beam="1">  1        1 0.99666940E-01 0.42698185E+03</pdfrwt>
<pdfrwt beam="2">  1       -1 0.93364104E-01 0.42698185E+03</pdfrwt>
<totfact> 0.36360873E+01</totfact>
</mgrwt>
</event>
<event>
 4    1  0.2293715E-008  0.5712308E+03  0.7818608E-02  0.9966959E-01
          1   -1    0    0  501    0  0.00000000000E+00  0.00000000000E+00  0.22764357878E+04  0.22764357878E+04  0.50400000000E-02 0. -1.
         -1   -1    0    0    0  501 -0.00000000000E+00 -0.00000000000E+00 -0.20863639262E+03  0.20863639268E+03  0.50400000000E-02 0.  1.
    8880022    1    1    2    0    0  0.51536638243E+03  0.19315909177E+03  0.33878231299E+03  0.66413707281E+03  0.15294330000E+03 0.  0.
    8880022    1    1    2    0    0 -0.51536638243E+03 -0.19315909177E+03  0.17290170822E+04  0.18209351077E+04  0.15294330000E+03 0.  0.
<mgrwt>
<rscale>  0 0.57123077E+03</rscale>
<asrwt>0</asrwt>
<pdfrwt beam="1">  1        1 0.35022085E+00 0.57123077E+03</pdfrwt>
<pdfrwt beam="2">  1       -1 0.32097910E-01 0.57123077E+03</pdfrwt>
<totfact> 0.18840364E+01</totfact>
</mgrwt>
</event>
<event>
 4    1  0.2293715E-008  0.3383783E+03  0.7818608E-02  0.1067489E+00
          1   -1    0    0  501    0  0.00000000000E+00  0.00000000000E+00  0.57763541289E+03  0.57763541291E+03  0.50400000000E-02 0. -1.
         -1   -1    0    0    0  501 -0.00000000000E+00 -0.00000000000E+00 -0.27231734686E+04  0.27231734686E+04  0.50400000000E-02 0.  1.
    8880022    1    1    2    0    0  0.30179396959E+03  0.53520123469E+01  0.51643358261E+03  0.61741683033E+03  0.15294330000E+03 0. -1.
    8880022    1    1    2    0    0 -0.30179396959E+03 -0.53520123469E+01 -0.26619716383E+04  0.26833920512E+04  0.15294330000E+03 0.  0.
<mgrwt>
<rscale>  0 0.33837833E+03</rscale>
<asrwt>0</asrwt>
<pdfrwt beam="1">  1        1 0.88866988E-01 0.33837833E+03</pdfrwt>
<pdfrwt beam="2">  1       -1 0.41894976E+00 0.33837833E+03</pdfrwt>
<totfact> 0.23716073E-01</totfact>
</mgrwt>
</event>
<event>
 4    1  0.2293715E-008  0.6524878E+03  0.7818608E-02  0.9802122E-01
          1   -1    0    0  501    0  0.00000000000E+00  0.00000000000E+00  0.21787536175E+04  0.21787536175E+04  0.50400000000E-02 0. -1.
         -1   -1    0    0    0  501 -0.00000000000E+00 -0.00000000000E+00 -0.36576473812E+03  0.36576473816E+03  0.50400000000E-02 0.  1.
    8880022    1    1    2    0    0  0.41291896986E+03 -0.48150451731E+03  0.38218863689E+02  0.65360615849E+03  0.15294330000E+03 0.  0.
    8880022    1    1    2    0    0 -0.41291896986E+03  0.48150451731E+03  0.17747700157E+04  0.18909121972E+04  0.15294330000E+03 0.  0.
<mgrwt>
<rscale>  0 0.65248780E+03</rscale>
<asrwt>0</asrwt>
<pdfrwt beam="1">  1        1 0.33519287E+00 0.65248780E+03</pdfrwt>
<pdfrwt beam="2">  1       -1 0.56271497E-01 0.65248780E+03</pdfrwt>
<totfact> 0.76951586E+00</totfact>
</mgrwt>
</event>
<event>
 4    1  0.2293715E-008  0.7464797E+03  0.7818608E-02  0.9640889E-01
         -1   -1    0    0    0  501 -0.00000000000E+00  0.00000000000E+00  0.80388043328E+03  0.80388043329E+03  0.50400000000E-02 0.  1.
          1   -1    0    0  501    0  0.00000000000E+00 -0.00000000000E+00 -0.90805690268E+03  0.90805690270E+03  0.50400000000E-02 0. -1.
    8880022    1    1    2    0    0 -0.68741194344E+03 -0.24759882370E+03  0.36430004998E+03  0.83063020467E+03  0.15294330000E+03 0.  0.
    8880022    1    1    2    0    0  0.68741194344E+03  0.24759882370E+03 -0.46847651938E+03  0.88130713132E+03  0.15294330000E+03 0.  0.
<mgrwt>
<rscale>  0 0.74647975E+03</rscale>
<asrwt>0</asrwt>
<pdfrwt beam="1">  1        1 0.13970106E+00 0.74647975E+03</pdfrwt>
<pdfrwt beam="2">  1       -1 0.12367391E+00 0.74647975E+03</pdfrwt>
<totfact> 0.10628984E+01</totfact>
</mgrwt>
</event>
<event>
 4    1  0.2293715E-008  0.3182101E+03  0.7818608E-02  0.1076476E+00
          1   -1    0    0  501    0  0.00000000000E+00  0.00000000000E+00  0.98343286414E+02  0.98343286543E+02  0.50400000000E-02 0. -1.
         -1   -1    0    0    0  501 -0.00000000000E+00 -0.00000000000E+00 -0.19596605473E+04  0.19596605473E+04  0.50400000000E-02 0.  1.
    8880022    1    1    2    0    0  0.25267523721E+03 -0.11841135678E+03 -0.22177780940E+03  0.38786991979E+03  0.15294330000E+03 0. -1.
    8880022    1    1    2    0    0 -0.25267523721E+03  0.11841135678E+03 -0.16395394515E+04  0.16701339140E+04  0.15294330000E+03 0.  0.
<mgrwt>
<rscale>  0 0.31821012E+03</rscale>
<asrwt>0</asrwt>
<pdfrwt beam="1">  1        1 0.15129738E-01 0.31821012E+03</pdfrwt>
<pdfrwt beam="2">  1       -1 0.30148621E+00 0.31821012E+03</pdfrwt>
<totfact> 0.13790098E+01</totfact>
</mgrwt>
</event>
<event>
 4    1  0.2293715E-008  0.6858703E+03  0.7818608E-02  0.9741706E-01
         -1   -1    0    0    0  501 -0.00000000000E+00  0.00000000000E+00  0.50772484938E+03  0.50772484941E+03  0.50400000000E-02 0.  1.
          1   -1    0    0  501    0  0.00000000000E+00 -0.00000000000E+00 -0.25750692304E+04  0.25750692305E+04  0.50400000000E-02 0. -1.
    8880022    1    1    2    0    0  0.16717075966E+03 -0.64736420499E+03 -0.22669780427E+04  0.23684610142E+04  0.15294330000E+03 0.  0.
    8880022    1    1    2    0    0 -0.16717075966E+03  0.64736420499E+03  0.19963366164E+03  0.71433306564E+03  0.15294330000E+03 0.  0.
<mgrwt>
<rscale>  0 0.68587034E+03</rscale>
<asrwt>0</asrwt>
<pdfrwt beam="1">  1        1 0.39616449E+00 0.68587034E+03</pdfrwt>
<pdfrwt beam="2">  1       -1 0.78111517E-01 0.68587034E+03</pdfrwt>
<totfact> 0.21289066E+00</totfact>
</mgrwt>
</event>
<event>
 4    1  0.2293715E-008  0.1079356E+04  0.7818608E-02  0.9225549E-01
          1   -1    0    0  501    0  0.00000000000E+00  0.00000000000E+00  0.22714145145E+04  0.22714145145E+04  0.50400000000E-02 0. -1.
         -1   -1    0    0    0  501 -0.00000000000E+00 -0.00000000000E+00 -0.10180211420E+04  0.10180211420E+04  0.50400000000E-02 0.  1.
    8880022    1    1    2    0    0  0.10594701822E+04  0.13835291092E+03  0.17852351168E+04  0.20861626663E+04  0.15294330000E+03 0. -1.
    8880022    1    1    2    0    0 -0.10594701822E+04 -0.13835291092E+03 -0.53184174436E+03  0.12032729902E+04  0.15294330000E+03 0.  0.
<mgrwt>
<rscale>  0 0.10793564E+04</rscale>
<asrwt>0</asrwt>
<pdfrwt beam="1">  1        1 0.34944839E+00 0.10793564E+04</pdfrwt>
<pdfrwt beam="2">  1       -1 0.15661864E+00 0.10793564E+04</pdfrwt>
<totfact> 0.60501621E-01</totfact>
</mgrwt>
</event>
<event>
 4    1  0.2293715E-008  0.2696366E+03  0.7818608E-02  0.1101488E+00
         -1   -1    0    0    0  501 -0.00000000000E+00  0.00000000000E+00  0.50500602426E+03  0.50500602428E+03  0.50400000000E-02 0.  1.
          1   -1    0    0  501    0  0.00000000000E+00 -0.00000000000E+00 -0.16191911320E+03  0.16191911328E+03  0.50400000000E-02 0. -1.
    8880022    1    1    2    0    0 -0.16994476840E+03 -0.14293719719E+03  0.28257914470E+03  0.39058276035E+03  0.15294330000E+03 0.  0.
    8880022    1    1    2    0    0  0.16994476840E+03  0.14293719719E+03  0.60507766352E+02  0.27634237722E+03  0.15294330000E+03 0.  0.
<mgrwt>
<rscale>  0 0.26963664E+03</rscale>
<asrwt>0</asrwt>
<pdfrwt beam="1">  1        1 0.24910633E-01 0.26963664E+03</pdfrwt>
<pdfrwt beam="2">  1       -1 0.77693232E-01 0.26963664E+03</pdfrwt>
<totfact> 0.33467981E+02</totfact>
</mgrwt>
</event>
<event>
 4    1  0.2293715E-008  0.6828196E+03  0.7818608E-02  0.9747073E-01
          1   -1    0    0  501    0  0.00000000000E+00  0.00000000000E+00  0.17379921538E+04  0.17379921538E+04  0.50400000000E-02 0. -1.
         -1   -1    0    0    0  501 -0.00000000000E+00 -0.00000000000E+00 -0.35345508525E+03  0.35345508529E+03  0.50400000000E-02 0.  1.
    8880022    1    1    2    0    0  0.18280292418E+03 -0.63987034602E+03  0.17888244485E+03  0.70586227473E+03  0.15294330000E+03 0.  0.
    8880022    1    1    2    0    0 -0.18280292418E+03  0.63987034602E+03  0.12056546237E+04  0.13855849643E+04  0.15294330000E+03 0.  0.
<mgrwt>
<rscale>  0 0.68281961E+03</rscale>
<asrwt>0</asrwt>
<pdfrwt beam="1">  1        1 0.26738342E+00 0.68281961E+03</pdfrwt>
<pdfrwt beam="2">  1       -1 0.54377703E-01 0.68281961E+03</pdfrwt>
<totfact> 0.16095833E+01</totfact>
</mgrwt>
</event>
<event>
 4    1  0.2293715E-008  0.4114416E+03  0.7818608E-02  0.1039888E+00
          1   -1    0    0  501    0  0.00000000000E+00  0.00000000000E+00  0.90453050420E+03  0.90453050421E+03  0.50400000000E-02 0. -1.
         -1   -1    0    0    0  501 -0.00000000000E+00 -0.00000000000E+00 -0.92106134991E+03  0.92106134993E+03  0.50400000000E-02 0.  1.
    8880022    1    1    2    0    0  0.34063120433E+03 -0.17280897002E+03 -0.82306497645E+03  0.92017398678E+03  0.15294330000E+03 0.  0.
    8880022    1    1    2    0    0 -0.34063120433E+03  0.17280897002E+03  0.80653413073E+03  0.90541786736E+03  0.15294330000E+03 0. -1.
<mgrwt>
<rscale>  0 0.41144162E+03</rscale>
<asrwt>0</asrwt>
<pdfrwt beam="1">  1        1 0.13915854E+00 0.41144162E+03</pdfrwt>
<pdfrwt beam="2">  1       -1 0.14170175E+00 0.41144162E+03</pdfrwt>
<totfact> 0.80806494E+00</totfact>
</mgrwt>
</event>
<event>
 4    1  0.2411520E-008  0.8193140E+03  0.7818608E-02  0.9532474E-01
          1   -1    0    0  501    0  0.00000000000E+00  0.00000000000E+00  0.18626183512E+04  0.18626183512E+04  0.50400000000E-02 0. -1.
         -1   -1    0    0    0  501 -0.00000000000E+00 -0.00000000000E+00 -0.85446020216E+03  0.85446020218E+03  0.50400000000E-02 0.  1.
    8880022    1    1    2    0    0 -0.73594705235E+03  0.32598410543E+03 -0.52896563341E+03  0.97523330296E+03  0.15294330000E+03 0.  0.
    8880022    1    1    2    0    0  0.73594705235E+03 -0.32598410543E+03  0.15371237824E+04  0.17418452504E+04  0.15294330000E+03 0.  0.
<mgrwt>
<rscale>  0 0.81931395E+03</rscale>
<asrwt>0</asrwt>
<pdfrwt beam="1">  1        1 0.28655667E+00 0.81931395E+03</pdfrwt>
<pdfrwt beam="2">  1       -1 0.13145542E+00 0.81931395E+03</pdfrwt>
<totfact> 0.18920449E+00</totfact>
</mgrwt>
</event>
<event>
 4    1  0.2293715E-008  0.2918090E+03  0.7818608E-02  0.1089408E+00
          1   -1    0    0  501    0  0.00000000000E+00  0.00000000000E+00  0.16593138915E+04  0.16593138915E+04  0.50400000000E-02 0. -1.
         -1   -1    0    0    0  501 -0.00000000000E+00 -0.00000000000E+00 -0.31156089040E+03  0.31156089044E+03  0.50400000000E-02 0.  1.
    8880022    1    1    2    0    0  0.21187630291E+03  0.12988173455E+03 -0.22675492881E+03  0.36955416851E+03  0.15294330000E+03 0.  1.
    8880022    1    1    2    0    0 -0.21187630291E+03 -0.12988173455E+03  0.15745079299E+04  0.16013206135E+04  0.15294330000E+03 0.  0.
<mgrwt>
<rscale>  0 0.29180899E+03</rscale>
<asrwt>0</asrwt>
<pdfrwt beam="1">  1        1 0.25527905E+00 0.29180899E+03</pdfrwt>
<pdfrwt beam="2">  1       -1 0.47932446E-01 0.29180899E+03</pdfrwt>
<totfact> 0.25168290E+01</totfact>
</mgrwt>
</event>
<event>
 4    1  0.2293715E-008  0.6250783E+03  0.7818608E-02  0.9854701E-01
          1   -1    0    0  501    0  0.00000000000E+00  0.00000000000E+00  0.74756631373E+03  0.74756631375E+03  0.50400000000E-02 0. -1.
         -1   -1    0    0    0  501 -0.00000000000E+00 -0.00000000000E+00 -0.52903870236E+03  0.52903870239E+03  0.50400000000E-02 0.  1.
    8880022    1    1    2    0    0 -0.81536528140E+02 -0.60056887030E+03  0.17935401196E+03  0.65030045980E+03  0.15294330000E+03 0.  0.
    8880022    1    1    2    0    0  0.81536528140E+02  0.60056887030E+03  0.39173599412E+02  0.62630455634E+03  0.15294330000E+03 0.  1.
<mgrwt>
<rscale>  0 0.62507826E+03</rscale>
<asrwt>0</asrwt>
<pdfrwt beam="1">  1        1 0.11501020E+00 0.62507826E+03</pdfrwt>
<pdfrwt beam="2">  1       -1 0.81390570E-01 0.62507826E+03</pdfrwt>
<totfact> 0.38412745E+01</totfact>
</mgrwt>
</event>
<event>
 4    1  0.2293715E-008  0.5325833E+03  0.7818608E-02  0.1005608E+00
         -1   -1    0    0    0  501 -0.00000000000E+00  0.00000000000E+00  0.24664679933E+03  0.24664679938E+03  0.50400000000E-02 0.  1.
          1   -1    0    0  501    0  0.00000000000E+00 -0.00000000000E+00 -0.17551009803E+04  0.17551009804E+04  0.50400000000E-02 0. -1.
    8880022    1    1    2    0    0  0.22116699938E+03 -0.45971568998E+03 -0.16654764551E+03  0.55801713994E+03  0.15294330000E+03 0.  0.
    8880022    1    1    2    0    0 -0.22116699938E+03  0.45971568998E+03 -0.13419065355E+04  0.14437306398E+04  0.15294330000E+03 0.  0.
<mgrwt>
<rscale>  0 0.53258334E+03</rscale>
<asrwt>0</asrwt>
<pdfrwt beam="1">  1        1 0.27001553E+00 0.53258334E+03</pdfrwt>
<pdfrwt beam="2">  1       -1 0.37945663E-01 0.53258334E+03</pdfrwt>
<totfact> 0.31330200E+01</totfact>
</mgrwt>
</event>
<event>
 4    1  0.2293715E-008  0.7607836E+03  0.7818608E-02  0.9618583E-01
          1   -1    0    0  501    0  0.00000000000E+00  0.00000000000E+00  0.17840459921E+04  0.17840459921E+04  0.50400000000E-02 0. -1.
         -1   -1    0    0    0  501 -0.00000000000E+00 -0.00000000000E+00 -0.77904585391E+03  0.77904585393E+03  0.50400000000E-02 0.  1.
    8880022    1    1    2    0    0 -0.68081976023E+03  0.30312463502E+03 -0.47648628355E+03  0.89768085738E+03  0.15294330000E+03 0.  0.
    8880022    1    1    2    0    0  0.68081976023E+03 -0.30312463502E+03  0.14814864217E+04  0.16654109886E+04  0.15294330000E+03 0.  0.
<mgrwt>
<rscale>  0 0.76078364E+03</rscale>
<asrwt>0</asrwt>
<pdfrwt beam="1">  1        1 0.27446861E+00 0.76078364E+03</pdfrwt>
<pdfrwt beam="2">  1       -1 0.11985321E+00 0.76078364E+03</pdfrwt>
<totfact> 0.27163050E+00</totfact>
</mgrwt>
</event>
<event>
 4    1  0.2293715E-008  0.2177681E+03  0.7818608E-02  0.1135558E+00
         -1   -1    0    0    0  501 -0.00000000000E+00  0.00000000000E+00  0.23053209361E+03  0.23053209366E+03  0.50400000000E-02 0.  1.
          1   -1    0    0  501    0  0.00000000000E+00 -0.00000000000E+00 -0.22092446573E+03  0.22092446579E+03  0.50400000000E-02 0. -1.
    8880022    1    1    2    0    0  0.12141509137E+03 -0.96382937686E+02 -0.54431485284E+02  0.22446766960E+03  0.15294330000E+03 0.  0.
    8880022    1    1    2    0    0 -0.12141509137E+03  0.96382937686E+02  0.64039113160E+02  0.22698888986E+03  0.15294330000E+03 0.  0.
<mgrwt>
<rscale>  0 0.21776811E+03</rscale>
<asrwt>0</asrwt>
<pdfrwt beam="1">  1        1 0.33988379E-01 0.21776811E+03</pdfrwt>
<pdfrwt beam="2">  1       -1 0.35466476E-01 0.21776811E+03</pdfrwt>
<totfact> 0.98616349E+02</totfact>
</mgrwt>
</event>
<event>
 4    1  0.2293715E-008  0.1543450E+03  0.7818608E-02  0.1195233E+00
          1   -1    0    0  501    0  0.00000000000E+00  0.00000000000E+00  0.12144205423E+04  0.12144205423E+04  0.50400000000E-02 0. -1.
         -1   -1    0    0    0  501 -0.00000000000E+00 -0.00000000000E+00 -0.47529474684E+03  0.47529474686E+03  0.50400000000E-02 0.  1.
    8880022    1    1    2    0    0 -0.44578692985E+01  0.20269338217E+02  0.11968024683E+04  0.12067139346E+04  0.15294330000E+03 0. -1.
    8880022    1    1    2    0    0  0.44578692985E+01 -0.20269338217E+02 -0.45767667286E+03  0.48300135462E+03  0.15294330000E+03 0.  0.
<mgrwt>
<rscale>  0 0.15434498E+03</rscale>
<asrwt>0</asrwt>
<pdfrwt beam="1">  1        1 0.18683393E+00 0.15434498E+03</pdfrwt>
<pdfrwt beam="2">  1       -1 0.73122269E-01 0.15434498E+03</pdfrwt>
<totfact> 0.23649419E+01</totfact>
</mgrwt>
</event>
<event>
 4    1  0.2293715E-008  0.1697316E+04  0.7818608E-02  0.8762897E-01
          1   -1    0    0  501    0  0.00000000000E+00  0.00000000000E+00  0.97114040718E+03  0.97114040719E+03  0.50400000000E-02 0. -1.
         -1   -1    0    0    0  501 -0.00000000000E+00 -0.00000000000E+00 -0.36470185937E+04  0.36470185937E+04  0.50400000000E-02 0.  1.
    8880022    1    1    2    0    0 -0.15857598488E+04 -0.58553796618E+03 -0.34048638877E+03  0.17311301632E+04  0.15294330000E+03 0.  0.
    8880022    1    1    2    0    0  0.15857598488E+04  0.58553796618E+03 -0.23353917977E+04  0.28870288377E+04  0.15294330000E+03 0.  0.
<mgrwt>
<rscale>  0 0.16973157E+04</rscale>
<asrwt>0</asrwt>
<pdfrwt beam="1">  1        1 0.14940622E+00 0.16973157E+04</pdfrwt>
<pdfrwt beam="2">  1       -1 0.56107978E+00 0.16973157E+04</pdfrwt>
<totfact> 0.95413656E-03</totfact>
</mgrwt>
</event>
<event>
 4    1  0.2293715E-008  0.2361617E+03  0.7818608E-02  0.1122377E+00
         -1   -1    0    0    0  501 -0.00000000000E+00  0.00000000000E+00  0.93707678961E+02  0.93707679096E+02  0.50400000000E-02 0.  1.
          1   -1    0    0  501    0  0.00000000000E+00 -0.00000000000E+00 -0.13512673946E+04  0.13512673946E+04  0.50400000000E-02 0. -1.
    8880022    1    1    2    0    0  0.15446049820E+01 -0.17993971864E+03 -0.88339797099E+02  0.25214333407E+03  0.15294330000E+03 0.  1.
    8880022    1    1    2    0    0 -0.15446049820E+01  0.17993971864E+03 -0.11692199185E+04  0.11928317396E+04  0.15294330000E+03 0.  0.
<mgrwt>
<rscale>  0 0.23616168E+03</rscale>
<asrwt>0</asrwt>
<pdfrwt beam="1">  1        1 0.20788728E+00 0.23616168E+03</pdfrwt>
<pdfrwt beam="2">  1       -1 0.14416567E-01 0.23616168E+03</pdfrwt>
<totfact> 0.31175570E+02</totfact>
</mgrwt>
</event>
<event>
 4    1  0.2293715E-008  0.4396501E+03  0.7818608E-02  0.1030854E+00
         -1   -1    0    0    0  501 -0.00000000000E+00  0.00000000000E+00  0.97412439635E+03  0.97412439637E+03  0.50400000000E-02 0.  1.
          1   -1    0    0  501    0  0.00000000000E+00 -0.00000000000E+00 -0.10737963179E+04  0.10737963179E+04  0.50400000000E-02 0. -1.
    8880022    1    1    2    0    0 -0.10967697841E+03  0.39733050474E+03 -0.97435942836E+03  0.10689567429E+04  0.15294330000E+03 0.  0.
    8880022    1    1    2    0    0  0.10967697841E+03 -0.39733050474E+03  0.87468750682E+03  0.97896397135E+03  0.15294330000E+03 0.  0.
<mgrwt>
<rscale>  0 0.43965011E+03</rscale>
<asrwt>0</asrwt>
<pdfrwt beam="1">  1        1 0.16519943E+00 0.43965011E+03</pdfrwt>
<pdfrwt beam="2">  1       -1 0.14986529E+00 0.43965011E+03</pdfrwt>
<totfact> 0.51355246E+00</totfact>
</mgrwt>
</event>
<event>
 4    1  0.2293715E-008  0.6255483E+03  0.7818608E-02  0.9853775E-01
         -1   -1    0    0    0  501 -0.00000000000E+00  0.00000000000E+00  0.10053289178E+04  0.10053289178E+04  0.50400000000E-02 0.  1.
          1   -1    0    0  501    0  0.00000000000E+00 -0.00000000000E+00 -0.41548531139E+03  0.41548531142E+03  0.50400000000E-02 0. -1.
    8880022    1    1    2    0    0 -0.52947922562E+03 -0.29592357538E+03  0.11636161142E+03  0.63627878360E+03  0.15294330000E+03 0.  0.
    8880022    1    1    2    0    0  0.52947922562E+03  0.29592357538E+03  0.47348199495E+03  0.78453544559E+03  0.15294330000E+03 0.  0.
<mgrwt>
<rscale>  0 0.62554829E+03</rscale>
<asrwt>0</asrwt>
<pdfrwt beam="1">  1        1 0.63920817E-01 0.62554829E+03</pdfrwt>
<pdfrwt beam="2">  1       -1 0.15466599E+00 0.62554829E+03</pdfrwt>
<totfact> 0.19060140E+01</totfact>
</mgrwt>
</event>
<event>
 4    1  0.2293715E-008  0.5814210E+03  0.7818608E-02  0.9944719E-01
          1   -1    0    0  501    0  0.00000000000E+00  0.00000000000E+00  0.64486006254E+03  0.64486006255E+03  0.50400000000E-02 0. -1.
         -1   -1    0    0    0  501 -0.00000000000E+00 -0.00000000000E+00 -0.69240902770E+03  0.69240902771E+03  0.50400000000E-02 0.  1.
    8880022    1    1    2    0    0  0.47648213650E+01 -0.56092430545E+03 -0.35331020038E+03  0.68035176980E+03  0.15294330000E+03 0.  0.
    8880022    1    1    2    0    0 -0.47648213650E+01  0.56092430545E+03  0.30576123521E+03  0.65691732047E+03  0.15294330000E+03 0.  0.
<mgrwt>
<rscale>  0 0.58142105E+03</rscale>
<asrwt>0</asrwt>
<pdfrwt beam="1">  1        1 0.99209240E-01 0.58142105E+03</pdfrwt>
<pdfrwt beam="2">  1       -1 0.10652447E+00 0.58142105E+03</pdfrwt>
<totfact> 0.26534993E+01</totfact>
</mgrwt>
</event>
<event>
 4    1  0.2293715E-008  0.3345012E+03  0.7818608E-02  0.1069162E+00
         -1   -1    0    0    0  501 -0.00000000000E+00  0.00000000000E+00  0.99908991336E+02  0.99908991463E+02  0.50400000000E-02 0.  1.
          1   -1    0    0  501    0  0.00000000000E+00 -0.00000000000E+00 -0.45033218676E+04  0.45033218676E+04  0.50400000000E-02 0. -1.
    8880022    1    1    2    0    0  0.28607791952E+03 -0.81601781185E+02 -0.20670866779E+03  0.39321692878E+03  0.15294330000E+03 0.  1.
    8880022    1    1    2    0    0 -0.28607791952E+03  0.81601781185E+02 -0.41967042085E+04  0.42100139303E+04  0.15294330000E+03 0.  0.
<mgrwt>
<rscale>  0 0.33450124E+03</rscale>
<asrwt>0</asrwt>
<pdfrwt beam="1">  1        1 0.69281859E+00 0.33450124E+03</pdfrwt>
<pdfrwt beam="2">  1       -1 0.15370617E-01 0.33450124E+03</pdfrwt>
<totfact> 0.13106215E+00</totfact>
</mgrwt>
</event>
<event>
 4    1  0.2293715E-008  0.3001405E+03  0.7818608E-02  0.1085170E+00
          1   -1    0    0  501    0  0.00000000000E+00  0.00000000000E+00  0.82670591705E+03  0.82670591707E+03  0.50400000000E-02 0. -1.
         -1   -1    0    0    0  501 -0.00000000000E+00 -0.00000000000E+00 -0.21336443308E+03  0.21336443314E+03  0.50400000000E-02 0.  1.
    8880022    1    1    2    0    0 -0.25037745905E+03  0.63275337117E+02  0.67043081907E+03  0.73454868897E+03  0.15294330000E+03 0.  0.
    8880022    1    1    2    0    0  0.25037745905E+03 -0.63275337117E+02 -0.57089335100E+02  0.30552166124E+03  0.15294330000E+03 0.  1.
<mgrwt>
<rscale>  0 0.30014046E+03</rscale>
<asrwt>0</asrwt>
<pdfrwt beam="1">  1        1 0.12718553E+00 0.30014046E+03</pdfrwt>
<pdfrwt beam="2">  1       -1 0.32825297E-01 0.30014046E+03</pdfrwt>
<totfact> 0.19260501E+02</totfact>
</mgrwt>
</event>
<event>
 4    1  0.2293715E-008  0.6482028E+03  0.7818608E-02  0.9810157E-01
          1   -1    0    0  501    0  0.00000000000E+00  0.00000000000E+00  0.97243069609E+03  0.97243069611E+03  0.50400000000E-02 0. -1.
         -1   -1    0    0    0  501 -0.00000000000E+00 -0.00000000000E+00 -0.69016559146E+03  0.69016559148E+03  0.50400000000E-02 0.  1.
    8880022    1    1    2    0    0 -0.59243381448E+03  0.21400325647E+03  0.64948262484E+03  0.91760261078E+03  0.15294330000E+03 0.  0.
    8880022    1    1    2    0    0  0.59243381448E+03 -0.21400325647E+03 -0.36721752021E+03  0.74499367681E+03  0.15294330000E+03 0.  0.
<mgrwt>
<rscale>  0 0.64820280E+03</rscale>
<asrwt>0</asrwt>
<pdfrwt beam="1">  1        1 0.14960472E+00 0.64820280E+03</pdfrwt>
<pdfrwt beam="2">  1       -1 0.10617932E+00 0.64820280E+03</pdfrwt>
<totfact> 0.13795110E+01</totfact>
</mgrwt>
</event>
<event>
 4    1  0.2293715E-008  0.2753219E+03  0.7818608E-02  0.1098272E+00
          1   -1    0    0  501    0  0.00000000000E+00  0.00000000000E+00  0.31188980920E+04  0.31188980920E+04  0.50400000000E-02 0. -1.
         -1   -1    0    0    0  501 -0.00000000000E+00 -0.00000000000E+00 -0.11936144167E+03  0.11936144178E+03  0.50400000000E-02 0.  1.
    8880022    1    1    2    0    0  0.22883687121E+03 -0.66485404114E+01  0.54853172147E+02  0.28073304085E+03  0.15294330000E+03 0.  1.
    8880022    1    1    2    0    0 -0.22883687121E+03  0.66485404114E+01  0.29446834782E+04  0.29575264930E+04  0.15294330000E+03 0.  0.
<mgrwt>
<rscale>  0 0.27532194E+03</rscale>
<asrwt>0</asrwt>
<pdfrwt beam="1">  1        1 0.47983050E+00 0.27532194E+03</pdfrwt>
<pdfrwt beam="2">  1       -1 0.18363298E-01 0.27532194E+03</pdfrwt>
<totfact> 0.13898395E+01</totfact>
</mgrwt>
</event>
<event>
 4    1  0.2293715E-008  0.9191189E+03  0.7818608E-02  0.9401992E-01
          1   -1    0    0  501    0  0.00000000000E+00  0.00000000000E+00  0.17567196252E+04  0.17567196252E+04  0.50400000000E-02 0. -1.
         -1   -1    0    0    0  501 -0.00000000000E+00 -0.00000000000E+00 -0.58139459881E+03  0.58139459883E+03  0.50400000000E-02 0.  1.
    8880022    1    1    2    0    0 -0.61258780534E+03  0.66792521567E+03  0.10737390738E+04  0.14133984451E+04  0.15294330000E+03 0.  0.
    8880022    1    1    2    0    0  0.61258780534E+03 -0.66792521567E+03  0.10158595254E+03  0.92471577890E+03  0.15294330000E+03 0.  0.
<mgrwt>
<rscale>  0 0.91911891E+03</rscale>
<asrwt>0</asrwt>
<pdfrwt beam="1">  1        1 0.27026456E+00 0.91911891E+03</pdfrwt>
<pdfrwt beam="2">  1       -1 0.89445323E-01 0.91911891E+03</pdfrwt>
<totfact> 0.54400536E+00</totfact>
</mgrwt>
</event>
<event>
 4    1  0.2293715E-008  0.4058973E+03  0.7818608E-02  0.1041757E+00
          1   -1    0    0  501    0  0.00000000000E+00  0.00000000000E+00  0.14713644234E+04  0.14713644234E+04  0.50400000000E-02 0. -1.
         -1   -1    0    0    0  501 -0.00000000000E+00 -0.00000000000E+00 -0.29914823491E+03  0.29914823495E+03  0.50400000000E-02 0.  1.
    8880022    1    1    2    0    0  0.37491213352E+03 -0.28316712533E+02  0.12863537111E+04  0.13488730360E+04  0.15294330000E+03 0.  0.
    8880022    1    1    2    0    0 -0.37491213352E+03  0.28316712533E+02 -0.11413752263E+03  0.42163962238E+03  0.15294330000E+03 0.  0.
<mgrwt>
<rscale>  0 0.40589727E+03</rscale>
<asrwt>0</asrwt>
<pdfrwt beam="1">  1        1 0.22636376E+00 0.40589727E+03</pdfrwt>
<pdfrwt beam="2">  1       -1 0.46022805E-01 0.40589727E+03</pdfrwt>
<totfact> 0.35032556E+01</totfact>
</mgrwt>
</event>
<event>
 4    1  0.2293715E-008  0.3524665E+03  0.7818608E-02  0.1061607E+00
          1   -1    0    0  501    0  0.00000000000E+00  0.00000000000E+00  0.16783403023E+04  0.16783403023E+04  0.50400000000E-02 0. -1.
         -1   -1    0    0    0  501 -0.00000000000E+00 -0.00000000000E+00 -0.16600830994E+03  0.16600831002E+03  0.50400000000E-02 0.  1.
    8880022    1    1    2    0    0 -0.30835682460E+03 -0.75875040998E+02  0.69711408787E+02  0.35929415060E+03  0.15294330000E+03 0.  1.
    8880022    1    1    2    0    0  0.30835682460E+03  0.75875040998E+02  0.14426205836E+04  0.14850544617E+04  0.15294330000E+03 0.  0.
<mgrwt>
<rscale>  0 0.35246646E+03</rscale>
<asrwt>0</asrwt>
<pdfrwt beam="1">  1        1 0.25820619E+00 0.35246646E+03</pdfrwt>
<pdfrwt beam="2">  1       -1 0.25539741E-01 0.35246646E+03</pdfrwt>
<totfact> 0.72574943E+01</totfact>
</mgrwt>
</event>
<event>
 4    1  0.2293715E-008  0.4961831E+03  0.7818608E-02  0.1014780E+00
         -1   -1    0    0    0  501 -0.00000000000E+00  0.00000000000E+00  0.41514067000E+03  0.41514067003E+03  0.50400000000E-02 0.  1.
          1   -1    0    0  501    0  0.00000000000E+00 -0.00000000000E+00 -0.12640562027E+04  0.12640562027E+04  0.50400000000E-02 0. -1.
    8880022    1    1    2    0    0 -0.33162739645E+02 -0.47085694621E+03  0.18726248477E+03  0.53034415459E+03  0.15294330000E+03 0.  0.
    8880022    1    1    2    0    0  0.33162739645E+02  0.47085694621E+03 -0.10361780175E+04  0.11488527182E+04  0.15294330000E+03 0. -1.
<mgrwt>
<rscale>  0 0.49618312E+03</rscale>
<asrwt>0</asrwt>
<pdfrwt beam="1">  1        1 0.19447018E+00 0.49618312E+03</pdfrwt>
<pdfrwt beam="2">  1       -1 0.63867796E-01 0.49618312E+03</pdfrwt>
<totfact> 0.25552891E+01</totfact>
</mgrwt>
</event>
<event>
 4    1  0.2293715E-008  0.4129224E+03  0.7818608E-02  0.1039395E+00
          1   -1    0    0  501    0  0.00000000000E+00  0.00000000000E+00  0.14953832681E+04  0.14953832681E+04  0.50400000000E-02 0. -1.
         -1   -1    0    0    0  501 -0.00000000000E+00 -0.00000000000E+00 -0.24642231283E+03  0.24642231288E+03  0.50400000000E-02 0.  1.
    8880022    1    1    2    0    0  0.21146691023E+03 -0.31999215348E+03 -0.13894776327E+02  0.41315608460E+03  0.15294330000E+03 0.  1.
    8880022    1    1    2    0    0 -0.21146691023E+03  0.31999215348E+03  0.12628557316E+04  0.13286494964E+04  0.15294330000E+03 0.  0.
<mgrwt>
<rscale>  0 0.41292237E+03</rscale>
<asrwt>0</asrwt>
<pdfrwt beam="1">  1        1 0.23005897E+00 0.41292237E+03</pdfrwt>
<pdfrwt beam="2">  1       -1 0.37911124E-01 0.41292237E+03</pdfrwt>
<totfact> 0.47880059E+01</totfact>
</mgrwt>
</event>
<event>
 4    1  0.2293715E-008  0.6338152E+03  0.7818608E-02  0.9837632E-01
          1   -1    0    0  501    0  0.00000000000E+00  0.00000000000E+00  0.93627940733E+03  0.93627940734E+03  0.50400000000E-02 0. -1.
         -1   -1    0    0    0  501 -0.00000000000E+00 -0.00000000000E+00 -0.83507595514E+03  0.83507595515E+03  0.50400000000E-02 0.  1.
    8880022    1    1    2    0    0  0.42632201454E+03  0.44337302174E+03  0.66816759583E+03  0.92096128345E+03  0.15294330000E+03 0.  0.
    8880022    1    1    2    0    0 -0.42632201454E+03 -0.44337302174E+03 -0.56696414364E+03  0.85039407904E+03  0.15294330000E+03 0.  0.
<mgrwt>
<rscale>  0 0.63381523E+03</rscale>
<asrwt>0</asrwt>
<pdfrwt beam="1">  1        1 0.14404299E+00 0.63381523E+03</pdfrwt>
<pdfrwt beam="2">  1       -1 0.12847322E+00 0.63381523E+03</pdfrwt>
<totfact> 0.93344344E+00</totfact>
</mgrwt>
</event>
<event>
 4    1  0.2293715E-008  0.7014890E+03  0.7818608E-02  0.9714689E-01
          1   -1    0    0  501    0  0.00000000000E+00  0.00000000000E+00  0.77451524969E+03  0.77451524971E+03  0.50400000000E-02 0. -1.
         -1   -1    0    0    0  501 -0.00000000000E+00 -0.00000000000E+00 -0.64718119827E+03  0.64718119829E+03  0.50400000000E-02 0.  1.
    8880022    1    1    2    0    0 -0.68450604137E+03  0.12107676548E+02 -0.32452963412E+02  0.70223925008E+03  0.15294330000E+03 0.  0.
    8880022    1    1    2    0    0  0.68450604137E+03 -0.12107676548E+02  0.15978701483E+03  0.71945719791E+03  0.15294330000E+03 0.  0.
<mgrwt>
<rscale>  0 0.70148897E+03</rscale>
<asrwt>0</asrwt>
<pdfrwt beam="1">  1        1 0.11915619E+00 0.70148897E+03</pdfrwt>
<pdfrwt beam="2">  1       -1 0.99566339E-01 0.70148897E+03</pdfrwt>
<totfact> 0.23139829E+01</totfact>
</mgrwt>
</event>
<event>
 4    1  0.2293715E-008  0.5251883E+03  0.7818608E-02  0.1007406E+00
          1   -1    0    0  501    0  0.00000000000E+00  0.00000000000E+00  0.27972212836E+03  0.27972212840E+03  0.50400000000E-02 0. -1.
         -1   -1    0    0    0  501 -0.00000000000E+00 -0.00000000000E+00 -0.18289548814E+04  0.18289548815E+04  0.50400000000E-02 0.  1.
    8880022    1    1    2    0    0  0.10402730493E+03 -0.49153780158E+03 -0.14903729306E+04  0.15802006885E+04  0.15294330000E+03 0.  0.
    8880022    1    1    2    0    0 -0.10402730493E+03  0.49153780158E+03 -0.58859822501E+02  0.52847632140E+03  0.15294330000E+03 0.  0.
<mgrwt>
<rscale>  0 0.52518829E+03</rscale>
<asrwt>0</asrwt>
<pdfrwt beam="1">  1        1 0.43034175E-01 0.52518829E+03</pdfrwt>
<pdfrwt beam="2">  1       -1 0.28137767E+00 0.52518829E+03</pdfrwt>
<totfact> 0.45431638E+00</totfact>
</mgrwt>
</event>
<event>
 4    1  0.2293715E-008  0.6434982E+03  0.7818608E-02  0.9819056E-01
          1   -1    0    0  501    0  0.00000000000E+00  0.00000000000E+00  0.32882080881E+03  0.32882080885E+03  0.50400000000E-02 0. -1.
         -1   -1    0    0    0  501 -0.00000000000E+00 -0.00000000000E+00 -0.13204069180E+04  0.13204069181E+04  0.50400000000E-02 0.  1.
    8880022    1    1    2    0    0  0.16439075379E+03 -0.60305391513E+03 -0.31842410920E+03  0.71797208220E+03  0.15294330000E+03 0.  0.
    8880022    1    1    2    0    0 -0.16439075379E+03  0.60305391513E+03 -0.67316200003E+03  0.93125564470E+03  0.15294330000E+03 0.  0.
<mgrwt>
<rscale>  0 0.64349825E+03</rscale>
<asrwt>0</asrwt>
<pdfrwt beam="1">  1        1 0.50587817E-01 0.64349825E+03</pdfrwt>
<pdfrwt beam="2">  1       -1 0.20313952E+00 0.64349825E+03</pdfrwt>
<totfact> 0.11629081E+01</totfact>
</mgrwt>
</event>
<event>
 4    1  0.2293715E-008  0.4072759E+03  0.7818608E-02  0.1041289E+00
         -1   -1    0    0    0  501 -0.00000000000E+00  0.00000000000E+00  0.48236304812E+03  0.48236304814E+03  0.50400000000E-02 0.  1.
          1   -1    0    0  501    0  0.00000000000E+00 -0.00000000000E+00 -0.60235771886E+03  0.60235771888E+03  0.50400000000E-02 0. -1.
    8880022    1    1    2    0    0  0.15741691741E+03  0.34307714522E+03  0.29528581121E+03  0.50305802525E+03  0.15294330000E+03 0.  0.
    8880022    1    1    2    0    0 -0.15741691741E+03 -0.34307714522E+03 -0.41528048195E+03  0.58166274177E+03  0.15294330000E+03 0.  0.
<mgrwt>
<rscale>  0 0.40727591E+03</rscale>
<asrwt>0</asrwt>
<pdfrwt beam="1">  1        1 0.92670419E-01 0.40727591E+03</pdfrwt>
<pdfrwt beam="2">  1       -1 0.74209699E-01 0.40727591E+03</pdfrwt>
<totfact> 0.65933398E+01</totfact>
</mgrwt>
</event>
<event>
 4    1  0.2293715E-008  0.5560602E+03  0.7818608E-02  0.1000101E+00
          1   -1    0    0  501    0  0.00000000000E+00  0.00000000000E+00  0.66938368470E+03  0.66938368472E+03  0.50400000000E-02 0. -1.
         -1   -1    0    0    0  501 -0.00000000000E+00 -0.00000000000E+00 -0.55698892987E+03  0.55698892989E+03  0.50400000000E-02 0.  1.
    8880022    1    1    2    0    0  0.45207234027E+03 -0.28538018424E+03  0.30952608215E+03  0.63640340896E+03  0.15294330000E+03 0. -1.
    8880022    1    1    2    0    0 -0.45207234027E+03  0.28538018424E+03 -0.19713132731E+03  0.58996920565E+03  0.15294330000E+03 0.  0.
<mgrwt>
<rscale>  0 0.55606016E+03</rscale>
<asrwt>0</asrwt>
<pdfrwt beam="1">  1        1 0.10298211E+00 0.55606016E+03</pdfrwt>
<pdfrwt beam="2">  1       -1 0.85690605E-01 0.55606016E+03</pdfrwt>
<totfact> 0.40987479E+01</totfact>
</mgrwt>
</event>
<event>
 4    1  0.2293715E-008  0.3293486E+03  0.7818608E-02  0.1071425E+00
          1   -1    0    0  501    0  0.00000000000E+00  0.00000000000E+00  0.16584562060E+04  0.16584562060E+04  0.50400000000E-02 0. -1.
         -1   -1    0    0    0  501 -0.00000000000E+00 -0.00000000000E+00 -0.64236471409E+03  0.64236471411E+03  0.50400000000E-02 0.  1.
    8880022    1    1    2    0    0 -0.28815204865E+03  0.45246143988E+02 -0.58222641592E+03  0.66892306665E+03  0.15294330000E+03 0.  1.
    8880022    1    1    2    0    0  0.28815204865E+03 -0.45246143988E+02  0.15983179078E+04  0.16318978535E+04  0.15294330000E+03 0.  0.
<mgrwt>
<rscale>  0 0.32934855E+03</rscale>
<asrwt>0</asrwt>
<pdfrwt beam="1">  1        1 0.25514711E+00 0.32934855E+03</pdfrwt>
<pdfrwt beam="2">  1       -1 0.98825342E-01 0.32934855E+03</pdfrwt>
<totfact> 0.57876464E+00</totfact>
</mgrwt>
</event>
<event>
 4    1  0.2293715E-008  0.3917113E+03  0.7818608E-02  0.1046688E+00
         -1   -1    0    0    0  501 -0.00000000000E+00  0.00000000000E+00  0.18470491773E+03  0.18470491780E+03  0.50400000000E-02 0.  1.
          1   -1    0    0  501    0  0.00000000000E+00 -0.00000000000E+00 -0.18774418309E+04  0.18774418309E+04  0.50400000000E-02 0. -1.
    8880022    1    1    2    0    0 -0.35856048091E+03 -0.38477042026E+02 -0.76489725259E+02  0.39910954927E+03  0.15294330000E+03 0.  0.
    8880022    1    1    2    0    0  0.35856048091E+03  0.38477042026E+02 -0.16162471879E+04  0.16630371994E+04  0.15294330000E+03 0. -1.
<mgrwt>
<rscale>  0 0.39171131E+03</rscale>
<asrwt>0</asrwt>
<pdfrwt beam="1">  1        1 0.28883719E+00 0.39171131E+03</pdfrwt>
<pdfrwt beam="2">  1       -1 0.28416142E-01 0.39171131E+03</pdfrwt>
<totfact> 0.44389938E+01</totfact>
</mgrwt>
</event>
<event>
 4    1  0.2293715E-008  0.5362309E+03  0.7818608E-02  0.1004732E+00
          1   -1    0    0  501    0  0.00000000000E+00  0.00000000000E+00  0.79802200326E+03  0.79802200328E+03  0.50400000000E-02 0. -1.
         -1   -1    0    0    0  501 -0.00000000000E+00 -0.00000000000E+00 -0.47730755193E+03  0.47730755196E+03  0.50400000000E-02 0.  1.
    8880022    1    1    2    0    0 -0.12134948005E+02  0.51381383105E+03  0.47604841653E+03  0.71705345535E+03  0.15294330000E+03 0.  0.
    8880022    1    1    2    0    0  0.12134948005E+02 -0.51381383105E+03 -0.15533396520E+03  0.55827609988E+03  0.15294330000E+03 0.  1.
<mgrwt>
<rscale>  0 0.53623089E+03</rscale>
<asrwt>0</asrwt>
<pdfrwt beam="1">  1        1 0.12277261E+00 0.53623089E+03</pdfrwt>
<pdfrwt beam="2">  1       -1 0.73431932E-01 0.53623089E+03</pdfrwt>
<totfact> 0.43512081E+01</totfact>
</mgrwt>
</event>
<event>
 4    1  0.2293715E-008  0.7850608E+03  0.7818608E-02  0.9581896E-01
          1   -1    0    0  501    0  0.00000000000E+00  0.00000000000E+00  0.10270643371E+04  0.10270643371E+04  0.50400000000E-02 0. -1.
         -1   -1    0    0    0  501 -0.00000000000E+00 -0.00000000000E+00 -0.11855554134E+04  0.11855554134E+04  0.50400000000E-02 0.  1.
    8880022    1    1    2    0    0  0.18193353859E+03 -0.74821722420E+03 -0.85669164801E+03  0.11619987349E+04  0.15294330000E+03 0.  0.
    8880022    1    1    2    0    0 -0.18193353859E+03  0.74821722420E+03  0.69820057172E+03  0.10506210156E+04  0.15294330000E+03 0.  0.
<mgrwt>
<rscale>  0 0.78506081E+03</rscale>
<asrwt>0</asrwt>
<pdfrwt beam="1">  1        1 0.15800990E+00 0.78506081E+03</pdfrwt>
<pdfrwt beam="2">  1       -1 0.18239314E+00 0.78506081E+03</pdfrwt>
<totfact> 0.29832407E+00</totfact>
</mgrwt>
</event>
<event>
 4    1  0.2293715E-008  0.3673983E+03  0.7818608E-02  0.1055692E+00
          1   -1    0    0  501    0  0.00000000000E+00  0.00000000000E+00  0.67433881122E+03  0.67433881124E+03  0.50400000000E-02 0. -1.
         -1   -1    0    0    0  501 -0.00000000000E+00 -0.00000000000E+00 -0.25838453527E+03  0.25838453531E+03  0.50400000000E-02 0.  1.
    8880022    1    1    2    0    0 -0.31627820858E+03  0.10750798797E+03  0.42934274476E+03  0.56508116071E+03  0.15294330000E+03 0.  0.
    8880022    1    1    2    0    0  0.31627820858E+03 -0.10750798797E+03 -0.13388468803E+02  0.36764218584E+03  0.15294330000E+03 0.  0.
<mgrwt>
<rscale>  0 0.36739832E+03</rscale>
<asrwt>0</asrwt>
<pdfrwt beam="1">  1        1 0.10374443E+00 0.36739832E+03</pdfrwt>
<pdfrwt beam="2">  1       -1 0.39751467E-01 0.36739832E+03</pdfrwt>
<totfact> 0.18556121E+02</totfact>
</mgrwt>
</event>
<event>
 4    1  0.2293715E-008  0.3735170E+03  0.7818608E-02  0.1053356E+00
          1   -1    0    0  501    0  0.00000000000E+00  0.00000000000E+00  0.50533440761E+03  0.50533440764E+03  0.50400000000E-02 0. -1.
         -1   -1    0    0    0  501 -0.00000000000E+00 -0.00000000000E+00 -0.72020200315E+03  0.72020200317E+03  0.50400000000E-02 0.  1.
    8880022    1    1    2    0    0  0.19208662163E+03  0.28147112844E+03 -0.58862544574E+03  0.69713329769E+03  0.15294330000E+03 0.  0.
    8880022    1    1    2    0    0 -0.19208662163E+03 -0.28147112844E+03  0.37375785020E+03  0.52840311312E+03  0.15294330000E+03 0.  0.
<mgrwt>
<rscale>  0 0.37351696E+03</rscale>
<asrwt>0</asrwt>
<pdfrwt beam="1">  1        1 0.77743755E-01 0.37351696E+03</pdfrwt>
<pdfrwt beam="2">  1       -1 0.11080031E+00 0.37351696E+03</pdfrwt>
<totfact> 0.35228431E+01</totfact>
</mgrwt>
</event>
<event>
 4    1  0.2293715E-008  0.4172338E+03  0.7818608E-02  0.1037970E+00
         -1   -1    0    0    0  501 -0.00000000000E+00  0.00000000000E+00  0.79312001807E+02  0.79312001967E+02  0.50400000000E-02 0.  1.
          1   -1    0    0  501    0  0.00000000000E+00 -0.00000000000E+00 -0.23244178009E+04  0.23244178009E+04  0.50400000000E-02 0. -1.
    8880022    1    1    2    0    0  0.32685238657E+03  0.20942766218E+03 -0.14062255361E+04  0.14668177595E+04  0.15294330000E+03 0.  0.
    8880022    1    1    2    0    0 -0.32685238657E+03 -0.20942766218E+03 -0.83888026299E+03  0.93691204334E+03  0.15294330000E+03 0.  0.
<mgrwt>
<rscale>  0 0.41723384E+03</rscale>
<asrwt>0</asrwt>
<pdfrwt beam="1">  1        1 0.35760269E+00 0.41723384E+03</pdfrwt>
<pdfrwt beam="2">  1       -1 0.12201848E-01 0.41723384E+03</pdfrwt>
<totfact> 0.89550469E+01</totfact>
</mgrwt>
</event>
<event>
 4    1  0.2293715E-008  0.8021951E+03  0.7818608E-02  0.9556845E-01
          1   -1    0    0  501    0  0.00000000000E+00  0.00000000000E+00  0.19739591041E+04  0.19739591042E+04  0.50400000000E-02 0. -1.
         -1   -1    0    0    0  501 -0.00000000000E+00 -0.00000000000E+00 -0.69194955874E+03  0.69194955876E+03  0.50400000000E-02 0.  1.
    8880022    1    1    2    0    0  0.16513438135E+03 -0.76997137272E+03 -0.32835899497E+03  0.86679672433E+03  0.15294330000E+03 0.  0.
    8880022    1    1    2    0    0 -0.16513438135E+03  0.76997137272E+03  0.16103685404E+04  0.17991119386E+04  0.15294330000E+03 0.  0.
<mgrwt>
<rscale>  0 0.80219507E+03</rscale>
<asrwt>0</asrwt>
<pdfrwt beam="1">  1        1 0.30368602E+00 0.80219507E+03</pdfrwt>
<pdfrwt beam="2">  1       -1 0.10645378E+00 0.80219507E+03</pdfrwt>
<totfact> 0.26678514E+00</totfact>
</mgrwt>
</event>
<event>
 4    1  0.2293715E-008  0.2613537E+03  0.7818608E-02  0.1106333E+00
         -1   -1    0    0    0  501 -0.00000000000E+00  0.00000000000E+00  0.91720272207E+03  0.91720272209E+03  0.50400000000E-02 0.  1.
          1   -1    0    0  501    0  0.00000000000E+00 -0.00000000000E+00 -0.11083379829E+04  0.11083379829E+04  0.50400000000E-02 0. -1.
    8880022    1    1    2    0    0 -0.21178960824E+03 -0.76987091533E+01 -0.10737211696E+04  0.11050714508E+04  0.15294330000E+03 0.  0.
    8880022    1    1    2    0    0  0.21178960824E+03  0.76987091533E+01  0.88258590885E+03  0.92046925413E+03  0.15294330000E+03 0.  0.
<mgrwt>
<rscale>  0 0.26135371E+03</rscale>
<asrwt>0</asrwt>
<pdfrwt beam="1">  1        1 0.17051353E+00 0.26135371E+03</pdfrwt>
<pdfrwt beam="2">  1       -1 0.14110811E+00 0.26135371E+03</pdfrwt>
<totfact> 0.60452272E+00</totfact>
</mgrwt>
</event>
<event>
 4    1  0.2293715E-008  0.7366596E+03  0.7818608E-02  0.9656515E-01
         -1   -1    0    0    0  501 -0.00000000000E+00  0.00000000000E+00  0.30418813671E+03  0.30418813675E+03  0.50400000000E-02 0.  1.
          1   -1    0    0  501    0  0.00000000000E+00 -0.00000000000E+00 -0.23671670641E+04  0.23671670641E+04  0.50400000000E-02 0. -1.
    8880022    1    1    2    0    0  0.39074674495E+03  0.60546904420E+03 -0.36852717645E+03  0.82369880112E+03  0.15294330000E+03 0.  0.
    8880022    1    1    2    0    0 -0.39074674495E+03 -0.60546904420E+03 -0.16944517509E+04  0.18476563997E+04  0.15294330000E+03 0.  0.
<mgrwt>
<rscale>  0 0.73665965E+03</rscale>
<asrwt>0</asrwt>
<pdfrwt beam="1">  1        1 0.36417954E+00 0.73665965E+03</pdfrwt>
<pdfrwt beam="2">  1       -1 0.46798176E-01 0.73665965E+03</pdfrwt>
<totfact> 0.80379792E+00</totfact>
</mgrwt>
</event>
<event>
 4    1  0.2293715E-008  0.4268020E+03  0.7818608E-02  0.1034875E+00
         -1   -1    0    0    0  501 -0.00000000000E+00  0.00000000000E+00  0.25151981278E+03  0.25151981283E+03  0.50400000000E-02 0.  1.
          1   -1    0    0  501    0  0.00000000000E+00 -0.00000000000E+00 -0.86338434160E+03  0.86338434162E+03  0.50400000000E-02 0. -1.
    8880022    1    1    2    0    0 -0.35384097187E+03  0.18320718928E+03 -0.52972339700E+03  0.68026968029E+03  0.15294330000E+03 0.  0.
    8880022    1    1    2    0    0  0.35384097187E+03 -0.18320718928E+03 -0.82141131817E+02  0.43463447416E+03  0.15294330000E+03 0.  0.
<mgrwt>
<rscale>  0 0.42680202E+03</rscale>
<asrwt>0</asrwt>
<pdfrwt beam="1">  1        1 0.13282836E+00 0.42680202E+03</pdfrwt>
<pdfrwt beam="2">  1       -1 0.38695356E-01 0.42680202E+03</pdfrwt>
<totfact> 0.13228289E+02</totfact>
</mgrwt>
</event>
<event>
 4    1  0.2293715E-008  0.9231410E+03  0.7818608E-02  0.9397108E-01
         -1   -1    0    0    0  501 -0.00000000000E+00  0.00000000000E+00  0.64289292280E+03  0.64289292282E+03  0.50400000000E-02 0.  1.
          1   -1    0    0  501    0  0.00000000000E+00 -0.00000000000E+00 -0.22659939466E+04  0.22659939466E+04  0.50400000000E-02 0. -1.
    8880022    1    1    2    0    0 -0.90063196059E+03 -0.13289013295E+03 -0.17485362208E+04  0.19772628264E+04  0.15294330000E+03 0.  0.
    8880022    1    1    2    0    0  0.90063196059E+03  0.13289013295E+03  0.12543519708E+03  0.93162404303E+03  0.15294330000E+03 0.  0.
<mgrwt>
<rscale>  0 0.92314103E+03</rscale>
<asrwt>0</asrwt>
<pdfrwt beam="1">  1        1 0.34861445E+00 0.92314103E+03</pdfrwt>
<pdfrwt beam="2">  1       -1 0.98906605E-01 0.92314103E+03</pdfrwt>
<totfact> 0.19710608E+00</totfact>
</mgrwt>
</event>
<event>
 4    1  0.2293715E-008  0.4080104E+03  0.7818608E-02  0.1041041E+00
          1   -1    0    0  501    0  0.00000000000E+00  0.00000000000E+00  0.34413085835E+03  0.34413085839E+03  0.50400000000E-02 0. -1.
         -1   -1    0    0    0  501 -0.00000000000E+00 -0.00000000000E+00 -0.54901560434E+03  0.54901560437E+03  0.50400000000E-02 0.  1.
    8880022    1    1    2    0    0  0.35993066110E+03  0.11632188917E+03  0.51532598997E+02  0.41125189905E+03  0.15294330000E+03 0.  0.
    8880022    1    1    2    0    0 -0.35993066110E+03 -0.11632188917E+03 -0.25641734499E+03  0.48189456370E+03  0.15294330000E+03 0.  0.
<mgrwt>
<rscale>  0 0.40801044E+03</rscale>
<asrwt>0</asrwt>
<pdfrwt beam="1">  1        1 0.52943209E-01 0.40801044E+03</pdfrwt>
<pdfrwt beam="2">  1       -1 0.84463939E-01 0.40801044E+03</pdfrwt>
<totfact> 0.10624737E+02</totfact>
</mgrwt>
</event>
<event>
 4    1  0.2293715E-008  0.4048178E+03  0.7818608E-02  0.1042124E+00
          1   -1    0    0  501    0  0.00000000000E+00  0.00000000000E+00  0.64259291633E+03  0.64259291635E+03  0.50400000000E-02 0. -1.
         -1   -1    0    0    0  501 -0.00000000000E+00 -0.00000000000E+00 -0.40687840893E+03  0.40687840896E+03  0.50400000000E-02 0.  1.
    8880022    1    1    2    0    0  0.71186586977E+02  0.36799219769E+03 -0.20271071573E+03  0.45273510468E+03  0.15294330000E+03 0.  0.
    8880022    1    1    2    0    0 -0.71186586977E+02 -0.36799219769E+03  0.43842522313E+03  0.59673622063E+03  0.15294330000E+03 0.  0.
<mgrwt>
<rscale>  0 0.40481779E+03</rscale>
<asrwt>0</asrwt>
<pdfrwt beam="1">  1        1 0.98860448E-01 0.40481779E+03</pdfrwt>
<pdfrwt beam="2">  1       -1 0.62596679E-01 0.40481779E+03</pdfrwt>
<totfact> 0.84652573E+01</totfact>
</mgrwt>
</event>
<event>
 4    1  0.2293715E-008  0.5525514E+03  0.7818608E-02  0.1000905E+00
         -1   -1    0    0    0  501 -0.00000000000E+00  0.00000000000E+00  0.18052847774E+04  0.18052847774E+04  0.50400000000E-02 0.  1.
          1   -1    0    0  501    0  0.00000000000E+00 -0.00000000000E+00 -0.70556060313E+03  0.70556060315E+03  0.50400000000E-02 0. -1.
    8880022    1    1    2    0    0  0.52147465798E+03  0.99928134746E+02 -0.54480707540E+03  0.77596897712E+03  0.15294330000E+03 0.  0.
    8880022    1    1    2    0    0 -0.52147465798E+03 -0.99928134746E+02  0.16445312497E+04  0.17348764034E+04  0.15294330000E+03 0.  0.
<mgrwt>
<rscale>  0 0.55255145E+03</rscale>
<asrwt>0</asrwt>
<pdfrwt beam="1">  1        1 0.10854779E+00 0.55255145E+03</pdfrwt>
<pdfrwt beam="2">  1       -1 0.27773612E+00 0.55255145E+03</pdfrwt>
<totfact> 0.13607722E+00</totfact>
</mgrwt>
</event>
<event>
 4    1  0.2293715E-008  0.6135316E+03  0.7818608E-02  0.9877723E-01
          1   -1    0    0  501    0  0.00000000000E+00  0.00000000000E+00  0.19845505315E+04  0.19845505315E+04  0.50400000000E-02 0. -1.
         -1   -1    0    0    0  501 -0.00000000000E+00 -0.00000000000E+00 -0.45447146661E+03  0.45447146664E+03  0.50400000000E-02 0.  1.
    8880022    1    1    2    0    0 -0.93550943590E+02  0.58675173858E+03 -0.16582807921E+03  0.63554699798E+03  0.15294330000E+03 0.  0.
    8880022    1    1    2    0    0  0.93550943590E+02 -0.58675173858E+03  0.16959071441E+04  0.18034750001E+04  0.15294330000E+03 0.  0.
<mgrwt>
<rscale>  0 0.61353161E+03</rscale>
<asrwt>0</asrwt>
<pdfrwt beam="1">  1        1 0.30531548E+00 0.61353161E+03</pdfrwt>
<pdfrwt beam="2">  1       -1 0.69918685E-01 0.61353161E+03</pdfrwt>
<totfact> 0.67876389E+00</totfact>
</mgrwt>
</event>
<event>
 4    1  0.2293715E-008  0.6731300E+03  0.7818608E-02  0.9764320E-01
         -1   -1    0    0    0  501 -0.00000000000E+00  0.00000000000E+00  0.47201259110E+03  0.47201259112E+03  0.50400000000E-02 0.  1.
          1   -1    0    0  501    0  0.00000000000E+00 -0.00000000000E+00 -0.16867876665E+04  0.16867876665E+04  0.50400000000E-02 0. -1.
    8880022    1    1    2    0    0 -0.41279752810E+03  0.50922542636E+03 -0.13159429470E+04  0.14781102214E+04  0.15294330000E+03 0.  0.
    8880022    1    1    2    0    0  0.41279752810E+03 -0.50922542636E+03  0.10116787160E+03  0.68069003615E+03  0.15294330000E+03 0.  0.
<mgrwt>
<rscale>  0 0.67312999E+03</rscale>
<asrwt>0</asrwt>
<pdfrwt beam="1">  1        1 0.25950579E+00 0.67312999E+03</pdfrwt>
<pdfrwt beam="2">  1       -1 0.72617322E-01 0.67312999E+03</pdfrwt>
<totfact> 0.98123804E+00</totfact>
</mgrwt>
</event>
<event>
 4    1  0.2293715E-008  0.1030099E+04  0.7818608E-02  0.9276135E-01
         -1   -1    0    0    0  501 -0.00000000000E+00  0.00000000000E+00  0.72514767433E+03  0.72514767435E+03  0.50400000000E-02 0.  1.
          1   -1    0    0  501    0  0.00000000000E+00 -0.00000000000E+00 -0.24976028548E+04  0.24976028548E+04  0.50400000000E-02 0. -1.
    8880022    1    1    2    0    0 -0.34371355431E+03  0.95894405888E+03 -0.19231830107E+04  0.21816822090E+04  0.15294330000E+03 0.  0.
    8880022    1    1    2    0    0  0.34371355431E+03 -0.95894405888E+03  0.15072783019E+03  0.10410683202E+04  0.15294330000E+03 0.  0.
<mgrwt>
<rscale>  0 0.10300992E+04</rscale>
<asrwt>0</asrwt>
<pdfrwt beam="1">  1        1 0.38424659E+00 0.10300992E+04</pdfrwt>
<pdfrwt beam="2">  1       -1 0.11156118E+00 0.10300992E+04</pdfrwt>
<totfact> 0.10173713E+00</totfact>
</mgrwt>
</event>
<event>
 4    1  0.2293715E-008  0.3773433E+03  0.7818608E-02  0.1051920E+00
          1   -1    0    0  501    0  0.00000000000E+00  0.00000000000E+00  0.10568538290E+04  0.10568538290E+04  0.50400000000E-02 0. -1.
         -1   -1    0    0    0  501 -0.00000000000E+00 -0.00000000000E+00 -0.30847756915E+03  0.30847756919E+03  0.50400000000E-02 0.  1.
    8880022    1    1    2    0    0 -0.26582652475E+03 -0.21984672744E+03 -0.13815149750E+03  0.40183804462E+03  0.15294330000E+03 0.  0.
    8880022    1    1    2    0    0  0.26582652475E+03  0.21984672744E+03  0.88652775732E+03  0.96349335355E+03  0.15294330000E+03 0. -1.
<mgrwt>
<rscale>  0 0.37734332E+03</rscale>
<asrwt>0</asrwt>
<pdfrwt beam="1">  1        1 0.16259289E+00 0.37734332E+03</pdfrwt>
<pdfrwt beam="2">  1       -1 0.47458088E-01 0.37734332E+03</pdfrwt>
<totfact> 0.65074894E+01</totfact>
</mgrwt>
</event>
<event>
 4    1  0.2293715E-008  0.7782534E+03  0.7818608E-02  0.9592039E-01
          1   -1    0    0  501    0  0.00000000000E+00  0.00000000000E+00  0.87486450739E+03  0.87486450741E+03  0.50400000000E-02 0. -1.
         -1   -1    0    0    0  501 -0.00000000000E+00 -0.00000000000E+00 -0.10892118404E+04  0.10892118404E+04  0.50400000000E-02 0.  1.
    8880022    1    1    2    0    0  0.68285825073E+03  0.34057506316E+03 -0.69998042030E+03  0.10467334933E+04  0.15294330000E+03 0.  0.
    8880022    1    1    2    0    0 -0.68285825073E+03 -0.34057506316E+03  0.48563308728E+03  0.91734285451E+03  0.15294330000E+03 0.  0.
<mgrwt>
<rscale>  0 0.77825344E+03</rscale>
<asrwt>0</asrwt>
<pdfrwt beam="1">  1        1 0.13459454E+00 0.77825344E+03</pdfrwt>
<pdfrwt beam="2">  1       -1 0.16757105E+00 0.77825344E+03</pdfrwt>
<totfact> 0.50496464E+00</totfact>
</mgrwt>
</event>
<event>
 4    1  0.2293715E-008  0.7378336E+03  0.7818608E-02  0.9654633E-01
          1   -1    0    0  501    0  0.00000000000E+00  0.00000000000E+00  0.25057165503E+04  0.25057165503E+04  0.50400000000E-02 0. -1.
         -1   -1    0    0    0  501 -0.00000000000E+00 -0.00000000000E+00 -0.53272516922E+03  0.53272516924E+03  0.50400000000E-02 0.  1.
    8880022    1    1    2    0    0  0.30107108223E+03  0.65602056975E+03  0.21555730232E+04  0.22783532421E+04  0.15294330000E+03 0. -1.
    8880022    1    1    2    0    0 -0.30107108223E+03 -0.65602056975E+03 -0.18258164211E+03  0.76008847744E+03  0.15294330000E+03 0.  0.
<mgrwt>
<rscale>  0 0.73783361E+03</rscale>
<asrwt>0</asrwt>
<pdfrwt beam="1">  1        1 0.38549485E+00 0.73783361E+03</pdfrwt>
<pdfrwt beam="2">  1       -1 0.81957718E-01 0.73783361E+03</pdfrwt>
<totfact> 0.21206376E+00</totfact>
</mgrwt>
</event>
<event>
 4    1  0.2293715E-008  0.3465409E+03  0.7818608E-02  0.1064044E+00
          1   -1    0    0  501    0  0.00000000000E+00  0.00000000000E+00  0.65791741448E+03  0.65791741450E+03  0.50400000000E-02 0. -1.
         -1   -1    0    0    0  501 -0.00000000000E+00 -0.00000000000E+00 -0.85963271196E+03  0.85963271197E+03  0.50400000000E-02 0.  1.
    8880022    1    1    2    0    0 -0.18473171345E+03  0.25014621128E+03 -0.77427361782E+03  0.84828663861E+03  0.15294330000E+03 0.  0.
    8880022    1    1    2    0    0  0.18473171345E+03 -0.25014621128E+03  0.57255832035E+03  0.66926348786E+03  0.15294330000E+03 0. -1.
<mgrwt>
<rscale>  0 0.34654089E+03</rscale>
<asrwt>0</asrwt>
<pdfrwt beam="1">  1        1 0.10121806E+00 0.34654089E+03</pdfrwt>
<pdfrwt beam="2">  1       -1 0.13225119E+00 0.34654089E+03</pdfrwt>
<totfact> 0.16011944E+01</totfact>
</mgrwt>
</event>
<event>
 4    1  0.2293715E-008  0.3184586E+03  0.7818608E-02  0.1076361E+00
         -1   -1    0    0    0  501 -0.00000000000E+00  0.00000000000E+00  0.35744807686E+03  0.35744807690E+03  0.50400000000E-02 0.  1.
          1   -1    0    0  501    0  0.00000000000E+00 -0.00000000000E+00 -0.66140291811E+03  0.66140291813E+03  0.50400000000E-02 0. -1.
    8880022    1    1    2    0    0  0.26650877537E+03 -0.83649948555E+02 -0.53693256598E+03  0.62426955289E+03  0.15294330000E+03 0. -1.
    8880022    1    1    2    0    0 -0.26650877537E+03  0.83649948555E+02  0.23297772473E+03  0.39458144214E+03  0.15294330000E+03 0.  0.
<mgrwt>
<rscale>  0 0.31845862E+03</rscale>
<asrwt>0</asrwt>
<pdfrwt beam="1">  1        1 0.10175429E+00 0.31845862E+03</pdfrwt>
<pdfrwt beam="2">  1       -1 0.54992012E-01 0.31845862E+03</pdfrwt>
<totfact> 0.10565897E+02</totfact>
</mgrwt>
</event>
<event>
 4    1  0.2293715E-008  0.5451687E+03  0.7818608E-02  0.1002618E+00
          1   -1    0    0  501    0  0.00000000000E+00  0.00000000000E+00  0.10040180191E+04  0.10040180191E+04  0.50400000000E-02 0. -1.
         -1   -1    0    0    0  501 -0.00000000000E+00 -0.00000000000E+00 -0.45026842002E+03  0.45026842004E+03  0.50400000000E-02 0.  1.
    8880022    1    1    2    0    0  0.31767047694E+03 -0.41581569918E+03 -0.14871903184E+03  0.56508957790E+03  0.15294330000E+03 0.  0.
    8880022    1    1    2    0    0 -0.31767047694E+03  0.41581569918E+03  0.70246863087E+03  0.88919686121E+03  0.15294330000E+03 0.  0.
<mgrwt>
<rscale>  0 0.54516867E+03</rscale>
<asrwt>0</asrwt>
<pdfrwt beam="1">  1        1 0.15446431E+00 0.54516867E+03</pdfrwt>
<pdfrwt beam="2">  1       -1 0.69272065E-01 0.54516867E+03</pdfrwt>
<totfact> 0.33371883E+01</totfact>
</mgrwt>
</event>
<event>
 4    1  0.2293715E-008  0.7004011E+03  0.7818608E-02  0.9716547E-01
         -1   -1    0    0    0  501 -0.00000000000E+00  0.00000000000E+00  0.50737424807E+03  0.50737424810E+03  0.50400000000E-02 0.  1.
          1   -1    0    0  501    0  0.00000000000E+00 -0.00000000000E+00 -0.25725866460E+04  0.25725866460E+04  0.50400000000E-02 0. -1.
    8880022    1    1    2    0    0 -0.60362528379E+03 -0.32063455028E+03 -0.22492558403E+04  0.23557829880E+04  0.15294330000E+03 0.  0.
    8880022    1    1    2    0    0  0.60362528379E+03  0.32063455028E+03  0.18404344239E+03  0.72417790616E+03  0.15294330000E+03 0.  0.
<mgrwt>
<rscale>  0 0.70040106E+03</rscale>
<asrwt>0</asrwt>
<pdfrwt beam="1">  1        1 0.39578255E+00 0.70040106E+03</pdfrwt>
<pdfrwt beam="2">  1       -1 0.78057578E-01 0.70040106E+03</pdfrwt>
<totfact> 0.21334420E+00</totfact>
</mgrwt>
</event>
<event>
 4    1  0.2293715E-008  0.3332691E+03  0.7818608E-02  0.1069699E+00
          1   -1    0    0  501    0  0.00000000000E+00  0.00000000000E+00  0.91396276837E+03  0.91396276838E+03  0.50400000000E-02 0. -1.
         -1   -1    0    0    0  501 -0.00000000000E+00 -0.00000000000E+00 -0.27270803983E+03  0.27270803988E+03  0.50400000000E-02 0.  1.
    8880022    1    1    2    0    0 -0.44207635999E+02 -0.29278377803E+03  0.76240571230E+03  0.83206416755E+03  0.15294330000E+03 0. -1.
    8880022    1    1    2    0    0  0.44207635999E+02  0.29278377803E+03 -0.12115098376E+03  0.35460664071E+03  0.15294330000E+03 0.  0.
<mgrwt>
<rscale>  0 0.33326912E+03</rscale>
<asrwt>0</asrwt>
<pdfrwt beam="1">  1        1 0.14060965E+00 0.33326912E+03</pdfrwt>
<pdfrwt beam="2">  1       -1 0.41955084E-01 0.33326912E+03</pdfrwt>
<totfact> 0.10561673E+02</totfact>
</mgrwt>
</event>
<event>
 4    1  0.3085788E-008  0.7614644E+03  0.7818608E-02  0.9617534E-01
         -1   -1    0    0    0  501 -0.00000000000E+00  0.00000000000E+00  0.94815252551E+03  0.94815252552E+03  0.50400000000E-02 0.  1.
          1   -1    0    0  501    0  0.00000000000E+00 -0.00000000000E+00 -0.21257557756E+04  0.21257557756E+04  0.50400000000E-02 0. -1.
    8880022    1    1    2    0    0 -0.10622341160E+03  0.73834470859E+03  0.70837436363E+03  0.10400106797E+04  0.15294330000E+03 0.  1.
    8880022    1    1    2    0    0  0.10622341160E+03 -0.73834470859E+03 -0.18859776137E+04  0.20338976214E+04  0.15294330000E+03 0.  0.
<mgrwt>
<rscale>  0 0.76146436E+03</rscale>
<asrwt>0</asrwt>
<pdfrwt beam="1">  1        1 0.32703935E+00 0.76146436E+03</pdfrwt>
<pdfrwt beam="2">  1       -1 0.14586962E+00 0.76146436E+03</pdfrwt>
<totfact> 0.97401705E-01</totfact>
</mgrwt>
</event>
<event>
 4    1  0.2293715E-008  0.4909884E+03  0.7818608E-02  0.1016158E+00
          1   -1    0    0  501    0  0.00000000000E+00  0.00000000000E+00  0.28680647011E+04  0.28680647011E+04  0.50400000000E-02 0. -1.
         -1   -1    0    0    0  501 -0.00000000000E+00 -0.00000000000E+00 -0.16768503072E+03  0.16768503079E+03  0.50400000000E-02 0.  1.
    8880022    1    1    2    0    0  0.44945687568E+03  0.12516588027E+03  0.24221409252E+04  0.24714037095E+04  0.15294330000E+03 0.  0.
    8880022    1    1    2    0    0 -0.44945687568E+03 -0.12516588027E+03  0.27823874519E+03  0.56434602242E+03  0.15294330000E+03 0.  0.
<mgrwt>
<rscale>  0 0.49098843E+03</rscale>
<asrwt>0</asrwt>
<pdfrwt beam="1">  1        1 0.44124072E+00 0.49098843E+03</pdfrwt>
<pdfrwt beam="2">  1       -1 0.25797697E-01 0.49098843E+03</pdfrwt>
<totfact> 0.11039448E+01</totfact>
</mgrwt>
</event>
<event>
 4    1  0.2293715E-008  0.4163617E+03  0.7818608E-02  0.1038257E+00
         -1   -1    0    0    0  501 -0.00000000000E+00  0.00000000000E+00  0.36485790990E+03  0.36485790993E+03  0.50400000000E-02 0.  1.
          1   -1    0    0  501    0  0.00000000000E+00 -0.00000000000E+00 -0.27954218059E+04  0.27954218060E+04  0.50400000000E-02 0. -1.
    8880022    1    1    2    0    0  0.29228676017E+03 -0.25403521552E+03 -0.26548844874E+04  0.26873348759E+04  0.15294330000E+03 0. -1.
    8880022    1    1    2    0    0 -0.29228676017E+03  0.25403521552E+03  0.22432059137E+03  0.47294483994E+03  0.15294330000E+03 0.  0.
<mgrwt>
<rscale>  0 0.41636173E+03</rscale>
<asrwt>0</asrwt>
<pdfrwt beam="1">  1        1 0.43006488E+00 0.41636173E+03</pdfrwt>
<pdfrwt beam="2">  1       -1 0.56131988E-01 0.41636173E+03</pdfrwt>
<totfact> 0.31471276E+00</totfact>
</mgrwt>
</event>
<event>
 4    1  0.2293715E-008  0.3443835E+03  0.7818608E-02  0.1064944E+00
          1   -1    0    0  501    0  0.00000000000E+00  0.00000000000E+00  0.20154912660E+04  0.20154912660E+04  0.50400000000E-02 0. -1.
         -1   -1    0    0    0  501 -0.00000000000E+00 -0.00000000000E+00 -0.71491815837E+02  0.71491816014E+02  0.50400000000E-02 0.  1.
    8880022    1    1    2    0    0 -0.37588824412E+02 -0.30626034562E+03  0.53310021551E+03  0.63466196657E+03  0.15294330000E+03 0.  0.
    8880022    1    1    2    0    0  0.37588824412E+02  0.30626034562E+03  0.14108992347E+04  0.14523211155E+04  0.15294330000E+03 0.  0.
<mgrwt>
<rscale>  0 0.34438347E+03</rscale>
<asrwt>0</asrwt>
<pdfrwt beam="1">  1        1 0.31007554E+00 0.34438347E+03</pdfrwt>
<pdfrwt beam="2">  1       -1 0.10998742E-01 0.34438347E+03</pdfrwt>
<totfact> 0.17096988E+02</totfact>
</mgrwt>
</event>
<event>
 4    1  0.2293715E-008  0.8253864E+03  0.7818608E-02  0.9523981E-01
          1   -1    0    0  501    0  0.00000000000E+00  0.00000000000E+00  0.11157846801E+04  0.11157846801E+04  0.50400000000E-02 0. -1.
         -1   -1    0    0    0  501 -0.00000000000E+00 -0.00000000000E+00 -0.11366678236E+04  0.11366678237E+04  0.50400000000E-02 0.  1.
    8880022    1    1    2    0    0 -0.77445898333E+03 -0.24100690689E+03 -0.77664279024E+03  0.11333299267E+04  0.15294330000E+03 0.  0.
    8880022    1    1    2    0    0  0.77445898333E+03  0.24100690689E+03  0.75575964671E+03  0.11191225771E+04  0.15294330000E+03 0.  0.
<mgrwt>
<rscale>  0 0.82538639E+03</rscale>
<asrwt>0</asrwt>
<pdfrwt beam="1">  1        1 0.17165918E+00 0.82538639E+03</pdfrwt>
<pdfrwt beam="2">  1       -1 0.17487197E+00 0.82538639E+03</pdfrwt>
<totfact> 0.28760131E+00</totfact>
</mgrwt>
</event>
<event>
 4    1  0.2293715E-008  0.1391430E+04  0.7818608E-02  0.8960045E-01
         -1   -1    0    0    0  501 -0.00000000000E+00  0.00000000000E+00  0.18449666434E+04  0.18449666434E+04  0.50400000000E-02 0.  1.
          1   -1    0    0  501    0  0.00000000000E+00 -0.00000000000E+00 -0.16332138148E+04  0.16332138148E+04  0.50400000000E-02 0. -1.
    8880022    1    1    2    0    0 -0.95607912501E+03  0.99929914683E+03 -0.93390937499E+03  0.16757877109E+04  0.15294330000E+03 0.  0.
    8880022    1    1    2    0    0  0.95607912501E+03 -0.99929914683E+03  0.11456622035E+04  0.18023927474E+04  0.15294330000E+03 0.  0.
<mgrwt>
<rscale>  0 0.13914301E+04</rscale>
<asrwt>0</asrwt>
<pdfrwt beam="1">  1        1 0.25126366E+00 0.13914301E+04</pdfrwt>
<pdfrwt beam="2">  1       -1 0.28384102E+00 0.13914301E+04</pdfrwt>
<totfact> 0.21306612E-01</totfact>
</mgrwt>
</event>
<event>
 4    1  0.2293715E-008  0.1174146E+04  0.7818608E-02  0.9135793E-01
         -1   -1    0    0    0  501 -0.00000000000E+00  0.00000000000E+00  0.10586515827E+04  0.10586515827E+04  0.50400000000E-02 0.  1.
          1   -1    0    0  501    0  0.00000000000E+00 -0.00000000000E+00 -0.21157373778E+04  0.21157373778E+04  0.50400000000E-02 0. -1.
    8880022    1    1    2    0    0  0.11501107324E+04  0.18019943618E+03  0.45564361023E+03  0.12594559485E+04  0.15294330000E+03 0.  0.
    8880022    1    1    2    0    0 -0.11501107324E+04 -0.18019943618E+03 -0.15127294054E+04  0.19149330120E+04  0.15294330000E+03 0.  0.
<mgrwt>
<rscale>  0 0.11741457E+04</rscale>
<asrwt>0</asrwt>
<pdfrwt beam="1">  1        1 0.32549806E+00 0.11741457E+04</pdfrwt>
<pdfrwt beam="2">  1       -1 0.16286947E+00 0.11741457E+04</pdfrwt>
<totfact> 0.68200939E-01</totfact>
</mgrwt>
</event>
<event>
 4    1  0.2293715E-008  0.4199041E+03  0.7818608E-02  0.1037098E+00
         -1   -1    0    0    0  501 -0.00000000000E+00  0.00000000000E+00  0.22602625112E+03  0.22602625118E+03  0.50400000000E-02 0.  1.
          1   -1    0    0  501    0  0.00000000000E+00 -0.00000000000E+00 -0.86645418588E+03  0.86645418590E+03  0.50400000000E-02 0. -1.
    8880022    1    1    2    0    0  0.67095912788E+02  0.38526091361E+03 -0.14775231943E+03  0.44514069009E+03  0.15294330000E+03 0.  0.
    8880022    1    1    2    0    0 -0.67095912788E+02 -0.38526091361E+03 -0.49267561533E+03  0.64733974698E+03  0.15294330000E+03 0.  0.
<mgrwt>
<rscale>  0 0.41990414E+03</rscale>
<asrwt>0</asrwt>
<pdfrwt beam="1">  1        1 0.13330064E+00 0.41990414E+03</pdfrwt>
<pdfrwt beam="2">  1       -1 0.34773270E-01 0.41990414E+03</pdfrwt>
<totfact> 0.15910247E+02</totfact>
</mgrwt>
</event>
<event>
 4    1  0.2293715E-008  0.2993748E+03  0.7818608E-02  0.1085554E+00
          1   -1    0    0  501    0  0.00000000000E+00  0.00000000000E+00  0.71122397156E+03  0.71122397157E+03  0.50400000000E-02 0. -1.
         -1   -1    0    0    0  501 -0.00000000000E+00 -0.00000000000E+00 -0.34014533806E+03  0.34014533810E+03  0.50400000000E-02 0.  1.
    8880022    1    1    2    0    0  0.61611805955E+02  0.24987522829E+03 -0.23155239233E+03  0.37847299475E+03  0.15294330000E+03 0.  1.
    8880022    1    1    2    0    0 -0.61611805955E+02 -0.24987522829E+03  0.60263102582E+03  0.67289631493E+03  0.15294330000E+03 0.  0.
<mgrwt>
<rscale>  0 0.29937484E+03</rscale>
<asrwt>0</asrwt>
<pdfrwt beam="1">  1        1 0.10941907E+00 0.29937484E+03</pdfrwt>
<pdfrwt beam="2">  1       -1 0.52330053E-01 0.29937484E+03</pdfrwt>
<totfact> 0.10468928E+02</totfact>
</mgrwt>
</event>
<event>
 4    1  0.2293715E-008  0.3711324E+03  0.7818608E-02  0.1054261E+00
          1   -1    0    0  501    0  0.00000000000E+00  0.00000000000E+00  0.24040608013E+03  0.24040608019E+03  0.50400000000E-02 0. -1.
         -1   -1    0    0    0  501 -0.00000000000E+00 -0.00000000000E+00 -0.60390262168E+03  0.60390262170E+03  0.50400000000E-02 0.  1.
    8880022    1    1    2    0    0  0.87656886236E+02 -0.32659440476E+03 -0.86166147514E+02  0.38100379646E+03  0.15294330000E+03 0.  1.
    8880022    1    1    2    0    0 -0.87656886236E+02  0.32659440476E+03 -0.27733039403E+03  0.46330490543E+03  0.15294330000E+03 0.  0.
<mgrwt>
<rscale>  0 0.37113244E+03</rscale>
<asrwt>0</asrwt>
<pdfrwt beam="1">  1        1 0.36985551E-01 0.37113244E+03</pdfrwt>
<pdfrwt beam="2">  1       -1 0.92908095E-01 0.37113244E+03</pdfrwt>
<totfact> 0.13722095E+02</totfact>
</mgrwt>
</event>
<event>
 4    1  0.2293715E-008  0.2671370E+03  0.7818608E-02  0.1102929E+00
         -1   -1    0    0    0  501 -0.00000000000E+00  0.00000000000E+00  0.16935713985E+04  0.16935713985E+04  0.50400000000E-02 0.  1.
          1   -1    0    0  501    0  0.00000000000E+00 -0.00000000000E+00 -0.22115492549E+03  0.22115492555E+03  0.50400000000E-02 0. -1.
    8880022    1    1    2    0    0  0.19157170281E+03 -0.10616400534E+03 -0.12513561529E+03  0.29499337039E+03  0.15294330000E+03 0. -1.
    8880022    1    1    2    0    0 -0.19157170281E+03  0.10616400534E+03  0.15975520883E+04  0.16197329537E+04  0.15294330000E+03 0.  0.
<mgrwt>
<rscale>  0 0.26713698E+03</rscale>
<asrwt>0</asrwt>
<pdfrwt beam="1">  1        1 0.34023835E-01 0.26713698E+03</pdfrwt>
<pdfrwt beam="2">  1       -1 0.26054944E+00 0.26713698E+03</pdfrwt>
<totfact> 0.88848742E+00</totfact>
</mgrwt>
</event>
<event>
 4    1  0.2293715E-008  0.7229916E+03  0.7818608E-02  0.9678702E-01
         -1   -1    0    0    0  501 -0.00000000000E+00  0.00000000000E+00  0.10818961688E+04  0.10818961688E+04  0.50400000000E-02 0.  1.
          1   -1    0    0  501    0  0.00000000000E+00 -0.00000000000E+00 -0.10366020431E+04  0.10366020431E+04  0.50400000000E-02 0. -1.
    8880022    1    1    2    0    0  0.25030160483E+03 -0.66081338501E+03  0.79663203695E+03  0.10757971363E+04  0.15294330000E+03 0.  0.
    8880022    1    1    2    0    0 -0.25030160483E+03  0.66081338501E+03 -0.75133791127E+03  0.10427010756E+04  0.15294330000E+03 0. -1.
<mgrwt>
<rscale>  0 0.72299162E+03</rscale>
<asrwt>0</asrwt>
<pdfrwt beam="1">  1        1 0.15947724E+00 0.72299162E+03</pdfrwt>
<pdfrwt beam="2">  1       -1 0.16644557E+00 0.72299162E+03</pdfrwt>
<totfact> 0.38651723E+00</totfact>
</mgrwt>
</event>
<event>
 4    1  0.2293715E-008  0.6258668E+03  0.7818608E-02  0.9853148E-01
         -1   -1    0    0    0  501 -0.00000000000E+00  0.00000000000E+00  0.11330533495E+04  0.11330533495E+04  0.50400000000E-02 0.  1.
          1   -1    0    0  501    0  0.00000000000E+00 -0.00000000000E+00 -0.79609830853E+03  0.79609830854E+03  0.50400000000E-02 0. -1.
    8880022    1    1    2    0    0 -0.39523974751E+03 -0.46054662091E+03  0.89399181064E+03  0.10912976947E+04  0.15294330000E+03 0.  0.
    8880022    1    1    2    0    0  0.39523974751E+03  0.46054662091E+03 -0.55703676967E+03  0.83785396331E+03  0.15294330000E+03 0.  0.
<mgrwt>
<rscale>  0 0.62586684E+03</rscale>
<asrwt>0</asrwt>
<pdfrwt beam="1">  1        1 0.12247666E+00 0.62586684E+03</pdfrwt>
<pdfrwt beam="2">  1       -1 0.17431590E+00 0.62586684E+03</pdfrwt>
<totfact> 0.53875507E+00</totfact>
</mgrwt>
</event>
<event>
 4    1  0.2293715E-008  0.7443182E+03  0.7818608E-02  0.9644307E-01
          1   -1    0    0  501    0  0.00000000000E+00  0.00000000000E+00  0.20568791298E+04  0.20568791298E+04  0.50400000000E-02 0. -1.
         -1   -1    0    0    0  501 -0.00000000000E+00 -0.00000000000E+00 -0.39795434360E+03  0.39795434363E+03  0.50400000000E-02 0.  1.
    8880022    1    1    2    0    0 -0.60879597020E+03 -0.39998168163E+03  0.15272321642E+04  0.16989548597E+04  0.15294330000E+03 0.  0.
    8880022    1    1    2    0    0  0.60879597020E+03  0.39998168163E+03  0.13169262200E+03  0.75587861372E+03  0.15294330000E+03 0.  0.
<mgrwt>
<rscale>  0 0.74431817E+03</rscale>
<asrwt>0</asrwt>
<pdfrwt beam="1">  1        1 0.31644294E+00 0.74431817E+03</pdfrwt>
<pdfrwt beam="2">  1       -1 0.61223746E-01 0.74431817E+03</pdfrwt>
<totfact> 0.77410190E+00</totfact>
</mgrwt>
</event>
<event>
 4    1  0.2293715E-008  0.1104800E+04  0.7818608E-02  0.9200526E-01
          1   -1    0    0  501    0  0.00000000000E+00  0.00000000000E+00  0.20081551757E+04  0.20081551757E+04  0.50400000000E-02 0. -1.
         -1   -1    0    0    0  501 -0.00000000000E+00 -0.00000000000E+00 -0.10018295028E+04  0.10018295028E+04  0.50400000000E-02 0.  1.
    8880022    1    1    2    0    0 -0.53791440408E+03  0.95280581307E+03  0.14469948012E+04  0.18205428946E+04  0.15294330000E+03 0.  0.
    8880022    1    1    2    0    0  0.53791440408E+03 -0.95280581307E+03 -0.44066912825E+03  0.11894417838E+04  0.15294330000E+03 0.  0.
<mgrwt>
<rscale>  0 0.11047997E+04</rscale>
<asrwt>0</asrwt>
<pdfrwt beam="1">  1        1 0.30894695E+00 0.11047997E+04</pdfrwt>
<pdfrwt beam="2">  1       -1 0.15412762E+00 0.11047997E+04</pdfrwt>
<totfact> 0.94928391E-01</totfact>
</mgrwt>
</event>
<event>
 4    1  0.2293715E-008  0.3381442E+03  0.7818608E-02  0.1067589E+00
          1   -1    0    0  501    0  0.00000000000E+00  0.00000000000E+00  0.21722136557E+04  0.21722136558E+04  0.50400000000E-02 0. -1.
         -1   -1    0    0    0  501 -0.00000000000E+00 -0.00000000000E+00 -0.18602614977E+03  0.18602614984E+03  0.50400000000E-02 0.  1.
    8880022    1    1    2    0    0  0.30043348012E+03  0.26259210806E+02 -0.53629256510E+01  0.33818668826E+03  0.15294330000E+03 0.  0.
    8880022    1    1    2    0    0 -0.30043348012E+03 -0.26259210806E+02  0.19915504316E+04  0.20200531173E+04  0.15294330000E+03 0. -1.
<mgrwt>
<rscale>  0 0.33814416E+03</rscale>
<asrwt>0</asrwt>
<pdfrwt beam="1">  1        1 0.33418673E+00 0.33814416E+03</pdfrwt>
<pdfrwt beam="2">  1       -1 0.28619406E-01 0.33814416E+03</pdfrwt>
<totfact> 0.28502617E+01</totfact>
</mgrwt>
</event>
<event>
 4    1  0.2293715E-008  0.7312865E+03  0.7818608E-02  0.9665175E-01
          1   -1    0    0  501    0  0.00000000000E+00  0.00000000000E+00  0.71153426915E+03  0.71153426917E+03  0.50400000000E-02 0. -1.
         -1   -1    0    0    0  501 -0.00000000000E+00 -0.00000000000E+00 -0.77600862503E+03  0.77600862504E+03  0.50400000000E-02 0.  1.
    8880022    1    1    2    0    0 -0.63405477608E+03 -0.33070054436E+03  0.99707785043E+02  0.73805257572E+03  0.15294330000E+03 0.  0.
    8880022    1    1    2    0    0  0.63405477608E+03  0.33070054436E+03 -0.16418214092E+03  0.74949031850E+03  0.15294330000E+03 0.  0.
<mgrwt>
<rscale>  0 0.73128651E+03</rscale>
<asrwt>0</asrwt>
<pdfrwt beam="1">  1        1 0.10946681E+00 0.73128651E+03</pdfrwt>
<pdfrwt beam="2">  1       -1 0.11938594E+00 0.73128651E+03</pdfrwt>
<totfact> 0.17158679E+01</totfact>
</mgrwt>
</event>
<event>
 4    1  0.2293715E-008  0.7762929E+03  0.7818608E-02  0.9594981E-01
         -1   -1    0    0    0  501 -0.00000000000E+00  0.00000000000E+00  0.93093489083E+03  0.93093489084E+03  0.50400000000E-02 0.  1.
          1   -1    0    0  501    0  0.00000000000E+00 -0.00000000000E+00 -0.76772937683E+03  0.76772937685E+03  0.50400000000E-02 0. -1.
    8880022    1    1    2    0    0  0.40954057710E+03  0.64149477850E+03  0.41793532518E+03  0.88164654153E+03  0.15294330000E+03 0.  0.
    8880022    1    1    2    0    0 -0.40954057710E+03 -0.64149477850E+03 -0.25472981119E+03  0.81701772616E+03  0.15294330000E+03 0.  0.
<mgrwt>
<rscale>  0 0.77629291E+03</rscale>
<asrwt>0</asrwt>
<pdfrwt beam="1">  1        1 0.11811221E+00 0.77629291E+03</pdfrwt>
<pdfrwt beam="2">  1       -1 0.14322075E+00 0.77629291E+03</pdfrwt>
<totfact> 0.95795105E+00</totfact>
</mgrwt>
</event>
<event>
 4    1  0.2293715E-008  0.1093155E+04  0.7818608E-02  0.9211889E-01
          1   -1    0    0  501    0  0.00000000000E+00  0.00000000000E+00  0.19367963386E+04  0.19367963386E+04  0.50400000000E-02 0. -1.
         -1   -1    0    0    0  501 -0.00000000000E+00 -0.00000000000E+00 -0.84573294448E+03  0.84573294449E+03  0.50400000000E-02 0.  1.
    8880022    1    1    2    0    0 -0.94375844935E+03 -0.53001475247E+03 -0.17801296822E+03  0.11075540251E+04  0.15294330000E+03 0.  0.
    8880022    1    1    2    0    0  0.94375844935E+03  0.53001475247E+03  0.12690763624E+04  0.16749752581E+04  0.15294330000E+03 0.  0.
<mgrwt>
<rscale>  0 0.10931547E+04</rscale>
<asrwt>0</asrwt>
<pdfrwt beam="1">  1        1 0.29796867E+00 0.10931547E+04</pdfrwt>
<pdfrwt beam="2">  1       -1 0.13011276E+00 0.10931547E+04</pdfrwt>
<totfact> 0.16595921E+00</totfact>
</mgrwt>
</event>
<event>
 4    1  0.2293715E-008  0.6990893E+03  0.7818608E-02  0.9718791E-01
          1   -1    0    0  501    0  0.00000000000E+00  0.00000000000E+00  0.57035176756E+03  0.57035176759E+03  0.50400000000E-02 0. -1.
         -1   -1    0    0    0  501 -0.00000000000E+00 -0.00000000000E+00 -0.17396474791E+04  0.17396474791E+04  0.50400000000E-02 0.  1.
    8880022    1    1    2    0    0 -0.33602065494E+03  0.59365335496E+03 -0.14074078462E+04  0.15714715031E+04  0.15294330000E+03 0.  0.
    8880022    1    1    2    0    0  0.33602065494E+03 -0.59365335496E+03  0.23811213466E+03  0.73852774362E+03  0.15294330000E+03 0.  0.
<mgrwt>
<rscale>  0 0.69908929E+03</rscale>
<asrwt>0</asrwt>
<pdfrwt beam="1">  1        1 0.87746427E-01 0.69908929E+03</pdfrwt>
<pdfrwt beam="2">  1       -1 0.26763807E+00 0.69908929E+03</pdfrwt>
<totfact> 0.20840254E+00</totfact>
</mgrwt>
</event>
<event>
 4    1  0.2293715E-008  0.9069806E+03  0.7818608E-02  0.9416897E-01
         -1   -1    0    0    0  501 -0.00000000000E+00  0.00000000000E+00  0.89145619275E+03  0.89145619276E+03  0.50400000000E-02 0.  1.
          1   -1    0    0  501    0  0.00000000000E+00 -0.00000000000E+00 -0.16094649818E+04  0.16094649818E+04  0.50400000000E-02 0. -1.
    8880022    1    1    2    0    0 -0.76458056266E+03 -0.46329113191E+03 -0.11757926800E+04  0.14849586490E+04  0.15294330000E+03 0.  0.
    8880022    1    1    2    0    0  0.76458056266E+03  0.46329113191E+03  0.45778389093E+03  0.10159625256E+04  0.15294330000E+03 0.  0.
<mgrwt>
<rscale>  0 0.90698057E+03</rscale>
<asrwt>0</asrwt>
<pdfrwt beam="1">  1        1 0.24761000E+00 0.90698057E+03</pdfrwt>
<pdfrwt beam="2">  1       -1 0.13714711E+00 0.90698057E+03</pdfrwt>
<totfact> 0.24798295E+00</totfact>
</mgrwt>
</event>
<event>
 4    1  0.2293715E-008  0.6722272E+03  0.7818608E-02  0.9765943E-01
         -1   -1    0    0    0  501 -0.00000000000E+00  0.00000000000E+00  0.43317575097E+03  0.43317575100E+03  0.50400000000E-02 0.  1.
          1   -1    0    0  501    0  0.00000000000E+00 -0.00000000000E+00 -0.12145738116E+04  0.12145738116E+04  0.50400000000E-02 0. -1.
    8880022    1    1    2    0    0  0.11008766131E+03  0.64527392352E+03 -0.81227860485E+02  0.67711693812E+03  0.15294330000E+03 0.  1.
    8880022    1    1    2    0    0 -0.11008766131E+03 -0.64527392352E+03 -0.70017020013E+03  0.97063262448E+03  0.15294330000E+03 0. -1.
<mgrwt>
<rscale>  0 0.67222718E+03</rscale>
<asrwt>0</asrwt>
<pdfrwt beam="1">  1        1 0.18685751E+00 0.67222718E+03</pdfrwt>
<pdfrwt beam="2">  1       -1 0.66642424E-01 0.67222718E+03</pdfrwt>
<totfact> 0.24750167E+01</totfact>
</mgrwt>
</event>
<event>
 4    1  0.2293715E-008  0.2808714E+03  0.7818608E-02  0.1095214E+00
         -1   -1    0    0    0  501 -0.00000000000E+00  0.00000000000E+00  0.18034884004E+03  0.18034884011E+03  0.50400000000E-02 0.  1.
          1   -1    0    0  501    0  0.00000000000E+00 -0.00000000000E+00 -0.60189317935E+03  0.60189317937E+03  0.50400000000E-02 0. -1.
    8880022    1    1    2    0    0  0.31647144020E+01 -0.23555689111E+03 -0.41522593578E+03  0.50129960615E+03  0.15294330000E+03 0.  0.
    8880022    1    1    2    0    0 -0.31647144020E+01  0.23555689111E+03 -0.63184035258E+01  0.28094241332E+03  0.15294330000E+03 0.  0.
<mgrwt>
<rscale>  0 0.28087135E+03</rscale>
<asrwt>0</asrwt>
<pdfrwt beam="1">  1        1 0.92598950E-01 0.28087135E+03</pdfrwt>
<pdfrwt beam="2">  1       -1 0.27745976E-01 0.28087135E+03</pdfrwt>
<totfact> 0.41127376E+02</totfact>
</mgrwt>
</event>
<event>
 4    1  0.2293715E-008  0.3955717E+03  0.7818608E-02  0.1045324E+00
         -1   -1    0    0    0  501 -0.00000000000E+00  0.00000000000E+00  0.33606426886E+03  0.33606426890E+03  0.50400000000E-02 0.  1.
          1   -1    0    0  501    0  0.00000000000E+00 -0.00000000000E+00 -0.13093600723E+04  0.13093600723E+04  0.50400000000E-02 0. -1.
    8880022    1    1    2    0    0  0.36441725623E+03  0.16893279000E+02  0.17377737616E+03  0.43205965907E+03  0.15294330000E+03 0.  0.
    8880022    1    1    2    0    0 -0.36441725623E+03 -0.16893279000E+02 -0.11470731796E+04  0.12133646821E+04  0.15294330000E+03 0.  0.
<mgrwt>
<rscale>  0 0.39557170E+03</rscale>
<asrwt>0</asrwt>
<pdfrwt beam="1">  1        1 0.20144001E+00 0.39557170E+03</pdfrwt>
<pdfrwt beam="2">  1       -1 0.51702196E-01 0.39557170E+03</pdfrwt>
<totfact> 0.36476119E+01</totfact>
</mgrwt>
</event>
<event>
 4    1  0.2293715E-008  0.4457012E+03  0.7818608E-02  0.1029012E+00
          1   -1    0    0  501    0  0.00000000000E+00  0.00000000000E+00  0.17434268328E+04  0.17434268328E+04  0.50400000000E-02 0. -1.
         -1   -1    0    0    0  501 -0.00000000000E+00 -0.00000000000E+00 -0.24241044654E+03  0.24241044659E+03  0.50400000000E-02 0.  1.
    8880022    1    1    2    0    0 -0.14331968000E+03  0.39334126148E+03  0.27678070976E+02  0.44655974660E+03  0.15294330000E+03 0.  0.
    8880022    1    1    2    0    0  0.14331968000E+03 -0.39334126148E+03  0.14733383152E+04  0.15392775327E+04  0.15294330000E+03 0.  0.
<mgrwt>
<rscale>  0 0.44570117E+03</rscale>
<asrwt>0</asrwt>
<pdfrwt beam="1">  1        1 0.26821951E+00 0.44570117E+03</pdfrwt>
<pdfrwt beam="2">  1       -1 0.37293915E-01 0.44570117E+03</pdfrwt>
<totfact> 0.33460938E+01</totfact>
</mgrwt>
</event>
<event>
 4    1  0.2293715E-008  0.3476855E+03  0.7818608E-02  0.1063569E+00
         -1   -1    0    0    0  501 -0.00000000000E+00  0.00000000000E+00  0.33374545262E+03  0.33374545266E+03  0.50400000000E-02 0.  1.
          1   -1    0    0  501    0  0.00000000000E+00 -0.00000000000E+00 -0.79091049044E+03  0.79091049046E+03  0.50400000000E-02 0. -1.
    8880022    1    1    2    0    0 -0.31096838471E+03  0.28146080626E+02 -0.64258614623E+03  0.73061764726E+03  0.15294330000E+03 0.  0.
    8880022    1    1    2    0    0  0.31096838471E+03 -0.28146080626E+02  0.18542110841E+03  0.39403829586E+03  0.15294330000E+03 0.  0.
<mgrwt>
<rscale>  0 0.34768548E+03</rscale>
<asrwt>0</asrwt>
<pdfrwt beam="1">  1        1 0.12167854E+00 0.34768548E+03</pdfrwt>
<pdfrwt beam="2">  1       -1 0.51345455E-01 0.34768548E+03</pdfrwt>
<totfact> 0.91614766E+01</totfact>
</mgrwt>
</event>
<event>
 4    1  0.2293715E-008  0.2301552E+03  0.7818608E-02  0.1126531E+00
          1   -1    0    0  501    0  0.00000000000E+00  0.00000000000E+00  0.27836106221E+04  0.27836106221E+04  0.50400000000E-02 0. -1.
         -1   -1    0    0    0  501 -0.00000000000E+00 -0.00000000000E+00 -0.62265601040E+03  0.62265601042E+03  0.50400000000E-02 0.  1.
    8880022    1    1    2    0    0  0.16915094723E+03  0.31108309906E+02 -0.59642828921E+03  0.63929502350E+03  0.15294330000E+03 0.  0.
    8880022    1    1    2    0    0 -0.16915094723E+03 -0.31108309906E+02  0.27573829009E+04  0.27669716090E+04  0.15294330000E+03 0. -1.
<mgrwt>
<rscale>  0 0.23015521E+03</rscale>
<asrwt>0</asrwt>
<pdfrwt beam="1">  1        1 0.42824778E+00 0.23015521E+03</pdfrwt>
<pdfrwt beam="2">  1       -1 0.95793235E-01 0.23015521E+03</pdfrwt>
<totfact> 0.11899081E+00</totfact>
</mgrwt>
</event>
<event>
 4    1  0.2293715E-008  0.6853856E+03  0.7818608E-02  0.9742556E-01
          1   -1    0    0  501    0  0.00000000000E+00  0.00000000000E+00  0.66524396993E+03  0.66524396995E+03  0.50400000000E-02 0. -1.
         -1   -1    0    0    0  501 -0.00000000000E+00 -0.00000000000E+00 -0.85423485248E+03  0.85423485249E+03  0.50400000000E-02 0.  1.
    8880022    1    1    2    0    0  0.83443535429E+02  0.66287175472E+03 -0.41083263960E+03  0.79908503777E+03  0.15294330000E+03 0.  0.
    8880022    1    1    2    0    0 -0.83443535429E+02 -0.66287175472E+03  0.22184175705E+03  0.72039378467E+03  0.15294330000E+03 0.  0.
<mgrwt>
<rscale>  0 0.68538561E+03</rscale>
<asrwt>0</asrwt>
<pdfrwt beam="1">  1        1 0.10234523E+00 0.68538561E+03</pdfrwt>
<pdfrwt beam="2">  1       -1 0.13142075E+00 0.68538561E+03</pdfrwt>
<totfact> 0.15046613E+01</totfact>
</mgrwt>
</event>
<event>
 4    1  0.2293715E-008  0.8740250E+03  0.7818608E-02  0.9458647E-01
         -1   -1    0    0    0  501 -0.00000000000E+00  0.00000000000E+00  0.12583115913E+04  0.12583115913E+04  0.50400000000E-02 0.  1.
          1   -1    0    0  501    0  0.00000000000E+00 -0.00000000000E+00 -0.69743186606E+03  0.69743186608E+03  0.50400000000E-02 0. -1.
    8880022    1    1    2    0    0  0.72938409847E+03  0.45664752241E+03  0.63236781594E+03  0.10787997175E+04  0.15294330000E+03 0.  0.
    8880022    1    1    2    0    0 -0.72938409847E+03 -0.45664752241E+03 -0.71488090692E+02  0.87694373990E+03  0.15294330000E+03 0.  0.
<mgrwt>
<rscale>  0 0.87402504E+03</rscale>
<asrwt>0</asrwt>
<pdfrwt beam="1">  1        1 0.10729721E+00 0.87402504E+03</pdfrwt>
<pdfrwt beam="2">  1       -1 0.19358640E+00 0.87402504E+03</pdfrwt>
<totfact> 0.46548344E+00</totfact>
</mgrwt>
</event>
<event>
 4    1  0.2293715E-008  0.5595844E+03  0.7818608E-02  0.9992995E-01
          1   -1    0    0  501    0  0.00000000000E+00  0.00000000000E+00  0.88797439668E+03  0.88797439669E+03  0.50400000000E-02 0. -1.
         -1   -1    0    0    0  501 -0.00000000000E+00 -0.00000000000E+00 -0.70205156140E+03  0.70205156142E+03  0.50400000000E-02 0.  1.
    8880022    1    1    2    0    0  0.26305683693E+02 -0.53763472696E+03 -0.46790409227E+03  0.72943058697E+03  0.15294330000E+03 0.  0.
    8880022    1    1    2    0    0 -0.26305683693E+02  0.53763472696E+03  0.65382692755E+03  0.86059537114E+03  0.15294330000E+03 0. -1.
<mgrwt>
<rscale>  0 0.55958444E+03</rscale>
<asrwt>0</asrwt>
<pdfrwt beam="1">  1        1 0.13661145E+00 0.55958444E+03</pdfrwt>
<pdfrwt beam="2">  1       -1 0.10800793E+00 0.55958444E+03</pdfrwt>
<totfact> 0.15698961E+01</totfact>
</mgrwt>
</event>
<event>
 4    1  0.2293715E-008  0.4291504E+03  0.7818608E-02  0.1034129E+00
         -1   -1    0    0    0  501 -0.00000000000E+00  0.00000000000E+00  0.41084611134E+03  0.41084611137E+03  0.50400000000E-02 0.  1.
          1   -1    0    0  501    0  0.00000000000E+00 -0.00000000000E+00 -0.75350004125E+03  0.75350004127E+03  0.50400000000E-02 0. -1.
    8880022    1    1    2    0    0 -0.38625869994E+03  0.10762252571E+03 -0.54185750880E+03  0.69121603293E+03  0.15294330000E+03 0.  0.
    8880022    1    1    2    0    0  0.38625869994E+03 -0.10762252571E+03  0.19920357889E+03  0.47313011971E+03  0.15294330000E+03 0.  0.
<mgrwt>
<rscale>  0 0.42915037E+03</rscale>
<asrwt>0</asrwt>
<pdfrwt beam="1">  1        1 0.11592308E+00 0.42915037E+03</pdfrwt>
<pdfrwt beam="2">  1       -1 0.63207094E-01 0.42915037E+03</pdfrwt>
<totfact> 0.65345559E+01</totfact>
</mgrwt>
</event>
<event>
 4    1  0.2293715E-008  0.8132348E+03  0.7818608E-02  0.9541055E-01
          1   -1    0    0  501    0  0.00000000000E+00  0.00000000000E+00  0.76284602645E+03  0.76284602647E+03  0.50400000000E-02 0. -1.
         -1   -1    0    0    0  501 -0.00000000000E+00 -0.00000000000E+00 -0.13171258283E+04  0.13171258284E+04  0.50400000000E-02 0.  1.
    8880022    1    1    2    0    0  0.77941226263E+02  0.79491156982E+03 -0.88514041852E+03  0.12020085075E+04  0.15294330000E+03 0.  0.
    8880022    1    1    2    0    0 -0.77941226263E+02 -0.79491156982E+03  0.33086061663E+03  0.87796334732E+03  0.15294330000E+03 0.  0.
<mgrwt>
<rscale>  0 0.81323483E+03</rscale>
<asrwt>0</asrwt>
<pdfrwt beam="1">  1        1 0.11736093E+00 0.81323483E+03</pdfrwt>
<pdfrwt beam="2">  1       -1 0.20263474E+00 0.81323483E+03</pdfrwt>
<totfact> 0.35420392E+00</totfact>
</mgrwt>
</event>
<event>
 4    1  0.2293715E-008  0.4300683E+03  0.7818608E-02  0.1033838E+00
         -1   -1    0    0    0  501 -0.00000000000E+00  0.00000000000E+00  0.75240092028E+03  0.75240092030E+03  0.50400000000E-02 0.  1.
          1   -1    0    0  501    0  0.00000000000E+00 -0.00000000000E+00 -0.18239622481E+04  0.18239622481E+04  0.50400000000E-02 0. -1.
    8880022    1    1    2    0    0  0.39087526171E+03 -0.93720934237E+02  0.66245319923E+03  0.78981198897E+03  0.15294330000E+03 0.  0.
    8880022    1    1    2    0    0 -0.39087526171E+03  0.93720934237E+02 -0.17340145271E+04  0.17865511794E+04  0.15294330000E+03 0.  0.
<mgrwt>
<rscale>  0 0.43006829E+03</rscale>
<asrwt>0</asrwt>
<pdfrwt beam="1">  1        1 0.28060958E+00 0.43006829E+03</pdfrwt>
<pdfrwt beam="2">  1       -1 0.11575399E+00 0.43006829E+03</pdfrwt>
<totfact> 0.30138026E+00</totfact>
</mgrwt>
</event>
<event>
 4    1  0.2293715E-008  0.3892359E+03  0.7818608E-02  0.1047572E+00
          1   -1    0    0  501    0  0.00000000000E+00  0.00000000000E+00  0.22228086114E+04  0.22228086114E+04  0.50400000000E-02 0. -1.
         -1   -1    0    0    0  501 -0.00000000000E+00 -0.00000000000E+00 -0.70112457002E+03  0.70112457004E+03  0.50400000000E-02 0.  1.
    8880022    1    1    2    0    0 -0.33724498177E+02 -0.35633632448E+03 -0.62824634514E+03  0.73905212341E+03  0.15294330000E+03 0.  0.
    8880022    1    1    2    0    0  0.33724498177E+02  0.35633632448E+03  0.21499303865E+04  0.21848810580E+04  0.15294330000E+03 0.  0.
<mgrwt>
<rscale>  0 0.38923588E+03</rscale>
<asrwt>0</asrwt>
<pdfrwt beam="1">  1        1 0.34197055E+00 0.38923588E+03</pdfrwt>
<pdfrwt beam="2">  1       -1 0.10786532E+00 0.38923588E+03</pdfrwt>
<totfact> 0.19717664E+00</totfact>
</mgrwt>
</event>
<event>
 4    1  0.2293715E-008  0.2185964E+03  0.7818608E-02  0.1134934E+00
         -1   -1    0    0    0  501 -0.00000000000E+00  0.00000000000E+00  0.52639265929E+02  0.52639266170E+02  0.50400000000E-02 0.  1.
          1   -1    0    0  501    0  0.00000000000E+00 -0.00000000000E+00 -0.17037261007E+04  0.17037261007E+04  0.50400000000E-02 0. -1.
    8880022    1    1    2    0    0  0.50793138963E+02 -0.14769155994E+03 -0.22529738416E+03  0.31391607823E+03  0.15294330000E+03 0.  0.
    8880022    1    1    2    0    0 -0.50793138963E+02  0.14769155994E+03 -0.14257894506E+04  0.14424492886E+04  0.15294330000E+03 0.  0.
<mgrwt>
<rscale>  0 0.21859642E+03</rscale>
<asrwt>0</asrwt>
<pdfrwt beam="1">  1        1 0.26211167E+00 0.21859642E+03</pdfrwt>
<pdfrwt beam="2">  1       -1 0.80983499E-02 0.21859642E+03</pdfrwt>
<totfact> 0.44855546E+02</totfact>
</mgrwt>
</event>
<event>
 4    1  0.2293715E-008  0.7276445E+03  0.7818608E-02  0.9671090E-01
          1   -1    0    0  501    0  0.00000000000E+00  0.00000000000E+00  0.54981173834E+03  0.54981173836E+03  0.50400000000E-02 0. -1.
         -1   -1    0    0    0  501 -0.00000000000E+00 -0.00000000000E+00 -0.20694474385E+04  0.20694474385E+04  0.50400000000E-02 0.  1.
    8880022    1    1    2    0    0 -0.62198458339E+03 -0.34526807511E+03  0.19778945912E+03  0.75404720596E+03  0.15294330000E+03 0.  0.
    8880022    1    1    2    0    0  0.62198458339E+03  0.34526807511E+03 -0.17174251593E+04  0.18652119709E+04  0.15294330000E+03 0.  0.
<mgrwt>
<rscale>  0 0.72764450E+03</rscale>
<asrwt>0</asrwt>
<pdfrwt beam="1">  1        1 0.84586422E-01 0.72764450E+03</pdfrwt>
<pdfrwt beam="2">  1       -1 0.31837652E+00 0.72764450E+03</pdfrwt>
<totfact> 0.10345154E+00</totfact>
</mgrwt>
</event>
<event>
 4    1  0.2293715E-008  0.1203661E+04  0.7818608E-02  0.9109658E-01
         -1   -1    0    0    0  501 -0.00000000000E+00  0.00000000000E+00  0.53817716796E+03  0.53817716799E+03  0.50400000000E-02 0.  1.
          1   -1    0    0  501    0  0.00000000000E+00 -0.00000000000E+00 -0.29074648052E+04  0.29074648052E+04  0.50400000000E-02 0. -1.
    8880022    1    1    2    0    0 -0.25204680335E+03  0.11669967810E+04 -0.16535857146E+04  0.20452741740E+04  0.15294330000E+03 0.  0.
    8880022    1    1    2    0    0  0.25204680335E+03 -0.11669967810E+04 -0.71570192258E+03  0.14003677992E+04  0.15294330000E+03 0.  0.
<mgrwt>
<rscale>  0 0.12036614E+04</rscale>
<asrwt>0</asrwt>
<pdfrwt beam="1">  1        1 0.44730227E+00 0.12036614E+04</pdfrwt>
<pdfrwt beam="2">  1       -1 0.82796489E-01 0.12036614E+04</pdfrwt>
<totfact> 0.10070671E+00</totfact>
</mgrwt>
</event>
<event>
 4    1  0.2293715E-008  0.3070524E+03  0.7818608E-02  0.1081767E+00
         -1   -1    0    0    0  501 -0.00000000000E+00  0.00000000000E+00  0.25126177581E+03  0.25126177586E+03  0.50400000000E-02 0.  1.
          1   -1    0    0  501    0  0.00000000000E+00 -0.00000000000E+00 -0.16454449567E+04  0.16454449567E+04  0.50400000000E-02 0. -1.
    8880022    1    1    2    0    0  0.85685386001E+01 -0.26611292345E+03  0.13614240862E+03  0.33588080672E+03  0.15294330000E+03 0.  0.
    8880022    1    1    2    0    0 -0.85685386001E+01  0.26611292345E+03 -0.15303255895E+04  0.15608259258E+04  0.15294330000E+03 0.  0.
<mgrwt>
<rscale>  0 0.30705237E+03</rscale>
<asrwt>0</asrwt>
<pdfrwt beam="1">  1        1 0.25314537E+00 0.30705237E+03</pdfrwt>
<pdfrwt beam="2">  1       -1 0.38655659E-01 0.30705237E+03</pdfrwt>
<totfact> 0.37739040E+01</totfact>
</mgrwt>
</event>
<event>
 4    1  0.2293715E-008  0.6715586E+03  0.7818608E-02  0.9767146E-01
         -1   -1    0    0    0  501 -0.00000000000E+00  0.00000000000E+00  0.43677144788E+03  0.43677144791E+03  0.50400000000E-02 0.  1.
          1   -1    0    0  501    0  0.00000000000E+00 -0.00000000000E+00 -0.13115018317E+04  0.13115018317E+04  0.50400000000E-02 0. -1.
    8880022    1    1    2    0    0  0.30448591565E+03  0.57869480980E+03 -0.34226243255E+02  0.67243025249E+03  0.15294330000E+03 0.  0.
    8880022    1    1    2    0    0 -0.30448591565E+03 -0.57869480980E+03 -0.84050414058E+03  0.10758430271E+04  0.15294330000E+03 0.  0.
<mgrwt>
<rscale>  0 0.67155864E+03</rscale>
<asrwt>0</asrwt>
<pdfrwt beam="1">  1        1 0.20176951E+00 0.67155864E+03</pdfrwt>
<pdfrwt beam="2">  1       -1 0.67195608E-01 0.67155864E+03</pdfrwt>
<totfact> 0.20771928E+01</totfact>
</mgrwt>
</event>
<event>
 4    1  0.2293715E-008  0.6183044E+03  0.7818608E-02  0.9868141E-01
          1   -1    0    0  501    0  0.00000000000E+00  0.00000000000E+00  0.11641266795E+04  0.11641266795E+04  0.50400000000E-02 0. -1.
         -1   -1    0    0    0  501 -0.00000000000E+00 -0.00000000000E+00 -0.45529881918E+03  0.45529881921E+03  0.50400000000E-02 0.  1.
    8880022    1    1    2    0    0  0.35107233137E+03  0.48544505635E+03 -0.73060198859E+02  0.62260591891E+03  0.15294330000E+03 0.  0.
    8880022    1    1    2    0    0 -0.35107233137E+03 -0.48544505635E+03  0.78188805920E+03  0.99681957983E+03  0.15294330000E+03 0. -1.
<mgrwt>
<rscale>  0 0.61830441E+03</rscale>
<asrwt>0</asrwt>
<pdfrwt beam="1">  1        1 0.17909641E+00 0.61830441E+03</pdfrwt>
<pdfrwt beam="2">  1       -1 0.70045973E-01 0.61830441E+03</pdfrwt>
<totfact> 0.24517461E+01</totfact>
</mgrwt>
</event>
<event>
 4    1  0.2293715E-008  0.7812040E+03  0.7818608E-02  0.9587629E-01
          1   -1    0    0  501    0  0.00000000000E+00  0.00000000000E+00  0.13790781083E+04  0.13790781083E+04  0.50400000000E-02 0. -1.
         -1   -1    0    0    0  501 -0.00000000000E+00 -0.00000000000E+00 -0.89365334612E+03  0.89365334613E+03  0.50400000000E-02 0.  1.
    8880022    1    1    2    0    0 -0.10362026630E+03 -0.75904605678E+03 -0.56467606284E+03  0.96391845343E+03  0.15294330000E+03 0.  0.
    8880022    1    1    2    0    0  0.10362026630E+03  0.75904605678E+03  0.10501008251E+04  0.13088130010E+04  0.15294330000E+03 0.  0.
<mgrwt>
<rscale>  0 0.78120403E+03</rscale>
<asrwt>0</asrwt>
<pdfrwt beam="1">  1        1 0.21216586E+00 0.78120403E+03</pdfrwt>
<pdfrwt beam="2">  1       -1 0.13748513E+00 0.78120403E+03</pdfrwt>
<totfact> 0.36207561E+00</totfact>
</mgrwt>
</event>
<event>
 4    1  0.2293715E-008  0.8267442E+03  0.7818608E-02  0.9522093E-01
         -1   -1    0    0    0  501 -0.00000000000E+00  0.00000000000E+00  0.10784203211E+04  0.10784203212E+04  0.50400000000E-02 0.  1.
          1   -1    0    0  501    0  0.00000000000E+00 -0.00000000000E+00 -0.77877306837E+03  0.77877306838E+03  0.50400000000E-02 0. -1.
    8880022    1    1    2    0    0 -0.43945929308E+02  0.81128485683E+03  0.55046967927E+03  0.99323858385E+03  0.15294330000E+03 0.  0.
    8880022    1    1    2    0    0  0.43945929308E+02 -0.81128485683E+03 -0.25082242650E+03  0.86395480569E+03  0.15294330000E+03 0.  0.
<mgrwt>
<rscale>  0 0.82674423E+03</rscale>
<asrwt>0</asrwt>
<pdfrwt beam="1">  1        1 0.11981124E+00 0.82674423E+03</pdfrwt>
<pdfrwt beam="2">  1       -1 0.16591082E+00 0.82674423E+03</pdfrwt>
<totfact> 0.62311998E+00</totfact>
</mgrwt>
</event>
<event>
 4    1  0.2293715E-008  0.9042003E+03  0.7818608E-02  0.9420346E-01
          1   -1    0    0  501    0  0.00000000000E+00  0.00000000000E+00  0.20387696611E+04  0.20387696611E+04  0.50400000000E-02 0. -1.
         -1   -1    0    0    0  501 -0.00000000000E+00 -0.00000000000E+00 -0.52644800551E+03  0.52644800553E+03  0.50400000000E-02 0.  1.
    8880022    1    1    2    0    0 -0.67331237476E+03 -0.58381247106E+03  0.13822288987E+04  0.16517066740E+04  0.15294330000E+03 0. -1.
    8880022    1    1    2    0    0  0.67331237476E+03  0.58381247106E+03  0.13009275691E+03  0.91351099270E+03  0.15294330000E+03 0.  0.
<mgrwt>
<rscale>  0 0.90420031E+03</rscale>
<asrwt>0</asrwt>
<pdfrwt beam="1">  1        1 0.31365687E+00 0.90420031E+03</pdfrwt>
<pdfrwt beam="2">  1       -1 0.80992001E-01 0.90420031E+03</pdfrwt>
<totfact> 0.43694173E+00</totfact>
</mgrwt>
</event>
<event>
 4    1  0.2293715E-008  0.8881229E+03  0.7818608E-02  0.9440551E-01
         -1   -1    0    0    0  501 -0.00000000000E+00  0.00000000000E+00  0.41557046515E+03  0.41557046518E+03  0.50400000000E-02 0.  1.
          1   -1    0    0  501    0  0.00000000000E+00 -0.00000000000E+00 -0.19765037426E+04  0.19765037426E+04  0.50400000000E-02 0. -1.
    8880022    1    1    2    0    0 -0.58364151147E+03 -0.65171564494E+03 -0.54213754257E+03  0.10405169215E+04  0.15294330000E+03 0.  0.
    8880022    1    1    2    0    0  0.58364151147E+03  0.65171564494E+03 -0.10187957349E+04  0.13515572863E+04  0.15294330000E+03 0.  0.
<mgrwt>
<rscale>  0 0.88812294E+03</rscale>
<asrwt>0</asrwt>
<pdfrwt beam="1">  1        1 0.30407749E+00 0.88812294E+03</pdfrwt>
<pdfrwt beam="2">  1       -1 0.63933919E-01 0.88812294E+03</pdfrwt>
<totfact> 0.78661964E+00</totfact>
</mgrwt>
</event>
<event>
 4    1  0.2293715E-008  0.9491623E+03  0.7818608E-02  0.9366130E-01
          1   -1    0    0  501    0  0.00000000000E+00  0.00000000000E+00  0.12992677381E+04  0.12992677381E+04  0.50400000000E-02 0. -1.
         -1   -1    0    0    0  501 -0.00000000000E+00 -0.00000000000E+00 -0.85494172645E+03  0.85494172647E+03  0.50400000000E-02 0.  1.
    8880022    1    1    2    0    0  0.87080479758E+03 -0.34527722991E+03  0.69036729137E+03  0.11736762803E+04  0.15294330000E+03 0.  0.
    8880022    1    1    2    0    0 -0.87080479758E+03  0.34527722991E+03 -0.24604127976E+03  0.98053318421E+03  0.15294330000E+03 0.  0.
<mgrwt>
<rscale>  0 0.94916227E+03</rscale>
<asrwt>0</asrwt>
<pdfrwt beam="1">  1        1 0.19988734E+00 0.94916227E+03</pdfrwt>
<pdfrwt beam="2">  1       -1 0.13152950E+00 0.94916227E+03</pdfrwt>
<totfact> 0.45045657E+00</totfact>
</mgrwt>
</event>
<event>
 4    1  0.2293715E-008  0.4780982E+03  0.7818608E-02  0.1019659E+00
          1   -1    0    0  501    0  0.00000000000E+00  0.00000000000E+00  0.61699270482E+03  0.61699270484E+03  0.50400000000E-02 0. -1.
         -1   -1    0    0    0  501 -0.00000000000E+00 -0.00000000000E+00 -0.90705313887E+03  0.90705313888E+03  0.50400000000E-02 0.  1.
    8880022    1    1    2    0    0 -0.40542179418E+03 -0.20203803780E+03  0.44106720326E+03  0.65047531139E+03  0.15294330000E+03 0.  0.
    8880022    1    1    2    0    0  0.40542179418E+03  0.20203803780E+03 -0.73112763731E+03  0.87357053233E+03  0.15294330000E+03 0.  0.
<mgrwt>
<rscale>  0 0.47809816E+03</rscale>
<asrwt>0</asrwt>
<pdfrwt beam="1">  1        1 0.94921955E-01 0.47809816E+03</pdfrwt>
<pdfrwt beam="2">  1       -1 0.13954664E+00 0.47809816E+03</pdfrwt>
<totfact> 0.14884957E+01</totfact>
</mgrwt>
</event>
<event>
 4    1  0.2293715E-008  0.3526973E+03  0.7818608E-02  0.1061513E+00
         -1   -1    0    0    0  501 -0.00000000000E+00  0.00000000000E+00  0.77334675912E+03  0.77334675914E+03  0.50400000000E-02 0.  1.
          1   -1    0    0  501    0  0.00000000000E+00 -0.00000000000E+00 -0.67787453984E+03  0.67787453986E+03  0.50400000000E-02 0. -1.
    8880022    1    1    2    0    0 -0.93958618924E+02  0.30360420518E+03 -0.58596311185E+03  0.68392116281E+03  0.15294330000E+03 0. -1.
    8880022    1    1    2    0    0  0.93958618924E+02 -0.30360420518E+03  0.68143533113E+03  0.76730013619E+03  0.15294330000E+03 0.  0.
<mgrwt>
<rscale>  0 0.35269730E+03</rscale>
<asrwt>0</asrwt>
<pdfrwt beam="1">  1        1 0.10428839E+00 0.35269730E+03</pdfrwt>
<pdfrwt beam="2">  1       -1 0.11897642E+00 0.35269730E+03</pdfrwt>
<totfact> 0.19826160E+01</totfact>
</mgrwt>
</event>
<event>
 4    1  0.2293715E-008  0.7033284E+03  0.7818608E-02  0.9711557E-01
          1   -1    0    0  501    0  0.00000000000E+00  0.00000000000E+00  0.72228985322E+03  0.72228985324E+03  0.50400000000E-02 0. -1.
         -1   -1    0    0    0  501 -0.00000000000E+00 -0.00000000000E+00 -0.11424961418E+04  0.11424961418E+04  0.50400000000E-02 0.  1.
    8880022    1    1    2    0    0  0.86502762842E+02  0.68102605471E+03  0.38000217643E+03  0.79942011626E+03  0.15294330000E+03 0.  0.
    8880022    1    1    2    0    0 -0.86502762842E+02 -0.68102605471E+03 -0.80020846498E+03  0.10653658788E+04  0.15294330000E+03 0.  0.
<mgrwt>
<rscale>  0 0.70332842E+03</rscale>
<asrwt>0</asrwt>
<pdfrwt beam="1">  1        1 0.11112152E+00 0.70332842E+03</pdfrwt>
<pdfrwt beam="2">  1       -1 0.17576864E+00 0.70332842E+03</pdfrwt>
<totfact> 0.60392397E+00</totfact>
</mgrwt>
</event>
<event>
 4    1  0.2293715E-008  0.7672277E+03  0.7818608E-02  0.9608704E-01
          1   -1    0    0  501    0  0.00000000000E+00  0.00000000000E+00  0.87869586173E+03  0.87869586175E+03  0.50400000000E-02 0. -1.
         -1   -1    0    0    0  501 -0.00000000000E+00 -0.00000000000E+00 -0.11527636220E+04  0.11527636220E+04  0.50400000000E-02 0.  1.
    8880022    1    1    2    0    0 -0.18117247983E+03  0.72967337552E+03 -0.79441962595E+03  0.11044188053E+04  0.15294330000E+03 0.  0.
    8880022    1    1    2    0    0  0.18117247983E+03 -0.72967337552E+03  0.52035186568E+03  0.92704067846E+03  0.15294330000E+03 0. -1.
<mgrwt>
<rscale>  0 0.76722771E+03</rscale>
<asrwt>0</asrwt>
<pdfrwt beam="1">  1        1 0.13518398E+00 0.76722771E+03</pdfrwt>
<pdfrwt beam="2">  1       -1 0.17734825E+00 0.76722771E+03</pdfrwt>
<totfact> 0.42631849E+00</totfact>
</mgrwt>
</event>
<event>
 4    1  0.2293715E-008  0.4479666E+03  0.7818608E-02  0.1028330E+00
         -1   -1    0    0    0  501 -0.00000000000E+00  0.00000000000E+00  0.55932949699E+03  0.55932949701E+03  0.50400000000E-02 0.  1.
          1   -1    0    0  501    0  0.00000000000E+00 -0.00000000000E+00 -0.16134651553E+04  0.16134651553E+04  0.50400000000E-02 0. -1.
    8880022    1    1    2    0    0 -0.38737904934E+03  0.16498445315E+03  0.43095740627E+03  0.62160947281E+03  0.15294330000E+03 0.  0.
    8880022    1    1    2    0    0  0.38737904934E+03 -0.16498445315E+03 -0.14850930646E+04  0.15511851795E+04  0.15294330000E+03 0.  0.
<mgrwt>
<rscale>  0 0.44796657E+03</rscale>
<asrwt>0</asrwt>
<pdfrwt beam="1">  1        1 0.24822541E+00 0.44796657E+03</pdfrwt>
<pdfrwt beam="2">  1       -1 0.86050692E-01 0.44796657E+03</pdfrwt>
<totfact> 0.80696913E+00</totfact>
</mgrwt>
</event>
<event>
 4    1  0.2293715E-008  0.9624086E+03  0.7818608E-02  0.9350763E-01
          1   -1    0    0  501    0  0.00000000000E+00  0.00000000000E+00  0.25864613598E+04  0.25864613598E+04  0.50400000000E-02 0. -1.
         -1   -1    0    0    0  501 -0.00000000000E+00 -0.00000000000E+00 -0.10558989208E+04  0.10558989208E+04  0.50400000000E-02 0.  1.
    8880022    1    1    2    0    0 -0.76916880258E+03  0.55786921009E+03 -0.71520595190E+03  0.11990620956E+04  0.15294330000E+03 0.  0.
    8880022    1    1    2    0    0  0.76916880258E+03 -0.55786921009E+03  0.22457683909E+04  0.24432981850E+04  0.15294330000E+03 0.  0.
<mgrwt>
<rscale>  0 0.96240862E+03</rscale>
<asrwt>0</asrwt>
<pdfrwt beam="1">  1        1 0.39791712E+00 0.96240862E+03</pdfrwt>
<pdfrwt beam="2">  1       -1 0.16244599E+00 0.96240862E+03</pdfrwt>
<totfact> 0.33933090E-01</totfact>
</mgrwt>
</event>
<event>
 4    1  0.2293715E-008  0.4320303E+03  0.7818608E-02  0.1033221E+00
         -1   -1    0    0    0  501 -0.00000000000E+00  0.00000000000E+00  0.23555889345E+03  0.23555889351E+03  0.50400000000E-02 0.  1.
          1   -1    0    0  501    0  0.00000000000E+00 -0.00000000000E+00 -0.17137024274E+04  0.17137024274E+04  0.50400000000E-02 0. -1.
    8880022    1    1    2    0    0 -0.20867070643E+03 -0.34599870563E+03 -0.14536999198E+04  0.15165400350E+04  0.15294330000E+03 0.  0.
    8880022    1    1    2    0    0  0.20867070643E+03  0.34599870563E+03 -0.24443614216E+02  0.43272128594E+03  0.15294330000E+03 0.  1.
<mgrwt>
<rscale>  0 0.43203035E+03</rscale>
<asrwt>0</asrwt>
<pdfrwt beam="1">  1        1 0.26364652E+00 0.43203035E+03</pdfrwt>
<pdfrwt beam="2">  1       -1 0.36239831E-01 0.43203035E+03</pdfrwt>
<totfact> 0.36948342E+01</totfact>
</mgrwt>
</event>
<event>
 4    1  0.2293715E-008  0.6039399E+03  0.7818608E-02  0.9897266E-01
          1   -1    0    0  501    0  0.00000000000E+00  0.00000000000E+00  0.55253305761E+03  0.55253305763E+03  0.50400000000E-02 0. -1.
         -1   -1    0    0    0  501 -0.00000000000E+00 -0.00000000000E+00 -0.72529181939E+03  0.72529181940E+03  0.50400000000E-02 0.  1.
    8880022    1    1    2    0    0  0.57808753772E+03 -0.84655336845E+02  0.10512696292E+03  0.61302125466E+03  0.15294330000E+03 0.  0.
    8880022    1    1    2    0    0 -0.57808753772E+03  0.84655336845E+02 -0.27788572469E+03  0.66480362238E+03  0.15294330000E+03 0.  0.
<mgrwt>
<rscale>  0 0.60393988E+03</rscale>
<asrwt>0</asrwt>
<pdfrwt beam="1">  1        1 0.85005086E-01 0.60393988E+03</pdfrwt>
<pdfrwt beam="2">  1       -1 0.11158336E+00 0.60393988E+03</pdfrwt>
<totfact> 0.29594352E+01</totfact>
</mgrwt>
</event>
<event>
 4    1  0.2293715E-008  0.4215950E+03  0.7818608E-02  0.1036548E+00
          1   -1    0    0  501    0  0.00000000000E+00  0.00000000000E+00  0.26204570578E+04  0.26204570578E+04  0.50400000000E-02 0. -1.
         -1   -1    0    0    0  501 -0.00000000000E+00 -0.00000000000E+00 -0.51140093930E+03  0.51140093933E+03  0.50400000000E-02 0.  1.
    8880022    1    1    2    0    0 -0.19143345901E+03 -0.34308009699E+03  0.25129172997E+04  0.25480376234E+04  0.15294330000E+03 0.  0.
    8880022    1    1    2    0    0  0.19143345901E+03  0.34308009699E+03 -0.40386118115E+03  0.58382037378E+03  0.15294330000E+03 0.  1.
<mgrwt>
<rscale>  0 0.42159504E+03</rscale>
<asrwt>0</asrwt>
<pdfrwt beam="1">  1        1 0.40314724E+00 0.42159504E+03</pdfrwt>
<pdfrwt beam="2">  1       -1 0.78677068E-01 0.42159504E+03</pdfrwt>
<totfact> 0.21077299E+00</totfact>
</mgrwt>
</event>
<event>
 4    1  0.2293715E-008  0.7280843E+03  0.7818608E-02  0.9670374E-01
         -1   -1    0    0    0  501 -0.00000000000E+00  0.00000000000E+00  0.28847582372E+03  0.28847582376E+03  0.50400000000E-02 0.  1.
          1   -1    0    0  501    0  0.00000000000E+00 -0.00000000000E+00 -0.24276372883E+04  0.24276372883E+04  0.50400000000E-02 0. -1.
    8880022    1    1    2    0    0 -0.14838028092E+03 -0.69620288260E+03 -0.17390968569E+04  0.18853553226E+04  0.15294330000E+03 0. -1.
    8880022    1    1    2    0    0  0.14838028092E+03  0.69620288260E+03 -0.40006460764E+03  0.83075778950E+03  0.15294330000E+03 0.  0.
<mgrwt>
<rscale>  0 0.72808435E+03</rscale>
<asrwt>0</asrwt>
<pdfrwt beam="1">  1        1 0.37348265E+00 0.72808435E+03</pdfrwt>
<pdfrwt beam="2">  1       -1 0.44380898E-01 0.72808435E+03</pdfrwt>
<totfact> 0.80845771E+00</totfact>
</mgrwt>
</event>
<event>
 4    1  0.2293715E-008  0.4449300E+03  0.7818608E-02  0.1029245E+00
         -1   -1    0    0    0  501 -0.00000000000E+00  0.00000000000E+00  0.22717801416E+03  0.22717801422E+03  0.50400000000E-02 0.  1.
          1   -1    0    0  501    0  0.00000000000E+00 -0.00000000000E+00 -0.24060418615E+04  0.24060418615E+04  0.50400000000E-02 0. -1.
    8880022    1    1    2    0    0  0.20057468961E+03  0.36652531544E+03 -0.21409317826E+04  0.21866759165E+04  0.15294330000E+03 0.  0.
    8880022    1    1    2    0    0 -0.20057468961E+03 -0.36652531544E+03 -0.37932064718E+02  0.44654395922E+03  0.15294330000E+03 0.  0.
<mgrwt>
<rscale>  0 0.44492996E+03</rscale>
<asrwt>0</asrwt>
<pdfrwt beam="1">  1        1 0.37016027E+00 0.44492996E+03</pdfrwt>
<pdfrwt beam="2">  1       -1 0.34950465E-01 0.44492996E+03</pdfrwt>
<totfact> 0.13676725E+01</totfact>
</mgrwt>
</event>
<event>
 4    1  0.2293715E-008  0.3933914E+03  0.7818608E-02  0.1046092E+00
         -1   -1    0    0    0  501 -0.00000000000E+00  0.00000000000E+00  0.16589759512E+03  0.16589759520E+03  0.50400000000E-02 0.  1.
          1   -1    0    0  501    0  0.00000000000E+00 -0.00000000000E+00 -0.26263856452E+04  0.26263856452E+04  0.50400000000E-02 0. -1.
    8880022    1    1    2    0    0  0.12451693969E+03 -0.34038307438E+03 -0.23513535061E+04  0.23840344102E+04  0.15294330000E+03 0. -1.
    8880022    1    1    2    0    0 -0.12451693969E+03  0.34038307438E+03 -0.10913454395E+03  0.40824883012E+03  0.15294330000E+03 0.  0.
<mgrwt>
<rscale>  0 0.39339136E+03</rscale>
<asrwt>0</asrwt>
<pdfrwt beam="1">  1        1 0.40405930E+00 0.39339136E+03</pdfrwt>
<pdfrwt beam="2">  1       -1 0.25522709E-01 0.39339136E+03</pdfrwt>
<totfact> 0.16949640E+01</totfact>
</mgrwt>
</event>
<event>
 4    1  0.2293715E-008  0.5801340E+03  0.7818608E-02  0.9947501E-01
         -1   -1    0    0    0  501 -0.00000000000E+00  0.00000000000E+00  0.38961061931E+03  0.38961061934E+03  0.50400000000E-02 0.  1.
          1   -1    0    0  501    0  0.00000000000E+00 -0.00000000000E+00 -0.11871517205E+04  0.11871517205E+04  0.50400000000E-02 0. -1.
    8880022    1    1    2    0    0 -0.33732783086E+03  0.44651289447E+03  0.12666855117E+02  0.58027229180E+03  0.15294330000E+03 0.  0.
    8880022    1    1    2    0    0  0.33732783086E+03 -0.44651289447E+03 -0.81020795634E+03  0.99649004809E+03  0.15294330000E+03 0.  0.
<mgrwt>
<rscale>  0 0.58013402E+03</rscale>
<asrwt>0</asrwt>
<pdfrwt beam="1">  1        1 0.18263872E+00 0.58013402E+03</pdfrwt>
<pdfrwt beam="2">  1       -1 0.59940096E-01 0.58013402E+03</pdfrwt>
<totfact> 0.32398216E+01</totfact>
</mgrwt>
</event>
<event>
 4    1  0.2293715E-008  0.9001432E+03  0.7818608E-02  0.9425402E-01
          1   -1    0    0  501    0  0.00000000000E+00  0.00000000000E+00  0.18850338104E+04  0.18850338104E+04  0.50400000000E-02 0. -1.
         -1   -1    0    0    0  501 -0.00000000000E+00 -0.00000000000E+00 -0.75719807892E+03  0.75719807893E+03  0.50400000000E-02 0.  1.
    8880022    1    1    2    0    0  0.36554076176E+03  0.80823643826E+03  0.14325772300E+04  0.16919028818E+04  0.15294330000E+03 0.  0.
    8880022    1    1    2    0    0 -0.36554076176E+03 -0.80823643826E+03 -0.30474149848E+03  0.95032900753E+03  0.15294330000E+03 0.  0.
<mgrwt>
<rscale>  0 0.90014323E+03</rscale>
<asrwt>0</asrwt>
<pdfrwt beam="1">  1        1 0.29000520E+00 0.90014323E+03</pdfrwt>
<pdfrwt beam="2">  1       -1 0.11649201E+00 0.90014323E+03</pdfrwt>
<totfact> 0.24315477E+00</totfact>
</mgrwt>
</event>
<event>
 4    1  0.2779811E-008  0.4338642E+03  0.7818608E-02  0.1032646E+00
          1   -1    0    0  501    0  0.00000000000E+00  0.00000000000E+00  0.18138245642E+04  0.18138245642E+04  0.50400000000E-02 0. -1.
         -1   -1    0    0    0  501 -0.00000000000E+00 -0.00000000000E+00 -0.12516253620E+04  0.12516253620E+04  0.50400000000E-02 0.  1.
    8880022    1    1    2    0    0  0.40601293283E+03 -0.45615819340E-01  0.17489060898E+04  0.18019186074E+04  0.15294330000E+03 0.  0.
    8880022    1    1    2    0    0 -0.40601293283E+03  0.45615819340E-01 -0.11867068875E+04  0.12635313188E+04  0.15294330000E+03 0.  0.
<mgrwt>
<rscale>  0 0.43386421E+03</rscale>
<asrwt>0</asrwt>
<pdfrwt beam="1">  1        1 0.27904993E+00 0.43386421E+03</pdfrwt>
<pdfrwt beam="2">  1       -1 0.19255775E+00 0.43386421E+03</pdfrwt>
<totfact> 0.78543466E-01</totfact>
</mgrwt>
</event>
<event>
 4    1  0.2293715E-008  0.8688022E+03  0.7818608E-02  0.9465443E-01
         -1   -1    0    0    0  501 -0.00000000000E+00  0.00000000000E+00  0.66771328739E+03  0.66771328741E+03  0.50400000000E-02 0.  1.
          1   -1    0    0  501    0  0.00000000000E+00 -0.00000000000E+00 -0.18992783794E+04  0.18992783794E+04  0.50400000000E-02 0. -1.
    8880022    1    1    2    0    0  0.82082638262E+03  0.24014504939E+03 -0.14323922404E+04  0.16752805074E+04  0.15294330000E+03 0.  0.
    8880022    1    1    2    0    0 -0.82082638262E+03 -0.24014504939E+03  0.20082714845E+03  0.89171115935E+03  0.15294330000E+03 0.  0.
<mgrwt>
<rscale>  0 0.86880219E+03</rscale>
<asrwt>0</asrwt>
<pdfrwt beam="1">  1        1 0.29219667E+00 0.86880219E+03</pdfrwt>
<pdfrwt beam="2">  1       -1 0.10272512E+00 0.86880219E+03</pdfrwt>
<totfact> 0.32161010E+00</totfact>
</mgrwt>
</event>
<event>
 4    1  0.2293715E-008  0.2064927E+03  0.7818608E-02  0.1144374E+00
         -1   -1    0    0    0  501 -0.00000000000E+00  0.00000000000E+00  0.69175489192E+02  0.69175489376E+02  0.50400000000E-02 0.  1.
          1   -1    0    0  501    0  0.00000000000E+00 -0.00000000000E+00 -0.20770502266E+04  0.20770502266E+04  0.50400000000E-02 0. -1.
    8880022    1    1    2    0    0  0.13865178383E+03  0.48239810177E+01 -0.10403342540E+03  0.23121893211E+03  0.15294330000E+03 0.  0.
    8880022    1    1    2    0    0 -0.13865178383E+03 -0.48239810177E+01 -0.19038413120E+04  0.19150067839E+04  0.15294330000E+03 0.  0.
<mgrwt>
<rscale>  0 0.20649271E+03</rscale>
<asrwt>0</asrwt>
<pdfrwt beam="1">  1        1 0.31954614E+00 0.20649271E+03</pdfrwt>
<pdfrwt beam="2">  1       -1 0.10642385E-01 0.20649271E+03</pdfrwt>
<totfact> 0.16972978E+02</totfact>
</mgrwt>
</event>
<event>
 4    1  0.2293715E-008  0.1915002E+03  0.7818608E-02  0.1157115E+00
         -1   -1    0    0    0  501 -0.00000000000E+00  0.00000000000E+00  0.11249390731E+03  0.11249390742E+03  0.50400000000E-02 0.  1.
          1   -1    0    0  501    0  0.00000000000E+00 -0.00000000000E+00 -0.99700322258E+03  0.99700322259E+03  0.50400000000E-02 0. -1.
    8880022    1    1    2    0    0  0.10025838420E+03  0.56823517944E+02 -0.89736031846E+03  0.91756626461E+03  0.15294330000E+03 0. -1.
    8880022    1    1    2    0    0 -0.10025838420E+03 -0.56823517944E+02  0.12851003189E+02  0.19193086540E+03  0.15294330000E+03 0.  0.
<mgrwt>
<rscale>  0 0.19150015E+03</rscale>
<asrwt>0</asrwt>
<pdfrwt beam="1">  1        1 0.15338511E+00 0.19150015E+03</pdfrwt>
<pdfrwt beam="2">  1       -1 0.17306756E-01 0.19150015E+03</pdfrwt>
<totfact> 0.41669648E+02</totfact>
</mgrwt>
</event>
<event>
 4    1  0.2293715E-008  0.7501069E+03  0.7818608E-02  0.9635183E-01
         -1   -1    0    0    0  501 -0.00000000000E+00  0.00000000000E+00  0.17720689154E+04  0.17720689154E+04  0.50400000000E-02 0.  1.
          1   -1    0    0  501    0  0.00000000000E+00 -0.00000000000E+00 -0.47492273051E+03  0.47492273054E+03  0.50400000000E-02 0. -1.
    8880022    1    1    2    0    0 -0.73027747163E+03 -0.77223669547E+02  0.12953753922E+04  0.14968826742E+04  0.15294330000E+03 0.  1.
    8880022    1    1    2    0    0  0.73027747163E+03  0.77223669547E+02  0.17707926997E+01  0.75010897171E+03  0.15294330000E+03 0. -1.
<mgrwt>
<rscale>  0 0.75010688E+03</rscale>
<asrwt>0</asrwt>
<pdfrwt beam="1">  1        1 0.73065036E-01 0.75010688E+03</pdfrwt>
<pdfrwt beam="2">  1       -1 0.27262598E+00 0.75010688E+03</pdfrwt>
<totfact> 0.24742988E+00</totfact>
</mgrwt>
</event>
<event>
 4    1  0.2293715E-008  0.3691034E+03  0.7818608E-02  0.1055036E+00
          1   -1    0    0  501    0  0.00000000000E+00  0.00000000000E+00  0.13271997564E+04  0.13271997564E+04  0.50400000000E-02 0. -1.
         -1   -1    0    0    0  501 -0.00000000000E+00 -0.00000000000E+00 -0.15709122035E+03  0.15709122043E+03  0.50400000000E-02 0.  1.
    8880022    1    1    2    0    0 -0.80582716907E+01  0.33582838526E+03  0.14816004181E+03  0.39772941945E+03  0.15294330000E+03 0.  0.
    8880022    1    1    2    0    0  0.80582716907E+01 -0.33582838526E+03  0.10219484942E+04  0.10865615574E+04  0.15294330000E+03 0. -1.
<mgrwt>
<rscale>  0 0.36910336E+03</rscale>
<asrwt>0</asrwt>
<pdfrwt beam="1">  1        1 0.20418458E+00 0.36910336E+03</pdfrwt>
<pdfrwt beam="2">  1       -1 0.24167880E-01 0.36910336E+03</pdfrwt>
<totfact> 0.13656970E+02</totfact>
</mgrwt>
</event>
<event>
 4    1  0.2293715E-008  0.7060030E+03  0.7818608E-02  0.9707021E-01
         -1   -1    0    0    0  501 -0.00000000000E+00  0.00000000000E+00  0.51040626516E+03  0.51040626518E+03  0.50400000000E-02 0.  1.
          1   -1    0    0  501    0  0.00000000000E+00 -0.00000000000E+00 -0.15138903664E+04  0.15138903664E+04  0.50400000000E-02 0. -1.
    8880022    1    1    2    0    0  0.68493329522E+03  0.76908627238E+02  0.10126074510E+03  0.71322783692E+03  0.15294330000E+03 0.  0.
    8880022    1    1    2    0    0 -0.68493329522E+03 -0.76908627238E+02 -0.11047448463E+04  0.13110687947E+04  0.15294330000E+03 0.  0.
<mgrwt>
<rscale>  0 0.70600298E+03</rscale>
<asrwt>0</asrwt>
<pdfrwt beam="1">  1        1 0.23290621E+00 0.70600298E+03</pdfrwt>
<pdfrwt beam="2">  1       -1 0.78524041E-01 0.70600298E+03</pdfrwt>
<totfact> 0.10853350E+01</totfact>
</mgrwt>
</event>
<event>
 4    1  0.2293715E-008  0.2660870E+03  0.7818608E-02  0.1103540E+00
         -1   -1    0    0    0  501 -0.00000000000E+00  0.00000000000E+00  0.12252666204E+04  0.12252666204E+04  0.50400000000E-02 0.  1.
          1   -1    0    0  501    0  0.00000000000E+00 -0.00000000000E+00 -0.78663374125E+03  0.78663374127E+03  0.50400000000E-02 0. -1.
    8880022    1    1    2    0    0  0.21117137559E+03 -0.53077908658E+02 -0.74898111358E+03  0.79484273650E+03  0.15294330000E+03 0. -1.
    8880022    1    1    2    0    0 -0.21117137559E+03  0.53077908658E+02  0.11876139927E+04  0.12170576251E+04  0.15294330000E+03 0.  0.
<mgrwt>
<rscale>  0 0.26608695E+03</rscale>
<asrwt>0</asrwt>
<pdfrwt beam="1">  1        1 0.12102058E+00 0.26608695E+03</pdfrwt>
<pdfrwt beam="2">  1       -1 0.18850256E+00 0.26608695E+03</pdfrwt>
<totfact> 0.48259944E+00</totfact>
</mgrwt>
</event>
<event>
 4    1  0.2293715E-008  0.7943009E+03  0.7818608E-02  0.9568303E-01
          1   -1    0    0  501    0  0.00000000000E+00  0.00000000000E+00  0.13895193028E+04  0.13895193028E+04  0.50400000000E-02 0. -1.
         -1   -1    0    0    0  501 -0.00000000000E+00 -0.00000000000E+00 -0.69268485590E+03  0.69268485592E+03  0.50400000000E-02 0.  1.
    8880022    1    1    2    0    0 -0.71065720469E+03 -0.32013838244E+03 -0.26265235711E+03  0.83660035871E+03  0.15294330000E+03 0.  0.
    8880022    1    1    2    0    0  0.71065720469E+03  0.32013838244E+03  0.95948680400E+03  0.12456038000E+04  0.15294330000E+03 0.  0.
<mgrwt>
<rscale>  0 0.79430089E+03</rscale>
<asrwt>0</asrwt>
<pdfrwt beam="1">  1        1 0.21377220E+00 0.79430089E+03</pdfrwt>
<pdfrwt beam="2">  1       -1 0.10656690E+00 0.79430089E+03</pdfrwt>
<totfact> 0.66322049E+00</totfact>
</mgrwt>
</event>
<event>
 4    1  0.2293715E-008  0.2081751E+03  0.7818608E-02  0.1143019E+00
          1   -1    0    0  501    0  0.00000000000E+00  0.00000000000E+00  0.18167023262E+04  0.18167023262E+04  0.50400000000E-02 0. -1.
         -1   -1    0    0    0  501 -0.00000000000E+00 -0.00000000000E+00 -0.14180701830E+03  0.14180701839E+03  0.50400000000E-02 0.  1.
    8880022    1    1    2    0    0  0.33380248497E+02  0.13722598502E+03  0.17305475824E+04  0.17430237520E+04  0.15294330000E+03 0.  0.
    8880022    1    1    2    0    0 -0.33380248497E+02 -0.13722598502E+03 -0.55652274511E+02  0.21548559262E+03  0.15294330000E+03 0.  1.
<mgrwt>
<rscale>  0 0.20817508E+03</rscale>
<asrwt>0</asrwt>
<pdfrwt beam="1">  1        1 0.27949263E+00 0.20817508E+03</pdfrwt>
<pdfrwt beam="2">  1       -1 0.21816467E-01 0.20817508E+03</pdfrwt>
<totfact> 0.79877417E+01</totfact>
</mgrwt>
</event>
<event>
 4    1  0.2293715E-008  0.3051983E+03  0.7818608E-02  0.1082671E+00
          1   -1    0    0  501    0  0.00000000000E+00  0.00000000000E+00  0.32268413360E+03  0.32268413364E+03  0.50400000000E-02 0. -1.
         -1   -1    0    0    0  501 -0.00000000000E+00 -0.00000000000E+00 -0.39852937071E+03  0.39852937075E+03  0.50400000000E-02 0.  1.
    8880022    1    1    2    0    0  0.21578054666E+03  0.15229291068E+03 -0.22726238946E+03  0.38051835913E+03  0.15294330000E+03 0.  0.
    8880022    1    1    2    0    0 -0.21578054666E+03 -0.15229291068E+03  0.15141715235E+03  0.34069514526E+03  0.15294330000E+03 0.  0.
<mgrwt>
<rscale>  0 0.30519834E+03</rscale>
<asrwt>0</asrwt>
<pdfrwt beam="1">  1        1 0.49643713E-01 0.30519834E+03</pdfrwt>
<pdfrwt beam="2">  1       -1 0.61312211E-01 0.30519834E+03</pdfrwt>
<totfact> 0.22361636E+02</totfact>
</mgrwt>
</event>
<event>
 4    1  0.2293715E-008  0.1142869E+04  0.7818608E-02  0.9164387E-01
         -1   -1    0    0    0  501 -0.00000000000E+00  0.00000000000E+00  0.17649786418E+04  0.17649786418E+04  0.50400000000E-02 0.  1.
          1   -1    0    0  501    0  0.00000000000E+00 -0.00000000000E+00 -0.85830321586E+03  0.85830321587E+03  0.50400000000E-02 0. -1.
    8880022    1    1    2    0    0 -0.11068995943E+04  0.23985851827E+03 -0.33544520058E+02  0.11433615826E+04  0.15294330000E+03 0.  0.
    8880022    1    1    2    0    0  0.11068995943E+04 -0.23985851827E+03  0.94021994599E+03  0.14799202751E+04  0.15294330000E+03 0.  0.
<mgrwt>
<rscale>  0 0.11428694E+04</rscale>
<asrwt>0</asrwt>
<pdfrwt beam="1">  1        1 0.13204665E+00 0.11428694E+04</pdfrwt>
<pdfrwt beam="2">  1       -1 0.27153517E+00 0.11428694E+04</pdfrwt>
<totfact> 0.98653653E-01</totfact>
</mgrwt>
</event>
<event>
 4    1  0.2293715E-008  0.5873819E+03  0.7818608E-02  0.9931936E-01
         -1   -1    0    0    0  501 -0.00000000000E+00  0.00000000000E+00  0.15030744385E+03  0.15030744393E+03  0.50400000000E-02 0.  1.
          1   -1    0    0  501    0  0.00000000000E+00 -0.00000000000E+00 -0.28355006114E+04  0.28355006114E+04  0.50400000000E-02 0. -1.
    8880022    1    1    2    0    0  0.25899092322E+02 -0.56652899704E+03 -0.19941492104E+04  0.20788575213E+04  0.15294330000E+03 0.  0.
    8880022    1    1    2    0    0 -0.25899092322E+02  0.56652899704E+03 -0.69104395716E+03  0.90695053405E+03  0.15294330000E+03 0.  0.
<mgrwt>
<rscale>  0 0.58738192E+03</rscale>
<asrwt>0</asrwt>
<pdfrwt beam="1">  1        1 0.43623082E+00 0.58738192E+03</pdfrwt>
<pdfrwt beam="2">  1       -1 0.23124224E-01 0.58738192E+03</pdfrwt>
<totfact> 0.13689348E+01</totfact>
</mgrwt>
</event>
<event>
 4    1  0.2366112E-008  0.8988850E+03  0.7818608E-02  0.9426976E-01
          1   -1    0    0  501    0  0.00000000000E+00  0.00000000000E+00  0.17394961517E+04  0.17394961517E+04  0.50400000000E-02 0. -1.
         -1   -1    0    0    0  501 -0.00000000000E+00 -0.00000000000E+00 -0.16070467379E+04  0.16070467379E+04  0.50400000000E-02 0.  1.
    8880022    1    1    2    0    0 -0.76854017046E+02 -0.88243757970E+03  0.14771022393E+04  0.17291111302E+04  0.15294330000E+03 0.  0.
    8880022    1    1    2    0    0  0.76854017046E+02  0.88243757970E+03 -0.13446528255E+04  0.16174317594E+04  0.15294330000E+03 0.  0.
<mgrwt>
<rscale>  0 0.89888502E+03</rscale>
<asrwt>0</asrwt>
<pdfrwt beam="1">  1        1 0.26761479E+00 0.89888502E+03</pdfrwt>
<pdfrwt beam="2">  1       -1 0.24723796E+00 0.89888502E+03</pdfrwt>
<totfact> 0.33617551E-01</totfact>
</mgrwt>
</event>
<event>
 4    1  0.2293715E-008  0.6074485E+03  0.7818608E-02  0.9890072E-01
         -1   -1    0    0    0  501 -0.00000000000E+00  0.00000000000E+00  0.27586735055E+03  0.27586735060E+03  0.50400000000E-02 0.  1.
          1   -1    0    0  501    0  0.00000000000E+00 -0.00000000000E+00 -0.19721202569E+04  0.19721202569E+04  0.50400000000E-02 0. -1.
    8880022    1    1    2    0    0  0.48368163081E+03 -0.33414683104E+03 -0.14856966638E+04  0.16050820087E+04  0.15294330000E+03 0.  0.
    8880022    1    1    2    0    0 -0.48368163081E+03  0.33414683104E+03 -0.21055624248E+03  0.64290559878E+03  0.15294330000E+03 0.  0.
<mgrwt>
<rscale>  0 0.60744850E+03</rscale>
<asrwt>0</asrwt>
<pdfrwt beam="1">  1        1 0.30340311E+00 0.60744850E+03</pdfrwt>
<pdfrwt beam="2">  1       -1 0.42441132E-01 0.60744850E+03</pdfrwt>
<totfact> 0.18109456E+01</totfact>
</mgrwt>
</event>
<event>
 4    1  0.2293715E-008  0.2506203E+03  0.7818608E-02  0.1112913E+00
         -1   -1    0    0    0  501 -0.00000000000E+00  0.00000000000E+00  0.19482464162E+03  0.19482464168E+03  0.50400000000E-02 0.  1.
          1   -1    0    0  501    0  0.00000000000E+00 -0.00000000000E+00 -0.18571337044E+04  0.18571337044E+04  0.50400000000E-02 0. -1.
    8880022    1    1    2    0    0  0.28231965979E+02 -0.19652440313E+03  0.10152865379E+03  0.27040452194E+03  0.15294330000E+03 0.  1.
    8880022    1    1    2    0    0 -0.28231965979E+02  0.19652440313E+03 -0.17638377166E+04  0.17815538241E+04  0.15294330000E+03 0.  0.
<mgrwt>
<rscale>  0 0.25062031E+03</rscale>
<asrwt>0</asrwt>
<pdfrwt beam="1">  1        1 0.28571287E+00 0.25062031E+03</pdfrwt>
<pdfrwt beam="2">  1       -1 0.29973023E-01 0.25062031E+03</pdfrwt>
<totfact> 0.43555753E+01</totfact>
</mgrwt>
</event>
<event>
 4    1  0.2293715E-008  0.5873761E+03  0.7818608E-02  0.9931948E-01
         -1   -1    0    0    0  501 -0.00000000000E+00  0.00000000000E+00  0.22402607758E+03  0.22402607764E+03  0.50400000000E-02 0.  1.
          1   -1    0    0  501    0  0.00000000000E+00 -0.00000000000E+00 -0.26959545300E+04  0.26959545300E+04  0.50400000000E-02 0. -1.
    8880022    1    1    2    0    0  0.55900343801E+03 -0.95572867913E+02 -0.21919584149E+04  0.22692933620E+04  0.15294330000E+03 0.  0.
    8880022    1    1    2    0    0 -0.55900343801E+03  0.95572867913E+02 -0.27997003748E+03  0.65068724568E+03  0.15294330000E+03 0.  0.
<mgrwt>
<rscale>  0 0.58737609E+03</rscale>
<asrwt>0</asrwt>
<pdfrwt beam="1">  1        1 0.41476221E+00 0.58737609E+03</pdfrwt>
<pdfrwt beam="2">  1       -1 0.34465552E-01 0.58737609E+03</pdfrwt>
<totfact> 0.86029586E+00</totfact>
</mgrwt>
</event>
<event>
 4    1  0.2293715E-008  0.7503076E+03  0.7818608E-02  0.9634868E-01
          1   -1    0    0  501    0  0.00000000000E+00  0.00000000000E+00  0.11957085488E+04  0.11957085488E+04  0.50400000000E-02 0. -1.
         -1   -1    0    0    0  501 -0.00000000000E+00 -0.00000000000E+00 -0.62953515038E+03  0.62953515040E+03  0.50400000000E-02 0.  1.
    8880022    1    1    2    0    0 -0.11685989423E+03  0.72519898069E+03  0.74132607810E+03  0.10547633875E+04  0.15294330000E+03 0.  0.
    8880022    1    1    2    0    0  0.11685989423E+03 -0.72519898069E+03 -0.17515267971E+03  0.77048031169E+03  0.15294330000E+03 0.  0.
<mgrwt>
<rscale>  0 0.75030757E+03</rscale>
<asrwt>0</asrwt>
<pdfrwt beam="1">  1        1 0.18395516E+00 0.75030757E+03</pdfrwt>
<pdfrwt beam="2">  1       -1 0.96851563E-01 0.75030757E+03</pdfrwt>
<totfact> 0.11407584E+01</totfact>
</mgrwt>
</event>
<event>
 4    1  0.2293715E-008  0.5684395E+03  0.7818608E-02  0.9973138E-01
         -1   -1    0    0    0  501 -0.00000000000E+00  0.00000000000E+00  0.35647498782E+03  0.35647498786E+03  0.50400000000E-02 0.  1.
          1   -1    0    0  501    0  0.00000000000E+00 -0.00000000000E+00 -0.94959731235E+03  0.94959731236E+03  0.50400000000E-02 0. -1.
    8880022    1    1    2    0    0  0.54427902983E+03 -0.59094259101E+02 -0.43577776367E+03  0.71625812812E+03  0.15294330000E+03 0.  0.
    8880022    1    1    2    0    0 -0.54427902983E+03  0.59094259101E+02 -0.15734456086E+03  0.58981417211E+03  0.15294330000E+03 0.  0.
<mgrwt>
<rscale>  0 0.56843948E+03</rscale>
<asrwt>0</asrwt>
<pdfrwt beam="1">  1        1 0.14609189E+00 0.56843948E+03</pdfrwt>
<pdfrwt beam="2">  1       -1 0.54842306E-01 0.56843948E+03</pdfrwt>
<totfact> 0.58126281E+01</totfact>
</mgrwt>
</event>
<event>
 4    1  0.2293715E-008  0.4190049E+03  0.7818608E-02  0.1037391E+00
         -1   -1    0    0    0  501 -0.00000000000E+00  0.00000000000E+00  0.13995564345E+03  0.13995564354E+03  0.50400000000E-02 0.  1.
          1   -1    0    0  501    0  0.00000000000E+00 -0.00000000000E+00 -0.18047677494E+04  0.18047677494E+04  0.50400000000E-02 0. -1.
    8880022    1    1    2    0    0 -0.10206483337E+02  0.38996060588E+03 -0.29546042971E+03  0.51270065826E+03  0.15294330000E+03 0.  0.
    8880022    1    1    2    0    0  0.10206483337E+02 -0.38996060588E+03 -0.13693516763E+04  0.14320227347E+04  0.15294330000E+03 0.  0.
<mgrwt>
<rscale>  0 0.41900489E+03</rscale>
<asrwt>0</asrwt>
<pdfrwt beam="1">  1        1 0.27765656E+00 0.41900489E+03</pdfrwt>
<pdfrwt beam="2">  1       -1 0.21531639E-01 0.41900489E+03</pdfrwt>
<totfact> 0.78597758E+01</totfact>
</mgrwt>
</event>
<event>
 4    1  0.2293715E-008  0.4031943E+03  0.7818608E-02  0.1042679E+00
          1   -1    0    0  501    0  0.00000000000E+00  0.00000000000E+00  0.91158787567E+03  0.91158787569E+03  0.50400000000E-02 0. -1.
         -1   -1    0    0    0  501 -0.00000000000E+00 -0.00000000000E+00 -0.54410266371E+03  0.54410266373E+03  0.50400000000E-02 0.  1.
    8880022    1    1    2    0    0  0.36697490655E+03 -0.67107735854E+02  0.78050688079E+03  0.87849682654E+03  0.15294330000E+03 0.  0.
    8880022    1    1    2    0    0 -0.36697490655E+03  0.67107735854E+02 -0.41302166883E+03  0.57719371288E+03  0.15294330000E+03 0.  0.
<mgrwt>
<rscale>  0 0.40319435E+03</rscale>
<asrwt>0</asrwt>
<pdfrwt beam="1">  1        1 0.14024429E+00 0.40319435E+03</pdfrwt>
<pdfrwt beam="2">  1       -1 0.83708102E-01 0.40319435E+03</pdfrwt>
<totfact> 0.27279935E+01</totfact>
</mgrwt>
</event>
<event>
 4    1  0.2293715E-008  0.3614404E+03  0.7818608E-02  0.1058015E+00
          1   -1    0    0  501    0  0.00000000000E+00  0.00000000000E+00  0.99624759015E+03  0.99624759016E+03  0.50400000000E-02 0. -1.
         -1   -1    0    0    0  501 -0.00000000000E+00 -0.00000000000E+00 -0.98008897091E+03  0.98008897092E+03  0.50400000000E-02 0.  1.
    8880022    1    1    2    0    0  0.28536226126E+03  0.16067329570E+03 -0.91161011406E+03  0.98064885723E+03  0.15294330000E+03 0.  0.
    8880022    1    1    2    0    0 -0.28536226126E+03 -0.16067329570E+03  0.92776873330E+03  0.99568770386E+03  0.15294330000E+03 0.  0.
<mgrwt>
<rscale>  0 0.36144043E+03</rscale>
<asrwt>0</asrwt>
<pdfrwt beam="1">  1        1 0.15326886E+00 0.36144043E+03</pdfrwt>
<pdfrwt beam="2">  1       -1 0.15078292E+00 0.36144043E+03</pdfrwt>
<totfact> 0.59156078E+00</totfact>
</mgrwt>
</event>
<event>
 4    1  0.2293715E-008  0.5763270E+03  0.7818608E-02  0.9955775E-01
          1   -1    0    0  501    0  0.00000000000E+00  0.00000000000E+00  0.54869913911E+03  0.54869913913E+03  0.50400000000E-02 0. -1.
         -1   -1    0    0    0  501 -0.00000000000E+00 -0.00000000000E+00 -0.12506535286E+04  0.12506535287E+04  0.50400000000E-02 0.  1.
    8880022    1    1    2    0    0 -0.54716456319E+03 -0.96809619078E+02 -0.99722810073E+03  0.11517884786E+04  0.15294330000E+03 0.  0.
    8880022    1    1    2    0    0  0.54716456319E+03  0.96809619078E+02  0.29527371120E+03  0.64756418917E+03  0.15294330000E+03 0.  0.
<mgrwt>
<rscale>  0 0.57632700E+03</rscale>
<asrwt>0</asrwt>
<pdfrwt beam="1">  1        1 0.84415252E-01 0.57632700E+03</pdfrwt>
<pdfrwt beam="2">  1       -1 0.19240823E+00 0.57632700E+03</pdfrwt>
<totfact> 0.70251817E+00</totfact>
</mgrwt>
</event>
<event>
 4    1  0.2293715E-008  0.5488757E+03  0.7818608E-02  0.1001754E+00
          1   -1    0    0  501    0  0.00000000000E+00  0.00000000000E+00  0.11956586121E+04  0.11956586121E+04  0.50400000000E-02 0. -1.
         -1   -1    0    0    0  501 -0.00000000000E+00 -0.00000000000E+00 -0.28859135340E+03  0.28859135344E+03  0.50400000000E-02 0.  1.
    8880022    1    1    2    0    0 -0.22456828943E+03  0.47690879490E+03  0.71791449691E+03  0.90369563082E+03  0.15294330000E+03 0.  0.
    8880022    1    1    2    0    0  0.22456828943E+03 -0.47690879490E+03  0.18915276180E+03  0.58055433474E+03  0.15294330000E+03 0.  0.
<mgrwt>
<rscale>  0 0.54887573E+03</rscale>
<asrwt>0</asrwt>
<pdfrwt beam="1">  1        1 0.18394748E+00 0.54887573E+03</pdfrwt>
<pdfrwt beam="2">  1       -1 0.44398670E-01 0.54887573E+03</pdfrwt>
<totfact> 0.56712769E+01</totfact>
</mgrwt>
</event>
<event>
 4    1  0.2293715E-008  0.2240591E+03  0.7818608E-02  0.1130893E+00
          1   -1    0    0  501    0  0.00000000000E+00  0.00000000000E+00  0.24259762810E+03  0.24259762816E+03  0.50400000000E-02 0. -1.
         -1   -1    0    0    0  501 -0.00000000000E+00 -0.00000000000E+00 -0.12072743312E+04  0.12072743312E+04  0.50400000000E-02 0.  1.
    8880022    1    1    2    0    0 -0.66660332465E+02 -0.14955669974E+03 -0.11422258175E+04  0.11639941054E+04  0.15294330000E+03 0.  1.
    8880022    1    1    2    0    0  0.66660332465E+02  0.14955669974E+03  0.17754911435E+03  0.28587785396E+03  0.15294330000E+03 0.  0.
<mgrwt>
<rscale>  0 0.22405905E+03</rscale>
<asrwt>0</asrwt>
<pdfrwt beam="1">  1        1 0.37322713E-01 0.22405905E+03</pdfrwt>
<pdfrwt beam="2">  1       -1 0.18573451E+00 0.22405905E+03</pdfrwt>
<totfact> 0.24525195E+01</totfact>
</mgrwt>
</event>
<event>
 4    1  0.2293715E-008  0.1593871E+03  0.7818608E-02  0.1189390E+00
         -1   -1    0    0    0  501 -0.00000000000E+00  0.00000000000E+00  0.20878904065E+03  0.20878904072E+03  0.50400000000E-02 0.  1.
          1   -1    0    0  501    0  0.00000000000E+00 -0.00000000000E+00 -0.12871643480E+04  0.12871643480E+04  0.50400000000E-02 0. -1.
    8880022    1    1    2    0    0  0.85344644348E+01  0.44042624094E+02  0.17255888789E+03  0.23490596549E+03  0.15294330000E+03 0.  0.
    8880022    1    1    2    0    0 -0.85344644348E+01 -0.44042624094E+02 -0.12509341953E+04  0.12610474233E+04  0.15294330000E+03 0. -1.
<mgrwt>
<rscale>  0 0.15938708E+03</rscale>
<asrwt>0</asrwt>
<pdfrwt beam="1">  1        1 0.19802528E+00 0.15938708E+03</pdfrwt>
<pdfrwt beam="2">  1       -1 0.32121392E-01 0.15938708E+03</pdfrwt>
<totfact> 0.94941361E+01</totfact>
</mgrwt>
</event>
<event>
 4    1  0.2293715E-008  0.4470596E+03  0.7818608E-02  0.1028603E+00
         -1   -1    0    0    0  501 -0.00000000000E+00  0.00000000000E+00  0.61827631866E+03  0.61827631868E+03  0.50400000000E-02 0.  1.
          1   -1    0    0  501    0  0.00000000000E+00 -0.00000000000E+00 -0.26919132032E+04  0.26919132032E+04  0.50400000000E-02 0. -1.
    8880022    1    1    2    0    0  0.37848514893E+03  0.18226256638E+03  0.51572345682E+03  0.68251958799E+03  0.15294330000E+03 0.  1.
    8880022    1    1    2    0    0 -0.37848514893E+03 -0.18226256638E+03 -0.25893603414E+04  0.26276699339E+04  0.15294330000E+03 0.  0.
<mgrwt>
<rscale>  0 0.44705962E+03</rscale>
<asrwt>0</asrwt>
<pdfrwt beam="1">  1        1 0.41414049E+00 0.44705962E+03</pdfrwt>
<pdfrwt beam="2">  1       -1 0.95119435E-01 0.44705962E+03</pdfrwt>
<totfact> 0.12404054E+00</totfact>
</mgrwt>
</event>
<event>
 4    1  0.2293715E-008  0.1389165E+04  0.7818608E-02  0.8961699E-01
         -1   -1    0    0    0  501 -0.00000000000E+00  0.00000000000E+00  0.11364863085E+04  0.11364863085E+04  0.50400000000E-02 0.  1.
          1   -1    0    0  501    0  0.00000000000E+00 -0.00000000000E+00 -0.23349823383E+04  0.23349823383E+04  0.50400000000E-02 0. -1.
    8880022    1    1    2    0    0 -0.13281695144E+04 -0.37729763878E+03  0.30731385235E+03  0.14227512868E+04  0.15294330000E+03 0.  0.
    8880022    1    1    2    0    0  0.13281695144E+04  0.37729763878E+03 -0.15058098821E+04  0.20487173600E+04  0.15294330000E+03 0.  0.
<mgrwt>
<rscale>  0 0.13891650E+04</rscale>
<asrwt>0</asrwt>
<pdfrwt beam="1">  1        1 0.35922805E+00 0.13891650E+04</pdfrwt>
<pdfrwt beam="2">  1       -1 0.17484405E+00 0.13891650E+04</pdfrwt>
<totfact> 0.38333458E-01</totfact>
</mgrwt>
</event>
<event>
 4    1  0.2293715E-008  0.6647170E+03  0.7818608E-02  0.9779549E-01
         -1   -1    0    0    0  501 -0.00000000000E+00  0.00000000000E+00  0.47544433252E+03  0.47544433255E+03  0.50400000000E-02 0.  1.
          1   -1    0    0  501    0  0.00000000000E+00 -0.00000000000E+00 -0.17038677015E+04  0.17038677015E+04  0.50400000000E-02 0. -1.
    8880022    1    1    2    0    0  0.39114984125E+03 -0.51522700593E+03 -0.13488784375E+04  0.15037691838E+04  0.15294330000E+03 0. -1.
    8880022    1    1    2    0    0 -0.39114984125E+03  0.51522700593E+03  0.12045506856E+03  0.67554285023E+03  0.15294330000E+03 0.  1.
<mgrwt>
<rscale>  0 0.66471702E+03</rscale>
<asrwt>0</asrwt>
<pdfrwt beam="1">  1        1 0.26213349E+00 0.66471702E+03</pdfrwt>
<pdfrwt beam="2">  1       -1 0.73145283E-01 0.66471702E+03</pdfrwt>
<totfact> 0.94287701E+00</totfact>
</mgrwt>
</event>
<event>
 4    1  0.2293715E-008  0.5509760E+03  0.7818608E-02  0.1001268E+00
         -1   -1    0    0    0  501 -0.00000000000E+00  0.00000000000E+00  0.18703576286E+04  0.18703576286E+04  0.50400000000E-02 0.  1.
          1   -1    0    0  501    0  0.00000000000E+00 -0.00000000000E+00 -0.74626878861E+03  0.74626878863E+03  0.50400000000E-02 0. -1.
    8880022    1    1    2    0    0  0.40476069978E+03  0.34110353902E+03  0.17193707440E+04  0.18054944633E+04  0.15294330000E+03 0.  0.
    8880022    1    1    2    0    0 -0.40476069978E+03 -0.34110353902E+03 -0.59528190407E+03  0.81113195396E+03  0.15294330000E+03 0.  0.
<mgrwt>
<rscale>  0 0.55097595E+03</rscale>
<asrwt>0</asrwt>
<pdfrwt beam="1">  1        1 0.11481058E+00 0.55097595E+03</pdfrwt>
<pdfrwt beam="2">  1       -1 0.28774732E+00 0.55097595E+03</pdfrwt>
<totfact> 0.10800879E+00</totfact>
</mgrwt>
</event>
<event>
 4    1  0.2293715E-008  0.2421899E+03  0.7818608E-02  0.1118343E+00
         -1   -1    0    0    0  501 -0.00000000000E+00  0.00000000000E+00  0.15958365140E+03  0.15958365147E+03  0.50400000000E-02 0.  1.
          1   -1    0    0  501    0  0.00000000000E+00 -0.00000000000E+00 -0.14208855159E+04  0.14208855159E+04  0.50400000000E-02 0. -1.
    8880022    1    1    2    0    0  0.17346681038E+03 -0.71927537846E+02 -0.13110419593E+04  0.13332242786E+04  0.15294330000E+03 0.  0.
    8880022    1    1    2    0    0 -0.17346681038E+03  0.71927537846E+02  0.49740094754E+02  0.24724488882E+03  0.15294330000E+03 0.  0.
<mgrwt>
<rscale>  0 0.24218992E+03</rscale>
<asrwt>0</asrwt>
<pdfrwt beam="1">  1        1 0.21859776E+00 0.24218992E+03</pdfrwt>
<pdfrwt beam="2">  1       -1 0.24551332E-01 0.24218992E+03</pdfrwt>
<totfact> 0.11800471E+02</totfact>
</mgrwt>
</event>
<event>
 4    1  0.2293715E-008  0.6321439E+03  0.7818608E-02  0.9840874E-01
         -1   -1    0    0    0  501 -0.00000000000E+00  0.00000000000E+00  0.41013207947E+03  0.41013207950E+03  0.50400000000E-02 0.  1.
          1   -1    0    0  501    0  0.00000000000E+00 -0.00000000000E+00 -0.29740863504E+04  0.29740863505E+04  0.50400000000E-02 0. -1.
    8880022    1    1    2    0    0  0.43745186580E+03 -0.42994203798E+03 -0.26694983385E+04  0.27433241375E+04  0.15294330000E+03 0. -1.
    8880022    1    1    2    0    0 -0.43745186580E+03  0.42994203798E+03  0.10554406755E+03  0.64089429247E+03  0.15294330000E+03 0.  0.
<mgrwt>
<rscale>  0 0.63214393E+03</rscale>
<asrwt>0</asrwt>
<pdfrwt beam="1">  1        1 0.45755173E+00 0.63214393E+03</pdfrwt>
<pdfrwt beam="2">  1       -1 0.63097245E-01 0.63214393E+03</pdfrwt>
<totfact> 0.17572932E+00</totfact>
</mgrwt>
</event>
<event>
 4    1  0.2293715E-008  0.3664027E+03  0.7818608E-02  0.1056077E+00
         -1   -1    0    0    0  501 -0.00000000000E+00  0.00000000000E+00  0.10253312429E+03  0.10253312441E+03  0.50400000000E-02 0.  1.
          1   -1    0    0  501    0  0.00000000000E+00 -0.00000000000E+00 -0.18325939143E+04  0.18325939143E+04  0.50400000000E-02 0. -1.
    8880022    1    1    2    0    0 -0.29250401460E+03  0.15906184863E+03 -0.13820437839E+04  0.14297887760E+04  0.15294330000E+03 0.  0.
    8880022    1    1    2    0    0  0.29250401460E+03 -0.15906184863E+03 -0.34801700612E+03  0.50533826277E+03  0.15294330000E+03 0.  0.
<mgrwt>
<rscale>  0 0.36640268E+03</rscale>
<asrwt>0</asrwt>
<pdfrwt beam="1">  1        1 0.28193750E+00 0.36640268E+03</pdfrwt>
<pdfrwt beam="2">  1       -1 0.15774328E-01 0.36640268E+03</pdfrwt>
<totfact> 0.12652822E+02</totfact>
</mgrwt>
</event>
<event>
 4    1  0.2293715E-008  0.3808233E+03  0.7818608E-02  0.1050630E+00
         -1   -1    0    0    0  501 -0.00000000000E+00  0.00000000000E+00  0.10004592644E+03  0.10004592657E+03  0.50400000000E-02 0.  1.
          1   -1    0    0  501    0  0.00000000000E+00 -0.00000000000E+00 -0.17340188719E+04  0.17340188719E+04  0.50400000000E-02 0. -1.
    8880022    1    1    2    0    0  0.27503129567E+03  0.21445858258E+03 -0.11883837284E+04  0.12479111491E+04  0.15294330000E+03 0.  0.
    8880022    1    1    2    0    0 -0.27503129567E+03 -0.21445858258E+03 -0.44558921706E+03  0.58615364932E+03  0.15294330000E+03 0.  1.
<mgrwt>
<rscale>  0 0.38082325E+03</rscale>
<asrwt>0</asrwt>
<pdfrwt beam="1">  1        1 0.26677211E+00 0.38082325E+03</pdfrwt>
<pdfrwt beam="2">  1       -1 0.15391682E-01 0.38082325E+03</pdfrwt>
<totfact> 0.15241949E+02</totfact>
</mgrwt>
</event>
<event>
 4    1  0.2293715E-008  0.3837102E+03  0.7818608E-02  0.1049571E+00
          1   -1    0    0  501    0  0.00000000000E+00  0.00000000000E+00  0.42823947850E+04  0.42823947850E+04  0.50400000000E-02 0. -1.
         -1   -1    0    0    0  501 -0.00000000000E+00 -0.00000000000E+00 -0.22722734734E+03  0.22722734740E+03  0.50400000000E-02 0.  1.
    8880022    1    1    2    0    0  0.27691142523E+03 -0.21716796910E+03 -0.49650341060E+02  0.38690912836E+03  0.15294330000E+03 0.  1.
    8880022    1    1    2    0    0 -0.27691142523E+03  0.21716796910E+03  0.41048177787E+04  0.41227130041E+04  0.15294330000E+03 0.  0.
<mgrwt>
<rscale>  0 0.38371020E+03</rscale>
<asrwt>0</asrwt>
<pdfrwt beam="1">  1        1 0.65882995E+00 0.38371020E+03</pdfrwt>
<pdfrwt beam="2">  1       -1 0.34958055E-01 0.38371020E+03</pdfrwt>
<totfact> 0.52509623E-01</totfact>
</mgrwt>
</event>
<event>
 4    1  0.2293715E-008  0.1297531E+04  0.7818608E-02  0.9031525E-01
         -1   -1    0    0    0  501 -0.00000000000E+00  0.00000000000E+00  0.12379645506E+04  0.12379645506E+04  0.50400000000E-02 0.  1.
          1   -1    0    0  501    0  0.00000000000E+00 -0.00000000000E+00 -0.13786946324E+04  0.13786946324E+04  0.50400000000E-02 0. -1.
    8880022    1    1    2    0    0 -0.46160173197E+03  0.12029626974E+04 -0.22286187575E+03  0.13165312298E+04  0.15294330000E+03 0. -1.
    8880022    1    1    2    0    0  0.46160173197E+03 -0.12029626974E+04  0.82131793915E+02  0.13001279533E+04  0.15294330000E+03 0.  1.
<mgrwt>
<rscale>  0 0.12975311E+04</rscale>
<asrwt>0</asrwt>
<pdfrwt beam="1">  1        1 0.21210687E+00 0.12975311E+04</pdfrwt>
<pdfrwt beam="2">  1       -1 0.19045608E+00 0.12975311E+04</pdfrwt>
<totfact> 0.13518097E+00</totfact>
</mgrwt>
</event>
<event>
 4    1  0.2293715E-008  0.6178294E+03  0.7818608E-02  0.9869091E-01
          1   -1    0    0  501    0  0.00000000000E+00  0.00000000000E+00  0.14499148152E+04  0.14499148152E+04  0.50400000000E-02 0. -1.
         -1   -1    0    0    0  501 -0.00000000000E+00 -0.00000000000E+00 -0.46039783714E+03  0.46039783717E+03  0.50400000000E-02 0.  1.
    8880022    1    1    2    0    0  0.58835436691E+03 -0.11027537390E+03 -0.13025052503E+03  0.63140982842E+03  0.15294330000E+03 0.  0.
    8880022    1    1    2    0    0 -0.58835436691E+03  0.11027537390E+03  0.11197675031E+04  0.12789028239E+04  0.15294330000E+03 0.  0.
<mgrwt>
<rscale>  0 0.61782940E+03</rscale>
<asrwt>0</asrwt>
<pdfrwt beam="1">  1        1 0.22306381E+00 0.61782940E+03</pdfrwt>
<pdfrwt beam="2">  1       -1 0.70830438E-01 0.61782940E+03</pdfrwt>
<totfact> 0.15085756E+01</totfact>
</mgrwt>
</event>
<event>
 4    1  0.2293715E-008  0.3898818E+03  0.7818608E-02  0.1047341E+00
          1   -1    0    0  501    0  0.00000000000E+00  0.00000000000E+00  0.15618524829E+04  0.15618524829E+04  0.50400000000E-02 0. -1.
         -1   -1    0    0    0  501 -0.00000000000E+00 -0.00000000000E+00 -0.57210937026E+03  0.57210937028E+03  0.50400000000E-02 0.  1.
    8880022    1    1    2    0    0 -0.23825812578E+03 -0.26804702346E+03  0.14668691406E+04  0.15177986922E+04  0.15294330000E+03 0.  0.
    8880022    1    1    2    0    0  0.23825812578E+03  0.26804702346E+03 -0.47712602802E+03  0.61616316095E+03  0.15294330000E+03 0.  1.
<mgrwt>
<rscale>  0 0.38988177E+03</rscale>
<asrwt>0</asrwt>
<pdfrwt beam="1">  1        1 0.24028500E+00 0.38988177E+03</pdfrwt>
<pdfrwt beam="2">  1       -1 0.88016827E-01 0.38988177E+03</pdfrwt>
<totfact> 0.84634209E+00</totfact>
</mgrwt>
</event>
<event>
 4    1  0.2293715E-008  0.1979302E+03  0.7818608E-02  0.1151497E+00
          1   -1    0    0  501    0  0.00000000000E+00  0.00000000000E+00  0.22253608166E+03  0.22253608172E+03  0.50400000000E-02 0. -1.
         -1   -1    0    0    0  501 -0.00000000000E+00 -0.00000000000E+00 -0.27262987024E+03  0.27262987029E+03  0.50400000000E-02 0.  1.
    8880022    1    1    2    0    0 -0.10239011357E+03 -0.72807922630E+02 -0.17240988759E+03  0.26249104996E+03  0.15294330000E+03 0.  0.
    8880022    1    1    2    0    0  0.10239011357E+03  0.72807922630E+02  0.12231609900E+03  0.23267490205E+03  0.15294330000E+03 0. -1.
<mgrwt>
<rscale>  0 0.19793025E+03</rscale>
<asrwt>0</asrwt>
<pdfrwt beam="1">  1        1 0.34236320E-01 0.19793025E+03</pdfrwt>
<pdfrwt beam="2">  1       -1 0.41943057E-01 0.19793025E+03</pdfrwt>
<totfact> 0.72677857E+02</totfact>
</mgrwt>
</event>
<event>
 4    1  0.2293715E-008  0.2668466E+03  0.7818608E-02  0.1103098E+00
         -1   -1    0    0    0  501 -0.00000000000E+00  0.00000000000E+00  0.54032430652E+03  0.54032430654E+03  0.50400000000E-02 0.  1.
          1   -1    0    0  501    0  0.00000000000E+00 -0.00000000000E+00 -0.58290910833E+03  0.58290910836E+03  0.50400000000E-02 0. -1.
    8880022    1    1    2    0    0 -0.21232532277E+03 -0.52281842511E+02  0.47277615801E+03  0.54288523865E+03  0.15294330000E+03 0.  0.
    8880022    1    1    2    0    0  0.21232532277E+03  0.52281842511E+02 -0.51536095983E+03  0.58034817625E+03  0.15294330000E+03 0.  0.
<mgrwt>
<rscale>  0 0.26684656E+03</rscale>
<asrwt>0</asrwt>
<pdfrwt beam="1">  1        1 0.89678325E-01 0.26684656E+03</pdfrwt>
<pdfrwt beam="2">  1       -1 0.83126816E-01 0.26684656E+03</pdfrwt>
<totfact> 0.55987521E+01</totfact>
</mgrwt>
</event>
<event>
 4    1  0.2293715E-008  0.3643648E+03  0.7818608E-02  0.1056869E+00
          1   -1    0    0  501    0  0.00000000000E+00  0.00000000000E+00  0.24913827750E+03  0.24913827755E+03  0.50400000000E-02 0. -1.
         -1   -1    0    0    0  501 -0.00000000000E+00 -0.00000000000E+00 -0.54631558261E+03  0.54631558264E+03  0.50400000000E-02 0.  1.
    8880022    1    1    2    0    0 -0.29810628027E+03  0.14318764786E+03 -0.86224823774E+02  0.37442813741E+03  0.15294330000E+03 0.  0.
    8880022    1    1    2    0    0  0.29810628027E+03 -0.14318764786E+03 -0.21095248134E+03  0.42102572277E+03  0.15294330000E+03 0.  0.
<mgrwt>
<rscale>  0 0.36436480E+03</rscale>
<asrwt>0</asrwt>
<pdfrwt beam="1">  1        1 0.38328966E-01 0.36436480E+03</pdfrwt>
<pdfrwt beam="2">  1       -1 0.84048551E-01 0.36436480E+03</pdfrwt>
<totfact> 0.16287972E+02</totfact>
</mgrwt>
</event>
<event>
 4    1  0.2293715E-008  0.2010564E+03  0.7818608E-02  0.1148851E+00
          1   -1    0    0  501    0  0.00000000000E+00  0.00000000000E+00  0.11900883839E+04  0.11900883839E+04  0.50400000000E-02 0. -1.
         -1   -1    0    0    0  501 -0.00000000000E+00 -0.00000000000E+00 -0.18078381955E+03  0.18078381962E+03  0.50400000000E-02 0.  1.
    8880022    1    1    2    0    0 -0.13021292371E+03  0.87533352642E+01 -0.11304425612E+03  0.23065706847E+03  0.15294330000E+03 0.  0.
    8880022    1    1    2    0    0  0.13021292371E+03 -0.87533352642E+01  0.11223488205E+04  0.11402151351E+04  0.15294330000E+03 0. -1.
<mgrwt>
<rscale>  0 0.20105641E+03</rscale>
<asrwt>0</asrwt>
<pdfrwt beam="1">  1        1 0.18309052E+00 0.20105641E+03</pdfrwt>
<pdfrwt beam="2">  1       -1 0.27812896E-01 0.20105641E+03</pdfrwt>
<totfact> 0.13911483E+02</totfact>
</mgrwt>
</event>
<event>
 4    1  0.2293715E-008  0.7300147E+03  0.7818608E-02  0.9667236E-01
         -1   -1    0    0    0  501 -0.00000000000E+00  0.00000000000E+00  0.67203692407E+03  0.67203692409E+03  0.50400000000E-02 0.  1.
          1   -1    0    0  501    0  0.00000000000E+00 -0.00000000000E+00 -0.16272229780E+04  0.16272229780E+04  0.50400000000E-02 0. -1.
    8880022    1    1    2    0    0  0.57404404566E+03 -0.42426793488E+03  0.34555335590E+03  0.80766863361E+03  0.15294330000E+03 0.  0.
    8880022    1    1    2    0    0 -0.57404404566E+03  0.42426793488E+03 -0.13007394098E+04  0.14915912685E+04  0.15294330000E+03 0.  0.
<mgrwt>
<rscale>  0 0.73001473E+03</rscale>
<asrwt>0</asrwt>
<pdfrwt beam="1">  1        1 0.25034200E+00 0.73001473E+03</pdfrwt>
<pdfrwt beam="2">  1       -1 0.10339030E+00 0.73001473E+03</pdfrwt>
<totfact> 0.49408657E+00</totfact>
</mgrwt>
</event>
<event>
 4    1  0.2293715E-008  0.3008802E+03  0.7818608E-02  0.1084801E+00
          1   -1    0    0  501    0  0.00000000000E+00  0.00000000000E+00  0.10517076497E+04  0.10517076498E+04  0.50400000000E-02 0. -1.
         -1   -1    0    0    0  501 -0.00000000000E+00 -0.00000000000E+00 -0.86268931820E+03  0.86268931822E+03  0.50400000000E-02 0.  1.
    8880022    1    1    2    0    0  0.62396009689E+02 -0.25148354334E+03 -0.81368069806E+03  0.86752819321E+03  0.15294330000E+03 0.  0.
    8880022    1    1    2    0    0 -0.62396009689E+02  0.25148354334E+03  0.10026990296E+04  0.10468687748E+04  0.15294330000E+03 0. -1.
<mgrwt>
<rscale>  0 0.30088019E+03</rscale>
<asrwt>0</asrwt>
<pdfrwt beam="1">  1        1 0.16180118E+00 0.30088019E+03</pdfrwt>
<pdfrwt beam="2">  1       -1 0.13272143E+00 0.30088019E+03</pdfrwt>
<totfact> 0.76281910E+00</totfact>
</mgrwt>
</event>
<event>
 4    1  0.2293715E-008  0.4657100E+03  0.7818608E-02  0.1023138E+00
          1   -1    0    0  501    0  0.00000000000E+00  0.00000000000E+00  0.24361013233E+03  0.24361013238E+03  0.50400000000E-02 0. -1.
         -1   -1    0    0    0  501 -0.00000000000E+00 -0.00000000000E+00 -0.23471688608E+04  0.23471688608E+04  0.50400000000E-02 0.  1.
    8880022    1    1    2    0    0 -0.25362990945E+03  0.35939675727E+03 -0.31219204898E+02  0.46675523765E+03  0.15294330000E+03 0.  0.
    8880022    1    1    2    0    0  0.25362990945E+03 -0.35939675727E+03 -0.20723395235E+04  0.21240237555E+04  0.15294330000E+03 0.  0.
<mgrwt>
<rscale>  0 0.46571001E+03</rscale>
<asrwt>0</asrwt>
<pdfrwt beam="1">  1        1 0.37478483E-01 0.46571001E+03</pdfrwt>
<pdfrwt beam="2">  1       -1 0.36110289E+00 0.46571001E+03</pdfrwt>
<totfact> 0.16983808E+00</totfact>
</mgrwt>
</event>
<event>
 4    1  0.2293715E-008  0.7142666E+03  0.7818608E-02  0.9693141E-01
          1   -1    0    0  501    0  0.00000000000E+00  0.00000000000E+00  0.49207733743E+03  0.49207733745E+03  0.50400000000E-02 0. -1.
         -1   -1    0    0    0  501 -0.00000000000E+00 -0.00000000000E+00 -0.14616324351E+04  0.14616324351E+04  0.50400000000E-02 0.  1.
    8880022    1    1    2    0    0 -0.62944697468E+03  0.30096772722E+03  0.41881093477E+02  0.71549335830E+03  0.15294330000E+03 0.  0.
    8880022    1    1    2    0    0  0.62944697468E+03 -0.30096772722E+03 -0.10114361911E+04  0.12382164142E+04  0.15294330000E+03 0.  0.
<mgrwt>
<rscale>  0 0.71426656E+03</rscale>
<asrwt>0</asrwt>
<pdfrwt beam="1">  1        1 0.75704206E-01 0.71426656E+03</pdfrwt>
<pdfrwt beam="2">  1       -1 0.22486653E+00 0.71426656E+03</pdfrwt>
<totfact> 0.48270866E+00</totfact>
</mgrwt>
</event>
<event>
 4    1  0.2293715E-008  0.5657593E+03  0.7818608E-02  0.9979107E-01
          1   -1    0    0  501    0  0.00000000000E+00  0.00000000000E+00  0.40589923611E+03  0.40589923614E+03  0.50400000000E-02 0. -1.
         -1   -1    0    0    0  501 -0.00000000000E+00 -0.00000000000E+00 -0.11877043668E+04  0.11877043668E+04  0.50400000000E-02 0.  1.
    8880022    1    1    2    0    0  0.38629921856E+03  0.38401149089E+03 -0.85280564956E+03  0.10234065860E+04  0.15294330000E+03 0.  0.
    8880022    1    1    2    0    0 -0.38629921856E+03 -0.38401149089E+03  0.71000518870E+02  0.57019701691E+03  0.15294330000E+03 0.  0.
<mgrwt>
<rscale>  0 0.56575928E+03</rscale>
<asrwt>0</asrwt>
<pdfrwt beam="1">  1        1 0.62446037E-01 0.56575928E+03</pdfrwt>
<pdfrwt beam="2">  1       -1 0.18272375E+00 0.56575928E+03</pdfrwt>
<totfact> 0.12356254E+01</totfact>
</mgrwt>
</event>
<event>
 4    1  0.2293715E-008  0.2760397E+03  0.7818608E-02  0.1097872E+00
          1   -1    0    0  501    0  0.00000000000E+00  0.00000000000E+00  0.53249960272E+03  0.53249960274E+03  0.50400000000E-02 0. -1.
         -1   -1    0    0    0  501 -0.00000000000E+00 -0.00000000000E+00 -0.31961104069E+03  0.31961104073E+03  0.50400000000E-02 0.  1.
    8880022    1    1    2    0    0 -0.22767674909E+02 -0.22866548230E+03  0.42307091613E+03  0.50516029427E+03  0.15294330000E+03 0.  0.
    8880022    1    1    2    0    0  0.22767674909E+02  0.22866548230E+03 -0.21018235410E+03  0.34695034920E+03  0.15294330000E+03 0.  0.
<mgrwt>
<rscale>  0 0.27603971E+03</rscale>
<asrwt>0</asrwt>
<pdfrwt beam="1">  1        1 0.81923015E-01 0.27603971E+03</pdfrwt>
<pdfrwt beam="2">  1       -1 0.49170930E-01 0.27603971E+03</pdfrwt>
<totfact> 0.17749073E+02</totfact>
</mgrwt>
</event>
<event>
 4    1  0.2293715E-008  0.1384970E+04  0.7818608E-02  0.8964770E-01
         -1   -1    0    0    0  501 -0.00000000000E+00  0.00000000000E+00  0.96357688227E+03  0.96357688229E+03  0.50400000000E-02 0.  1.
          1   -1    0    0  501    0  0.00000000000E+00 -0.00000000000E+00 -0.24731240161E+04  0.24731240161E+04  0.50400000000E-02 0. -1.
    8880022    1    1    2    0    0  0.10748033906E+04  0.85997017831E+03 -0.15137469054E+04  0.20517242462E+04  0.15294330000E+03 0.  0.
    8880022    1    1    2    0    0 -0.10748033906E+04 -0.85997017831E+03  0.41997715500E+01  0.13849766522E+04  0.15294330000E+03 0.  0.
<mgrwt>
<rscale>  0 0.13849703E+04</rscale>
<asrwt>0</asrwt>
<pdfrwt beam="1">  1        1 0.38048062E+00 0.13849703E+04</pdfrwt>
<pdfrwt beam="2">  1       -1 0.14824260E+00 0.13849703E+04</pdfrwt>
<totfact> 0.49046297E-01</totfact>
</mgrwt>
</event>
<event>
 4    1  0.2293715E-008  0.6028960E+03  0.7818608E-02  0.9899416E-01
          1   -1    0    0  501    0  0.00000000000E+00  0.00000000000E+00  0.25287095072E+04  0.25287095072E+04  0.50400000000E-02 0. -1.
         -1   -1    0    0    0  501 -0.00000000000E+00 -0.00000000000E+00 -0.18163570949E+03  0.18163570956E+03  0.50400000000E-02 0.  1.
    8880022    1    1    2    0    0 -0.45164503188E+03 -0.36892914035E+03  0.55456148825E+03  0.81915935122E+03  0.15294330000E+03 0.  1.
    8880022    1    1    2    0    0  0.45164503188E+03  0.36892914035E+03  0.17925123094E+04  0.18911858655E+04  0.15294330000E+03 0.  0.
<mgrwt>
<rscale>  0 0.60289601E+03</rscale>
<asrwt>0</asrwt>
<pdfrwt beam="1">  1        1 0.38903221E+00 0.60289601E+03</pdfrwt>
<pdfrwt beam="2">  1       -1 0.27943957E-01 0.60289601E+03</pdfrwt>
<totfact> 0.16096509E+01</totfact>
</mgrwt>
</event>
<event>
 4    1  0.2293715E-008  0.2429453E+03  0.7818608E-02  0.1117846E+00
          1   -1    0    0  501    0  0.00000000000E+00  0.00000000000E+00  0.72887368093E+03  0.72887368094E+03  0.50400000000E-02 0. -1.
         -1   -1    0    0    0  501 -0.00000000000E+00 -0.00000000000E+00 -0.28055041251E+03  0.28055041256E+03  0.50400000000E-02 0.  1.
    8880022    1    1    2    0    0  0.11105667479E+03  0.15263416538E+03 -0.20152393342E+03  0.31564904912E+03  0.15294330000E+03 0.  1.
    8880022    1    1    2    0    0 -0.11105667479E+03 -0.15263416538E+03  0.64984720183E+03  0.69377504438E+03  0.15294330000E+03 0.  0.
<mgrwt>
<rscale>  0 0.24294532E+03</rscale>
<asrwt>0</asrwt>
<pdfrwt beam="1">  1        1 0.11213441E+00 0.24294532E+03</pdfrwt>
<pdfrwt beam="2">  1       -1 0.43161602E-01 0.24294532E+03</pdfrwt>
<totfact> 0.14534277E+02</totfact>
</mgrwt>
</event>
<event>
 4    1  0.2293715E-008  0.4911434E+03  0.7818608E-02  0.1016117E+00
         -1   -1    0    0    0  501 -0.00000000000E+00  0.00000000000E+00  0.14905717564E+03  0.14905717572E+03  0.50400000000E-02 0.  1.
          1   -1    0    0  501    0  0.00000000000E+00 -0.00000000000E+00 -0.28259002422E+04  0.28259002422E+04  0.50400000000E-02 0. -1.
    8880022    1    1    2    0    0 -0.94621612173E+02  0.45703057752E+03 -0.23107897956E+04  0.23624079518E+04  0.15294330000E+03 0.  0.
    8880022    1    1    2    0    0  0.94621612173E+02 -0.45703057752E+03 -0.36605327103E+03  0.61254946619E+03  0.15294330000E+03 0.  0.
<mgrwt>
<rscale>  0 0.49114341E+03</rscale>
<asrwt>0</asrwt>
<pdfrwt beam="1">  1        1 0.43475384E+00 0.49114341E+03</pdfrwt>
<pdfrwt beam="2">  1       -1 0.22931875E-01 0.49114341E+03</pdfrwt>
<totfact> 0.14407311E+01</totfact>
</mgrwt>
</event>
<event>
 4    1  0.2293715E-008  0.8800358E+03  0.7818608E-02  0.9450888E-01
         -1   -1    0    0    0  501 -0.00000000000E+00  0.00000000000E+00  0.31901387988E+03  0.31901387992E+03  0.50400000000E-02 0.  1.
          1   -1    0    0  501    0  0.00000000000E+00 -0.00000000000E+00 -0.28632227616E+04  0.28632227616E+04  0.50400000000E-02 0. -1.
    8880022    1    1    2    0    0  0.26035984791E+03  0.82661004638E+03 -0.18926749848E+04  0.20872665547E+04  0.15294330000E+03 0.  0.
    8880022    1    1    2    0    0 -0.26035984791E+03 -0.82661004638E+03 -0.65153389686E+03  0.10949700868E+04  0.15294330000E+03 0.  0.
<mgrwt>
<rscale>  0 0.88003584E+03</rscale>
<asrwt>0</asrwt>
<pdfrwt beam="1">  1        1 0.44049579E+00 0.88003584E+03</pdfrwt>
<pdfrwt beam="2">  1       -1 0.49079060E-01 0.88003584E+03</pdfrwt>
<totfact> 0.32595414E+00</totfact>
</mgrwt>
</event>
<event>
 4    1  0.2293715E-008  0.5390874E+03  0.7818608E-02  0.1004052E+00
         -1   -1    0    0    0  501 -0.00000000000E+00  0.00000000000E+00  0.48070163131E+03  0.48070163133E+03  0.50400000000E-02 0.  1.
          1   -1    0    0  501    0  0.00000000000E+00 -0.00000000000E+00 -0.91871694173E+03  0.91871694174E+03  0.50400000000E-02 0. -1.
    8880022    1    1    2    0    0  0.36819739766E+03 -0.36284183587E+03 -0.62817121418E+03  0.82777669020E+03  0.15294330000E+03 0.  0.
    8880022    1    1    2    0    0 -0.36819739766E+03  0.36284183587E+03  0.19015590376E+03  0.57164188287E+03  0.15294330000E+03 0.  0.
<mgrwt>
<rscale>  0 0.53908735E+03</rscale>
<asrwt>0</asrwt>
<pdfrwt beam="1">  1        1 0.14134107E+00 0.53908735E+03</pdfrwt>
<pdfrwt beam="2">  1       -1 0.73954097E-01 0.53908735E+03</pdfrwt>
<totfact> 0.34067783E+01</totfact>
</mgrwt>
</event>
<event>
 4    1  0.2293715E-008  0.5769223E+03  0.7818608E-02  0.9954477E-01
          1   -1    0    0  501    0  0.00000000000E+00  0.00000000000E+00  0.12440045647E+04  0.12440045647E+04  0.50400000000E-02 0. -1.
         -1   -1    0    0    0  501 -0.00000000000E+00 -0.00000000000E+00 -0.61236163854E+03  0.61236163856E+03  0.50400000000E-02 0.  1.
    8880022    1    1    2    0    0 -0.55452648134E+03 -0.44136685689E+02 -0.38067295783E+03  0.69119550010E+03  0.15294330000E+03 0.  0.
    8880022    1    1    2    0    0  0.55452648134E+03  0.44136685689E+02  0.10123158840E+04  0.11651707031E+04  0.15294330000E+03 0.  0.
<mgrwt>
<rscale>  0 0.57692228E+03</rscale>
<asrwt>0</asrwt>
<pdfrwt beam="1">  1        1 0.19138532E+00 0.57692228E+03</pdfrwt>
<pdfrwt beam="2">  1       -1 0.94209482E-01 0.57692228E+03</pdfrwt>
<totfact> 0.11520995E+01</totfact>
</mgrwt>
</event>
<event>
 4    1  0.2293715E-008  0.2359125E+03  0.7818608E-02  0.1122546E+00
          1   -1    0    0  501    0  0.00000000000E+00  0.00000000000E+00  0.11384930106E+04  0.11384930106E+04  0.50400000000E-02 0. -1.
         -1   -1    0    0    0  501 -0.00000000000E+00 -0.00000000000E+00 -0.22849661286E+03  0.22849661292E+03  0.50400000000E-02 0.  1.
    8880022    1    1    2    0    0 -0.80794167346E+02  0.16042248041E+03  0.10609848883E+04  0.10868963409E+04  0.15294330000E+03 0.  0.
    8880022    1    1    2    0    0  0.80794167346E+02 -0.16042248041E+03 -0.15098849052E+03  0.28009328264E+03  0.15294330000E+03 0.  1.
<mgrwt>
<rscale>  0 0.23591253E+03</rscale>
<asrwt>0</asrwt>
<pdfrwt beam="1">  1        1 0.17515277E+00 0.23591253E+03</pdfrwt>
<pdfrwt beam="2">  1       -1 0.35153326E-01 0.23591253E+03</pdfrwt>
<totfact> 0.10037033E+02</totfact>
</mgrwt>
</event>
<event>
 4    1  0.2293715E-008  0.5859447E+03  0.7818608E-02  0.9935003E-01
          1   -1    0    0  501    0  0.00000000000E+00  0.00000000000E+00  0.11989007632E+04  0.11989007632E+04  0.50400000000E-02 0. -1.
         -1   -1    0    0    0  501 -0.00000000000E+00 -0.00000000000E+00 -0.60162170934E+03  0.60162170936E+03  0.50400000000E-02 0.  1.
    8880022    1    1    2    0    0  0.33941178263E+03 -0.45248111123E+03  0.95031954140E+03  0.11164400557E+04  0.15294330000E+03 0.  0.
    8880022    1    1    2    0    0 -0.33941178263E+03  0.45248111123E+03 -0.35304048754E+03  0.68408241687E+03  0.15294330000E+03 0.  0.
<mgrwt>
<rscale>  0 0.58594468E+03</rscale>
<asrwt>0</asrwt>
<pdfrwt beam="1">  1        1 0.18444627E+00 0.58594468E+03</pdfrwt>
<pdfrwt beam="2">  1       -1 0.92557188E-01 0.58594468E+03</pdfrwt>
<totfact> 0.12883439E+01</totfact>
</mgrwt>
</event>
<event>
 4    1  0.2293715E-008  0.2032236E+03  0.7818608E-02  0.1147047E+00
         -1   -1    0    0    0  501 -0.00000000000E+00  0.00000000000E+00  0.31831777077E+03  0.31831777081E+03  0.50400000000E-02 0.  1.
          1   -1    0    0  501    0  0.00000000000E+00 -0.00000000000E+00 -0.42807937379E+03  0.42807937382E+03  0.50400000000E-02 0. -1.
    8880022    1    1    2    0    0  0.88226466806E+02  0.10061949753E+03  0.25667090965E+03  0.32738326409E+03  0.15294330000E+03 0.  0.
    8880022    1    1    2    0    0 -0.88226466806E+02 -0.10061949753E+03 -0.36643251267E+03  0.41901388054E+03  0.15294330000E+03 0.  0.
<mgrwt>
<rscale>  0 0.20322363E+03</rscale>
<asrwt>0</asrwt>
<pdfrwt beam="1">  1        1 0.65858365E-01 0.20322363E+03</pdfrwt>
<pdfrwt beam="2">  1       -1 0.48971965E-01 0.20322363E+03</pdfrwt>
<totfact> 0.24078868E+02</totfact>
</mgrwt>
</event>
<event>
 4    1  0.2293715E-008  0.9199030E+03  0.7818608E-02  0.9401038E-01
         -1   -1    0    0    0  501 -0.00000000000E+00  0.00000000000E+00  0.83451157875E+03  0.83451157876E+03  0.50400000000E-02 0.  1.
          1   -1    0    0  501    0  0.00000000000E+00 -0.00000000000E+00 -0.13799536131E+04  0.13799536131E+04  0.50400000000E-02 0. -1.
    8880022    1    1    2    0    0 -0.24340855310E+03  0.87383183260E+03  0.29744410481E+03  0.96679596808E+03  0.15294330000E+03 0.  0.
    8880022    1    1    2    0    0  0.24340855310E+03 -0.87383183260E+03 -0.84288613917E+03  0.12476692238E+04  0.15294330000E+03 0.  0.
<mgrwt>
<rscale>  0 0.91990296E+03</rscale>
<asrwt>0</asrwt>
<pdfrwt beam="1">  1        1 0.21230056E+00 0.91990296E+03</pdfrwt>
<pdfrwt beam="2">  1       -1 0.12838640E+00 0.91990296E+03</pdfrwt>
<totfact> 0.42158339E+00</totfact>
</mgrwt>
</event>
<event>
 4    1  0.2293715E-008  0.1093994E+04  0.7818608E-02  0.9211066E-01
          1   -1    0    0  501    0  0.00000000000E+00  0.00000000000E+00  0.90846799872E+03  0.90846799874E+03  0.50400000000E-02 0. -1.
         -1   -1    0    0    0  501 -0.00000000000E+00 -0.00000000000E+00 -0.15038121295E+04  0.15038121295E+04  0.50400000000E-02 0.  1.
    8880022    1    1    2    0    0 -0.90824026812E+03 -0.59036422364E+03 -0.72232102989E+03  0.13109422659E+04  0.15294330000E+03 0.  0.
    8880022    1    1    2    0    0  0.90824026812E+03  0.59036422364E+03  0.12697689913E+03  0.11013378624E+04  0.15294330000E+03 0.  0.
<mgrwt>
<rscale>  0 0.10939936E+04</rscale>
<asrwt>0</asrwt>
<pdfrwt beam="1">  1        1 0.13976431E+00 0.10939936E+04</pdfrwt>
<pdfrwt beam="2">  1       -1 0.23135571E+00 0.10939936E+04</pdfrwt>
<totfact> 0.16463518E+00</totfact>
</mgrwt>
</event>
<event>
 4    1  0.2293715E-008  0.5179255E+03  0.7818608E-02  0.1009203E+00
         -1   -1    0    0    0  501 -0.00000000000E+00  0.00000000000E+00  0.20088390728E+03  0.20088390734E+03  0.50400000000E-02 0.  1.
          1   -1    0    0  501    0  0.00000000000E+00 -0.00000000000E+00 -0.23551448983E+04  0.23551448983E+04  0.50400000000E-02 0. -1.
    8880022    1    1    2    0    0  0.16954577213E+03  0.46487569876E+03 -0.23614782360E+03  0.56922107458E+03  0.15294330000E+03 0.  0.
    8880022    1    1    2    0    0 -0.16954577213E+03 -0.46487569876E+03 -0.19181131675E+04  0.19868077311E+04  0.15294330000E+03 0.  0.
<mgrwt>
<rscale>  0 0.51792551E+03</rscale>
<asrwt>0</asrwt>
<pdfrwt beam="1">  1        1 0.36232996E+00 0.51792551E+03</pdfrwt>
<pdfrwt beam="2">  1       -1 0.30905218E-01 0.51792551E+03</pdfrwt>
<totfact> 0.18023667E+01</totfact>
</mgrwt>
</event>
<event>
 4    1  0.2293715E-008  0.2414170E+03  0.7818608E-02  0.1118852E+00
          1   -1    0    0  501    0  0.00000000000E+00  0.00000000000E+00  0.12542362964E+04  0.12542362964E+04  0.50400000000E-02 0. -1.
         -1   -1    0    0    0  501 -0.00000000000E+00 -0.00000000000E+00 -0.46123949950E+03  0.46123949953E+03  0.50400000000E-02 0.  1.
    8880022    1    1    2    0    0  0.17754888620E+03 -0.58024893052E+02  0.12098825065E+04  0.12337332888E+04  0.15294330000E+03 0.  0.
    8880022    1    1    2    0    0 -0.17754888620E+03  0.58024893052E+02 -0.41688570968E+03  0.48174250711E+03  0.15294330000E+03 0.  1.
<mgrwt>
<rscale>  0 0.24141696E+03</rscale>
<asrwt>0</asrwt>
<pdfrwt beam="1">  1        1 0.19295943E+00 0.24141696E+03</pdfrwt>
<pdfrwt beam="2">  1       -1 0.70959923E-01 0.24141696E+03</pdfrwt>
<totfact> 0.22550006E+01</totfact>
</mgrwt>
</event>
<event>
 4    1  0.2293715E-008  0.2407157E+03  0.7818608E-02  0.1119317E+00
          1   -1    0    0  501    0  0.00000000000E+00  0.00000000000E+00  0.10342368046E+04  0.10342368046E+04  0.50400000000E-02 0. -1.
         -1   -1    0    0    0  501 -0.00000000000E+00 -0.00000000000E+00 -0.10829081377E+03  0.10829081389E+03  0.50400000000E-02 0.  1.
    8880022    1    1    2    0    0  0.11906819441E+03 -0.14274152510E+03  0.66104988774E+02  0.24962752345E+03  0.15294330000E+03 0.  1.
    8880022    1    1    2    0    0 -0.11906819441E+03  0.14274152510E+03  0.85984100203E+03  0.89290009502E+03  0.15294330000E+03 0. -1.
<mgrwt>
<rscale>  0 0.24071566E+03</rscale>
<asrwt>0</asrwt>
<pdfrwt beam="1">  1        1 0.15911335E+00 0.24071566E+03</pdfrwt>
<pdfrwt beam="2">  1       -1 0.16660126E-01 0.24071566E+03</pdfrwt>
<totfact> 0.41300681E+02</totfact>
</mgrwt>
</event>
<event>
 4    1  0.2293715E-008  0.3857765E+03  0.7818608E-02  0.1048819E+00
         -1   -1    0    0    0  501 -0.00000000000E+00  0.00000000000E+00  0.23181782853E+03  0.23181782859E+03  0.50400000000E-02 0.  1.
          1   -1    0    0  501    0  0.00000000000E+00 -0.00000000000E+00 -0.16512039272E+04  0.16512039272E+04  0.50400000000E-02 0. -1.
    8880022    1    1    2    0    0 -0.31681976273E+03  0.15829425416E+03 -0.14457607413E+04  0.14963447488E+04  0.15294330000E+03 0.  0.
    8880022    1    1    2    0    0  0.31681976273E+03 -0.15829425416E+03  0.26374642697E+02  0.38667700701E+03  0.15294330000E+03 0.  0.
<mgrwt>
<rscale>  0 0.38577647E+03</rscale>
<asrwt>0</asrwt>
<pdfrwt beam="1">  1        1 0.25403137E+00 0.38577647E+03</pdfrwt>
<pdfrwt beam="2">  1       -1 0.35664282E-01 0.38577647E+03</pdfrwt>
<totfact> 0.42245029E+01</totfact>
</mgrwt>
</event>
<event>
 4    1  0.2293715E-008  0.5356824E+03  0.7818608E-02  0.1004863E+00
         -1   -1    0    0    0  501 -0.00000000000E+00  0.00000000000E+00  0.66915868371E+03  0.66915868373E+03  0.50400000000E-02 0.  1.
          1   -1    0    0  501    0  0.00000000000E+00 -0.00000000000E+00 -0.18992410239E+04  0.18992410239E+04  0.50400000000E-02 0. -1.
    8880022    1    1    2    0    0  0.33043073558E+03 -0.39291164566E+03 -0.17449980452E+04  0.18253695141E+04  0.15294330000E+03 0.  0.
    8880022    1    1    2    0    0 -0.33043073558E+03  0.39291164566E+03  0.51491570496E+03  0.74303019356E+03  0.15294330000E+03 0.  0.
<mgrwt>
<rscale>  0 0.53568245E+03</rscale>
<asrwt>0</asrwt>
<pdfrwt beam="1">  1        1 0.29219092E+00 0.53568245E+03</pdfrwt>
<pdfrwt beam="2">  1       -1 0.10294749E+00 0.53568245E+03</pdfrwt>
<totfact> 0.34228469E+00</totfact>
</mgrwt>
</event>
<event>
 4    1  0.2293715E-008  0.1121769E+04  0.7818608E-02  0.9184231E-01
          1   -1    0    0  501    0  0.00000000000E+00  0.00000000000E+00  0.23281844977E+04  0.23281844978E+04  0.50400000000E-02 0. -1.
         -1   -1    0    0    0  501 -0.00000000000E+00 -0.00000000000E+00 -0.13475402642E+04  0.13475402642E+04  0.50400000000E-02 0.  1.
    8880022    1    1    2    0    0 -0.36171710853E+03  0.10507776459E+04 -0.93198022914E+03  0.14584072574E+04  0.15294330000E+03 0.  0.
    8880022    1    1    2    0    0  0.36171710853E+03 -0.10507776459E+04  0.19126244627E+04  0.22173175046E+04  0.15294330000E+03 0.  0.
<mgrwt>
<rscale>  0 0.11217685E+04</rscale>
<asrwt>0</asrwt>
<pdfrwt beam="1">  1        1 0.35818223E+00 0.11217685E+04</pdfrwt>
<pdfrwt beam="2">  1       -1 0.20731389E+00 0.11217685E+04</pdfrwt>
<totfact> 0.23783575E-01</totfact>
</mgrwt>
</event>
<event>
 4    1  0.2293715E-008  0.1209646E+04  0.7818608E-02  0.9104455E-01
         -1   -1    0    0    0  501 -0.00000000000E+00  0.00000000000E+00  0.10893832370E+04  0.10893832370E+04  0.50400000000E-02 0.  1.
          1   -1    0    0  501    0  0.00000000000E+00 -0.00000000000E+00 -0.17390871623E+04  0.17390871623E+04  0.50400000000E-02 0. -1.
    8880022    1    1    2    0    0 -0.11668826766E+04  0.27971006669E+03 -0.99961958269E+03  0.15692303417E+04  0.15294330000E+03 0.  0.
    8880022    1    1    2    0    0  0.11668826766E+04 -0.27971006669E+03  0.34991565732E+03  0.12592400576E+04  0.15294330000E+03 0.  0.
<mgrwt>
<rscale>  0 0.12096465E+04</rscale>
<asrwt>0</asrwt>
<pdfrwt beam="1">  1        1 0.26755187E+00 0.12096465E+04</pdfrwt>
<pdfrwt beam="2">  1       -1 0.16759742E+00 0.12096465E+04</pdfrwt>
<totfact> 0.11256266E+00</totfact>
</mgrwt>
</event>
<event>
 4    1  0.2293715E-008  0.3461227E+03  0.7818608E-02  0.1064218E+00
         -1   -1    0    0    0  501 -0.00000000000E+00  0.00000000000E+00  0.27627741233E+03  0.27627741237E+03  0.50400000000E-02 0.  1.
          1   -1    0    0  501    0  0.00000000000E+00 -0.00000000000E+00 -0.76977662359E+03  0.76977662360E+03  0.50400000000E-02 0. -1.
    8880022    1    1    2    0    0  0.19373422477E+03  0.24264436258E+03 -0.59237778630E+03  0.68608478430E+03  0.15294330000E+03 0.  0.
    8880022    1    1    2    0    0 -0.19373422477E+03 -0.24264436258E+03  0.98878575036E+02  0.35996925168E+03  0.15294330000E+03 0.  0.
<mgrwt>
<rscale>  0 0.34612265E+03</rscale>
<asrwt>0</asrwt>
<pdfrwt beam="1">  1        1 0.11842717E+00 0.34612265E+03</pdfrwt>
<pdfrwt beam="2">  1       -1 0.42504218E-01 0.34612265E+03</pdfrwt>
<totfact> 0.13531827E+02</totfact>
</mgrwt>
</event>
<event>
 4    1  0.2293715E-008  0.5027536E+03  0.7818608E-02  0.1013063E+00
         -1   -1    0    0    0  501 -0.00000000000E+00  0.00000000000E+00  0.36955069638E+03  0.36955069642E+03  0.50400000000E-02 0.  1.
          1   -1    0    0  501    0  0.00000000000E+00 -0.00000000000E+00 -0.15792955900E+04  0.15792955900E+04  0.50400000000E-02 0. -1.
    8880022    1    1    2    0    0 -0.12249661432E+03 -0.46299469678E+03  0.12880751516E+03  0.51899184844E+03  0.15294330000E+03 0.  0.
    8880022    1    1    2    0    0  0.12249661432E+03  0.46299469678E+03 -0.13385524087E+04  0.14298544380E+04  0.15294330000E+03 0.  0.
<mgrwt>
<rscale>  0 0.50275358E+03</rscale>
<asrwt>0</asrwt>
<pdfrwt beam="1">  1        1 0.24296855E+00 0.50275358E+03</pdfrwt>
<pdfrwt beam="2">  1       -1 0.56853954E-01 0.50275358E+03</pdfrwt>
<totfact> 0.19489544E+01</totfact>
</mgrwt>
</event>
<event>
 4    1  0.2293715E-008  0.2144378E+03  0.7818608E-02  0.1138099E+00
         -1   -1    0    0    0  501 -0.00000000000E+00  0.00000000000E+00  0.31175919362E+03  0.31175919367E+03  0.50400000000E-02 0.  1.
          1   -1    0    0  501    0  0.00000000000E+00 -0.00000000000E+00 -0.31140159459E+03  0.31140159463E+03  0.50400000000E-02 0. -1.
    8880022    1    1    2    0    0 -0.10365594569E+03  0.10884567551E+03 -0.22587149954E+03  0.31145067583E+03  0.15294330000E+03 0. -1.
    8880022    1    1    2    0    0  0.10365594569E+03 -0.10884567551E+03  0.22622909858E+03  0.31171011247E+03  0.15294330000E+03 0.  0.
<mgrwt>
<rscale>  0 0.21443784E+03</rscale>
<asrwt>0</asrwt>
<pdfrwt beam="1">  1        1 0.47907938E-01 0.21443784E+03</pdfrwt>
<pdfrwt beam="2">  1       -1 0.47962953E-01 0.21443784E+03</pdfrwt>
<totfact> 0.37431582E+02</totfact>
</mgrwt>
</event>
<event>
 4    1  0.2293715E-008  0.2809407E+03  0.7818608E-02  0.1095176E+00
          1   -1    0    0  501    0  0.00000000000E+00  0.00000000000E+00  0.57497565070E+03  0.57497565072E+03  0.50400000000E-02 0. -1.
         -1   -1    0    0    0  501 -0.00000000000E+00 -0.00000000000E+00 -0.17086352417E+03  0.17086352424E+03  0.50400000000E-02 0.  1.
    8880022    1    1    2    0    0 -0.21905919636E+03 -0.86885471967E+02  0.36703957518E+02  0.28332816708E+03  0.15294330000E+03 0.  0.
    8880022    1    1    2    0    0  0.21905919636E+03  0.86885471967E+02  0.36740816901E+03  0.46251100789E+03  0.15294330000E+03 0.  0.
<mgrwt>
<rscale>  0 0.28094069E+03</rscale>
<asrwt>0</asrwt>
<pdfrwt beam="1">  1        1 0.88457792E-01 0.28094069E+03</pdfrwt>
<pdfrwt beam="2">  1       -1 0.26286696E-01 0.28094069E+03</pdfrwt>
<totfact> 0.48006319E+02</totfact>
</mgrwt>
</event>
<event>
 4    1  0.2293715E-008  0.4431275E+03  0.7818608E-02  0.1029792E+00
          1   -1    0    0  501    0  0.00000000000E+00  0.00000000000E+00  0.31371285384E+03  0.31371285388E+03  0.50400000000E-02 0. -1.
         -1   -1    0    0    0  501 -0.00000000000E+00 -0.00000000000E+00 -0.75358437084E+03  0.75358437086E+03  0.50400000000E-02 0.  1.
    8880022    1    1    2    0    0 -0.34830121212E+02 -0.41443603159E+03 -0.43957440699E+03  0.62416958747E+03  0.15294330000E+03 0.  0.
    8880022    1    1    2    0    0  0.34830121212E+02  0.41443603159E+03 -0.29711000996E+00  0.44312763727E+03  0.15294330000E+03 0.  0.
<mgrwt>
<rscale>  0 0.44312754E+03</rscale>
<asrwt>0</asrwt>
<pdfrwt beam="1">  1        1 0.48263516E-01 0.44312754E+03</pdfrwt>
<pdfrwt beam="2">  1       -1 0.11593606E+00 0.44312754E+03</pdfrwt>
<totfact> 0.58455316E+01</totfact>
</mgrwt>
</event>
<event>
 4    1  0.2293715E-008  0.7847652E+03  0.7818608E-02  0.9582334E-01
         -1   -1    0    0    0  501 -0.00000000000E+00  0.00000000000E+00  0.15582566706E+04  0.15582566706E+04  0.50400000000E-02 0.  1.
          1   -1    0    0  501    0  0.00000000000E+00 -0.00000000000E+00 -0.42017843531E+03  0.42017843534E+03  0.50400000000E-02 0. -1.
    8880022    1    1    2    0    0 -0.52118039917E+03 -0.56642369763E+03  0.32795368843E+03  0.85053517769E+03  0.15294330000E+03 0.  0.
    8880022    1    1    2    0    0  0.52118039917E+03  0.56642369763E+03  0.81012454684E+03  0.11278999282E+04  0.15294330000E+03 0.  0.
<mgrwt>
<rscale>  0 0.78476523E+03</rscale>
<asrwt>0</asrwt>
<pdfrwt beam="1">  1        1 0.64642837E-01 0.78476523E+03</pdfrwt>
<pdfrwt beam="2">  1       -1 0.23973179E+00 0.78476523E+03</pdfrwt>
<totfact> 0.47282678E+00</totfact>
</mgrwt>
</event>
<event>
 4    1  0.2293715E-008  0.7635845E+03  0.7818608E-02  0.9614276E-01
          1   -1    0    0  501    0  0.00000000000E+00  0.00000000000E+00  0.25105785723E+04  0.25105785723E+04  0.50400000000E-02 0. -1.
         -1   -1    0    0    0  501 -0.00000000000E+00 -0.00000000000E+00 -0.67985604711E+03  0.67985604713E+03  0.50400000000E-02 0.  1.
    8880022    1    1    2    0    0  0.14245548574E+03 -0.73442224138E+03  0.22097458391E+04  0.23379559279E+04  0.15294330000E+03 0.  0.
    8880022    1    1    2    0    0 -0.14245548574E+03  0.73442224138E+03 -0.37902331394E+03  0.85247869157E+03  0.15294330000E+03 0.  0.
<mgrwt>
<rscale>  0 0.76358447E+03</rscale>
<asrwt>0</asrwt>
<pdfrwt beam="1">  1        1 0.38624286E+00 0.76358447E+03</pdfrwt>
<pdfrwt beam="2">  1       -1 0.10459324E+00 0.76358447E+03</pdfrwt>
<totfact> 0.12172767E+00</totfact>
</mgrwt>
</event>
<event>
 4    1  0.2293715E-008  0.4897684E+03  0.7818608E-02  0.1016485E+00
          1   -1    0    0  501    0  0.00000000000E+00  0.00000000000E+00  0.16682431830E+04  0.16682431830E+04  0.50400000000E-02 0. -1.
         -1   -1    0    0    0  501 -0.00000000000E+00 -0.00000000000E+00 -0.73769201128E+03  0.73769201130E+03  0.50400000000E-02 0.  1.
    8880022    1    1    2    0    0  0.51332319699E+02 -0.46243535215E+03 -0.61410491999E+03  0.78549218184E+03  0.15294330000E+03 0.  1.
    8880022    1    1    2    0    0 -0.51332319699E+02  0.46243535215E+03  0.15446560917E+04  0.16204430124E+04  0.15294330000E+03 0.  0.
<mgrwt>
<rscale>  0 0.48976843E+03</rscale>
<asrwt>0</asrwt>
<pdfrwt beam="1">  1        1 0.25665280E+00 0.48976843E+03</pdfrwt>
<pdfrwt beam="2">  1       -1 0.11349108E+00 0.48976843E+03</pdfrwt>
<totfact> 0.39317765E+00</totfact>
</mgrwt>
</event>
<event>
 4    1  0.2293715E-008  0.2072359E+03  0.7818608E-02  0.1143774E+00
          1   -1    0    0  501    0  0.00000000000E+00  0.00000000000E+00  0.82775860618E+03  0.82775860620E+03  0.50400000000E-02 0. -1.
         -1   -1    0    0    0  501 -0.00000000000E+00 -0.00000000000E+00 -0.55996958443E+02  0.55996958670E+02  0.50400000000E-02 0.  1.
    8880022    1    1    2    0    0  0.82286857841E+01  0.13959714986E+03  0.26611257719E+03  0.33728716589E+03  0.15294330000E+03 0.  1.
    8880022    1    1    2    0    0 -0.82286857841E+01 -0.13959714986E+03  0.50564907055E+03  0.54646839898E+03  0.15294330000E+03 0. -1.
<mgrwt>
<rscale>  0 0.20723592E+03</rscale>
<asrwt>0</asrwt>
<pdfrwt beam="1">  1        1 0.12734748E+00 0.20723592E+03</pdfrwt>
<pdfrwt beam="2">  1       -1 0.86149166E-02 0.20723592E+03</pdfrwt>
<totfact> 0.16739875E+03</totfact>
</mgrwt>
</event>
<event>
 4    1  0.2293715E-008  0.1655600E+03  0.7818608E-02  0.1182559E+00
         -1   -1    0    0    0  501 -0.00000000000E+00  0.00000000000E+00  0.15293425137E+03  0.15293425146E+03  0.50400000000E-02 0.  1.
          1   -1    0    0  501    0  0.00000000000E+00 -0.00000000000E+00 -0.18319451778E+03  0.18319451785E+03  0.50400000000E-02 0. -1.
    8880022    1    1    2    0    0 -0.53096158773E+02  0.34630442227E+02 -0.39859674973E+02  0.17029068180E+03  0.15294330000E+03 0. -1.
    8880022    1    1    2    0    0  0.53096158773E+02 -0.34630442227E+02  0.95994085702E+01  0.16583808750E+03  0.15294330000E+03 0.  1.
<mgrwt>
<rscale>  0 0.16556003E+03</rscale>
<asrwt>0</asrwt>
<pdfrwt beam="1">  1        1 0.28183772E-01 0.16556003E+03</pdfrwt>
<pdfrwt beam="2">  1       -1 0.23528346E-01 0.16556003E+03</pdfrwt>
<totfact> 0.24754922E+03</totfact>
</mgrwt>
</event>
<event>
 4    1  0.2293715E-008  0.3118662E+03  0.7818608E-02  0.1079455E+00
         -1   -1    0    0    0  501 -0.00000000000E+00  0.00000000000E+00  0.12149510653E+04  0.12149510653E+04  0.50400000000E-02 0.  1.
          1   -1    0    0  501    0  0.00000000000E+00 -0.00000000000E+00 -0.96683914386E+02  0.96683914517E+02  0.50400000000E-02 0. -1.
    8880022    1    1    2    0    0  0.94396578897E+02  0.25486893070E+03  0.83113005793E+03  0.88771488224E+03  0.15294330000E+03 0.  0.
    8880022    1    1    2    0    0 -0.94396578897E+02 -0.25486893070E+03  0.28713709294E+03  0.42392009754E+03  0.15294330000E+03 0.  0.
<mgrwt>
<rscale>  0 0.31186622E+03</rscale>
<asrwt>0</asrwt>
<pdfrwt beam="1">  1        1 0.14874449E-01 0.31186622E+03</pdfrwt>
<pdfrwt beam="2">  1       -1 0.18691555E+00 0.31186622E+03</pdfrwt>
<totfact> 0.76999487E+01</totfact>
</mgrwt>
</event>
<event>
 4    1  0.2293715E-008  0.7205016E+03  0.7818608E-02  0.9682800E-01
          1   -1    0    0  501    0  0.00000000000E+00  0.00000000000E+00  0.53847263747E+03  0.53847263750E+03  0.50400000000E-02 0. -1.
         -1   -1    0    0    0  501 -0.00000000000E+00 -0.00000000000E+00 -0.13055060355E+04  0.13055060355E+04  0.50400000000E-02 0.  1.
    8880022    1    1    2    0    0  0.68256019330E+03 -0.17274971951E+03 -0.85503050842E+03  0.11181232966E+04  0.15294330000E+03 0.  0.
    8880022    1    1    2    0    0 -0.68256019330E+03  0.17274971951E+03  0.87997110354E+02  0.72585537644E+03  0.15294330000E+03 0.  0.
<mgrwt>
<rscale>  0 0.72050159E+03</rscale>
<asrwt>0</asrwt>
<pdfrwt beam="1">  1        1 0.82841945E-01 0.72050159E+03</pdfrwt>
<pdfrwt beam="2">  1       -1 0.20084708E+00 0.72050159E+03</pdfrwt>
<totfact> 0.61668036E+00</totfact>
</mgrwt>
</event>
<event>
 4    1  0.2293715E-008  0.2716251E+03  0.7818608E-02  0.1100353E+00
          1   -1    0    0  501    0  0.00000000000E+00  0.00000000000E+00  0.28462802333E+03  0.28462802337E+03  0.50400000000E-02 0. -1.
         -1   -1    0    0    0  501 -0.00000000000E+00 -0.00000000000E+00 -0.18063044999E+04  0.18063044999E+04  0.50400000000E-02 0.  1.
    8880022    1    1    2    0    0 -0.94600948802E+01 -0.22427450866E+03  0.20670879958E+03  0.34133375085E+03  0.15294330000E+03 0.  0.
    8880022    1    1    2    0    0  0.94600948802E+01  0.22427450866E+03 -0.17283852761E+04  0.17495987724E+04  0.15294330000E+03 0.  1.
<mgrwt>
<rscale>  0 0.27162511E+03</rscale>
<asrwt>0</asrwt>
<pdfrwt beam="1">  1        1 0.43788928E-01 0.27162511E+03</pdfrwt>
<pdfrwt beam="2">  1       -1 0.27789299E+00 0.27162511E+03</pdfrwt>
<totfact> 0.50253410E+00</totfact>
</mgrwt>
</event>
<event>
 4    1  0.2293715E-008  0.2371373E+03  0.7818608E-02  0.1121715E+00
         -1   -1    0    0    0  501 -0.00000000000E+00  0.00000000000E+00  0.75648323692E+03  0.75648323694E+03  0.50400000000E-02 0.  1.
          1   -1    0    0  501    0  0.00000000000E+00 -0.00000000000E+00 -0.70683722240E+03  0.70683722242E+03  0.50400000000E-02 0. -1.
    8880022    1    1    2    0    0  0.10934128586E+01  0.18122156836E+03 -0.66729532371E+03  0.70817875883E+03  0.15294330000E+03 0.  0.
    8880022    1    1    2    0    0 -0.10934128586E+01 -0.18122156836E+03  0.71694133824E+03  0.75514170053E+03  0.15294330000E+03 0.  0.
<mgrwt>
<rscale>  0 0.23713731E+03</rscale>
<asrwt>0</asrwt>
<pdfrwt beam="1">  1        1 0.10874419E+00 0.23713731E+03</pdfrwt>
<pdfrwt beam="2">  1       -1 0.11638204E+00 0.23713731E+03</pdfrwt>
<totfact> 0.20351566E+01</totfact>
</mgrwt>
</event>
<event>
 4    1  0.2293715E-008  0.7125144E+03  0.7818608E-02  0.9696067E-01
         -1   -1    0    0    0  501 -0.00000000000E+00  0.00000000000E+00  0.21135141001E+04  0.21135141001E+04  0.50400000000E-02 0.  1.
          1   -1    0    0  501    0  0.00000000000E+00 -0.00000000000E+00 -0.54927446734E+03  0.54927446736E+03  0.50400000000E-02 0. -1.
    8880022    1    1    2    0    0 -0.36449883746E+03 -0.59281170485E+03 -0.21659155463E+03  0.74470710650E+03  0.15294330000E+03 0.  0.
    8880022    1    1    2    0    0  0.36449883746E+03  0.59281170485E+03  0.17808311874E+04  0.19180814609E+04  0.15294330000E+03 0.  0.
<mgrwt>
<rscale>  0 0.71251440E+03</rscale>
<asrwt>0</asrwt>
<pdfrwt beam="1">  1        1 0.84503765E-01 0.71251440E+03</pdfrwt>
<pdfrwt beam="2">  1       -1 0.32515601E+00 0.71251440E+03</pdfrwt>
<totfact> 0.93971180E-01</totfact>
</mgrwt>
</event>
<event>
 4    1  0.3577780E-008  0.5880479E+03  0.7818608E-02  0.9930518E-01
          1   -1    0    0  501    0  0.00000000000E+00  0.00000000000E+00  0.19856909918E+04  0.19856909918E+04  0.50400000000E-02 0. -1.
         -1   -1    0    0    0  501 -0.00000000000E+00 -0.00000000000E+00 -0.80790394221E+03  0.80790394223E+03  0.50400000000E-02 0.  1.
    8880022    1    1    2    0    0 -0.42782996527E+03 -0.37332325945E+03 -0.64823619562E+03  0.87522028859E+03  0.15294330000E+03 0.  0.
    8880022    1    1    2    0    0  0.42782996527E+03  0.37332325945E+03  0.18260232452E+04  0.19183746455E+04  0.15294330000E+03 0.  0.
<mgrwt>
<rscale>  0 0.58804795E+03</rscale>
<asrwt>0</asrwt>
<pdfrwt beam="1">  1        1 0.30549092E+00 0.58804795E+03</pdfrwt>
<pdfrwt beam="2">  1       -1 0.12429291E+00 0.58804795E+03</pdfrwt>
<totfact> 0.18927060E+00</totfact>
</mgrwt>
</event>
<event>
 4    1  0.2293715E-008  0.8501883E+03  0.7818608E-02  0.9490084E-01
          1   -1    0    0  501    0  0.00000000000E+00  0.00000000000E+00  0.26871533175E+04  0.26871533175E+04  0.50400000000E-02 0. -1.
         -1   -1    0    0    0  501 -0.00000000000E+00 -0.00000000000E+00 -0.88308441347E+03  0.88308441348E+03  0.50400000000E-02 0.  1.
    8880022    1    1    2    0    0  0.41403426518E+03 -0.72663888223E+03 -0.58658347685E+03  0.10329086437E+04  0.15294330000E+03 0.  0.
    8880022    1    1    2    0    0 -0.41403426518E+03  0.72663888223E+03  0.23906523809E+04  0.25373290873E+04  0.15294330000E+03 0.  0.
<mgrwt>
<rscale>  0 0.85018827E+03</rscale>
<asrwt>0</asrwt>
<pdfrwt beam="1">  1        1 0.41340820E+00 0.85018827E+03</pdfrwt>
<pdfrwt beam="2">  1       -1 0.13585914E+00 0.85018827E+03</pdfrwt>
<totfact> 0.47751544E-01</totfact>
</mgrwt>
</event>
<event>
 4    1  0.2293715E-008  0.1189363E+04  0.7818608E-02  0.9122219E-01
          1   -1    0    0  501    0  0.00000000000E+00  0.00000000000E+00  0.88978829888E+03  0.88978829889E+03  0.50400000000E-02 0. -1.
         -1   -1    0    0    0  501 -0.00000000000E+00 -0.00000000000E+00 -0.22346817951E+04  0.22346817951E+04  0.50400000000E-02 0.  1.
    8880022    1    1    2    0    0  0.61688491804E+03 -0.10053081768E+04  0.16678024037E+03  0.12009990983E+04  0.15294330000E+03 0.  0.
    8880022    1    1    2    0    0 -0.61688491804E+03  0.10053081768E+04 -0.15116737366E+04  0.19234709957E+04  0.15294330000E+03 0.  0.
<mgrwt>
<rscale>  0 0.11893625E+04</rscale>
<asrwt>0</asrwt>
<pdfrwt beam="1">  1        1 0.13689051E+00 0.11893625E+04</pdfrwt>
<pdfrwt beam="2">  1       -1 0.34379720E+00 0.11893625E+04</pdfrwt>
<totfact> 0.31398363E-01</totfact>
</mgrwt>
</event>
<event>
 4    1  0.2293715E-008  0.1193517E+04  0.7818608E-02  0.9118550E-01
         -1   -1    0    0    0  501 -0.00000000000E+00  0.00000000000E+00  0.13537056366E+04  0.13537056366E+04  0.50400000000E-02 0.  1.
          1   -1    0    0  501    0  0.00000000000E+00 -0.00000000000E+00 -0.13495700808E+04  0.13495700809E+04  0.50400000000E-02 0. -1.
    8880022    1    1    2    0    0 -0.86688924765E+03  0.80597444293E+03  0.63644790358E+03  0.13526083533E+04  0.15294330000E+03 0.  0.
    8880022    1    1    2    0    0  0.86688924765E+03 -0.80597444293E+03 -0.63231234786E+03  0.13506673642E+04  0.15294330000E+03 0.  0.
<mgrwt>
<rscale>  0 0.11935172E+04</rscale>
<asrwt>0</asrwt>
<pdfrwt beam="1">  1        1 0.20762617E+00 0.11935172E+04</pdfrwt>
<pdfrwt beam="2">  1       -1 0.20826240E+00 0.11935172E+04</pdfrwt>
<totfact> 0.10803683E+00</totfact>
</mgrwt>
</event>
<event>
 4    1  0.2293715E-008  0.1298835E+04  0.7818608E-02  0.9030489E-01
          1   -1    0    0  501    0  0.00000000000E+00  0.00000000000E+00  0.63230151987E+03  0.63230151989E+03  0.50400000000E-02 0. -1.
         -1   -1    0    0    0  501 -0.00000000000E+00 -0.00000000000E+00 -0.28920846478E+04  0.28920846478E+04  0.50400000000E-02 0.  1.
    8880022    1    1    2    0    0  0.41544582655E+03 -0.12210593728E+04 -0.16204216545E+04  0.20767135619E+04  0.15294330000E+03 0.  0.
    8880022    1    1    2    0    0 -0.41544582655E+03  0.12210593728E+04 -0.63936147341E+03  0.14476726058E+04  0.15294330000E+03 0.  0.
<mgrwt>
<rscale>  0 0.12988352E+04</rscale>
<asrwt>0</asrwt>
<pdfrwt beam="1">  1        1 0.97277159E-01 0.12988352E+04</pdfrwt>
<pdfrwt beam="2">  1       -1 0.44493609E+00 0.12988352E+04</pdfrwt>
<totfact> 0.10929344E-01</totfact>
</mgrwt>
</event>
<event>
 4    1  0.2293715E-008  0.3998576E+03  0.7818608E-02  0.1043829E+00
          1   -1    0    0  501    0  0.00000000000E+00  0.00000000000E+00  0.13637505508E+04  0.13637505508E+04  0.50400000000E-02 0. -1.
         -1   -1    0    0    0  501 -0.00000000000E+00 -0.00000000000E+00 -0.27992128786E+03  0.27992128790E+03  0.50400000000E-02 0.  1.
    8880022    1    1    2    0    0  0.36343809130E+03  0.66386643517E+02  0.11684361389E+04  0.12349611720E+04  0.15294330000E+03 0.  0.
    8880022    1    1    2    0    0 -0.36343809130E+03 -0.66386643517E+02 -0.84606875924E+02  0.40871066674E+03  0.15294330000E+03 0.  1.
<mgrwt>
<rscale>  0 0.39985758E+03</rscale>
<asrwt>0</asrwt>
<pdfrwt beam="1">  1        1 0.20980778E+00 0.39985758E+03</pdfrwt>
<pdfrwt beam="2">  1       -1 0.43064814E-01 0.39985758E+03</pdfrwt>
<totfact> 0.46885571E+01</totfact>
</mgrwt>
</event>
<event>
 4    1  0.2293715E-008  0.1949980E+03  0.7818608E-02  0.1154029E+00
          1   -1    0    0  501    0  0.00000000000E+00  0.00000000000E+00  0.35591147834E+03  0.35591147838E+03  0.50400000000E-02 0. -1.
         -1   -1    0    0    0  501 -0.00000000000E+00 -0.00000000000E+00 -0.12058171264E+03  0.12058171275E+03  0.50400000000E-02 0.  1.
    8880022    1    1    2    0    0  0.11020037586E+03 -0.49884290210E+02  0.19810393923E+03  0.27797371999E+03  0.15294330000E+03 0.  1.
    8880022    1    1    2    0    0 -0.11020037586E+03  0.49884290210E+02  0.37225826468E+02  0.19851947114E+03  0.15294330000E+03 0.  0.
<mgrwt>
<rscale>  0 0.19499800E+03</rscale>
<asrwt>0</asrwt>
<pdfrwt beam="1">  1        1 0.54755612E-01 0.19499800E+03</pdfrwt>
<pdfrwt beam="2">  1       -1 0.18551033E-01 0.19499800E+03</pdfrwt>
<totfact> 0.15947796E+03</totfact>
</mgrwt>
</event>
<event>
 4    1  0.2293715E-008  0.5146846E+03  0.7818608E-02  0.1010016E+00
          1   -1    0    0  501    0  0.00000000000E+00  0.00000000000E+00  0.45710248762E+03  0.45710248765E+03  0.50400000000E-02 0. -1.
         -1   -1    0    0    0  501 -0.00000000000E+00 -0.00000000000E+00 -0.76553801561E+03  0.76553801562E+03  0.50400000000E-02 0.  1.
    8880022    1    1    2    0    0 -0.35620212320E+03 -0.33856847107E+03  0.14712616202E+03  0.53530021739E+03  0.15294330000E+03 0.  0.
    8880022    1    1    2    0    0  0.35620212320E+03  0.33856847107E+03 -0.45556169001E+03  0.68734028588E+03  0.15294330000E+03 0.  0.
<mgrwt>
<rscale>  0 0.51468458E+03</rscale>
<asrwt>0</asrwt>
<pdfrwt beam="1">  1        1 0.70323460E-01 0.51468458E+03</pdfrwt>
<pdfrwt beam="2">  1       -1 0.11777508E+00 0.51468458E+03</pdfrwt>
<totfact> 0.34119612E+01</totfact>
</mgrwt>
</event>
<event>
 4    1  0.2293715E-008  0.4195172E+03  0.7818608E-02  0.1037224E+00
         -1   -1    0    0    0  501 -0.00000000000E+00  0.00000000000E+00  0.46648523560E+03  0.46648523563E+03  0.50400000000E-02 0.  1.
          1   -1    0    0  501    0  0.00000000000E+00 -0.00000000000E+00 -0.12995600661E+04  0.12995600661E+04  0.50400000000E-02 0. -1.
    8880022    1    1    2    0    0 -0.14894370897E+02 -0.39036029323E+03 -0.11604219475E+04  0.12339261526E+04  0.15294330000E+03 0.  0.
    8880022    1    1    2    0    0  0.14894370897E+02  0.39036029323E+03  0.32734711703E+03  0.53211914911E+03  0.15294330000E+03 0.  0.
<mgrwt>
<rscale>  0 0.41951717E+03</rscale>
<asrwt>0</asrwt>
<pdfrwt beam="1">  1        1 0.19993232E+00 0.41951717E+03</pdfrwt>
<pdfrwt beam="2">  1       -1 0.71766960E-01 0.41951717E+03</pdfrwt>
<totfact> 0.19402598E+01</totfact>
</mgrwt>
</event>
<event>
 4    1  0.2293715E-008  0.1590529E+04  0.7818608E-02  0.8826387E-01
          1   -1    0    0  501    0  0.00000000000E+00  0.00000000000E+00  0.27732495690E+04  0.27732495690E+04  0.50400000000E-02 0. -1.
         -1   -1    0    0    0  501 -0.00000000000E+00 -0.00000000000E+00 -0.93330362096E+03  0.93330362097E+03  0.50400000000E-02 0.  1.
    8880022    1    1    2    0    0 -0.89977159991E+03  0.13026138401E+04  0.11985940346E+04  0.19915850625E+04  0.15294330000E+03 0.  0.
    8880022    1    1    2    0    0  0.89977159991E+03 -0.13026138401E+04  0.64135191339E+03  0.17149681274E+04  0.15294330000E+03 0.  1.
<mgrwt>
<rscale>  0 0.15905293E+04</rscale>
<asrwt>0</asrwt>
<pdfrwt beam="1">  1        1 0.42665377E+00 0.15905293E+04</pdfrwt>
<pdfrwt beam="2">  1       -1 0.14358517E+00 0.15905293E+04</pdfrwt>
<totfact> 0.32162798E-01</totfact>
</mgrwt>
</event>
<event>
 4    1  0.2293715E-008  0.2966354E+03  0.7818608E-02  0.1086935E+00
          1   -1    0    0  501    0  0.00000000000E+00  0.00000000000E+00  0.15773536816E+04  0.15773536816E+04  0.50400000000E-02 0. -1.
         -1   -1    0    0    0  501 -0.00000000000E+00 -0.00000000000E+00 -0.20501499006E+03  0.20501499012E+03  0.50400000000E-02 0.  1.
    8880022    1    1    2    0    0 -0.18179342236E+03  0.17762900153E+03 -0.74161997905E+02  0.30576554015E+03  0.15294330000E+03 0.  0.
    8880022    1    1    2    0    0  0.18179342236E+03 -0.17762900153E+03  0.14465006894E+04  0.14766031315E+04  0.15294330000E+03 0.  0.
<mgrwt>
<rscale>  0 0.29663541E+03</rscale>
<asrwt>0</asrwt>
<pdfrwt beam="1">  1        1 0.24266979E+00 0.29663541E+03</pdfrwt>
<pdfrwt beam="2">  1       -1 0.31540768E-01 0.29663541E+03</pdfrwt>
<totfact> 0.59903483E+01</totfact>
</mgrwt>
</event>
<event>
 4    1  0.2293715E-008  0.9670538E+03  0.7818608E-02  0.9345436E-01
          1   -1    0    0  501    0  0.00000000000E+00  0.00000000000E+00  0.18112461550E+04  0.18112461550E+04  0.50400000000E-02 0. -1.
         -1   -1    0    0    0  501 -0.00000000000E+00 -0.00000000000E+00 -0.13561327714E+04  0.13561327714E+04  0.50400000000E-02 0.  1.
    8880022    1    1    2    0    0  0.69192213918E+03 -0.65806164839E+03  0.14738167372E+04  0.17627616990E+04  0.15294330000E+03 0.  0.
    8880022    1    1    2    0    0 -0.69192213918E+03  0.65806164839E+03 -0.10187033535E+04  0.14046172273E+04  0.15294330000E+03 0.  0.
<mgrwt>
<rscale>  0 0.96705379E+03</rscale>
<asrwt>0</asrwt>
<pdfrwt beam="1">  1        1 0.27865325E+00 0.96705379E+03</pdfrwt>
<pdfrwt beam="2">  1       -1 0.20863581E+00 0.96705379E+03</pdfrwt>
<totfact> 0.53447530E-01</totfact>
</mgrwt>
</event>
<event>
 4    1  0.2293715E-008  0.1188543E+04  0.7818608E-02  0.9122944E-01
         -1   -1    0    0    0  501 -0.00000000000E+00  0.00000000000E+00  0.64364110048E+03  0.64364110050E+03  0.50400000000E-02 0.  1.
          1   -1    0    0  501    0  0.00000000000E+00 -0.00000000000E+00 -0.25284803075E+04  0.25284803075E+04  0.50400000000E-02 0. -1.
    8880022    1    1    2    0    0 -0.10759875905E+04 -0.48113847636E+03 -0.36620544776E+03  0.12436806710E+04  0.15294330000E+03 0.  0.
    8880022    1    1    2    0    0  0.10759875905E+04  0.48113847636E+03 -0.15186337592E+04  0.19284407370E+04  0.15294330000E+03 0.  0.
<mgrwt>
<rscale>  0 0.11885433E+04</rscale>
<asrwt>0</asrwt>
<pdfrwt beam="1">  1        1 0.38899696E+00 0.11885433E+04</pdfrwt>
<pdfrwt beam="2">  1       -1 0.99021709E-01 0.11885433E+04</pdfrwt>
<totfact> 0.12516993E+00</totfact>
</mgrwt>
</event>
<event>
 4    1  0.2293715E-008  0.2834365E+03  0.7818608E-02  0.1093827E+00
          1   -1    0    0  501    0  0.00000000000E+00  0.00000000000E+00  0.49511975779E+03  0.49511975782E+03  0.50400000000E-02 0. -1.
         -1   -1    0    0    0  501 -0.00000000000E+00 -0.00000000000E+00 -0.27118891356E+03  0.27118891360E+03  0.50400000000E-02 0.  1.
    8880022    1    1    2    0    0  0.23055330590E+03 -0.61561014556E+02 -0.13087276858E+03  0.31219212025E+03  0.15294330000E+03 0.  0.
    8880022    1    1    2    0    0 -0.23055330590E+03  0.61561014556E+02  0.35480361281E+03  0.45411655117E+03  0.15294330000E+03 0.  0.
<mgrwt>
<rscale>  0 0.28343648E+03</rscale>
<asrwt>0</asrwt>
<pdfrwt beam="1">  1        1 0.76172271E-01 0.28343648E+03</pdfrwt>
<pdfrwt beam="2">  1       -1 0.41721371E-01 0.28343648E+03</pdfrwt>
<totfact> 0.26382558E+02</totfact>
</mgrwt>
</event>
<event>
 4    1  0.2293715E-008  0.5424091E+03  0.7818608E-02  0.1003266E+00
         -1   -1    0    0    0  501 -0.00000000000E+00  0.00000000000E+00  0.46015170138E+03  0.46015170141E+03  0.50400000000E-02 0.  1.
          1   -1    0    0  501    0  0.00000000000E+00 -0.00000000000E+00 -0.35854331191E+04  0.35854331191E+04  0.50400000000E-02 0. -1.
    8880022    1    1    2    0    0 -0.33135463847E+03 -0.40127306281E+03  0.27094602352E+03  0.60631622777E+03  0.15294330000E+03 0.  1.
    8880022    1    1    2    0    0  0.33135463847E+03  0.40127306281E+03 -0.33962274413E+04  0.34392685928E+04  0.15294330000E+03 0.  0.
<mgrwt>
<rscale>  0 0.54240909E+03</rscale>
<asrwt>0</asrwt>
<pdfrwt beam="1">  1        1 0.55160508E+00 0.54240909E+03</pdfrwt>
<pdfrwt beam="2">  1       -1 0.70792572E-01 0.54240909E+03</pdfrwt>
<totfact> 0.50299788E-01</totfact>
</mgrwt>
</event>
<event>
 4    1  0.2293715E-008  0.1983664E+03  0.7818608E-02  0.1151125E+00
          1   -1    0    0  501    0  0.00000000000E+00  0.00000000000E+00  0.17881965890E+04  0.17881965890E+04  0.50400000000E-02 0. -1.
         -1   -1    0    0    0  501 -0.00000000000E+00 -0.00000000000E+00 -0.37545117043E+02  0.37545117381E+02  0.50400000000E-02 0.  1.
    8880022    1    1    2    0    0  0.12440162924E+03  0.21950356410E+02  0.28802575924E+03  0.34972571324E+03  0.15294330000E+03 0.  0.
    8880022    1    1    2    0    0 -0.12440162924E+03 -0.21950356410E+02  0.14626257127E+04  0.14760159931E+04  0.15294330000E+03 0.  0.
<mgrwt>
<rscale>  0 0.19836642E+03</rscale>
<asrwt>0</asrwt>
<pdfrwt beam="1">  1        1 0.27510721E+00 0.19836642E+03</pdfrwt>
<pdfrwt beam="2">  1       -1 0.57761709E-02 0.19836642E+03</pdfrwt>
<totfact> 0.66193462E+02</totfact>
</mgrwt>
</event>
<event>
 4    1  0.2293715E-008  0.2829082E+03  0.7818608E-02  0.1094111E+00
         -1   -1    0    0    0  501 -0.00000000000E+00  0.00000000000E+00  0.58946228258E+03  0.58946228261E+03  0.50400000000E-02 0.  1.
          1   -1    0    0  501    0  0.00000000000E+00 -0.00000000000E+00 -0.10054345221E+04  0.10054345222E+04  0.50400000000E-02 0. -1.
    8880022    1    1    2    0    0 -0.12857335852E+03 -0.20028555542E+03 -0.94963633652E+03  0.99088154533E+03  0.15294330000E+03 0.  0.
    8880022    1    1    2    0    0  0.12857335852E+03  0.20028555542E+03  0.53366409696E+03  0.60401525943E+03  0.15294330000E+03 0.  0.
<mgrwt>
<rscale>  0 0.28290823E+03</rscale>
<asrwt>0</asrwt>
<pdfrwt beam="1">  1        1 0.15468223E+00 0.28290823E+03</pdfrwt>
<pdfrwt beam="2">  1       -1 0.90686505E-01 0.28290823E+03</pdfrwt>
<totfact> 0.20087017E+01</totfact>
</mgrwt>
</event>
<event>
 4    1  0.2293715E-008  0.5644604E+03  0.7818608E-02  0.9982012E-01
          1   -1    0    0  501    0  0.00000000000E+00  0.00000000000E+00  0.34799252063E+04  0.34799252063E+04  0.50400000000E-02 0. -1.
         -1   -1    0    0    0  501 -0.00000000000E+00 -0.00000000000E+00 -0.35780215473E+03  0.35780215477E+03  0.50400000000E-02 0.  1.
    8880022    1    1    2    0    0 -0.71462222377E+02 -0.53862514681E+03  0.32163075632E+04  0.32654631972E+04  0.15294330000E+03 0.  0.
    8880022    1    1    2    0    0  0.71462222377E+02  0.53862514681E+03 -0.94184511649E+02  0.57226416387E+03  0.15294330000E+03 0.  0.
<mgrwt>
<rscale>  0 0.56446041E+03</rscale>
<asrwt>0</asrwt>
<pdfrwt beam="1">  1        1 0.53537312E+00 0.56446041E+03</pdfrwt>
<pdfrwt beam="2">  1       -1 0.55046485E-01 0.56446041E+03</pdfrwt>
<totfact> 0.99118516E-01</totfact>
</mgrwt>
</event>
<event>
 4    1  0.2293715E-008  0.5812712E+03  0.7818608E-02  0.9945043E-01
         -1   -1    0    0    0  501 -0.00000000000E+00  0.00000000000E+00  0.10294056799E+04  0.10294056799E+04  0.50400000000E-02 0.  1.
          1   -1    0    0  501    0  0.00000000000E+00 -0.00000000000E+00 -0.42632505481E+03  0.42632505484E+03  0.50400000000E-02 0. -1.
    8880022    1    1    2    0    0 -0.70850213897E+02 -0.55629557842E+03 -0.47613134358E+02  0.58321795836E+03  0.15294330000E+03 0. -1.
    8880022    1    1    2    0    0  0.70850213897E+02  0.55629557842E+03  0.65069375946E+03  0.87251277641E+03  0.15294330000E+03 0.  0.
<mgrwt>
<rscale>  0 0.58127117E+03</rscale>
<asrwt>0</asrwt>
<pdfrwt beam="1">  1        1 0.65588471E-01 0.58127117E+03</pdfrwt>
<pdfrwt beam="2">  1       -1 0.15837010E+00 0.58127117E+03</pdfrwt>
<totfact> 0.17368910E+01</totfact>
</mgrwt>
</event>
<event>
 4    1  0.2293715E-008  0.9469114E+03  0.7818608E-02  0.9368768E-01
          1   -1    0    0  501    0  0.00000000000E+00  0.00000000000E+00  0.15879634261E+04  0.15879634261E+04  0.50400000000E-02 0. -1.
         -1   -1    0    0    0  501 -0.00000000000E+00 -0.00000000000E+00 -0.10661683968E+04  0.10661683968E+04  0.50400000000E-02 0.  1.
    8880022    1    1    2    0    0  0.89724754392E+03 -0.26114440140E+03  0.11710699188E+04  0.15060033072E+04  0.15294330000E+03 0.  0.
    8880022    1    1    2    0    0 -0.89724754392E+03  0.26114440140E+03 -0.64927488954E+03  0.11481285157E+04  0.15294330000E+03 0.  1.
<mgrwt>
<rscale>  0 0.94691140E+03</rscale>
<asrwt>0</asrwt>
<pdfrwt beam="1">  1        1 0.24430206E+00 0.94691140E+03</pdfrwt>
<pdfrwt beam="2">  1       -1 0.16402591E+00 0.94691140E+03</pdfrwt>
<totfact> 0.15725991E+00</totfact>
</mgrwt>
</event>
<event>
 4    1  0.2293715E-008  0.7705706E+03  0.7818608E-02  0.9603620E-01
         -1   -1    0    0    0  501 -0.00000000000E+00  0.00000000000E+00  0.44140236822E+03  0.44140236825E+03  0.50400000000E-02 0.  1.
          1   -1    0    0  501    0  0.00000000000E+00 -0.00000000000E+00 -0.13808921734E+04  0.13808921734E+04  0.50400000000E-02 0. -1.
    8880022    1    1    2    0    0 -0.33567988452E+03 -0.67654004434E+03 -0.32328061995E+03  0.83563713938E+03  0.15294330000E+03 0.  0.
    8880022    1    1    2    0    0  0.33567988452E+03  0.67654004434E+03 -0.61620918520E+03  0.98665740225E+03  0.15294330000E+03 0. -1.
<mgrwt>
<rscale>  0 0.77057061E+03</rscale>
<asrwt>0</asrwt>
<pdfrwt beam="1">  1        1 0.21244495E+00 0.77057061E+03</pdfrwt>
<pdfrwt beam="2">  1       -1 0.67908057E-01 0.77057061E+03</pdfrwt>
<totfact> 0.17938966E+01</totfact>
</mgrwt>
</event>
<event>
 4    1  0.2293715E-008  0.8024285E+03  0.7818608E-02  0.9556509E-01
          1   -1    0    0  501    0  0.00000000000E+00  0.00000000000E+00  0.13770692850E+04  0.13770692850E+04  0.50400000000E-02 0. -1.
         -1   -1    0    0    0  501 -0.00000000000E+00 -0.00000000000E+00 -0.89280444232E+03  0.89280444233E+03  0.50400000000E-02 0.  1.
    8880022    1    1    2    0    0  0.11328748930E+00  0.78771815003E+03  0.10253854584E+04  0.13020395109E+04  0.15294330000E+03 0.  0.
    8880022    1    1    2    0    0 -0.11328748930E+00 -0.78771815003E+03 -0.54112061570E+03  0.96783421642E+03  0.15294330000E+03 0.  0.
<mgrwt>
<rscale>  0 0.80242853E+03</rscale>
<asrwt>0</asrwt>
<pdfrwt beam="1">  1        1 0.21185681E+00 0.80242853E+03</pdfrwt>
<pdfrwt beam="2">  1       -1 0.13735453E+00 0.80242853E+03</pdfrwt>
<totfact> 0.36288816E+00</totfact>
</mgrwt>
</event>
<event>
 4    1  0.2293715E-008  0.3711379E+03  0.7818608E-02  0.1054259E+00
         -1   -1    0    0    0  501 -0.00000000000E+00  0.00000000000E+00  0.73430368886E+03  0.73430368888E+03  0.50400000000E-02 0.  1.
          1   -1    0    0  501    0  0.00000000000E+00 -0.00000000000E+00 -0.91217224419E+03  0.91217224420E+03  0.50400000000E-02 0. -1.
    8880022    1    1    2    0    0 -0.13356311207E+03  0.31066472263E+03  0.64478972571E+03  0.74397386929E+03  0.15294330000E+03 0.  0.
    8880022    1    1    2    0    0  0.13356311207E+03 -0.31066472263E+03 -0.82265828103E+03  0.90250206380E+03  0.15294330000E+03 0.  0.
<mgrwt>
<rscale>  0 0.37113788E+03</rscale>
<asrwt>0</asrwt>
<pdfrwt beam="1">  1        1 0.14033419E+00 0.37113788E+03</pdfrwt>
<pdfrwt beam="2">  1       -1 0.11296980E+00 0.37113788E+03</pdfrwt>
<totfact> 0.14067261E+01</totfact>
</mgrwt>
</event>
<event>
 4    1  0.2293715E-008  0.1362221E+04  0.7818608E-02  0.8981628E-01
         -1   -1    0    0    0  501 -0.00000000000E+00  0.00000000000E+00  0.13131718192E+04  0.13131718192E+04  0.50400000000E-02 0.  1.
          1   -1    0    0  501    0  0.00000000000E+00 -0.00000000000E+00 -0.21390271659E+04  0.21390271659E+04  0.50400000000E-02 0. -1.
    8880022    1    1    2    0    0  0.12485777935E+04 -0.52278842288E+03  0.59262207625E+03  0.14855459669E+04  0.15294330000E+03 0.  0.
    8880022    1    1    2    0    0 -0.12485777935E+04  0.52278842288E+03 -0.14184774230E+04  0.19666530182E+04  0.15294330000E+03 0.  0.
<mgrwt>
<rscale>  0 0.13622209E+04</rscale>
<asrwt>0</asrwt>
<pdfrwt beam="1">  1        1 0.32908110E+00 0.13622209E+04</pdfrwt>
<pdfrwt beam="2">  1       -1 0.20202643E+00 0.13622209E+04</pdfrwt>
<totfact> 0.33579528E-01</totfact>
</mgrwt>
</event>
<event>
 4    1  0.2293715E-008  0.5483693E+03  0.7818608E-02  0.1001872E+00
          1   -1    0    0  501    0  0.00000000000E+00  0.00000000000E+00  0.16136713806E+04  0.16136713806E+04  0.50400000000E-02 0. -1.
         -1   -1    0    0    0  501 -0.00000000000E+00 -0.00000000000E+00 -0.32202960873E+03  0.32202960876E+03  0.50400000000E-02 0.  1.
    8880022    1    1    2    0    0 -0.51270667891E+03 -0.12020428096E+03  0.12740477104E+04  0.13870495410E+04  0.15294330000E+03 0. -1.
    8880022    1    1    2    0    0  0.51270667891E+03  0.12020428096E+03  0.17594061428E+02  0.54865144834E+03  0.15294330000E+03 0.  0.
<mgrwt>
<rscale>  0 0.54836927E+03</rscale>
<asrwt>0</asrwt>
<pdfrwt beam="1">  1        1 0.24825714E+00 0.54836927E+03</pdfrwt>
<pdfrwt beam="2">  1       -1 0.49543017E-01 0.54836927E+03</pdfrwt>
<totfact> 0.23810021E+01</totfact>
</mgrwt>
</event>
<event>
 4    1  0.2293715E-008  0.5839465E+03  0.7818608E-02  0.9939283E-01
         -1   -1    0    0    0  501 -0.00000000000E+00  0.00000000000E+00  0.15109541994E+04  0.15109541994E+04  0.50400000000E-02 0.  1.
          1   -1    0    0  501    0  0.00000000000E+00 -0.00000000000E+00 -0.31333991858E+03  0.31333991862E+03  0.50400000000E-02 0. -1.
    8880022    1    1    2    0    0  0.41278728341E+03 -0.38367767064E+03  0.10812603791E+04  0.12288684050E+04  0.15294330000E+03 0.  0.
    8880022    1    1    2    0    0 -0.41278728341E+03  0.38367767064E+03  0.11635390168E+03  0.59542571304E+03  0.15294330000E+03 0.  0.
<mgrwt>
<rscale>  0 0.58394653E+03</rscale>
<asrwt>0</asrwt>
<pdfrwt beam="1">  1        1 0.48206143E-01 0.58394653E+03</pdfrwt>
<pdfrwt beam="2">  1       -1 0.23245449E+00 0.58394653E+03</pdfrwt>
<totfact> 0.79830895E+00</totfact>
</mgrwt>
</event>
<event>
 4    1  0.2293715E-008  0.4127512E+03  0.7818608E-02  0.1039452E+00
          1   -1    0    0  501    0  0.00000000000E+00  0.00000000000E+00  0.21991860028E+04  0.21991860028E+04  0.50400000000E-02 0. -1.
         -1   -1    0    0    0  501 -0.00000000000E+00 -0.00000000000E+00 -0.29931818573E+03  0.29931818578E+03  0.50400000000E-02 0.  1.
    8880022    1    1    2    0    0  0.26483475104E+03 -0.27719022660E+03  0.20254447116E+04  0.20670727611E+04  0.15294330000E+03 0. -1.
    8880022    1    1    2    0    0 -0.26483475104E+03  0.27719022660E+03 -0.12557689458E+03  0.43143142740E+03  0.15294330000E+03 0.  0.
<mgrwt>
<rscale>  0 0.41275116E+03</rscale>
<asrwt>0</asrwt>
<pdfrwt beam="1">  1        1 0.33833631E+00 0.41275116E+03</pdfrwt>
<pdfrwt beam="2">  1       -1 0.46048952E-01 0.41275116E+03</pdfrwt>
<totfact> 0.11529131E+01</totfact>
</mgrwt>
</event>
<event>
 4    1  0.2293715E-008  0.3989756E+03  0.7818608E-02  0.1044135E+00
         -1   -1    0    0    0  501 -0.00000000000E+00  0.00000000000E+00  0.61123355719E+03  0.61123355721E+03  0.50400000000E-02 0.  1.
          1   -1    0    0  501    0  0.00000000000E+00 -0.00000000000E+00 -0.10332364759E+04  0.10332364759E+04  0.50400000000E-02 0. -1.
    8880022    1    1    2    0    0 -0.36834679341E+03 -0.10511103825E+02 -0.92210432071E+03  0.10047178085E+04  0.15294330000E+03 0.  0.
    8880022    1    1    2    0    0  0.36834679341E+03  0.10511103825E+02  0.50010140201E+03  0.63975222456E+03  0.15294330000E+03 0.  0.
<mgrwt>
<rscale>  0 0.39897556E+03</rscale>
<asrwt>0</asrwt>
<pdfrwt beam="1">  1        1 0.15895946E+00 0.39897556E+03</pdfrwt>
<pdfrwt beam="2">  1       -1 0.94035932E-01 0.39897556E+03</pdfrwt>
<totfact> 0.17107777E+01</totfact>
</mgrwt>
</event>
<event>
 4    1  0.2293715E-008  0.7607887E+03  0.7818608E-02  0.9618575E-01
         -1   -1    0    0    0  501 -0.00000000000E+00  0.00000000000E+00  0.50185613812E+03  0.50185613814E+03  0.50400000000E-02 0.  1.
          1   -1    0    0  501    0  0.00000000000E+00 -0.00000000000E+00 -0.16500913370E+04  0.16500913370E+04  0.50400000000E-02 0. -1.
    8880022    1    1    2    0    0  0.41217345477E+03 -0.62090320005E+03  0.16256233720E+02  0.76096232417E+03  0.15294330000E+03 0.  0.
    8880022    1    1    2    0    0 -0.41217345477E+03  0.62090320005E+03 -0.11644914326E+04  0.13909851510E+04  0.15294330000E+03 0.  0.
<mgrwt>
<rscale>  0 0.76078867E+03</rscale>
<asrwt>0</asrwt>
<pdfrwt beam="1">  1        1 0.25386020E+00 0.76078867E+03</pdfrwt>
<pdfrwt beam="2">  1       -1 0.77208637E-01 0.76078867E+03</pdfrwt>
<totfact> 0.90137389E+00</totfact>
</mgrwt>
</event>
<event>
 4    1  0.2293715E-008  0.1489695E+04  0.7818608E-02  0.8891335E-01
         -1   -1    0    0    0  501 -0.00000000000E+00  0.00000000000E+00  0.95013163382E+03  0.95013163383E+03  0.50400000000E-02 0.  1.
          1   -1    0    0  501    0  0.00000000000E+00 -0.00000000000E+00 -0.31211922595E+04  0.31211922595E+04  0.50400000000E-02 0. -1.
    8880022    1    1    2    0    0 -0.79738863044E+03  0.12489878072E+04 -0.21067649973E+04  0.25802421547E+04  0.15294330000E+03 0.  0.
    8880022    1    1    2    0    0  0.79738863044E+03 -0.12489878072E+04 -0.64295628458E+02  0.14910817386E+04  0.15294330000E+03 0.  0.
<mgrwt>
<rscale>  0 0.14896949E+04</rscale>
<asrwt>0</asrwt>
<pdfrwt beam="1">  1        1 0.48018342E+00 0.14896949E+04</pdfrwt>
<pdfrwt beam="2">  1       -1 0.14617410E+00 0.14896949E+04</pdfrwt>
<totfact> 0.17373983E-01</totfact>
</mgrwt>
</event>
<event>
 4    1  0.3307247E-008  0.8715267E+03  0.7818608E-02  0.9461892E-01
          1   -1    0    0  501    0  0.00000000000E+00  0.00000000000E+00  0.13118013421E+04  0.13118013422E+04  0.50400000000E-02 0. -1.
         -1   -1    0    0    0  501 -0.00000000000E+00 -0.00000000000E+00 -0.13382165134E+04  0.13382165135E+04  0.50400000000E-02 0.  1.
    8880022    1    1    2    0    0  0.65187702594E+03  0.55787400821E+03 -0.10112128276E+04  0.13349569662E+04  0.15294330000E+03 0.  0.
    8880022    1    1    2    0    0 -0.65187702594E+03 -0.55787400821E+03  0.98479765628E+03  0.13150608894E+04  0.15294330000E+03 0.  0.
<mgrwt>
<rscale>  0 0.87152666E+03</rscale>
<asrwt>0</asrwt>
<pdfrwt beam="1">  1        1 0.20181559E+00 0.87152666E+03</pdfrwt>
<pdfrwt beam="2">  1       -1 0.20587946E+00 0.87152666E+03</pdfrwt>
<totfact> 0.12489031E+00</totfact>
</mgrwt>
</event>
<event>
 4    1  0.2293715E-008  0.6055351E+03  0.7818608E-02  0.9893989E-01
          1   -1    0    0  501    0  0.00000000000E+00  0.00000000000E+00  0.42982663849E+03  0.42982663852E+03  0.50400000000E-02 0. -1.
         -1   -1    0    0    0  501 -0.00000000000E+00 -0.00000000000E+00 -0.12649134443E+04  0.12649134443E+04  0.50400000000E-02 0.  1.
    8880022    1    1    2    0    0 -0.48943967335E+03  0.32207131779E+03  0.65969513983E+02  0.60911801598E+03  0.15294330000E+03 0. -1.
    8880022    1    1    2    0    0  0.48943967335E+03 -0.32207131779E+03 -0.90105631982E+03  0.10856220669E+04  0.15294330000E+03 0.  0.
<mgrwt>
<rscale>  0 0.60553512E+03</rscale>
<asrwt>0</asrwt>
<pdfrwt beam="1">  1        1 0.66127176E-01 0.60553512E+03</pdfrwt>
<pdfrwt beam="2">  1       -1 0.19460207E+00 0.60553512E+03</pdfrwt>
<totfact> 0.94095564E+00</totfact>
</mgrwt>
</event>
<event>
 4    1  0.2293715E-008  0.5482663E+03  0.7818608E-02  0.1001896E+00
          1   -1    0    0  501    0  0.00000000000E+00  0.00000000000E+00  0.71704625593E+03  0.71704625595E+03  0.50400000000E-02 0. -1.
         -1   -1    0    0    0  501 -0.00000000000E+00 -0.00000000000E+00 -0.47289181938E+03  0.47289181941E+03  0.50400000000E-02 0.  1.
    8880022    1    1    2    0    0  0.49083677366E+03 -0.19048231918E+03  0.32252925236E+03  0.63609828167E+03  0.15294330000E+03 0.  0.
    8880022    1    1    2    0    0 -0.49083677366E+03  0.19048231918E+03 -0.78374815811E+02  0.55383979368E+03  0.15294330000E+03 0.  0.
<mgrwt>
<rscale>  0 0.54826627E+03</rscale>
<asrwt>0</asrwt>
<pdfrwt beam="1">  1        1 0.11031481E+00 0.54826627E+03</pdfrwt>
<pdfrwt beam="2">  1       -1 0.72752588E-01 0.54826627E+03</pdfrwt>
<totfact> 0.52234124E+01</totfact>
</mgrwt>
</event>
<event>
 4    1  0.2293715E-008  0.6011424E+03  0.7818608E-02  0.9903039E-01
         -1   -1    0    0    0  501 -0.00000000000E+00  0.00000000000E+00  0.11339514763E+04  0.11339514763E+04  0.50400000000E-02 0.  1.
          1   -1    0    0  501    0  0.00000000000E+00 -0.00000000000E+00 -0.12251107548E+04  0.12251107548E+04  0.50400000000E-02 0. -1.
    8880022    1    1    2    0    0  0.37814994059E+03 -0.44156891833E+03 -0.10601638390E+04  0.12187368484E+04  0.15294330000E+03 0.  0.
    8880022    1    1    2    0    0 -0.37814994059E+03  0.44156891833E+03  0.96900456047E+03  0.11403253827E+04  0.15294330000E+03 0.  0.
<mgrwt>
<rscale>  0 0.60114236E+03</rscale>
<asrwt>0</asrwt>
<pdfrwt beam="1">  1        1 0.18847858E+00 0.60114236E+03</pdfrwt>
<pdfrwt beam="2">  1       -1 0.17445407E+00 0.60114236E+03</pdfrwt>
<totfact> 0.25136583E+00</totfact>
</mgrwt>
</event>
<event>
 4    1  0.2293715E-008  0.2287818E+03  0.7818608E-02  0.1127500E+00
         -1   -1    0    0    0  501 -0.00000000000E+00  0.00000000000E+00  0.20344193110E+03  0.20344193116E+03  0.50400000000E-02 0.  1.
          1   -1    0    0  501    0  0.00000000000E+00 -0.00000000000E+00 -0.43553100828E+03  0.43553100831E+03  0.50400000000E-02 0. -1.
    8880022    1    1    2    0    0  0.14226362878E+03 -0.93330238191E+02 -0.32043536722E+03  0.39372573070E+03  0.15294330000E+03 0. -1.
    8880022    1    1    2    0    0 -0.14226362878E+03  0.93330238191E+02  0.88346290037E+02  0.24524720878E+03  0.15294330000E+03 0.  0.
<mgrwt>
<rscale>  0 0.22878183E+03</rscale>
<asrwt>0</asrwt>
<pdfrwt beam="1">  1        1 0.67004771E-01 0.22878183E+03</pdfrwt>
<pdfrwt beam="2">  1       -1 0.31298759E-01 0.22878183E+03</pdfrwt>
<totfact> 0.51866181E+02</totfact>
</mgrwt>
</event>
<event>
 4    1  0.2293715E-008  0.8108793E+03  0.7818608E-02  0.9544402E-01
          1   -1    0    0  501    0  0.00000000000E+00  0.00000000000E+00  0.10554158839E+04  0.10554158839E+04  0.50400000000E-02 0. -1.
         -1   -1    0    0    0  501 -0.00000000000E+00 -0.00000000000E+00 -0.89863710941E+03  0.89863710943E+03  0.50400000000E-02 0.  1.
    8880022    1    1    2    0    0 -0.66827576084E+03 -0.43306014023E+03  0.61949515562E+03  0.10204408255E+04  0.15294330000E+03 0.  0.
    8880022    1    1    2    0    0  0.66827576084E+03  0.43306014023E+03 -0.46271638110E+03  0.93361216783E+03  0.15294330000E+03 0.  0.
<mgrwt>
<rscale>  0 0.81087929E+03</rscale>
<asrwt>0</asrwt>
<pdfrwt beam="1">  1        1 0.16237167E+00 0.81087929E+03</pdfrwt>
<pdfrwt beam="2">  1       -1 0.13825186E+00 0.81087929E+03</pdfrwt>
<totfact> 0.60953370E+00</totfact>
</mgrwt>
</event>
<event>
 4    1  0.2293715E-008  0.5094431E+03  0.7818608E-02  0.1011343E+00
          1   -1    0    0  501    0  0.00000000000E+00  0.00000000000E+00  0.11207779626E+04  0.11207779626E+04  0.50400000000E-02 0. -1.
         -1   -1    0    0    0  501 -0.00000000000E+00 -0.00000000000E+00 -0.28943969474E+03  0.28943969478E+03  0.50400000000E-02 0.  1.
    8880022    1    1    2    0    0  0.46205494156E+03 -0.15048554555E+03  0.73096883870E+03  0.89098134919E+03  0.15294330000E+03 0.  0.
    8880022    1    1    2    0    0 -0.46205494156E+03  0.15048554555E+03  0.10036942918E+03  0.51923630821E+03  0.15294330000E+03 0.  0.
<mgrwt>
<rscale>  0 0.50944315E+03</rscale>
<asrwt>0</asrwt>
<pdfrwt beam="1">  1        1 0.17242738E+00 0.50944315E+03</pdfrwt>
<pdfrwt beam="2">  1       -1 0.44529184E-01 0.50944315E+03</pdfrwt>
<totfact> 0.64270908E+01</totfact>
</mgrwt>
</event>
<event>
 4    1  0.2293715E-008  0.2134205E+03  0.7818608E-02  0.1138886E+00
         -1   -1    0    0    0  501 -0.00000000000E+00  0.00000000000E+00  0.34078847428E+03  0.34078847431E+03  0.50400000000E-02 0.  1.
          1   -1    0    0  501    0  0.00000000000E+00 -0.00000000000E+00 -0.20793651167E+04  0.20793651167E+04  0.50400000000E-02 0. -1.
    8880022    1    1    2    0    0  0.81741180452E+02  0.12439862592E+03 -0.20398291222E+04  0.20509634661E+04  0.15294330000E+03 0.  0.
    8880022    1    1    2    0    0 -0.81741180452E+02 -0.12439862592E+03  0.30125247978E+03  0.36919012487E+03  0.15294330000E+03 0.  1.
<mgrwt>
<rscale>  0 0.21342046E+03</rscale>
<asrwt>0</asrwt>
<pdfrwt beam="1">  1        1 0.31990232E+00 0.21342046E+03</pdfrwt>
<pdfrwt beam="2">  1       -1 0.52428998E-01 0.21342046E+03</pdfrwt>
<totfact> 0.11794777E+01</totfact>
</mgrwt>
</event>
<event>
 4    1  0.2293715E-008  0.3448307E+03  0.7818608E-02  0.1064757E+00
         -1   -1    0    0    0  501 -0.00000000000E+00  0.00000000000E+00  0.72257313535E+03  0.72257313536E+03  0.50400000000E-02 0.  1.
          1   -1    0    0  501    0  0.00000000000E+00 -0.00000000000E+00 -0.17873796768E+03  0.17873796775E+03  0.50400000000E-02 0. -1.
    8880022    1    1    2    0    0 -0.16848968621E+03  0.25909032614E+03  0.39883160928E+03  0.52723322831E+03  0.15294330000E+03 0.  0.
    8880022    1    1    2    0    0  0.16848968621E+03 -0.25909032614E+03  0.14500355839E+03  0.37407787481E+03  0.15294330000E+03 0.  0.
<mgrwt>
<rscale>  0 0.34483072E+03</rscale>
<asrwt>0</asrwt>
<pdfrwt beam="1">  1        1 0.27498148E-01 0.34483072E+03</pdfrwt>
<pdfrwt beam="2">  1       -1 0.11116510E+00 0.34483072E+03</pdfrwt>
<totfact> 0.13385294E+02</totfact>
</mgrwt>
</event>
<event>
 4    1  0.2293715E-008  0.3610950E+03  0.7818608E-02  0.1058151E+00
          1   -1    0    0  501    0  0.00000000000E+00  0.00000000000E+00  0.14359745293E+04  0.14359745293E+04  0.50400000000E-02 0. -1.
         -1   -1    0    0    0  501 -0.00000000000E+00 -0.00000000000E+00 -0.57309180191E+03  0.57309180193E+03  0.50400000000E-02 0.  1.
    8880022    1    1    2    0    0 -0.18129326442E+03 -0.27226954757E+03 -0.49008156103E+03  0.60874423507E+03  0.15294330000E+03 0.  0.
    8880022    1    1    2    0    0  0.18129326442E+03  0.27226954757E+03  0.13529642884E+04  0.14003220962E+04  0.15294330000E+03 0.  0.
<mgrwt>
<rscale>  0 0.36109501E+03</rscale>
<asrwt>0</asrwt>
<pdfrwt beam="1">  1        1 0.22091916E+00 0.36109501E+03</pdfrwt>
<pdfrwt beam="2">  1       -1 0.88167971E-01 0.36109501E+03</pdfrwt>
<totfact> 0.10337308E+01</totfact>
</mgrwt>
</event>
<event>
 4    1  0.2293715E-008  0.2944843E+03  0.7818608E-02  0.1088031E+00
          1   -1    0    0  501    0  0.00000000000E+00  0.00000000000E+00  0.39102508886E+03  0.39102508889E+03  0.50400000000E-02 0. -1.
         -1   -1    0    0    0  501 -0.00000000000E+00 -0.00000000000E+00 -0.49233834911E+03  0.49233834913E+03  0.50400000000E-02 0.  1.
    8880022    1    1    2    0    0  0.11596552661E+03  0.22334130504E+03  0.27676637446E+03  0.40412946062E+03  0.15294330000E+03 0.  0.
    8880022    1    1    2    0    0 -0.11596552661E+03 -0.22334130504E+03 -0.37807963471E+03  0.47923397740E+03  0.15294330000E+03 0.  0.
<mgrwt>
<rscale>  0 0.29448429E+03</rscale>
<asrwt>0</asrwt>
<pdfrwt beam="1">  1        1 0.60157706E-01 0.29448429E+03</pdfrwt>
<pdfrwt beam="2">  1       -1 0.75744362E-01 0.29448429E+03</pdfrwt>
<totfact> 0.11481568E+02</totfact>
</mgrwt>
</event>
<event>
 4    1  0.2293715E-008  0.2166287E+03  0.7818608E-02  0.1136422E+00
         -1   -1    0    0    0  501 -0.00000000000E+00  0.00000000000E+00  0.43151150030E+03  0.43151150032E+03  0.50400000000E-02 0.  1.
          1   -1    0    0  501    0  0.00000000000E+00 -0.00000000000E+00 -0.36256651503E+03  0.36256651507E+03  0.50400000000E-02 0. -1.
    8880022    1    1    2    0    0  0.14887185908E+03 -0.37060930687E+02 -0.29772553367E+03  0.36819626481E+03  0.15294330000E+03 0.  0.
    8880022    1    1    2    0    0 -0.14887185908E+03  0.37060930687E+02  0.36667051893E+03  0.42588175058E+03  0.15294330000E+03 0.  1.
<mgrwt>
<rscale>  0 0.21662871E+03</rscale>
<asrwt>0</asrwt>
<pdfrwt beam="1">  1        1 0.55779464E-01 0.21662871E+03</pdfrwt>
<pdfrwt beam="2">  1       -1 0.66386385E-01 0.21662871E+03</pdfrwt>
<totfact> 0.16677210E+02</totfact>
</mgrwt>
</event>
<event>
 4    1  0.2293715E-008  0.5716113E+03  0.7818608E-02  0.9966119E-01
         -1   -1    0    0    0  501 -0.00000000000E+00  0.00000000000E+00  0.90795556781E+03  0.90795556782E+03  0.50400000000E-02 0.  1.
          1   -1    0    0  501    0  0.00000000000E+00 -0.00000000000E+00 -0.12738029199E+04  0.12738029199E+04  0.50400000000E-02 0. -1.
    8880022    1    1    2    0    0  0.13084336690E+03  0.53500269382E+03  0.74110278107E+03  0.93593421466E+03  0.15294330000E+03 0.  0.
    8880022    1    1    2    0    0 -0.13084336690E+03 -0.53500269382E+03 -0.11069501331E+04  0.12458242730E+04  0.15294330000E+03 0.  0.
<mgrwt>
<rscale>  0 0.57161134E+03</rscale>
<asrwt>0</asrwt>
<pdfrwt beam="1">  1        1 0.19596968E+00 0.57161134E+03</pdfrwt>
<pdfrwt beam="2">  1       -1 0.13968547E+00 0.57161134E+03</pdfrwt>
<totfact> 0.42866594E+00</totfact>
</mgrwt>
</event>
<event>
 4    1  0.2293715E-008  0.9178409E+03  0.7818608E-02  0.9403550E-01
         -1   -1    0    0    0  501 -0.00000000000E+00  0.00000000000E+00  0.77287841082E+03  0.77287841084E+03  0.50400000000E-02 0.  1.
          1   -1    0    0  501    0  0.00000000000E+00 -0.00000000000E+00 -0.12640764110E+04  0.12640764110E+04  0.50400000000E-02 0. -1.
    8880022    1    1    2    0    0  0.89674647383E+03  0.12200841814E+03  0.13235906118E+03  0.92733535817E+03  0.15294330000E+03 0.  0.
    8880022    1    1    2    0    0 -0.89674647383E+03 -0.12200841814E+03 -0.62355706136E+03  0.11096194637E+04  0.15294330000E+03 0.  0.
<mgrwt>
<rscale>  0 0.91784092E+03</rscale>
<asrwt>0</asrwt>
<pdfrwt beam="1">  1        1 0.19447329E+00 0.91784092E+03</pdfrwt>
<pdfrwt beam="2">  1       -1 0.11890437E+00 0.91784092E+03</pdfrwt>
<totfact> 0.61608539E+00</totfact>
</mgrwt>
</event>
<event>
 4    1  0.2293715E-008  0.1993844E+03  0.7818608E-02  0.1150259E+00
         -1   -1    0    0    0  501 -0.00000000000E+00  0.00000000000E+00  0.15644080499E+03  0.15644080507E+03  0.50400000000E-02 0.  1.
          1   -1    0    0  501    0  0.00000000000E+00 -0.00000000000E+00 -0.96193356978E+03  0.96193356979E+03  0.50400000000E-02 0. -1.
    8880022    1    1    2    0    0 -0.12523724706E+03  0.26040832827E+02 -0.88241938215E+03  0.90466464065E+03  0.15294330000E+03 0.  0.
    8880022    1    1    2    0    0  0.12523724706E+03 -0.26040832827E+02  0.76926617361E+02  0.21370973422E+03  0.15294330000E+03 0.  0.
<mgrwt>
<rscale>  0 0.19938442E+03</rscale>
<asrwt>0</asrwt>
<pdfrwt beam="1">  1        1 0.14798978E+00 0.19938442E+03</pdfrwt>
<pdfrwt beam="2">  1       -1 0.24067817E-01 0.19938442E+03</pdfrwt>
<totfact> 0.25879825E+02</totfact>
</mgrwt>
</event>
<event>
 4    1  0.2293715E-008  0.5269161E+03  0.7818608E-02  0.1006983E+00
         -1   -1    0    0    0  501 -0.00000000000E+00  0.00000000000E+00  0.56099588060E+03  0.56099588063E+03  0.50400000000E-02 0.  1.
          1   -1    0    0  501    0  0.00000000000E+00 -0.00000000000E+00 -0.40181170729E+04  0.40181170729E+04  0.50400000000E-02 0. -1.
    8880022    1    1    2    0    0 -0.41315972798E+02  0.50253550566E+03  0.41536326629E+03  0.67094503505E+03  0.15294330000E+03 0.  0.
    8880022    1    1    2    0    0  0.41315972798E+02 -0.50253550566E+03 -0.38724844585E+04  0.39081679184E+04  0.15294330000E+03 0.  0.
<mgrwt>
<rscale>  0 0.52691612E+03</rscale>
<asrwt>0</asrwt>
<pdfrwt beam="1">  1        1 0.61817184E+00 0.52691612E+03</pdfrwt>
<pdfrwt beam="2">  1       -1 0.86307061E-01 0.52691612E+03</pdfrwt>
<totfact> 0.14792494E-01</totfact>
</mgrwt>
</event>
<event>
 4    1  0.2293715E-008  0.7174917E+03  0.7818608E-02  0.9687778E-01
          1   -1    0    0  501    0  0.00000000000E+00  0.00000000000E+00  0.73159957395E+03  0.73159957397E+03  0.50400000000E-02 0. -1.
         -1   -1    0    0    0  501 -0.00000000000E+00 -0.00000000000E+00 -0.14402624267E+04  0.14402624267E+04  0.50400000000E-02 0.  1.
    8880022    1    1    2    0    0  0.68046706771E+03 -0.16842595410E+03 -0.11309346437E+04  0.13393310098E+04  0.15294330000E+03 0.  0.
    8880022    1    1    2    0    0 -0.68046706771E+03  0.16842595410E+03  0.42227179104E+03  0.83253099088E+03  0.15294330000E+03 0.  0.
<mgrwt>
<rscale>  0 0.71749173E+03</rscale>
<asrwt>0</asrwt>
<pdfrwt beam="1">  1        1 0.11255378E+00 0.71749173E+03</pdfrwt>
<pdfrwt beam="2">  1       -1 0.22157883E+00 0.71749173E+03</pdfrwt>
<totfact> 0.28630302E+00</totfact>
</mgrwt>
</event>
<event>
 4    1  0.2293715E-008  0.4201605E+03  0.7818608E-02  0.1037014E+00
          1   -1    0    0  501    0  0.00000000000E+00  0.00000000000E+00  0.92457892321E+03  0.92457892323E+03  0.50400000000E-02 0. -1.
         -1   -1    0    0    0  501 -0.00000000000E+00 -0.00000000000E+00 -0.13345269032E+04  0.13345269032E+04  0.50400000000E-02 0.  1.
    8880022    1    1    2    0    0  0.38548583140E+03  0.67407993082E+02  0.84065683919E+03  0.93980781973E+03  0.15294330000E+03 0.  0.
    8880022    1    1    2    0    0 -0.38548583140E+03 -0.67407993082E+02 -0.12506048191E+04  0.13192980067E+04  0.15294330000E+03 0.  0.
<mgrwt>
<rscale>  0 0.42016047E+03</rscale>
<asrwt>0</asrwt>
<pdfrwt beam="1">  1        1 0.14224291E+00 0.42016047E+03</pdfrwt>
<pdfrwt beam="2">  1       -1 0.20531183E+00 0.42016047E+03</pdfrwt>
<totfact> 0.27033716E+00</totfact>
</mgrwt>
</event>
<event>
 4    1  0.2293715E-008  0.2749711E+03  0.7818608E-02  0.1098468E+00
          1   -1    0    0  501    0  0.00000000000E+00  0.00000000000E+00  0.20144971075E+04  0.20144971075E+04  0.50400000000E-02 0. -1.
         -1   -1    0    0    0  501 -0.00000000000E+00 -0.00000000000E+00 -0.15605554763E+03  0.15605554772E+03  0.50400000000E-02 0.  1.
    8880022    1    1    2    0    0  0.18891745413E+03 -0.12855990312E+03 -0.16585373320E+02  0.27547083473E+03  0.15294330000E+03 0.  0.
    8880022    1    1    2    0    0 -0.18891745413E+03  0.12855990312E+03  0.18750269332E+04  0.18950818205E+04  0.15294330000E+03 0. -1.
<mgrwt>
<rscale>  0 0.27497110E+03</rscale>
<asrwt>0</asrwt>
<pdfrwt beam="1">  1        1 0.30992264E+00 0.27497110E+03</pdfrwt>
<pdfrwt beam="2">  1       -1 0.24008545E-01 0.27497110E+03</pdfrwt>
<totfact> 0.49580521E+01</totfact>
</mgrwt>
</event>
<event>
 4    1  0.2293715E-008  0.2931470E+03  0.7818608E-02  0.1088717E+00
          1   -1    0    0  501    0  0.00000000000E+00  0.00000000000E+00  0.42347920460E+03  0.42347920463E+03  0.50400000000E-02 0. -1.
         -1   -1    0    0    0  501 -0.00000000000E+00 -0.00000000000E+00 -0.47463773489E+03  0.47463773492E+03  0.50400000000E-02 0.  1.
    8880022    1    1    2    0    0 -0.11464830208E+02 -0.24982402654E+03  0.31418334461E+03  0.42970491458E+03  0.15294330000E+03 0.  0.
    8880022    1    1    2    0    0  0.11464830208E+02  0.24982402654E+03 -0.36534187490E+03  0.46841202497E+03  0.15294330000E+03 0.  0.
<mgrwt>
<rscale>  0 0.29314696E+03</rscale>
<asrwt>0</asrwt>
<pdfrwt beam="1">  1        1 0.65150647E-01 0.29314696E+03</pdfrwt>
<pdfrwt beam="2">  1       -1 0.73021190E-01 0.29314696E+03</pdfrwt>
<totfact> 0.11160893E+02</totfact>
</mgrwt>
</event>
<event>
 4    1  0.2293715E-008  0.4425089E+03  0.7818608E-02  0.1029980E+00
         -1   -1    0    0    0  501 -0.00000000000E+00  0.00000000000E+00  0.25320371354E+03  0.25320371359E+03  0.50400000000E-02 0.  1.
          1   -1    0    0  501    0  0.00000000000E+00 -0.00000000000E+00 -0.14164839430E+04  0.14164839430E+04  0.50400000000E-02 0. -1.
    8880022    1    1    2    0    0  0.26461742781E+03  0.32000020221E+03 -0.19102763554E+02  0.44292107774E+03  0.15294330000E+03 0.  1.
    8880022    1    1    2    0    0 -0.26461742781E+03 -0.32000020221E+03 -0.11441774659E+04  0.12267665788E+04  0.15294330000E+03 0.  0.
<mgrwt>
<rscale>  0 0.44250894E+03</rscale>
<asrwt>0</asrwt>
<pdfrwt beam="1">  1        1 0.21792060E+00 0.44250894E+03</pdfrwt>
<pdfrwt beam="2">  1       -1 0.38954419E-01 0.44250894E+03</pdfrwt>
<totfact> 0.51291520E+01</totfact>
</mgrwt>
</event>
<event>
 4    1  0.2293715E-008  0.2426935E+03  0.7818608E-02  0.1118011E+00
         -1   -1    0    0    0  501 -0.00000000000E+00  0.00000000000E+00  0.13516482578E+03  0.13516482587E+03  0.50400000000E-02 0.  1.
          1   -1    0    0  501    0  0.00000000000E+00 -0.00000000000E+00 -0.56935323119E+03  0.56935323121E+03  0.50400000000E-02 0. -1.
    8880022    1    1    2    0    0  0.96246361178E+01  0.18819104651E+03 -0.46464489399E+02  0.24710140712E+03  0.15294330000E+03 0.  0.
    8880022    1    1    2    0    0 -0.96246361178E+01 -0.18819104651E+03 -0.38772391601E+03  0.45741664997E+03  0.15294330000E+03 0.  0.
<mgrwt>
<rscale>  0 0.24269354E+03</rscale>
<asrwt>0</asrwt>
<pdfrwt beam="1">  1        1 0.87592803E-01 0.24269354E+03</pdfrwt>
<pdfrwt beam="2">  1       -1 0.20794589E-01 0.24269354E+03</pdfrwt>
<totfact> 0.71864587E+02</totfact>
</mgrwt>
</event>
<event>
 4    1  0.2293715E-008  0.6194130E+03  0.7818608E-02  0.9865929E-01
         -1   -1    0    0    0  501 -0.00000000000E+00  0.00000000000E+00  0.72465154685E+03  0.72465154687E+03  0.50400000000E-02 0.  1.
          1   -1    0    0  501    0  0.00000000000E+00 -0.00000000000E+00 -0.22660795508E+04  0.22660795508E+04  0.50400000000E-02 0. -1.
    8880022    1    1    2    0    0  0.59758147002E+03 -0.56367127916E+02  0.53835456516E+03  0.82066933491E+03  0.15294330000E+03 0.  0.
    8880022    1    1    2    0    0 -0.59758147002E+03  0.56367127916E+02 -0.20797825691E+04  0.21700617627E+04  0.15294330000E+03 0. -1.
<mgrwt>
<rscale>  0 0.61941304E+03</rscale>
<asrwt>0</asrwt>
<pdfrwt beam="1">  1        1 0.34862762E+00 0.61941304E+03</pdfrwt>
<pdfrwt beam="2">  1       -1 0.11148485E+00 0.61941304E+03</pdfrwt>
<totfact> 0.15866233E+00</totfact>
</mgrwt>
</event>
<event>
 4    1  0.2293715E-008  0.5514577E+03  0.7818608E-02  0.1001157E+00
          1   -1    0    0  501    0  0.00000000000E+00  0.00000000000E+00  0.26497364775E+03  0.26497364780E+03  0.50400000000E-02 0. -1.
         -1   -1    0    0    0  501 -0.00000000000E+00 -0.00000000000E+00 -0.19708168084E+04  0.19708168084E+04  0.50400000000E-02 0.  1.
    8880022    1    1    2    0    0 -0.14396228842E+03 -0.50989098731E+03 -0.15753807894E+04  0.16691106147E+04  0.15294330000E+03 0.  0.
    8880022    1    1    2    0    0  0.14396228842E+03  0.50989098731E+03 -0.13046237120E+03  0.56667984148E+03  0.15294330000E+03 0.  0.
<mgrwt>
<rscale>  0 0.55145772E+03</rscale>
<asrwt>0</asrwt>
<pdfrwt beam="1">  1        1 0.40765178E-01 0.55145772E+03</pdfrwt>
<pdfrwt beam="2">  1       -1 0.30320258E+00 0.55145772E+03</pdfrwt>
<totfact> 0.35215935E+00</totfact>
</mgrwt>
</event>
<event>
 4    1  0.2293715E-008  0.9143706E+03  0.7818608E-02  0.9407794E-01
         -1   -1    0    0    0  501 -0.00000000000E+00  0.00000000000E+00  0.55159064138E+03  0.55159064141E+03  0.50400000000E-02 0.  1.
          1   -1    0    0  501    0  0.00000000000E+00 -0.00000000000E+00 -0.17422161022E+04  0.17422161022E+04  0.50400000000E-02 0. -1.
    8880022    1    1    2    0    0 -0.35348051553E+03 -0.82929694735E+03 -0.10088144795E+04  0.13615359741E+04  0.15294330000E+03 0.  0.
    8880022    1    1    2    0    0  0.35348051553E+03  0.82929694735E+03 -0.18181098135E+03  0.93227076952E+03  0.15294330000E+03 0.  0.
<mgrwt>
<rscale>  0 0.91437058E+03</rscale>
<asrwt>0</asrwt>
<pdfrwt beam="1">  1        1 0.26803324E+00 0.91437058E+03</pdfrwt>
<pdfrwt beam="2">  1       -1 0.84860099E-01 0.91437058E+03</pdfrwt>
<totfact> 0.62462739E+00</totfact>
</mgrwt>
</event>
<event>
 4    1  0.2293715E-008  0.2780125E+03  0.7818608E-02  0.1096779E+00
          1   -1    0    0  501    0  0.00000000000E+00  0.00000000000E+00  0.18114203706E+04  0.18114203706E+04  0.50400000000E-02 0. -1.
         -1   -1    0    0    0  501 -0.00000000000E+00 -0.00000000000E+00 -0.10115157947E+03  0.10115157959E+03  0.50400000000E-02 0.  1.
    8880022    1    1    2    0    0 -0.12625539189E+03  0.19483035557E+03  0.15822707227E+04  0.16065091299E+04  0.15294330000E+03 0.  0.
    8880022    1    1    2    0    0  0.12625539189E+03 -0.19483035557E+03  0.12799806839E+03  0.30606282028E+03  0.15294330000E+03 0.  0.
<mgrwt>
<rscale>  0 0.27801249E+03</rscale>
<asrwt>0</asrwt>
<pdfrwt beam="1">  1        1 0.27868003E+00 0.27801249E+03</pdfrwt>
<pdfrwt beam="2">  1       -1 0.15561783E-01 0.27801249E+03</pdfrwt>
<totfact> 0.13604832E+02</totfact>
</mgrwt>
</event>
<event>
 4    1  0.2293715E-008  0.6029701E+03  0.7818608E-02  0.9899263E-01
         -1   -1    0    0    0  501 -0.00000000000E+00  0.00000000000E+00  0.33540188641E+03  0.33540188645E+03  0.50400000000E-02 0.  1.
          1   -1    0    0  501    0  0.00000000000E+00 -0.00000000000E+00 -0.19063214923E+04  0.19063214923E+04  0.50400000000E-02 0. -1.
    8880022    1    1    2    0    0  0.43150585877E+02  0.58165222547E+03 -0.15216277521E+04  0.16367418713E+04  0.15294330000E+03 0.  0.
    8880022    1    1    2    0    0 -0.43150585877E+02 -0.58165222547E+03 -0.49291853805E+02  0.60498150742E+03  0.15294330000E+03 0.  0.
<mgrwt>
<rscale>  0 0.60297010E+03</rscale>
<asrwt>0</asrwt>
<pdfrwt beam="1">  1        1 0.29328022E+00 0.60297010E+03</pdfrwt>
<pdfrwt beam="2">  1       -1 0.51600291E-01 0.60297010E+03</pdfrwt>
<totfact> 0.13926980E+01</totfact>
</mgrwt>
</event>
<event>
 4    1  0.2293715E-008  0.3275662E+03  0.7818608E-02  0.1072219E+00
         -1   -1    0    0    0  501 -0.00000000000E+00  0.00000000000E+00  0.48746165799E+03  0.48746165801E+03  0.50400000000E-02 0.  1.
          1   -1    0    0  501    0  0.00000000000E+00 -0.00000000000E+00 -0.73299565362E+03  0.73299565364E+03  0.50400000000E-02 0. -1.
    8880022    1    1    2    0    0 -0.27851689409E+03 -0.79601080448E+02 -0.63321122928E+03  0.71292082745E+03  0.15294330000E+03 0.  0.
    8880022    1    1    2    0    0  0.27851689409E+03  0.79601080448E+02  0.38767723364E+03  0.50753648421E+03  0.15294330000E+03 0.  0.
<mgrwt>
<rscale>  0 0.32756625E+03</rscale>
<asrwt>0</asrwt>
<pdfrwt beam="1">  1        1 0.11276856E+00 0.32756625E+03</pdfrwt>
<pdfrwt beam="2">  1       -1 0.74994101E-01 0.32756625E+03</pdfrwt>
<totfact> 0.49194496E+01</totfact>
</mgrwt>
</event>
<event>
 4    1  0.2293715E-008  0.4264339E+03  0.7818608E-02  0.1034992E+00
          1   -1    0    0  501    0  0.00000000000E+00  0.00000000000E+00  0.13438395599E+04  0.13438395599E+04  0.50400000000E-02 0. -1.
         -1   -1    0    0    0  501 -0.00000000000E+00 -0.00000000000E+00 -0.30507688260E+03  0.30507688264E+03  0.50400000000E-02 0.  1.
    8880022    1    1    2    0    0 -0.16463271712E+03  0.36242283226E+03 -0.95625655667E+02  0.43702420977E+03  0.15294330000E+03 0.  0.
    8880022    1    1    2    0    0  0.16463271712E+03 -0.36242283226E+03  0.11343883330E+04  0.12118922328E+04  0.15294330000E+03 0.  0.
<mgrwt>
<rscale>  0 0.42643393E+03</rscale>
<asrwt>0</asrwt>
<pdfrwt beam="1">  1        1 0.20674455E+00 0.42643393E+03</pdfrwt>
<pdfrwt beam="2">  1       -1 0.46934905E-01 0.42643393E+03</pdfrwt>
<totfact> 0.41094979E+01</totfact>
</mgrwt>
</event>
<event>
 4    1  0.2293715E-008  0.1346119E+04  0.7818608E-02  0.8993771E-01
          1   -1    0    0  501    0  0.00000000000E+00  0.00000000000E+00  0.14359408334E+04  0.14359408334E+04  0.50400000000E-02 0. -1.
         -1   -1    0    0    0  501 -0.00000000000E+00 -0.00000000000E+00 -0.17073148692E+04  0.17073148692E+04  0.50400000000E-02 0.  1.
    8880022    1    1    2    0    0  0.13240978276E+04  0.18817358303E+03 -0.93841370147E+03  0.16409315289E+04  0.15294330000E+03 0.  0.
    8880022    1    1    2    0    0 -0.13240978276E+04 -0.18817358303E+03  0.66703966564E+03  0.15023241737E+04  0.15294330000E+03 0.  0.
<mgrwt>
<rscale>  0 0.13461189E+04</rscale>
<asrwt>0</asrwt>
<pdfrwt beam="1">  1        1 0.22091397E+00 0.13461189E+04</pdfrwt>
<pdfrwt beam="2">  1       -1 0.26266383E+00 0.13461189E+04</pdfrwt>
<totfact> 0.40258687E-01</totfact>
</mgrwt>
</event>
<event>
 4    1  0.2293715E-008  0.6314221E+03  0.7818608E-02  0.9842278E-01
          1   -1    0    0  501    0  0.00000000000E+00  0.00000000000E+00  0.14128802651E+04  0.14128802651E+04  0.50400000000E-02 0. -1.
         -1   -1    0    0    0  501 -0.00000000000E+00 -0.00000000000E+00 -0.44149965387E+03  0.44149965390E+03  0.50400000000E-02 0.  1.
    8880022    1    1    2    0    0 -0.61217675592E+03  0.23276510407E+02  0.10426595242E+04  0.12189473790E+04  0.15294330000E+03 0.  0.
    8880022    1    1    2    0    0  0.61217675592E+03 -0.23276510407E+02 -0.71278912956E+02  0.63543253999E+03  0.15294330000E+03 0.  0.
<mgrwt>
<rscale>  0 0.63142207E+03</rscale>
<asrwt>0</asrwt>
<pdfrwt beam="1">  1        1 0.21736619E+00 0.63142207E+03</pdfrwt>
<pdfrwt beam="2">  1       -1 0.67923024E-01 0.63142207E+03</pdfrwt>
<totfact> 0.17381705E+01</totfact>
</mgrwt>
</event>
<event>
 4    1  0.2293715E-008  0.5306527E+03  0.7818608E-02  0.1006074E+00
          1   -1    0    0  501    0  0.00000000000E+00  0.00000000000E+00  0.20727933544E+04  0.20727933544E+04  0.50400000000E-02 0. -1.
         -1   -1    0    0    0  501 -0.00000000000E+00 -0.00000000000E+00 -0.16899056605E+03  0.16899056613E+03  0.50400000000E-02 0.  1.
    8880022    1    1    2    0    0  0.47075951067E+03  0.19127488373E+03  0.14482675201E+04  0.15424237618E+04  0.15294330000E+03 0.  0.
    8880022    1    1    2    0    0 -0.47075951067E+03 -0.19127488373E+03  0.45553526818E+03  0.69936015872E+03  0.15294330000E+03 0.  0.
<mgrwt>
<rscale>  0 0.53065267E+03</rscale>
<asrwt>0</asrwt>
<pdfrwt beam="1">  1        1 0.31889130E+00 0.53065267E+03</pdfrwt>
<pdfrwt beam="2">  1       -1 0.25998547E-01 0.53065267E+03</pdfrwt>
<totfact> 0.37315054E+01</totfact>
</mgrwt>
</event>
<event>
 4    1  0.2293715E-008  0.3446340E+03  0.7818608E-02  0.1064839E+00
          1   -1    0    0  501    0  0.00000000000E+00  0.00000000000E+00  0.29473459577E+04  0.29473459577E+04  0.50400000000E-02 0. -1.
         -1   -1    0    0    0  501 -0.00000000000E+00 -0.00000000000E+00 -0.92366906140E+02  0.92366906277E+02  0.50400000000E-02 0.  1.
    8880022    1    1    2    0    0  0.19570132398E+03 -0.23891829637E+03  0.28636527528E+03  0.44808222956E+03  0.15294330000E+03 0.  0.
    8880022    1    1    2    0    0 -0.19570132398E+03  0.23891829637E+03  0.25686137763E+04  0.25916306344E+04  0.15294330000E+03 0.  0.
<mgrwt>
<rscale>  0 0.34463403E+03</rscale>
<asrwt>0</asrwt>
<pdfrwt beam="1">  1        1 0.45343778E+00 0.34463403E+03</pdfrwt>
<pdfrwt beam="2">  1       -1 0.14210295E-01 0.34463403E+03</pdfrwt>
<totfact> 0.26989867E+01</totfact>
</mgrwt>
</event>
<event>
 4    1  0.2293715E-008  0.1560319E+03  0.7818608E-02  0.1193251E+00
         -1   -1    0    0    0  501 -0.00000000000E+00  0.00000000000E+00  0.41937301759E+03  0.41937301762E+03  0.50400000000E-02 0.  1.
          1   -1    0    0  501    0  0.00000000000E+00 -0.00000000000E+00 -0.26121380665E+03  0.26121380670E+03  0.50400000000E-02 0. -1.
    8880022    1    1    2    0    0 -0.18207292491E+02  0.24955723157E+02 -0.22102677264E+03  0.27055273212E+03  0.15294330000E+03 0. -1.
    8880022    1    1    2    0    0  0.18207292491E+02 -0.24955723157E+02  0.37918598357E+03  0.41003409220E+03  0.15294330000E+03 0.  0.
<mgrwt>
<rscale>  0 0.15603188E+03</rscale>
<asrwt>0</asrwt>
<pdfrwt beam="1">  1        1 0.40186740E-01 0.15603188E+03</pdfrwt>
<pdfrwt beam="2">  1       -1 0.64518925E-01 0.15603188E+03</pdfrwt>
<totfact> 0.26805352E+02</totfact>
</mgrwt>
</event>
<event>
 4    1  0.2293715E-008  0.3224998E+03  0.7818608E-02  0.1074505E+00
         -1   -1    0    0    0  501 -0.00000000000E+00  0.00000000000E+00  0.15142439096E+03  0.15142439104E+03  0.50400000000E-02 0.  1.
          1   -1    0    0  501    0  0.00000000000E+00 -0.00000000000E+00 -0.18511107574E+04  0.18511107574E+04  0.50400000000E-02 0. -1.
    8880022    1    1    2    0    0  0.16168879450E+03 -0.23339065301E+03 -0.55773267255E+02  0.32728698956E+03  0.15294330000E+03 0.  0.
    8880022    1    1    2    0    0 -0.16168879450E+03  0.23339065301E+03 -0.16439130992E+04  0.16752481589E+04  0.15294330000E+03 0.  0.
<mgrwt>
<rscale>  0 0.32249979E+03</rscale>
<asrwt>0</asrwt>
<pdfrwt beam="1">  1        1 0.28478625E+00 0.32249979E+03</pdfrwt>
<pdfrwt beam="2">  1       -1 0.23296061E-01 0.32249979E+03</pdfrwt>
<totfact> 0.65678226E+01</totfact>
</mgrwt>
</event>
<event>
 4    1  0.2293715E-008  0.1975587E+03  0.7818608E-02  0.1151815E+00
         -1   -1    0    0    0  501 -0.00000000000E+00  0.00000000000E+00  0.27125749618E+03  0.27125749623E+03  0.50400000000E-02 0.  1.
          1   -1    0    0  501    0  0.00000000000E+00 -0.00000000000E+00 -0.37490587082E+03  0.37490587086E+03  0.50400000000E-02 0. -1.
    8880022    1    1    2    0    0 -0.10475558351E+03 -0.68293800957E+02  0.20179283898E+03  0.28240003259E+03  0.15294330000E+03 0.  0.
    8880022    1    1    2    0    0  0.10475558351E+03  0.68293800957E+02 -0.30544121362E+03  0.36376333449E+03  0.15294330000E+03 0. -1.
<mgrwt>
<rscale>  0 0.19755867E+03</rscale>
<asrwt>0</asrwt>
<pdfrwt beam="1">  1        1 0.57677826E-01 0.19755867E+03</pdfrwt>
<pdfrwt beam="2">  1       -1 0.41731923E-01 0.19755867E+03</pdfrwt>
<totfact> 0.38116419E+02</totfact>
</mgrwt>
</event>
<event>
 4    1  0.2293715E-008  0.5293989E+03  0.7818608E-02  0.1006378E+00
         -1   -1    0    0    0  501 -0.00000000000E+00  0.00000000000E+00  0.25796405351E+03  0.25796405356E+03  0.50400000000E-02 0.  1.
          1   -1    0    0  501    0  0.00000000000E+00 -0.00000000000E+00 -0.11617962026E+04  0.11617962026E+04  0.50400000000E-02 0. -1.
    8880022    1    1    2    0    0  0.40809866464E+03  0.30054454412E+03 -0.63270482083E+03  0.82497187007E+03  0.15294330000E+03 0. -1.
    8880022    1    1    2    0    0 -0.40809866464E+03 -0.30054454412E+03 -0.27112732824E+03  0.59478838608E+03  0.15294330000E+03 0.  0.
<mgrwt>
<rscale>  0 0.52939890E+03</rscale>
<asrwt>0</asrwt>
<pdfrwt beam="1">  1        1 0.17873787E+00 0.52939890E+03</pdfrwt>
<pdfrwt beam="2">  1       -1 0.39686778E-01 0.52939890E+03</pdfrwt>
<totfact> 0.73801362E+01</totfact>
</mgrwt>
</event>
<event>
 4    1  0.2293715E-008  0.7576578E+03  0.7818608E-02  0.9623412E-01
          1   -1    0    0  501    0  0.00000000000E+00  0.00000000000E+00  0.78304715234E+03  0.78304715235E+03  0.50400000000E-02 0. -1.
         -1   -1    0    0    0  501 -0.00000000000E+00 -0.00000000000E+00 -0.18600345978E+04  0.18600345978E+04  0.50400000000E-02 0.  1.
    8880022    1    1    2    0    0 -0.74051491439E+03  0.47868809636E+02  0.49016433692E+03  0.90238932373E+03  0.15294330000E+03 0.  0.
    8880022    1    1    2    0    0  0.74051491439E+03 -0.47868809636E+02 -0.15671517824E+04  0.17406924264E+04  0.15294330000E+03 0.  0.
<mgrwt>
<rscale>  0 0.75765785E+03</rscale>
<asrwt>0</asrwt>
<pdfrwt beam="1">  1        1 0.12046879E+00 0.75765785E+03</pdfrwt>
<pdfrwt beam="2">  1       -1 0.28615917E+00 0.75765785E+03</pdfrwt>
<totfact> 0.97880729E-01</totfact>
</mgrwt>
</event>
<event>
 4    1  0.2293715E-008  0.1090398E+04  0.7818608E-02  0.9214602E-01
          1   -1    0    0  501    0  0.00000000000E+00  0.00000000000E+00  0.19110792712E+04  0.19110792712E+04  0.50400000000E-02 0. -1.
         -1   -1    0    0    0  501 -0.00000000000E+00 -0.00000000000E+00 -0.92418385038E+03  0.92418385040E+03  0.50400000000E-02 0.  1.
    8880022    1    1    2    0    0 -0.41525714332E+03 -0.99656271669E+03  0.13038785754E+04  0.16997254883E+04  0.15294330000E+03 0.  0.
    8880022    1    1    2    0    0  0.41525714332E+03  0.99656271669E+03 -0.31698315453E+03  0.11355376333E+04  0.15294330000E+03 0.  0.
<mgrwt>
<rscale>  0 0.10903978E+04</rscale>
<asrwt>0</asrwt>
<pdfrwt beam="1">  1        1 0.29401219E+00 0.10903978E+04</pdfrwt>
<pdfrwt beam="2">  1       -1 0.14218213E+00 0.10903978E+04</pdfrwt>
<totfact> 0.13737962E+00</totfact>
</mgrwt>
</event>
<event>
 4    1  0.2293715E-008  0.2319424E+03  0.7818608E-02  0.1125280E+00
         -1   -1    0    0    0  501 -0.00000000000E+00  0.00000000000E+00  0.12207662652E+03  0.12207662662E+03  0.50400000000E-02 0.  1.
          1   -1    0    0  501    0  0.00000000000E+00 -0.00000000000E+00 -0.13222602908E+04  0.13222602908E+04  0.50400000000E-02 0. -1.
    8880022    1    1    2    0    0  0.11975462764E+03  0.12674566270E+03 -0.10420727792E+02  0.23217639509E+03  0.15294330000E+03 0.  1.
    8880022    1    1    2    0    0 -0.11975462764E+03 -0.12674566270E+03 -0.11897629365E+04  0.12121605223E+04  0.15294330000E+03 0.  0.
<mgrwt>
<rscale>  0 0.23194242E+03</rscale>
<asrwt>0</asrwt>
<pdfrwt beam="1">  1        1 0.20342465E+00 0.23194242E+03</pdfrwt>
<pdfrwt beam="2">  1       -1 0.18781020E-01 0.23194242E+03</pdfrwt>
<totfact> 0.21383380E+02</totfact>
</mgrwt>
</event>
<event>
 4    1  0.2293715E-008  0.3893795E+03  0.7818608E-02  0.1047520E+00
          1   -1    0    0  501    0  0.00000000000E+00  0.00000000000E+00  0.83276617389E+03  0.83276617391E+03  0.50400000000E-02 0. -1.
         -1   -1    0    0    0  501 -0.00000000000E+00 -0.00000000000E+00 -0.29380808927E+03  0.29380808931E+03  0.50400000000E-02 0.  1.
    8880022    1    1    2    0    0  0.13564809074E+03  0.33139756490E+03 -0.77905926093E+02  0.39709663418E+03  0.15294330000E+03 0.  0.
    8880022    1    1    2    0    0 -0.13564809074E+03 -0.33139756490E+03  0.61686401072E+03  0.72947762904E+03  0.15294330000E+03 0.  0.
<mgrwt>
<rscale>  0 0.38937951E+03</rscale>
<asrwt>0</asrwt>
<pdfrwt beam="1">  1        1 0.12811787E+00 0.38937951E+03</pdfrwt>
<pdfrwt beam="2">  1       -1 0.45201245E-01 0.38937951E+03</pdfrwt>
<totfact> 0.10631981E+02</totfact>
</mgrwt>
</event>
<event>
 4    1  0.2293715E-008  0.1192325E+04  0.7818608E-02  0.9119601E-01
         -1   -1    0    0    0  501 -0.00000000000E+00  0.00000000000E+00  0.73444003098E+03  0.73444003100E+03  0.50400000000E-02 0.  1.
          1   -1    0    0  501    0  0.00000000000E+00 -0.00000000000E+00 -0.19917296856E+04  0.19917296856E+04  0.50400000000E-02 0. -1.
    8880022    1    1    2    0    0 -0.18783471960E+03 -0.11674607037E+04 -0.85731489356E+03  0.14685458305E+04  0.15294330000E+03 0.  0.
    8880022    1    1    2    0    0  0.18783471960E+03  0.11674607037E+04 -0.39997476107E+03  0.12576238861E+04  0.15294330000E+03 0.  0.
<mgrwt>
<rscale>  0 0.11923246E+04</rscale>
<asrwt>0</asrwt>
<pdfrwt beam="1">  1        1 0.30641995E+00 0.11923246E+04</pdfrwt>
<pdfrwt beam="2">  1       -1 0.11299077E+00 0.11923246E+04</pdfrwt>
<totfact> 0.21312187E+00</totfact>
</mgrwt>
</event>
<event>
 4    1  0.2293715E-008  0.3997913E+03  0.7818608E-02  0.1043852E+00
          1   -1    0    0  501    0  0.00000000000E+00  0.00000000000E+00  0.81168992867E+03  0.81168992869E+03  0.50400000000E-02 0. -1.
         -1   -1    0    0    0  501 -0.00000000000E+00 -0.00000000000E+00 -0.24882026444E+03  0.24882026449E+03  0.50400000000E-02 0.  1.
    8880022    1    1    2    0    0  0.28831831620E+03 -0.23089814826E+03  0.52362255824E+03  0.65879711812E+03  0.15294330000E+03 0.  0.
    8880022    1    1    2    0    0 -0.28831831620E+03  0.23089814826E+03  0.39247105991E+02  0.40171307506E+03  0.15294330000E+03 0.  0.
<mgrwt>
<rscale>  0 0.39979127E+03</rscale>
<asrwt>0</asrwt>
<pdfrwt beam="1">  1        1 0.12487537E+00 0.39979127E+03</pdfrwt>
<pdfrwt beam="2">  1       -1 0.38280041E-01 0.39979127E+03</pdfrwt>
<totfact> 0.14934407E+02</totfact>
</mgrwt>
</event>
<event>
 4    1  0.2293715E-008  0.1422997E+04  0.7818608E-02  0.8937338E-01
          1   -1    0    0  501    0  0.00000000000E+00  0.00000000000E+00  0.37891879124E+04  0.37891879124E+04  0.50400000000E-02 0. -1.
         -1   -1    0    0    0  501 -0.00000000000E+00 -0.00000000000E+00 -0.10938556397E+04  0.10938556397E+04  0.50400000000E-02 0.  1.
    8880022    1    1    2    0    0  0.13109130536E+04  0.53201180301E+03 -0.39841955358E+03  0.14777210110E+04  0.15294330000E+03 0.  0.
    8880022    1    1    2    0    0 -0.13109130536E+04 -0.53201180301E+03  0.30937518264E+04  0.34053225411E+04  0.15294330000E+03 0.  0.
<mgrwt>
<rscale>  0 0.14229973E+04</rscale>
<asrwt>0</asrwt>
<pdfrwt beam="1">  1        1 0.58295198E+00 0.14229973E+04</pdfrwt>
<pdfrwt beam="2">  1       -1 0.16828548E+00 0.14229973E+04</pdfrwt>
<totfact> 0.35716547E-02</totfact>
</mgrwt>
</event>
<event>
 4    1  0.2293715E-008  0.6826156E+03  0.7818608E-02  0.9747433E-01
          1   -1    0    0  501    0  0.00000000000E+00  0.00000000000E+00  0.15630763194E+04  0.15630763194E+04  0.50400000000E-02 0. -1.
         -1   -1    0    0    0  501 -0.00000000000E+00 -0.00000000000E+00 -0.79783516322E+03  0.79783516323E+03  0.50400000000E-02 0.  1.
    8880022    1    1    2    0    0  0.48152877473E+03  0.45902335091E+03  0.13168639359E+04  0.14832716125E+04  0.15294330000E+03 0.  0.
    8880022    1    1    2    0    0 -0.48152877473E+03 -0.45902335091E+03 -0.55162277975E+03  0.87763987018E+03  0.15294330000E+03 0.  0.
<mgrwt>
<rscale>  0 0.68261560E+03</rscale>
<asrwt>0</asrwt>
<pdfrwt beam="1">  1        1 0.24047328E+00 0.68261560E+03</pdfrwt>
<pdfrwt beam="2">  1       -1 0.12274387E+00 0.68261560E+03</pdfrwt>
<totfact> 0.36637544E+00</totfact>
</mgrwt>
</event>
<event>
 4    1  0.2293715E-008  0.7545603E+03  0.7818608E-02  0.9628223E-01
         -1   -1    0    0    0  501 -0.00000000000E+00  0.00000000000E+00  0.74420533274E+03  0.74420533276E+03  0.50400000000E-02 0.  1.
          1   -1    0    0  501    0  0.00000000000E+00 -0.00000000000E+00 -0.18981640893E+04  0.18981640893E+04  0.50400000000E-02 0. -1.
    8880022    1    1    2    0    0 -0.53906174394E+03 -0.50535334923E+03  0.44379955140E+03  0.87539663365E+03  0.15294330000E+03 0.  0.
    8880022    1    1    2    0    0  0.53906174394E+03  0.50535334923E+03 -0.15977583079E+04  0.17669727884E+04  0.15294330000E+03 0.  0.
<mgrwt>
<rscale>  0 0.75456029E+03</rscale>
<asrwt>0</asrwt>
<pdfrwt beam="1">  1        1 0.29202524E+00 0.75456029E+03</pdfrwt>
<pdfrwt beam="2">  1       -1 0.11449313E+00 0.75456029E+03</pdfrwt>
<totfact> 0.25467319E+00</totfact>
</mgrwt>
</event>
<event>
 4    1  0.2293715E-008  0.1583463E+03  0.7818608E-02  0.1190576E+00
          1   -1    0    0  501    0  0.00000000000E+00  0.00000000000E+00  0.26262312933E+04  0.26262312933E+04  0.50400000000E-02 0. -1.
         -1   -1    0    0    0  501 -0.00000000000E+00 -0.00000000000E+00 -0.45802754965E+02  0.45802755242E+02  0.50400000000E-02 0.  1.
    8880022    1    1    2    0    0 -0.36319277156E+02  0.19047603777E+02  0.24788603458E+04  0.24839126732E+04  0.15294330000E+03 0.  0.
    8880022    1    1    2    0    0  0.36319277156E+02 -0.19047603777E+02  0.10156819248E+03  0.18812137529E+03  0.15294330000E+03 0.  1.
<mgrwt>
<rscale>  0 0.15834631E+03</rscale>
<asrwt>0</asrwt>
<pdfrwt beam="1">  1        1 0.40403566E+00 0.15834631E+03</pdfrwt>
<pdfrwt beam="2">  1       -1 0.70465764E-02 0.15834631E+03</pdfrwt>
<totfact> 0.14224570E+02</totfact>
</mgrwt>
</event>
<event>
 4    1  0.2293715E-008  0.8444097E+03  0.7818608E-02  0.9497871E-01
         -1   -1    0    0    0  501 -0.00000000000E+00  0.00000000000E+00  0.18223786372E+04  0.18223786372E+04  0.50400000000E-02 0.  1.
          1   -1    0    0  501    0  0.00000000000E+00 -0.00000000000E+00 -0.77932313506E+03  0.77932313508E+03  0.50400000000E-02 0. -1.
    8880022    1    1    2    0    0 -0.78445162092E+03 -0.27252835332E+03  0.14394771645E+04  0.16688685416E+04  0.15294330000E+03 0.  0.
    8880022    1    1    2    0    0  0.78445162092E+03  0.27252835332E+03 -0.39642166236E+03  0.93283323072E+03  0.15294330000E+03 0.  0.
<mgrwt>
<rscale>  0 0.84440968E+03</rscale>
<asrwt>0</asrwt>
<pdfrwt beam="1">  1        1 0.11989587E+00 0.84440968E+03</pdfrwt>
<pdfrwt beam="2">  1       -1 0.28036594E+00 0.84440968E+03</pdfrwt>
<totfact> 0.10572870E+00</totfact>
</mgrwt>
</event>
<event>
 4    1  0.2293715E-008  0.2313969E+03  0.7818608E-02  0.1125660E+00
         -1   -1    0    0    0  501 -0.00000000000E+00  0.00000000000E+00  0.14184908428E+03  0.14184908437E+03  0.50400000000E-02 0.  1.
          1   -1    0    0  501    0  0.00000000000E+00 -0.00000000000E+00 -0.10435030951E+04  0.10435030951E+04  0.50400000000E-02 0. -1.
    8880022    1    1    2    0    0  0.57223494248E+02  0.16394621826E+03 -0.92432339449E+03  0.95284745966E+03  0.15294330000E+03 0.  0.
    8880022    1    1    2    0    0 -0.57223494248E+02 -0.16394621826E+03  0.22669383646E+02  0.23250471984E+03  0.15294330000E+03 0.  0.
<mgrwt>
<rscale>  0 0.23139694E+03</rscale>
<asrwt>0</asrwt>
<pdfrwt beam="1">  1        1 0.16053893E+00 0.23139694E+03</pdfrwt>
<pdfrwt beam="2">  1       -1 0.21822937E-01 0.23139694E+03</pdfrwt>
<totfact> 0.26288593E+02</totfact>
</mgrwt>
</event>
<event>
 4    1  0.2293715E-008  0.1557054E+03  0.7818608E-02  0.1193632E+00
          1   -1    0    0  501    0  0.00000000000E+00  0.00000000000E+00  0.16731371468E+03  0.16731371476E+03  0.50400000000E-02 0. -1.
         -1   -1    0    0    0  501 -0.00000000000E+00 -0.00000000000E+00 -0.11269512689E+04  0.11269512689E+04  0.50400000000E-02 0.  1.
    8880022    1    1    2    0    0 -0.96117722744E+01 -0.27570219878E+02 -0.10839164889E+04  0.10950429722E+04  0.15294330000E+03 0.  1.
    8880022    1    1    2    0    0  0.96117722744E+01  0.27570219878E+02  0.12427893471E+03  0.19922201138E+03  0.15294330000E+03 0.  0.
<mgrwt>
<rscale>  0 0.15570535E+03</rscale>
<asrwt>0</asrwt>
<pdfrwt beam="1">  1        1 0.25740572E-01 0.15570535E+03</pdfrwt>
<pdfrwt beam="2">  1       -1 0.17337711E+00 0.15570535E+03</pdfrwt>
<totfact> 0.48730914E+01</totfact>
</mgrwt>
</event>
<event>
 4    1  0.2293715E-008  0.2102225E+03  0.7818608E-02  0.1141390E+00
          1   -1    0    0  501    0  0.00000000000E+00  0.00000000000E+00  0.72912714801E+02  0.72912714975E+02  0.50400000000E-02 0. -1.
         -1   -1    0    0    0  501 -0.00000000000E+00 -0.00000000000E+00 -0.79006548754E+03  0.79006548756E+03  0.50400000000E-02 0.  1.
    8880022    1    1    2    0    0 -0.13959039768E+03 -0.36282007751E+02 -0.15037273805E+03  0.25846755420E+03  0.15294330000E+03 0. -1.
    8880022    1    1    2    0    0  0.13959039768E+03  0.36282007751E+02 -0.56678003470E+03  0.60451064834E+03  0.15294330000E+03 0.  1.
<mgrwt>
<rscale>  0 0.21022254E+03</rscale>
<asrwt>0</asrwt>
<pdfrwt beam="1">  1        1 0.11217341E-01 0.21022254E+03</pdfrwt>
<pdfrwt beam="2">  1       -1 0.12154853E+00 0.21022254E+03</pdfrwt>
<totfact> 0.35344975E+02</totfact>
</mgrwt>
</event>
<event>
 4    1  0.2293715E-008  0.5871369E+03  0.7818608E-02  0.9932458E-01
         -1   -1    0    0    0  501 -0.00000000000E+00  0.00000000000E+00  0.26989979243E+04  0.26989979243E+04  0.50400000000E-02 0.  1.
          1   -1    0    0  501    0  0.00000000000E+00 -0.00000000000E+00 -0.26083721945E+03  0.26083721950E+03  0.50400000000E-02 0. -1.
    8880022    1    1    2    0    0 -0.27158309891E+03 -0.49757486989E+03  0.22762910348E+04  0.23507936232E+04  0.15294330000E+03 0.  0.
    8880022    1    1    2    0    0  0.27158309891E+03  0.49757486989E+03  0.16186967009E+03  0.60904152064E+03  0.15294330000E+03 0.  0.
<mgrwt>
<rscale>  0 0.58713694E+03</rscale>
<asrwt>0</asrwt>
<pdfrwt beam="1">  1        1 0.40128804E-01 0.58713694E+03</pdfrwt>
<pdfrwt beam="2">  1       -1 0.41523043E+00 0.58713694E+03</pdfrwt>
<totfact> 0.65490346E-01</totfact>
</mgrwt>
</event>
<event>
 4    1  0.2293715E-008  0.3704309E+03  0.7818608E-02  0.1054528E+00
          1   -1    0    0  501    0  0.00000000000E+00  0.00000000000E+00  0.25024915434E+04  0.25024915434E+04  0.50400000000E-02 0. -1.
         -1   -1    0    0    0  501 -0.00000000000E+00 -0.00000000000E+00 -0.14472070747E+03  0.14472070756E+03  0.50400000000E-02 0.  1.
    8880022    1    1    2    0    0 -0.19252276641E+03 -0.27706019937E+03  0.22220280018E+04  0.22526933798E+04  0.15294330000E+03 0.  0.
    8880022    1    1    2    0    0  0.19252276641E+03  0.27706019937E+03  0.13574283411E+03  0.39451887114E+03  0.15294330000E+03 0.  0.
<mgrwt>
<rscale>  0 0.37043086E+03</rscale>
<asrwt>0</asrwt>
<pdfrwt beam="1">  1        1 0.38499871E+00 0.37043086E+03</pdfrwt>
<pdfrwt beam="2">  1       -1 0.22264723E-01 0.37043086E+03</pdfrwt>
<totfact> 0.26004442E+01</totfact>
</mgrwt>
</event>
<event>
 4    1  0.2293715E-008  0.5282050E+03  0.7818608E-02  0.1006668E+00
          1   -1    0    0  501    0  0.00000000000E+00  0.00000000000E+00  0.19158032505E+04  0.19158032505E+04  0.50400000000E-02 0. -1.
         -1   -1    0    0    0  501 -0.00000000000E+00 -0.00000000000E+00 -0.74006509454E+03  0.74006509456E+03  0.50400000000E-02 0.  1.
    8880022    1    1    2    0    0 -0.47737205109E+03  0.16650774489E+03 -0.60225817735E+03  0.80107145091E+03  0.15294330000E+03 0.  0.
    8880022    1    1    2    0    0  0.47737205109E+03 -0.16650774489E+03  0.17779963333E+04  0.18547968941E+04  0.15294330000E+03 0.  0.
<mgrwt>
<rscale>  0 0.52820503E+03</rscale>
<asrwt>0</asrwt>
<pdfrwt beam="1">  1        1 0.29473896E+00 0.52820503E+03</pdfrwt>
<pdfrwt beam="2">  1       -1 0.11385617E+00 0.52820503E+03</pdfrwt>
<totfact> 0.26448734E+00</totfact>
</mgrwt>
</event>
<event>
 4    1  0.2293715E-008  0.4470375E+03  0.7818608E-02  0.1028609E+00
          1   -1    0    0  501    0  0.00000000000E+00  0.00000000000E+00  0.22330003282E+04  0.22330003282E+04  0.50400000000E-02 0. -1.
         -1   -1    0    0    0  501 -0.00000000000E+00 -0.00000000000E+00 -0.39532826264E+03  0.39532826267E+03  0.50400000000E-02 0.  1.
    8880022    1    1    2    0    0 -0.35260784214E+02 -0.41857797480E+03  0.20747168292E+04  0.21223318351E+04  0.15294330000E+03 0.  0.
    8880022    1    1    2    0    0  0.35260784214E+02  0.41857797480E+03 -0.23704476363E+03  0.50599675579E+03  0.15294330000E+03 0.  1.
<mgrwt>
<rscale>  0 0.44703747E+03</rscale>
<asrwt>0</asrwt>
<pdfrwt beam="1">  1        1 0.34353853E+00 0.44703747E+03</pdfrwt>
<pdfrwt beam="2">  1       -1 0.60819730E-01 0.44703747E+03</pdfrwt>
<totfact> 0.63940392E+00</totfact>
</mgrwt>
</event>
<event>
 4    1  0.2293715E-008  0.3526694E+03  0.7818608E-02  0.1061525E+00
         -1   -1    0    0    0  501 -0.00000000000E+00  0.00000000000E+00  0.56870671698E+03  0.56870671700E+03  0.50400000000E-02 0.  1.
          1   -1    0    0  501    0  0.00000000000E+00 -0.00000000000E+00 -0.18978198601E+04  0.18978198601E+04  0.50400000000E-02 0. -1.
    8880022    1    1    2    0    0 -0.28783574519E+03 -0.13466481500E+03 -0.18245866974E+04  0.18583574193E+04  0.15294330000E+03 0.  0.
    8880022    1    1    2    0    0  0.28783574519E+03  0.13466481500E+03  0.49547355422E+03  0.60816915785E+03  0.15294330000E+03 0.  1.
<mgrwt>
<rscale>  0 0.35266937E+03</rscale>
<asrwt>0</asrwt>
<pdfrwt beam="1">  1        1 0.29197228E+00 0.35266937E+03</pdfrwt>
<pdfrwt beam="2">  1       -1 0.87493342E-01 0.35266937E+03</pdfrwt>
<totfact> 0.52145101E+00</totfact>
</mgrwt>
</event>
<event>
 4    1  0.2293715E-008  0.9112618E+03  0.7818608E-02  0.9411612E-01
         -1   -1    0    0    0  501 -0.00000000000E+00  0.00000000000E+00  0.92021240138E+03  0.92021240140E+03  0.50400000000E-02 0.  1.
          1   -1    0    0  501    0  0.00000000000E+00 -0.00000000000E+00 -0.94158522092E+03  0.94158522093E+03  0.50400000000E-02 0. -1.
    8880022    1    1    2    0    0  0.71771559592E+03 -0.54026916823E+03  0.17922158437E+03  0.92871873034E+03  0.15294330000E+03 0.  0.
    8880022    1    1    2    0    0 -0.71771559592E+03  0.54026916823E+03 -0.20059440390E+03  0.93307889198E+03  0.15294330000E+03 0.  0.
<mgrwt>
<rscale>  0 0.91126182E+03</rscale>
<asrwt>0</asrwt>
<pdfrwt beam="1">  1        1 0.14485927E+00 0.91126182E+03</pdfrwt>
<pdfrwt beam="2">  1       -1 0.14157114E+00 0.91126182E+03</pdfrwt>
<totfact> 0.69378781E+00</totfact>
</mgrwt>
</event>
<event>
 4    1  0.2293715E-008  0.5317199E+03  0.7818608E-02  0.1005816E+00
         -1   -1    0    0    0  501 -0.00000000000E+00  0.00000000000E+00  0.61657452894E+03  0.61657452896E+03  0.50400000000E-02 0.  1.
          1   -1    0    0  501    0  0.00000000000E+00 -0.00000000000E+00 -0.57849056488E+03  0.57849056491E+03  0.50400000000E-02 0. -1.
    8880022    1    1    2    0    0 -0.42786937893E+03 -0.27615601753E+03  0.29112969950E+03  0.60620335399E+03  0.15294330000E+03 0.  0.
    8880022    1    1    2    0    0  0.42786937893E+03  0.27615601753E+03 -0.25304573544E+03  0.58886173987E+03  0.15294330000E+03 0.  0.
<mgrwt>
<rscale>  0 0.53171986E+03</rscale>
<asrwt>0</asrwt>
<pdfrwt beam="1">  1        1 0.88998549E-01 0.53171986E+03</pdfrwt>
<pdfrwt beam="2">  1       -1 0.94857620E-01 0.53171986E+03</pdfrwt>
<totfact> 0.40625719E+01</totfact>
</mgrwt>
</event>
<event>
 4    1  0.2293715E-008  0.5790896E+03  0.7818608E-02  0.9949764E-01
         -1   -1    0    0    0  501 -0.00000000000E+00  0.00000000000E+00  0.18372362656E+03  0.18372362663E+03  0.50400000000E-02 0.  1.
          1   -1    0    0  501    0  0.00000000000E+00 -0.00000000000E+00 -0.36669739974E+04  0.36669739974E+04  0.50400000000E-02 0. -1.
    8880022    1    1    2    0    0 -0.46276124935E+03  0.31273805275E+03 -0.31061007013E+04  0.31596212247E+04  0.15294330000E+03 0.  0.
    8880022    1    1    2    0    0  0.46276124935E+03 -0.31273805275E+03 -0.37714966952E+03  0.69107639937E+03  0.15294330000E+03 0.  0.
<mgrwt>
<rscale>  0 0.57908956E+03</rscale>
<asrwt>0</asrwt>
<pdfrwt beam="1">  1        1 0.56414979E+00 0.57908956E+03</pdfrwt>
<pdfrwt beam="2">  1       -1 0.28265176E-01 0.57908956E+03</pdfrwt>
<totfact> 0.23584114E+00</totfact>
</mgrwt>
</event>
<event>
 4    1  0.2293715E-008  0.4851163E+03  0.7818608E-02  0.1017738E+00
          1   -1    0    0  501    0  0.00000000000E+00  0.00000000000E+00  0.16174470655E+04  0.16174470655E+04  0.50400000000E-02 0. -1.
         -1   -1    0    0    0  501 -0.00000000000E+00 -0.00000000000E+00 -0.60552453011E+03  0.60552453013E+03  0.50400000000E-02 0.  1.
    8880022    1    1    2    0    0 -0.42418075554E+03  0.17893242711E+03  0.14747493029E+04  0.15524893836E+04  0.15294330000E+03 0.  0.
    8880022    1    1    2    0    0  0.42418075554E+03 -0.17893242711E+03 -0.46282676753E+03  0.67048221199E+03  0.15294330000E+03 0.  0.
<mgrwt>
<rscale>  0 0.48511625E+03</rscale>
<asrwt>0</asrwt>
<pdfrwt beam="1">  1        1 0.24883801E+00 0.48511625E+03</pdfrwt>
<pdfrwt beam="2">  1       -1 0.93157621E-01 0.48511625E+03</pdfrwt>
<totfact> 0.66816450E+00</totfact>
</mgrwt>
</event>
<event>
 4    1  0.2293715E-008  0.1991940E+03  0.7818608E-02  0.1150421E+00
          1   -1    0    0  501    0  0.00000000000E+00  0.00000000000E+00  0.14181734205E+04  0.14181734205E+04  0.50400000000E-02 0. -1.
         -1   -1    0    0    0  501 -0.00000000000E+00 -0.00000000000E+00 -0.53382504321E+02  0.53382504559E+02  0.50400000000E-02 0.  1.
    8880022    1    1    2    0    0 -0.10650145654E+03 -0.70313875619E+02  0.17482181681E+03  0.26503003980E+03  0.15294330000E+03 0.  1.
    8880022    1    1    2    0    0  0.10650145654E+03  0.70313875619E+02  0.11899690994E+04  0.12065258853E+04  0.15294330000E+03 0.  0.
<mgrwt>
<rscale>  0 0.19919401E+03</rscale>
<asrwt>0</asrwt>
<pdfrwt beam="1">  1        1 0.21818051E+00 0.19919401E+03</pdfrwt>
<pdfrwt beam="2">  1       -1 0.82126935E-02 0.19919401E+03</pdfrwt>
<totfact> 0.67730330E+02</totfact>
</mgrwt>
</event>
<event>
 4    1  0.2293715E-008  0.3366386E+03  0.7818608E-02  0.1068237E+00
          1   -1    0    0  501    0  0.00000000000E+00  0.00000000000E+00  0.40636749519E+04  0.40636749519E+04  0.50400000000E-02 0. -1.
         -1   -1    0    0    0  501 -0.00000000000E+00 -0.00000000000E+00 -0.12122955680E+03  0.12122955691E+03  0.50400000000E-02 0.  1.
    8880022    1    1    2    0    0  0.28422077362E+03  0.95668422543E+02  0.13514908726E+03  0.36275449554E+03  0.15294330000E+03 0.  0.
    8880022    1    1    2    0    0 -0.28422077362E+03 -0.95668422543E+02  0.38072963078E+04  0.38221500132E+04  0.15294330000E+03 0. -1.
<mgrwt>
<rscale>  0 0.33663860E+03</rscale>
<asrwt>0</asrwt>
<pdfrwt beam="1">  1        1 0.62518076E+00 0.33663860E+03</pdfrwt>
<pdfrwt beam="2">  1       -1 0.18650701E-01 0.33663860E+03</pdfrwt>
<totfact> 0.24301025E+00</totfact>
</mgrwt>
</event>
<event>
 4    1  0.2293715E-008  0.1894780E+03  0.7818608E-02  0.1158933E+00
          1   -1    0    0  501    0  0.00000000000E+00  0.00000000000E+00  0.93438008352E+03  0.93438008354E+03  0.50400000000E-02 0. -1.
         -1   -1    0    0    0  501 -0.00000000000E+00 -0.00000000000E+00 -0.39625205084E+03  0.39625205087E+03  0.50400000000E-02 0.  1.
    8880022    1    1    2    0    0  0.10836718494E+03 -0.27691200708E+02  0.90130101585E+03  0.92100240150E+03  0.15294330000E+03 0.  0.
    8880022    1    1    2    0    0 -0.10836718494E+03  0.27691200708E+02 -0.36317298317E+03  0.40962973292E+03  0.15294330000E+03 0.  1.
<mgrwt>
<rscale>  0 0.18947797E+03</rscale>
<asrwt>0</asrwt>
<pdfrwt beam="1">  1        1 0.14375078E+00 0.18947797E+03</pdfrwt>
<pdfrwt beam="2">  1       -1 0.60961854E-01 0.18947797E+03</pdfrwt>
<totfact> 0.52773374E+01</totfact>
</mgrwt>
</event>
<event>
 4    1  0.2293715E-008  0.2658665E+03  0.7818608E-02  0.1103669E+00
          1   -1    0    0  501    0  0.00000000000E+00  0.00000000000E+00  0.67641609748E+03  0.67641609749E+03  0.50400000000E-02 0. -1.
         -1   -1    0    0    0  501 -0.00000000000E+00 -0.00000000000E+00 -0.25437825969E+03  0.25437825974E+03  0.50400000000E-02 0.  1.
    8880022    1    1    2    0    0  0.11301821949E+03 -0.18579624414E+03 -0.14621613782E+03  0.30342078744E+03  0.15294330000E+03 0.  0.
    8880022    1    1    2    0    0 -0.11301821949E+03  0.18579624414E+03  0.56825397561E+03  0.62737356980E+03  0.15294330000E+03 0. -1.
<mgrwt>
<rscale>  0 0.26586654E+03</rscale>
<asrwt>0</asrwt>
<pdfrwt beam="1">  1        1 0.10406401E+00 0.26586654E+03</pdfrwt>
<pdfrwt beam="2">  1       -1 0.39135117E-01 0.26586654E+03</pdfrwt>
<totfact> 0.19241602E+02</totfact>
</mgrwt>
</event>
<event>
 4    1  0.2293715E-008  0.2884399E+03  0.7818608E-02  0.1091167E+00
          1   -1    0    0  501    0  0.00000000000E+00  0.00000000000E+00  0.30853818311E+04  0.30853818311E+04  0.50400000000E-02 0. -1.
         -1   -1    0    0    0  501 -0.00000000000E+00 -0.00000000000E+00 -0.23396412447E+03  0.23396412452E+03  0.50400000000E-02 0.  1.
    8880022    1    1    2    0    0  0.87420105036E+02  0.22839360242E+03 -0.13539594945E+03  0.31863714243E+03  0.15294330000E+03 0.  0.
    8880022    1    1    2    0    0 -0.87420105036E+02 -0.22839360242E+03  0.29868136561E+04  0.30007088132E+04  0.15294330000E+03 0.  0.
<mgrwt>
<rscale>  0 0.28843988E+03</rscale>
<asrwt>0</asrwt>
<pdfrwt beam="1">  1        1 0.47467413E+00 0.28843988E+03</pdfrwt>
<pdfrwt beam="2">  1       -1 0.35994481E-01 0.28843988E+03</pdfrwt>
<totfact> 0.47073421E+00</totfact>
</mgrwt>
</event>
<event>
 4    1  0.2293715E-008  0.3309863E+03  0.7818608E-02  0.1070701E+00
         -1   -1    0    0    0  501 -0.00000000000E+00  0.00000000000E+00  0.54410966146E+03  0.54410966149E+03  0.50400000000E-02 0.  1.
          1   -1    0    0  501    0  0.00000000000E+00 -0.00000000000E+00 -0.61359866201E+03  0.61359866203E+03  0.50400000000E-02 0. -1.
    8880022    1    1    2    0    0  0.57428370972E+02 -0.28785807634E+03  0.43972792524E+03  0.55037495506E+03  0.15294330000E+03 0.  1.
    8880022    1    1    2    0    0 -0.57428370972E+02  0.28785807634E+03 -0.50921692579E+03  0.60733336846E+03  0.15294330000E+03 0.  0.
<mgrwt>
<rscale>  0 0.33098632E+03</rscale>
<asrwt>0</asrwt>
<pdfrwt beam="1">  1        1 0.94399794E-01 0.33098632E+03</pdfrwt>
<pdfrwt beam="2">  1       -1 0.83709179E-01 0.33098632E+03</pdfrwt>
<totfact> 0.50634411E+01</totfact>
</mgrwt>
</event>
<event>
 4    1  0.2293715E-008  0.6365983E+03  0.7818608E-02  0.9832257E-01
          1   -1    0    0  501    0  0.00000000000E+00  0.00000000000E+00  0.18309265760E+04  0.18309265760E+04  0.50400000000E-02 0. -1.
         -1   -1    0    0    0  501 -0.00000000000E+00 -0.00000000000E+00 -0.29370063578E+03  0.29370063583E+03  0.50400000000E-02 0.  1.
    8880022    1    1    2    0    0 -0.29632698986E+03 -0.54226939283E+03  0.24132088599E+03  0.68080335072E+03  0.15294330000E+03 0.  0.
    8880022    1    1    2    0    0  0.29632698986E+03  0.54226939283E+03  0.12959050542E+04  0.14438238611E+04  0.15294330000E+03 0.  0.
<mgrwt>
<rscale>  0 0.63659833E+03</rscale>
<asrwt>0</asrwt>
<pdfrwt beam="1">  1        1 0.28168102E+00 0.63659833E+03</pdfrwt>
<pdfrwt beam="2">  1       -1 0.45184712E-01 0.63659833E+03</pdfrwt>
<totfact> 0.19934500E+01</totfact>
</mgrwt>
</event>
<event>
 4    1  0.2293715E-008  0.3037214E+03  0.7818608E-02  0.1083395E+00
         -1   -1    0    0    0  501 -0.00000000000E+00  0.00000000000E+00  0.15623621846E+03  0.15623621854E+03  0.50400000000E-02 0.  1.
          1   -1    0    0  501    0  0.00000000000E+00 -0.00000000000E+00 -0.18670005472E+04  0.18670005472E+04  0.50400000000E-02 0. -1.
    8880022    1    1    2    0    0 -0.17065833201E+03 -0.19932584251E+03 -0.18880661403E+02  0.30430772282E+03  0.15294330000E+03 0.  0.
    8880022    1    1    2    0    0  0.17065833201E+03  0.19932584251E+03 -0.16918836674E+04  0.17189290430E+04  0.15294330000E+03 0.  1.
<mgrwt>
<rscale>  0 0.30372144E+03</rscale>
<asrwt>0</asrwt>
<pdfrwt beam="1">  1        1 0.28723084E+00 0.30372144E+03</pdfrwt>
<pdfrwt beam="2">  1       -1 0.24036343E-01 0.30372144E+03</pdfrwt>
<totfact> 0.61184693E+01</totfact>
</mgrwt>
</event>
<event>
 4    1  0.2293715E-008  0.3025309E+03  0.7818608E-02  0.1083982E+00
         -1   -1    0    0    0  501 -0.00000000000E+00  0.00000000000E+00  0.57084837340E+02  0.57084837563E+02  0.50400000000E-02 0.  1.
          1   -1    0    0  501    0  0.00000000000E+00 -0.00000000000E+00 -0.21065776761E+04  0.21065776761E+04  0.50400000000E-02 0. -1.
    8880022    1    1    2    0    0 -0.25564553012E+03 -0.52712870388E+02 -0.49597442498E+03  0.58096089973E+03  0.15294330000E+03 0.  0.
    8880022    1    1    2    0    0  0.25564553012E+03  0.52712870388E+02 -0.15535184138E+04  0.15827016139E+04  0.15294330000E+03 0.  0.
<mgrwt>
<rscale>  0 0.30253089E+03</rscale>
<asrwt>0</asrwt>
<pdfrwt beam="1">  1        1 0.32408881E+00 0.30253089E+03</pdfrwt>
<pdfrwt beam="2">  1       -1 0.87822843E-02 0.30253089E+03</pdfrwt>
<totfact> 0.21333146E+02</totfact>
</mgrwt>
</event>
<event>
 4    1  0.2293715E-008  0.5086493E+03  0.7818608E-02  0.1011546E+00
         -1   -1    0    0    0  501 -0.00000000000E+00  0.00000000000E+00  0.51511596294E+03  0.51511596297E+03  0.50400000000E-02 0.  1.
          1   -1    0    0  501    0  0.00000000000E+00 -0.00000000000E+00 -0.21867952660E+04  0.21867952660E+04  0.50400000000E-02 0. -1.
    8880022    1    1    2    0    0  0.28205259564E+03 -0.39468818749E+03  0.34986517002E+03  0.61735704601E+03  0.15294330000E+03 0.  0.
    8880022    1    1    2    0    0 -0.28205259564E+03  0.39468818749E+03 -0.20215444730E+04  0.20845541829E+04  0.15294330000E+03 0.  0.
<mgrwt>
<rscale>  0 0.50864928E+03</rscale>
<asrwt>0</asrwt>
<pdfrwt beam="1">  1        1 0.33643004E+00 0.50864928E+03</pdfrwt>
<pdfrwt beam="2">  1       -1 0.79248611E-01 0.50864928E+03</pdfrwt>
<totfact> 0.39427252E+00</totfact>
</mgrwt>
</event>
<event>
 4    1  0.2293715E-008  0.8418736E+03  0.7818608E-02  0.9501309E-01
          1   -1    0    0  501    0  0.00000000000E+00  0.00000000000E+00  0.99741377581E+03  0.99741377582E+03  0.50400000000E-02 0. -1.
         -1   -1    0    0    0  501 -0.00000000000E+00 -0.00000000000E+00 -0.97607634851E+03  0.97607634852E+03  0.50400000000E-02 0.  1.
    8880022    1    1    2    0    0 -0.38131247347E+03 -0.73481989986E+03 -0.50394941119E+03  0.98118099743E+03  0.15294330000E+03 0.  0.
    8880022    1    1    2    0    0  0.38131247347E+03  0.73481989986E+03  0.52528683849E+03  0.99230912692E+03  0.15294330000E+03 0.  0.
<mgrwt>
<rscale>  0 0.84187359E+03</rscale>
<asrwt>0</asrwt>
<pdfrwt beam="1">  1        1 0.15344827E+00 0.84187359E+03</pdfrwt>
<pdfrwt beam="2">  1       -1 0.15016559E+00 0.84187359E+03</pdfrwt>
<totfact> 0.54064615E+00</totfact>
</mgrwt>
</event>
<event>
 4    1  0.2293715E-008  0.3947230E+03  0.7818608E-02  0.1045622E+00
          1   -1    0    0  501    0  0.00000000000E+00  0.00000000000E+00  0.17875963307E+04  0.17875963307E+04  0.50400000000E-02 0. -1.
         -1   -1    0    0    0  501 -0.00000000000E+00 -0.00000000000E+00 -0.13893394595E+03  0.13893394604E+03  0.50400000000E-02 0.  1.
    8880022    1    1    2    0    0 -0.62372988700E+02  0.35850268306E+03  0.23630200186E+03  0.46004875022E+03  0.15294330000E+03 0.  0.
    8880022    1    1    2    0    0  0.62372988700E+02 -0.35850268306E+03  0.14123603829E+04  0.14664815265E+04  0.15294330000E+03 0.  0.
<mgrwt>
<rscale>  0 0.39472296E+03</rscale>
<asrwt>0</asrwt>
<pdfrwt beam="1">  1        1 0.27501484E+00 0.39472296E+03</pdfrwt>
<pdfrwt beam="2">  1       -1 0.21374452E-01 0.39472296E+03</pdfrwt>
<totfact> 0.82041734E+01</totfact>
</mgrwt>
</event>
<event>
 4    1  0.2293715E-008  0.3043676E+03  0.7818608E-02  0.1083077E+00
         -1   -1    0    0    0  501 -0.00000000000E+00  0.00000000000E+00  0.91927449605E+02  0.91927449743E+02  0.50400000000E-02 0.  1.
          1   -1    0    0  501    0  0.00000000000E+00 -0.00000000000E+00 -0.14566446379E+04  0.14566446379E+04  0.50400000000E-02 0. -1.
    8880022    1    1    2    0    0 -0.14380058133E+02  0.26275696450E+03 -0.25252730940E+03  0.39548666662E+03  0.15294330000E+03 0.  0.
    8880022    1    1    2    0    0  0.14380058133E+02 -0.26275696450E+03 -0.11121898789E+04  0.11530854210E+04  0.15294330000E+03 0.  0.
<mgrwt>
<rscale>  0 0.30436764E+03</rscale>
<asrwt>0</asrwt>
<pdfrwt beam="1">  1        1 0.22409916E+00 0.30436764E+03</pdfrwt>
<pdfrwt beam="2">  1       -1 0.14142686E-01 0.30436764E+03</pdfrwt>
<totfact> 0.26993334E+02</totfact>
</mgrwt>
</event>
<event>
 4    1  0.2293715E-008  0.5535975E+03  0.7818608E-02  0.1000665E+00
         -1   -1    0    0    0  501 -0.00000000000E+00  0.00000000000E+00  0.62735184235E+03  0.62735184237E+03  0.50400000000E-02 0.  1.
          1   -1    0    0  501    0  0.00000000000E+00 -0.00000000000E+00 -0.55890067645E+03  0.55890067647E+03  0.50400000000E-02 0. -1.
    8880022    1    1    2    0    0 -0.49010613314E+03 -0.20706151063E+03 -0.17626134645E+03  0.58098038365E+03  0.15294330000E+03 0.  0.
    8880022    1    1    2    0    0  0.49010613314E+03  0.20706151063E+03  0.24471251235E+03  0.60527213519E+03  0.15294330000E+03 0.  0.
<mgrwt>
<rscale>  0 0.55359746E+03</rscale>
<asrwt>0</asrwt>
<pdfrwt beam="1">  1        1 0.85984720E-01 0.55359746E+03</pdfrwt>
<pdfrwt beam="2">  1       -1 0.96515668E-01 0.55359746E+03</pdfrwt>
<totfact> 0.40909564E+01</totfact>
</mgrwt>
</event>
<event>
 4    1  0.2293715E-008  0.8863177E+03  0.7818608E-02  0.9442848E-01
          1   -1    0    0  501    0  0.00000000000E+00  0.00000000000E+00  0.12418909549E+04  0.12418909549E+04  0.50400000000E-02 0. -1.
         -1   -1    0    0    0  501 -0.00000000000E+00 -0.00000000000E+00 -0.71287514516E+03  0.71287514517E+03  0.50400000000E-02 0.  1.
    8880022    1    1    2    0    0  0.68093439962E+03  0.54634761254E+03  0.59258949976E+03  0.10661713458E+04  0.15294330000E+03 0.  0.
    8880022    1    1    2    0    0 -0.68093439962E+03 -0.54634761254E+03 -0.63573690011E+02  0.88859475431E+03  0.15294330000E+03 0.  0.
<mgrwt>
<rscale>  0 0.88631768E+03</rscale>
<asrwt>0</asrwt>
<pdfrwt beam="1">  1        1 0.19106015E+00 0.88631768E+03</pdfrwt>
<pdfrwt beam="2">  1       -1 0.10967310E+00 0.88631768E+03</pdfrwt>
<totfact> 0.77866134E+00</totfact>
</mgrwt>
</event>
<event>
 4    1  0.2293715E-008  0.1648504E+03  0.7818608E-02  0.1183327E+00
         -1   -1    0    0    0  501 -0.00000000000E+00  0.00000000000E+00  0.17316509576E+04  0.17316509576E+04  0.50400000000E-02 0.  1.
          1   -1    0    0  501    0  0.00000000000E+00 -0.00000000000E+00 -0.60920556098E+03  0.60920556100E+03  0.50400000000E-02 0. -1.
    8880022    1    1    2    0    0 -0.31922467289E+02  0.52582809443E+02 -0.59403174406E+03  0.61648143665E+03  0.15294330000E+03 0.  0.
    8880022    1    1    2    0    0  0.31922467289E+02 -0.52582809443E+02  0.17164771407E+04  0.17243750820E+04  0.15294330000E+03 0.  1.
<mgrwt>
<rscale>  0 0.16485038E+03</rscale>
<asrwt>0</asrwt>
<pdfrwt beam="1">  1        1 0.93723934E-01 0.16485038E+03</pdfrwt>
<pdfrwt beam="2">  1       -1 0.26640783E+00 0.16485038E+03</pdfrwt>
<totfact> 0.23496258E+00</totfact>
</mgrwt>
</event>
<event>
 4    1  0.2293715E-008  0.5596638E+03  0.7818608E-02  0.9992816E-01
          1   -1    0    0  501    0  0.00000000000E+00  0.00000000000E+00  0.25985264063E+04  0.25985264063E+04  0.50400000000E-02 0. -1.
         -1   -1    0    0    0  501 -0.00000000000E+00 -0.00000000000E+00 -0.15601671877E+03  0.15601671885E+03  0.50400000000E-02 0.  1.
    8880022    1    1    2    0    0  0.18056497174E+03  0.50717666458E+03  0.56448617386E+03  0.79490135967E+03  0.15294330000E+03 0.  0.
    8880022    1    1    2    0    0 -0.18056497174E+03 -0.50717666458E+03  0.18780235136E+04  0.19596417655E+04  0.15294330000E+03 0.  0.
<mgrwt>
<rscale>  0 0.55966377E+03</rscale>
<asrwt>0</asrwt>
<pdfrwt beam="1">  1        1 0.39977332E+00 0.55966377E+03</pdfrwt>
<pdfrwt beam="2">  1       -1 0.24002570E-01 0.55966377E+03</pdfrwt>
<totfact> 0.18852281E+01</totfact>
</mgrwt>
</event>
<event>
 4    1  0.2293715E-008  0.1137068E+04  0.7818608E-02  0.9169797E-01
         -1   -1    0    0    0  501 -0.00000000000E+00  0.00000000000E+00  0.10193686394E+04  0.10193686395E+04  0.50400000000E-02 0.  1.
          1   -1    0    0  501    0  0.00000000000E+00 -0.00000000000E+00 -0.20356451495E+04  0.20356451495E+04  0.50400000000E-02 0. -1.
    8880022    1    1    2    0    0  0.57385359346E+03 -0.96965163127E+03 -0.14459404356E+04  0.18394748243E+04  0.15294330000E+03 0.  0.
    8880022    1    1    2    0    0 -0.57385359346E+03  0.96965163127E+03  0.42966392555E+03  0.12155389647E+04  0.15294330000E+03 0.  0.
<mgrwt>
<rscale>  0 0.11370681E+04</rscale>
<asrwt>0</asrwt>
<pdfrwt beam="1">  1        1 0.31317618E+00 0.11370681E+04</pdfrwt>
<pdfrwt beam="2">  1       -1 0.15682594E+00 0.11370681E+04</pdfrwt>
<totfact> 0.86320088E-01</totfact>
</mgrwt>
</event>
<event>
 4    1  0.2293715E-008  0.3873098E+03  0.7818608E-02  0.1048265E+00
          1   -1    0    0  501    0  0.00000000000E+00  0.00000000000E+00  0.21375096452E+04  0.21375096452E+04  0.50400000000E-02 0. -1.
         -1   -1    0    0    0  501 -0.00000000000E+00 -0.00000000000E+00 -0.29018941882E+03  0.29018941886E+03  0.50400000000E-02 0.  1.
    8880022    1    1    2    0    0 -0.33848914287E+03 -0.10973744564E+03  0.19805881766E+04  0.20181026696E+04  0.15294330000E+03 0. -1.
    8880022    1    1    2    0    0  0.33848914287E+03  0.10973744564E+03 -0.13326795018E+03  0.40959639449E+03  0.15294330000E+03 0.  0.
<mgrwt>
<rscale>  0 0.38730977E+03</rscale>
<asrwt>0</asrwt>
<pdfrwt beam="1">  1        1 0.32884763E+00 0.38730977E+03</pdfrwt>
<pdfrwt beam="2">  1       -1 0.44644527E-01 0.38730977E+03</pdfrwt>
<totfact> 0.13507523E+01</totfact>
</mgrwt>
</event>
<event>
 4    1  0.2293715E-008  0.6856994E+03  0.7818608E-02  0.9742006E-01
         -1   -1    0    0    0  501 -0.00000000000E+00  0.00000000000E+00  0.56772065193E+03  0.56772065195E+03  0.50400000000E-02 0.  1.
          1   -1    0    0  501    0  0.00000000000E+00 -0.00000000000E+00 -0.11886459552E+04  0.11886459552E+04  0.50400000000E-02 0. -1.
    8880022    1    1    2    0    0  0.43849564234E+03  0.50449334792E+03 -0.79405762782E+03  0.10491478141E+04  0.15294330000E+03 0.  0.
    8880022    1    1    2    0    0 -0.43849564234E+03 -0.50449334792E+03  0.17313232457E+03  0.70721879307E+03  0.15294330000E+03 0.  0.
<mgrwt>
<rscale>  0 0.68569937E+03</rscale>
<asrwt>0</asrwt>
<pdfrwt beam="1">  1        1 0.18286861E+00 0.68569937E+03</pdfrwt>
<pdfrwt beam="2">  1       -1 0.87341639E-01 0.68569937E+03</pdfrwt>
<totfact> 0.14644672E+01</totfact>
</mgrwt>
</event>
<event>
 4    1  0.2293715E-008  0.3239535E+03  0.7818608E-02  0.1073844E+00
          1   -1    0    0  501    0  0.00000000000E+00  0.00000000000E+00  0.11829152352E+04  0.11829152353E+04  0.50400000000E-02 0. -1.
         -1   -1    0    0    0  501 -0.00000000000E+00 -0.00000000000E+00 -0.42091914193E+03  0.42091914196E+03  0.50400000000E-02 0.  1.
    8880022    1    1    2    0    0 -0.28456629366E+03  0.24005102382E+02 -0.33141316391E+03  0.46344423467E+03  0.15294330000E+03 0.  0.
    8880022    1    1    2    0    0  0.28456629366E+03 -0.24005102382E+02  0.10934092572E+04  0.11403901425E+04  0.15294330000E+03 0.  0.
<mgrwt>
<rscale>  0 0.32395351E+03</rscale>
<asrwt>0</asrwt>
<pdfrwt beam="1">  1        1 0.18198696E+00 0.32395351E+03</pdfrwt>
<pdfrwt beam="2">  1       -1 0.64756791E-01 0.32395351E+03</pdfrwt>
<totfact> 0.29504641E+01</totfact>
</mgrwt>
</event>
<event>
 4    1  0.2293715E-008  0.7175703E+03  0.7818608E-02  0.9687648E-01
         -1   -1    0    0    0  501 -0.00000000000E+00  0.00000000000E+00  0.20662063231E+03  0.20662063237E+03  0.50400000000E-02 0.  1.
          1   -1    0    0  501    0  0.00000000000E+00 -0.00000000000E+00 -0.30089685375E+04  0.30089685375E+04  0.50400000000E-02 0. -1.
    8880022    1    1    2    0    0  0.68655682453E+03  0.14196888522E+03 -0.73477153274E+03  0.10270327629E+04  0.15294330000E+03 0.  0.
    8880022    1    1    2    0    0 -0.68655682453E+03 -0.14196888522E+03 -0.20675763724E+04  0.21885564070E+04  0.15294330000E+03 0.  0.
<mgrwt>
<rscale>  0 0.71757027E+03</rscale>
<asrwt>0</asrwt>
<pdfrwt beam="1">  1        1 0.46291821E+00 0.71757027E+03</pdfrwt>
<pdfrwt beam="2">  1       -1 0.31787792E-01 0.71757027E+03</pdfrwt>
<totfact> 0.58203403E+00</totfact>
</mgrwt>
</event>
<event>
 4    1  0.2293715E-008  0.5691010E+03  0.7818608E-02  0.9971670E-01
          1   -1    0    0  501    0  0.00000000000E+00  0.00000000000E+00  0.73099118168E+03  0.73099118169E+03  0.50400000000E-02 0. -1.
         -1   -1    0    0    0  501 -0.00000000000E+00 -0.00000000000E+00 -0.53077635042E+03  0.53077635045E+03  0.50400000000E-02 0.  1.
    8880022    1    1    2    0    0 -0.22618267613E+03  0.49932518517E+03 -0.15635508846E+03  0.59018879202E+03  0.15294330000E+03 0.  0.
    8880022    1    1    2    0    0  0.22618267613E+03 -0.49932518517E+03  0.35656991971E+03  0.67157874012E+03  0.15294330000E+03 0.  0.
<mgrwt>
<rscale>  0 0.56910095E+03</rscale>
<asrwt>0</asrwt>
<pdfrwt beam="1">  1        1 0.11246018E+00 0.56910095E+03</pdfrwt>
<pdfrwt beam="2">  1       -1 0.81657900E-01 0.56910095E+03</pdfrwt>
<totfact> 0.39752888E+01</totfact>
</mgrwt>
</event>
<event>
 4    1  0.2293715E-008  0.7723085E+03  0.7818608E-02  0.9600988E-01
         -1   -1    0    0    0  501 -0.00000000000E+00  0.00000000000E+00  0.97839031967E+03  0.97839031968E+03  0.50400000000E-02 0.  1.
          1   -1    0    0  501    0  0.00000000000E+00 -0.00000000000E+00 -0.85915246746E+03  0.85915246747E+03  0.50400000000E-02 0. -1.
    8880022    1    1    2    0    0  0.69743643445E+03 -0.29436567225E+03 -0.43551576394E+03  0.88664218418E+03  0.15294330000E+03 0.  0.
    8880022    1    1    2    0    0 -0.69743643445E+03  0.29436567225E+03  0.55475361615E+03  0.95090060298E+03  0.15294330000E+03 0.  0.
<mgrwt>
<rscale>  0 0.77230848E+03</rscale>
<asrwt>0</asrwt>
<pdfrwt beam="1">  1        1 0.13217730E+00 0.77230848E+03</pdfrwt>
<pdfrwt beam="2">  1       -1 0.15052159E+00 0.77230848E+03</pdfrwt>
<totfact> 0.70071542E+00</totfact>
</mgrwt>
</event>
<event>
 4    1  0.2293715E-008  0.3983487E+03  0.7818608E-02  0.1044353E+00
         -1   -1    0    0    0  501 -0.00000000000E+00  0.00000000000E+00  0.60378827602E+03  0.60378827604E+03  0.50400000000E-02 0.  1.
          1   -1    0    0  501    0  0.00000000000E+00 -0.00000000000E+00 -0.50119980302E+03  0.50119980304E+03  0.50400000000E-02 0. -1.
    8880022    1    1    2    0    0  0.33037607654E+03  0.16168378048E+03 -0.32974167512E+03  0.51711818973E+03  0.15294330000E+03 0.  0.
    8880022    1    1    2    0    0 -0.33037607654E+03 -0.16168378048E+03  0.43233014812E+03  0.58786988935E+03  0.15294330000E+03 0.  1.
<mgrwt>
<rscale>  0 0.39834865E+03</rscale>
<asrwt>0</asrwt>
<pdfrwt beam="1">  1        1 0.77107663E-01 0.39834865E+03</pdfrwt>
<pdfrwt beam="2">  1       -1 0.92890503E-01 0.39834865E+03</pdfrwt>
<totfact> 0.52856794E+01</totfact>
</mgrwt>
</event>
<event>
 4    1  0.2293715E-008  0.4866384E+03  0.7818608E-02  0.1017327E+00
          1   -1    0    0  501    0  0.00000000000E+00  0.00000000000E+00  0.64874514568E+03  0.64874514570E+03  0.50400000000E-02 0. -1.
         -1   -1    0    0    0  501 -0.00000000000E+00 -0.00000000000E+00 -0.11248968662E+04  0.11248968663E+04  0.50400000000E-02 0.  1.
    8880022    1    1    2    0    0  0.42424968301E+03 -0.18285922828E+03 -0.96693893327E+03  0.10824914986E+04  0.15294330000E+03 0.  0.
    8880022    1    1    2    0    0 -0.42424968301E+03  0.18285922828E+03  0.49078721271E+03  0.69115051333E+03  0.15294330000E+03 0. -1.
<mgrwt>
<rscale>  0 0.48663841E+03</rscale>
<asrwt>0</asrwt>
<pdfrwt beam="1">  1        1 0.99806946E-01 0.48663841E+03</pdfrwt>
<pdfrwt beam="2">  1       -1 0.17306106E+00 0.48663841E+03</pdfrwt>
<totfact> 0.77087532E+00</totfact>
</mgrwt>
</event>
<event>
 4    1  0.2293715E-008  0.1078901E+04  0.7818608E-02  0.9226004E-01
         -1   -1    0    0    0  501 -0.00000000000E+00  0.00000000000E+00  0.59993141606E+03  0.59993141608E+03  0.50400000000E-02 0.  1.
          1   -1    0    0  501    0  0.00000000000E+00 -0.00000000000E+00 -0.21214826482E+04  0.21214826482E+04  0.50400000000E-02 0. -1.
    8880022    1    1    2    0    0  0.88351514088E+03 -0.60002972496E+03 -0.36308592322E+03  0.11383574639E+04  0.15294330000E+03 0.  0.
    8880022    1    1    2    0    0 -0.88351514088E+03  0.60002972496E+03 -0.11584653089E+04  0.15830566004E+04  0.15294330000E+03 0.  0.
<mgrwt>
<rscale>  0 0.10789005E+04</rscale>
<asrwt>0</asrwt>
<pdfrwt beam="1">  1        1 0.32638194E+00 0.10789005E+04</pdfrwt>
<pdfrwt beam="2">  1       -1 0.92297142E-01 0.10789005E+04</pdfrwt>
<totfact> 0.28209060E+00</totfact>
</mgrwt>
</event>
<event>
 4    1  0.2293715E-008  0.1932926E+03  0.7818608E-02  0.1155525E+00
         -1   -1    0    0    0  501 -0.00000000000E+00  0.00000000000E+00  0.60642142984E+03  0.60642142986E+03  0.50400000000E-02 0.  1.
          1   -1    0    0  501    0  0.00000000000E+00 -0.00000000000E+00 -0.54111794438E+03  0.54111794440E+03  0.50400000000E-02 0. -1.
    8880022    1    1    2    0    0 -0.24544177248E+02  0.11561997267E+03  0.57277044988E+03  0.60450643998E+03  0.15294330000E+03 0.  1.
    8880022    1    1    2    0    0  0.24544177248E+02 -0.11561997267E+03 -0.50746696442E+03  0.54303293428E+03  0.15294330000E+03 0.  0.
<mgrwt>
<rscale>  0 0.19329265E+03</rscale>
<asrwt>0</asrwt>
<pdfrwt beam="1">  1        1 0.83248914E-01 0.19329265E+03</pdfrwt>
<pdfrwt beam="2">  1       -1 0.93295605E-01 0.19329265E+03</pdfrwt>
<totfact> 0.49463185E+01</totfact>
</mgrwt>
</event>
<event>
 4    1  0.2293715E-008  0.5803905E+03  0.7818608E-02  0.9946946E-01
         -1   -1    0    0    0  501 -0.00000000000E+00  0.00000000000E+00  0.16150250070E+04  0.16150250070E+04  0.50400000000E-02 0.  1.
          1   -1    0    0  501    0  0.00000000000E+00 -0.00000000000E+00 -0.68424016742E+03  0.68424016744E+03  0.50400000000E-02 0. -1.
    8880022    1    1    2    0    0  0.53265945084E+03  0.17243936509E+03  0.14239223392E+04  0.15376631316E+04  0.15294330000E+03 0.  0.
    8880022    1    1    2    0    0 -0.53265945084E+03 -0.17243936509E+03 -0.49313749959E+03  0.76160204288E+03  0.15294330000E+03 0.  0.
<mgrwt>
<rscale>  0 0.58039045E+03</rscale>
<asrwt>0</asrwt>
<pdfrwt beam="1">  1        1 0.10526772E+00 0.58039045E+03</pdfrwt>
<pdfrwt beam="2">  1       -1 0.24846538E+00 0.58039045E+03</pdfrwt>
<totfact> 0.21750062E+00</totfact>
</mgrwt>
</event>
<event>
 4    1  0.2293715E-008  0.2613013E+03  0.7818608E-02  0.1106364E+00
         -1   -1    0    0    0  501 -0.00000000000E+00  0.00000000000E+00  0.55581983577E+03  0.55581983580E+03  0.50400000000E-02 0.  1.
          1   -1    0    0  501    0  0.00000000000E+00 -0.00000000000E+00 -0.16465217633E+03  0.16465217641E+03  0.50400000000E-02 0. -1.
    8880022    1    1    2    0    0 -0.19071059704E+03 -0.92283158579E+02  0.14056863859E+02  0.26167911956E+03  0.15294330000E+03 0.  0.
    8880022    1    1    2    0    0  0.19071059704E+03  0.92283158579E+02  0.37711079558E+03  0.45879289264E+03  0.15294330000E+03 0.  0.
<mgrwt>
<rscale>  0 0.26130129E+03</rscale>
<asrwt>0</asrwt>
<pdfrwt beam="1">  1        1 0.25331104E-01 0.26130129E+03</pdfrwt>
<pdfrwt beam="2">  1       -1 0.85510743E-01 0.26130129E+03</pdfrwt>
<totfact> 0.26823589E+02</totfact>
</mgrwt>
</event>
<event>
 4    1  0.2293715E-008  0.2505789E+03  0.7818608E-02  0.1112940E+00
          1   -1    0    0  501    0  0.00000000000E+00  0.00000000000E+00  0.25014581112E+03  0.25014581118E+03  0.50400000000E-02 0. -1.
         -1   -1    0    0    0  501 -0.00000000000E+00 -0.00000000000E+00 -0.52643388455E+03  0.52643388457E+03  0.50400000000E-02 0.  1.
    8880022    1    1    2    0    0 -0.10002260141E+03  0.17144568208E+03 -0.41899940221E+03  0.48821132183E+03  0.15294330000E+03 0.  0.
    8880022    1    1    2    0    0  0.10002260141E+03 -0.17144568208E+03  0.14271132878E+03  0.28836837392E+03  0.15294330000E+03 0.  0.
<mgrwt>
<rscale>  0 0.25057892E+03</rscale>
<asrwt>0</asrwt>
<pdfrwt beam="1">  1        1 0.38483971E-01 0.25057892E+03</pdfrwt>
<pdfrwt beam="2">  1       -1 0.80989828E-01 0.25057892E+03</pdfrwt>
<totfact> 0.17725001E+02</totfact>
</mgrwt>
</event>
<event>
 4    1  0.2293715E-008  0.5253030E+03  0.7818608E-02  0.1007378E+00
          1   -1    0    0  501    0  0.00000000000E+00  0.00000000000E+00  0.20371949548E+04  0.20371949548E+04  0.50400000000E-02 0. -1.
         -1   -1    0    0    0  501 -0.00000000000E+00 -0.00000000000E+00 -0.59471100892E+03  0.59471100895E+03  0.50400000000E-02 0.  1.
    8880022    1    1    2    0    0  0.46649729570E+03 -0.18690079021E+03  0.18776629413E+04  0.19497593201E+04  0.15294330000E+03 0.  0.
    8880022    1    1    2    0    0 -0.46649729570E+03  0.18690079021E+03 -0.43517899545E+03  0.68214664360E+03  0.15294330000E+03 0.  0.
<mgrwt>
<rscale>  0 0.52530304E+03</rscale>
<asrwt>0</asrwt>
<pdfrwt beam="1">  1        1 0.31341461E+00 0.52530304E+03</pdfrwt>
<pdfrwt beam="2">  1       -1 0.91494000E-01 0.52530304E+03</pdfrwt>
<totfact> 0.36227896E+00</totfact>
</mgrwt>
</event>
<event>
 4    1  0.2293715E-008  0.7628599E+03  0.7818608E-02  0.9615388E-01
          1   -1    0    0  501    0  0.00000000000E+00  0.00000000000E+00  0.10652047698E+04  0.10652047698E+04  0.50400000000E-02 0. -1.
         -1   -1    0    0    0  501 -0.00000000000E+00 -0.00000000000E+00 -0.83476018737E+03  0.83476018739E+03  0.50400000000E-02 0.  1.
    8880022    1    1    2    0    0 -0.62094316262E+03  0.41592444689E+03 -0.44318843663E+03  0.88225347838E+03  0.15294330000E+03 0.  0.
    8880022    1    1    2    0    0  0.62094316262E+03 -0.41592444689E+03  0.67363301904E+03  0.10177114788E+04  0.15294330000E+03 0.  0.
<mgrwt>
<rscale>  0 0.76285989E+03</rscale>
<asrwt>0</asrwt>
<pdfrwt beam="1">  1        1 0.16387766E+00 0.76285989E+03</pdfrwt>
<pdfrwt beam="2">  1       -1 0.12842465E+00 0.76285989E+03</pdfrwt>
<totfact> 0.72784285E+00</totfact>
</mgrwt>
</event>
<event>
 4    1  0.4408240E-008  0.3211874E+03  0.7818608E-02  0.1075104E+00
          1   -1    0    0  501    0  0.00000000000E+00  0.00000000000E+00  0.19610397038E+04  0.19610397038E+04  0.50400000000E-02 0. -1.
         -1   -1    0    0    0  501 -0.00000000000E+00 -0.00000000000E+00 -0.22015396155E+04  0.22015396155E+04  0.50400000000E-02 0.  1.
    8880022    1    1    2    0    0  0.16665542209E+03  0.22802564587E+03 -0.21765232229E+04  0.22000942520E+04  0.15294330000E+03 0.  1.
    8880022    1    1    2    0    0 -0.16665542209E+03 -0.22802564587E+03  0.19360233112E+04  0.19624850673E+04  0.15294330000E+03 0.  0.
<mgrwt>
<rscale>  0 0.32118745E+03</rscale>
<asrwt>0</asrwt>
<pdfrwt beam="1">  1        1 0.30169841E+00 0.32118745E+03</pdfrwt>
<pdfrwt beam="2">  1       -1 0.33869841E+00 0.32118745E+03</pdfrwt>
<totfact> 0.77301560E-02</totfact>
</mgrwt>
</event>
<event>
 4    1  0.2293715E-008  0.5161644E+03  0.7818608E-02  0.1009644E+00
         -1   -1    0    0    0  501 -0.00000000000E+00  0.00000000000E+00  0.83630685605E+03  0.83630685607E+03  0.50400000000E-02 0.  1.
          1   -1    0    0  501    0  0.00000000000E+00 -0.00000000000E+00 -0.14752423371E+04  0.14752423371E+04  0.50400000000E-02 0. -1.
    8880022    1    1    2    0    0  0.41814449025E+03 -0.26113074000E+03 -0.13428687939E+04  0.14386529564E+04  0.15294330000E+03 0. -1.
    8880022    1    1    2    0    0 -0.41814449025E+03  0.26113074000E+03  0.70393331293E+03  0.87289623677E+03  0.15294330000E+03 0.  0.
<mgrwt>
<rscale>  0 0.51616444E+03</rscale>
<asrwt>0</asrwt>
<pdfrwt beam="1">  1        1 0.22696036E+00 0.51616444E+03</pdfrwt>
<pdfrwt beam="2">  1       -1 0.12866259E+00 0.51616444E+03</pdfrwt>
<totfact> 0.38824311E+00</totfact>
</mgrwt>
</event>
<event>
 4    1  0.2293715E-008  0.7280228E+03  0.7818608E-02  0.9670474E-01
         -1   -1    0    0    0  501 -0.00000000000E+00  0.00000000000E+00  0.81554177467E+03  0.81554177469E+03  0.50400000000E-02 0.  1.
          1   -1    0    0  501    0  0.00000000000E+00 -0.00000000000E+00 -0.12582427099E+04  0.12582427099E+04  0.50400000000E-02 0. -1.
    8880022    1    1    2    0    0  0.59678841944E+03  0.38790352720E+03 -0.94233682702E+03  0.11908047332E+04  0.15294330000E+03 0.  0.
    8880022    1    1    2    0    0 -0.59678841944E+03 -0.38790352720E+03  0.49963589181E+03  0.88297975140E+03  0.15294330000E+03 0.  0.
<mgrwt>
<rscale>  0 0.72802281E+03</rscale>
<asrwt>0</asrwt>
<pdfrwt beam="1">  1        1 0.19357580E+00 0.72802281E+03</pdfrwt>
<pdfrwt beam="2">  1       -1 0.12546797E+00 0.72802281E+03</pdfrwt>
<totfact> 0.55995260E+00</totfact>
</mgrwt>
</event>
<event>
 4    1  0.2293715E-008  0.4138557E+03  0.7818608E-02  0.1039085E+00
          1   -1    0    0  501    0  0.00000000000E+00  0.00000000000E+00  0.12618144406E+04  0.12618144406E+04  0.50400000000E-02 0. -1.
         -1   -1    0    0    0  501 -0.00000000000E+00 -0.00000000000E+00 -0.41020583119E+03  0.41020583122E+03  0.50400000000E-02 0.  1.
    8880022    1    1    2    0    0 -0.15578511468E+03  0.35159050966E+03 -0.25803824471E+03  0.48770921375E+03  0.15294330000E+03 0.  0.
    8880022    1    1    2    0    0  0.15578511468E+03 -0.35159050966E+03  0.11096468541E+04  0.11843110581E+04  0.15294330000E+03 0. -1.
<mgrwt>
<rscale>  0 0.41385570E+03</rscale>
<asrwt>0</asrwt>
<pdfrwt beam="1">  1        1 0.19412530E+00 0.41385570E+03</pdfrwt>
<pdfrwt beam="2">  1       -1 0.63108590E-01 0.41385570E+03</pdfrwt>
<totfact> 0.26706378E+01</totfact>
</mgrwt>
</event>
<event>
 4    1  0.2293715E-008  0.5235775E+03  0.7818608E-02  0.1007802E+00
          1   -1    0    0  501    0  0.00000000000E+00  0.00000000000E+00  0.99982099071E+03  0.99982099072E+03  0.50400000000E-02 0. -1.
         -1   -1    0    0    0  501 -0.00000000000E+00 -0.00000000000E+00 -0.78207337185E+03  0.78207337186E+03  0.50400000000E-02 0.  1.
    8880022    1    1    2    0    0  0.27458795771E+03  0.41874002884E+03 -0.60910795750E+03  0.80320975790E+03  0.15294330000E+03 0.  0.
    8880022    1    1    2    0    0 -0.27458795771E+03 -0.41874002884E+03  0.82685557636E+03  0.97868460469E+03  0.15294330000E+03 0.  0.
<mgrwt>
<rscale>  0 0.52357751E+03</rscale>
<asrwt>0</asrwt>
<pdfrwt beam="1">  1        1 0.15381861E+00 0.52357751E+03</pdfrwt>
<pdfrwt beam="2">  1       -1 0.12031898E+00 0.52357751E+03</pdfrwt>
<totfact> 0.99852412E+00</totfact>
</mgrwt>
</event>
<event>
 4    1  0.2293715E-008  0.6733062E+03  0.7818608E-02  0.9764003E-01
          1   -1    0    0  501    0  0.00000000000E+00  0.00000000000E+00  0.49995068533E+03  0.49995068535E+03  0.50400000000E-02 0. -1.
         -1   -1    0    0    0  501 -0.00000000000E+00 -0.00000000000E+00 -0.14946152204E+04  0.14946152204E+04  0.50400000000E-02 0.  1.
    8880022    1    1    2    0    0 -0.54065170076E+02 -0.65347268850E+03 -0.11227705726E+04  0.13091810452E+04  0.15294330000E+03 0.  0.
    8880022    1    1    2    0    0  0.54065170076E+02  0.65347268850E+03  0.12810603758E+03  0.68538486058E+03  0.15294330000E+03 0.  0.
<mgrwt>
<rscale>  0 0.67330621E+03</rscale>
<asrwt>0</asrwt>
<pdfrwt beam="1">  1        1 0.76915491E-01 0.67330621E+03</pdfrwt>
<pdfrwt beam="2">  1       -1 0.22994080E+00 0.67330621E+03</pdfrwt>
<totfact> 0.44032347E+00</totfact>
</mgrwt>
</event>
<event>
 4    1  0.2293715E-008  0.2163348E+03  0.7818608E-02  0.1136645E+00
          1   -1    0    0  501    0  0.00000000000E+00  0.00000000000E+00  0.61079807608E+02  0.61079807816E+02  0.50400000000E-02 0. -1.
         -1   -1    0    0    0  501 -0.00000000000E+00 -0.00000000000E+00 -0.85402353616E+03  0.85402353618E+03  0.50400000000E-02 0.  1.
    8880022    1    1    2    0    0  0.84437925168E+02 -0.12759055208E+03 -0.24976401931E+03  0.33042825325E+03  0.15294330000E+03 0.  0.
    8880022    1    1    2    0    0 -0.84437925168E+02  0.12759055208E+03 -0.54317970925E+03  0.58467509075E+03  0.15294330000E+03 0.  0.
<mgrwt>
<rscale>  0 0.21633485E+03</rscale>
<asrwt>0</asrwt>
<pdfrwt beam="1">  1        1 0.93968941E-02 0.21633485E+03</pdfrwt>
<pdfrwt beam="2">  1       -1 0.13138823E+00 0.21633485E+03</pdfrwt>
<totfact> 0.37096193E+02</totfact>
</mgrwt>
</event>
<event>
 4    1  0.2293715E-008  0.9166633E+03  0.7818608E-02  0.9404988E-01
         -1   -1    0    0    0  501 -0.00000000000E+00  0.00000000000E+00  0.11506270754E+04  0.11506270754E+04  0.50400000000E-02 0.  1.
          1   -1    0    0  501    0  0.00000000000E+00 -0.00000000000E+00 -0.35219220626E+04  0.35219220626E+04  0.50400000000E-02 0. -1.
    8880022    1    1    2    0    0  0.83961920703E+03 -0.33454367748E+03  0.89435782635E+03  0.12806824195E+04  0.15294330000E+03 0.  0.
    8880022    1    1    2    0    0 -0.83961920703E+03  0.33454367748E+03 -0.32656528136E+04  0.33918667186E+04  0.15294330000E+03 0.  0.
<mgrwt>
<rscale>  0 0.91666326E+03</rscale>
<asrwt>0</asrwt>
<pdfrwt beam="1">  1        1 0.54183416E+00 0.91666326E+03</pdfrwt>
<pdfrwt beam="2">  1       -1 0.17701955E+00 0.91666326E+03</pdfrwt>
<totfact> 0.55709067E-02</totfact>
</mgrwt>
</event>
<event>
 4    1  0.2293715E-008  0.6511289E+03  0.7818608E-02  0.9804663E-01
          1   -1    0    0  501    0  0.00000000000E+00  0.00000000000E+00  0.20811594075E+04  0.20811594075E+04  0.50400000000E-02 0. -1.
         -1   -1    0    0    0  501 -0.00000000000E+00 -0.00000000000E+00 -0.28375246002E+03  0.28375246006E+03  0.50400000000E-02 0.  1.
    8880022    1    1    2    0    0 -0.60483026702E+03  0.18643376767E+03  0.15266962825E+04  0.16597500997E+04  0.15294330000E+03 0.  0.
    8880022    1    1    2    0    0  0.60483026702E+03 -0.18643376767E+03  0.27071066500E+03  0.70516176782E+03  0.15294330000E+03 0.  0.
<mgrwt>
<rscale>  0 0.65112891E+03</rscale>
<asrwt>0</asrwt>
<pdfrwt beam="1">  1        1 0.32017837E+00 0.65112891E+03</pdfrwt>
<pdfrwt beam="2">  1       -1 0.43654225E-01 0.65112891E+03</pdfrwt>
<totfact> 0.14438958E+01</totfact>
</mgrwt>
</event>
<event>
 4    1  0.2293715E-008  0.9240928E+03  0.7818608E-02  0.9395956E-01
         -1   -1    0    0    0  501 -0.00000000000E+00  0.00000000000E+00  0.97161160994E+03  0.97161160995E+03  0.50400000000E-02 0.  1.
          1   -1    0    0  501    0  0.00000000000E+00 -0.00000000000E+00 -0.16294076227E+04  0.16294076227E+04  0.50400000000E-02 0. -1.
    8880022    1    1    2    0    0  0.89875933730E+03 -0.15095510843E+03  0.55372825531E+03  0.10772940290E+04  0.15294330000E+03 0.  0.
    8880022    1    1    2    0    0 -0.89875933730E+03  0.15095510843E+03 -0.12115242681E+04  0.15237252037E+04  0.15294330000E+03 0.  0.
<mgrwt>
<rscale>  0 0.92409277E+03</rscale>
<asrwt>0</asrwt>
<pdfrwt beam="1">  1        1 0.25067810E+00 0.92409277E+03</pdfrwt>
<pdfrwt beam="2">  1       -1 0.14947871E+00 0.92409277E+03</pdfrwt>
<totfact> 0.19099492E+00</totfact>
</mgrwt>
</event>
<event>
 4    1  0.2293715E-008  0.4436811E+03  0.7818608E-02  0.1029623E+00
          1   -1    0    0  501    0  0.00000000000E+00  0.00000000000E+00  0.24388791914E+04  0.24388791915E+04  0.50400000000E-02 0. -1.
         -1   -1    0    0    0  501 -0.00000000000E+00 -0.00000000000E+00 -0.85658396277E+02  0.85658396425E+02  0.50400000000E-02 0.  1.
    8880022    1    1    2    0    0 -0.25544607237E+03 -0.32895064893E+03  0.87335942250E+03  0.97959663086E+03  0.15294330000E+03 0.  0.
    8880022    1    1    2    0    0  0.25544607237E+03  0.32895064893E+03  0.14798613727E+04  0.15449409570E+04  0.15294330000E+03 0.  0.
<mgrwt>
<rscale>  0 0.44368105E+03</rscale>
<asrwt>0</asrwt>
<pdfrwt beam="1">  1        1 0.37521215E+00 0.44368105E+03</pdfrwt>
<pdfrwt beam="2">  1       -1 0.13178216E-01 0.44368105E+03</pdfrwt>
<totfact> 0.66098258E+01</totfact>
</mgrwt>
</event>
<event>
 4    1  0.2293715E-008  0.9995092E+03  0.7818608E-02  0.9309083E-01
          1   -1    0    0  501    0  0.00000000000E+00  0.00000000000E+00  0.25193362490E+04  0.25193362490E+04  0.50400000000E-02 0. -1.
         -1   -1    0    0    0  501 -0.00000000000E+00 -0.00000000000E+00 -0.46656133482E+03  0.46656133485E+03  0.50400000000E-02 0.  1.
    8880022    1    1    2    0    0 -0.87943517643E+03  0.44968970887E+03  0.16047555854E+04  0.18905711322E+04  0.15294330000E+03 0.  0.
    8880022    1    1    2    0    0  0.87943517643E+03 -0.44968970887E+03  0.44801932873E+03  0.10953264517E+04  0.15294330000E+03 0.  0.
<mgrwt>
<rscale>  0 0.99950924E+03</rscale>
<asrwt>0</asrwt>
<pdfrwt beam="1">  1        1 0.38759019E+00 0.99950924E+03</pdfrwt>
<pdfrwt beam="2">  1       -1 0.71778667E-01 0.99950924E+03</pdfrwt>
<totfact> 0.26228133E+00</totfact>
</mgrwt>
</event>
<event>
 4    1  0.2293715E-008  0.3728558E+03  0.7818608E-02  0.1053606E+00
         -1   -1    0    0    0  501 -0.00000000000E+00  0.00000000000E+00  0.39707649711E+03  0.39707649714E+03  0.50400000000E-02 0.  1.
          1   -1    0    0  501    0  0.00000000000E+00 -0.00000000000E+00 -0.45108576120E+03  0.45108576123E+03  0.50400000000E-02 0. -1.
    8880022    1    1    2    0    0 -0.33901882894E+03 -0.26382965517E+02  0.17363761806E+03  0.41130463487E+03  0.15294330000E+03 0.  0.
    8880022    1    1    2    0    0  0.33901882894E+03  0.26382965517E+02 -0.22764688216E+03  0.43685762350E+03  0.15294330000E+03 0.  0.
<mgrwt>
<rscale>  0 0.37285584E+03</rscale>
<asrwt>0</asrwt>
<pdfrwt beam="1">  1        1 0.69397810E-01 0.37285584E+03</pdfrwt>
<pdfrwt beam="2">  1       -1 0.61088692E-01 0.37285584E+03</pdfrwt>
<totfact> 0.14503448E+02</totfact>
</mgrwt>
</event>
<event>
 4    1  0.2293715E-008  0.9431068E+03  0.7818608E-02  0.9373244E-01
          1   -1    0    0  501    0  0.00000000000E+00  0.00000000000E+00  0.83570840440E+03  0.83570840441E+03  0.50400000000E-02 0. -1.
         -1   -1    0    0    0  501 -0.00000000000E+00 -0.00000000000E+00 -0.14629302643E+04  0.14629302643E+04  0.50400000000E-02 0.  1.
    8880022    1    1    2    0    0 -0.91286143332E+03 -0.18094990176E+03  0.28633219805E+03  0.98561485584E+03  0.15294330000E+03 0.  0.
    8880022    1    1    2    0    0  0.91286143332E+03  0.18094990176E+03 -0.91355405797E+03  0.13130238129E+04  0.15294330000E+03 0.  0.
<mgrwt>
<rscale>  0 0.94310684E+03</rscale>
<asrwt>0</asrwt>
<pdfrwt beam="1">  1        1 0.12857052E+00 0.94310684E+03</pdfrwt>
<pdfrwt beam="2">  1       -1 0.22506619E+00 0.94310684E+03</pdfrwt>
<totfact> 0.21244845E+00</totfact>
</mgrwt>
</event>
<event>
 4    1  0.2293715E-008  0.3522645E+03  0.7818608E-02  0.1061689E+00
          1   -1    0    0  501    0  0.00000000000E+00  0.00000000000E+00  0.27339736011E+03  0.27339736016E+03  0.50400000000E-02 0. -1.
         -1   -1    0    0    0  501 -0.00000000000E+00 -0.00000000000E+00 -0.20115729040E+04  0.20115729040E+04  0.50400000000E-02 0.  1.
    8880022    1    1    2    0    0 -0.29770971352E+03 -0.10985231352E+03 -0.18744515889E+04  0.19072647998E+04  0.15294330000E+03 0.  0.
    8880022    1    1    2    0    0  0.29770971352E+03  0.10985231352E+03  0.13627604507E+03  0.37770546434E+03  0.15294330000E+03 0.  0.
<mgrwt>
<rscale>  0 0.35226447E+03</rscale>
<asrwt>0</asrwt>
<pdfrwt beam="1">  1        1 0.42061134E-01 0.35226447E+03</pdfrwt>
<pdfrwt beam="2">  1       -1 0.30947275E+00 0.35226447E+03</pdfrwt>
<totfact> 0.32534069E+00</totfact>
</mgrwt>
</event>
<event>
 4    1  0.2293715E-008  0.4457680E+03  0.7818608E-02  0.1028992E+00
         -1   -1    0    0    0  501 -0.00000000000E+00  0.00000000000E+00  0.59125659579E+03  0.59125659581E+03  0.50400000000E-02 0.  1.
          1   -1    0    0  501    0  0.00000000000E+00 -0.00000000000E+00 -0.11222407044E+04  0.11222407044E+04  0.50400000000E-02 0. -1.
    8880022    1    1    2    0    0 -0.36067911632E+03  0.21266888000E+03  0.45158572846E+03  0.63453825782E+03  0.15294330000E+03 0.  0.
    8880022    1    1    2    0    0  0.36067911632E+03 -0.21266888000E+03 -0.98256983710E+03  0.10789590424E+04  0.15294330000E+03 0.  0.
<mgrwt>
<rscale>  0 0.44576802E+03</rscale>
<asrwt>0</asrwt>
<pdfrwt beam="1">  1        1 0.17265242E+00 0.44576802E+03</pdfrwt>
<pdfrwt beam="2">  1       -1 0.90962554E-01 0.44576802E+03</pdfrwt>
<totfact> 0.15642063E+01</totfact>
</mgrwt>
</event>
<event>
 4    1  0.2293715E-008  0.2638220E+03  0.7818608E-02  0.1104868E+00
          1   -1    0    0  501    0  0.00000000000E+00  0.00000000000E+00  0.80640361722E+03  0.80640361723E+03  0.50400000000E-02 0. -1.
         -1   -1    0    0    0  501 -0.00000000000E+00 -0.00000000000E+00 -0.25108476950E+03  0.25108476955E+03  0.50400000000E-02 0.  1.
    8880022    1    1    2    0    0  0.35236619038E+02 -0.21205844312E+03  0.70598949068E+03  0.75367314970E+03  0.15294330000E+03 0.  0.
    8880022    1    1    2    0    0 -0.35236619038E+02  0.21205844312E+03 -0.15067064296E+03  0.30381523709E+03  0.15294330000E+03 0.  1.
<mgrwt>
<rscale>  0 0.26382202E+03</rscale>
<asrwt>0</asrwt>
<pdfrwt beam="1">  1        1 0.12406209E+00 0.26382202E+03</pdfrwt>
<pdfrwt beam="2">  1       -1 0.38628427E-01 0.26382202E+03</pdfrwt>
<totfact> 0.15145669E+02</totfact>
</mgrwt>
</event>
<event>
 4    1  0.2293715E-008  0.1612855E+04  0.7818608E-02  0.8812689E-01
         -1   -1    0    0    0  501 -0.00000000000E+00  0.00000000000E+00  0.10307395289E+04  0.10307395289E+04  0.50400000000E-02 0.  1.
          1   -1    0    0  501    0  0.00000000000E+00 -0.00000000000E+00 -0.30359426961E+04  0.30359426961E+04  0.50400000000E-02 0. -1.
    8880022    1    1    2    0    0  0.15881130728E+04 -0.23623496847E+03 -0.16739999737E+03  0.16215191964E+04  0.15294330000E+03 0.  0.
    8880022    1    1    2    0    0 -0.15881130728E+04  0.23623496847E+03 -0.18378031698E+04  0.24451630285E+04  0.15294330000E+03 0.  0.
<mgrwt>
<rscale>  0 0.16128552E+04</rscale>
<asrwt>0</asrwt>
<pdfrwt beam="1">  1        1 0.46706810E+00 0.16128552E+04</pdfrwt>
<pdfrwt beam="2">  1       -1 0.15857531E+00 0.16128552E+04</pdfrwt>
<totfact> 0.15818270E-01</totfact>
</mgrwt>
</event>
<event>
 4    1  0.2293715E-008  0.1568438E+04  0.7818608E-02  0.8840176E-01
         -1   -1    0    0    0  501 -0.00000000000E+00  0.00000000000E+00  0.18532559024E+04  0.18532559024E+04  0.50400000000E-02 0.  1.
          1   -1    0    0  501    0  0.00000000000E+00 -0.00000000000E+00 -0.14074215351E+04  0.14074215352E+04  0.50400000000E-02 0. -1.
    8880022    1    1    2    0    0 -0.15519436511E+04 -0.16756402240E+03  0.61168370269E+03  0.16834949964E+04  0.15294330000E+03 0.  0.
    8880022    1    1    2    0    0  0.15519436511E+04  0.16756402240E+03 -0.16584933544E+03  0.15771824412E+04  0.15294330000E+03 0.  0.
<mgrwt>
<rscale>  0 0.15684382E+04</rscale>
<asrwt>0</asrwt>
<pdfrwt beam="1">  1        1 0.21652639E+00 0.15684382E+04</pdfrwt>
<pdfrwt beam="2">  1       -1 0.28511629E+00 0.15684382E+04</pdfrwt>
<totfact> 0.29403353E-01</totfact>
</mgrwt>
</event>
<event>
 4    1  0.2293715E-008  0.1909034E+03  0.7818608E-02  0.1157649E+00
         -1   -1    0    0    0  501 -0.00000000000E+00  0.00000000000E+00  0.57162738302E+03  0.57162738304E+03  0.50400000000E-02 0.  1.
          1   -1    0    0  501    0  0.00000000000E+00 -0.00000000000E+00 -0.45731998349E+03  0.45731998352E+03  0.50400000000E-02 0. -1.
    8880022    1    1    2    0    0  0.10795205357E+03  0.37400404386E+02  0.53442059846E+03  0.56749402217E+03  0.15294330000E+03 0.  1.
    8880022    1    1    2    0    0 -0.10795205357E+03 -0.37400404386E+02 -0.42011319894E+03  0.46145334439E+03  0.15294330000E+03 0.  0.
<mgrwt>
<rscale>  0 0.19090335E+03</rscale>
<asrwt>0</asrwt>
<pdfrwt beam="1">  1        1 0.70356921E-01 0.19090335E+03</pdfrwt>
<pdfrwt beam="2">  1       -1 0.87942674E-01 0.19090335E+03</pdfrwt>
<totfact> 0.70147841E+01</totfact>
</mgrwt>
</event>
<event>
 4    1  0.2293715E-008  0.1197899E+04  0.7818608E-02  0.9114697E-01
         -1   -1    0    0    0  501 -0.00000000000E+00  0.00000000000E+00  0.15201650166E+04  0.15201650166E+04  0.50400000000E-02 0.  1.
          1   -1    0    0  501    0  0.00000000000E+00 -0.00000000000E+00 -0.10071242004E+04  0.10071242004E+04  0.50400000000E-02 0. -1.
    8880022    1    1    2    0    0  0.78654766500E+03 -0.89045688813E+03 -0.59960463394E+02  0.11993988532E+04  0.15294330000E+03 0.  0.
    8880022    1    1    2    0    0 -0.78654766500E+03  0.89045688813E+03  0.57300127955E+03  0.13278903638E+04  0.15294330000E+03 0.  0.
<mgrwt>
<rscale>  0 0.11978991E+04</rscale>
<asrwt>0</asrwt>
<pdfrwt beam="1">  1        1 0.15494218E+00 0.11978991E+04</pdfrwt>
<pdfrwt beam="2">  1       -1 0.23387154E+00 0.11978991E+04</pdfrwt>
<totfact> 0.13050337E+00</totfact>
</mgrwt>
</event>
<event>
 4    1  0.2293715E-008  0.3483342E+03  0.7818608E-02  0.1063301E+00
         -1   -1    0    0    0  501 -0.00000000000E+00  0.00000000000E+00  0.35123802119E+03  0.35123802123E+03  0.50400000000E-02 0.  1.
          1   -1    0    0  501    0  0.00000000000E+00 -0.00000000000E+00 -0.54329693215E+03  0.54329693218E+03  0.50400000000E-02 0. -1.
    8880022    1    1    2    0    0  0.25990622635E+03 -0.17433826689E+03  0.17387402802E+03  0.38931851796E+03  0.15294330000E+03 0.  0.
    8880022    1    1    2    0    0 -0.25990622635E+03  0.17433826689E+03 -0.36593293898E+03  0.50521643544E+03  0.15294330000E+03 0.  0.
<mgrwt>
<rscale>  0 0.34833422E+03</rscale>
<asrwt>0</asrwt>
<pdfrwt beam="1">  1        1 0.83584143E-01 0.34833422E+03</pdfrwt>
<pdfrwt beam="2">  1       -1 0.54036619E-01 0.34833422E+03</pdfrwt>
<totfact> 0.14339195E+02</totfact>
</mgrwt>
</event>
<event>
 4    1  0.2293715E-008  0.2256725E+03  0.7818608E-02  0.1129723E+00
          1   -1    0    0  501    0  0.00000000000E+00  0.00000000000E+00  0.16305616765E+04  0.16305616765E+04  0.50400000000E-02 0. -1.
         -1   -1    0    0    0  501 -0.00000000000E+00 -0.00000000000E+00 -0.25133302071E+03  0.25133302076E+03  0.50400000000E-02 0.  1.
    8880022    1    1    2    0    0  0.13508420582E+03 -0.96377862821E+02 -0.19092778642E+03  0.29560363283E+03  0.15294330000E+03 0.  0.
    8880022    1    1    2    0    0 -0.13508420582E+03  0.96377862821E+02  0.15701564422E+04  0.15862910644E+04  0.15294330000E+03 0. -1.
<mgrwt>
<rscale>  0 0.22567252E+03</rscale>
<asrwt>0</asrwt>
<pdfrwt beam="1">  1        1 0.25085564E+00 0.22567252E+03</pdfrwt>
<pdfrwt beam="2">  1       -1 0.38666619E-01 0.22567252E+03</pdfrwt>
<totfact> 0.39703782E+01</totfact>
</mgrwt>
</event>
<event>
 4    1  0.2293715E-008  0.4019651E+03  0.7818608E-02  0.1043101E+00
          1   -1    0    0  501    0  0.00000000000E+00  0.00000000000E+00  0.11321144393E+04  0.11321144393E+04  0.50400000000E-02 0. -1.
         -1   -1    0    0    0  501 -0.00000000000E+00 -0.00000000000E+00 -0.64419067819E+03  0.64419067821E+03  0.50400000000E-02 0.  1.
    8880022    1    1    2    0    0  0.37047247564E+03  0.30568194392E+02  0.10275771952E+04  0.11033996623E+04  0.15294330000E+03 0.  0.
    8880022    1    1    2    0    0 -0.37047247564E+03 -0.30568194392E+02 -0.53965343408E+03  0.67290545521E+03  0.15294330000E+03 0.  1.
<mgrwt>
<rscale>  0 0.40196508E+03</rscale>
<asrwt>0</asrwt>
<pdfrwt beam="1">  1        1 0.17417145E+00 0.40196508E+03</pdfrwt>
<pdfrwt beam="2">  1       -1 0.99106257E-01 0.40196508E+03</pdfrwt>
<totfact> 0.12861929E+01</totfact>
</mgrwt>
</event>
<event>
 4    1  0.2293715E-008  0.4000292E+03  0.7818608E-02  0.1043770E+00
         -1   -1    0    0    0  501 -0.00000000000E+00  0.00000000000E+00  0.11017739039E+04  0.11017739039E+04  0.50400000000E-02 0.  1.
          1   -1    0    0  501    0  0.00000000000E+00 -0.00000000000E+00 -0.33893652854E+03  0.33893652858E+03  0.50400000000E-02 0. -1.
    8880022    1    1    2    0    0 -0.13092694040E+03  0.34567299687E+03  0.92597990708E+03  0.10086932764E+04  0.15294330000E+03 0.  1.
    8880022    1    1    2    0    0  0.13092694040E+03 -0.34567299687E+03 -0.16314253173E+03  0.43201715610E+03  0.15294330000E+03 0.  0.
<mgrwt>
<rscale>  0 0.40002917E+03</rscale>
<asrwt>0</asrwt>
<pdfrwt beam="1">  1        1 0.52144082E-01 0.40002917E+03</pdfrwt>
<pdfrwt beam="2">  1       -1 0.16950367E+00 0.40002917E+03</pdfrwt>
<totfact> 0.19984324E+01</totfact>
</mgrwt>
</event>
<event>
 4    1  0.2293715E-008  0.8881975E+03  0.7818608E-02  0.9440457E-01
         -1   -1    0    0    0  501 -0.00000000000E+00  0.00000000000E+00  0.92337811691E+03  0.92337811693E+03  0.50400000000E-02 0.  1.
          1   -1    0    0  501    0  0.00000000000E+00 -0.00000000000E+00 -0.10665078145E+04  0.10665078145E+04  0.50400000000E-02 0. -1.
    8880022    1    1    2    0    0  0.82124934140E+03  0.30174942501E+03 -0.51531467253E+03  0.10268612667E+04  0.15294330000E+03 0.  0.
    8880022    1    1    2    0    0 -0.82124934140E+03 -0.30174942501E+03  0.37218497500E+03  0.96302466472E+03  0.15294330000E+03 0.  0.
<mgrwt>
<rscale>  0 0.88819753E+03</rscale>
<asrwt>0</asrwt>
<pdfrwt beam="1">  1        1 0.16407812E+00 0.88819753E+03</pdfrwt>
<pdfrwt beam="2">  1       -1 0.14205817E+00 0.88819753E+03</pdfrwt>
<totfact> 0.55113395E+00</totfact>
</mgrwt>
</event>
<event>
 4    1  0.2293715E-008  0.2013285E+03  0.7818608E-02  0.1148623E+00
         -1   -1    0    0    0  501 -0.00000000000E+00  0.00000000000E+00  0.37696485408E+03  0.37696485411E+03  0.50400000000E-02 0.  1.
          1   -1    0    0  501    0  0.00000000000E+00 -0.00000000000E+00 -0.20762775633E+03  0.20762775639E+03  0.50400000000E-02 0. -1.
    8880022    1    1    2    0    0 -0.17125050891E+02 -0.12980071809E+03  0.28762536129E+03  0.35108616500E+03  0.15294330000E+03 0.  0.
    8880022    1    1    2    0    0  0.17125050891E+02  0.12980071809E+03 -0.11828826355E+03  0.23350644550E+03  0.15294330000E+03 0.  0.
<mgrwt>
<rscale>  0 0.20132846E+03</rscale>
<asrwt>0</asrwt>
<pdfrwt beam="1">  1        1 0.31942732E-01 0.20132846E+03</pdfrwt>
<pdfrwt beam="2">  1       -1 0.57994592E-01 0.20132846E+03</pdfrwt>
<totfact> 0.43685329E+02</totfact>
</mgrwt>
</event>
<event>
 4    1  0.2293715E-008  0.4332335E+03  0.7818608E-02  0.1032843E+00
         -1   -1    0    0    0  501 -0.00000000000E+00  0.00000000000E+00  0.18267495994E+03  0.18267496001E+03  0.50400000000E-02 0.  1.
          1   -1    0    0  501    0  0.00000000000E+00 -0.00000000000E+00 -0.11468945274E+04  0.11468945274E+04  0.50400000000E-02 0. -1.
    8880022    1    1    2    0    0  0.11292165757E+03 -0.38929204964E+03 -0.69663772275E+03  0.82036295043E+03  0.15294330000E+03 0.  0.
    8880022    1    1    2    0    0 -0.11292165757E+03  0.38929204964E+03 -0.26758184466E+03  0.50920653695E+03  0.15294330000E+03 0.  0.
<mgrwt>
<rscale>  0 0.43323349E+03</rscale>
<asrwt>0</asrwt>
<pdfrwt beam="1">  1        1 0.17644531E+00 0.43323349E+03</pdfrwt>
<pdfrwt beam="2">  1       -1 0.28103841E-01 0.43323349E+03</pdfrwt>
<totfact> 0.14040604E+02</totfact>
</mgrwt>
</event>
<event>
 4    1  0.2293715E-008  0.2018443E+03  0.7818608E-02  0.1148192E+00
          1   -1    0    0  501    0  0.00000000000E+00  0.00000000000E+00  0.22839654181E+04  0.22839654181E+04  0.50400000000E-02 0. -1.
         -1   -1    0    0    0  501 -0.00000000000E+00 -0.00000000000E+00 -0.17978966393E+02  0.17978967100E+02  0.50400000000E-02 0.  1.
    8880022    1    1    2    0    0  0.13067037657E+03 -0.16575202703E+02  0.12349464363E+04  0.12513328247E+04  0.15294330000E+03 0.  1.
    8880022    1    1    2    0    0 -0.13067037657E+03  0.16575202703E+02  0.10310400154E+04  0.10506115605E+04  0.15294330000E+03 0. -1.
<mgrwt>
<rscale>  0 0.20184434E+03</rscale>
<asrwt>0</asrwt>
<pdfrwt beam="1">  1        1 0.35137931E+00 0.20184434E+03</pdfrwt>
<pdfrwt beam="2">  1       -1 0.27659947E-02 0.20184434E+03</pdfrwt>
<totfact> 0.94406708E+02</totfact>
</mgrwt>
</event>
<event>
 4    1  0.2293715E-008  0.5905177E+03  0.7818608E-02  0.9925276E-01
          1   -1    0    0  501    0  0.00000000000E+00  0.00000000000E+00  0.73533973050E+03  0.73533973052E+03  0.50400000000E-02 0. -1.
         -1   -1    0    0    0  501 -0.00000000000E+00 -0.00000000000E+00 -0.14357941190E+04  0.14357941190E+04  0.50400000000E-02 0.  1.
    8880022    1    1    2    0    0  0.54593270137E+03 -0.16515759688E+03  0.53816021371E+03  0.79895407557E+03  0.15294330000E+03 0.  0.
    8880022    1    1    2    0    0 -0.54593270137E+03  0.16515759688E+03 -0.12386146022E+04  0.13721797740E+04  0.15294330000E+03 0.  0.
<mgrwt>
<rscale>  0 0.59051774E+03</rscale>
<asrwt>0</asrwt>
<pdfrwt beam="1">  1        1 0.11312919E+00 0.59051774E+03</pdfrwt>
<pdfrwt beam="2">  1       -1 0.22089140E+00 0.59051774E+03</pdfrwt>
<totfact> 0.29408648E+00</totfact>
</mgrwt>
</event>
<event>
 4    1  0.2293715E-008  0.3748423E+03  0.7818608E-02  0.1052857E+00
          1   -1    0    0  501    0  0.00000000000E+00  0.00000000000E+00  0.92208049704E+03  0.92208049706E+03  0.50400000000E-02 0. -1.
         -1   -1    0    0    0  501 -0.00000000000E+00 -0.00000000000E+00 -0.62430008766E+03  0.62430008768E+03  0.50400000000E-02 0.  1.
    8880022    1    1    2    0    0  0.14170916725E+02 -0.34192729237E+03  0.82112945973E+03  0.90264075401E+03  0.15294330000E+03 0.  0.
    8880022    1    1    2    0    0 -0.14170916725E+02  0.34192729237E+03 -0.52334905035E+03  0.64373983073E+03  0.15294330000E+03 0.  0.
<mgrwt>
<rscale>  0 0.37484229E+03</rscale>
<asrwt>0</asrwt>
<pdfrwt beam="1">  1        1 0.14185854E+00 0.37484229E+03</pdfrwt>
<pdfrwt beam="2">  1       -1 0.96046168E-01 0.37484229E+03</pdfrwt>
<totfact> 0.19990377E+01</totfact>
</mgrwt>
</event>
<event>
 4    1  0.2293715E-008  0.5554117E+03  0.7818608E-02  0.1000249E+00
         -1   -1    0    0    0  501 -0.00000000000E+00  0.00000000000E+00  0.83349433469E+03  0.83349433470E+03  0.50400000000E-02 0.  1.
          1   -1    0    0  501    0  0.00000000000E+00 -0.00000000000E+00 -0.11510993192E+04  0.11510993193E+04  0.50400000000E-02 0. -1.
    8880022    1    1    2    0    0  0.34886213729E+03  0.40421000759E+03 -0.97615341394E+03  0.11231018038E+04  0.15294330000E+03 0.  0.
    8880022    1    1    2    0    0 -0.34886213729E+03 -0.40421000759E+03  0.65854842939E+03  0.86149185018E+03  0.15294330000E+03 0.  1.
<mgrwt>
<rscale>  0 0.55541172E+03</rscale>
<asrwt>0</asrwt>
<pdfrwt beam="1">  1        1 0.17709220E+00 0.55541172E+03</pdfrwt>
<pdfrwt beam="2">  1       -1 0.12822990E+00 0.55541172E+03</pdfrwt>
<totfact> 0.65415577E+00</totfact>
</mgrwt>
</event>
<event>
 4    1  0.2293715E-008  0.5744753E+03  0.7818608E-02  0.9959824E-01
         -1   -1    0    0    0  501 -0.00000000000E+00  0.00000000000E+00  0.25033010458E+03  0.25033010464E+03  0.50400000000E-02 0.  1.
          1   -1    0    0  501    0  0.00000000000E+00 -0.00000000000E+00 -0.14403963687E+04  0.14403963687E+04  0.50400000000E-02 0. -1.
    8880022    1    1    2    0    0 -0.54732660967E+03  0.84046511777E+02 -0.34895642170E+03  0.67215509449E+03  0.15294330000E+03 0.  0.
    8880022    1    1    2    0    0  0.54732660967E+03 -0.84046511777E+02 -0.84110984244E+03  0.10185713789E+04  0.15294330000E+03 0. -1.
<mgrwt>
<rscale>  0 0.57447531E+03</rscale>
<asrwt>0</asrwt>
<pdfrwt beam="1">  1        1 0.22159944E+00 0.57447531E+03</pdfrwt>
<pdfrwt beam="2">  1       -1 0.38512325E-01 0.57447531E+03</pdfrwt>
<totfact> 0.49351580E+01</totfact>
</mgrwt>
</event>
<event>
 4    1  0.2293715E-008  0.3306837E+03  0.7818608E-02  0.1070835E+00
         -1   -1    0    0    0  501 -0.00000000000E+00  0.00000000000E+00  0.87363884009E+02  0.87363884154E+02  0.50400000000E-02 0.  1.
          1   -1    0    0  501    0  0.00000000000E+00 -0.00000000000E+00 -0.20217049660E+04  0.20217049660E+04  0.50400000000E-02 0. -1.
    8880022    1    1    2    0    0  0.18695840311E+02 -0.29259280034E+03 -0.16179801071E+04  0.16514270681E+04  0.15294330000E+03 0.  0.
    8880022    1    1    2    0    0 -0.18695840311E+02  0.29259280034E+03 -0.31636097494E+03  0.45764178211E+03  0.15294330000E+03 0.  0.
<mgrwt>
<rscale>  0 0.33068374E+03</rscale>
<asrwt>0</asrwt>
<pdfrwt beam="1">  1        1 0.31103150E+00 0.33068374E+03</pdfrwt>
<pdfrwt beam="2">  1       -1 0.13440599E-01 0.33068374E+03</pdfrwt>
<totfact> 0.12379098E+02</totfact>
</mgrwt>
</event>
<event>
 4    1  0.2293715E-008  0.3792893E+03  0.7818608E-02  0.1051197E+00
          1   -1    0    0  501    0  0.00000000000E+00  0.00000000000E+00  0.11263405638E+04  0.11263405638E+04  0.50400000000E-02 0. -1.
         -1   -1    0    0    0  501 -0.00000000000E+00 -0.00000000000E+00 -0.24191483134E+03  0.24191483139E+03  0.50400000000E-02 0.  1.
    8880022    1    1    2    0    0  0.11813836222E+03 -0.32636178731E+03  0.91223919475E+03  0.98794771638E+03  0.15294330000E+03 0.  0.
    8880022    1    1    2    0    0 -0.11813836222E+03  0.32636178731E+03 -0.27813462323E+02  0.38030767879E+03  0.15294330000E+03 0.  1.
<mgrwt>
<rscale>  0 0.37928926E+03</rscale>
<asrwt>0</asrwt>
<pdfrwt beam="1">  1        1 0.17328317E+00 0.37928926E+03</pdfrwt>
<pdfrwt beam="2">  1       -1 0.37217666E-01 0.37928926E+03</pdfrwt>
<totfact> 0.89836233E+01</totfact>
</mgrwt>
</event>
<event>
 4    1  0.2293715E-008  0.5495762E+03  0.7818608E-02  0.1001592E+00
         -1   -1    0    0    0  501 -0.00000000000E+00  0.00000000000E+00  0.13405229262E+04  0.13405229262E+04  0.50400000000E-02 0.  1.
          1   -1    0    0  501    0  0.00000000000E+00 -0.00000000000E+00 -0.34300063291E+03  0.34300063295E+03  0.50400000000E-02 0. -1.
    8880022    1    1    2    0    0 -0.14949357206E+03 -0.50625485250E+03  0.56876290392E+01  0.54960559123E+03  0.15294330000E+03 0.  0.
    8880022    1    1    2    0    0  0.14949357206E+03  0.50625485250E+03  0.99183466422E+03  0.11339179679E+04  0.15294330000E+03 0.  0.
<mgrwt>
<rscale>  0 0.54957616E+03</rscale>
<asrwt>0</asrwt>
<pdfrwt beam="1">  1        1 0.52769328E-01 0.54957616E+03</pdfrwt>
<pdfrwt beam="2">  1       -1 0.20623430E+00 0.54957616E+03</pdfrwt>
<totfact> 0.10641134E+01</totfact>
</mgrwt>
</event>
<event>
 4    1  0.2293715E-008  0.4561284E+03  0.7818608E-02  0.1025910E+00
         -1   -1    0    0    0  501 -0.00000000000E+00  0.00000000000E+00  0.14113730445E+04  0.14113730445E+04  0.50400000000E-02 0.  1.
          1   -1    0    0  501    0  0.00000000000E+00 -0.00000000000E+00 -0.68260954278E+03  0.68260954280E+03  0.50400000000E-02 0. -1.
    8880022    1    1    2    0    0 -0.39939101937E+03  0.15858217693E+03  0.12914548918E+04  0.13696382309E+04  0.15294330000E+03 0.  0.
    8880022    1    1    2    0    0  0.39939101937E+03 -0.15858217693E+03 -0.56269139003E+03  0.72434435638E+03  0.15294330000E+03 0.  0.
<mgrwt>
<rscale>  0 0.45612843E+03</rscale>
<asrwt>0</asrwt>
<pdfrwt beam="1">  1        1 0.10501685E+00 0.45612843E+03</pdfrwt>
<pdfrwt beam="2">  1       -1 0.21713431E+00 0.45612843E+03</pdfrwt>
<totfact> 0.35947033E+00</totfact>
</mgrwt>
</event>
<event>
 4    1  0.2293715E-008  0.5404167E+03  0.7818608E-02  0.1003737E+00
         -1   -1    0    0    0  501 -0.00000000000E+00  0.00000000000E+00  0.14699539852E+04  0.14699539852E+04  0.50400000000E-02 0.  1.
          1   -1    0    0  501    0  0.00000000000E+00 -0.00000000000E+00 -0.22352550776E+03  0.22352550782E+03  0.50400000000E-02 0. -1.
    8880022    1    1    2    0    0 -0.49441295097E+03 -0.15560974747E+03  0.34091364103E+03  0.63896191064E+03  0.15294330000E+03 0.  0.
    8880022    1    1    2    0    0  0.49441295097E+03  0.15560974747E+03  0.90551483642E+03  0.10545175824E+04  0.15294330000E+03 0.  0.
<mgrwt>
<rscale>  0 0.54041670E+03</rscale>
<asrwt>0</asrwt>
<pdfrwt beam="1">  1        1 0.34388541E-01 0.54041670E+03</pdfrwt>
<pdfrwt beam="2">  1       -1 0.22614676E+00 0.54041670E+03</pdfrwt>
<totfact> 0.13648414E+01</totfact>
</mgrwt>
</event>
<event>
 4    1  0.2293715E-008  0.2912233E+03  0.7818608E-02  0.1089712E+00
         -1   -1    0    0    0  501 -0.00000000000E+00  0.00000000000E+00  0.19340057403E+03  0.19340057409E+03  0.50400000000E-02 0.  1.
          1   -1    0    0  501    0  0.00000000000E+00 -0.00000000000E+00 -0.96437969521E+03  0.96437969523E+03  0.50400000000E-02 0. -1.
    8880022    1    1    2    0    0  0.10187773483E+02  0.24761984277E+03 -0.81295883557E+03  0.86354681321E+03  0.15294330000E+03 0.  0.
    8880022    1    1    2    0    0 -0.10187773483E+02 -0.24761984277E+03  0.41979714385E+02  0.29423345611E+03  0.15294330000E+03 0.  0.
<mgrwt>
<rscale>  0 0.29122333E+03</rscale>
<asrwt>0</asrwt>
<pdfrwt beam="1">  1        1 0.14836610E+00 0.29122333E+03</pdfrwt>
<pdfrwt beam="2">  1       -1 0.29753935E-01 0.29122333E+03</pdfrwt>
<totfact> 0.17759003E+02</totfact>
</mgrwt>
</event>
<event>
 4    1  0.2293715E-008  0.1082151E+04  0.7818608E-02  0.9222765E-01
         -1   -1    0    0    0  501 -0.00000000000E+00  0.00000000000E+00  0.12299834795E+04  0.12299834796E+04  0.50400000000E-02 0.  1.
          1   -1    0    0  501    0  0.00000000000E+00 -0.00000000000E+00 -0.13358245219E+04  0.13358245219E+04  0.50400000000E-02 0. -1.
    8880022    1    1    2    0    0 -0.10648599929E+04 -0.11718500647E+03  0.63468097990E+03  0.12545400469E+04  0.15294330000E+03 0.  0.
    8880022    1    1    2    0    0  0.10648599929E+04  0.11718500647E+03 -0.74052202228E+03  0.13112679545E+04  0.15294330000E+03 0.  0.
<mgrwt>
<rscale>  0 0.10821510E+04</rscale>
<asrwt>0</asrwt>
<pdfrwt beam="1">  1        1 0.20551146E+00 0.10821510E+04</pdfrwt>
<pdfrwt beam="2">  1       -1 0.18922823E+00 0.10821510E+04</pdfrwt>
<totfact> 0.15171739E+00</totfact>
</mgrwt>
</event>
<event>
 4    1  0.2991525E-008  0.3778474E+03  0.7818608E-02  0.1051732E+00
         -1   -1    0    0    0  501 -0.00000000000E+00  0.00000000000E+00  0.14024957848E+04  0.14024957848E+04  0.50400000000E-02 0.  1.
          1   -1    0    0  501    0  0.00000000000E+00 -0.00000000000E+00 -0.20569443702E+04  0.20569443702E+04  0.50400000000E-02 0. -1.
    8880022    1    1    2    0    0  0.22347381123E+03 -0.26350797065E+03 -0.20136002374E+04  0.20487446312E+04  0.15294330000E+03 0.  0.
    8880022    1    1    2    0    0 -0.22347381123E+03  0.26350797065E+03  0.13591516519E+04  0.14106955238E+04  0.15294330000E+03 0.  0.
<mgrwt>
<rscale>  0 0.37784739E+03</rscale>
<asrwt>0</asrwt>
<pdfrwt beam="1">  1        1 0.31645298E+00 0.37784739E+03</pdfrwt>
<pdfrwt beam="2">  1       -1 0.21576858E+00 0.37784739E+03</pdfrwt>
<totfact> 0.38954017E-01</totfact>
</mgrwt>
</event>
<event>
 4    1  0.2293715E-008  0.4646337E+03  0.7818608E-02  0.1023446E+00
          1   -1    0    0  501    0  0.00000000000E+00  0.00000000000E+00  0.31117883706E+03  0.31117883710E+03  0.50400000000E-02 0. -1.
         -1   -1    0    0    0  501 -0.00000000000E+00 -0.00000000000E+00 -0.13713558270E+04  0.13713558270E+04  0.50400000000E-02 0.  1.
    8880022    1    1    2    0    0 -0.43512453227E+03 -0.56208808071E+02  0.61259687271E+02  0.46865466069E+03  0.15294330000E+03 0.  0.
    8880022    1    1    2    0    0  0.43512453227E+03  0.56208808071E+02 -0.11214366772E+04  0.12138800034E+04  0.15294330000E+03 0.  0.
<mgrwt>
<rscale>  0 0.46463366E+03</rscale>
<asrwt>0</asrwt>
<pdfrwt beam="1">  1        1 0.47873668E-01 0.46463366E+03</pdfrwt>
<pdfrwt beam="2">  1       -1 0.21097782E+00 0.46463366E+03</pdfrwt>
<totfact> 0.11387897E+01</totfact>
</mgrwt>
</event>
<event>
 4    1  0.4021014E-008  0.4393505E+03  0.7818608E-02  0.1030946E+00
          1   -1    0    0  501    0  0.00000000000E+00  0.00000000000E+00  0.21668764807E+04  0.21668764807E+04  0.50400000000E-02 0. -1.
         -1   -1    0    0    0  501 -0.00000000000E+00 -0.00000000000E+00 -0.74941892584E+03  0.74941892585E+03  0.50400000000E-02 0.  1.
    8880022    1    1    2    0    0 -0.41126018426E+03  0.22410718528E+02  0.20774724101E+04  0.21234218721E+04  0.15294330000E+03 0.  0.
    8880022    1    1    2    0    0  0.41126018426E+03 -0.22410718528E+02 -0.66001485521E+03  0.79287353442E+03  0.15294330000E+03 0.  1.
<mgrwt>
<rscale>  0 0.43935047E+03</rscale>
<asrwt>0</asrwt>
<pdfrwt beam="1">  1        1 0.33336562E+00 0.43935047E+03</pdfrwt>
<pdfrwt beam="2">  1       -1 0.11529522E+00 0.43935047E+03</pdfrwt>
<totfact> 0.18018471E+00</totfact>
</mgrwt>
</event>
<event>
 4    1  0.2293715E-008  0.6804016E+03  0.7818608E-02  0.9751348E-01
          1   -1    0    0  501    0  0.00000000000E+00  0.00000000000E+00  0.42655756333E+03  0.42655756336E+03  0.50400000000E-02 0. -1.
         -1   -1    0    0    0  501 -0.00000000000E+00 -0.00000000000E+00 -0.15045485379E+04  0.15045485380E+04  0.50400000000E-02 0.  1.
    8880022    1    1    2    0    0 -0.66172993274E+03  0.40844060693E+02 -0.10486837152E+04  0.12500735693E+04  0.15294330000E+03 0.  0.
    8880022    1    1    2    0    0  0.66172993274E+03 -0.40844060693E+02 -0.29307259422E+02  0.68103253200E+03  0.15294330000E+03 0.  0.
<mgrwt>
<rscale>  0 0.68040164E+03</rscale>
<asrwt>0</asrwt>
<pdfrwt beam="1">  1        1 0.65624241E-01 0.68040164E+03</pdfrwt>
<pdfrwt beam="2">  1       -1 0.23146900E+00 0.68040164E+03</pdfrwt>
<totfact> 0.53264174E+00</totfact>
</mgrwt>
</event>
<event>
 4    1  0.2293715E-008  0.1808520E+03  0.7818608E-02  0.1166981E+00
         -1   -1    0    0    0  501 -0.00000000000E+00  0.00000000000E+00  0.38480179731E+03  0.38480179735E+03  0.50400000000E-02 0.  1.
          1   -1    0    0  501    0  0.00000000000E+00 -0.00000000000E+00 -0.93473079938E+03  0.93473079940E+03  0.50400000000E-02 0. -1.
    8880022    1    1    2    0    0  0.96221511133E+02  0.75649321300E+01  0.35408958960E+03  0.39760143093E+03  0.15294330000E+03 0.  1.
    8880022    1    1    2    0    0 -0.96221511133E+02 -0.75649321300E+01 -0.90401859167E+03  0.92193116581E+03  0.15294330000E+03 0.  0.
<mgrwt>
<rscale>  0 0.18085204E+03</rscale>
<asrwt>0</asrwt>
<pdfrwt beam="1">  1        1 0.14380474E+00 0.18085204E+03</pdfrwt>
<pdfrwt beam="2">  1       -1 0.59200277E-01 0.18085204E+03</pdfrwt>
<totfact> 0.55978964E+01</totfact>
</mgrwt>
</event>
<event>
 4    1  0.2293715E-008  0.3518133E+03  0.7818608E-02  0.1061873E+00
          1   -1    0    0  501    0  0.00000000000E+00  0.00000000000E+00  0.14215193362E+04  0.14215193362E+04  0.50400000000E-02 0. -1.
         -1   -1    0    0    0  501 -0.00000000000E+00 -0.00000000000E+00 -0.25947619706E+03  0.25947619711E+03  0.50400000000E-02 0.  1.
    8880022    1    1    2    0    0  0.29145424777E+03  0.12423904300E+03  0.12661365374E+04  0.13141058948E+04  0.15294330000E+03 0.  0.
    8880022    1    1    2    0    0 -0.29145424777E+03 -0.12423904300E+03 -0.10409339820E+03  0.36688963860E+03  0.15294330000E+03 0.  0.
<mgrwt>
<rscale>  0 0.35181326E+03</rscale>
<asrwt>0</asrwt>
<pdfrwt beam="1">  1        1 0.21869528E+00 0.35181326E+03</pdfrwt>
<pdfrwt beam="2">  1       -1 0.39919415E-01 0.35181326E+03</pdfrwt>
<totfact> 0.49638455E+01</totfact>
</mgrwt>
</event>
<event>
 4    1  0.2293715E-008  0.4166552E+03  0.7818608E-02  0.1038160E+00
          1   -1    0    0  501    0  0.00000000000E+00  0.00000000000E+00  0.82005724406E+03  0.82005724407E+03  0.50400000000E-02 0. -1.
         -1   -1    0    0    0  501 -0.00000000000E+00 -0.00000000000E+00 -0.16204533562E+04  0.16204533562E+04  0.50400000000E-02 0.  1.
    8880022    1    1    2    0    0  0.70912548315E+02 -0.38102664795E+03  0.73756224479E+03  0.84711251549E+03  0.15294330000E+03 0.  0.
    8880022    1    1    2    0    0 -0.70912548315E+02  0.38102664795E+03 -0.15379583569E+04  0.15933980848E+04  0.15294330000E+03 0.  1.
<mgrwt>
<rscale>  0 0.41665519E+03</rscale>
<asrwt>0</asrwt>
<pdfrwt beam="1">  1        1 0.12616265E+00 0.41665519E+03</pdfrwt>
<pdfrwt beam="2">  1       -1 0.24930052E+00 0.41665519E+03</pdfrwt>
<totfact> 0.17026307E+00</totfact>
</mgrwt>
</event>
<event>
 4    1  0.2293715E-008  0.6998227E+03  0.7818608E-02  0.9717536E-01
          1   -1    0    0  501    0  0.00000000000E+00  0.00000000000E+00  0.10951960893E+04  0.10951960893E+04  0.50400000000E-02 0. -1.
         -1   -1    0    0    0  501 -0.00000000000E+00 -0.00000000000E+00 -0.65671862773E+03  0.65671862775E+03  0.50400000000E-02 0.  1.
    8880022    1    1    2    0    0  0.68226324116E+03  0.29613771364E+02  0.71403165452E+03  0.99979646047E+03  0.15294330000E+03 0.  0.
    8880022    1    1    2    0    0 -0.68226324116E+03 -0.29613771364E+02 -0.27555419292E+03  0.75211825662E+03  0.15294330000E+03 0.  0.
<mgrwt>
<rscale>  0 0.69982266E+03</rscale>
<asrwt>0</asrwt>
<pdfrwt beam="1">  1        1 0.16849171E+00 0.69982266E+03</pdfrwt>
<pdfrwt beam="2">  1       -1 0.10103364E+00 0.69982266E+03</pdfrwt>
<totfact> 0.12374177E+01</totfact>
</mgrwt>
</event>
<event>
 4    1  0.2293715E-008  0.2120190E+03  0.7818608E-02  0.1139977E+00
         -1   -1    0    0    0  501 -0.00000000000E+00  0.00000000000E+00  0.20670546004E+03  0.20670546010E+03  0.50400000000E-02 0.  1.
          1   -1    0    0  501    0  0.00000000000E+00 -0.00000000000E+00 -0.50133431013E+03  0.50133431016E+03  0.50400000000E-02 0. -1.
    8880022    1    1    2    0    0 -0.93900705436E+02 -0.11288519086E+03 -0.41370569330E+03  0.46487037169E+03  0.15294330000E+03 0.  0.
    8880022    1    1    2    0    0  0.93900705436E+02  0.11288519086E+03  0.11907684321E+03  0.24316939857E+03  0.15294330000E+03 0.  0.
<mgrwt>
<rscale>  0 0.21201901E+03</rscale>
<asrwt>0</asrwt>
<pdfrwt beam="1">  1        1 0.77128355E-01 0.21201901E+03</pdfrwt>
<pdfrwt beam="2">  1       -1 0.31800840E-01 0.21201901E+03</pdfrwt>
<totfact> 0.42015806E+02</totfact>
</mgrwt>
</event>
<event>
 4    1  0.2293715E-008  0.4664371E+03  0.7818608E-02  0.1022931E+00
         -1   -1    0    0    0  501 -0.00000000000E+00  0.00000000000E+00  0.19715647686E+03  0.19715647693E+03  0.50400000000E-02 0.  1.
          1   -1    0    0  501    0  0.00000000000E+00 -0.00000000000E+00 -0.21713235607E+04  0.21713235608E+04  0.50400000000E-02 0. -1.
    8880022    1    1    2    0    0 -0.90871824035E+02 -0.43117766875E+03 -0.18175571138E+04  0.18764534061E+04  0.15294330000E+03 0.  0.
    8880022    1    1    2    0    0  0.90871824035E+02  0.43117766875E+03 -0.15660997013E+03  0.49202663159E+03  0.15294330000E+03 0.  0.
<mgrwt>
<rscale>  0 0.46643705E+03</rscale>
<asrwt>0</asrwt>
<pdfrwt beam="1">  1        1 0.33404976E+00 0.46643705E+03</pdfrwt>
<pdfrwt beam="2">  1       -1 0.30331767E-01 0.46643705E+03</pdfrwt>
<totfact> 0.24968171E+01</totfact>
</mgrwt>
</event>
<event>
 4    1  0.2293715E-008  0.6468116E+03  0.7818608E-02  0.9812781E-01
         -1   -1    0    0    0  501 -0.00000000000E+00  0.00000000000E+00  0.66810651284E+03  0.66810651286E+03  0.50400000000E-02 0.  1.
          1   -1    0    0  501    0  0.00000000000E+00 -0.00000000000E+00 -0.99275312302E+03  0.99275312303E+03  0.50400000000E-02 0. -1.
    8880022    1    1    2    0    0 -0.39708463973E+03  0.48713172599E+03  0.34228399439E+03  0.73179472218E+03  0.15294330000E+03 0.  0.
    8880022    1    1    2    0    0  0.39708463973E+03 -0.48713172599E+03 -0.66693060457E+03  0.92906491372E+03  0.15294330000E+03 0.  0.
<mgrwt>
<rscale>  0 0.64681155E+03</rscale>
<asrwt>0</asrwt>
<pdfrwt beam="1">  1        1 0.15273125E+00 0.64681155E+03</pdfrwt>
<pdfrwt beam="2">  1       -1 0.10278562E+00 0.64681155E+03</pdfrwt>
<totfact> 0.14342087E+01</totfact>
</mgrwt>
</event>
<event>
 4    1  0.2293715E-008  0.4207342E+03  0.7818608E-02  0.1036828E+00
          1   -1    0    0  501    0  0.00000000000E+00  0.00000000000E+00  0.62824410551E+03  0.62824410553E+03  0.50400000000E-02 0. -1.
         -1   -1    0    0    0  501 -0.00000000000E+00 -0.00000000000E+00 -0.45851927769E+03  0.45851927772E+03  0.50400000000E-02 0.  1.
    8880022    1    1    2    0    0  0.33454472889E+03 -0.20421901138E+03  0.42223602061E+03  0.59607087695E+03  0.15294330000E+03 0.  0.
    8880022    1    1    2    0    0 -0.33454472889E+03  0.20421901138E+03 -0.25251119279E+03  0.49069250630E+03  0.15294330000E+03 0.  0.
<mgrwt>
<rscale>  0 0.42073416E+03</rscale>
<asrwt>0</asrwt>
<pdfrwt beam="1">  1        1 0.96652939E-01 0.42073416E+03</pdfrwt>
<pdfrwt beam="2">  1       -1 0.70541428E-01 0.42073416E+03</pdfrwt>
<totfact> 0.68731698E+01</totfact>
</mgrwt>
</event>
<event>
 4    1  0.2293715E-008  0.5159762E+03  0.7818608E-02  0.1009691E+00
          1   -1    0    0  501    0  0.00000000000E+00  0.00000000000E+00  0.31865805285E+04  0.31865805285E+04  0.50400000000E-02 0. -1.
         -1   -1    0    0    0  501 -0.00000000000E+00 -0.00000000000E+00 -0.46947909764E+03  0.46947909767E+03  0.50400000000E-02 0.  1.
    8880022    1    1    2    0    0  0.47286971410E+02 -0.49051376991E+03 -0.29886022288E+03  0.59627921478E+03  0.15294330000E+03 0.  0.
    8880022    1    1    2    0    0 -0.47286971410E+02  0.49051376991E+03  0.30159616537E+04  0.30597804114E+04  0.15294330000E+03 0.  0.
<mgrwt>
<rscale>  0 0.51597623E+03</rscale>
<asrwt>0</asrwt>
<pdfrwt beam="1">  1        1 0.49024314E+00 0.51597623E+03</pdfrwt>
<pdfrwt beam="2">  1       -1 0.72227556E-01 0.51597623E+03</pdfrwt>
<totfact> 0.97320687E-01</totfact>
</mgrwt>
</event>
<event>
 4    1  0.2293715E-008  0.1575435E+03  0.7818608E-02  0.1191498E+00
          1   -1    0    0  501    0  0.00000000000E+00  0.00000000000E+00  0.31964430810E+03  0.31964430814E+03  0.50400000000E-02 0. -1.
         -1   -1    0    0    0  501 -0.00000000000E+00 -0.00000000000E+00 -0.79715620316E+02  0.79715620475E+02  0.50400000000E-02 0.  1.
    8880022    1    1    2    0    0  0.32302856224E+02 -0.19616722862E+02  0.87810583876E+02  0.18036252934E+03  0.15294330000E+03 0. -1.
    8880022    1    1    2    0    0 -0.32302856224E+02  0.19616722862E+02  0.15211810391E+03  0.21899739927E+03  0.15294330000E+03 0.  1.
<mgrwt>
<rscale>  0 0.15754346E+03</rscale>
<asrwt>0</asrwt>
<pdfrwt beam="1">  1        1 0.49176048E-01 0.15754346E+03</pdfrwt>
<pdfrwt beam="2">  1       -1 0.12263941E-01 0.15754346E+03</pdfrwt>
<totfact> 0.34829435E+03</totfact>
</mgrwt>
</event>
<event>
 4    1  0.3113830E-008  0.6152104E+03  0.7818608E-02  0.9874342E-01
         -1   -1    0    0    0  501 -0.00000000000E+00  0.00000000000E+00  0.10167027868E+04  0.10167027868E+04  0.50400000000E-02 0.  1.
          1   -1    0    0  501    0  0.00000000000E+00 -0.00000000000E+00 -0.17979073680E+04  0.17979073680E+04  0.50400000000E-02 0. -1.
    8880022    1    1    2    0    0  0.50048608467E+03 -0.32342835575E+03 -0.16437715805E+04  0.17551264582E+04  0.15294330000E+03 0. -1.
    8880022    1    1    2    0    0 -0.50048608467E+03  0.32342835575E+03  0.86256699927E+03  0.10594836967E+04  0.15294330000E+03 0.  0.
<mgrwt>
<rscale>  0 0.61521043E+03</rscale>
<asrwt>0</asrwt>
<pdfrwt beam="1">  1        1 0.27660113E+00 0.61521043E+03</pdfrwt>
<pdfrwt beam="2">  1       -1 0.15641581E+00 0.61521043E+03</pdfrwt>
<totfact> 0.13821908E+00</totfact>
</mgrwt>
</event>
<event>
 4    1  0.2293715E-008  0.4488335E+03  0.7818608E-02  0.1028070E+00
          1   -1    0    0  501    0  0.00000000000E+00  0.00000000000E+00  0.20632426845E+04  0.20632426845E+04  0.50400000000E-02 0. -1.
         -1   -1    0    0    0  501 -0.00000000000E+00 -0.00000000000E+00 -0.33478166746E+03  0.33478166749E+03  0.50400000000E-02 0.  1.
    8880022    1    1    2    0    0 -0.42129940898E+03 -0.23804677359E+02  0.18733631424E+04  0.19263802769E+04  0.15294330000E+03 0.  0.
    8880022    1    1    2    0    0  0.42129940898E+03  0.23804677359E+02 -0.14490212537E+03  0.47164407515E+03  0.15294330000E+03 0.  0.
<mgrwt>
<rscale>  0 0.44883350E+03</rscale>
<asrwt>0</asrwt>
<pdfrwt beam="1">  1        1 0.31742196E+00 0.44883350E+03</pdfrwt>
<pdfrwt beam="2">  1       -1 0.51504871E-01 0.44883350E+03</pdfrwt>
<totfact> 0.11389312E+01</totfact>
</mgrwt>
</event>
<event>
 4    1  0.2293715E-008  0.8010899E+03  0.7818608E-02  0.9558441E-01
         -1   -1    0    0    0  501 -0.00000000000E+00  0.00000000000E+00  0.95496217067E+03  0.95496217068E+03  0.50400000000E-02 0.  1.
          1   -1    0    0  501    0  0.00000000000E+00 -0.00000000000E+00 -0.15935665478E+04  0.15935665478E+04  0.50400000000E-02 0. -1.
    8880022    1    1    2    0    0 -0.27099595953E+03 -0.73818327653E+03  0.64972332175E+03  0.10314482089E+04  0.15294330000E+03 0.  0.
    8880022    1    1    2    0    0  0.27099595953E+03  0.73818327653E+03 -0.12883276989E+04  0.15170805096E+04  0.15294330000E+03 0.  0.
<mgrwt>
<rscale>  0 0.80108989E+03</rscale>
<asrwt>0</asrwt>
<pdfrwt beam="1">  1        1 0.24516408E+00 0.80108989E+03</pdfrwt>
<pdfrwt beam="2">  1       -1 0.14691726E+00 0.80108989E+03</pdfrwt>
<totfact> 0.21590548E+00</totfact>
</mgrwt>
</event>
<event>
 4    1  0.2293715E-008  0.2534285E+03  0.7818608E-02  0.1111157E+00
         -1   -1    0    0    0  501 -0.00000000000E+00  0.00000000000E+00  0.27520713089E+03  0.27520713094E+03  0.50400000000E-02 0.  1.
          1   -1    0    0  501    0  0.00000000000E+00 -0.00000000000E+00 -0.10854443637E+04  0.10854443637E+04  0.50400000000E-02 0. -1.
    8880022    1    1    2    0    0 -0.19819377545E+03  0.39415244988E+02 -0.10078877991E+04  0.10392611812E+04  0.15294330000E+03 0.  0.
    8880022    1    1    2    0    0  0.19819377545E+03 -0.39415244988E+02  0.19765056633E+03  0.32139031340E+03  0.15294330000E+03 0.  0.
<mgrwt>
<rscale>  0 0.25342847E+03</rscale>
<asrwt>0</asrwt>
<pdfrwt beam="1">  1        1 0.16699144E+00 0.25342847E+03</pdfrwt>
<pdfrwt beam="2">  1       -1 0.42339559E-01 0.25342847E+03</pdfrwt>
<totfact> 0.78495059E+01</totfact>
</mgrwt>
</event>
<event>
 4    1  0.2293715E-008  0.4074197E+03  0.7818608E-02  0.1041240E+00
         -1   -1    0    0    0  501 -0.00000000000E+00  0.00000000000E+00  0.44313014396E+03  0.44313014399E+03  0.50400000000E-02 0.  1.
          1   -1    0    0  501    0  0.00000000000E+00 -0.00000000000E+00 -0.65952221374E+03  0.65952221376E+03  0.50400000000E-02 0. -1.
    8880022    1    1    2    0    0 -0.29992931424E+03  0.22943757519E+03 -0.47057824271E+03  0.62244255154E+03  0.15294330000E+03 0.  0.
    8880022    1    1    2    0    0  0.29992931424E+03 -0.22943757519E+03  0.25418617293E+03  0.48020980620E+03  0.15294330000E+03 0.  0.
<mgrwt>
<rscale>  0 0.40741974E+03</rscale>
<asrwt>0</asrwt>
<pdfrwt beam="1">  1        1 0.10146496E+00 0.40741974E+03</pdfrwt>
<pdfrwt beam="2">  1       -1 0.68173868E-01 0.40741974E+03</pdfrwt>
<totfact> 0.68778747E+01</totfact>
</mgrwt>
</event>
<event>
 4    1  0.2293715E-008  0.3565555E+03  0.7818608E-02  0.1059956E+00
          1   -1    0    0  501    0  0.00000000000E+00  0.00000000000E+00  0.53680806214E+03  0.53680806216E+03  0.50400000000E-02 0. -1.
         -1   -1    0    0    0  501 -0.00000000000E+00 -0.00000000000E+00 -0.25664984628E+03  0.25664984633E+03  0.50400000000E-02 0.  1.
    8880022    1    1    2    0    0 -0.31703209711E+03  0.56840215261E+02  0.25033010050E+03  0.43565694405E+03  0.15294330000E+03 0.  0.
    8880022    1    1    2    0    0  0.31703209711E+03 -0.56840215261E+02  0.29828115357E+02  0.35780096444E+03  0.15294330000E+03 0.  0.
<mgrwt>
<rscale>  0 0.35655548E+03</rscale>
<asrwt>0</asrwt>
<pdfrwt beam="1">  1        1 0.82585855E-01 0.35655548E+03</pdfrwt>
<pdfrwt beam="2">  1       -1 0.39484592E-01 0.35655548E+03</pdfrwt>
<totfact> 0.25937328E+02</totfact>
</mgrwt>
</event>
<event>
 4    1  0.2293715E-008  0.5423782E+03  0.7818608E-02  0.1003274E+00
          1   -1    0    0  501    0  0.00000000000E+00  0.00000000000E+00  0.65367887834E+03  0.65367887836E+03  0.50400000000E-02 0. -1.
         -1   -1    0    0    0  501 -0.00000000000E+00 -0.00000000000E+00 -0.77122882200E+03  0.77122882202E+03  0.50400000000E-02 0.  1.
    8880022    1    1    2    0    0  0.50299219574E+03  0.13334647458E+03  0.40100827236E+03  0.67452332708E+03  0.15294330000E+03 0.  0.
    8880022    1    1    2    0    0 -0.50299219574E+03 -0.13334647458E+03 -0.51855821603E+03  0.75038437329E+03  0.15294330000E+03 0.  0.
<mgrwt>
<rscale>  0 0.54237817E+03</rscale>
<asrwt>0</asrwt>
<pdfrwt beam="1">  1        1 0.10056598E+00 0.54237817E+03</pdfrwt>
<pdfrwt beam="2">  1       -1 0.11865059E+00 0.54237817E+03</pdfrwt>
<totfact> 0.20282053E+01</totfact>
</mgrwt>
</event>
<event>
 4    1  0.2293715E-008  0.6434791E+03  0.7818608E-02  0.9819093E-01
         -1   -1    0    0    0  501 -0.00000000000E+00  0.00000000000E+00  0.39433058037E+03  0.39433058040E+03  0.50400000000E-02 0.  1.
          1   -1    0    0  501    0  0.00000000000E+00 -0.00000000000E+00 -0.14239965572E+04  0.14239965572E+04  0.50400000000E-02 0. -1.
    8880022    1    1    2    0    0  0.32060846117E+02  0.62421616213E+03 -0.98073487792E+03  0.11729903106E+04  0.15294330000E+03 0.  0.
    8880022    1    1    2    0    0 -0.32060846117E+02 -0.62421616213E+03 -0.48931098950E+02  0.64533682707E+03  0.15294330000E+03 0.  0.
<mgrwt>
<rscale>  0 0.64347911E+03</rscale>
<asrwt>0</asrwt>
<pdfrwt beam="1">  1        1 0.21907639E+00 0.64347911E+03</pdfrwt>
<pdfrwt beam="2">  1       -1 0.60666244E-01 0.64347911E+03</pdfrwt>
<totfact> 0.21359796E+01</totfact>
</mgrwt>
</event>
<event>
 4    1  0.3638603E-008  0.1001352E+04  0.7818608E-02  0.9307063E-01
         -1   -1    0    0    0  501 -0.00000000000E+00  0.00000000000E+00  0.13125550464E+04  0.13125550464E+04  0.50400000000E-02 0.  1.
          1   -1    0    0  501    0  0.00000000000E+00 -0.00000000000E+00 -0.13927419538E+04  0.13927419538E+04  0.50400000000E-02 0. -1.
    8880022    1    1    2    0    0  0.98952563484E+03 -0.12358422010E+02 -0.94897786682E+03  0.13795884739E+04  0.15294330000E+03 0.  0.
    8880022    1    1    2    0    0 -0.98952563484E+03  0.12358422010E+02  0.86879095936E+03  0.13257085263E+04  0.15294330000E+03 0.  0.
<mgrwt>
<rscale>  0 0.10013518E+04</rscale>
<asrwt>0</asrwt>
<pdfrwt beam="1">  1        1 0.21426799E+00 0.10013518E+04</pdfrwt>
<pdfrwt beam="2">  1       -1 0.20193154E+00 0.10013518E+04</pdfrwt>
<totfact> 0.11417619E+00</totfact>
</mgrwt>
</event>
<event>
 4    1  0.2293715E-008  0.6335193E+03  0.7818608E-02  0.9838205E-01
          1   -1    0    0  501    0  0.00000000000E+00  0.00000000000E+00  0.54880342366E+03  0.54880342369E+03  0.50400000000E-02 0. -1.
         -1   -1    0    0    0  501 -0.00000000000E+00 -0.00000000000E+00 -0.77599665387E+03  0.77599665389E+03  0.50400000000E-02 0.  1.
    8880022    1    1    2    0    0 -0.20709444233E+03  0.57884961702E+03  0.45356353416E+02  0.63514080248E+03  0.15294330000E+03 0.  0.
    8880022    1    1    2    0    0  0.20709444233E+03 -0.57884961702E+03 -0.27254958362E+03  0.68965927509E+03  0.15294330000E+03 0.  0.
<mgrwt>
<rscale>  0 0.63351925E+03</rscale>
<asrwt>0</asrwt>
<pdfrwt beam="1">  1        1 0.84431296E-01 0.63351925E+03</pdfrwt>
<pdfrwt beam="2">  1       -1 0.11938410E+00 0.63351925E+03</pdfrwt>
<totfact> 0.25332231E+01</totfact>
</mgrwt>
</event>
<event>
 4    1  0.2293715E-008  0.7881391E+03  0.7818608E-02  0.9577346E-01
          1   -1    0    0  501    0  0.00000000000E+00  0.00000000000E+00  0.19454923194E+04  0.19454923194E+04  0.50400000000E-02 0. -1.
         -1   -1    0    0    0  501 -0.00000000000E+00 -0.00000000000E+00 -0.52362370269E+03  0.52362370271E+03  0.50400000000E-02 0.  1.
    8880022    1    1    2    0    0  0.70314348267E+03 -0.32149777357E+03  0.14821555173E+04  0.16786745385E+04  0.15294330000E+03 0.  0.
    8880022    1    1    2    0    0 -0.70314348267E+03  0.32149777357E+03 -0.60286900611E+02  0.79044148363E+03  0.15294330000E+03 0.  0.
<mgrwt>
<rscale>  0 0.78813909E+03</rscale>
<asrwt>0</asrwt>
<pdfrwt beam="1">  1        1 0.29930651E+00 0.78813909E+03</pdfrwt>
<pdfrwt beam="2">  1       -1 0.80557492E-01 0.78813909E+03</pdfrwt>
<totfact> 0.51969204E+00</totfact>
</mgrwt>
</event>
<event>
 4    1  0.2293715E-008  0.4587055E+03  0.7818608E-02  0.1025157E+00
          1   -1    0    0  501    0  0.00000000000E+00  0.00000000000E+00  0.35931514433E+04  0.35931514433E+04  0.50400000000E-02 0. -1.
         -1   -1    0    0    0  501 -0.00000000000E+00 -0.00000000000E+00 -0.34957657364E+03  0.34957657367E+03  0.50400000000E-02 0.  1.
    8880022    1    1    2    0    0 -0.42237919755E+03  0.92816419694E+02 -0.17689875751E+03  0.49163390619E+03  0.15294330000E+03 0.  0.
    8880022    1    1    2    0    0  0.42237919755E+03 -0.92816419694E+02  0.34204736271E+04  0.34510941107E+04  0.15294330000E+03 0.  0.
<mgrwt>
<rscale>  0 0.45870549E+03</rscale>
<asrwt>0</asrwt>
<pdfrwt beam="1">  1        1 0.55279254E+00 0.45870549E+03</pdfrwt>
<pdfrwt beam="2">  1       -1 0.53781011E-01 0.45870549E+03</pdfrwt>
<totfact> 0.87936215E-01</totfact>
</mgrwt>
</event>
<event>
 4    1  0.2293715E-008  0.4560581E+03  0.7818608E-02  0.1025931E+00
          1   -1    0    0  501    0  0.00000000000E+00  0.00000000000E+00  0.43418300575E+03  0.43418300578E+03  0.50400000000E-02 0. -1.
         -1   -1    0    0    0  501 -0.00000000000E+00 -0.00000000000E+00 -0.88897246339E+03  0.88897246341E+03  0.50400000000E-02 0.  1.
    8880022    1    1    2    0    0  0.35865936677E+03  0.23656040350E+03 -0.67665222518E+03  0.81599464014E+03  0.15294330000E+03 0.  0.
    8880022    1    1    2    0    0 -0.35865936677E+03 -0.23656040350E+03  0.22186276754E+03  0.50716082904E+03  0.15294330000E+03 0.  0.
<mgrwt>
<rscale>  0 0.45605813E+03</rscale>
<asrwt>0</asrwt>
<pdfrwt beam="1">  1        1 0.66797386E-01 0.45605813E+03</pdfrwt>
<pdfrwt beam="2">  1       -1 0.13676499E+00 0.45605813E+03</pdfrwt>
<totfact> 0.25468645E+01</totfact>
</mgrwt>
</event>
<event>
 4    1  0.2293715E-008  0.6412436E+03  0.7818608E-02  0.9823350E-01
         -1   -1    0    0    0  501 -0.00000000000E+00  0.00000000000E+00  0.54400220817E+03  0.54400220820E+03  0.50400000000E-02 0.  1.
          1   -1    0    0  501    0  0.00000000000E+00 -0.00000000000E+00 -0.18273169616E+04  0.18273169616E+04  0.50400000000E-02 0. -1.
    8880022    1    1    2    0    0  0.59326616828E+03  0.18930635455E+03  0.26624474013E+03  0.69431949199E+03  0.15294330000E+03 0.  0.
    8880022    1    1    2    0    0 -0.59326616828E+03 -0.18930635455E+03 -0.15495594936E+04  0.16769996778E+04  0.15294330000E+03 0.  0.
<mgrwt>
<rscale>  0 0.64124355E+03</rscale>
<asrwt>0</asrwt>
<pdfrwt beam="1">  1        1 0.28112568E+00 0.64124355E+03</pdfrwt>
<pdfrwt beam="2">  1       -1 0.83692649E-01 0.64124355E+03</pdfrwt>
<totfact> 0.58986049E+00</totfact>
</mgrwt>
</event>
<event>
 4    1  0.2293715E-008  0.9653367E+03  0.7818608E-02  0.9347402E-01
         -1   -1    0    0    0  501 -0.00000000000E+00  0.00000000000E+00  0.82080932861E+03  0.82080932863E+03  0.50400000000E-02 0.  1.
          1   -1    0    0  501    0  0.00000000000E+00 -0.00000000000E+00 -0.16916361725E+04  0.16916361725E+04  0.50400000000E-02 0. -1.
    8880022    1    1    2    0    0 -0.37422242473E+03 -0.87660761473E+03  0.28499203292E+03  0.10065264255E+04  0.15294330000E+03 0.  0.
    8880022    1    1    2    0    0  0.37422242473E+03  0.87660761473E+03 -0.11558188768E+04  0.15059190757E+04  0.15294330000E+03 0.  0.
<mgrwt>
<rscale>  0 0.96533672E+03</rscale>
<asrwt>0</asrwt>
<pdfrwt beam="1">  1        1 0.26025172E+00 0.96533672E+03</pdfrwt>
<pdfrwt beam="2">  1       -1 0.12627836E+00 0.96533672E+03</pdfrwt>
<totfact> 0.26667055E+00</totfact>
</mgrwt>
</event>
<event>
 4    1  0.2293715E-008  0.1058929E+04  0.7818608E-02  0.9246174E-01
          1   -1    0    0  501    0  0.00000000000E+00  0.00000000000E+00  0.15848493318E+04  0.15848493318E+04  0.50400000000E-02 0. -1.
         -1   -1    0    0    0  501 -0.00000000000E+00 -0.00000000000E+00 -0.87283181199E+03  0.87283181201E+03  0.50400000000E-02 0.  1.
    8880022    1    1    2    0    0  0.46304706175E+03 -0.93996045205E+03 -0.17876227169E+03  0.10739114654E+04  0.15294330000E+03 0.  0.
    8880022    1    1    2    0    0 -0.46304706175E+03  0.93996045205E+03  0.89077979148E+03  0.13837696784E+04  0.15294330000E+03 0.  0.
<mgrwt>
<rscale>  0 0.10589287E+04</rscale>
<asrwt>0</asrwt>
<pdfrwt beam="1">  1        1 0.24382297E+00 0.10589287E+04</pdfrwt>
<pdfrwt beam="2">  1       -1 0.13428182E+00 0.10589287E+04</pdfrwt>
<totfact> 0.26649990E+00</totfact>
</mgrwt>
</event>
<event>
 4    1  0.2293715E-008  0.3745250E+03  0.7818608E-02  0.1052976E+00
          1   -1    0    0  501    0  0.00000000000E+00  0.00000000000E+00  0.23512547340E+03  0.23512547345E+03  0.50400000000E-02 0. -1.
         -1   -1    0    0    0  501 -0.00000000000E+00 -0.00000000000E+00 -0.14193944043E+04  0.14193944043E+04  0.50400000000E-02 0.  1.
    8880022    1    1    2    0    0  0.14863009426E+03 -0.30787408006E+03 -0.12219941377E+04  0.12780996361E+04  0.15294330000E+03 0.  0.
    8880022    1    1    2    0    0 -0.14863009426E+03  0.30787408006E+03  0.37725206832E+02  0.37642024167E+03  0.15294330000E+03 0.  0.
<mgrwt>
<rscale>  0 0.37452504E+03</rscale>
<asrwt>0</asrwt>
<pdfrwt beam="1">  1        1 0.36173151E-01 0.37452504E+03</pdfrwt>
<pdfrwt beam="2">  1       -1 0.21836836E+00 0.37452504E+03</pdfrwt>
<totfact> 0.14831061E+01</totfact>
</mgrwt>
</event>
<event>
 4    1  0.2293715E-008  0.7604898E+03  0.7818608E-02  0.9619036E-01
          1   -1    0    0  501    0  0.00000000000E+00  0.00000000000E+00  0.15161907562E+04  0.15161907562E+04  0.50400000000E-02 0. -1.
         -1   -1    0    0    0  501 -0.00000000000E+00 -0.00000000000E+00 -0.42417051116E+03  0.42417051119E+03  0.50400000000E-02 0.  1.
    8880022    1    1    2    0    0 -0.62530133429E+03 -0.40490911907E+03  0.85391830293E+03  0.11434689652E+04  0.15294330000E+03 0.  0.
    8880022    1    1    2    0    0  0.62530133429E+03  0.40490911907E+03  0.23810194211E+03  0.79689230215E+03  0.15294330000E+03 0.  0.
<mgrwt>
<rscale>  0 0.76048985E+03</rscale>
<asrwt>0</asrwt>
<pdfrwt beam="1">  1        1 0.23326012E+00 0.76048985E+03</pdfrwt>
<pdfrwt beam="2">  1       -1 0.65257001E-01 0.76048985E+03</pdfrwt>
<totfact> 0.15703047E+01</totfact>
</mgrwt>
</event>
<event>
 4    1  0.2293715E-008  0.4448344E+03  0.7818608E-02  0.1029274E+00
          1   -1    0    0  501    0  0.00000000000E+00  0.00000000000E+00  0.12023748131E+04  0.12023748131E+04  0.50400000000E-02 0. -1.
         -1   -1    0    0    0  501 -0.00000000000E+00 -0.00000000000E+00 -0.37102165623E+03  0.37102165626E+03  0.50400000000E-02 0.  1.
    8880022    1    1    2    0    0 -0.38562848688E+03  0.16055114373E+03  0.10025105622E+04  0.10967702950E+04  0.15294330000E+03 0.  0.
    8880022    1    1    2    0    0  0.38562848688E+03 -0.16055114373E+03 -0.17115740536E+03  0.47662617435E+03  0.15294330000E+03 0.  0.
<mgrwt>
<rscale>  0 0.44483441E+03</rscale>
<asrwt>0</asrwt>
<pdfrwt beam="1">  1        1 0.18498074E+00 0.44483441E+03</pdfrwt>
<pdfrwt beam="2">  1       -1 0.57080254E-01 0.44483441E+03</pdfrwt>
<totfact> 0.35548566E+01</totfact>
</mgrwt>
</event>
<event>
 4    1  0.2293715E-008  0.4377145E+03  0.7818608E-02  0.1031450E+00
          1   -1    0    0  501    0  0.00000000000E+00  0.00000000000E+00  0.11659823857E+04  0.11659823857E+04  0.50400000000E-02 0. -1.
         -1   -1    0    0    0  501 -0.00000000000E+00 -0.00000000000E+00 -0.19592805355E+03  0.19592805362E+03  0.50400000000E-02 0.  1.
    8880022    1    1    2    0    0 -0.36091199619E+03  0.19479447025E+03  0.75853539794E+03  0.87576820996E+03  0.15294330000E+03 0.  0.
    8880022    1    1    2    0    0  0.36091199619E+03 -0.19479447025E+03  0.21151893421E+03  0.48614222937E+03  0.15294330000E+03 0.  0.
<mgrwt>
<rscale>  0 0.43771453E+03</rscale>
<asrwt>0</asrwt>
<pdfrwt beam="1">  1        1 0.17938191E+00 0.43771453E+03</pdfrwt>
<pdfrwt beam="2">  1       -1 0.30142777E-01 0.43771453E+03</pdfrwt>
<totfact> 0.12052780E+02</totfact>
</mgrwt>
</event>
<event>
 4    1  0.2293715E-008  0.1446642E+04  0.7818608E-02  0.8920732E-01
          1   -1    0    0  501    0  0.00000000000E+00  0.00000000000E+00  0.16621268344E+04  0.16621268344E+04  0.50400000000E-02 0. -1.
         -1   -1    0    0    0  501 -0.00000000000E+00 -0.00000000000E+00 -0.19940580443E+04  0.19940580443E+04  0.50400000000E-02 0.  1.
    8880022    1    1    2    0    0 -0.11282081418E+04 -0.89248451052E+03 -0.12758105583E+04  0.19288510690E+04  0.15294330000E+03 0.  0.
    8880022    1    1    2    0    0  0.11282081418E+04  0.89248451052E+03  0.94387934845E+03  0.17273338097E+04  0.15294330000E+03 0.  0.
<mgrwt>
<rscale>  0 0.14466423E+04</rscale>
<asrwt>0</asrwt>
<pdfrwt beam="1">  1        1 0.25571182E+00 0.14466423E+04</pdfrwt>
<pdfrwt beam="2">  1       -1 0.30677816E+00 0.14466423E+04</pdfrwt>
<totfact> 0.14358066E-01</totfact>
</mgrwt>
</event>
<event>
 4    1  0.2293715E-008  0.1020463E+04  0.7818608E-02  0.9286382E-01
          1   -1    0    0  501    0  0.00000000000E+00  0.00000000000E+00  0.77214138630E+03  0.77214138632E+03  0.50400000000E-02 0. -1.
         -1   -1    0    0    0  501 -0.00000000000E+00 -0.00000000000E+00 -0.14076213338E+04  0.14076213338E+04  0.50400000000E-02 0.  1.
    8880022    1    1    2    0    0 -0.98260735789E+03 -0.22898825503E+03 -0.54082775941E+03  0.11549195466E+04  0.15294330000E+03 0.  0.
    8880022    1    1    2    0    0  0.98260735789E+03  0.22898825503E+03 -0.94652188124E+02  0.10248431736E+04  0.15294330000E+03 0.  0.
<mgrwt>
<rscale>  0 0.10204629E+04</rscale>
<asrwt>0</asrwt>
<pdfrwt beam="1">  1        1 0.11879098E+00 0.10204629E+04</pdfrwt>
<pdfrwt beam="2">  1       -1 0.21655713E+00 0.10204629E+04</pdfrwt>
<totfact> 0.27227795E+00</totfact>
</mgrwt>
</event>
<event>
 4    1  0.2293715E-008  0.4734410E+03  0.7818608E-02  0.1020953E+00
          1   -1    0    0  501    0  0.00000000000E+00  0.00000000000E+00  0.23216356879E+03  0.23216356884E+03  0.50400000000E-02 0. -1.
         -1   -1    0    0    0  501 -0.00000000000E+00 -0.00000000000E+00 -0.15789489902E+04  0.15789489902E+04  0.50400000000E-02 0.  1.
    8880022    1    1    2    0    0  0.44464265732E+03 -0.55205398603E+02 -0.10893406893E+03  0.48581170542E+03  0.15294330000E+03 0.  0.
    8880022    1    1    2    0    0 -0.44464265732E+03  0.55205398603E+02 -0.12378513524E+04  0.13253008536E+04  0.15294330000E+03 0.  1.
<mgrwt>
<rscale>  0 0.47344100E+03</rscale>
<asrwt>0</asrwt>
<pdfrwt beam="1">  1        1 0.35717473E-01 0.47344100E+03</pdfrwt>
<pdfrwt beam="2">  1       -1 0.24291522E+00 0.47344100E+03</pdfrwt>
<totfact> 0.10241653E+01</totfact>
</mgrwt>
</event>
<event>
 4    1  0.2293715E-008  0.5855518E+03  0.7818608E-02  0.9935843E-01
         -1   -1    0    0    0  501 -0.00000000000E+00  0.00000000000E+00  0.15180385107E+04  0.15180385107E+04  0.50400000000E-02 0.  1.
          1   -1    0    0  501    0  0.00000000000E+00 -0.00000000000E+00 -0.25720488460E+03  0.25720488465E+03  0.50400000000E-02 0. -1.
    8880022    1    1    2    0    0  0.56452738291E+03 -0.28073471193E+02  0.94025916891E+03  0.11076814721E+04  0.15294330000E+03 0.  0.
    8880022    1    1    2    0    0 -0.56452738291E+03  0.28073471193E+02  0.32057445722E+03  0.66756192332E+03  0.15294330000E+03 0.  0.
<mgrwt>
<rscale>  0 0.58555182E+03</rscale>
<asrwt>0</asrwt>
<pdfrwt beam="1">  1        1 0.39569982E-01 0.58555182E+03</pdfrwt>
<pdfrwt beam="2">  1       -1 0.23354439E+00 0.58555182E+03</pdfrwt>
<totfact> 0.10125385E+01</totfact>
</mgrwt>
</event>
<event>
 4    1  0.2293715E-008  0.6099813E+03  0.7818608E-02  0.9884912E-01
          1   -1    0    0  501    0  0.00000000000E+00  0.00000000000E+00  0.17613459610E+04  0.17613459610E+04  0.50400000000E-02 0. -1.
         -1   -1    0    0    0  501 -0.00000000000E+00 -0.00000000000E+00 -0.30639555242E+03  0.30639555246E+03  0.50400000000E-02 0.  1.
    8880022    1    1    2    0    0 -0.34241624880E+03 -0.48107865626E+03  0.13036158233E+04  0.14392676710E+04  0.15294330000E+03 0.  0.
    8880022    1    1    2    0    0  0.34241624880E+03  0.48107865626E+03  0.15133458526E+03  0.62847384246E+03  0.15294330000E+03 0.  0.
<mgrwt>
<rscale>  0 0.60998132E+03</rscale>
<asrwt>0</asrwt>
<pdfrwt beam="1">  1        1 0.27097630E+00 0.60998132E+03</pdfrwt>
<pdfrwt beam="2">  1       -1 0.47137778E-01 0.60998132E+03</pdfrwt>
<totfact> 0.20594620E+01</totfact>
</mgrwt>
</event>
<event>
 4    1  0.2293715E-008  0.1406554E+04  0.7818608E-02  0.8949088E-01
          1   -1    0    0  501    0  0.00000000000E+00  0.00000000000E+00  0.41085368208E+04  0.41085368208E+04  0.50400000000E-02 0. -1.
         -1   -1    0    0    0  501 -0.00000000000E+00 -0.00000000000E+00 -0.80262183213E+03  0.80262183215E+03  0.50400000000E-02 0.  1.
    8880022    1    1    2    0    0 -0.12895541786E+04  0.54041760764E+03  0.32061011149E+04  0.35010680060E+04  0.15294330000E+03 0.  0.
    8880022    1    1    2    0    0  0.12895541786E+04 -0.54041760764E+03  0.99813873700E+02  0.14100906469E+04  0.15294330000E+03 0.  0.
<mgrwt>
<rscale>  0 0.14065535E+04</rscale>
<asrwt>0</asrwt>
<pdfrwt beam="1">  1        1 0.63208261E+00 0.14065535E+04</pdfrwt>
<pdfrwt beam="2">  1       -1 0.12348028E+00 0.14065535E+04</pdfrwt>
<totfact> 0.43446171E-02</totfact>
</mgrwt>
</event>
<event>
 4    1  0.2293715E-008  0.6187273E+03  0.7818608E-02  0.9867297E-01
         -1   -1    0    0    0  501 -0.00000000000E+00  0.00000000000E+00  0.12237815551E+04  0.12237815551E+04  0.50400000000E-02 0.  1.
          1   -1    0    0  501    0  0.00000000000E+00 -0.00000000000E+00 -0.56946644264E+03  0.56946644266E+03  0.50400000000E-02 0. -1.
    8880022    1    1    2    0    0 -0.59649122337E+03 -0.60249428062E+02  0.92908460472E+03  0.11162533892E+04  0.15294330000E+03 0.  0.
    8880022    1    1    2    0    0  0.59649122337E+03  0.60249428062E+02 -0.27476949226E+03  0.67699460857E+03  0.15294330000E+03 0.  0.
<mgrwt>
<rscale>  0 0.61872726E+03</rscale>
<asrwt>0</asrwt>
<pdfrwt beam="1">  1        1 0.87610223E-01 0.61872726E+03</pdfrwt>
<pdfrwt beam="2">  1       -1 0.18827408E+00 0.61872726E+03</pdfrwt>
<totfact> 0.70715187E+00</totfact>
</mgrwt>
</event>
<event>
 4    1  0.2293715E-008  0.1047813E+04  0.7818608E-02  0.9257605E-01
         -1   -1    0    0    0  501 -0.00000000000E+00  0.00000000000E+00  0.84906395679E+03  0.84906395681E+03  0.50400000000E-02 0.  1.
          1   -1    0    0  501    0  0.00000000000E+00 -0.00000000000E+00 -0.13289795855E+04  0.13289795855E+04  0.50400000000E-02 0. -1.
    8880022    1    1    2    0    0  0.13934765391E+03  0.10271814016E+04 -0.41893499872E+03  0.11284580571E+04  0.15294330000E+03 0.  0.
    8880022    1    1    2    0    0 -0.13934765391E+03 -0.10271814016E+04 -0.60980629949E+02  0.10495854852E+04  0.15294330000E+03 0.  1.
<mgrwt>
<rscale>  0 0.10478125E+04</rscale>
<asrwt>0</asrwt>
<pdfrwt beam="1">  1        1 0.20445840E+00 0.10478125E+04</pdfrwt>
<pdfrwt beam="2">  1       -1 0.13062522E+00 0.10478125E+04</pdfrwt>
<totfact> 0.43140898E+00</totfact>
</mgrwt>
</event>
<event>
 4    1  0.2293715E-008  0.6999194E+03  0.7818608E-02  0.9717370E-01
          1   -1    0    0  501    0  0.00000000000E+00  0.00000000000E+00  0.61699856475E+03  0.61699856477E+03  0.50400000000E-02 0. -1.
         -1   -1    0    0    0  501 -0.00000000000E+00 -0.00000000000E+00 -0.12450607775E+04  0.12450607775E+04  0.50400000000E-02 0.  1.
    8880022    1    1    2    0    0 -0.39093656320E+03  0.56005728818E+03  0.24636266973E+03  0.74201198141E+03  0.15294330000E+03 0.  0.
    8880022    1    1    2    0    0  0.39093656320E+03 -0.56005728818E+03 -0.87442488251E+03  0.11200473609E+04  0.15294330000E+03 0.  0.
<mgrwt>
<rscale>  0 0.69991944E+03</rscale>
<asrwt>0</asrwt>
<pdfrwt beam="1">  1        1 0.94922856E-01 0.69991944E+03</pdfrwt>
<pdfrwt beam="2">  1       -1 0.19154781E+00 0.69991944E+03</pdfrwt>
<totfact> 0.59075484E+00</totfact>
</mgrwt>
</event>
<event>
 4    1  0.2293715E-008  0.1181112E+04  0.7818608E-02  0.9129551E-01
          1   -1    0    0  501    0  0.00000000000E+00  0.00000000000E+00  0.19870039448E+04  0.19870039448E+04  0.50400000000E-02 0. -1.
         -1   -1    0    0    0  501 -0.00000000000E+00 -0.00000000000E+00 -0.80426322798E+03  0.80426322800E+03  0.50400000000E-02 0.  1.
    8880022    1    1    2    0    0  0.22719254343E+03  0.11489205914E+04  0.93894687153E+02  0.11848387411E+04  0.15294330000E+03 0.  0.
    8880022    1    1    2    0    0 -0.22719254343E+03 -0.11489205914E+04  0.10888460297E+04  0.16064284318E+04  0.15294330000E+03 0.  0.
<mgrwt>
<rscale>  0 0.11811125E+04</rscale>
<asrwt>0</asrwt>
<pdfrwt beam="1">  1        1 0.30569291E+00 0.11811125E+04</pdfrwt>
<pdfrwt beam="2">  1       -1 0.12373280E+00 0.11811125E+04</pdfrwt>
<totfact> 0.17221700E+00</totfact>
</mgrwt>
</event>
<event>
 4    1  0.2293715E-008  0.2000120E+03  0.7818608E-02  0.1149729E+00
          1   -1    0    0  501    0  0.00000000000E+00  0.00000000000E+00  0.53759468896E+03  0.53759468898E+03  0.50400000000E-02 0. -1.
         -1   -1    0    0    0  501 -0.00000000000E+00 -0.00000000000E+00 -0.13321457150E+03  0.13321457160E+03  0.50400000000E-02 0.  1.
    8880022    1    1    2    0    0 -0.12888972642E+03  0.75739313944E+00 -0.20644461663E+02  0.20107456834E+03  0.15294330000E+03 0.  0.
    8880022    1    1    2    0    0  0.12888972642E+03 -0.75739313944E+00  0.42502457912E+03  0.46973469224E+03  0.15294330000E+03 0.  0.
<mgrwt>
<rscale>  0 0.20001197E+03</rscale>
<asrwt>0</asrwt>
<pdfrwt beam="1">  1        1 0.82706873E-01 0.20001197E+03</pdfrwt>
<pdfrwt beam="2">  1       -1 0.20494550E-01 0.20001197E+03</pdfrwt>
<totfact> 0.79594726E+02</totfact>
</mgrwt>
</event>
<event>
 4    1  0.2293715E-008  0.3357613E+03  0.7818608E-02  0.1068616E+00
         -1   -1    0    0    0  501 -0.00000000000E+00  0.00000000000E+00  0.14038742352E+04  0.14038742352E+04  0.50400000000E-02 0.  1.
          1   -1    0    0  501    0  0.00000000000E+00 -0.00000000000E+00 -0.73971801085E+03  0.73971801087E+03  0.50400000000E-02 0. -1.
    8880022    1    1    2    0    0 -0.65881498146E+02 -0.29155376599E+03 -0.67987042493E+03  0.75826078494E+03  0.15294330000E+03 0.  0.
    8880022    1    1    2    0    0  0.65881498146E+02  0.29155376599E+03  0.13440266493E+04  0.13853314612E+04  0.15294330000E+03 0.  1.
<mgrwt>
<rscale>  0 0.33576126E+03</rscale>
<asrwt>0</asrwt>
<pdfrwt beam="1">  1        1 0.11380277E+00 0.33576126E+03</pdfrwt>
<pdfrwt beam="2">  1       -1 0.21598065E+00 0.33576126E+03</pdfrwt>
<totfact> 0.33712433E+00</totfact>
</mgrwt>
</event>
<event>
 4    1  0.2293715E-008  0.3124595E+03  0.7818608E-02  0.1079173E+00
          1   -1    0    0  501    0  0.00000000000E+00  0.00000000000E+00  0.49153579529E+03  0.49153579532E+03  0.50400000000E-02 0. -1.
         -1   -1    0    0    0  501 -0.00000000000E+00 -0.00000000000E+00 -0.60585357262E+03  0.60585357264E+03  0.50400000000E-02 0.  1.
    8880022    1    1    2    0    0 -0.26963892504E+03 -0.39168401615E+02 -0.50700751204E+03  0.59555653289E+03  0.15294330000E+03 0.  0.
    8880022    1    1    2    0    0  0.26963892504E+03  0.39168401615E+02  0.39268973472E+03  0.50183283507E+03  0.15294330000E+03 0. -1.
<mgrwt>
<rscale>  0 0.31245954E+03</rscale>
<asrwt>0</asrwt>
<pdfrwt beam="1">  1        1 0.75620892E-01 0.31245954E+03</pdfrwt>
<pdfrwt beam="2">  1       -1 0.93208242E-01 0.31245954E+03</pdfrwt>
<totfact> 0.54674308E+01</totfact>
</mgrwt>
</event>
<event>
 4    1  0.2293715E-008  0.4217214E+03  0.7818608E-02  0.1036508E+00
         -1   -1    0    0    0  501 -0.00000000000E+00  0.00000000000E+00  0.13019174223E+03  0.13019174233E+03  0.50400000000E-02 0.  1.
          1   -1    0    0  501    0  0.00000000000E+00 -0.00000000000E+00 -0.29994897670E+04  0.29994897670E+04  0.50400000000E-02 0. -1.
    8880022    1    1    2    0    0  0.21901594232E+03  0.32632696283E+03 -0.25894243888E+04  0.26235410399E+04  0.15294330000E+03 0.  0.
    8880022    1    1    2    0    0 -0.21901594232E+03 -0.32632696283E+03 -0.27987363594E+03  0.50614046941E+03  0.15294330000E+03 0.  0.
<mgrwt>
<rscale>  0 0.42172138E+03</rscale>
<asrwt>0</asrwt>
<pdfrwt beam="1">  1        1 0.46145991E+00 0.42172138E+03</pdfrwt>
<pdfrwt beam="2">  1       -1 0.20029501E-01 0.42172138E+03</pdfrwt>
<totfact> 0.13886111E+01</totfact>
</mgrwt>
</event>
<event>
 4    1  0.2293715E-008  0.5525603E+03  0.7818608E-02  0.1000903E+00
         -1   -1    0    0    0  501 -0.00000000000E+00  0.00000000000E+00  0.15315364121E+04  0.15315364121E+04  0.50400000000E-02 0.  1.
          1   -1    0    0  501    0  0.00000000000E+00 -0.00000000000E+00 -0.24608351343E+03  0.24608351348E+03  0.50400000000E-02 0. -1.
    8880022    1    1    2    0    0  0.35794682020E+03  0.39218020469E+03  0.10300270469E+04  0.11688792108E+04  0.15294330000E+03 0.  0.
    8880022    1    1    2    0    0 -0.35794682020E+03 -0.39218020469E+03  0.25542585170E+03  0.60874071474E+03  0.15294330000E+03 0.  0.
<mgrwt>
<rscale>  0 0.55256031E+03</rscale>
<asrwt>0</asrwt>
<pdfrwt beam="1">  1        1 0.37859001E-01 0.55256031E+03</pdfrwt>
<pdfrwt beam="2">  1       -1 0.23562099E+00 0.55256031E+03</pdfrwt>
<totfact> 0.10444785E+01</totfact>
</mgrwt>
</event>
<event>
 4    1  0.2293715E-008  0.1065573E+04  0.7818608E-02  0.9239412E-01
          1   -1    0    0  501    0  0.00000000000E+00  0.00000000000E+00  0.15152120358E+04  0.15152120358E+04  0.50400000000E-02 0. -1.
         -1   -1    0    0    0  501 -0.00000000000E+00 -0.00000000000E+00 -0.10694076873E+04  0.10694076873E+04  0.50400000000E-02 0.  1.
    8880022    1    1    2    0    0  0.10515145949E+04 -0.79820843423E+02  0.92986953939E+03  0.14142500924E+04  0.15294330000E+03 0.  0.
    8880022    1    1    2    0    0 -0.10515145949E+04  0.79820843423E+02 -0.48406519088E+03  0.11703696307E+04  0.15294330000E+03 0.  0.
<mgrwt>
<rscale>  0 0.10655731E+04</rscale>
<asrwt>0</asrwt>
<pdfrwt beam="1">  1        1 0.23310954E+00 0.10655731E+04</pdfrwt>
<pdfrwt beam="2">  1       -1 0.16452426E+00 0.10655731E+04</pdfrwt>
<totfact> 0.17197840E+00</totfact>
</mgrwt>
</event>
<event>
 4    1  0.2293715E-008  0.4593553E+03  0.7818608E-02  0.1024968E+00
         -1   -1    0    0    0  501 -0.00000000000E+00  0.00000000000E+00  0.14334062972E+03  0.14334062981E+03  0.50400000000E-02 0.  1.
          1   -1    0    0  501    0  0.00000000000E+00 -0.00000000000E+00 -0.17423408524E+04  0.17423408524E+04  0.50400000000E-02 0. -1.
    8880022    1    1    2    0    0 -0.30415308084E+03 -0.30839353337E+03 -0.42815983333E+03  0.62795554294E+03  0.15294330000E+03 0.  0.
    8880022    1    1    2    0    0  0.30415308084E+03  0.30839353337E+03 -0.11708403893E+04  0.12577259393E+04  0.15294330000E+03 0.  0.
<mgrwt>
<rscale>  0 0.45935533E+03</rscale>
<asrwt>0</asrwt>
<pdfrwt beam="1">  1        1 0.26805243E+00 0.45935533E+03</pdfrwt>
<pdfrwt beam="2">  1       -1 0.22052406E-01 0.45935533E+03</pdfrwt>
<totfact> 0.82471576E+01</totfact>
</mgrwt>
</event>
<event>
 4    1  0.2293715E-008  0.4585733E+03  0.7818608E-02  0.1025196E+00
         -1   -1    0    0    0  501 -0.00000000000E+00  0.00000000000E+00  0.36616587232E+03  0.36616587236E+03  0.50400000000E-02 0.  1.
          1   -1    0    0  501    0  0.00000000000E+00 -0.00000000000E+00 -0.12086487825E+04  0.12086487825E+04  0.50400000000E-02 0. -1.
    8880022    1    1    2    0    0  0.99359311379E+02 -0.42074401395E+03  0.14920263180E+03  0.48223529152E+03  0.15294330000E+03 0.  1.
    8880022    1    1    2    0    0 -0.99359311379E+02  0.42074401395E+03 -0.99168554200E+03  0.10925793634E+04  0.15294330000E+03 0.  0.
<mgrwt>
<rscale>  0 0.45857328E+03</rscale>
<asrwt>0</asrwt>
<pdfrwt beam="1">  1        1 0.18594596E+00 0.45857328E+03</pdfrwt>
<pdfrwt beam="2">  1       -1 0.56333212E-01 0.45857328E+03</pdfrwt>
<totfact> 0.35994647E+01</totfact>
</mgrwt>
</event>
<event>
 4    1  0.2293715E-008  0.6252774E+03  0.7818608E-02  0.9854308E-01
         -1   -1    0    0    0  501 -0.00000000000E+00  0.00000000000E+00  0.10537865669E+04  0.10537865669E+04  0.50400000000E-02 0.  1.
          1   -1    0    0  501    0  0.00000000000E+00 -0.00000000000E+00 -0.23353183367E+04  0.23353183367E+04  0.50400000000E-02 0. -1.
    8880022    1    1    2    0    0 -0.60539504181E+03  0.32817614371E+02 -0.21948915218E+04  0.22822183502E+04  0.15294330000E+03 0.  0.
    8880022    1    1    2    0    0  0.60539504181E+03 -0.32817614371E+02  0.91335975200E+03  0.11068865534E+04  0.15294330000E+03 0.  0.
<mgrwt>
<rscale>  0 0.62527738E+03</rscale>
<asrwt>0</asrwt>
<pdfrwt beam="1">  1        1 0.35927974E+00 0.62527738E+03</pdfrwt>
<pdfrwt beam="2">  1       -1 0.16212101E+00 0.62527738E+03</pdfrwt>
<totfact> 0.54706494E-01</totfact>
</mgrwt>
</event>
<event>
 4    1  0.2293715E-008  0.9747703E+03  0.7818608E-02  0.9336658E-01
         -1   -1    0    0    0  501 -0.00000000000E+00  0.00000000000E+00  0.97052823652E+03  0.97052823653E+03  0.50400000000E-02 0.  1.
          1   -1    0    0  501    0  0.00000000000E+00 -0.00000000000E+00 -0.98845725302E+03  0.98845725303E+03  0.50400000000E-02 0. -1.
    8880022    1    1    2    0    0 -0.31412914701E+03 -0.91000455991E+03 -0.10461683693E+03  0.98036817351E+03  0.15294330000E+03 0.  0.
    8880022    1    1    2    0    0  0.31412914701E+03  0.91000455991E+03  0.86687820432E+02  0.97861731605E+03  0.15294330000E+03 0.  0.
<mgrwt>
<rscale>  0 0.97477027E+03</rscale>
<asrwt>0</asrwt>
<pdfrwt beam="1">  1        1 0.15207035E+00 0.97477027E+03</pdfrwt>
<pdfrwt beam="2">  1       -1 0.14931204E+00 0.97477027E+03</pdfrwt>
<totfact> 0.54875617E+00</totfact>
</mgrwt>
</event>
<event>
 4    1  0.2293715E-008  0.6308408E+03  0.7818608E-02  0.9843409E-01
          1   -1    0    0  501    0  0.00000000000E+00  0.00000000000E+00  0.10549643638E+04  0.10549643638E+04  0.50400000000E-02 0. -1.
         -1   -1    0    0    0  501 -0.00000000000E+00 -0.00000000000E+00 -0.83999995944E+03  0.83999995945E+03  0.50400000000E-02 0.  1.
    8880022    1    1    2    0    0 -0.45891795035E+03  0.40492320465E+03  0.81074201092E+03  0.10272598250E+04  0.15294330000E+03 0.  0.
    8880022    1    1    2    0    0  0.45891795035E+03 -0.40492320465E+03 -0.59577760655E+03  0.86770449826E+03  0.15294330000E+03 0.  0.
<mgrwt>
<rscale>  0 0.63084082E+03</rscale>
<asrwt>0</asrwt>
<pdfrwt beam="1">  1        1 0.16230221E+00 0.63084082E+03</pdfrwt>
<pdfrwt beam="2">  1       -1 0.12923076E+00 0.63084082E+03</pdfrwt>
<totfact> 0.74494962E+00</totfact>
</mgrwt>
</event>
<event>
 4    1  0.2293715E-008  0.6224697E+03  0.7818608E-02  0.9859855E-01
         -1   -1    0    0    0  501 -0.00000000000E+00  0.00000000000E+00  0.34404296597E+03  0.34404296600E+03  0.50400000000E-02 0.  1.
          1   -1    0    0  501    0  0.00000000000E+00 -0.00000000000E+00 -0.19669319601E+04  0.19669319601E+04  0.50400000000E-02 0. -1.
    8880022    1    1    2    0    0  0.43224499469E+03  0.42100023582E+03 -0.56015252663E+02  0.62498503625E+03  0.15294330000E+03 0.  0.
    8880022    1    1    2    0    0 -0.43224499469E+03 -0.42100023582E+03 -0.15668737415E+04  0.16859898899E+04  0.15294330000E+03 0.  0.
<mgrwt>
<rscale>  0 0.62246975E+03</rscale>
<asrwt>0</asrwt>
<pdfrwt beam="1">  1        1 0.30260491E+00 0.62246975E+03</pdfrwt>
<pdfrwt beam="2">  1       -1 0.52929688E-01 0.62246975E+03</pdfrwt>
<totfact> 0.12049341E+01</totfact>
</mgrwt>
</event>
<event>
 4    1  0.2293715E-008  0.5303206E+03  0.7818608E-02  0.1006154E+00
         -1   -1    0    0    0  501 -0.00000000000E+00  0.00000000000E+00  0.32265451964E+03  0.32265451968E+03  0.50400000000E-02 0.  1.
          1   -1    0    0  501    0  0.00000000000E+00 -0.00000000000E+00 -0.10472292089E+04  0.10472292090E+04  0.50400000000E-02 0. -1.
    8880022    1    1    2    0    0  0.50511610304E+03 -0.52019052546E+02 -0.64275104747E+03  0.83328795828E+03  0.15294330000E+03 0.  0.
    8880022    1    1    2    0    0 -0.50511610304E+03  0.52019052546E+02 -0.81823641836E+02  0.53659577035E+03  0.15294330000E+03 0.  0.
<mgrwt>
<rscale>  0 0.53032058E+03</rscale>
<asrwt>0</asrwt>
<pdfrwt beam="1">  1        1 0.16111219E+00 0.53032058E+03</pdfrwt>
<pdfrwt beam="2">  1       -1 0.49639157E-01 0.53032058E+03</pdfrwt>
<totfact> 0.59381963E+01</totfact>
</mgrwt>
</event>
<event>
 4    1  0.2293715E-008  0.6300309E+03  0.7818608E-02  0.9844988E-01
         -1   -1    0    0    0  501 -0.00000000000E+00  0.00000000000E+00  0.63184369511E+03  0.63184369513E+03  0.50400000000E-02 0.  1.
          1   -1    0    0  501    0  0.00000000000E+00 -0.00000000000E+00 -0.12355181396E+04  0.12355181397E+04  0.50400000000E-02 0. -1.
    8880022    1    1    2    0    0  0.34387646030E+03  0.50526854538E+03 -0.95643373884E+03  0.11452966745E+04  0.15294330000E+03 0.  0.
    8880022    1    1    2    0    0 -0.34387646030E+03 -0.50526854538E+03  0.35275929431E+03  0.72206516025E+03  0.15294330000E+03 0.  0.
<mgrwt>
<rscale>  0 0.63003093E+03</rscale>
<asrwt>0</asrwt>
<pdfrwt beam="1">  1        1 0.19007971E+00 0.63003093E+03</pdfrwt>
<pdfrwt beam="2">  1       -1 0.97206723E-01 0.63003093E+03</pdfrwt>
<totfact> 0.10790302E+01</totfact>
</mgrwt>
</event>
<event>
 4    1  0.2293715E-008  0.6246247E+03  0.7818608E-02  0.9855595E-01
         -1   -1    0    0    0  501 -0.00000000000E+00  0.00000000000E+00  0.82741636256E+03  0.82741636258E+03  0.50400000000E-02 0.  1.
          1   -1    0    0  501    0  0.00000000000E+00 -0.00000000000E+00 -0.16767992540E+04  0.16767992540E+04  0.50400000000E-02 0. -1.
    8880022    1    1    2    0    0  0.46160378747E+03 -0.39202848226E+03 -0.14862458782E+04  0.16121671288E+04  0.15294330000E+03 0.  0.
    8880022    1    1    2    0    0 -0.46160378747E+03  0.39202848226E+03  0.63686298684E+03  0.89204848777E+03  0.15294330000E+03 0.  1.
<mgrwt>
<rscale>  0 0.62462472E+03</rscale>
<asrwt>0</asrwt>
<pdfrwt beam="1">  1        1 0.25796912E+00 0.62462472E+03</pdfrwt>
<pdfrwt beam="2">  1       -1 0.12729483E+00 0.62462472E+03</pdfrwt>
<totfact> 0.28405577E+00</totfact>
</mgrwt>
</event>
<event>
 4    1  0.3771771E-008  0.6955166E+03  0.7818608E-02  0.9724930E-01
          1   -1    0    0  501    0  0.00000000000E+00  0.00000000000E+00  0.90565580744E+03  0.90565580745E+03  0.50400000000E-02 0. -1.
         -1   -1    0    0    0  501 -0.00000000000E+00 -0.00000000000E+00 -0.17464547063E+04  0.17464547063E+04  0.50400000000E-02 0.  1.
    8880022    1    1    2    0    0  0.45713831205E+03 -0.50137439425E+03  0.68442012691E+03  0.97579418050E+03  0.15294330000E+03 0.  0.
    8880022    1    1    2    0    0 -0.45713831205E+03  0.50137439425E+03 -0.15252190258E+04  0.16763163333E+04  0.15294330000E+03 0.  1.
<mgrwt>
<rscale>  0 0.69551662E+03</rscale>
<asrwt>0</asrwt>
<pdfrwt beam="1">  1        1 0.13933166E+00 0.69551662E+03</pdfrwt>
<pdfrwt beam="2">  1       -1 0.26868534E+00 0.69551662E+03</pdfrwt>
<totfact> 0.10106564E+00</totfact>
</mgrwt>
</event>
<event>
 4    1  0.2293715E-008  0.2952636E+03  0.7818608E-02  0.1087633E+00
          1   -1    0    0  501    0  0.00000000000E+00  0.00000000000E+00  0.15441628691E+03  0.15441628700E+03  0.50400000000E-02 0. -1.
         -1   -1    0    0    0  501 -0.00000000000E+00 -0.00000000000E+00 -0.61481052237E+03  0.61481052239E+03  0.50400000000E-02 0.  1.
    8880022    1    1    2    0    0 -0.19993220361E+03 -0.15432446651E+03 -0.12026335254E+03  0.31881633268E+03  0.15294330000E+03 0.  1.
    8880022    1    1    2    0    0  0.19993220361E+03  0.15432446651E+03 -0.34013088292E+03  0.45041047671E+03  0.15294330000E+03 0. -1.
<mgrwt>
<rscale>  0 0.29526358E+03</rscale>
<asrwt>0</asrwt>
<pdfrwt beam="1">  1        1 0.23756352E-01 0.29526358E+03</pdfrwt>
<pdfrwt beam="2">  1       -1 0.94586233E-01 0.29526358E+03</pdfrwt>
<totfact> 0.23373920E+02</totfact>
</mgrwt>
</event>
<event>
 4    1  0.2293715E-008  0.6409543E+03  0.7818608E-02  0.9823902E-01
         -1   -1    0    0    0  501 -0.00000000000E+00  0.00000000000E+00  0.23639240076E+03  0.23639240082E+03  0.50400000000E-02 0.  1.
          1   -1    0    0  501    0  0.00000000000E+00 -0.00000000000E+00 -0.21899725540E+04  0.21899725540E+04  0.50400000000E-02 0. -1.
    8880022    1    1    2    0    0  0.21292820130E+03  0.58488662443E+03 -0.15280022807E+04  0.16569892593E+04  0.15294330000E+03 0.  0.
    8880022    1    1    2    0    0 -0.21292820130E+03 -0.58488662443E+03 -0.42557787249E+03  0.76937569556E+03  0.15294330000E+03 0.  0.
<mgrwt>
<rscale>  0 0.64095432E+03</rscale>
<asrwt>0</asrwt>
<pdfrwt beam="1">  1        1 0.33691884E+00 0.64095432E+03</pdfrwt>
<pdfrwt beam="2">  1       -1 0.36368063E-01 0.64095432E+03</pdfrwt>
<totfact> 0.17039956E+01</totfact>
</mgrwt>
</event>
<event>
 4    1  0.2293715E-008  0.4116388E+03  0.7818608E-02  0.1039822E+00
         -1   -1    0    0    0  501 -0.00000000000E+00  0.00000000000E+00  0.76181656582E+03  0.76181656584E+03  0.50400000000E-02 0.  1.
          1   -1    0    0  501    0  0.00000000000E+00 -0.00000000000E+00 -0.73770736139E+03  0.73770736141E+03  0.50400000000E-02 0. -1.
    8880022    1    1    2    0    0  0.49916912427E+02 -0.37889730665E+03  0.63867463769E+03  0.75983670152E+03  0.15294330000E+03 0.  0.
    8880022    1    1    2    0    0 -0.49916912427E+02  0.37889730665E+03 -0.61456543326E+03  0.73968722573E+03  0.15294330000E+03 0.  0.
<mgrwt>
<rscale>  0 0.41163882E+03</rscale>
<asrwt>0</asrwt>
<pdfrwt beam="1">  1        1 0.11349344E+00 0.41163882E+03</pdfrwt>
<pdfrwt beam="2">  1       -1 0.11720255E+00 0.41163882E+03</pdfrwt>
<totfact> 0.17872890E+01</totfact>
</mgrwt>
</event>
<event>
 4    1  0.2293715E-008  0.6759712E+03  0.7818608E-02  0.9759231E-01
          1   -1    0    0  501    0  0.00000000000E+00  0.00000000000E+00  0.94756419005E+03  0.94756419006E+03  0.50400000000E-02 0. -1.
         -1   -1    0    0    0  501 -0.00000000000E+00 -0.00000000000E+00 -0.96425905658E+03  0.96425905659E+03  0.50400000000E-02 0.  1.
    8880022    1    1    2    0    0  0.37184161298E+03 -0.54339605527E+03 -0.68421359901E+03  0.96181357867E+03  0.15294330000E+03 0.  0.
    8880022    1    1    2    0    0 -0.37184161298E+03  0.54339605527E+03  0.66751873248E+03  0.95000966798E+03  0.15294330000E+03 0. -1.
<mgrwt>
<rscale>  0 0.67597124E+03</rscale>
<asrwt>0</asrwt>
<pdfrwt beam="1">  1        1 0.14577911E+00 0.67597124E+03</pdfrwt>
<pdfrwt beam="2">  1       -1 0.14834755E+00 0.67597124E+03</pdfrwt>
<totfact> 0.62663014E+00</totfact>
</mgrwt>
</event>
<event>
 4    1  0.2293715E-008  0.5852725E+03  0.7818608E-02  0.9936441E-01
          1   -1    0    0  501    0  0.00000000000E+00  0.00000000000E+00  0.14419919964E+04  0.14419919964E+04  0.50400000000E-02 0. -1.
         -1   -1    0    0    0  501 -0.00000000000E+00 -0.00000000000E+00 -0.34448971654E+03  0.34448971657E+03  0.50400000000E-02 0.  1.
    8880022    1    1    2    0    0  0.34846820454E+03 -0.44465956361E+03  0.10464330252E+04  0.11989853821E+04  0.15294330000E+03 0.  0.
    8880022    1    1    2    0    0 -0.34846820454E+03  0.44465956361E+03  0.51069254659E+02  0.58749633095E+03  0.15294330000E+03 0.  0.
<mgrwt>
<rscale>  0 0.58527248E+03</rscale>
<asrwt>0</asrwt>
<pdfrwt beam="1">  1        1 0.22184493E+00 0.58527248E+03</pdfrwt>
<pdfrwt beam="2">  1       -1 0.52998417E-01 0.58527248E+03</pdfrwt>
<totfact> 0.27220312E+01</totfact>
</mgrwt>
</event>
<event>
 4    1  0.2293715E-008  0.6748756E+03  0.7818608E-02  0.9761190E-01
         -1   -1    0    0    0  501 -0.00000000000E+00  0.00000000000E+00  0.49118797555E+03  0.49118797557E+03  0.50400000000E-02 0.  1.
          1   -1    0    0  501    0  0.00000000000E+00 -0.00000000000E+00 -0.15434267098E+04  0.15434267098E+04  0.50400000000E-02 0. -1.
    8880022    1    1    2    0    0  0.30590117952E+03  0.58179883623E+03 -0.11688953570E+04  0.13497308717E+04  0.15294330000E+03 0.  0.
    8880022    1    1    2    0    0 -0.30590117952E+03 -0.58179883623E+03  0.11665662280E+03  0.68488381360E+03  0.15294330000E+03 0.  0.
<mgrwt>
<rscale>  0 0.67487560E+03</rscale>
<asrwt>0</asrwt>
<pdfrwt beam="1">  1        1 0.23745026E+00 0.67487560E+03</pdfrwt>
<pdfrwt beam="2">  1       -1 0.75567382E-01 0.67487560E+03</pdfrwt>
<totfact> 0.11287195E+01</totfact>
</mgrwt>
</event>
<event>
 4    1  0.2293715E-008  0.6040314E+03  0.7818608E-02  0.9897077E-01
          1   -1    0    0  501    0  0.00000000000E+00  0.00000000000E+00  0.10921693412E+04  0.10921693412E+04  0.50400000000E-02 0. -1.
         -1   -1    0    0    0  501 -0.00000000000E+00 -0.00000000000E+00 -0.73723137715E+03  0.73723137717E+03  0.50400000000E-02 0.  1.
    8880022    1    1    2    0    0 -0.51900138008E+03 -0.26851425667E+03  0.85389431833E+03  0.10459395291E+04  0.15294330000E+03 0.  0.
    8880022    1    1    2    0    0  0.51900138008E+03  0.26851425667E+03 -0.49895635433E+03  0.78346118928E+03  0.15294330000E+03 0.  0.
<mgrwt>
<rscale>  0 0.60403145E+03</rscale>
<asrwt>0</asrwt>
<pdfrwt beam="1">  1        1 0.16802605E+00 0.60403145E+03</pdfrwt>
<pdfrwt beam="2">  1       -1 0.11342021E+00 0.60403145E+03</pdfrwt>
<totfact> 0.96480733E+00</totfact>
</mgrwt>
</event>
<event>
 4    1  0.2293715E-008  0.8530804E+03  0.7818608E-02  0.9486212E-01
          1   -1    0    0  501    0  0.00000000000E+00  0.00000000000E+00  0.29041423062E+04  0.29041423062E+04  0.50400000000E-02 0. -1.
         -1   -1    0    0    0  501 -0.00000000000E+00 -0.00000000000E+00 -0.31102165820E+03  0.31102165824E+03  0.50400000000E-02 0.  1.
    8880022    1    1    2    0    0 -0.38141724100E+03  0.74757971876E+03  0.20051805732E+04  0.21791042498E+04  0.15294330000E+03 0.  0.
    8880022    1    1    2    0    0  0.38141724100E+03 -0.74757971876E+03  0.58794007485E+03  0.10360597146E+04  0.15294330000E+03 0.  0.
<mgrwt>
<rscale>  0 0.85308042E+03</rscale>
<asrwt>0</asrwt>
<pdfrwt beam="1">  1        1 0.44679113E+00 0.85308042E+03</pdfrwt>
<pdfrwt beam="2">  1       -1 0.47849485E-01 0.85308042E+03</pdfrwt>
<totfact> 0.32127447E+00</totfact>
</mgrwt>
</event>
<event>
 4    1  0.2293715E-008  0.3012846E+03  0.7818608E-02  0.1084600E+00
         -1   -1    0    0    0  501 -0.00000000000E+00  0.00000000000E+00  0.44882042986E+03  0.44882042989E+03  0.50400000000E-02 0.  1.
          1   -1    0    0  501    0  0.00000000000E+00 -0.00000000000E+00 -0.25012580328E+03  0.25012580333E+03  0.50400000000E-02 0. -1.
    8880022    1    1    2    0    0  0.13634861061E+03  0.22088412972E+03 -0.53552899297E+02  0.30600703982E+03  0.15294330000E+03 0.  0.
    8880022    1    1    2    0    0 -0.13634861061E+03 -0.22088412972E+03  0.25224752588E+03  0.39293919340E+03  0.15294330000E+03 0.  0.
<mgrwt>
<rscale>  0 0.30128458E+03</rscale>
<asrwt>0</asrwt>
<pdfrwt beam="1">  1        1 0.38480893E-01 0.30128458E+03</pdfrwt>
<pdfrwt beam="2">  1       -1 0.69049296E-01 0.30128458E+03</pdfrwt>
<totfact> 0.24431015E+02</totfact>
</mgrwt>
</event>
<event>
 4    1  0.2293715E-008  0.5260286E+03  0.7818608E-02  0.1007200E+00
         -1   -1    0    0    0  501 -0.00000000000E+00  0.00000000000E+00  0.84135666921E+03  0.84135666923E+03  0.50400000000E-02 0.  1.
          1   -1    0    0  501    0  0.00000000000E+00 -0.00000000000E+00 -0.10223401180E+04  0.10223401180E+04  0.50400000000E-02 0. -1.
    8880022    1    1    2    0    0  0.50245473020E+03  0.29217486313E+02  0.67697233647E+03  0.85732001888E+03  0.15294330000E+03 0.  0.
    8880022    1    1    2    0    0 -0.50245473020E+03 -0.29217486313E+02 -0.85795578525E+03  0.10063767683E+04  0.15294330000E+03 0. -1.
<mgrwt>
<rscale>  0 0.52602858E+03</rscale>
<asrwt>0</asrwt>
<pdfrwt beam="1">  1        1 0.15728309E+00 0.52602858E+03</pdfrwt>
<pdfrwt beam="2">  1       -1 0.12943949E+00 0.52602858E+03</pdfrwt>
<totfact> 0.80141095E+00</totfact>
</mgrwt>
</event>
<event>
 4    1  0.2293715E-008  0.7975394E+03  0.7818608E-02  0.9563586E-01
         -1   -1    0    0    0  501 -0.00000000000E+00  0.00000000000E+00  0.90338948129E+03  0.90338948130E+03  0.50400000000E-02 0.  1.
          1   -1    0    0  501    0  0.00000000000E+00 -0.00000000000E+00 -0.10510057976E+04  0.10510057976E+04  0.50400000000E-02 0. -1.
    8880022    1    1    2    0    0 -0.30138810766E+03 -0.72238679117E+03  0.48761557657E+03  0.93479306321E+03  0.15294330000E+03 0.  0.
    8880022    1    1    2    0    0  0.30138810766E+03  0.72238679117E+03 -0.63523189285E+03  0.10196022157E+04  0.15294330000E+03 0.  0.
<mgrwt>
<rscale>  0 0.79753942E+03</rscale>
<asrwt>0</asrwt>
<pdfrwt beam="1">  1        1 0.16169320E+00 0.79753942E+03</pdfrwt>
<pdfrwt beam="2">  1       -1 0.13898300E+00 0.79753942E+03</pdfrwt>
<totfact> 0.60704524E+00</totfact>
</mgrwt>
</event>
<event>
 4    1  0.2293715E-008  0.5479971E+03  0.7818608E-02  0.1001959E+00
          1   -1    0    0  501    0  0.00000000000E+00  0.00000000000E+00  0.78391424937E+03  0.78391424938E+03  0.50400000000E-02 0. -1.
         -1   -1    0    0    0  501 -0.00000000000E+00 -0.00000000000E+00 -0.63343641410E+03  0.63343641412E+03  0.50400000000E-02 0.  1.
    8880022    1    1    2    0    0  0.38986634270E+03 -0.35343097491E+03  0.52076821583E+03  0.75597645918E+03  0.15294330000E+03 0.  0.
    8880022    1    1    2    0    0 -0.38986634270E+03  0.35343097491E+03 -0.37029038056E+03  0.66137420433E+03  0.15294330000E+03 0.  0.
<mgrwt>
<rscale>  0 0.54799715E+03</rscale>
<asrwt>0</asrwt>
<pdfrwt beam="1">  1        1 0.12060219E+00 0.54799715E+03</pdfrwt>
<pdfrwt beam="2">  1       -1 0.97451756E-01 0.54799715E+03</pdfrwt>
<totfact> 0.24332225E+01</totfact>
</mgrwt>
</event>
<event>
 4    1  0.2293715E-008  0.4645030E+03  0.7818608E-02  0.1023483E+00
          1   -1    0    0  501    0  0.00000000000E+00  0.00000000000E+00  0.99439037931E+03  0.99439037932E+03  0.50400000000E-02 0. -1.
         -1   -1    0    0    0  501 -0.00000000000E+00 -0.00000000000E+00 -0.47461589028E+03  0.47461589031E+03  0.50400000000E-02 0.  1.
    8880022    1    1    2    0    0  0.36027230628E+03 -0.25015037345E+03  0.80104707448E+03  0.92598024415E+03  0.15294330000E+03 0.  0.
    8880022    1    1    2    0    0 -0.36027230628E+03  0.25015037345E+03 -0.28127258545E+03  0.54302602548E+03  0.15294330000E+03 0.  0.
<mgrwt>
<rscale>  0 0.46450296E+03</rscale>
<asrwt>0</asrwt>
<pdfrwt beam="1">  1        1 0.15298313E+00 0.46450296E+03</pdfrwt>
<pdfrwt beam="2">  1       -1 0.73017830E-01 0.46450296E+03</pdfrwt>
<totfact> 0.30896926E+01</totfact>
</mgrwt>
</event>
<event>
 4    1  0.2293715E-008  0.1109310E+04  0.7818608E-02  0.9196165E-01
          1   -1    0    0  501    0  0.00000000000E+00  0.00000000000E+00  0.41989350173E+04  0.41989350173E+04  0.50400000000E-02 0. -1.
         -1   -1    0    0    0  501 -0.00000000000E+00 -0.00000000000E+00 -0.43672185334E+03  0.43672185336E+03  0.50400000000E-02 0.  1.
    8880022    1    1    2    0    0  0.10967224487E+04 -0.66150460943E+02  0.32104572560E+04  0.33967047942E+04  0.15294330000E+03 0.  0.
    8880022    1    1    2    0    0 -0.10967224487E+04  0.66150460943E+02  0.55175590797E+03  0.12389520765E+04  0.15294330000E+03 0.  0.
<mgrwt>
<rscale>  0 0.11093095E+04</rscale>
<asrwt>0</asrwt>
<pdfrwt beam="1">  1        1 0.64598999E+00 0.11093095E+04</pdfrwt>
<pdfrwt beam="2">  1       -1 0.67187979E-01 0.11093095E+04</pdfrwt>
<totfact> 0.14786746E-01</totfact>
</mgrwt>
</event>
<event>
 4    1  0.2293715E-008  0.8460434E+03  0.7818608E-02  0.9495663E-01
          1   -1    0    0  501    0  0.00000000000E+00  0.00000000000E+00  0.20183043396E+04  0.20183043396E+04  0.50400000000E-02 0. -1.
         -1   -1    0    0    0  501 -0.00000000000E+00 -0.00000000000E+00 -0.54586337685E+03  0.54586337688E+03  0.50400000000E-02 0.  1.
    8880022    1    1    2    0    0 -0.15415325166E+03  0.81770075739E+03 -0.22592658179E+02  0.84634498572E+03  0.15294330000E+03 0.  0.
    8880022    1    1    2    0    0  0.15415325166E+03 -0.81770075739E+03  0.14950336210E+04  0.17178227308E+04  0.15294330000E+03 0.  0.
<mgrwt>
<rscale>  0 0.84604338E+03</rscale>
<asrwt>0</asrwt>
<pdfrwt beam="1">  1        1 0.31050836E+00 0.84604338E+03</pdfrwt>
<pdfrwt beam="2">  1       -1 0.83978981E-01 0.84604338E+03</pdfrwt>
<totfact> 0.42091954E+00</totfact>
</mgrwt>
</event>
<event>
 4    1  0.2293715E-008  0.1690417E+03  0.7818608E-02  0.1178851E+00
          1   -1    0    0  501    0  0.00000000000E+00  0.00000000000E+00  0.29173408220E+03  0.29173408224E+03  0.50400000000E-02 0. -1.
         -1   -1    0    0    0  501 -0.00000000000E+00 -0.00000000000E+00 -0.36862347163E+04  0.36862347164E+04  0.50400000000E-02 0.  1.
    8880022    1    1    2    0    0 -0.14654753308E+02 -0.70488814899E+02  0.26513093899E+03  0.31443521216E+03  0.15294330000E+03 0.  0.
    8880022    1    1    2    0    0  0.14654753308E+02  0.70488814899E+02 -0.36596315731E+04  0.36635335864E+04  0.15294330000E+03 0.  1.
<mgrwt>
<rscale>  0 0.16904167E+03</rscale>
<asrwt>0</asrwt>
<pdfrwt beam="1">  1        1 0.44882169E-01 0.16904167E+03</pdfrwt>
<pdfrwt beam="2">  1       -1 0.56711300E+00 0.16904167E+03</pdfrwt>
<totfact> 0.71682956E-02</totfact>
</mgrwt>
</event>
<event>
 4    1  0.2293715E-008  0.3873308E+03  0.7818608E-02  0.1048257E+00
          1   -1    0    0  501    0  0.00000000000E+00  0.00000000000E+00  0.79283353396E+03  0.79283353398E+03  0.50400000000E-02 0. -1.
         -1   -1    0    0    0  501 -0.00000000000E+00 -0.00000000000E+00 -0.31386042792E+03  0.31386042796E+03  0.50400000000E-02 0.  1.
    8880022    1    1    2    0    0  0.26510096478E+03  0.23739202597E+03  0.58818284602E+03  0.70426146345E+03  0.15294330000E+03 0.  0.
    8880022    1    1    2    0    0 -0.26510096478E+03 -0.23739202597E+03 -0.10920973998E+03  0.40243249849E+03  0.15294330000E+03 0.  0.
<mgrwt>
<rscale>  0 0.38733080E+03</rscale>
<asrwt>0</asrwt>
<pdfrwt beam="1">  1        1 0.12197439E+00 0.38733080E+03</pdfrwt>
<pdfrwt beam="2">  1       -1 0.48286221E-01 0.38733080E+03</pdfrwt>
<totfact> 0.10172547E+02</totfact>
</mgrwt>
</event>
<event>
 4    1  0.2293715E-008  0.7858470E+03  0.7818608E-02  0.9580732E-01
          1   -1    0    0  501    0  0.00000000000E+00  0.00000000000E+00  0.31527802565E+04  0.31527802565E+04  0.50400000000E-02 0. -1.
         -1   -1    0    0    0  501 -0.00000000000E+00 -0.00000000000E+00 -0.50009934770E+03  0.50009934773E+03  0.50400000000E-02 0.  1.
    8880022    1    1    2    0    0  0.70058589192E+03  0.32147048358E+03 -0.98194606457E+02  0.79195814127E+03  0.15294330000E+03 0.  0.
    8880022    1    1    2    0    0 -0.70058589192E+03 -0.32147048358E+03  0.27508755152E+04  0.28609214629E+04  0.15294330000E+03 0.  0.
<mgrwt>
<rscale>  0 0.78584701E+03</rscale>
<asrwt>0</asrwt>
<pdfrwt beam="1">  1        1 0.48504310E+00 0.78584701E+03</pdfrwt>
<pdfrwt beam="2">  1       -1 0.76938364E-01 0.78584701E+03</pdfrwt>
<totfact> 0.83978680E-01</totfact>
</mgrwt>
</event>
<event>
 4    1  0.2293715E-008  0.2703370E+03  0.7818608E-02  0.1101087E+00
          1   -1    0    0  501    0  0.00000000000E+00  0.00000000000E+00  0.43138118898E+03  0.43138118901E+03  0.50400000000E-02 0. -1.
         -1   -1    0    0    0  501 -0.00000000000E+00 -0.00000000000E+00 -0.97104062085E+03  0.97104062086E+03  0.50400000000E-02 0.  1.
    8880022    1    1    2    0    0  0.10865246397E+03  0.19464094900E+03  0.36728255094E+03  0.45604668861E+03  0.15294330000E+03 0.  0.
    8880022    1    1    2    0    0 -0.10865246397E+03 -0.19464094900E+03 -0.90694198280E+03  0.94637512126E+03  0.15294330000E+03 0.  1.
<mgrwt>
<rscale>  0 0.27033703E+03</rscale>
<asrwt>0</asrwt>
<pdfrwt beam="1">  1        1 0.66366337E-01 0.27033703E+03</pdfrwt>
<pdfrwt beam="2">  1       -1 0.14939086E+00 0.27033703E+03</pdfrwt>
<totfact> 0.21290068E+01</totfact>
</mgrwt>
</event>
<event>
 4    1  0.2293715E-008  0.1071551E+04  0.7818608E-02  0.9233373E-01
         -1   -1    0    0    0  501 -0.00000000000E+00  0.00000000000E+00  0.43548904719E+03  0.43548904722E+03  0.50400000000E-02 0.  1.
          1   -1    0    0  501    0  0.00000000000E+00 -0.00000000000E+00 -0.26516157063E+04  0.26516157063E+04  0.50400000000E-02 0. -1.
    8880022    1    1    2    0    0  0.63472670792E+03 -0.84967723507E+03 -0.99200248489E+03  0.14602362756E+04  0.15294330000E+03 0.  0.
    8880022    1    1    2    0    0 -0.63472670792E+03  0.84967723507E+03 -0.12241241743E+04  0.16268684780E+04  0.15294330000E+03 0.  0.
<mgrwt>
<rscale>  0 0.10715508E+04</rscale>
<asrwt>0</asrwt>
<pdfrwt beam="1">  1        1 0.40794087E+00 0.10715508E+04</pdfrwt>
<pdfrwt beam="2">  1       -1 0.66998316E-01 0.10715508E+04</pdfrwt>
<totfact> 0.24225578E+00</totfact>
</mgrwt>
</event>
<event>
 4    1  0.2293715E-008  0.5937705E+03  0.7818608E-02  0.9918415E-01
         -1   -1    0    0    0  501 -0.00000000000E+00  0.00000000000E+00  0.72331486074E+03  0.72331486076E+03  0.50400000000E-02 0.  1.
          1   -1    0    0  501    0  0.00000000000E+00 -0.00000000000E+00 -0.13239617318E+04  0.13239617318E+04  0.50400000000E-02 0. -1.
    8880022    1    1    2    0    0 -0.37272788807E+03  0.43617163342E+03  0.51335108025E+03  0.78491576424E+03  0.15294330000E+03 0.  0.
    8880022    1    1    2    0    0  0.37272788807E+03 -0.43617163342E+03 -0.11139979513E+04  0.12623608283E+04  0.15294330000E+03 0.  0.
<mgrwt>
<rscale>  0 0.59377052E+03</rscale>
<asrwt>0</asrwt>
<pdfrwt beam="1">  1        1 0.20368642E+00 0.59377052E+03</pdfrwt>
<pdfrwt beam="2">  1       -1 0.11127921E+00 0.59377052E+03</pdfrwt>
<totfact> 0.68896206E+00</totfact>
</mgrwt>
</event>
<event>
 4    1  0.2293715E-008  0.2467803E+03  0.7818608E-02  0.1115357E+00
          1   -1    0    0  501    0  0.00000000000E+00  0.00000000000E+00  0.13593689757E+04  0.13593689758E+04  0.50400000000E-02 0. -1.
         -1   -1    0    0    0  501 -0.00000000000E+00 -0.00000000000E+00 -0.14599146260E+03  0.14599146269E+03  0.50400000000E-02 0.  1.
    8880022    1    1    2    0    0 -0.14690664385E+03  0.12620339320E+03  0.12333278368E+04  0.12577750453E+04  0.15294330000E+03 0. -1.
    8880022    1    1    2    0    0  0.14690664385E+03 -0.12620339320E+03 -0.19950323694E+02  0.24758539314E+03  0.15294330000E+03 0.  0.
<mgrwt>
<rscale>  0 0.24678029E+03</rscale>
<asrwt>0</asrwt>
<pdfrwt beam="1">  1        1 0.20913369E+00 0.24678029E+03</pdfrwt>
<pdfrwt beam="2">  1       -1 0.22460224E-01 0.24678029E+03</pdfrwt>
<totfact> 0.15020952E+02</totfact>
</mgrwt>
</event>
<event>
 4    1  0.2293715E-008  0.6981626E+03  0.7818608E-02  0.9720379E-01
         -1   -1    0    0    0  501 -0.00000000000E+00  0.00000000000E+00  0.33102169968E+03  0.33102169972E+03  0.50400000000E-02 0.  1.
          1   -1    0    0  501    0  0.00000000000E+00 -0.00000000000E+00 -0.20016819299E+04  0.20016819299E+04  0.50400000000E-02 0. -1.
    8880022    1    1    2    0    0 -0.52363960783E+03  0.43570745166E+03 -0.14350280132E+04  0.15958497655E+04  0.15294330000E+03 0.  0.
    8880022    1    1    2    0    0  0.52363960783E+03 -0.43570745166E+03 -0.23563221695E+03  0.73685386407E+03  0.15294330000E+03 0.  0.
<mgrwt>
<rscale>  0 0.69816264E+03</rscale>
<asrwt>0</asrwt>
<pdfrwt beam="1">  1        1 0.30795106E+00 0.69816264E+03</pdfrwt>
<pdfrwt beam="2">  1       -1 0.50926417E-01 0.69816264E+03</pdfrwt>
<totfact> 0.12132641E+01</totfact>
</mgrwt>
</event>
<event>
 4    1  0.2293715E-008  0.4442303E+03  0.7818608E-02  0.1029457E+00
         -1   -1    0    0    0  501 -0.00000000000E+00  0.00000000000E+00  0.14015157304E+03  0.14015157313E+03  0.50400000000E-02 0.  1.
          1   -1    0    0  501    0  0.00000000000E+00 -0.00000000000E+00 -0.21136393927E+04  0.21136393927E+04  0.50400000000E-02 0. -1.
    8880022    1    1    2    0    0  0.35521965605E+03 -0.21855860077E+03 -0.33564944920E+03  0.55677739877E+03  0.15294330000E+03 0.  0.
    8880022    1    1    2    0    0 -0.35521965605E+03  0.21855860077E+03 -0.16378383704E+04  0.16970135670E+04  0.15294330000E+03 0.  0.
<mgrwt>
<rscale>  0 0.44423025E+03</rscale>
<asrwt>0</asrwt>
<pdfrwt beam="1">  1        1 0.32517527E+00 0.44423025E+03</pdfrwt>
<pdfrwt beam="2">  1       -1 0.21561782E-01 0.44423025E+03</pdfrwt>
<totfact> 0.48833613E+01</totfact>
</mgrwt>
</event>
<event>
 4    1  0.2293715E-008  0.6037270E+03  0.7818608E-02  0.9897704E-01
          1   -1    0    0  501    0  0.00000000000E+00  0.00000000000E+00  0.10047030068E+04  0.10047030068E+04  0.50400000000E-02 0. -1.
         -1   -1    0    0    0  501 -0.00000000000E+00 -0.00000000000E+00 -0.53057453858E+03  0.53057453861E+03  0.50400000000E-02 0.  1.
    8880022    1    1    2    0    0 -0.56331419701E+03 -0.15418107837E+03  0.66875461468E+03  0.90095453667E+03  0.15294330000E+03 0.  0.
    8880022    1    1    2    0    0  0.56331419701E+03  0.15418107837E+03 -0.19462614649E+03  0.63432300872E+03  0.15294330000E+03 0.  0.
<mgrwt>
<rscale>  0 0.60372704E+03</rscale>
<asrwt>0</asrwt>
<pdfrwt beam="1">  1        1 0.15456969E+00 0.60372704E+03</pdfrwt>
<pdfrwt beam="2">  1       -1 0.81626852E-01 0.60372704E+03</pdfrwt>
<totfact> 0.23501289E+01</totfact>
</mgrwt>
</event>
<event>
 4    1  0.2293715E-008  0.7336470E+03  0.7818608E-02  0.9661361E-01
         -1   -1    0    0    0  501 -0.00000000000E+00  0.00000000000E+00  0.12885001414E+04  0.12885001414E+04  0.50400000000E-02 0.  1.
          1   -1    0    0  501    0  0.00000000000E+00 -0.00000000000E+00 -0.56228784232E+03  0.56228784234E+03  0.50400000000E-02 0. -1.
    8880022    1    1    2    0    0 -0.98798072622E+02 -0.71069345639E+03  0.83232626775E+03  0.11095066098E+04  0.15294330000E+03 0.  0.
    8880022    1    1    2    0    0  0.98798072622E+02  0.71069345639E+03 -0.10611396864E+03  0.74128137402E+03  0.15294330000E+03 0.  0.
<mgrwt>
<rscale>  0 0.73364699E+03</rscale>
<asrwt>0</asrwt>
<pdfrwt beam="1">  1        1 0.86505823E-01 0.73364699E+03</pdfrwt>
<pdfrwt beam="2">  1       -1 0.19823079E+00 0.73364699E+03</pdfrwt>
<totfact> 0.60360070E+00</totfact>
</mgrwt>
</event>
<event>
 4    1  0.2293715E-008  0.6046355E+03  0.7818608E-02  0.9895835E-01
         -1   -1    0    0    0  501 -0.00000000000E+00  0.00000000000E+00  0.90925648278E+03  0.90925648279E+03  0.50400000000E-02 0.  1.
          1   -1    0    0  501    0  0.00000000000E+00 -0.00000000000E+00 -0.11590331244E+04  0.11590331244E+04  0.50400000000E-02 0. -1.
    8880022    1    1    2    0    0  0.55078066353E+03 -0.19706114555E+03  0.71085131978E+03  0.93321684846E+03  0.15294330000E+03 0.  0.
    8880022    1    1    2    0    0 -0.55078066353E+03  0.19706114555E+03 -0.96062796137E+03  0.11350727587E+04  0.15294330000E+03 0.  0.
<mgrwt>
<rscale>  0 0.60463550E+03</rscale>
<asrwt>0</asrwt>
<pdfrwt beam="1">  1        1 0.17831279E+00 0.60463550E+03</pdfrwt>
<pdfrwt beam="2">  1       -1 0.13988561E+00 0.60463550E+03</pdfrwt>
<totfact> 0.51245607E+00</totfact>
</mgrwt>
</event>
<event>
 4    1  0.2293715E-008  0.1183444E+04  0.7818608E-02  0.9127473E-01
          1   -1    0    0  501    0  0.00000000000E+00  0.00000000000E+00  0.69344646012E+03  0.69344646013E+03  0.50400000000E-02 0. -1.
         -1   -1    0    0    0  501 -0.00000000000E+00 -0.00000000000E+00 -0.25981892528E+04  0.25981892528E+04  0.50400000000E-02 0.  1.
    8880022    1    1    2    0    0  0.34616405848E+02  0.11730087056E+04 -0.17289793690E+04  0.20952109752E+04  0.15294330000E+03 0.  0.
    8880022    1    1    2    0    0 -0.34616405848E+02 -0.11730087056E+04 -0.17576342372E+03  0.11964247378E+04  0.15294330000E+03 0.  0.
<mgrwt>
<rscale>  0 0.11834439E+04</rscale>
<asrwt>0</asrwt>
<pdfrwt beam="1">  1        1 0.10668407E+00 0.11834439E+04</pdfrwt>
<pdfrwt beam="2">  1       -1 0.39972142E+00 0.11834439E+04</pdfrwt>
<totfact> 0.19800458E-01</totfact>
</mgrwt>
</event>
<event>
 4    1  0.2293715E-008  0.8494194E+03  0.7818608E-02  0.9491117E-01
          1   -1    0    0  501    0  0.00000000000E+00  0.00000000000E+00  0.15636468442E+04  0.15636468442E+04  0.50400000000E-02 0. -1.
         -1   -1    0    0    0  501 -0.00000000000E+00 -0.00000000000E+00 -0.94958174680E+03  0.94958174681E+03  0.50400000000E-02 0.  1.
    8880022    1    1    2    0    0  0.76859959158E+03  0.32768325544E+03  0.12080087418E+04  0.14767526608E+04  0.15294330000E+03 0.  0.
    8880022    1    1    2    0    0 -0.76859959158E+03 -0.32768325544E+03 -0.59394364439E+03  0.10364759302E+04  0.15294330000E+03 0.  0.
<mgrwt>
<rscale>  0 0.84941939E+03</rscale>
<asrwt>0</asrwt>
<pdfrwt beam="1">  1        1 0.24056105E+00 0.84941939E+03</pdfrwt>
<pdfrwt beam="2">  1       -1 0.14608950E+00 0.84941939E+03</pdfrwt>
<totfact> 0.22781408E+00</totfact>
</mgrwt>
</event>
<event>
 4    1  0.2293715E-008  0.3522192E+03  0.7818608E-02  0.1061708E+00
          1   -1    0    0  501    0  0.00000000000E+00  0.00000000000E+00  0.10901756583E+04  0.10901756584E+04  0.50400000000E-02 0. -1.
         -1   -1    0    0    0  501 -0.00000000000E+00 -0.00000000000E+00 -0.32469202002E+03  0.32469202006E+03  0.50400000000E-02 0.  1.
    8880022    1    1    2    0    0  0.45864445100E+02 -0.31394769062E+03  0.95288447044E+03  0.10158972225E+04  0.15294330000E+03 0. -1.
    8880022    1    1    2    0    0 -0.45864445100E+02  0.31394769062E+03 -0.18740083210E+03  0.39897045587E+03  0.15294330000E+03 0.  0.
<mgrwt>
<rscale>  0 0.35221918E+03</rscale>
<asrwt>0</asrwt>
<pdfrwt beam="1">  1        1 0.16771933E+00 0.35221918E+03</pdfrwt>
<pdfrwt beam="2">  1       -1 0.49952618E-01 0.35221918E+03</pdfrwt>
<totfact> 0.56197809E+01</totfact>
</mgrwt>
</event>
<event>
 4    1  0.2293715E-008  0.5686049E+03  0.7818608E-02  0.9972771E-01
         -1   -1    0    0    0  501 -0.00000000000E+00  0.00000000000E+00  0.43941665225E+03  0.43941665228E+03  0.50400000000E-02 0.  1.
          1   -1    0    0  501    0  0.00000000000E+00 -0.00000000000E+00 -0.37854174259E+04  0.37854174259E+04  0.50400000000E-02 0. -1.
    8880022    1    1    2    0    0  0.65973172852E+01 -0.54760963882E+03  0.22303867921E+03  0.61078453367E+03  0.15294330000E+03 0.  0.
    8880022    1    1    2    0    0 -0.65973172852E+01  0.54760963882E+03 -0.35690394528E+04  0.36140495445E+04  0.15294330000E+03 0.  0.
<mgrwt>
<rscale>  0 0.56860487E+03</rscale>
<asrwt>0</asrwt>
<pdfrwt beam="1">  1        1 0.58237189E+00 0.56860487E+03</pdfrwt>
<pdfrwt beam="2">  1       -1 0.67602564E-01 0.56860487E+03</pdfrwt>
<totfact> 0.37918151E-01</totfact>
</mgrwt>
</event>
<event>
 4    1  0.2293715E-008  0.1282259E+04  0.7818608E-02  0.9043753E-01
          1   -1    0    0  501    0  0.00000000000E+00  0.00000000000E+00  0.11084935134E+04  0.11084935134E+04  0.50400000000E-02 0. -1.
         -1   -1    0    0    0  501 -0.00000000000E+00 -0.00000000000E+00 -0.15159636358E+04  0.15159636358E+04  0.50400000000E-02 0.  1.
    8880022    1    1    2    0    0  0.11279453782E+04 -0.59037013197E+03 -0.11012850686E+02  0.12823067515E+04  0.15294330000E+03 0. -1.
    8880022    1    1    2    0    0 -0.11279453782E+04  0.59037013197E+03 -0.39645727171E+03  0.13421503978E+04  0.15294330000E+03 0.  1.
<mgrwt>
<rscale>  0 0.12822595E+04</rscale>
<asrwt>0</asrwt>
<pdfrwt beam="1">  1        1 0.17053746E+00 0.12822595E+04</pdfrwt>
<pdfrwt beam="2">  1       -1 0.23322517E+00 0.12822595E+04</pdfrwt>
<totfact> 0.10909444E+00</totfact>
</mgrwt>
</event>
<event>
 4    1  0.2293715E-008  0.3917308E+03  0.7818608E-02  0.1046681E+00
         -1   -1    0    0    0  501 -0.00000000000E+00  0.00000000000E+00  0.36355226566E+03  0.36355226570E+03  0.50400000000E-02 0.  1.
          1   -1    0    0  501    0  0.00000000000E+00 -0.00000000000E+00 -0.65499817120E+03  0.65499817122E+03  0.50400000000E-02 0. -1.
    8880022    1    1    2    0    0  0.21754128187E+03  0.28764071191E+03  0.15796084149E+03  0.42237976860E+03  0.15294330000E+03 0.  0.
    8880022    1    1    2    0    0 -0.21754128187E+03 -0.28764071191E+03 -0.44940674703E+03  0.59617066832E+03  0.15294330000E+03 0. -1.
<mgrwt>
<rscale>  0 0.39173083E+03</rscale>
<asrwt>0</asrwt>
<pdfrwt beam="1">  1        1 0.10076895E+00 0.39173083E+03</pdfrwt>
<pdfrwt beam="2">  1       -1 0.55931118E-01 0.39173083E+03</pdfrwt>
<totfact> 0.10263342E+02</totfact>
</mgrwt>
</event>
<event>
 4    1  0.2293715E-008  0.9159571E+03  0.7818608E-02  0.9405851E-01
          1   -1    0    0  501    0  0.00000000000E+00  0.00000000000E+00  0.15502953266E+04  0.15502953266E+04  0.50400000000E-02 0. -1.
         -1   -1    0    0    0  501 -0.00000000000E+00 -0.00000000000E+00 -0.12036527102E+04  0.12036527102E+04  0.50400000000E-02 0.  1.
    8880022    1    1    2    0    0 -0.63842617052E+03  0.63874702866E+03  0.11948758519E+04  0.15055582673E+04  0.15294330000E+03 0.  0.
    8880022    1    1    2    0    0  0.63842617052E+03 -0.63874702866E+03 -0.84823323549E+03  0.12483897695E+04  0.15294330000E+03 0.  0.
<mgrwt>
<rscale>  0 0.91595709E+03</rscale>
<asrwt>0</asrwt>
<pdfrwt beam="1">  1        1 0.23850698E+00 0.91595709E+03</pdfrwt>
<pdfrwt beam="2">  1       -1 0.18517734E+00 0.91595709E+03</pdfrwt>
<totfact> 0.11773617E+00</totfact>
</mgrwt>
</event>
<event>
 4    1  0.2293715E-008  0.6368681E+03  0.7818608E-02  0.9831737E-01
         -1   -1    0    0    0  501 -0.00000000000E+00  0.00000000000E+00  0.90426892712E+03  0.90426892713E+03  0.50400000000E-02 0.  1.
          1   -1    0    0  501    0  0.00000000000E+00 -0.00000000000E+00 -0.62515132130E+03  0.62515132132E+03  0.50400000000E-02 0. -1.
    8880022    1    1    2    0    0 -0.47499042780E+03 -0.39571892332E+03  0.54601449057E+03  0.83888786480E+03  0.15294330000E+03 0.  0.
    8880022    1    1    2    0    0  0.47499042780E+03  0.39571892332E+03 -0.26689688475E+03  0.69053238366E+03  0.15294330000E+03 0.  0.
<mgrwt>
<rscale>  0 0.63686814E+03</rscale>
<asrwt>0</asrwt>
<pdfrwt beam="1">  1        1 0.96177126E-01 0.63686814E+03</pdfrwt>
<pdfrwt beam="2">  1       -1 0.13911830E+00 0.63686814E+03</pdfrwt>
<totfact> 0.14346578E+01</totfact>
</mgrwt>
</event>
<event>
 4    1  0.2293715E-008  0.2130943E+03  0.7818608E-02  0.1139139E+00
         -1   -1    0    0    0  501 -0.00000000000E+00  0.00000000000E+00  0.13920851852E+03  0.13920851861E+03  0.50400000000E-02 0.  1.
          1   -1    0    0  501    0  0.00000000000E+00 -0.00000000000E+00 -0.76599258615E+03  0.76599258616E+03  0.50400000000E-02 0. -1.
    8880022    1    1    2    0    0  0.14595703874E+03 -0.26722031159E+02  0.29556558288E+02  0.21513430052E+03  0.15294330000E+03 0.  0.
    8880022    1    1    2    0    0 -0.14595703874E+03  0.26722031159E+02 -0.65634062591E+03  0.69006680426E+03  0.15294330000E+03 0. -1.
<mgrwt>
<rscale>  0 0.21309429E+03</rscale>
<asrwt>0</asrwt>
<pdfrwt beam="1">  1        1 0.11784501E+00 0.21309429E+03</pdfrwt>
<pdfrwt beam="2">  1       -1 0.21416696E-01 0.21309429E+03</pdfrwt>
<totfact> 0.44873274E+02</totfact>
</mgrwt>
</event>
<event>
 4    1  0.2293715E-008  0.7746677E+03  0.7818608E-02  0.9597426E-01
         -1   -1    0    0    0  501 -0.00000000000E+00  0.00000000000E+00  0.62686747017E+03  0.62686747019E+03  0.50400000000E-02 0.  1.
          1   -1    0    0  501    0  0.00000000000E+00 -0.00000000000E+00 -0.12408656234E+04  0.12408656234E+04  0.50400000000E-02 0. -1.
    8880022    1    1    2    0    0 -0.37438665619E+03 -0.66072155406E+03 -0.75341256022E+03  0.10806204140E+04  0.15294330000E+03 0.  0.
    8880022    1    1    2    0    0  0.37438665619E+03  0.66072155406E+03  0.13941440704E+03  0.78711267951E+03  0.15294330000E+03 0.  0.
<mgrwt>
<rscale>  0 0.77466767E+03</rscale>
<asrwt>0</asrwt>
<pdfrwt beam="1">  1        1 0.19090240E+00 0.77466767E+03</pdfrwt>
<pdfrwt beam="2">  1       -1 0.96441149E-01 0.77466767E+03</pdfrwt>
<totfact> 0.10649542E+01</totfact>
</mgrwt>
</event>
<event>
 4    1  0.2293715E-008  0.1800625E+03  0.7818608E-02  0.1167743E+00
         -1   -1    0    0    0  501 -0.00000000000E+00  0.00000000000E+00  0.65492627587E+03  0.65492627589E+03  0.50400000000E-02 0.  1.
          1   -1    0    0  501    0  0.00000000000E+00 -0.00000000000E+00 -0.99777090994E+02  0.99777091121E+02  0.50400000000E-02 0. -1.
    8880022    1    1    2    0    0  0.47936142037E+02 -0.82054646694E+02  0.54542476514E+03  0.57437850430E+03  0.15294330000E+03 0.  0.
    8880022    1    1    2    0    0 -0.47936142037E+02  0.82054646694E+02  0.97244197348E+01  0.18032486271E+03  0.15294330000E+03 0.  0.
<mgrwt>
<rscale>  0 0.18006247E+03</rscale>
<asrwt>0</asrwt>
<pdfrwt beam="1">  1        1 0.15350322E-01 0.18006247E+03</pdfrwt>
<pdfrwt beam="2">  1       -1 0.10075789E+00 0.18006247E+03</pdfrwt>
<totfact> 0.36013877E+02</totfact>
</mgrwt>
</event>
<event>
 4    1  0.2293715E-008  0.3931441E+03  0.7818608E-02  0.1046180E+00
         -1   -1    0    0    0  501 -0.00000000000E+00  0.00000000000E+00  0.52347817407E+03  0.52347817409E+03  0.50400000000E-02 0.  1.
          1   -1    0    0  501    0  0.00000000000E+00 -0.00000000000E+00 -0.70989041720E+03  0.70989041721E+03  0.50400000000E-02 0. -1.
    8880022    1    1    2    0    0  0.13682156795E+03 -0.33533638999E+03 -0.56450639109E+03  0.68791696774E+03  0.15294330000E+03 0.  0.
    8880022    1    1    2    0    0 -0.13682156795E+03  0.33533638999E+03  0.37809414796E+03  0.54545162356E+03  0.15294330000E+03 0.  1.
<mgrwt>
<rscale>  0 0.39314411E+03</rscale>
<asrwt>0</asrwt>
<pdfrwt beam="1">  1        1 0.10921391E+00 0.39314411E+03</pdfrwt>
<pdfrwt beam="2">  1       -1 0.80535104E-01 0.39314411E+03</pdfrwt>
<totfact> 0.43940524E+01</totfact>
</mgrwt>
</event>
<event>
 4    1  0.2293715E-008  0.6564674E+03  0.7818608E-02  0.9794719E-01
         -1   -1    0    0    0  501 -0.00000000000E+00  0.00000000000E+00  0.12006801154E+04  0.12006801154E+04  0.50400000000E-02 0.  1.
          1   -1    0    0  501    0  0.00000000000E+00 -0.00000000000E+00 -0.36924916437E+03  0.36924916440E+03  0.50400000000E-02 0. -1.
    8880022    1    1    2    0    0 -0.30134599728E+03 -0.56280404226E+03  0.54699571436E+03  0.85449035372E+03  0.15294330000E+03 0.  0.
    8880022    1    1    2    0    0  0.30134599728E+03  0.56280404226E+03  0.28443523665E+03  0.71543892607E+03  0.15294330000E+03 0.  1.
<mgrwt>
<rscale>  0 0.65646740E+03</rscale>
<asrwt>0</asrwt>
<pdfrwt beam="1">  1        1 0.56807564E-01 0.65646740E+03</pdfrwt>
<pdfrwt beam="2">  1       -1 0.18472002E+00 0.65646740E+03</pdfrwt>
<totfact> 0.13372465E+01</totfact>
</mgrwt>
</event>
<event>
 4    1  0.2293715E-008  0.1958606E+04  0.7818608E-02  0.8626222E-01
         -1   -1    0    0    0  501 -0.00000000000E+00  0.00000000000E+00  0.18604686238E+04  0.18604686238E+04  0.50400000000E-02 0.  1.
          1   -1    0    0  501    0  0.00000000000E+00 -0.00000000000E+00 -0.22436767069E+04  0.22436767069E+04  0.50400000000E-02 0. -1.
    8880022    1    1    2    0    0 -0.58436295844E+03  0.18631334340E+04 -0.77566413077E+03  0.21066069299E+04  0.15294330000E+03 0.  1.
    8880022    1    1    2    0    0  0.58436295844E+03 -0.18631334340E+04  0.39245604765E+03  0.19975384008E+04  0.15294330000E+03 0.  0.
<mgrwt>
<rscale>  0 0.19586061E+04</rscale>
<asrwt>0</asrwt>
<pdfrwt beam="1">  1        1 0.34518104E+00 0.19586061E+04</pdfrwt>
<pdfrwt beam="2">  1       -1 0.28622594E+00 0.19586061E+04</pdfrwt>
<totfact> 0.73788596E-02</totfact>
</mgrwt>
</event>
<event>
 4    1  0.2293715E-008  0.8629785E+03  0.7818608E-02  0.9473081E-01
         -1   -1    0    0    0  501 -0.00000000000E+00  0.00000000000E+00  0.13979032682E+04  0.13979032682E+04  0.50400000000E-02 0.  1.
          1   -1    0    0  501    0  0.00000000000E+00 -0.00000000000E+00 -0.87908950578E+03  0.87908950579E+03  0.50400000000E-02 0. -1.
    8880022    1    1    2    0    0  0.71373230659E+03  0.46035461416E+03  0.97401284330E+03  0.13013196564E+04  0.15294330000E+03 0.  0.
    8880022    1    1    2    0    0 -0.71373230659E+03 -0.46035461416E+03 -0.45519908083E+03  0.97567311762E+03  0.15294330000E+03 0.  0.
<mgrwt>
<rscale>  0 0.86297846E+03</rscale>
<asrwt>0</asrwt>
<pdfrwt beam="1">  1        1 0.13524454E+00 0.86297846E+03</pdfrwt>
<pdfrwt beam="2">  1       -1 0.21506204E+00 0.86297846E+03</pdfrwt>
<totfact> 0.23036298E+00</totfact>
</mgrwt>
</event>
<event>
 4    1  0.2293715E-008  0.4483033E+03  0.7818608E-02  0.1028229E+00
          1   -1    0    0  501    0  0.00000000000E+00  0.00000000000E+00  0.95891569324E+03  0.95891569325E+03  0.50400000000E-02 0. -1.
         -1   -1    0    0    0  501 -0.00000000000E+00 -0.00000000000E+00 -0.44814848659E+03  0.44814848662E+03  0.50400000000E-02 0.  1.
    8880022    1    1    2    0    0  0.22990182274E+03  0.35317044596E+03  0.76868623260E+03  0.88986200571E+03  0.15294330000E+03 0.  0.
    8880022    1    1    2    0    0 -0.22990182274E+03 -0.35317044596E+03 -0.25791902595E+03  0.51720217416E+03  0.15294330000E+03 0.  1.
<mgrwt>
<rscale>  0 0.44830332E+03</rscale>
<asrwt>0</asrwt>
<pdfrwt beam="1">  1        1 0.14752549E+00 0.44830332E+03</pdfrwt>
<pdfrwt beam="2">  1       -1 0.68945921E-01 0.44830332E+03</pdfrwt>
<totfact> 0.37089283E+01</totfact>
</mgrwt>
</event>
<event>
 4    1  0.2293715E-008  0.5580010E+03  0.7818608E-02  0.9996588E-01
         -1   -1    0    0    0  501 -0.00000000000E+00  0.00000000000E+00  0.44863183497E+03  0.44863183500E+03  0.50400000000E-02 0.  1.
          1   -1    0    0  501    0  0.00000000000E+00 -0.00000000000E+00 -0.28694054398E+04  0.28694054398E+04  0.50400000000E-02 0. -1.
    8880022    1    1    2    0    0  0.52721561811E+03 -0.10008578768E+03 -0.26549021340E+04  0.27129081199E+04  0.15294330000E+03 0.  0.
    8880022    1    1    2    0    0 -0.52721561811E+03  0.10008578768E+03  0.23412852921E+03  0.60512915487E+03  0.15294330000E+03 0.  0.
<mgrwt>
<rscale>  0 0.55800101E+03</rscale>
<asrwt>0</asrwt>
<pdfrwt beam="1">  1        1 0.44144698E+00 0.55800101E+03</pdfrwt>
<pdfrwt beam="2">  1       -1 0.69020284E-01 0.55800101E+03</pdfrwt>
<totfact> 0.17756015E+00</totfact>
</mgrwt>
</event>
<event>
 4    1  0.4086056E-008  0.5218253E+03  0.7818608E-02  0.1008234E+00
         -1   -1    0    0    0  501 -0.00000000000E+00  0.00000000000E+00  0.17200865252E+04  0.17200865252E+04  0.50400000000E-02 0.  1.
          1   -1    0    0  501    0  0.00000000000E+00 -0.00000000000E+00 -0.10787477228E+04  0.10787477228E+04  0.50400000000E-02 0. -1.
    8880022    1    1    2    0    0 -0.17889916594E+02 -0.49858793297E+03 -0.97199314352E+03  0.11032099982E+04  0.15294330000E+03 0.  0.
    8880022    1    1    2    0    0  0.17889916594E+02  0.49858793297E+03  0.16133319459E+04  0.16956242498E+04  0.15294330000E+03 0.  0.
<mgrwt>
<rscale>  0 0.52182529E+03</rscale>
<asrwt>0</asrwt>
<pdfrwt beam="1">  1        1 0.16596119E+00 0.52182529E+03</pdfrwt>
<pdfrwt beam="2">  1       -1 0.26462869E+00 0.52182529E+03</pdfrwt>
<totfact> 0.82358364E-01</totfact>
</mgrwt>
</event>
<event>
 4    1  0.2293715E-008  0.5363516E+03  0.7818608E-02  0.1004703E+00
          1   -1    0    0  501    0  0.00000000000E+00  0.00000000000E+00  0.17294380072E+04  0.17294380072E+04  0.50400000000E-02 0. -1.
         -1   -1    0    0    0  501 -0.00000000000E+00 -0.00000000000E+00 -0.18810898140E+03  0.18810898147E+03  0.50400000000E-02 0.  1.
    8880022    1    1    2    0    0 -0.24741622211E+03 -0.45062912151E+03  0.44449755942E+03  0.69659968810E+03  0.15294330000E+03 0.  0.
    8880022    1    1    2    0    0  0.24741622211E+03  0.45062912151E+03  0.10968314663E+04  0.12209473005E+04  0.15294330000E+03 0.  0.
<mgrwt>
<rscale>  0 0.53635161E+03</rscale>
<asrwt>0</asrwt>
<pdfrwt beam="1">  1        1 0.26606740E+00 0.53635161E+03</pdfrwt>
<pdfrwt beam="2">  1       -1 0.28939842E-01 0.53635161E+03</pdfrwt>
<totfact> 0.52412103E+01</totfact>
</mgrwt>
</event>
<event>
 4    1  0.2293715E-008  0.1050340E+04  0.7818608E-02  0.9254993E-01
         -1   -1    0    0    0  501 -0.00000000000E+00  0.00000000000E+00  0.52798508012E+03  0.52798508014E+03  0.50400000000E-02 0.  1.
          1   -1    0    0  501    0  0.00000000000E+00 -0.00000000000E+00 -0.31542706303E+04  0.31542706303E+04  0.50400000000E-02 0. -1.
    8880022    1    1    2    0    0 -0.10279152634E+04 -0.15235473356E+03 -0.23828548907E+04  0.26040758124E+04  0.15294330000E+03 0.  0.
    8880022    1    1    2    0    0  0.10279152634E+04  0.15235473356E+03 -0.24343065954E+03  0.10781798981E+04  0.15294330000E+03 0. -1.
<mgrwt>
<rscale>  0 0.10503397E+04</rscale>
<asrwt>0</asrwt>
<pdfrwt beam="1">  1        1 0.48527239E+00 0.10503397E+04</pdfrwt>
<pdfrwt beam="2">  1       -1 0.81228476E-01 0.10503397E+04</pdfrwt>
<totfact> 0.71027527E-01</totfact>
</mgrwt>
</event>
<event>
 4    1  0.2293715E-008  0.6354399E+03  0.7818608E-02  0.9834490E-01
          1   -1    0    0  501    0  0.00000000000E+00  0.00000000000E+00  0.15346021539E+04  0.15346021539E+04  0.50400000000E-02 0. -1.
         -1   -1    0    0    0  501 -0.00000000000E+00 -0.00000000000E+00 -0.56617311922E+03  0.56617311924E+03  0.50400000000E-02 0.  1.
    8880022    1    1    2    0    0  0.59075257160E+03 -0.17721063933E+03 -0.28426918734E+03  0.69612702535E+03  0.15294330000E+03 0.  0.
    8880022    1    1    2    0    0 -0.59075257160E+03  0.17721063933E+03  0.12526982220E+04  0.14046482477E+04  0.15294330000E+03 0.  0.
<mgrwt>
<rscale>  0 0.63543990E+03</rscale>
<asrwt>0</asrwt>
<pdfrwt beam="1">  1        1 0.23609264E+00 0.63543990E+03</pdfrwt>
<pdfrwt beam="2">  1       -1 0.87103557E-01 0.63543990E+03</pdfrwt>
<totfact> 0.85184151E+00</totfact>
</mgrwt>
</event>
<event>
 4    1  0.2293715E-008  0.2853644E+03  0.7818608E-02  0.1092795E+00
          1   -1    0    0  501    0  0.00000000000E+00  0.00000000000E+00  0.35833435316E+04  0.35833435316E+04  0.50400000000E-02 0. -1.
         -1   -1    0    0    0  501 -0.00000000000E+00 -0.00000000000E+00 -0.35676090269E+02  0.35676090625E+02  0.50400000000E-02 0.  1.
    8880022    1    1    2    0    0 -0.21890717644E+03 -0.10060236983E+03  0.28640662069E+04  0.28782473971E+04  0.15294330000E+03 0.  0.
    8880022    1    1    2    0    0  0.21890717644E+03  0.10060236983E+03  0.68360123447E+03  0.74077222511E+03  0.15294330000E+03 0.  0.
<mgrwt>
<rscale>  0 0.28536440E+03</rscale>
<asrwt>0</asrwt>
<pdfrwt beam="1">  1        1 0.55128367E+00 0.28536440E+03</pdfrwt>
<pdfrwt beam="2">  1       -1 0.54886288E-02 0.28536440E+03</pdfrwt>
<totfact> 0.41209709E+01</totfact>
</mgrwt>
</event>
<event>
 4    1  0.2293715E-008  0.6311470E+03  0.7818608E-02  0.9842813E-01
         -1   -1    0    0    0  501 -0.00000000000E+00  0.00000000000E+00  0.32454326154E+03  0.32454326158E+03  0.50400000000E-02 0.  1.
          1   -1    0    0  501    0  0.00000000000E+00 -0.00000000000E+00 -0.27758738023E+04  0.27758738024E+04  0.50400000000E-02 0. -1.
    8880022    1    1    2    0    0  0.11252988778E+03 -0.60190685672E+03 -0.23834859181E+04  0.24656341202E+04  0.15294330000E+03 0.  0.
    8880022    1    1    2    0    0 -0.11252988778E+03  0.60190685672E+03 -0.67844622699E+02  0.63478294374E+03  0.15294330000E+03 0.  0.
<mgrwt>
<rscale>  0 0.63114697E+03</rscale>
<asrwt>0</asrwt>
<pdfrwt beam="1">  1        1 0.42705749E+00 0.63114697E+03</pdfrwt>
<pdfrwt beam="2">  1       -1 0.49929734E-01 0.63114697E+03</pdfrwt>
<totfact> 0.38128857E+00</totfact>
</mgrwt>
</event>
<event>
 4    1  0.2293715E-008  0.1190052E+04  0.7818608E-02  0.9121609E-01
          1   -1    0    0  501    0  0.00000000000E+00  0.00000000000E+00  0.19156061951E+04  0.19156061951E+04  0.50400000000E-02 0. -1.
         -1   -1    0    0    0  501 -0.00000000000E+00 -0.00000000000E+00 -0.96937903276E+03  0.96937903277E+03  0.50400000000E-02 0.  1.
    8880022    1    1    2    0    0  0.70954697250E+03  0.94306700514E+03  0.11758578134E+04  0.16729810318E+04  0.15294330000E+03 0.  0.
    8880022    1    1    2    0    0 -0.70954697250E+03 -0.94306700514E+03 -0.22963065109E+03  0.12120041961E+04  0.15294330000E+03 0.  0.
<mgrwt>
<rscale>  0 0.11900521E+04</rscale>
<asrwt>0</asrwt>
<pdfrwt beam="1">  1        1 0.29470864E+00 0.11900521E+04</pdfrwt>
<pdfrwt beam="2">  1       -1 0.14913524E+00 0.11900521E+04</pdfrwt>
<totfact> 0.11852826E+00</totfact>
</mgrwt>
</event>
<event>
 4    1  0.2293715E-008  0.5947210E+03  0.7818608E-02  0.9916419E-01
         -1   -1    0    0    0  501 -0.00000000000E+00  0.00000000000E+00  0.41945565452E+03  0.41945565455E+03  0.50400000000E-02 0.  1.
          1   -1    0    0  501    0  0.00000000000E+00 -0.00000000000E+00 -0.20808745227E+04  0.20808745227E+04  0.50400000000E-02 0. -1.
    8880022    1    1    2    0    0  0.33151026788E+03 -0.46947028436E+03 -0.17948587081E+04  0.18908227946E+04  0.15294330000E+03 0.  0.
    8880022    1    1    2    0    0 -0.33151026788E+03  0.46947028436E+03  0.13343983992E+03  0.60950738264E+03  0.15294330000E+03 0.  0.
<mgrwt>
<rscale>  0 0.59472099E+03</rscale>
<asrwt>0</asrwt>
<pdfrwt beam="1">  1        1 0.32013454E+00 0.59472099E+03</pdfrwt>
<pdfrwt beam="2">  1       -1 0.64531640E-01 0.59472099E+03</pdfrwt>
<totfact> 0.69121612E+00</totfact>
</mgrwt>
</event>
<event>
 4    1  0.2293715E-008  0.5596124E+03  0.7818608E-02  0.9992932E-01
         -1   -1    0    0    0  501 -0.00000000000E+00  0.00000000000E+00  0.23317590314E+03  0.23317590319E+03  0.50400000000E-02 0.  1.
          1   -1    0    0  501    0  0.00000000000E+00 -0.00000000000E+00 -0.20922613508E+04  0.20922613508E+04  0.50400000000E-02 0. -1.
    8880022    1    1    2    0    0 -0.52660057520E+03 -0.11165199698E+03 -0.23376588395E+03  0.60647545354E+03  0.15294330000E+03 0.  0.
    8880022    1    1    2    0    0  0.52660057520E+03  0.11165199698E+03 -0.16253195637E+04  0.17189618004E+04  0.15294330000E+03 0.  0.
<mgrwt>
<rscale>  0 0.55961235E+03</rscale>
<asrwt>0</asrwt>
<pdfrwt beam="1">  1        1 0.32188635E+00 0.55961235E+03</pdfrwt>
<pdfrwt beam="2">  1       -1 0.35873217E-01 0.55961235E+03</pdfrwt>
<totfact> 0.20588470E+01</totfact>
</mgrwt>
</event>
<event>
 4    1  0.2293715E-008  0.2705238E+03  0.7818608E-02  0.1100980E+00
         -1   -1    0    0    0  501 -0.00000000000E+00  0.00000000000E+00  0.27832507400E+03  0.27832507405E+03  0.50400000000E-02 0.  1.
          1   -1    0    0  501    0  0.00000000000E+00 -0.00000000000E+00 -0.86704735831E+03  0.86704735832E+03  0.50400000000E-02 0. -1.
    8880022    1    1    2    0    0 -0.13134482890E+03  0.18038850527E+03 -0.77238761788E+03  0.81839218116E+03  0.15294330000E+03 0.  0.
    8880022    1    1    2    0    0  0.13134482890E+03 -0.18038850527E+03  0.18366533357E+03  0.32698025122E+03  0.15294330000E+03 0.  0.
<mgrwt>
<rscale>  0 0.27052381E+03</rscale>
<asrwt>0</asrwt>
<pdfrwt beam="1">  1        1 0.13339190E+00 0.27052381E+03</pdfrwt>
<pdfrwt beam="2">  1       -1 0.42819243E-01 0.27052381E+03</pdfrwt>
<totfact> 0.11225447E+02</totfact>
</mgrwt>
</event>
<event>
 4    1  0.2293715E-008  0.3734735E+03  0.7818608E-02  0.1053373E+00
         -1   -1    0    0    0  501 -0.00000000000E+00  0.00000000000E+00  0.10264709049E+04  0.10264709049E+04  0.50400000000E-02 0.  1.
          1   -1    0    0  501    0  0.00000000000E+00 -0.00000000000E+00 -0.30255077100E+03  0.30255077105E+03  0.50400000000E-02 0. -1.
    8880022    1    1    2    0    0  0.33686043589E+03 -0.51145397226E+02  0.85516289905E+03  0.93315917284E+03  0.15294330000E+03 0.  0.
    8880022    1    1    2    0    0 -0.33686043589E+03  0.51145397226E+02 -0.13124276518E+03  0.39586250309E+03  0.15294330000E+03 0.  0.
<mgrwt>
<rscale>  0 0.37347350E+03</rscale>
<asrwt>0</asrwt>
<pdfrwt beam="1">  1        1 0.46546273E-01 0.37347350E+03</pdfrwt>
<pdfrwt beam="2">  1       -1 0.15791860E+00 0.37347350E+03</pdfrwt>
<totfact> 0.28261286E+01</totfact>
</mgrwt>
</event>
<event>
 4    1  0.2293715E-008  0.6921400E+03  0.7818608E-02  0.9730769E-01
          1   -1    0    0  501    0  0.00000000000E+00  0.00000000000E+00  0.80291677954E+03  0.80291677956E+03  0.50400000000E-02 0. -1.
         -1   -1    0    0    0  501 -0.00000000000E+00 -0.00000000000E+00 -0.11245825674E+04  0.11245825674E+04  0.50400000000E-02 0.  1.
    8880022    1    1    2    0    0  0.13059082440E+03 -0.66227802531E+03 -0.82115992617E+03  0.10739466577E+04  0.15294330000E+03 0.  0.
    8880022    1    1    2    0    0 -0.13059082440E+03  0.66227802531E+03  0.49949413827E+03  0.85355268930E+03  0.15294330000E+03 0.  0.
<mgrwt>
<rscale>  0 0.69214001E+03</rscale>
<asrwt>0</asrwt>
<pdfrwt beam="1">  1        1 0.12352566E+00 0.69214001E+03</pdfrwt>
<pdfrwt beam="2">  1       -1 0.17301270E+00 0.69214001E+03</pdfrwt>
<totfact> 0.53702981E+00</totfact>
</mgrwt>
</event>
<event>
 4    1  0.2293715E-008  0.2918121E+03  0.7818608E-02  0.1089407E+00
          1   -1    0    0  501    0  0.00000000000E+00  0.00000000000E+00  0.40236929013E+03  0.40236929016E+03  0.50400000000E-02 0. -1.
         -1   -1    0    0    0  501 -0.00000000000E+00 -0.00000000000E+00 -0.58556792783E+03  0.58556792785E+03  0.50400000000E-02 0.  1.
    8880022    1    1    2    0    0 -0.13463400432E+03 -0.20889304764E+03  0.30313894489E+03  0.42077011942E+03  0.15294330000E+03 0.  0.
    8880022    1    1    2    0    0  0.13463400432E+03  0.20889304764E+03 -0.48633758259E+03  0.56716709860E+03  0.15294330000E+03 0.  1.
<mgrwt>
<rscale>  0 0.29181205E+03</rscale>
<asrwt>0</asrwt>
<pdfrwt beam="1">  1        1 0.61902967E-01 0.29181205E+03</pdfrwt>
<pdfrwt beam="2">  1       -1 0.90087374E-01 0.29181205E+03</pdfrwt>
<totfact> 0.76864786E+01</totfact>
</mgrwt>
</event>
<event>
 4    1  0.2293715E-008  0.1050856E+04  0.7818608E-02  0.9254461E-01
          1   -1    0    0  501    0  0.00000000000E+00  0.00000000000E+00  0.25664181886E+04  0.25664181886E+04  0.50400000000E-02 0. -1.
         -1   -1    0    0    0  501 -0.00000000000E+00 -0.00000000000E+00 -0.56153934678E+03  0.56153934681E+03  0.50400000000E-02 0.  1.
    8880022    1    1    2    0    0 -0.17843012924E+03  0.10242409836E+04  0.24631564538E+03  0.10793377385E+04  0.15294330000E+03 0.  0.
    8880022    1    1    2    0    0  0.17843012924E+03 -0.10242409836E+04  0.17585631965E+04  0.20486197970E+04  0.15294330000E+03 0.  0.
<mgrwt>
<rscale>  0 0.10508561E+04</rscale>
<asrwt>0</asrwt>
<pdfrwt beam="1">  1        1 0.39483356E+00 0.10508561E+04</pdfrwt>
<pdfrwt beam="2">  1       -1 0.86390670E-01 0.10508561E+04</pdfrwt>
<totfact> 0.16291045E+00</totfact>
</mgrwt>
</event>
<event>
 4    1  0.2293715E-008  0.8784836E+03  0.7818608E-02  0.9452885E-01
         -1   -1    0    0    0  501 -0.00000000000E+00  0.00000000000E+00  0.76663505561E+03  0.76663505563E+03  0.50400000000E-02 0.  1.
          1   -1    0    0  501    0  0.00000000000E+00 -0.00000000000E+00 -0.11137297423E+04  0.11137297423E+04  0.50400000000E-02 0. -1.
    8880022    1    1    2    0    0  0.61454872378E+03 -0.60882816247E+03  0.11797709556E+03  0.88637018983E+03  0.15294330000E+03 0.  0.
    8880022    1    1    2    0    0 -0.61454872378E+03  0.60882816247E+03 -0.46507178228E+03  0.99399460814E+03  0.15294330000E+03 0.  0.
<mgrwt>
<rscale>  0 0.87848365E+03</rscale>
<asrwt>0</asrwt>
<pdfrwt beam="1">  1        1 0.17134304E+00 0.87848365E+03</pdfrwt>
<pdfrwt beam="2">  1       -1 0.11794385E+00 0.87848365E+03</pdfrwt>
<totfact> 0.81311184E+00</totfact>
</mgrwt>
</event>
<event>
 4    1  0.2293715E-008  0.9274468E+03  0.7818608E-02  0.9391907E-01
          1   -1    0    0  501    0  0.00000000000E+00  0.00000000000E+00  0.16327838382E+04  0.16327838382E+04  0.50400000000E-02 0. -1.
         -1   -1    0    0    0  501 -0.00000000000E+00 -0.00000000000E+00 -0.84763418854E+03  0.84763418856E+03  0.50400000000E-02 0.  1.
    8880022    1    1    2    0    0  0.72921300525E+02  0.91183794416E+03  0.11555809716E+04  0.14817304031E+04  0.15294330000E+03 0.  0.
    8880022    1    1    2    0    0 -0.72921300525E+02 -0.91183794416E+03 -0.37043132191E+03  0.99868762371E+03  0.15294330000E+03 0.  0.
<mgrwt>
<rscale>  0 0.92744682E+03</rscale>
<asrwt>0</asrwt>
<pdfrwt beam="1">  1        1 0.25119751E+00 0.92744682E+03</pdfrwt>
<pdfrwt beam="2">  1       -1 0.13040526E+00 0.92744682E+03</pdfrwt>
<totfact> 0.27112350E+00</totfact>
</mgrwt>
</event>
<event>
 4    1  0.2293715E-008  0.8043302E+03  0.7818608E-02  0.9553770E-01
          1   -1    0    0  501    0  0.00000000000E+00  0.00000000000E+00  0.15657082126E+04  0.15657082126E+04  0.50400000000E-02 0. -1.
         -1   -1    0    0    0  501 -0.00000000000E+00 -0.00000000000E+00 -0.66437458191E+03  0.66437458193E+03  0.50400000000E-02 0.  1.
    8880022    1    1    2    0    0  0.72823702433E+03 -0.30532970385E+03  0.11362723466E+04  0.13921429131E+04  0.15294330000E+03 0.  0.
    8880022    1    1    2    0    0 -0.72823702433E+03  0.30532970385E+03 -0.23493871597E+03  0.83793988146E+03  0.15294330000E+03 0.  0.
<mgrwt>
<rscale>  0 0.80433018E+03</rscale>
<asrwt>0</asrwt>
<pdfrwt beam="1">  1        1 0.24087818E+00 0.80433018E+03</pdfrwt>
<pdfrwt beam="2">  1       -1 0.10221148E+00 0.80433018E+03</pdfrwt>
<totfact> 0.55179572E+00</totfact>
</mgrwt>
</event>
<event>
 4    1  0.2293715E-008  0.7147875E+03  0.7818608E-02  0.9692273E-01
          1   -1    0    0  501    0  0.00000000000E+00  0.00000000000E+00  0.23704963836E+04  0.23704963836E+04  0.50400000000E-02 0. -1.
         -1   -1    0    0    0  501 -0.00000000000E+00 -0.00000000000E+00 -0.44883489069E+03  0.44883489072E+03  0.50400000000E-02 0.  1.
    8880022    1    1    2    0    0 -0.67840840117E+03  0.16520160174E+03  0.19771532716E+04  0.21023929795E+04  0.15294330000E+03 0.  0.
    8880022    1    1    2    0    0  0.67840840117E+03 -0.16520160174E+03 -0.55491778691E+02  0.71693829478E+03  0.15294330000E+03 0.  0.
<mgrwt>
<rscale>  0 0.71478751E+03</rscale>
<asrwt>0</asrwt>
<pdfrwt beam="1">  1        1 0.36469175E+00 0.71478751E+03</pdfrwt>
<pdfrwt beam="2">  1       -1 0.69051522E-01 0.71478751E+03</pdfrwt>
<totfact> 0.37629253E+00</totfact>
</mgrwt>
</event>
<event>
 4    1  0.2293715E-008  0.7030352E+03  0.7818608E-02  0.9712056E-01
         -1   -1    0    0    0  501 -0.00000000000E+00  0.00000000000E+00  0.50442039902E+03  0.50442039904E+03  0.50400000000E-02 0.  1.
          1   -1    0    0  501    0  0.00000000000E+00 -0.00000000000E+00 -0.18577969639E+04  0.18577969639E+04  0.50400000000E-02 0. -1.
    8880022    1    1    2    0    0 -0.31625043728E+03 -0.60897661649E+03  0.13525147445E+03  0.71592700247E+03  0.15294330000E+03 0.  0.
    8880022    1    1    2    0    0  0.31625043728E+03  0.60897661649E+03 -0.14886280393E+04  0.16462903605E+04  0.15294330000E+03 0.  0.
<mgrwt>
<rscale>  0 0.70303521E+03</rscale>
<asrwt>0</asrwt>
<pdfrwt beam="1">  1        1 0.28581491E+00 0.70303521E+03</pdfrwt>
<pdfrwt beam="2">  1       -1 0.77603139E-01 0.70303521E+03</pdfrwt>
<totfact> 0.65310545E+00</totfact>
</mgrwt>
</event>
<event>
 4    1  0.2293715E-008  0.3012288E+03  0.7818608E-02  0.1084628E+00
         -1   -1    0    0    0  501 -0.00000000000E+00  0.00000000000E+00  0.82865561027E+03  0.82865561029E+03  0.50400000000E-02 0.  1.
          1   -1    0    0  501    0  0.00000000000E+00 -0.00000000000E+00 -0.18163163856E+03  0.18163163863E+03  0.50400000000E-02 0. -1.
    8880022    1    1    2    0    0  0.18358131409E+03 -0.18342587123E+03  0.64184255455E+03  0.70901386938E+03  0.15294330000E+03 0.  0.
    8880022    1    1    2    0    0 -0.18358131409E+03  0.18342587123E+03  0.51814171613E+01  0.30127337954E+03  0.15294330000E+03 0.  0.
<mgrwt>
<rscale>  0 0.30122882E+03</rscale>
<asrwt>0</asrwt>
<pdfrwt beam="1">  1        1 0.27943330E-01 0.30122882E+03</pdfrwt>
<pdfrwt beam="2">  1       -1 0.12748547E+00 0.30122882E+03</pdfrwt>
<totfact> 0.95019369E+01</totfact>
</mgrwt>
</event>
<event>
 4    1  0.2293715E-008  0.4061103E+03  0.7818608E-02  0.1041684E+00
         -1   -1    0    0    0  501 -0.00000000000E+00  0.00000000000E+00  0.32153085914E+03  0.32153085918E+03  0.50400000000E-02 0.  1.
          1   -1    0    0  501    0  0.00000000000E+00 -0.00000000000E+00 -0.14767300074E+04  0.14767300074E+04  0.50400000000E-02 0. -1.
    8880022    1    1    2    0    0  0.22745203147E+03 -0.29966561139E+03  0.14878011848E+03  0.43250558602E+03  0.15294330000E+03 0.  0.
    8880022    1    1    2    0    0 -0.22745203147E+03  0.29966561139E+03 -0.13039792667E+04  0.13657552805E+04  0.15294330000E+03 0.  0.
<mgrwt>
<rscale>  0 0.40611028E+03</rscale>
<asrwt>0</asrwt>
<pdfrwt beam="1">  1        1 0.22718923E+00 0.40611028E+03</pdfrwt>
<pdfrwt beam="2">  1       -1 0.49466287E-01 0.40611028E+03</pdfrwt>
<totfact> 0.30388541E+01</totfact>
</mgrwt>
</event>
<event>
 4    1  0.2293715E-008  0.7267911E+03  0.7818608E-02  0.9672482E-01
          1   -1    0    0  501    0  0.00000000000E+00  0.00000000000E+00  0.17895817920E+04  0.17895817920E+04  0.50400000000E-02 0. -1.
         -1   -1    0    0    0  501 -0.00000000000E+00 -0.00000000000E+00 -0.35593693982E+03  0.35593693986E+03  0.50400000000E-02 0.  1.
    8880022    1    1    2    0    0  0.69847257597E+03  0.13026809119E+03  0.11600843511E+04  0.13689488923E+04  0.15294330000E+03 0.  0.
    8880022    1    1    2    0    0 -0.69847257597E+03 -0.13026809119E+03  0.27356050101E+03  0.77656983954E+03  0.15294330000E+03 0.  0.
<mgrwt>
<rscale>  0 0.72679114E+03</rscale>
<asrwt>0</asrwt>
<pdfrwt beam="1">  1        1 0.27532028E+00 0.72679114E+03</pdfrwt>
<pdfrwt beam="2">  1       -1 0.54759528E-01 0.72679114E+03</pdfrwt>
<totfact> 0.14566704E+01</totfact>
</mgrwt>
</event>
<event>
 4    1  0.2293715E-008  0.2276162E+03  0.7818608E-02  0.1128329E+00
          1   -1    0    0  501    0  0.00000000000E+00  0.00000000000E+00  0.51266499758E+03  0.51266499761E+03  0.50400000000E-02 0. -1.
         -1   -1    0    0    0  501 -0.00000000000E+00 -0.00000000000E+00 -0.19385057691E+03  0.19385057698E+03  0.50400000000E-02 0.  1.
    8880022    1    1    2    0    0  0.19991874024E+02 -0.16738521670E+03 -0.84999834564E+02  0.24296936163E+03  0.15294330000E+03 0.  0.
    8880022    1    1    2    0    0 -0.19991874024E+02  0.16738521670E+03  0.40381425523E+03  0.46354621295E+03  0.15294330000E+03 0.  0.
<mgrwt>
<rscale>  0 0.22761621E+03</rscale>
<asrwt>0</asrwt>
<pdfrwt beam="1">  1        1 0.78871537E-01 0.22761621E+03</pdfrwt>
<pdfrwt beam="2">  1       -1 0.29823166E-01 0.22761621E+03</pdfrwt>
<totfact> 0.45458578E+02</totfact>
</mgrwt>
</event>
<event>
 4    1  0.2293715E-008  0.5894903E+03  0.7818608E-02  0.9927453E-01
         -1   -1    0    0    0  501 -0.00000000000E+00  0.00000000000E+00  0.71550699310E+03  0.71550699312E+03  0.50400000000E-02 0.  1.
          1   -1    0    0  501    0  0.00000000000E+00 -0.00000000000E+00 -0.12591884712E+04  0.12591884712E+04  0.50400000000E-02 0. -1.
    8880022    1    1    2    0    0 -0.42702399632E+03  0.37650720698E+03  0.50201619801E+03  0.77428617863E+03  0.15294330000E+03 0.  0.
    8880022    1    1    2    0    0  0.42702399632E+03 -0.37650720698E+03 -0.10456976761E+04  0.12004092857E+04  0.15294330000E+03 0.  0.
<mgrwt>
<rscale>  0 0.58949031E+03</rscale>
<asrwt>0</asrwt>
<pdfrwt beam="1">  1        1 0.19372130E+00 0.58949031E+03</pdfrwt>
<pdfrwt beam="2">  1       -1 0.11007800E+00 0.58949031E+03</pdfrwt>
<totfact> 0.78563330E+00</totfact>
</mgrwt>
</event>
<event>
 4    1  0.2293715E-008  0.5013788E+03  0.7818608E-02  0.1013420E+00
         -1   -1    0    0    0  501 -0.00000000000E+00  0.00000000000E+00  0.18845932858E+04  0.18845932858E+04  0.50400000000E-02 0.  1.
          1   -1    0    0  501    0  0.00000000000E+00 -0.00000000000E+00 -0.24512394379E+03  0.24512394384E+03  0.50400000000E-02 0. -1.
    8880022    1    1    2    0    0 -0.34967838416E+03 -0.32513704778E+03  0.10078749904E+03  0.51140868703E+03  0.15294330000E+03 0.  0.
    8880022    1    1    2    0    0  0.34967838416E+03  0.32513704778E+03  0.15386818429E+04  0.16183085426E+04  0.15294330000E+03 0.  0.
<mgrwt>
<rscale>  0 0.50137882E+03</rscale>
<asrwt>0</asrwt>
<pdfrwt beam="1">  1        1 0.37711377E-01 0.50137882E+03</pdfrwt>
<pdfrwt beam="2">  1       -1 0.28993742E+00 0.50137882E+03</pdfrwt>
<totfact> 0.47734935E+00</totfact>
</mgrwt>
</event>
<event>
 4    1  0.2293715E-008  0.4834625E+03  0.7818608E-02  0.1018188E+00
          1   -1    0    0  501    0  0.00000000000E+00  0.00000000000E+00  0.18087686800E+04  0.18087686800E+04  0.50400000000E-02 0. -1.
         -1   -1    0    0    0  501 -0.00000000000E+00 -0.00000000000E+00 -0.19195641418E+03  0.19195641424E+03  0.50400000000E-02 0.  1.
    8880022    1    1    2    0    0  0.10172338023E+03  0.44720984200E+03  0.13802834106E+04  0.14625040976E+04  0.15294330000E+03 0.  0.
    8880022    1    1    2    0    0 -0.10172338023E+03 -0.44720984200E+03  0.23652885521E+03  0.53822099665E+03  0.15294330000E+03 0.  0.
<mgrwt>
<rscale>  0 0.48346245E+03</rscale>
<asrwt>0</asrwt>
<pdfrwt beam="1">  1        1 0.27827211E+00 0.48346245E+03</pdfrwt>
<pdfrwt beam="2">  1       -1 0.29531756E-01 0.48346245E+03</pdfrwt>
<totfact> 0.45241569E+01</totfact>
</mgrwt>
</event>
<event>
 4    1  0.2293715E-008  0.4853885E+03  0.7818608E-02  0.1017665E+00
          1   -1    0    0  501    0  0.00000000000E+00  0.00000000000E+00  0.23860115119E+04  0.23860115119E+04  0.50400000000E-02 0. -1.
         -1   -1    0    0    0  501 -0.00000000000E+00 -0.00000000000E+00 -0.22613010698E+03  0.22613010704E+03  0.50400000000E-02 0.  1.
    8880022    1    1    2    0    0 -0.38807967263E+03  0.24820248340E+03  0.20602209453E+04  0.21166275775E+04  0.15294330000E+03 0.  0.
    8880022    1    1    2    0    0  0.38807967263E+03 -0.24820248340E+03  0.99660459583E+02  0.49551404147E+03  0.15294330000E+03 0.  0.
<mgrwt>
<rscale>  0 0.48538846E+03</rscale>
<asrwt>0</asrwt>
<pdfrwt beam="1">  1        1 0.36707871E+00 0.48538846E+03</pdfrwt>
<pdfrwt beam="2">  1       -1 0.34789246E-01 0.48538846E+03</pdfrwt>
<totfact> 0.14073036E+01</totfact>
</mgrwt>
</event>
<event>
 4    1  0.2293715E-008  0.8103163E+03  0.7818608E-02  0.9545204E-01
         -1   -1    0    0    0  501 -0.00000000000E+00  0.00000000000E+00  0.80831294791E+03  0.80831294793E+03  0.50400000000E-02 0.  1.
          1   -1    0    0  501    0  0.00000000000E+00 -0.00000000000E+00 -0.17223090697E+04  0.17223090697E+04  0.50400000000E-02 0. -1.
    8880022    1    1    2    0    0  0.79095606152E+03  0.87231766707E+02 -0.13767246092E+04  0.15974927777E+04  0.15294330000E+03 0.  0.
    8880022    1    1    2    0    0 -0.79095606152E+03 -0.87231766707E+02  0.46272848736E+03  0.93312923993E+03  0.15294330000E+03 0.  0.
<mgrwt>
<rscale>  0 0.81031631E+03</rscale>
<asrwt>0</asrwt>
<pdfrwt beam="1">  1        1 0.26497063E+00 0.81031631E+03</pdfrwt>
<pdfrwt beam="2">  1       -1 0.12435584E+00 0.81031631E+03</pdfrwt>
<totfact> 0.27056425E+00</totfact>
</mgrwt>
</event>
<event>
 4    1  0.2293715E-008  0.6702972E+03  0.7818608E-02  0.9769421E-01
         -1   -1    0    0    0  501 -0.00000000000E+00  0.00000000000E+00  0.53995296123E+03  0.53995296125E+03  0.50400000000E-02 0.  1.
          1   -1    0    0  501    0  0.00000000000E+00 -0.00000000000E+00 -0.12938646099E+04  0.12938646100E+04  0.50400000000E-02 0. -1.
    8880022    1    1    2    0    0  0.14420020443E+02  0.65245590490E+03 -0.92471422229E+03  0.11421009985E+04  0.15294330000E+03 0.  0.
    8880022    1    1    2    0    0 -0.14420020443E+02 -0.65245590490E+03  0.17080257357E+03  0.69171657272E+03  0.15294330000E+03 0.  0.
<mgrwt>
<rscale>  0 0.67029717E+03</rscale>
<asrwt>0</asrwt>
<pdfrwt beam="1">  1        1 0.19905609E+00 0.67029717E+03</pdfrwt>
<pdfrwt beam="2">  1       -1 0.83069687E-01 0.67029717E+03</pdfrwt>
<totfact> 0.13756501E+01</totfact>
</mgrwt>
</event>
<event>
 4    1  0.2293715E-008  0.8863336E+03  0.7818608E-02  0.9442828E-01
          1   -1    0    0  501    0  0.00000000000E+00  0.00000000000E+00  0.16554355560E+04  0.16554355560E+04  0.50400000000E-02 0. -1.
         -1   -1    0    0    0  501 -0.00000000000E+00 -0.00000000000E+00 -0.91397631969E+03  0.91397631970E+03  0.50400000000E-02 0.  1.
    8880022    1    1    2    0    0 -0.45565984540E+03 -0.74469437526E+03 -0.52006830890E+03  0.10276469755E+04  0.15294330000E+03 0.  0.
    8880022    1    1    2    0    0  0.45565984540E+03  0.74469437526E+03  0.12615275452E+04  0.15417649002E+04  0.15294330000E+03 0.  0.
<mgrwt>
<rscale>  0 0.88633361E+03</rscale>
<asrwt>0</asrwt>
<pdfrwt beam="1">  1        1 0.25468239E+00 0.88633361E+03</pdfrwt>
<pdfrwt beam="2">  1       -1 0.14061174E+00 0.88633361E+03</pdfrwt>
<totfact> 0.21694823E+00</totfact>
</mgrwt>
</event>
<event>
 4    1  0.2293715E-008  0.1670670E+03  0.7818608E-02  0.1180941E+00
         -1   -1    0    0    0  501 -0.00000000000E+00  0.00000000000E+00  0.82687846367E+02  0.82687846520E+02  0.50400000000E-02 0.  1.
          1   -1    0    0  501    0  0.00000000000E+00 -0.00000000000E+00 -0.68275004281E+03  0.68275004282E+03  0.50400000000E-02 0. -1.
    8880022    1    1    2    0    0 -0.62946641144E+02 -0.23610406794E+02 -0.27896511493E+02  0.16938004401E+03  0.15294330000E+03 0.  0.
    8880022    1    1    2    0    0  0.62946641144E+02  0.23610406794E+02 -0.57216568495E+03  0.59605784534E+03  0.15294330000E+03 0. -1.
<mgrwt>
<rscale>  0 0.16706700E+03</rscale>
<asrwt>0</asrwt>
<pdfrwt beam="1">  1        1 0.10503846E+00 0.16706700E+03</pdfrwt>
<pdfrwt beam="2">  1       -1 0.12721208E-01 0.16706700E+03</pdfrwt>
<totfact> 0.12195458E+03</totfact>
</mgrwt>
</event>
<event>
 4    1  0.2293715E-008  0.2278639E+03  0.7818608E-02  0.1128152E+00
         -1   -1    0    0    0  501 -0.00000000000E+00  0.00000000000E+00  0.38076388916E+03  0.38076388920E+03  0.50400000000E-02 0.  1.
          1   -1    0    0  501    0  0.00000000000E+00 -0.00000000000E+00 -0.48015095273E+03  0.48015095276E+03  0.50400000000E-02 0. -1.
    8880022    1    1    2    0    0  0.16890411364E+03 -0.13030756673E+01 -0.41393290240E+03  0.47250650611E+03  0.15294330000E+03 0.  0.
    8880022    1    1    2    0    0 -0.16890411364E+03  0.13030756673E+01  0.31454583883E+03  0.38840833584E+03  0.15294330000E+03 0.  1.
<mgrwt>
<rscale>  0 0.22786389E+03</rscale>
<asrwt>0</asrwt>
<pdfrwt beam="1">  1        1 0.73869377E-01 0.22786389E+03</pdfrwt>
<pdfrwt beam="2">  1       -1 0.58579060E-01 0.22786389E+03</pdfrwt>
<totfact> 0.14771627E+02</totfact>
</mgrwt>
</event>
<event>
 4    1  0.2293715E-008  0.6897350E+03  0.7818608E-02  0.9734950E-01
          1   -1    0    0  501    0  0.00000000000E+00  0.00000000000E+00  0.14581712839E+04  0.14581712839E+04  0.50400000000E-02 0. -1.
         -1   -1    0    0    0  501 -0.00000000000E+00 -0.00000000000E+00 -0.34250275953E+03  0.34250275957E+03  0.50400000000E-02 0.  1.
    8880022    1    1    2    0    0 -0.64415536759E+03 -0.19340781105E+03  0.36173239456E+03  0.77883547510E+03  0.15294330000E+03 0.  0.
    8880022    1    1    2    0    0  0.64415536759E+03  0.19340781105E+03  0.75393612977E+03  0.10218385684E+04  0.15294330000E+03 0.  0.
<mgrwt>
<rscale>  0 0.68973500E+03</rscale>
<asrwt>0</asrwt>
<pdfrwt beam="1">  1        1 0.22433404E+00 0.68973500E+03</pdfrwt>
<pdfrwt beam="2">  1       -1 0.52692733E-01 0.68973500E+03</pdfrwt>
<totfact> 0.26419310E+01</totfact>
</mgrwt>
</event>
<event>
 4    1  0.2293715E-008  0.4221212E+03  0.7818608E-02  0.1036378E+00
          1   -1    0    0  501    0  0.00000000000E+00  0.00000000000E+00  0.44343284847E+03  0.44343284850E+03  0.50400000000E-02 0. -1.
         -1   -1    0    0    0  501 -0.00000000000E+00 -0.00000000000E+00 -0.75275960144E+03  0.75275960145E+03  0.50400000000E-02 0.  1.
    8880022    1    1    2    0    0  0.39341853660E+03 -0.40589653685E+01  0.25370359214E+03  0.49249546781E+03  0.15294330000E+03 0.  0.
    8880022    1    1    2    0    0 -0.39341853660E+03  0.40589653685E+01 -0.56303034510E+03  0.70369698213E+03  0.15294330000E+03 0.  1.
<mgrwt>
<rscale>  0 0.42212116E+03</rscale>
<asrwt>0</asrwt>
<pdfrwt beam="1">  1        1 0.68220438E-01 0.42212116E+03</pdfrwt>
<pdfrwt beam="2">  1       -1 0.11580917E+00 0.42212116E+03</pdfrwt>
<totfact> 0.37490423E+01</totfact>
</mgrwt>
</event>
<event>
 4    1  0.2293715E-008  0.6977527E+03  0.7818608E-02  0.9721083E-01
          1   -1    0    0  501    0  0.00000000000E+00  0.00000000000E+00  0.14409255329E+04  0.14409255329E+04  0.50400000000E-02 0. -1.
         -1   -1    0    0    0  501 -0.00000000000E+00 -0.00000000000E+00 -0.55721516496E+03  0.55721516499E+03  0.50400000000E-02 0.  1.
    8880022    1    1    2    0    0  0.11591677473E+03 -0.67084312697E+03 -0.18495994714E+03  0.72185111673E+03  0.15294330000E+03 0.  0.
    8880022    1    1    2    0    0 -0.11591677473E+03  0.67084312697E+03  0.10686703151E+04  0.12762895812E+04  0.15294330000E+03 0.  0.
<mgrwt>
<rscale>  0 0.69775272E+03</rscale>
<asrwt>0</asrwt>
<pdfrwt beam="1">  1        1 0.22168085E+00 0.69775272E+03</pdfrwt>
<pdfrwt beam="2">  1       -1 0.85725412E-01 0.69775272E+03</pdfrwt>
<totfact> 0.10110228E+01</totfact>
</mgrwt>
</event>
<event>
 4    1  0.2293715E-008  0.7534045E+03  0.7818608E-02  0.9630024E-01
         -1   -1    0    0    0  501 -0.00000000000E+00  0.00000000000E+00  0.59796697869E+03  0.59796697871E+03  0.50400000000E-02 0.  1.
          1   -1    0    0  501    0  0.00000000000E+00 -0.00000000000E+00 -0.20341424282E+04  0.20341424282E+04  0.50400000000E-02 0. -1.
    8880022    1    1    2    0    0 -0.60228867633E+03 -0.42599890270E+03  0.24303135677E+03  0.79163287459E+03  0.15294330000E+03 0.  0.
    8880022    1    1    2    0    0  0.60228867633E+03  0.42599890270E+03 -0.16792068063E+04  0.18404765323E+04  0.15294330000E+03 0. -1.
<mgrwt>
<rscale>  0 0.75340452E+03</rscale>
<asrwt>0</asrwt>
<pdfrwt beam="1">  1        1 0.31294499E+00 0.75340452E+03</pdfrwt>
<pdfrwt beam="2">  1       -1 0.91994921E-01 0.75340452E+03</pdfrwt>
<totfact> 0.34188406E+00</totfact>
</mgrwt>
</event>
<event>
 4    1  0.2293715E-008  0.2281577E+03  0.7818608E-02  0.1127943E+00
         -1   -1    0    0    0  501 -0.00000000000E+00  0.00000000000E+00  0.63946895004E+02  0.63946895203E+02  0.50400000000E-02 0.  1.
          1   -1    0    0  501    0  0.00000000000E+00 -0.00000000000E+00 -0.92428142421E+03  0.92428142422E+03  0.50400000000E-02 0. -1.
    8880022    1    1    2    0    0 -0.15128373465E+03 -0.76010051125E+02 -0.60080635780E+03  0.64266961094E+03  0.15294330000E+03 0.  0.
    8880022    1    1    2    0    0  0.15128373465E+03  0.76010051125E+02 -0.25952817141E+03  0.34555870849E+03  0.15294330000E+03 0.  0.
<mgrwt>
<rscale>  0 0.22815773E+03</rscale>
<asrwt>0</asrwt>
<pdfrwt beam="1">  1        1 0.14219713E+00 0.22815773E+03</pdfrwt>
<pdfrwt beam="2">  1       -1 0.98379845E-02 0.22815773E+03</pdfrwt>
<totfact> 0.11447351E+03</totfact>
</mgrwt>
</event>
<event>
 4    1  0.2293715E-008  0.6041085E+03  0.7818608E-02  0.9896919E-01
          1   -1    0    0  501    0  0.00000000000E+00  0.00000000000E+00  0.69825277878E+03  0.69825277880E+03  0.50400000000E-02 0. -1.
         -1   -1    0    0    0  501 -0.00000000000E+00 -0.00000000000E+00 -0.77954340993E+03  0.77954340994E+03  0.50400000000E-02 0.  1.
    8880022    1    1    2    0    0 -0.32435360726E+03  0.48615858222E+03  0.38351936124E+03  0.71556563855E+03  0.15294330000E+03 0.  0.
    8880022    1    1    2    0    0  0.32435360726E+03 -0.48615858222E+03 -0.46480999239E+03  0.76223055019E+03  0.15294330000E+03 0.  0.
<mgrwt>
<rscale>  0 0.60410850E+03</rscale>
<asrwt>0</asrwt>
<pdfrwt beam="1">  1        1 0.10742350E+00 0.60410850E+03</pdfrwt>
<pdfrwt beam="2">  1       -1 0.11992976E+00 0.60410850E+03</pdfrwt>
<totfact> 0.17754985E+01</totfact>
</mgrwt>
</event>
<event>
 4    1  0.2293715E-008  0.2610681E+03  0.7818608E-02  0.1106503E+00
         -1   -1    0    0    0  501 -0.00000000000E+00  0.00000000000E+00  0.59771887397E+03  0.59771887399E+03  0.50400000000E-02 0.  1.
          1   -1    0    0  501    0  0.00000000000E+00 -0.00000000000E+00 -0.11861107801E+04  0.11861107801E+04  0.50400000000E-02 0. -1.
    8880022    1    1    2    0    0  0.14374670184E+03 -0.15524757104E+03  0.55376324468E+03  0.61221753223E+03  0.15294330000E+03 0.  1.
    8880022    1    1    2    0    0 -0.14374670184E+03  0.15524757104E+03 -0.11421551508E+04  0.11716121219E+04  0.15294330000E+03 0.  0.
<mgrwt>
<rscale>  0 0.26106814E+03</rscale>
<asrwt>0</asrwt>
<pdfrwt beam="1">  1        1 0.18247858E+00 0.26106814E+03</pdfrwt>
<pdfrwt beam="2">  1       -1 0.91956750E-01 0.26106814E+03</pdfrwt>
<totfact> 0.14536948E+01</totfact>
</mgrwt>
</event>
<event>
 4    1  0.2293715E-008  0.2651685E+03  0.7818608E-02  0.1104077E+00
         -1   -1    0    0    0  501 -0.00000000000E+00  0.00000000000E+00  0.15967115873E+04  0.15967115873E+04  0.50400000000E-02 0.  1.
          1   -1    0    0  501    0  0.00000000000E+00 -0.00000000000E+00 -0.54683136925E+03  0.54683136927E+03  0.50400000000E-02 0. -1.
    8880022    1    1    2    0    0  0.73704902291E+01 -0.21649100794E+03  0.15526503942E+04  0.15751309724E+04  0.15294330000E+03 0.  1.
    8880022    1    1    2    0    0 -0.73704902291E+01  0.21649100794E+03 -0.50277017618E+03  0.56841198414E+03  0.15294330000E+03 0.  0.
<mgrwt>
<rscale>  0 0.26516850E+03</rscale>
<asrwt>0</asrwt>
<pdfrwt beam="1">  1        1 0.84127905E-01 0.26516850E+03</pdfrwt>
<pdfrwt beam="2">  1       -1 0.24564793E+00 0.26516850E+03</pdfrwt>
<totfact> 0.34463578E+00</totfact>
</mgrwt>
</event>
<event>
 4    1  0.2293715E-008  0.2993878E+03  0.7818608E-02  0.1085547E+00
         -1   -1    0    0    0  501 -0.00000000000E+00  0.00000000000E+00  0.25054098975E+03  0.25054098980E+03  0.50400000000E-02 0.  1.
          1   -1    0    0  501    0  0.00000000000E+00 -0.00000000000E+00 -0.55287444922E+03  0.55287444925E+03  0.50400000000E-02 0. -1.
    8880022    1    1    2    0    0 -0.25708578853E+03  0.12178072529E+02 -0.38980702685E+03  0.49151050783E+03  0.15294330000E+03 0.  0.
    8880022    1    1    2    0    0  0.25708578853E+03 -0.12178072529E+02  0.87473567380E+02  0.31190493122E+03  0.15294330000E+03 0.  0.
<mgrwt>
<rscale>  0 0.29938781E+03</rscale>
<asrwt>0</asrwt>
<pdfrwt beam="1">  1        1 0.85057607E-01 0.29938781E+03</pdfrwt>
<pdfrwt beam="2">  1       -1 0.38544768E-01 0.29938781E+03</pdfrwt>
<totfact> 0.26139689E+02</totfact>
</mgrwt>
</event>
<event>
 4    1  0.2293715E-008  0.3551012E+03  0.7818608E-02  0.1060541E+00
          1   -1    0    0  501    0  0.00000000000E+00  0.00000000000E+00  0.22536193591E+04  0.22536193591E+04  0.50400000000E-02 0. -1.
         -1   -1    0    0    0  501 -0.00000000000E+00 -0.00000000000E+00 -0.26692324391E+03  0.26692324396E+03  0.50400000000E-02 0.  1.
    8880022    1    1    2    0    0  0.14125899303E+03  0.28766493449E+03  0.21137694788E+04  0.21433894374E+04  0.15294330000E+03 0.  0.
    8880022    1    1    2    0    0 -0.14125899303E+03 -0.28766493449E+03 -0.12707336362E+03  0.37715316570E+03  0.15294330000E+03 0.  0.
<mgrwt>
<rscale>  0 0.35510121E+03</rscale>
<asrwt>0</asrwt>
<pdfrwt beam="1">  1        1 0.34671068E+00 0.35510121E+03</pdfrwt>
<pdfrwt beam="2">  1       -1 0.41065113E-01 0.35510121E+03</pdfrwt>
<totfact> 0.13319273E+01</totfact>
</mgrwt>
</event>
<event>
 4    1  0.2293715E-008  0.2320134E+03  0.7818608E-02  0.1125231E+00
         -1   -1    0    0    0  501 -0.00000000000E+00  0.00000000000E+00  0.15034744613E+04  0.15034744613E+04  0.50400000000E-02 0.  1.
          1   -1    0    0  501    0  0.00000000000E+00 -0.00000000000E+00 -0.33329466088E+03  0.33329466092E+03  0.50400000000E-02 0. -1.
    8880022    1    1    2    0    0 -0.16726045798E+03  0.49623481644E+02  0.14527450708E+04  0.14711554794E+04  0.15294330000E+03 0.  0.
    8880022    1    1    2    0    0  0.16726045798E+03 -0.49623481644E+02 -0.28256527043E+03  0.36561364280E+03  0.15294330000E+03 0. -1.
<mgrwt>
<rscale>  0 0.23201337E+03</rscale>
<asrwt>0</asrwt>
<pdfrwt beam="1">  1        1 0.51276100E-01 0.23201337E+03</pdfrwt>
<pdfrwt beam="2">  1       -1 0.23130377E+00 0.23201337E+03</pdfrwt>
<totfact> 0.82190653E+00</totfact>
</mgrwt>
</event>
<event>
 4    1  0.2293715E-008  0.4759504E+03  0.7818608E-02  0.1020254E+00
          1   -1    0    0  501    0  0.00000000000E+00  0.00000000000E+00  0.17027606070E+04  0.17027606070E+04  0.50400000000E-02 0. -1.
         -1   -1    0    0    0  501 -0.00000000000E+00 -0.00000000000E+00 -0.24272010490E+03  0.24272010495E+03  0.50400000000E-02 0.  1.
    8880022    1    1    2    0    0 -0.21821492690E+03  0.39435949959E+03  0.76114006204E+02  0.48199809563E+03  0.15294330000E+03 0.  0.
    8880022    1    1    2    0    0  0.21821492690E+03 -0.39435949959E+03  0.13839264959E+04  0.14634826163E+04  0.15294330000E+03 0. -1.
<mgrwt>
<rscale>  0 0.47595044E+03</rscale>
<asrwt>0</asrwt>
<pdfrwt beam="1">  1        1 0.26196318E+00 0.47595044E+03</pdfrwt>
<pdfrwt beam="2">  1       -1 0.37341553E-01 0.47595044E+03</pdfrwt>
<totfact> 0.35303557E+01</totfact>
</mgrwt>
</event>
<event>
 4    1  0.2293715E-008  0.6099300E+03  0.7818608E-02  0.9885016E-01
         -1   -1    0    0    0  501 -0.00000000000E+00  0.00000000000E+00  0.65006443669E+03  0.65006443671E+03  0.50400000000E-02 0.  1.
          1   -1    0    0  501    0  0.00000000000E+00 -0.00000000000E+00 -0.93693821825E+03  0.93693821826E+03  0.50400000000E-02 0. -1.
    8880022    1    1    2    0    0 -0.47761720169E+03  0.34713796992E+03  0.35160173535E+03  0.70401590524E+03  0.15294330000E+03 0.  0.
    8880022    1    1    2    0    0  0.47761720169E+03 -0.34713796992E+03 -0.63847551691E+03  0.88298674974E+03  0.15294330000E+03 0.  0.
<mgrwt>
<rscale>  0 0.60993001E+03</rscale>
<asrwt>0</asrwt>
<pdfrwt beam="1">  1        1 0.14414434E+00 0.60993001E+03</pdfrwt>
<pdfrwt beam="2">  1       -1 0.10000991E+00 0.60993001E+03</pdfrwt>
<totfact> 0.16981353E+01</totfact>
</mgrwt>
</event>
<event>
 4    1  0.2293715E-008  0.3136369E+03  0.7818608E-02  0.1078616E+00
          1   -1    0    0  501    0  0.00000000000E+00  0.00000000000E+00  0.87380899378E+03  0.87380899379E+03  0.50400000000E-02 0. -1.
         -1   -1    0    0    0  501 -0.00000000000E+00 -0.00000000000E+00 -0.11892471478E+04  0.11892471479E+04  0.50400000000E-02 0.  1.
    8880022    1    1    2    0    0 -0.15837519741E+01 -0.27381374489E+03  0.82377332745E+03  0.88145937126E+03  0.15294330000E+03 0.  0.
    8880022    1    1    2    0    0  0.15837519741E+01  0.27381374489E+03 -0.11392114815E+04  0.11815967704E+04  0.15294330000E+03 0.  0.
<mgrwt>
<rscale>  0 0.31363694E+03</rscale>
<asrwt>0</asrwt>
<pdfrwt beam="1">  1        1 0.13443215E+00 0.31363694E+03</pdfrwt>
<pdfrwt beam="2">  1       -1 0.18296110E+00 0.31363694E+03</pdfrwt>
<totfact> 0.43763752E+00</totfact>
</mgrwt>
</event>
<event>
 4    1  0.2293715E-008  0.2724958E+03  0.7818608E-02  0.1099860E+00
         -1   -1    0    0    0  501 -0.00000000000E+00  0.00000000000E+00  0.34436342249E+03  0.34436342252E+03  0.50400000000E-02 0.  1.
          1   -1    0    0  501    0  0.00000000000E+00 -0.00000000000E+00 -0.13432922745E+04  0.13432922745E+04  0.50400000000E-02 0. -1.
    8880022    1    1    2    0    0 -0.21946605577E+03 -0.51932046148E+02  0.27367667507E+03  0.38620313638E+03  0.15294330000E+03 0.  0.
    8880022    1    1    2    0    0  0.21946605577E+03  0.51932046148E+02 -0.12726055271E+04  0.13014525606E+04  0.15294330000E+03 0.  0.
<mgrwt>
<rscale>  0 0.27249576E+03</rscale>
<asrwt>0</asrwt>
<pdfrwt beam="1">  1        1 0.20666035E+00 0.27249576E+03</pdfrwt>
<pdfrwt beam="2">  1       -1 0.52978989E-01 0.27249576E+03</pdfrwt>
<totfact> 0.34143106E+01</totfact>
</mgrwt>
</event>
<event>
 4    1  0.2293715E-008  0.6766335E+03  0.7818608E-02  0.9758048E-01
          1   -1    0    0  501    0  0.00000000000E+00  0.00000000000E+00  0.24930717095E+04  0.24930717095E+04  0.50400000000E-02 0. -1.
         -1   -1    0    0    0  501 -0.00000000000E+00 -0.00000000000E+00 -0.47871249308E+03  0.47871249311E+03  0.50400000000E-02 0.  1.
    8880022    1    1    2    0    0  0.52256956207E+03 -0.40169923852E+03 -0.15939555108E+03  0.69515452969E+03  0.15294330000E+03 0.  0.
    8880022    1    1    2    0    0 -0.52256956207E+03  0.40169923852E+03  0.21737547675E+04  0.22766296729E+04  0.15294330000E+03 0.  0.
<mgrwt>
<rscale>  0 0.67663349E+03</rscale>
<asrwt>0</asrwt>
<pdfrwt beam="1">  1        1 0.38354948E+00 0.67663349E+03</pdfrwt>
<pdfrwt beam="2">  1       -1 0.73648078E-01 0.67663349E+03</pdfrwt>
<totfact> 0.27439662E+00</totfact>
</mgrwt>
</event>
<event>
 4    1  0.2293715E-008  0.1767456E+03  0.7818608E-02  0.1170990E+00
          1   -1    0    0  501    0  0.00000000000E+00  0.00000000000E+00  0.28124607241E+03  0.28124607246E+03  0.50400000000E-02 0. -1.
         -1   -1    0    0    0  501 -0.00000000000E+00 -0.00000000000E+00 -0.23236035672E+03  0.23236035678E+03  0.50400000000E-02 0.  1.
    8880022    1    1    2    0    0  0.66686312651E+02  0.58312135476E+02  0.20997795445E+03  0.27446268200E+03  0.15294330000E+03 0. -1.
    8880022    1    1    2    0    0 -0.66686312651E+02 -0.58312135476E+02 -0.16109223876E+03  0.23914374724E+03  0.15294330000E+03 0.  0.
<mgrwt>
<rscale>  0 0.17674564E+03</rscale>
<asrwt>0</asrwt>
<pdfrwt beam="1">  1        1 0.43268627E-01 0.17674564E+03</pdfrwt>
<pdfrwt beam="2">  1       -1 0.35747747E-01 0.17674564E+03</pdfrwt>
<totfact> 0.71799616E+02</totfact>
</mgrwt>
</event>
<event>
 4    1  0.2293715E-008  0.3879545E+03  0.7818608E-02  0.1048032E+00
          1   -1    0    0  501    0  0.00000000000E+00  0.00000000000E+00  0.66520525222E+03  0.66520525223E+03  0.50400000000E-02 0. -1.
         -1   -1    0    0    0  501 -0.00000000000E+00 -0.00000000000E+00 -0.51327233002E+03  0.51327233004E+03  0.50400000000E-02 0.  1.
    8880022    1    1    2    0    0 -0.22969037987E+03 -0.27268911534E+03 -0.36465782938E+03  0.53243216448E+03  0.15294330000E+03 0.  0.
    8880022    1    1    2    0    0  0.22969037987E+03  0.27268911534E+03  0.51659075157E+03  0.64604541780E+03  0.15294330000E+03 0. -1.
<mgrwt>
<rscale>  0 0.38795448E+03</rscale>
<asrwt>0</asrwt>
<pdfrwt beam="1">  1        1 0.10233927E+00 0.38795448E+03</pdfrwt>
<pdfrwt beam="2">  1       -1 0.78964974E-01 0.38795448E+03</pdfrwt>
<totfact> 0.50439720E+01</totfact>
</mgrwt>
</event>
<event>
 4    1  0.2293715E-008  0.4597802E+03  0.7818608E-02  0.1024845E+00
         -1   -1    0    0    0  501 -0.00000000000E+00  0.00000000000E+00  0.17731117196E+04  0.17731117196E+04  0.50400000000E-02 0.  1.
          1   -1    0    0  501    0  0.00000000000E+00 -0.00000000000E+00 -0.36215290291E+03  0.36215290295E+03  0.50400000000E-02 0. -1.
    8880022    1    1    2    0    0  0.38955683953E+03  0.19039854473E+03  0.15798894926E+04  0.16454326479E+04  0.15294330000E+03 0.  0.
    8880022    1    1    2    0    0 -0.38955683953E+03 -0.19039854473E+03 -0.16893067592E+03  0.48983197460E+03  0.15294330000E+03 0.  0.
<mgrwt>
<rscale>  0 0.45978015E+03</rscale>
<asrwt>0</asrwt>
<pdfrwt beam="1">  1        1 0.55715830E-01 0.45978015E+03</pdfrwt>
<pdfrwt beam="2">  1       -1 0.27278642E+00 0.45978015E+03</pdfrwt>
<totfact> 0.37469829E+00</totfact>
</mgrwt>
</event>
<event>
 4    1  0.2568472E-008  0.7541153E+03  0.7818608E-02  0.9628916E-01
          1   -1    0    0  501    0  0.00000000000E+00  0.00000000000E+00  0.22622411355E+04  0.22622411355E+04  0.50400000000E-02 0. -1.
         -1   -1    0    0    0  501 -0.00000000000E+00 -0.00000000000E+00 -0.78528387761E+03  0.78528387763E+03  0.50400000000E-02 0.  1.
    8880022    1    1    2    0    0  0.68197102846E+03 -0.28322034151E+03  0.19948964616E+04  0.21326747973E+04  0.15294330000E+03 0.  0.
    8880022    1    1    2    0    0 -0.68197102846E+03  0.28322034151E+03 -0.51793920377E+03  0.91485021578E+03  0.15294330000E+03 0.  0.
<mgrwt>
<rscale>  0 0.75411531E+03</rscale>
<asrwt>0</asrwt>
<pdfrwt beam="1">  1        1 0.34803710E+00 0.75411531E+03</pdfrwt>
<pdfrwt beam="2">  1       -1 0.12081290E+00 0.75411531E+03</pdfrwt>
<totfact> 0.12758411E+00</totfact>
</mgrwt>
</event>
<event>
 4    1  0.2293715E-008  0.1615955E+04  0.7818608E-02  0.8810806E-01
          1   -1    0    0  501    0  0.00000000000E+00  0.00000000000E+00  0.19539192835E+04  0.19539192835E+04  0.50400000000E-02 0. -1.
         -1   -1    0    0    0  501 -0.00000000000E+00 -0.00000000000E+00 -0.18403466271E+04  0.18403466271E+04  0.50400000000E-02 0.  1.
    8880022    1    1    2    0    0 -0.25627473913E+03  0.15881567122E+04  0.10494904969E+04  0.19268472801E+04  0.15294330000E+03 0.  0.
    8880022    1    1    2    0    0  0.25627473913E+03 -0.15881567122E+04 -0.93591784047E+03  0.18674186305E+04  0.15294330000E+03 0.  0.
<mgrwt>
<rscale>  0 0.16159549E+04</rscale>
<asrwt>0</asrwt>
<pdfrwt beam="1">  1        1 0.30060297E+00 0.16159549E+04</pdfrwt>
<pdfrwt beam="2">  1       -1 0.28313025E+00 0.16159549E+04</pdfrwt>
<totfact> 0.12654180E-01</totfact>
</mgrwt>
</event>
<event>
 4    1  0.2293715E-008  0.4829379E+03  0.7818608E-02  0.1018331E+00
         -1   -1    0    0    0  501 -0.00000000000E+00  0.00000000000E+00  0.14492142144E+03  0.14492142153E+03  0.50400000000E-02 0.  1.
          1   -1    0    0  501    0  0.00000000000E+00 -0.00000000000E+00 -0.33593806944E+04  0.33593806944E+04  0.50400000000E-02 0. -1.
    8880022    1    1    2    0    0 -0.25245984808E+03  0.38223207916E+03 -0.34259514205E+03  0.59211520974E+03  0.15294330000E+03 0.  0.
    8880022    1    1    2    0    0  0.25245984808E+03 -0.38223207916E+03 -0.28718641309E+04  0.29121869062E+04  0.15294330000E+03 0.  0.
<mgrwt>
<rscale>  0 0.48293787E+03</rscale>
<asrwt>0</asrwt>
<pdfrwt beam="1">  1        1 0.51682774E+00 0.48293787E+03</pdfrwt>
<pdfrwt beam="2">  1       -1 0.22295606E-01 0.48293787E+03</pdfrwt>
<totfact> 0.62512595E+00</totfact>
</mgrwt>
</event>
<event>
 4    1  0.2293715E-008  0.4435485E+03  0.7818608E-02  0.1029664E+00
         -1   -1    0    0    0  501 -0.00000000000E+00  0.00000000000E+00  0.16311977643E+03  0.16311977651E+03  0.50400000000E-02 0.  1.
          1   -1    0    0  501    0  0.00000000000E+00 -0.00000000000E+00 -0.23320812239E+04  0.23320812239E+04  0.50400000000E-02 0. -1.
    8880022    1    1    2    0    0 -0.41634038157E+03 -0.20831771832E+01 -0.21757201713E+03  0.49403733524E+03  0.15294330000E+03 0.  0.
    8880022    1    1    2    0    0  0.41634038157E+03  0.20831771832E+01 -0.19513894303E+04  0.20011636652E+04  0.15294330000E+03 0.  0.
<mgrwt>
<rscale>  0 0.44354854E+03</rscale>
<asrwt>0</asrwt>
<pdfrwt beam="1">  1        1 0.35878170E+00 0.44354854E+03</pdfrwt>
<pdfrwt beam="2">  1       -1 0.25095352E-01 0.44354854E+03</pdfrwt>
<totfact> 0.27135066E+01</totfact>
</mgrwt>
</event>
<event>
 4    1  0.2293715E-008  0.7795729E+03  0.7818608E-02  0.9590064E-01
          1   -1    0    0  501    0  0.00000000000E+00  0.00000000000E+00  0.11162871825E+04  0.11162871825E+04  0.50400000000E-02 0. -1.
         -1   -1    0    0    0  501 -0.00000000000E+00 -0.00000000000E+00 -0.79971568990E+03  0.79971568992E+03  0.50400000000E-02 0.  1.
    8880022    1    1    2    0    0 -0.53961056372E+03 -0.54144497851E+03  0.69955882595E+03  0.10474332576E+04  0.15294330000E+03 0.  0.
    8880022    1    1    2    0    0  0.53961056372E+03  0.54144497851E+03 -0.38298733335E+03  0.86856961479E+03  0.15294330000E+03 0.  0.
<mgrwt>
<rscale>  0 0.77957288E+03</rscale>
<asrwt>0</asrwt>
<pdfrwt beam="1">  1        1 0.17173649E+00 0.77957288E+03</pdfrwt>
<pdfrwt beam="2">  1       -1 0.12303318E+00 0.77957288E+03</pdfrwt>
<totfact> 0.73964800E+00</totfact>
</mgrwt>
</event>
<event>
 4    1  0.2293715E-008  0.8476861E+03  0.7818608E-02  0.9493448E-01
          1   -1    0    0  501    0  0.00000000000E+00  0.00000000000E+00  0.75338087744E+03  0.75338087745E+03  0.50400000000E-02 0. -1.
         -1   -1    0    0    0  501 -0.00000000000E+00 -0.00000000000E+00 -0.13249563233E+04  0.13249563233E+04  0.50400000000E-02 0.  1.
    8880022    1    1    2    0    0 -0.19885585363E+03 -0.80971383700E+03  0.26421634628E+03  0.88790882359E+03  0.15294330000E+03 0.  0.
    8880022    1    1    2    0    0  0.19885585363E+03  0.80971383700E+03 -0.83579179213E+03  0.11904283772E+04  0.15294330000E+03 0.  0.
<mgrwt>
<rscale>  0 0.84768615E+03</rscale>
<asrwt>0</asrwt>
<pdfrwt beam="1">  1        1 0.11590475E+00 0.84768615E+03</pdfrwt>
<pdfrwt beam="2">  1       -1 0.20383944E+00 0.84768615E+03</pdfrwt>
<totfact> 0.35267722E+00</totfact>
</mgrwt>
</event>
<event>
 4    1  0.2293715E-008  0.5380687E+03  0.7818608E-02  0.1004294E+00
         -1   -1    0    0    0  501 -0.00000000000E+00  0.00000000000E+00  0.70737259837E+03  0.70737259838E+03  0.50400000000E-02 0.  1.
          1   -1    0    0  501    0  0.00000000000E+00 -0.00000000000E+00 -0.83752918405E+03  0.83752918407E+03  0.50400000000E-02 0. -1.
    8880022    1    1    2    0    0 -0.51491684871E+03 -0.31415615771E+02  0.48727373386E+03  0.72591572976E+03  0.15294330000E+03 0.  0.
    8880022    1    1    2    0    0  0.51491684871E+03  0.31415615771E+02 -0.61743031954E+03  0.81898605269E+03  0.15294330000E+03 0.  0.
<mgrwt>
<rscale>  0 0.53806873E+03</rscale>
<asrwt>0</asrwt>
<pdfrwt beam="1">  1        1 0.12885064E+00 0.53806873E+03</pdfrwt>
<pdfrwt beam="2">  1       -1 0.10882655E+00 0.53806873E+03</pdfrwt>
<totfact> 0.17036333E+01</totfact>
</mgrwt>
</event>
<event>
 4    1  0.2293715E-008  0.1728435E+03  0.7818608E-02  0.1174915E+00
         -1   -1    0    0    0  501 -0.00000000000E+00  0.00000000000E+00  0.20994843413E+02  0.20994844018E+02  0.50400000000E-02 0.  1.
          1   -1    0    0  501    0  0.00000000000E+00 -0.00000000000E+00 -0.15621340428E+04  0.15621340429E+04  0.50400000000E-02 0. -1.
    8880022    1    1    2    0    0 -0.31390664403E+02 -0.74147443563E+02 -0.10068364160E+04  0.10215647012E+04  0.15294330000E+03 0.  0.
    8880022    1    1    2    0    0  0.31390664403E+02  0.74147443563E+02 -0.53430278347E+03  0.56156418568E+03  0.15294330000E+03 0.  0.
<mgrwt>
<rscale>  0 0.17284348E+03</rscale>
<asrwt>0</asrwt>
<pdfrwt beam="1">  1        1 0.24032822E+00 0.17284348E+03</pdfrwt>
<pdfrwt beam="2">  1       -1 0.32299772E-02 0.17284348E+03</pdfrwt>
<totfact> 0.21994248E+03</totfact>
</mgrwt>
</event>
<event>
 4    1  0.2293715E-008  0.6513354E+03  0.7818608E-02  0.9804277E-01
         -1   -1    0    0    0  501 -0.00000000000E+00  0.00000000000E+00  0.37147184661E+03  0.37147184664E+03  0.50400000000E-02 0.  1.
          1   -1    0    0  501    0  0.00000000000E+00 -0.00000000000E+00 -0.17473262064E+04  0.17473262064E+04  0.50400000000E-02 0. -1.
    8880022    1    1    2    0    0 -0.18114434432E+03  0.60665712563E+03 -0.64406377369E+02  0.65451201366E+03  0.15294330000E+03 0.  0.
    8880022    1    1    2    0    0  0.18114434432E+03 -0.60665712563E+03 -0.13114479824E+04  0.14642860394E+04  0.15294330000E+03 0.  0.
<mgrwt>
<rscale>  0 0.65133539E+03</rscale>
<asrwt>0</asrwt>
<pdfrwt beam="1">  1        1 0.26881941E+00 0.65133539E+03</pdfrwt>
<pdfrwt beam="2">  1       -1 0.57149516E-01 0.65133539E+03</pdfrwt>
<totfact> 0.14486172E+01</totfact>
</mgrwt>
</event>
<event>
 4    1  0.2293715E-008  0.7846838E+03  0.7818608E-02  0.9582455E-01
          1   -1    0    0  501    0  0.00000000000E+00  0.00000000000E+00  0.41747375474E+04  0.41747375474E+04  0.50400000000E-02 0. -1.
         -1   -1    0    0    0  501 -0.00000000000E+00 -0.00000000000E+00 -0.27645885921E+03  0.27645885926E+03  0.50400000000E-02 0.  1.
    8880022    1    1    2    0    0 -0.65620295029E+03  0.40216254096E+03  0.34692503143E+04  0.35568843694E+04  0.15294330000E+03 0.  0.
    8880022    1    1    2    0    0  0.65620295029E+03 -0.40216254096E+03  0.42902837391E+03  0.89431203724E+03  0.15294330000E+03 0.  0.
<mgrwt>
<rscale>  0 0.78468381E+03</rscale>
<asrwt>0</asrwt>
<pdfrwt beam="1">  1        1 0.64226741E+00 0.78468381E+03</pdfrwt>
<pdfrwt beam="2">  1       -1 0.42532126E-01 0.78468381E+03</pdfrwt>
<totfact> 0.40273750E-01</totfact>
</mgrwt>
</event>
<event>
 4    1  0.2293715E-008  0.6853285E+03  0.7818608E-02  0.9742657E-01
         -1   -1    0    0    0  501 -0.00000000000E+00  0.00000000000E+00  0.77428984951E+03  0.77428984953E+03  0.50400000000E-02 0.  1.
          1   -1    0    0  501    0  0.00000000000E+00 -0.00000000000E+00 -0.15425376929E+04  0.15425376929E+04  0.50400000000E-02 0. -1.
    8880022    1    1    2    0    0  0.28480835100E+03 -0.60429108188E+03 -0.12864676483E+04  0.14576262112E+04  0.15294330000E+03 0.  0.
    8880022    1    1    2    0    0 -0.28480835100E+03  0.60429108188E+03  0.51821980489E+03  0.85920133126E+03  0.15294330000E+03 0.  0.
<mgrwt>
<rscale>  0 0.68532851E+03</rscale>
<asrwt>0</asrwt>
<pdfrwt beam="1">  1        1 0.23731349E+00 0.68532851E+03</pdfrwt>
<pdfrwt beam="2">  1       -1 0.11912152E+00 0.68532851E+03</pdfrwt>
<totfact> 0.40686069E+00</totfact>
</mgrwt>
</event>
<event>
 4    1  0.2293715E-008  0.8361983E+03  0.7818608E-02  0.9509051E-01
          1   -1    0    0  501    0  0.00000000000E+00  0.00000000000E+00  0.10568067735E+04  0.10568067735E+04  0.50400000000E-02 0. -1.
         -1   -1    0    0    0  501 -0.00000000000E+00 -0.00000000000E+00 -0.11805260764E+04  0.11805260764E+04  0.50400000000E-02 0.  1.
    8880022    1    1    2    0    0  0.82036538690E+03 -0.53259049267E+02 -0.80350804791E+03  0.11596778563E+04  0.15294330000E+03 0.  0.
    8880022    1    1    2    0    0 -0.82036538690E+03  0.53259049267E+02  0.67978874504E+03  0.10776549936E+04  0.15294330000E+03 0.  0.
<mgrwt>
<rscale>  0 0.83619827E+03</rscale>
<asrwt>0</asrwt>
<pdfrwt beam="1">  1        1 0.16258566E+00 0.83619827E+03</pdfrwt>
<pdfrwt beam="2">  1       -1 0.18161940E+00 0.83619827E+03</pdfrwt>
<totfact> 0.28442846E+00</totfact>
</mgrwt>
</event>
<event>
 4    1  0.2293715E-008  0.1171649E+04  0.7818608E-02  0.9138040E-01
         -1   -1    0    0    0  501 -0.00000000000E+00  0.00000000000E+00  0.12668222591E+04  0.12668222591E+04  0.50400000000E-02 0.  1.
          1   -1    0    0  501    0  0.00000000000E+00 -0.00000000000E+00 -0.29203129163E+04  0.29203129163E+04  0.50400000000E-02 0. -1.
    8880022    1    1    2    0    0  0.11506744522E+04  0.15911910935E+03  0.83356699718E+03  0.14379138284E+04  0.15294330000E+03 0.  0.
    8880022    1    1    2    0    0 -0.11506744522E+04 -0.15911910935E+03 -0.24870576544E+04  0.27492213471E+04  0.15294330000E+03 0.  0.
<mgrwt>
<rscale>  0 0.11716494E+04</rscale>
<asrwt>0</asrwt>
<pdfrwt beam="1">  1        1 0.44927891E+00 0.11716494E+04</pdfrwt>
<pdfrwt beam="2">  1       -1 0.19489573E+00 0.11716494E+04</pdfrwt>
<totfact> 0.11100869E-01</totfact>
</mgrwt>
</event>
<event>
 4    1  0.2293715E-008  0.1679333E+03  0.7818608E-02  0.1180020E+00
          1   -1    0    0  501    0  0.00000000000E+00  0.00000000000E+00  0.11304942025E+04  0.11304942025E+04  0.50400000000E-02 0. -1.
         -1   -1    0    0    0  501 -0.00000000000E+00 -0.00000000000E+00 -0.10518191694E+03  0.10518191706E+03  0.50400000000E-02 0.  1.
    8880022    1    1    2    0    0 -0.69346377015E+02  0.10067902298E+01  0.10522759235E+04  0.10655919509E+04  0.15294330000E+03 0.  0.
    8880022    1    1    2    0    0  0.69346377015E+02 -0.10067902298E+01 -0.26963637976E+02  0.17008416863E+03  0.15294330000E+03 0.  1.
<mgrwt>
<rscale>  0 0.16793328E+03</rscale>
<asrwt>0</asrwt>
<pdfrwt beam="1">  1        1 0.17392217E+00 0.16793328E+03</pdfrwt>
<pdfrwt beam="2">  1       -1 0.16181835E-01 0.16793328E+03</pdfrwt>
<totfact> 0.37289002E+02</totfact>
</mgrwt>
</event>
<event>
 4    1  0.2293715E-008  0.3031000E+03  0.7818608E-02  0.1083701E+00
          1   -1    0    0  501    0  0.00000000000E+00  0.00000000000E+00  0.85161982424E+03  0.85161982426E+03  0.50400000000E-02 0. -1.
         -1   -1    0    0    0  501 -0.00000000000E+00 -0.00000000000E+00 -0.30539208540E+03  0.30539208544E+03  0.50400000000E-02 0.  1.
    8880022    1    1    2    0    0  0.23661656458E+03  0.11176107048E+03 -0.19212914305E+03  0.35886375706E+03  0.15294330000E+03 0.  0.
    8880022    1    1    2    0    0 -0.23661656458E+03 -0.11176107048E+03  0.73835688190E+03  0.79814815264E+03  0.15294330000E+03 0. -1.
<mgrwt>
<rscale>  0 0.30309996E+03</rscale>
<asrwt>0</asrwt>
<pdfrwt beam="1">  1        1 0.13101843E+00 0.30309996E+03</pdfrwt>
<pdfrwt beam="2">  1       -1 0.46983398E-01 0.30309996E+03</pdfrwt>
<totfact> 0.96940312E+01</totfact>
</mgrwt>
</event>
<event>
 4    1  0.2293715E-008  0.4872332E+03  0.7818608E-02  0.1017166E+00
         -1   -1    0    0    0  501 -0.00000000000E+00  0.00000000000E+00  0.63587939228E+03  0.63587939230E+03  0.50400000000E-02 0.  1.
          1   -1    0    0  501    0  0.00000000000E+00 -0.00000000000E+00 -0.69747908514E+03  0.69747908516E+03  0.50400000000E-02 0. -1.
    8880022    1    1    2    0    0 -0.20370174262E+03 -0.41534345656E+03 -0.48528548962E+03  0.68767597479E+03  0.15294330000E+03 0.  0.
    8880022    1    1    2    0    0  0.20370174262E+03  0.41534345656E+03  0.42368579677E+03  0.64568250267E+03  0.15294330000E+03 0.  0.
<mgrwt>
<rscale>  0 0.48723325E+03</rscale>
<asrwt>0</asrwt>
<pdfrwt beam="1">  1        1 0.10730448E+00 0.48723325E+03</pdfrwt>
<pdfrwt beam="2">  1       -1 0.97827598E-01 0.48723325E+03</pdfrwt>
<totfact> 0.29111844E+01</totfact>
</mgrwt>
</event>
<event>
 4    1  0.2293715E-008  0.3582696E+03  0.7818608E-02  0.1059271E+00
         -1   -1    0    0    0  501 -0.00000000000E+00  0.00000000000E+00  0.80419699048E+03  0.80419699050E+03  0.50400000000E-02 0.  1.
          1   -1    0    0  501    0  0.00000000000E+00 -0.00000000000E+00 -0.30213632859E+03  0.30213632863E+03  0.50400000000E-02 0. -1.
    8880022    1    1    2    0    0 -0.24896329886E+03 -0.20732282836E+03  0.63096024665E+03  0.72558112241E+03  0.15294330000E+03 0.  1.
    8880022    1    1    2    0    0  0.24896329886E+03  0.20732282836E+03 -0.12889958476E+03  0.38075219672E+03  0.15294330000E+03 0.  0.
<mgrwt>
<rscale>  0 0.35826964E+03</rscale>
<asrwt>0</asrwt>
<pdfrwt beam="1">  1        1 0.46482513E-01 0.35826964E+03</pdfrwt>
<pdfrwt beam="2">  1       -1 0.12372261E+00 0.35826964E+03</pdfrwt>
<totfact> 0.53091180E+01</totfact>
</mgrwt>
</event>
<event>
 4    1  0.2293715E-008  0.1328315E+04  0.7818608E-02  0.9007408E-01
          1   -1    0    0  501    0  0.00000000000E+00  0.00000000000E+00  0.31262096130E+04  0.31262096130E+04  0.50400000000E-02 0. -1.
         -1   -1    0    0    0  501 -0.00000000000E+00 -0.00000000000E+00 -0.12843837894E+04  0.12843837894E+04  0.50400000000E-02 0.  1.
    8880022    1    1    2    0    0 -0.88018004349E+03  0.98301161030E+03  0.25720463304E+04  0.28947957983E+04  0.15294330000E+03 0.  0.
    8880022    1    1    2    0    0  0.88018004349E+03 -0.98301161030E+03 -0.73022050679E+03  0.15157976041E+04  0.15294330000E+03 0.  0.
<mgrwt>
<rscale>  0 0.13283149E+04</rscale>
<asrwt>0</asrwt>
<pdfrwt beam="1">  1        1 0.48095533E+00 0.13283149E+04</pdfrwt>
<pdfrwt beam="2">  1       -1 0.19759750E+00 0.13283149E+04</pdfrwt>
<totfact> 0.73402625E-02</totfact>
</mgrwt>
</event>
<event>
 4    1  0.2293715E-008  0.3825755E+03  0.7818608E-02  0.1049986E+00
         -1   -1    0    0    0  501 -0.00000000000E+00  0.00000000000E+00  0.25711549785E+03  0.25711549790E+03  0.50400000000E-02 0.  1.
          1   -1    0    0  501    0  0.00000000000E+00 -0.00000000000E+00 -0.24267225040E+04  0.24267225040E+04  0.50400000000E-02 0. -1.
    8880022    1    1    2    0    0  0.20988654066E+03  0.28092707711E+03  0.89220478456E+02  0.39284135398E+03  0.15294330000E+03 0.  0.
    8880022    1    1    2    0    0 -0.20988654066E+03 -0.28092707711E+03 -0.22588274846E+04  0.22909966479E+04  0.15294330000E+03 0.  0.
<mgrwt>
<rscale>  0 0.38257553E+03</rscale>
<asrwt>0</asrwt>
<pdfrwt beam="1">  1        1 0.37334191E+00 0.38257553E+03</pdfrwt>
<pdfrwt beam="2">  1       -1 0.39556232E-01 0.38257553E+03</pdfrwt>
<totfact> 0.10833325E+01</totfact>
</mgrwt>
</event>
<event>
 4    1  0.2293715E-008  0.7462455E+03  0.7818608E-02  0.9641259E-01
         -1   -1    0    0    0  501 -0.00000000000E+00  0.00000000000E+00  0.71442671439E+03  0.71442671441E+03  0.50400000000E-02 0.  1.
          1   -1    0    0  501    0  0.00000000000E+00 -0.00000000000E+00 -0.10851206613E+04  0.10851206613E+04  0.50400000000E-02 0. -1.
    8880022    1    1    2    0    0  0.71946355876E+03 -0.12594782260E+03  0.29218104592E+03  0.80140631580E+03  0.15294330000E+03 0.  0.
    8880022    1    1    2    0    0 -0.71946355876E+03  0.12594782260E+03 -0.66287499286E+03  0.99814105996E+03  0.15294330000E+03 0.  0.
<mgrwt>
<rscale>  0 0.74624548E+03</rscale>
<asrwt>0</asrwt>
<pdfrwt beam="1">  1        1 0.16694164E+00 0.74624548E+03</pdfrwt>
<pdfrwt beam="2">  1       -1 0.10991180E+00 0.74624548E+03</pdfrwt>
<totfact> 0.10285425E+01</totfact>
</mgrwt>
</event>
<event>
 4    1  0.2293715E-008  0.2295172E+03  0.7818608E-02  0.1126980E+00
          1   -1    0    0  501    0  0.00000000000E+00  0.00000000000E+00  0.19606502278E+04  0.19606502278E+04  0.50400000000E-02 0. -1.
         -1   -1    0    0    0  501 -0.00000000000E+00 -0.00000000000E+00 -0.13789320839E+03  0.13789320849E+03  0.50400000000E-02 0.  1.
    8880022    1    1    2    0    0 -0.81448723577E+02  0.15050776655E+03 -0.30138002058E+02  0.23148743929E+03  0.15294330000E+03 0.  1.
    8880022    1    1    2    0    0  0.81448723577E+02 -0.15050776655E+03  0.18528950214E+04  0.18670559970E+04  0.15294330000E+03 0.  0.
<mgrwt>
<rscale>  0 0.22951718E+03</rscale>
<asrwt>0</asrwt>
<pdfrwt beam="1">  1        1 0.30163848E+00 0.22951718E+03</pdfrwt>
<pdfrwt beam="2">  1       -1 0.21214341E-01 0.22951718E+03</pdfrwt>
<totfact> 0.66965066E+01</totfact>
</mgrwt>
</event>
<event>
 4    1  0.2293715E-008  0.9179885E+03  0.7818608E-02  0.9403370E-01
         -1   -1    0    0    0  501 -0.00000000000E+00  0.00000000000E+00  0.13529655547E+04  0.13529655547E+04  0.50400000000E-02 0.  1.
          1   -1    0    0  501    0  0.00000000000E+00 -0.00000000000E+00 -0.10025666408E+04  0.10025666408E+04  0.50400000000E-02 0. -1.
    8880022    1    1    2    0    0  0.16475972136E+02 -0.90500816999E+03  0.90001705594E+03  0.12855868696E+04  0.15294330000E+03 0.  0.
    8880022    1    1    2    0    0 -0.16475972136E+02  0.90500816999E+03 -0.54961814201E+03  0.10699453259E+04  0.15294330000E+03 0.  0.
<mgrwt>
<rscale>  0 0.91798851E+03</rscale>
<asrwt>0</asrwt>
<pdfrwt beam="1">  1        1 0.15424102E+00 0.91798851E+03</pdfrwt>
<pdfrwt beam="2">  1       -1 0.20814855E+00 0.91798851E+03</pdfrwt>
<totfact> 0.20254873E+00</totfact>
</mgrwt>
</event>
<event>
 4    1  0.2293715E-008  0.1228546E+04  0.7818608E-02  0.9088231E-01
         -1   -1    0    0    0  501 -0.00000000000E+00  0.00000000000E+00  0.71280818242E+03  0.71280818244E+03  0.50400000000E-02 0.  1.
          1   -1    0    0  501    0  0.00000000000E+00 -0.00000000000E+00 -0.27894621913E+04  0.27894621913E+04  0.50400000000E-02 0. -1.
    8880022    1    1    2    0    0  0.15613497313E+03 -0.12089481865E+04 -0.17881365129E+03  0.12414909675E+04  0.15294330000E+03 0.  0.
    8880022    1    1    2    0    0 -0.15613497313E+03  0.12089481865E+04 -0.18978403576E+04  0.22607794062E+04  0.15294330000E+03 0.  0.
<mgrwt>
<rscale>  0 0.12285461E+04</rscale>
<asrwt>0</asrwt>
<pdfrwt beam="1">  1        1 0.42914802E+00 0.12285461E+04</pdfrwt>
<pdfrwt beam="2">  1       -1 0.10966280E+00 0.12285461E+04</pdfrwt>
<totfact> 0.64446580E-01</totfact>
</mgrwt>
</event>
<event>
 4    1  0.3067414E-008  0.5688524E+03  0.7818608E-02  0.9972221E-01
         -1   -1    0    0    0  501 -0.00000000000E+00  0.00000000000E+00  0.18379618842E+04  0.18379618842E+04  0.50400000000E-02 0.  1.
          1   -1    0    0  501    0  0.00000000000E+00 -0.00000000000E+00 -0.83416851394E+03  0.83416851395E+03  0.50400000000E-02 0. -1.
    8880022    1    1    2    0    0 -0.15596484212E+03  0.52523936349E+03  0.16886193581E+04  0.17818609403E+04  0.15294330000E+03 0.  0.
    8880022    1    1    2    0    0  0.15596484212E+03 -0.52523936349E+03 -0.68482598786E+03  0.89026945786E+03  0.15294330000E+03 0.  0.
<mgrwt>
<rscale>  0 0.56885242E+03</rscale>
<asrwt>0</asrwt>
<pdfrwt beam="1">  1        1 0.12833362E+00 0.56885242E+03</pdfrwt>
<pdfrwt beam="2">  1       -1 0.28276336E+00 0.56885242E+03</pdfrwt>
<totfact> 0.97041826E-01</totfact>
</mgrwt>
</event>
<event>
 4    1  0.2293715E-008  0.1762344E+03  0.7818608E-02  0.1171498E+00
          1   -1    0    0  501    0  0.00000000000E+00  0.00000000000E+00  0.14024154485E+04  0.14024154485E+04  0.50400000000E-02 0. -1.
         -1   -1    0    0    0  501 -0.00000000000E+00 -0.00000000000E+00 -0.20733552253E+03  0.20733552259E+03  0.50400000000E-02 0.  1.
    8880022    1    1    2    0    0 -0.73420913790E+02  0.47710453985E+02  0.13582155547E+04  0.13696014252E+04  0.15294330000E+03 0.  0.
    8880022    1    1    2    0    0  0.73420913790E+02 -0.47710453985E+02 -0.16313562872E+03  0.24014954585E+03  0.15294330000E+03 0.  0.
<mgrwt>
<rscale>  0 0.17623442E+03</rscale>
<asrwt>0</asrwt>
<pdfrwt beam="1">  1        1 0.21575622E+00 0.17623442E+03</pdfrwt>
<pdfrwt beam="2">  1       -1 0.31897773E-01 0.17623442E+03</pdfrwt>
<totfact> 0.79896075E+01</totfact>
</mgrwt>
</event>
<event>
 4    1  0.2293715E-008  0.7757052E+03  0.7818608E-02  0.9595864E-01
         -1   -1    0    0    0  501 -0.00000000000E+00  0.00000000000E+00  0.89508717045E+03  0.89508717047E+03  0.50400000000E-02 0.  1.
          1   -1    0    0  501    0  0.00000000000E+00 -0.00000000000E+00 -0.14358611150E+04  0.14358611150E+04  0.50400000000E-02 0. -1.
    8880022    1    1    2    0    0  0.74111968437E+03  0.17049504623E+03  0.57954416023E+03  0.96829232880E+03  0.15294330000E+03 0.  0.
    8880022    1    1    2    0    0 -0.74111968437E+03 -0.17049504623E+03 -0.11203181047E+04  0.13626559566E+04  0.15294330000E+03 0.  0.
<mgrwt>
<rscale>  0 0.77570523E+03</rscale>
<asrwt>0</asrwt>
<pdfrwt beam="1">  1        1 0.22090171E+00 0.77570523E+03</pdfrwt>
<pdfrwt beam="2">  1       -1 0.13770572E+00 0.77570523E+03</pdfrwt>
<totfact> 0.32958933E+00</totfact>
</mgrwt>
</event>
<event>
 4    1  0.2293715E-008  0.2599304E+03  0.7818608E-02  0.1107185E+00
          1   -1    0    0  501    0  0.00000000000E+00  0.00000000000E+00  0.78748646689E+03  0.78748646691E+03  0.50400000000E-02 0. -1.
         -1   -1    0    0    0  501 -0.00000000000E+00 -0.00000000000E+00 -0.16754262003E+03  0.16754262010E+03  0.50400000000E-02 0.  1.
    8880022    1    1    2    0    0  0.12814330651E+03  0.16658773793E+03  0.64351864551E+03  0.69403175833E+03  0.15294330000E+03 0.  0.
    8880022    1    1    2    0    0 -0.12814330651E+03 -0.16658773793E+03 -0.23574798644E+02  0.26099732868E+03  0.15294330000E+03 0.  0.
<mgrwt>
<rscale>  0 0.25993044E+03</rscale>
<asrwt>0</asrwt>
<pdfrwt beam="1">  1        1 0.12115177E+00 0.25993044E+03</pdfrwt>
<pdfrwt beam="2">  1       -1 0.25775787E-01 0.25993044E+03</pdfrwt>
<totfact> 0.31512771E+02</totfact>
</mgrwt>
</event>
<event>
 4    1  0.2293715E-008  0.9308903E+03  0.7818608E-02  0.9387770E-01
          1   -1    0    0  501    0  0.00000000000E+00  0.00000000000E+00  0.90586552817E+03  0.90586552819E+03  0.50400000000E-02 0. -1.
         -1   -1    0    0    0  501 -0.00000000000E+00 -0.00000000000E+00 -0.13404535242E+04  0.13404535242E+04  0.50400000000E-02 0.  1.
    8880022    1    1    2    0    0 -0.57024340150E+03 -0.71971349997E+03 -0.81832204827E+03  0.12394384562E+04  0.15294330000E+03 0.  0.
    8880022    1    1    2    0    0  0.57024340150E+03  0.71971349997E+03  0.38373405229E+03  0.10068805961E+04  0.15294330000E+03 0.  0.
<mgrwt>
<rscale>  0 0.93089028E+03</rscale>
<asrwt>0</asrwt>
<pdfrwt beam="1">  1        1 0.13936393E+00 0.93089028E+03</pdfrwt>
<pdfrwt beam="2">  1       -1 0.20622362E+00 0.93089028E+03</pdfrwt>
<totfact> 0.24880693E+00</totfact>
</mgrwt>
</event>
<event>
 4    1  0.2293715E-008  0.4536761E+03  0.7818608E-02  0.1026631E+00
         -1   -1    0    0    0  501 -0.00000000000E+00  0.00000000000E+00  0.53410430693E+03  0.53410430695E+03  0.50400000000E-02 0.  1.
          1   -1    0    0  501    0  0.00000000000E+00 -0.00000000000E+00 -0.70977615577E+03  0.70977615579E+03  0.50400000000E-02 0. -1.
    8880022    1    1    2    0    0  0.24816445060E+03  0.34762735263E+03  0.33263861269E+03  0.56255708200E+03  0.15294330000E+03 0.  1.
    8880022    1    1    2    0    0 -0.24816445060E+03 -0.34762735263E+03 -0.50831046153E+03  0.68132338075E+03  0.15294330000E+03 0.  0.
<mgrwt>
<rscale>  0 0.45367612E+03</rscale>
<asrwt>0</asrwt>
<pdfrwt beam="1">  1        1 0.10919633E+00 0.45367612E+03</pdfrwt>
<pdfrwt beam="2">  1       -1 0.82169893E-01 0.45367612E+03</pdfrwt>
<totfact> 0.41695667E+01</totfact>
</mgrwt>
</event>
<event>
 4    1  0.2579247E-008  0.8831909E+03  0.7818608E-02  0.9446841E-01
         -1   -1    0    0    0  501 -0.00000000000E+00  0.00000000000E+00  0.15405017107E+04  0.15405017107E+04  0.50400000000E-02 0.  1.
          1   -1    0    0  501    0  0.00000000000E+00 -0.00000000000E+00 -0.10118331636E+04  0.10118331636E+04  0.50400000000E-02 0. -1.
    8880022    1    1    2    0    0  0.69407496050E+03  0.52430371047E+03 -0.63766978462E+03  0.10893341264E+04  0.15294330000E+03 0. -1.
    8880022    1    1    2    0    0 -0.69407496050E+03 -0.52430371047E+03  0.11663383317E+04  0.14630007480E+04  0.15294330000E+03 0.  0.
<mgrwt>
<rscale>  0 0.88319085E+03</rscale>
<asrwt>0</asrwt>
<pdfrwt beam="1">  1        1 0.15566664E+00 0.88319085E+03</pdfrwt>
<pdfrwt beam="2">  1       -1 0.23700026E+00 0.88319085E+03</pdfrwt>
<totfact> 0.12880199E+00</totfact>
</mgrwt>
</event>
<event>
 4    1  0.2293715E-008  0.1705651E+03  0.7818608E-02  0.1177260E+00
         -1   -1    0    0    0  501 -0.00000000000E+00  0.00000000000E+00  0.29666954646E+03  0.29666954650E+03  0.50400000000E-02 0.  1.
          1   -1    0    0  501    0  0.00000000000E+00 -0.00000000000E+00 -0.11544283495E+03  0.11544283506E+03  0.50400000000E-02 0. -1.
    8880022    1    1    2    0    0  0.60618066852E+02  0.45013900374E+02  0.17056340669E+03  0.24121428228E+03  0.15294330000E+03 0. -1.
    8880022    1    1    2    0    0 -0.60618066852E+02 -0.45013900374E+02  0.10663304806E+02  0.17089809929E+03  0.15294330000E+03 0. -1.
<mgrwt>
<rscale>  0 0.17056510E+03</rscale>
<asrwt>0</asrwt>
<pdfrwt beam="1">  1        1 0.17760437E-01 0.17056510E+03</pdfrwt>
<pdfrwt beam="2">  1       -1 0.45641468E-01 0.17056510E+03</pdfrwt>
<totfact> 0.14320192E+03</totfact>
</mgrwt>
</event>
<event>
 4    1  0.2293715E-008  0.5717168E+03  0.7818608E-02  0.9965887E-01
         -1   -1    0    0    0  501 -0.00000000000E+00  0.00000000000E+00  0.91429255633E+03  0.91429255634E+03  0.50400000000E-02 0.  1.
          1   -1    0    0  501    0  0.00000000000E+00 -0.00000000000E+00 -0.47339323838E+03  0.47339323841E+03  0.50400000000E-02 0. -1.
    8880022    1    1    2    0    0  0.52318374939E+03 -0.17247368067E+03 -0.12285382213E+03  0.58476757843E+03  0.15294330000E+03 0.  0.
    8880022    1    1    2    0    0 -0.52318374939E+03  0.17247368067E+03  0.56375314008E+03  0.80291821633E+03  0.15294330000E+03 0.  0.
<mgrwt>
<rscale>  0 0.57171676E+03</rscale>
<asrwt>0</asrwt>
<pdfrwt beam="1">  1        1 0.72829729E-01 0.57171676E+03</pdfrwt>
<pdfrwt beam="2">  1       -1 0.14066039E+00 0.57171676E+03</pdfrwt>
<totfact> 0.20739808E+01</totfact>
</mgrwt>
</event>
<event>
 4    1  0.2293715E-008  0.8894991E+03  0.7818608E-02  0.9438804E-01
          1   -1    0    0  501    0  0.00000000000E+00  0.00000000000E+00  0.16038072870E+04  0.16038072870E+04  0.50400000000E-02 0. -1.
         -1   -1    0    0    0  501 -0.00000000000E+00 -0.00000000000E+00 -0.80608157864E+03  0.80608157865E+03  0.50400000000E-02 0.  1.
    8880022    1    1    2    0    0  0.82626711048E+03  0.29171834869E+03  0.11494070397E+04  0.14533909071E+04  0.15294330000E+03 0.  0.
    8880022    1    1    2    0    0 -0.82626711048E+03 -0.29171834869E+03 -0.35168133140E+03  0.95649795854E+03  0.15294330000E+03 0.  1.
<mgrwt>
<rscale>  0 0.88949906E+03</rscale>
<asrwt>0</asrwt>
<pdfrwt beam="1">  1        1 0.24673958E+00 0.88949906E+03</pdfrwt>
<pdfrwt beam="2">  1       -1 0.12401255E+00 0.88949906E+03</pdfrwt>
<totfact> 0.32356943E+00</totfact>
</mgrwt>
</event>
<event>
 4    1  0.2293715E-008  0.1999583E+03  0.7818608E-02  0.1149774E+00
         -1   -1    0    0    0  501 -0.00000000000E+00  0.00000000000E+00  0.12087860003E+02  0.12087861054E+02  0.50400000000E-02 0.  1.
          1   -1    0    0  501    0  0.00000000000E+00 -0.00000000000E+00 -0.34149729374E+04  0.34149729374E+04  0.50400000000E-02 0. -1.
    8880022    1    1    2    0    0  0.10787865368E+03 -0.70383819249E+02 -0.20051036843E+04  0.20150494098E+04  0.15294330000E+03 0.  1.
    8880022    1    1    2    0    0 -0.10787865368E+03  0.70383819249E+02 -0.13977813931E+04  0.14120113887E+04  0.15294330000E+03 0.  0.
<mgrwt>
<rscale>  0 0.19995834E+03</rscale>
<asrwt>0</asrwt>
<pdfrwt beam="1">  1        1 0.52537968E+00 0.19995834E+03</pdfrwt>
<pdfrwt beam="2">  1       -1 0.18596736E-02 0.19995834E+03</pdfrwt>
<totfact> 0.28228509E+02</totfact>
</mgrwt>
</event>
<event>
 4    1  0.2293715E-008  0.1026053E+04  0.7818608E-02  0.9280423E-01
         -1   -1    0    0    0  501 -0.00000000000E+00  0.00000000000E+00  0.51219636782E+03  0.51219636784E+03  0.50400000000E-02 0.  1.
          1   -1    0    0  501    0  0.00000000000E+00 -0.00000000000E+00 -0.22180306059E+04  0.22180306059E+04  0.50400000000E-02 0. -1.
    8880022    1    1    2    0    0 -0.23424075773E+03  0.98718031491E+03 -0.48330861775E+03  0.11341836623E+04  0.15294330000E+03 0.  0.
    8880022    1    1    2    0    0  0.23424075773E+03 -0.98718031491E+03 -0.12225256203E+04  0.15960433114E+04  0.15294330000E+03 0.  0.
<mgrwt>
<rscale>  0 0.10260533E+04</rscale>
<asrwt>0</asrwt>
<pdfrwt beam="1">  1        1 0.34123547E+00 0.10260533E+04</pdfrwt>
<pdfrwt beam="2">  1       -1 0.78799443E-01 0.10260533E+04</pdfrwt>
<totfact> 0.34483145E+00</totfact>
</mgrwt>
</event>
<event>
 4    1  0.2293715E-008  0.1840772E+03  0.7818608E-02  0.1163914E+00
          1   -1    0    0  501    0  0.00000000000E+00  0.00000000000E+00  0.29730500926E+04  0.29730500926E+04  0.50400000000E-02 0. -1.
         -1   -1    0    0    0  501 -0.00000000000E+00 -0.00000000000E+00 -0.28293446324E+03  0.28293446329E+03  0.50400000000E-02 0.  1.
    8880022    1    1    2    0    0  0.88800393286E+02  0.51061298127E+02 -0.24980796969E+03  0.31030378784E+03  0.15294330000E+03 0.  0.
    8880022    1    1    2    0    0 -0.88800393286E+02 -0.51061298127E+02  0.29399235990E+04  0.29456807680E+04  0.15294330000E+03 0. -1.
<mgrwt>
<rscale>  0 0.18407721E+03</rscale>
<asrwt>0</asrwt>
<pdfrwt beam="1">  1        1 0.45739231E+00 0.18407721E+03</pdfrwt>
<pdfrwt beam="2">  1       -1 0.43528381E-01 0.18407721E+03</pdfrwt>
<totfact> 0.43217846E+00</totfact>
</mgrwt>
</event>
<event>
 4    1  0.2293715E-008  0.3643498E+03  0.7818608E-02  0.1056875E+00
          1   -1    0    0  501    0  0.00000000000E+00  0.00000000000E+00  0.39667404975E+03  0.39667404978E+03  0.50400000000E-02 0. -1.
         -1   -1    0    0    0  501 -0.00000000000E+00 -0.00000000000E+00 -0.74991555375E+03  0.74991555376E+03  0.50400000000E-02 0.  1.
    8880022    1    1    2    0    0 -0.27913749672E+03  0.17731721406E+03 -0.60322948662E+03  0.70472448731E+03  0.15294330000E+03 0.  0.
    8880022    1    1    2    0    0  0.27913749672E+03 -0.17731721406E+03  0.24998798262E+03  0.44186511624E+03  0.15294330000E+03 0.  0.
<mgrwt>
<rscale>  0 0.36434982E+03</rscale>
<asrwt>0</asrwt>
<pdfrwt beam="1">  1        1 0.61026777E-01 0.36434982E+03</pdfrwt>
<pdfrwt beam="2">  1       -1 0.11537162E+00 0.36434982E+03</pdfrwt>
<totfact> 0.44205698E+01</totfact>
</mgrwt>
</event>
<event>
 4    1  0.2293715E-008  0.3035828E+03  0.7818608E-02  0.1083463E+00
         -1   -1    0    0    0  501 -0.00000000000E+00  0.00000000000E+00  0.12507141160E+03  0.12507141171E+03  0.50400000000E-02 0.  1.
          1   -1    0    0  501    0  0.00000000000E+00 -0.00000000000E+00 -0.90204634221E+03  0.90204634223E+03  0.50400000000E-02 0. -1.
    8880022    1    1    2    0    0  0.17573336613E+03  0.19465010010E+03 -0.60824185123E+03  0.67979458665E+03  0.15294330000E+03 0.  0.
    8880022    1    1    2    0    0 -0.17573336613E+03 -0.19465010010E+03 -0.16873307938E+03  0.34732316728E+03  0.15294330000E+03 0.  1.
<mgrwt>
<rscale>  0 0.30358282E+03</rscale>
<asrwt>0</asrwt>
<pdfrwt beam="1">  1        1 0.13877636E+00 0.30358282E+03</pdfrwt>
<pdfrwt beam="2">  1       -1 0.19241756E-01 0.30358282E+03</pdfrwt>
<totfact> 0.40993657E+02</totfact>
</mgrwt>
</event>
<event>
 4    1  0.2293715E-008  0.7989833E+03  0.7818608E-02  0.9561490E-01
          1   -1    0    0  501    0  0.00000000000E+00  0.00000000000E+00  0.13158383724E+04  0.13158383724E+04  0.50400000000E-02 0. -1.
         -1   -1    0    0    0  501 -0.00000000000E+00 -0.00000000000E+00 -0.10595234749E+04  0.10595234749E+04  0.50400000000E-02 0.  1.
    8880022    1    1    2    0    0 -0.67919009052E+03  0.39202474700E+03  0.10026236782E+04  0.12820407460E+04  0.15294330000E+03 0.  0.
    8880022    1    1    2    0    0  0.67919009052E+03 -0.39202474700E+03 -0.74630878075E+03  0.10933211013E+04  0.15294330000E+03 0.  0.
<mgrwt>
<rscale>  0 0.79898325E+03</rscale>
<asrwt>0</asrwt>
<pdfrwt beam="1">  1        1 0.20243667E+00 0.79898325E+03</pdfrwt>
<pdfrwt beam="2">  1       -1 0.16300361E+00 0.79898325E+03</pdfrwt>
<totfact> 0.25297378E+00</totfact>
</mgrwt>
</event>
<event>
 4    1  0.2293715E-008  0.2189386E+03  0.7818608E-02  0.1134677E+00
          1   -1    0    0  501    0  0.00000000000E+00  0.00000000000E+00  0.59811641298E+03  0.59811641300E+03  0.50400000000E-02 0. -1.
         -1   -1    0    0    0  501 -0.00000000000E+00 -0.00000000000E+00 -0.13108435621E+03  0.13108435631E+03  0.50400000000E-02 0.  1.
    8880022    1    1    2    0    0  0.61466036544E+02  0.14409848286E+03  0.62250251222E+01  0.21902705396E+03  0.15294330000E+03 0.  0.
    8880022    1    1    2    0    0 -0.61466036544E+02 -0.14409848286E+03  0.46080703164E+03  0.51017371535E+03  0.15294330000E+03 0.  0.
<mgrwt>
<rscale>  0 0.21893857E+03</rscale>
<asrwt>0</asrwt>
<pdfrwt beam="1">  1        1 0.92017910E-01 0.21893857E+03</pdfrwt>
<pdfrwt beam="2">  1       -1 0.20166824E-01 0.21893857E+03</pdfrwt>
<totfact> 0.70633216E+02</totfact>
</mgrwt>
</event>
<event>
 4    1  0.2293715E-008  0.4660044E+03  0.7818608E-02  0.1023054E+00
          1   -1    0    0  501    0  0.00000000000E+00  0.00000000000E+00  0.97073105381E+03  0.97073105382E+03  0.50400000000E-02 0. -1.
         -1   -1    0    0    0  501 -0.00000000000E+00 -0.00000000000E+00 -0.91464409174E+03  0.91464409176E+03  0.50400000000E-02 0.  1.
    8880022    1    1    2    0    0 -0.73852137792E+02  0.43395195890E+03 -0.79129003819E+03  0.91831368194E+03  0.15294330000E+03 0.  0.
    8880022    1    1    2    0    0  0.73852137792E+02 -0.43395195890E+03  0.84737700025E+03  0.96706146364E+03  0.15294330000E+03 0.  0.
<mgrwt>
<rscale>  0 0.46600439E+03</rscale>
<asrwt>0</asrwt>
<pdfrwt beam="1">  1        1 0.14934324E+00 0.46600439E+03</pdfrwt>
<pdfrwt beam="2">  1       -1 0.14071448E+00 0.46600439E+03</pdfrwt>
<totfact> 0.71992181E+00</totfact>
</mgrwt>
</event>
<event>
 4    1  0.2293715E-008  0.4645798E+03  0.7818608E-02  0.1023461E+00
          1   -1    0    0  501    0  0.00000000000E+00  0.00000000000E+00  0.61365411785E+03  0.61365411787E+03  0.50400000000E-02 0. -1.
         -1   -1    0    0    0  501 -0.00000000000E+00 -0.00000000000E+00 -0.12316381422E+04  0.12316381422E+04  0.50400000000E-02 0.  1.
    8880022    1    1    2    0    0 -0.43060273563E+03 -0.83809470854E+02  0.47086457996E+03  0.66147399723E+03  0.15294330000E+03 0.  0.
    8880022    1    1    2    0    0  0.43060273563E+03  0.83809470854E+02 -0.10888486043E+04  0.11838182629E+04  0.15294330000E+03 0.  0.
<mgrwt>
<rscale>  0 0.46457981E+03</rscale>
<asrwt>0</asrwt>
<pdfrwt beam="1">  1        1 0.94408326E-01 0.46457981E+03</pdfrwt>
<pdfrwt beam="2">  1       -1 0.18948279E+00 0.46457981E+03</pdfrwt>
<totfact> 0.64298466E+00</totfact>
</mgrwt>
</event>
<event>
 4    1  0.2293715E-008  0.8050914E+03  0.7818608E-02  0.9552677E-01
         -1   -1    0    0    0  501 -0.00000000000E+00  0.00000000000E+00  0.95960436028E+03  0.95960436029E+03  0.50400000000E-02 0.  1.
          1   -1    0    0  501    0  0.00000000000E+00 -0.00000000000E+00 -0.92005347535E+03  0.92005347536E+03  0.50400000000E-02 0. -1.
    8880022    1    1    2    0    0  0.30863442524E+03 -0.72768483886E+03  0.50435691735E+03  0.95002525558E+03  0.15294330000E+03 0.  0.
    8880022    1    1    2    0    0 -0.30863442524E+03  0.72768483886E+03 -0.46480603242E+03  0.92963258007E+03  0.15294330000E+03 0.  0.
<mgrwt>
<rscale>  0 0.80509135E+03</rscale>
<asrwt>0</asrwt>
<pdfrwt beam="1">  1        1 0.14154669E+00 0.80509135E+03</pdfrwt>
<pdfrwt beam="2">  1       -1 0.14763144E+00 0.80509135E+03</pdfrwt>
<totfact> 0.65493153E+00</totfact>
</mgrwt>
</event>
<event>
 4    1  0.2293715E-008  0.6373599E+03  0.7818608E-02  0.9830791E-01
          1   -1    0    0  501    0  0.00000000000E+00  0.00000000000E+00  0.36812570259E+04  0.36812570259E+04  0.50400000000E-02 0. -1.
         -1   -1    0    0    0  501 -0.00000000000E+00 -0.00000000000E+00 -0.15040733450E+03  0.15040733458E+03  0.50400000000E-02 0.  1.
    8880022    1    1    2    0    0 -0.15538892542E+03  0.59890755163E+03  0.77672917025E+03  0.10047566026E+04  0.15294330000E+03 0.  0.
    8880022    1    1    2    0    0  0.15538892542E+03 -0.59890755163E+03  0.27541205212E+04  0.28269077579E+04  0.15294330000E+03 0.  0.
<mgrwt>
<rscale>  0 0.63735989E+03</rscale>
<asrwt>0</asrwt>
<pdfrwt beam="1">  1        1 0.56634721E+00 0.63735989E+03</pdfrwt>
<pdfrwt beam="2">  1       -1 0.23139591E-01 0.63735989E+03</pdfrwt>
<totfact> 0.31826515E+00</totfact>
</mgrwt>
</event>
<event>
 4    1  0.2293715E-008  0.1899230E+03  0.7818608E-02  0.1158531E+00
          1   -1    0    0  501    0  0.00000000000E+00  0.00000000000E+00  0.59130488669E+03  0.59130488671E+03  0.50400000000E-02 0. -1.
         -1   -1    0    0    0  501 -0.00000000000E+00 -0.00000000000E+00 -0.68188887887E+03  0.68188887888E+03  0.50400000000E-02 0.  1.
    8880022    1    1    2    0    0 -0.58795489713E+02 -0.96032224381E+02 -0.65274678850E+03  0.67981550486E+03  0.15294330000E+03 0.  0.
    8880022    1    1    2    0    0  0.58795489713E+02  0.96032224381E+02  0.56216279632E+03  0.59337826074E+03  0.15294330000E+03 0. -1.
<mgrwt>
<rscale>  0 0.18992301E+03</rscale>
<asrwt>0</asrwt>
<pdfrwt beam="1">  1        1 0.90969983E-01 0.18992301E+03</pdfrwt>
<pdfrwt beam="2">  1       -1 0.10490598E+00 0.18992301E+03</pdfrwt>
<totfact> 0.33885474E+01</totfact>
</mgrwt>
</event>
<event>
 4    1  0.2293715E-008  0.5272635E+03  0.7818608E-02  0.1006898E+00
          1   -1    0    0  501    0  0.00000000000E+00  0.00000000000E+00  0.77596018882E+03  0.77596018883E+03  0.50400000000E-02 0. -1.
         -1   -1    0    0    0  501 -0.00000000000E+00 -0.00000000000E+00 -0.78583439512E+03  0.78583439513E+03  0.50400000000E-02 0.  1.
    8880022    1    1    2    0    0 -0.43814855367E+03 -0.25028180043E+03  0.57106869539E+03  0.77725558382E+03  0.15294330000E+03 0.  0.
    8880022    1    1    2    0    0  0.43814855367E+03  0.25028180043E+03 -0.58094290168E+03  0.78453900014E+03  0.15294330000E+03 0.  0.
<mgrwt>
<rscale>  0 0.52726349E+03</rscale>
<asrwt>0</asrwt>
<pdfrwt beam="1">  1        1 0.11937849E+00 0.52726349E+03</pdfrwt>
<pdfrwt beam="2">  1       -1 0.12089760E+00 0.52726349E+03</pdfrwt>
<totfact> 0.15002098E+01</totfact>
</mgrwt>
</event>
<event>
 4    1  0.2293715E-008  0.2726553E+03  0.7818608E-02  0.1099769E+00
         -1   -1    0    0    0  501 -0.00000000000E+00  0.00000000000E+00  0.38249485947E+03  0.38249485950E+03  0.50400000000E-02 0.  1.
          1   -1    0    0  501    0  0.00000000000E+00 -0.00000000000E+00 -0.39146979017E+03  0.39146979020E+03  0.50400000000E-02 0. -1.
    8880022    1    1    2    0    0  0.22298370302E+03 -0.35035720608E+02  0.27011121521E+03  0.38379806556E+03  0.15294330000E+03 0.  0.
    8880022    1    1    2    0    0 -0.22298370302E+03  0.35035720608E+02 -0.27908614591E+03  0.39016658415E+03  0.15294330000E+03 0.  0.
<mgrwt>
<rscale>  0 0.27265525E+03</rscale>
<asrwt>0</asrwt>
<pdfrwt beam="1">  1        1 0.60226122E-01 0.27265525E+03</pdfrwt>
<pdfrwt beam="2">  1       -1 0.58845363E-01 0.27265525E+03</pdfrwt>
<totfact> 0.18974039E+02</totfact>
</mgrwt>
</event>
<event>
 4    1  0.2293715E-008  0.4142911E+03  0.7818608E-02  0.1038941E+00
         -1   -1    0    0    0  501 -0.00000000000E+00  0.00000000000E+00  0.40777877303E+03  0.40777877306E+03  0.50400000000E-02 0.  1.
          1   -1    0    0  501    0  0.00000000000E+00 -0.00000000000E+00 -0.17690274287E+04  0.17690274287E+04  0.50400000000E-02 0. -1.
    8880022    1    1    2    0    0  0.68507794947E+02 -0.37888271286E+03 -0.16307625217E+04  0.16825645554E+04  0.15294330000E+03 0.  0.
    8880022    1    1    2    0    0 -0.68507794947E+02  0.37888271286E+03  0.26951386595E+03  0.49424164639E+03  0.15294330000E+03 0.  0.
<mgrwt>
<rscale>  0 0.41429106E+03</rscale>
<asrwt>0</asrwt>
<pdfrwt beam="1">  1        1 0.27215806E+00 0.41429106E+03</pdfrwt>
<pdfrwt beam="2">  1       -1 0.62735197E-01 0.41429106E+03</pdfrwt>
<totfact> 0.12288580E+01</totfact>
</mgrwt>
</event>
<event>
 4    1  0.2293715E-008  0.3424932E+03  0.7818608E-02  0.1065739E+00
         -1   -1    0    0    0  501 -0.00000000000E+00  0.00000000000E+00  0.18214392591E+04  0.18214392591E+04  0.50400000000E-02 0.  1.
          1   -1    0    0  501    0  0.00000000000E+00 -0.00000000000E+00 -0.13762387470E+04  0.13762387471E+04  0.50400000000E-02 0. -1.
    8880022    1    1    2    0    0  0.20212456971E+03 -0.23033806685E+03 -0.13383820712E+04  0.13815093876E+04  0.15294330000E+03 0.  0.
    8880022    1    1    2    0    0 -0.20212456971E+03  0.23033806685E+03  0.17835825832E+04  0.18161686185E+04  0.15294330000E+03 0.  1.
<mgrwt>
<rscale>  0 0.34249324E+03</rscale>
<asrwt>0</asrwt>
<pdfrwt beam="1">  1        1 0.21172904E+00 0.34249324E+03</pdfrwt>
<pdfrwt beam="2">  1       -1 0.28022143E+00 0.34249324E+03</pdfrwt>
<totfact> 0.43450906E-01</totfact>
</mgrwt>
</event>
<event>
 4    1  0.2293715E-008  0.2624177E+03  0.7818608E-02  0.1105699E+00
         -1   -1    0    0    0  501 -0.00000000000E+00  0.00000000000E+00  0.42333735274E+02  0.42333735574E+02  0.50400000000E-02 0.  1.
          1   -1    0    0  501    0  0.00000000000E+00 -0.00000000000E+00 -0.28817500918E+04  0.28817500918E+04  0.50400000000E-02 0. -1.
    8880022    1    1    2    0    0  0.21222061462E+03  0.20827725769E+02 -0.45484150084E+03  0.52511315669E+03  0.15294330000E+03 0.  0.
    8880022    1    1    2    0    0 -0.21222061462E+03 -0.20827725769E+02 -0.23845748557E+04  0.23989706707E+04  0.15294330000E+03 0.  0.
<mgrwt>
<rscale>  0 0.26241768E+03</rscale>
<asrwt>0</asrwt>
<pdfrwt beam="1">  1        1 0.44334601E+00 0.26241768E+03</pdfrwt>
<pdfrwt beam="2">  1       -1 0.65128846E-02 0.26241768E+03</pdfrwt>
<totfact> 0.10346575E+02</totfact>
</mgrwt>
</event>
<event>
 4    1  0.2293715E-008  0.3288384E+03  0.7818608E-02  0.1071652E+00
         -1   -1    0    0    0  501 -0.00000000000E+00  0.00000000000E+00  0.78749289062E+03  0.78749289064E+03  0.50400000000E-02 0.  1.
          1   -1    0    0  501    0  0.00000000000E+00 -0.00000000000E+00 -0.12444179258E+04  0.12444179258E+04  0.50400000000E-02 0. -1.
    8880022    1    1    2    0    0 -0.25989633773E+03  0.13113707973E+03  0.72980218198E+03  0.80046606292E+03  0.15294330000E+03 0.  0.
    8880022    1    1    2    0    0  0.25989633773E+03 -0.13113707973E+03 -0.11867272172E+04  0.12314447535E+04  0.15294330000E+03 0.  0.
<mgrwt>
<rscale>  0 0.32883840E+03</rscale>
<asrwt>0</asrwt>
<pdfrwt beam="1">  1        1 0.19144891E+00 0.32883840E+03</pdfrwt>
<pdfrwt beam="2">  1       -1 0.12115275E+00 0.32883840E+03</pdfrwt>
<totfact> 0.68678977E+00</totfact>
</mgrwt>
</event>
<event>
 4    1  0.2293715E-008  0.2450318E+03  0.7818608E-02  0.1116485E+00
          1   -1    0    0  501    0  0.00000000000E+00  0.00000000000E+00  0.15133318796E+04  0.15133318796E+04  0.50400000000E-02 0. -1.
         -1   -1    0    0    0  501 -0.00000000000E+00 -0.00000000000E+00 -0.90450353345E+02  0.90450353485E+02  0.50400000000E-02 0.  1.
    8880022    1    1    2    0    0 -0.10308908173E+03  0.16131197987E+03  0.13122536238E+04  0.13349345077E+04  0.15294330000E+03 0. -1.
    8880022    1    1    2    0    0  0.10308908173E+03 -0.16131197987E+03  0.11062790239E+03  0.26884772535E+03  0.15294330000E+03 0.  0.
<mgrwt>
<rscale>  0 0.24503177E+03</rscale>
<asrwt>0</asrwt>
<pdfrwt beam="1">  1        1 0.23282028E+00 0.24503177E+03</pdfrwt>
<pdfrwt beam="2">  1       -1 0.13915440E-01 0.24503177E+03</pdfrwt>
<totfact> 0.25658910E+02</totfact>
</mgrwt>
</event>
<event>
 4    1  0.2293715E-008  0.2876163E+03  0.7818608E-02  0.1091600E+00
         -1   -1    0    0    0  501 -0.00000000000E+00  0.00000000000E+00  0.14893114384E+03  0.14893114392E+03  0.50400000000E-02 0.  1.
          1   -1    0    0  501    0  0.00000000000E+00 -0.00000000000E+00 -0.10876303296E+04  0.10876303296E+04  0.50400000000E-02 0. -1.
    8880022    1    1    2    0    0 -0.10647387191E+03 -0.21907708972E+03 -0.36859292395E+02  0.28996847603E+03  0.15294330000E+03 0.  0.
    8880022    1    1    2    0    0  0.10647387191E+03  0.21907708972E+03 -0.90183989339E+03  0.94659299753E+03  0.15294330000E+03 0.  0.
<mgrwt>
<rscale>  0 0.28761625E+03</rscale>
<asrwt>0</asrwt>
<pdfrwt beam="1">  1        1 0.16732774E+00 0.28761625E+03</pdfrwt>
<pdfrwt beam="2">  1       -1 0.22912484E-01 0.28761625E+03</pdfrwt>
<totfact> 0.22318628E+02</totfact>
</mgrwt>
</event>
<event>
 4    1  0.2293715E-008  0.7262102E+03  0.7818608E-02  0.9673430E-01
          1   -1    0    0  501    0  0.00000000000E+00  0.00000000000E+00  0.38471262931E+04  0.38471262931E+04  0.50400000000E-02 0. -1.
         -1   -1    0    0    0  501 -0.00000000000E+00 -0.00000000000E+00 -0.18531674161E+03  0.18531674168E+03  0.50400000000E-02 0.  1.
    8880022    1    1    2    0    0  0.34499051483E+03 -0.62046042850E+03  0.28595125351E+04  0.29502869674E+04  0.15294330000E+03 0.  0.
    8880022    1    1    2    0    0 -0.34499051483E+03  0.62046042850E+03  0.80229701645E+03  0.10821560674E+04  0.15294330000E+03 0.  0.
<mgrwt>
<rscale>  0 0.72621020E+03</rscale>
<asrwt>0</asrwt>
<pdfrwt beam="1">  1        1 0.59186563E+00 0.72621020E+03</pdfrwt>
<pdfrwt beam="2">  1       -1 0.28510266E-01 0.72621020E+03</pdfrwt>
<totfact> 0.15995854E+00</totfact>
</mgrwt>
</event>
<event>
 4    1  0.2293715E-008  0.8109968E+03  0.7818608E-02  0.9544235E-01
         -1   -1    0    0    0  501 -0.00000000000E+00  0.00000000000E+00  0.12785540686E+04  0.12785540687E+04  0.50400000000E-02 0.  1.
          1   -1    0    0  501    0  0.00000000000E+00 -0.00000000000E+00 -0.11128630985E+04  0.11128630985E+04  0.50400000000E-02 0. -1.
    8880022    1    1    2    0    0  0.15938556171E+03 -0.78033356615E+03  0.95967530498E+03  0.12564603359E+04  0.15294330000E+03 0.  0.
    8880022    1    1    2    0    0 -0.15938556171E+03  0.78033356615E+03 -0.79398433481E+03  0.11349568312E+04  0.15294330000E+03 0.  0.
<mgrwt>
<rscale>  0 0.81099685E+03</rscale>
<asrwt>0</asrwt>
<pdfrwt beam="1">  1        1 0.17120971E+00 0.81099685E+03</pdfrwt>
<pdfrwt beam="2">  1       -1 0.19670063E+00 0.81099685E+03</pdfrwt>
<totfact> 0.20322789E+00</totfact>
</mgrwt>
</event>
<event>
 4    1  0.2293715E-008  0.2392808E+03  0.7818608E-02  0.1120273E+00
         -1   -1    0    0    0  501 -0.00000000000E+00  0.00000000000E+00  0.80036556637E+02  0.80036556796E+02  0.50400000000E-02 0.  1.
          1   -1    0    0  501    0  0.00000000000E+00 -0.00000000000E+00 -0.92506020258E+03  0.92506020260E+03  0.50400000000E-02 0. -1.
    8880022    1    1    2    0    0 -0.10825814183E+03 -0.14880806757E+03 -0.66178143295E+03  0.70371157746E+03  0.15294330000E+03 0. -1.
    8880022    1    1    2    0    0  0.10825814183E+03  0.14880806757E+03 -0.18324221300E+03  0.30138518193E+03  0.15294330000E+03 0.  0.
<mgrwt>
<rscale>  0 0.23928084E+03</rscale>
<asrwt>0</asrwt>
<pdfrwt beam="1">  1        1 0.14231695E+00 0.23928084E+03</pdfrwt>
<pdfrwt beam="2">  1       -1 0.12313317E-01 0.23928084E+03</pdfrwt>
<totfact> 0.80605381E+02</totfact>
</mgrwt>
</event>
<event>
 4    1  0.2293715E-008  0.1028478E+04  0.7818608E-02  0.9277851E-01
          1   -1    0    0  501    0  0.00000000000E+00  0.00000000000E+00  0.17913701252E+04  0.17913701252E+04  0.50400000000E-02 0. -1.
         -1   -1    0    0    0  501 -0.00000000000E+00 -0.00000000000E+00 -0.10855662237E+04  0.10855662237E+04  0.50400000000E-02 0.  1.
    8880022    1    1    2    0    0  0.41829651868E+03  0.92703973620E+03 -0.61853135595E+03  0.12001447168E+04  0.15294330000E+03 0.  0.
    8880022    1    1    2    0    0 -0.41829651868E+03 -0.92703973620E+03  0.13243352575E+04  0.16767916320E+04  0.15294330000E+03 0.  0.
<mgrwt>
<rscale>  0 0.10284777E+04</rscale>
<asrwt>0</asrwt>
<pdfrwt beam="1">  1        1 0.27559540E+00 0.10284777E+04</pdfrwt>
<pdfrwt beam="2">  1       -1 0.16701019E+00 0.10284777E+04</pdfrwt>
<totfact> 0.10739161E+00</totfact>
</mgrwt>
</event>
<event>
 4    1  0.2293715E-008  0.5885465E+03  0.7818608E-02  0.9929457E-01
         -1   -1    0    0    0  501 -0.00000000000E+00  0.00000000000E+00  0.25164212742E+04  0.25164212742E+04  0.50400000000E-02 0.  1.
          1   -1    0    0  501    0  0.00000000000E+00 -0.00000000000E+00 -0.15790400723E+03  0.15790400731E+03  0.50400000000E-02 0. -1.
    8880022    1    1    2    0    0 -0.21650030026E+03  0.52547405753E+03  0.70036816250E+03  0.91482379790E+03  0.15294330000E+03 0.  0.
    8880022    1    1    2    0    0  0.21650030026E+03 -0.52547405753E+03  0.16581491044E+04  0.17595014836E+04  0.15294330000E+03 0.  0.
<mgrwt>
<rscale>  0 0.58854653E+03</rscale>
<asrwt>0</asrwt>
<pdfrwt beam="1">  1        1 0.24292926E-01 0.58854653E+03</pdfrwt>
<pdfrwt beam="2">  1       -1 0.38714170E+00 0.58854653E+03</pdfrwt>
<totfact> 0.19400519E+00</totfact>
</mgrwt>
</event>
<event>
 4    1  0.2293715E-008  0.5623558E+03  0.7818608E-02  0.9986738E-01
         -1   -1    0    0    0  501 -0.00000000000E+00  0.00000000000E+00  0.26118498746E+04  0.26118498746E+04  0.50400000000E-02 0.  1.
          1   -1    0    0  501    0  0.00000000000E+00 -0.00000000000E+00 -0.31610314963E+03  0.31610314967E+03  0.50400000000E-02 0. -1.
    8880022    1    1    2    0    0  0.49665639633E+03 -0.21490659101E+03 -0.20323485777E+01  0.56235949564E+03  0.15294330000E+03 0. -1.
    8880022    1    1    2    0    0 -0.49665639633E+03  0.21490659101E+03  0.22977790736E+04  0.23655935287E+04  0.15294330000E+03 0.  0.
<mgrwt>
<rscale>  0 0.56235582E+03</rscale>
<asrwt>0</asrwt>
<pdfrwt beam="1">  1        1 0.48631254E-01 0.56235582E+03</pdfrwt>
<pdfrwt beam="2">  1       -1 0.40182306E+00 0.56235582E+03</pdfrwt>
<totfact> 0.63462636E-01</totfact>
</mgrwt>
</event>
<event>
 4    1  0.2293715E-008  0.6398133E+03  0.7818608E-02  0.9826084E-01
          1   -1    0    0  501    0  0.00000000000E+00  0.00000000000E+00  0.22803094967E+04  0.22803094967E+04  0.50400000000E-02 0. -1.
         -1   -1    0    0    0  501 -0.00000000000E+00 -0.00000000000E+00 -0.47281381363E+03  0.47281381365E+03  0.50400000000E-02 0.  1.
    8880022    1    1    2    0    0 -0.42795949158E+03  0.45035555765E+03  0.19879295060E+04  0.20883545744E+04  0.15294330000E+03 0.  0.
    8880022    1    1    2    0    0  0.42795949158E+03 -0.45035555765E+03 -0.18043382295E+03  0.66476873589E+03  0.15294330000E+03 0.  0.
<mgrwt>
<rscale>  0 0.63981334E+03</rscale>
<asrwt>0</asrwt>
<pdfrwt beam="1">  1        1 0.35081684E+00 0.63981334E+03</pdfrwt>
<pdfrwt beam="2">  1       -1 0.72740588E-01 0.63981334E+03</pdfrwt>
<totfact> 0.39512970E+00</totfact>
</mgrwt>
</event>
<event>
 4    1  0.2293715E-008  0.8854630E+03  0.7818608E-02  0.9443938E-01
         -1   -1    0    0    0  501 -0.00000000000E+00  0.00000000000E+00  0.83767495376E+03  0.83767495377E+03  0.50400000000E-02 0.  1.
          1   -1    0    0  501    0  0.00000000000E+00 -0.00000000000E+00 -0.14996539627E+04  0.14996539627E+04  0.50400000000E-02 0. -1.
    8880022    1    1    2    0    0 -0.75911507533E+03 -0.42941507365E+03 -0.10474782504E+04  0.13715886195E+04  0.15294330000E+03 0.  0.
    8880022    1    1    2    0    0  0.75911507533E+03  0.42941507365E+03  0.38549924144E+03  0.96574029699E+03  0.15294330000E+03 0.  0.
<mgrwt>
<rscale>  0 0.88546296E+03</rscale>
<asrwt>0</asrwt>
<pdfrwt beam="1">  1        1 0.23071599E+00 0.88546296E+03</pdfrwt>
<pdfrwt beam="2">  1       -1 0.12887307E+00 0.88546296E+03</pdfrwt>
<totfact> 0.34655969E+00</totfact>
</mgrwt>
</event>
<event>
 4    1  0.2293715E-008  0.8452056E+03  0.7818608E-02  0.9496795E-01
         -1   -1    0    0    0  501 -0.00000000000E+00  0.00000000000E+00  0.12550105526E+04  0.12550105527E+04  0.50400000000E-02 0.  1.
          1   -1    0    0  501    0  0.00000000000E+00 -0.00000000000E+00 -0.11818280783E+04  0.11818280784E+04  0.50400000000E-02 0. -1.
    8880022    1    1    2    0    0 -0.66488359355E+03  0.49890941259E+03  0.91381886038E+03  0.12447639766E+04  0.15294330000E+03 0.  0.
    8880022    1    1    2    0    0  0.66488359355E+03 -0.49890941259E+03 -0.84063638608E+03  0.11920746544E+04  0.15294330000E+03 0.  0.
<mgrwt>
<rscale>  0 0.84520557E+03</rscale>
<asrwt>0</asrwt>
<pdfrwt beam="1">  1        1 0.18181970E+00 0.84520557E+03</pdfrwt>
<pdfrwt beam="2">  1       -1 0.19307855E+00 0.84520557E+03</pdfrwt>
<totfact> 0.19044080E+00</totfact>
</mgrwt>
</event>
<event>
 4    1  0.2293715E-008  0.3258310E+03  0.7818608E-02  0.1072997E+00
         -1   -1    0    0    0  501 -0.00000000000E+00  0.00000000000E+00  0.34238179292E+03  0.34238179296E+03  0.50400000000E-02 0.  1.
          1   -1    0    0  501    0  0.00000000000E+00 -0.00000000000E+00 -0.30044462215E+04  0.30044462215E+04  0.50400000000E-02 0. -1.
    8880022    1    1    2    0    0 -0.43308777883E+02  0.28442666238E+03 -0.29157410362E+04  0.29338901853E+04  0.15294330000E+03 0.  0.
    8880022    1    1    2    0    0  0.43308777883E+02 -0.28442666238E+03  0.25367660756E+03  0.41293782917E+03  0.15294330000E+03 0.  1.
<mgrwt>
<rscale>  0 0.32583098E+03</rscale>
<asrwt>0</asrwt>
<pdfrwt beam="1">  1        1 0.46222248E+00 0.32583098E+03</pdfrwt>
<pdfrwt beam="2">  1       -1 0.52674124E-01 0.32583098E+03</pdfrwt>
<totfact> 0.26396499E+00</totfact>
</mgrwt>
</event>
<event>
 4    1  0.2293715E-008  0.7259658E+03  0.7818608E-02  0.9673829E-01
         -1   -1    0    0    0  501 -0.00000000000E+00  0.00000000000E+00  0.67526700769E+03  0.67526700771E+03  0.50400000000E-02 0.  1.
          1   -1    0    0  501    0  0.00000000000E+00 -0.00000000000E+00 -0.11528474646E+04  0.11528474646E+04  0.50400000000E-02 0. -1.
    8880022    1    1    2    0    0  0.40685535048E+03 -0.58146665659E+03 -0.75828179953E+03  0.10497703032E+04  0.15294330000E+03 0.  0.
    8880022    1    1    2    0    0 -0.40685535048E+03  0.58146665659E+03  0.28070134259E+03  0.77834416917E+03  0.15294330000E+03 0.  0.
<mgrwt>
<rscale>  0 0.72596584E+03</rscale>
<asrwt>0</asrwt>
<pdfrwt beam="1">  1        1 0.17736115E+00 0.72596584E+03</pdfrwt>
<pdfrwt beam="2">  1       -1 0.10388723E+00 0.72596584E+03</pdfrwt>
<totfact> 0.10481044E+01</totfact>
</mgrwt>
</event>
<event>
 4    1  0.2293715E-008  0.6777143E+03  0.7818608E-02  0.9756121E-01
          1   -1    0    0  501    0  0.00000000000E+00  0.00000000000E+00  0.14535827063E+04  0.14535827063E+04  0.50400000000E-02 0. -1.
         -1   -1    0    0    0  501 -0.00000000000E+00 -0.00000000000E+00 -0.42950750178E+03  0.42950750181E+03  0.50400000000E-02 0.  1.
    8880022    1    1    2    0    0 -0.50489874072E+02  0.65829766744E+03  0.99611484644E+03  0.12047993554E+04  0.15294330000E+03 0.  0.
    8880022    1    1    2    0    0  0.50489874072E+02 -0.65829766744E+03  0.27960358098E+02  0.67829085279E+03  0.15294330000E+03 0.  0.
<mgrwt>
<rscale>  0 0.67771432E+03</rscale>
<asrwt>0</asrwt>
<pdfrwt beam="1">  1        1 0.22362810E+00 0.67771432E+03</pdfrwt>
<pdfrwt beam="2">  1       -1 0.66078079E-01 0.67771432E+03</pdfrwt>
<totfact> 0.17104140E+01</totfact>
</mgrwt>
</event>
<event>
 4    1  0.2293715E-008  0.1043487E+04  0.7818608E-02  0.9262094E-01
          1   -1    0    0  501    0  0.00000000000E+00  0.00000000000E+00  0.15150265897E+04  0.15150265897E+04  0.50400000000E-02 0. -1.
         -1   -1    0    0    0  501 -0.00000000000E+00 -0.00000000000E+00 -0.11369203173E+04  0.11369203174E+04  0.50400000000E-02 0.  1.
    8880022    1    1    2    0    0  0.53030372402E+03 -0.88557964866E+03  0.99325875386E+03  0.14406345682E+04  0.15294330000E+03 0.  0.
    8880022    1    1    2    0    0 -0.53030372402E+03  0.88557964866E+03 -0.61515248152E+03  0.12113123389E+04  0.15294330000E+03 0.  0.
<mgrwt>
<rscale>  0 0.10434869E+04</rscale>
<asrwt>0</asrwt>
<pdfrwt beam="1">  1        1 0.23308101E+00 0.10434869E+04</pdfrwt>
<pdfrwt beam="2">  1       -1 0.17491082E+00 0.10434869E+04</pdfrwt>
<totfact> 0.14467436E+00</totfact>
</mgrwt>
</event>
<event>
 4    1  0.2293715E-008  0.6403167E+03  0.7818608E-02  0.9825121E-01
          1   -1    0    0  501    0  0.00000000000E+00  0.00000000000E+00  0.15353679341E+04  0.15353679341E+04  0.50400000000E-02 0. -1.
         -1   -1    0    0    0  501 -0.00000000000E+00 -0.00000000000E+00 -0.61763849672E+03  0.61763849674E+03  0.50400000000E-02 0.  1.
    8880022    1    1    2    0    0 -0.18536189907E+03  0.59351058514E+03  0.12699244424E+04  0.14222213578E+04  0.15294330000E+03 0.  0.
    8880022    1    1    2    0    0  0.18536189907E+03 -0.59351058514E+03 -0.35219500504E+03  0.73078507298E+03  0.15294330000E+03 0.  0.
<mgrwt>
<rscale>  0 0.64031672E+03</rscale>
<asrwt>0</asrwt>
<pdfrwt beam="1">  1        1 0.23621045E+00 0.64031672E+03</pdfrwt>
<pdfrwt beam="2">  1       -1 0.95021309E-01 0.64031672E+03</pdfrwt>
<totfact> 0.70191746E+00</totfact>
</mgrwt>
</event>
<event>
 4    1  0.2293715E-008  0.7930049E+03  0.7818608E-02  0.9570198E-01
         -1   -1    0    0    0  501 -0.00000000000E+00  0.00000000000E+00  0.73758643849E+03  0.73758643851E+03  0.50400000000E-02 0.  1.
          1   -1    0    0  501    0  0.00000000000E+00 -0.00000000000E+00 -0.11103532225E+04  0.11103532225E+04  0.50400000000E-02 0. -1.
    8880022    1    1    2    0    0 -0.33629273627E+03 -0.70169242140E+03  0.25880117273E+03  0.83416710481E+03  0.15294330000E+03 0.  0.
    8880022    1    1    2    0    0  0.33629273627E+03  0.70169242140E+03 -0.63156795671E+03  0.10137725562E+04  0.15294330000E+03 0.  0.
<mgrwt>
<rscale>  0 0.79300486E+03</rscale>
<asrwt>0</asrwt>
<pdfrwt beam="1">  1        1 0.17082357E+00 0.79300486E+03</pdfrwt>
<pdfrwt beam="2">  1       -1 0.11347484E+00 0.79300486E+03</pdfrwt>
<totfact> 0.90729923E+00</totfact>
</mgrwt>
</event>
<event>
 4    1  0.2293715E-008  0.5181785E+03  0.7818608E-02  0.1009140E+00
         -1   -1    0    0    0  501 -0.00000000000E+00  0.00000000000E+00  0.75397838917E+03  0.75397838919E+03  0.50400000000E-02 0.  1.
          1   -1    0    0  501    0  0.00000000000E+00 -0.00000000000E+00 -0.56406950728E+03  0.56406950730E+03  0.50400000000E-02 0. -1.
    8880022    1    1    2    0    0  0.94987137308E+01 -0.49500206900E+03 -0.30518454308E+03  0.60137054486E+03  0.15294330000E+03 0.  0.
    8880022    1    1    2    0    0 -0.94987137308E+01  0.49500206900E+03  0.49509342497E+03  0.71667735163E+03  0.15294330000E+03 0.  0.
<mgrwt>
<rscale>  0 0.51817847E+03</rscale>
<asrwt>0</asrwt>
<pdfrwt beam="1">  1        1 0.86779924E-01 0.51817847E+03</pdfrwt>
<pdfrwt beam="2">  1       -1 0.11599668E+00 0.51817847E+03</pdfrwt>
<totfact> 0.26533105E+01</totfact>
</mgrwt>
</event>
<event>
 4    1  0.2293715E-008  0.2944386E+03  0.7818608E-02  0.1088054E+00
         -1   -1    0    0    0  501 -0.00000000000E+00  0.00000000000E+00  0.78868648563E+02  0.78868648724E+02  0.50400000000E-02 0.  1.
          1   -1    0    0  501    0  0.00000000000E+00 -0.00000000000E+00 -0.15157186385E+04  0.15157186385E+04  0.50400000000E-02 0. -1.
    8880022    1    1    2    0    0  0.25053326424E+03 -0.23141476431E+02 -0.30048384969E+03  0.42069542589E+03  0.15294330000E+03 0.  1.
    8880022    1    1    2    0    0 -0.25053326424E+03  0.23141476431E+02 -0.11363661403E+04  0.11738918614E+04  0.15294330000E+03 0.  0.
<mgrwt>
<rscale>  0 0.29443861E+03</rscale>
<asrwt>0</asrwt>
<pdfrwt beam="1">  1        1 0.23318746E+00 0.29443861E+03</pdfrwt>
<pdfrwt beam="2">  1       -1 0.12133639E-01 0.29443861E+03</pdfrwt>
<totfact> 0.31458002E+02</totfact>
</mgrwt>
</event>
<event>
 4    1  0.2293715E-008  0.3050190E+03  0.7818608E-02  0.1082758E+00
         -1   -1    0    0    0  501 -0.00000000000E+00  0.00000000000E+00  0.89891858931E+02  0.89891859072E+02  0.50400000000E-02 0.  1.
          1   -1    0    0  501    0  0.00000000000E+00 -0.00000000000E+00 -0.12539527533E+04  0.12539527534E+04  0.50400000000E-02 0. -1.
    8880022    1    1    2    0    0 -0.17092933095E+03 -0.20106744686E+03 -0.86281283220E+03  0.91514074917E+03  0.15294330000E+03 0.  0.
    8880022    1    1    2    0    0  0.17092933095E+03  0.20106744686E+03 -0.30124806221E+03  0.42870386326E+03  0.15294330000E+03 0.  1.
<mgrwt>
<rscale>  0 0.30501903E+03</rscale>
<asrwt>0</asrwt>
<pdfrwt beam="1">  1        1 0.19291580E+00 0.30501903E+03</pdfrwt>
<pdfrwt beam="2">  1       -1 0.13829518E-01 0.30501903E+03</pdfrwt>
<totfact> 0.38436848E+02</totfact>
</mgrwt>
</event>
<event>
 4    1  0.3681914E-008  0.5892490E+03  0.7818608E-02  0.9927965E-01
          1   -1    0    0  501    0  0.00000000000E+00  0.00000000000E+00  0.11708293711E+04  0.11708293711E+04  0.50400000000E-02 0. -1.
         -1   -1    0    0    0  501 -0.00000000000E+00 -0.00000000000E+00 -0.13625693122E+04  0.13625693122E+04  0.50400000000E-02 0.  1.
    8880022    1    1    2    0    0 -0.36430467903E+03 -0.43715541499E+03 -0.12162772364E+04  0.13514972160E+04  0.15294330000E+03 0.  0.
    8880022    1    1    2    0    0  0.36430467903E+03  0.43715541499E+03  0.10245372953E+04  0.11819014673E+04  0.15294330000E+03 0.  0.
<mgrwt>
<rscale>  0 0.58924902E+03</rscale>
<asrwt>0</asrwt>
<pdfrwt beam="1">  1        1 0.18012760E+00 0.58924902E+03</pdfrwt>
<pdfrwt beam="2">  1       -1 0.20962605E+00 0.58924902E+03</pdfrwt>
<totfact> 0.15742115E+00</totfact>
</mgrwt>
</event>
<event>
 4    1  0.2293715E-008  0.3590309E+03  0.7818608E-02  0.1058968E+00
          1   -1    0    0  501    0  0.00000000000E+00  0.00000000000E+00  0.40162254474E+03  0.40162254477E+03  0.50400000000E-02 0. -1.
         -1   -1    0    0    0  501 -0.00000000000E+00 -0.00000000000E+00 -0.45759069557E+03  0.45759069560E+03  0.50400000000E-02 0.  1.
    8880022    1    1    2    0    0  0.20898776752E+03  0.24866776400E+03  0.20676978636E+03  0.41431502675E+03  0.15294330000E+03 0.  0.
    8880022    1    1    2    0    0 -0.20898776752E+03 -0.24866776400E+03 -0.26273793719E+03  0.44489821362E+03  0.15294330000E+03 0.  0.
<mgrwt>
<rscale>  0 0.35903091E+03</rscale>
<asrwt>0</asrwt>
<pdfrwt beam="1">  1        1 0.61788084E-01 0.35903091E+03</pdfrwt>
<pdfrwt beam="2">  1       -1 0.70398568E-01 0.35903091E+03</pdfrwt>
<totfact> 0.12764192E+02</totfact>
</mgrwt>
</event>
<event>
 4    1  0.2293715E-008  0.1989931E+03  0.7818608E-02  0.1150591E+00
          1   -1    0    0  501    0  0.00000000000E+00  0.00000000000E+00  0.15639010285E+04  0.15639010286E+04  0.50400000000E-02 0. -1.
         -1   -1    0    0    0  501 -0.00000000000E+00 -0.00000000000E+00 -0.28762520219E+02  0.28762520660E+02  0.50400000000E-02 0.  1.
    8880022    1    1    2    0    0 -0.12730289898E+03 -0.75124382603E+00  0.10430605558E+04  0.10618726706E+04  0.15294330000E+03 0.  0.
    8880022    1    1    2    0    0  0.12730289898E+03  0.75124382603E+00  0.49207795249E+03  0.53079087859E+03  0.15294330000E+03 0.  0.
<mgrwt>
<rscale>  0 0.19899308E+03</rscale>
<asrwt>0</asrwt>
<pdfrwt beam="1">  1        1 0.24060025E+00 0.19899308E+03</pdfrwt>
<pdfrwt beam="2">  1       -1 0.44250015E-02 0.19899308E+03</pdfrwt>
<totfact> 0.13773130E+03</totfact>
</mgrwt>
</event>
<event>
 4    1  0.2293715E-008  0.3093045E+03  0.7818608E-02  0.1080680E+00
          1   -1    0    0  501    0  0.00000000000E+00  0.00000000000E+00  0.37166450638E+03  0.37166450641E+03  0.50400000000E-02 0. -1.
         -1   -1    0    0    0  501 -0.00000000000E+00 -0.00000000000E+00 -0.80674400151E+03  0.80674400152E+03  0.50400000000E-02 0.  1.
    8880022    1    1    2    0    0  0.26148108712E+03  0.62492312403E+02 -0.70374221207E+03  0.76871477291E+03  0.15294330000E+03 0.  0.
    8880022    1    1    2    0    0 -0.26148108712E+03 -0.62492312403E+02  0.26866271694E+03  0.40969373502E+03  0.15294330000E+03 0.  0.
<mgrwt>
<rscale>  0 0.30930454E+03</rscale>
<asrwt>0</asrwt>
<pdfrwt beam="1">  1        1 0.57179155E-01 0.30930454E+03</pdfrwt>
<pdfrwt beam="2">  1       -1 0.12411446E+00 0.30930454E+03</pdfrwt>
<totfact> 0.40791083E+01</totfact>
</mgrwt>
</event>
<event>
 4    1  0.2293715E-008  0.5329700E+03  0.7818608E-02  0.1005514E+00
          1   -1    0    0  501    0  0.00000000000E+00  0.00000000000E+00  0.15792166389E+04  0.15792166389E+04  0.50400000000E-02 0. -1.
         -1   -1    0    0    0  501 -0.00000000000E+00 -0.00000000000E+00 -0.23566426995E+03  0.23566427000E+03  0.50400000000E-02 0.  1.
    8880022    1    1    2    0    0 -0.16721462323E+03  0.48239472727E+03  0.23024865611E+03  0.58057859052E+03  0.15294330000E+03 0.  0.
    8880022    1    1    2    0    0  0.16721462323E+03 -0.48239472727E+03  0.11133037128E+04  0.12343023184E+04  0.15294330000E+03 0.  0.
<mgrwt>
<rscale>  0 0.53297003E+03</rscale>
<asrwt>0</asrwt>
<pdfrwt beam="1">  1        1 0.24295641E+00 0.53297003E+03</pdfrwt>
<pdfrwt beam="2">  1       -1 0.36256041E-01 0.53297003E+03</pdfrwt>
<totfact> 0.44542887E+01</totfact>
</mgrwt>
</event>
<event>
 4    1  0.2293715E-008  0.5550580E+03  0.7818608E-02  0.1000330E+00
          1   -1    0    0  501    0  0.00000000000E+00  0.00000000000E+00  0.40520021574E+03  0.40520021577E+03  0.50400000000E-02 0. -1.
         -1   -1    0    0    0  501 -0.00000000000E+00 -0.00000000000E+00 -0.94577602816E+03  0.94577602817E+03  0.50400000000E-02 0.  1.
    8880022    1    1    2    0    0 -0.17801717820E+03 -0.50299861687E+03  0.28816097935E+02  0.55580549190E+03  0.15294330000E+03 0.  0.
    8880022    1    1    2    0    0  0.17801717820E+03  0.50299861687E+03 -0.56939191036E+03  0.79517075204E+03  0.15294330000E+03 0.  0.
<mgrwt>
<rscale>  0 0.55505799E+03</rscale>
<asrwt>0</asrwt>
<pdfrwt beam="1">  1        1 0.62338495E-01 0.55505799E+03</pdfrwt>
<pdfrwt beam="2">  1       -1 0.14550400E+00 0.55505799E+03</pdfrwt>
<totfact> 0.23410680E+01</totfact>
</mgrwt>
</event>
<event>
 4    1  0.2293715E-008  0.6802306E+03  0.7818608E-02  0.9751651E-01
          1   -1    0    0  501    0  0.00000000000E+00  0.00000000000E+00  0.67048767390E+03  0.67048767392E+03  0.50400000000E-02 0. -1.
         -1   -1    0    0    0  501 -0.00000000000E+00 -0.00000000000E+00 -0.74008319984E+03  0.74008319986E+03  0.50400000000E-02 0.  1.
    8880022    1    1    2    0    0  0.58636877669E+03 -0.30902051263E+03  0.14846365077E+03  0.69624358390E+03  0.15294330000E+03 0. -1.
    8880022    1    1    2    0    0 -0.58636877669E+03  0.30902051263E+03 -0.21805917671E+03  0.71432728988E+03  0.15294330000E+03 0.  1.
<mgrwt>
<rscale>  0 0.68023060E+03</rscale>
<asrwt>0</asrwt>
<pdfrwt beam="1">  1        1 0.10315195E+00 0.68023060E+03</pdfrwt>
<pdfrwt beam="2">  1       -1 0.11385895E+00 0.68023060E+03</pdfrwt>
<totfact> 0.21155103E+01</totfact>
</mgrwt>
</event>
<event>
 4    1  0.2293715E-008  0.7271557E+03  0.7818608E-02  0.9671887E-01
         -1   -1    0    0    0  501 -0.00000000000E+00  0.00000000000E+00  0.22521812108E+03  0.22521812114E+03  0.50400000000E-02 0.  1.
          1   -1    0    0  501    0  0.00000000000E+00 -0.00000000000E+00 -0.24816271481E+04  0.24816271481E+04  0.50400000000E-02 0. -1.
    8880022    1    1    2    0    0 -0.47794902427E+03 -0.52623989024E+03 -0.14425606837E+04  0.16154679419E+04  0.15294330000E+03 0.  0.
    8880022    1    1    2    0    0  0.47794902427E+03  0.52623989024E+03 -0.81384834330E+03  0.10913773274E+04  0.15294330000E+03 0.  0.
<mgrwt>
<rscale>  0 0.72715565E+03</rscale>
<asrwt>0</asrwt>
<pdfrwt beam="1">  1        1 0.38178877E+00 0.72715565E+03</pdfrwt>
<pdfrwt beam="2">  1       -1 0.34648943E-01 0.72715565E+03</pdfrwt>
<totfact> 0.11638768E+01</totfact>
</mgrwt>
</event>
<event>
 4    1  0.2293715E-008  0.3407295E+03  0.7818608E-02  0.1066486E+00
          1   -1    0    0  501    0  0.00000000000E+00  0.00000000000E+00  0.50219721042E+03  0.50219721045E+03  0.50400000000E-02 0. -1.
         -1   -1    0    0    0  501 -0.00000000000E+00 -0.00000000000E+00 -0.46744261653E+03  0.46744261656E+03  0.50400000000E-02 0.  1.
    8880022    1    1    2    0    0 -0.24806770417E+03  0.17654272075E+03  0.36205749026E+03  0.49717421229E+03  0.15294330000E+03 0.  0.
    8880022    1    1    2    0    0  0.24806770417E+03 -0.17654272075E+03 -0.32730289637E+03  0.47246561472E+03  0.15294330000E+03 0.  1.
<mgrwt>
<rscale>  0 0.34072947E+03</rscale>
<asrwt>0</asrwt>
<pdfrwt beam="1">  1        1 0.77261109E-01 0.34072947E+03</pdfrwt>
<pdfrwt beam="2">  1       -1 0.71914249E-01 0.34072947E+03</pdfrwt>
<totfact> 0.91230553E+01</totfact>
</mgrwt>
</event>
<event>
 4    1  0.2293715E-008  0.4060020E+03  0.7818608E-02  0.1041721E+00
         -1   -1    0    0    0  501 -0.00000000000E+00  0.00000000000E+00  0.19971225276E+03  0.19971225283E+03  0.50400000000E-02 0.  1.
          1   -1    0    0  501    0  0.00000000000E+00 -0.00000000000E+00 -0.18094144858E+04  0.18094144858E+04  0.50400000000E-02 0. -1.
    8880022    1    1    2    0    0 -0.56358868720E+02  0.37184623455E+03 -0.15456741253E+04  0.15981070361E+04  0.15294330000E+03 0.  0.
    8880022    1    1    2    0    0  0.56358868720E+02 -0.37184623455E+03 -0.64028107685E+02  0.41101970247E+03  0.15294330000E+03 0.  1.
<mgrwt>
<rscale>  0 0.40600197E+03</rscale>
<asrwt>0</asrwt>
<pdfrwt beam="1">  1        1 0.27837145E+00 0.40600197E+03</pdfrwt>
<pdfrwt beam="2">  1       -1 0.30724963E-01 0.40600197E+03</pdfrwt>
<totfact> 0.42881871E+01</totfact>
</mgrwt>
</event>
<event>
 4    1  0.2293715E-008  0.3198716E+03  0.7818608E-02  0.1075708E+00
         -1   -1    0    0    0  501 -0.00000000000E+00  0.00000000000E+00  0.36905337486E+03  0.36905337490E+03  0.50400000000E-02 0.  1.
          1   -1    0    0  501    0  0.00000000000E+00 -0.00000000000E+00 -0.12852927826E+04  0.12852927827E+04  0.50400000000E-02 0. -1.
    8880022    1    1    2    0    0 -0.15088164573E+03  0.23698298458E+03 -0.11906677546E+04  0.12328858669E+04  0.15294330000E+03 0.  0.
    8880022    1    1    2    0    0  0.15088164573E+03 -0.23698298458E+03  0.27442834684E+03  0.42146029061E+03  0.15294330000E+03 0.  0.
<mgrwt>
<rscale>  0 0.31987163E+03</rscale>
<asrwt>0</asrwt>
<pdfrwt beam="1">  1        1 0.19773735E+00 0.31987163E+03</pdfrwt>
<pdfrwt beam="2">  1       -1 0.56777443E-01 0.31987163E+03</pdfrwt>
<totfact> 0.32339744E+01</totfact>
</mgrwt>
</event>
<event>
 4    1  0.2293715E-008  0.4856339E+03  0.7818608E-02  0.1017598E+00
         -1   -1    0    0    0  501 -0.00000000000E+00  0.00000000000E+00  0.13555558735E+03  0.13555558744E+03  0.50400000000E-02 0.  1.
          1   -1    0    0  501    0  0.00000000000E+00 -0.00000000000E+00 -0.27066749859E+04  0.27066749859E+04  0.50400000000E-02 0. -1.
    8880022    1    1    2    0    0 -0.30323851903E+03  0.34712400589E+03 -0.21349264007E+04  0.21894636477E+04  0.15294330000E+03 0.  0.
    8880022    1    1    2    0    0  0.30323851903E+03 -0.34712400589E+03 -0.43619299777E+03  0.65276692564E+03  0.15294330000E+03 0.  0.
<mgrwt>
<rscale>  0 0.48563394E+03</rscale>
<asrwt>0</asrwt>
<pdfrwt beam="1">  1        1 0.41641150E+00 0.48563394E+03</pdfrwt>
<pdfrwt beam="2">  1       -1 0.20854708E-01 0.48563394E+03</pdfrwt>
<totfact> 0.20436188E+01</totfact>
</mgrwt>
</event>
<event>
 4    1  0.2293715E-008  0.3962306E+03  0.7818608E-02  0.1045093E+00
         -1   -1    0    0    0  501 -0.00000000000E+00  0.00000000000E+00  0.55252451688E+03  0.55252451690E+03  0.50400000000E-02 0.  1.
          1   -1    0    0  501    0  0.00000000000E+00 -0.00000000000E+00 -0.38671439845E+03  0.38671439848E+03  0.50400000000E-02 0. -1.
    8880022    1    1    2    0    0 -0.33317587129E+03  0.15033583351E+03  0.32475929167E+03  0.51231560057E+03  0.15294330000E+03 0.  0.
    8880022    1    1    2    0    0  0.33317587129E+03 -0.15033583351E+03 -0.15894917324E+03  0.42692331482E+03  0.15294330000E+03 0.  0.
<mgrwt>
<rscale>  0 0.39623059E+03</rscale>
<asrwt>0</asrwt>
<pdfrwt beam="1">  1        1 0.59494523E-01 0.39623059E+03</pdfrwt>
<pdfrwt beam="2">  1       -1 0.85003772E-01 0.39623059E+03</pdfrwt>
<totfact> 0.90261511E+01</totfact>
</mgrwt>
</event>
<event>
 4    1  0.2293715E-008  0.6347745E+03  0.7818608E-02  0.9835776E-01
         -1   -1    0    0    0  501 -0.00000000000E+00  0.00000000000E+00  0.20528308979E+03  0.20528308985E+03  0.50400000000E-02 0.  1.
          1   -1    0    0  501    0  0.00000000000E+00 -0.00000000000E+00 -0.40070560013E+04  0.40070560013E+04  0.50400000000E-02 0. -1.
    8880022    1    1    2    0    0  0.29033305764E+03 -0.54337260530E+03 -0.39655489672E+03  0.74846142965E+03  0.15294330000E+03 0.  0.
    8880022    1    1    2    0    0 -0.29033305764E+03  0.54337260530E+03 -0.34052180148E+04  0.34638776615E+04  0.15294330000E+03 0.  0.
<mgrwt>
<rscale>  0 0.63477455E+03</rscale>
<asrwt>0</asrwt>
<pdfrwt beam="1">  1        1 0.61647009E+00 0.63477455E+03</pdfrwt>
<pdfrwt beam="2">  1       -1 0.31582017E-01 0.63477455E+03</pdfrwt>
<totfact> 0.10034740E+00</totfact>
</mgrwt>
</event>
<event>
 4    1  0.2293715E-008  0.4792414E+03  0.7818608E-02  0.1019344E+00
          1   -1    0    0  501    0  0.00000000000E+00  0.00000000000E+00  0.16907669928E+04  0.16907669928E+04  0.50400000000E-02 0. -1.
         -1   -1    0    0    0  501 -0.00000000000E+00 -0.00000000000E+00 -0.21414578252E+03  0.21414578258E+03  0.50400000000E-02 0.  1.
    8880022    1    1    2    0    0  0.35344135107E+03  0.28523649536E+03  0.16235409171E+03  0.50599520852E+03  0.15294330000E+03 0.  0.
    8880022    1    1    2    0    0 -0.35344135107E+03 -0.28523649536E+03  0.13142671186E+04  0.13989175669E+04  0.15294330000E+03 0.  0.
<mgrwt>
<rscale>  0 0.47924138E+03</rscale>
<asrwt>0</asrwt>
<pdfrwt beam="1">  1        1 0.26011800E+00 0.47924138E+03</pdfrwt>
<pdfrwt beam="2">  1       -1 0.32945505E-01 0.47924138E+03</pdfrwt>
<totfact> 0.44832498E+01</totfact>
</mgrwt>
</event>
<event>
 4    1  0.2293715E-008  0.2695716E+03  0.7818608E-02  0.1101525E+00
         -1   -1    0    0    0  501 -0.00000000000E+00  0.00000000000E+00  0.22591177215E+03  0.22591177221E+03  0.50400000000E-02 0.  1.
          1   -1    0    0  501    0  0.00000000000E+00 -0.00000000000E+00 -0.26925978377E+04  0.26925978377E+04  0.50400000000E-02 0. -1.
    8880022    1    1    2    0    0 -0.11143500350E+03 -0.19198811003E+03 -0.26026620243E+04  0.26165852672E+04  0.15294330000E+03 0. -1.
    8880022    1    1    2    0    0  0.11143500350E+03  0.19198811003E+03  0.13597595874E+03  0.30192434279E+03  0.15294330000E+03 0.  0.
<mgrwt>
<rscale>  0 0.26957160E+03</rscale>
<asrwt>0</asrwt>
<pdfrwt beam="1">  1        1 0.41424580E+00 0.26957160E+03</pdfrwt>
<pdfrwt beam="2">  1       -1 0.34755659E-01 0.26957160E+03</pdfrwt>
<totfact> 0.94486043E+00</totfact>
</mgrwt>
</event>
<event>
 4    1  0.2293715E-008  0.5291962E+03  0.7818608E-02  0.1006427E+00
         -1   -1    0    0    0  501 -0.00000000000E+00  0.00000000000E+00  0.82640556269E+03  0.82640556270E+03  0.50400000000E-02 0.  1.
          1   -1    0    0  501    0  0.00000000000E+00 -0.00000000000E+00 -0.47959354211E+03  0.47959354214E+03  0.50400000000E-02 0. -1.
    8880022    1    1    2    0    0  0.34254980301E+03  0.37325132307E+03  0.52711912595E+03  0.74692914234E+03  0.15294330000E+03 0.  0.
    8880022    1    1    2    0    0 -0.34254980301E+03 -0.37325132307E+03 -0.18030710537E+03  0.55906996251E+03  0.15294330000E+03 0.  0.
<mgrwt>
<rscale>  0 0.52919616E+03</rscale>
<asrwt>0</asrwt>
<pdfrwt beam="1">  1        1 0.73783622E-01 0.52919616E+03</pdfrwt>
<pdfrwt beam="2">  1       -1 0.12713932E+00 0.52919616E+03</pdfrwt>
<totfact> 0.26482552E+01</totfact>
</mgrwt>
</event>
<event>
 4    1  0.2293715E-008  0.1963355E+03  0.7818608E-02  0.1152868E+00
         -1   -1    0    0    0  501 -0.00000000000E+00  0.00000000000E+00  0.41305477527E+03  0.41305477530E+03  0.50400000000E-02 0.  1.
          1   -1    0    0  501    0  0.00000000000E+00 -0.00000000000E+00 -0.12332070100E+03  0.12332070110E+03  0.50400000000E-02 0. -1.
    8880022    1    1    2    0    0 -0.10998250524E+03  0.55315537318E+02  0.27713757453E+03  0.33963634723E+03  0.15294330000E+03 0.  1.
    8880022    1    1    2    0    0  0.10998250524E+03 -0.55315537318E+02  0.12596499735E+02  0.19673912917E+03  0.15294330000E+03 0.  1.
<mgrwt>
<rscale>  0 0.19633546E+03</rscale>
<asrwt>0</asrwt>
<pdfrwt beam="1">  1        1 0.18972416E-01 0.19633546E+03</pdfrwt>
<pdfrwt beam="2">  1       -1 0.63546887E-01 0.19633546E+03</pdfrwt>
<totfact> 0.71027826E+02</totfact>
</mgrwt>
</event>
<event>
 4    1  0.2293715E-008  0.2597623E+03  0.7818608E-02  0.1107286E+00
          1   -1    0    0  501    0  0.00000000000E+00  0.00000000000E+00  0.40805407343E+04  0.40805407344E+04  0.50400000000E-02 0. -1.
         -1   -1    0    0    0  501 -0.00000000000E+00 -0.00000000000E+00 -0.40186057967E+03  0.40186057970E+03  0.50400000000E-02 0.  1.
    8880022    1    1    2    0    0  0.11623271896E+02  0.20964178584E+03 -0.35526464976E+03  0.44010158282E+03  0.15294330000E+03 0.  0.
    8880022    1    1    2    0    0 -0.11623271896E+02 -0.20964178584E+03  0.40339448044E+04  0.40422997312E+04  0.15294330000E+03 0.  0.
<mgrwt>
<rscale>  0 0.25976226E+03</rscale>
<asrwt>0</asrwt>
<pdfrwt beam="1">  1        1 0.62777555E+00 0.25976226E+03</pdfrwt>
<pdfrwt beam="2">  1       -1 0.61824699E-01 0.25976226E+03</pdfrwt>
<totfact> 0.30154379E-01</totfact>
</mgrwt>
</event>
<event>
 4    1  0.2293715E-008  0.4926976E+03  0.7818608E-02  0.1015703E+00
         -1   -1    0    0    0  501 -0.00000000000E+00  0.00000000000E+00  0.30720499772E+03  0.30720499776E+03  0.50400000000E-02 0.  1.
          1   -1    0    0  501    0  0.00000000000E+00 -0.00000000000E+00 -0.21555008118E+04  0.21555008118E+04  0.50400000000E-02 0. -1.
    8880022    1    1    2    0    0  0.42816230184E+03 -0.18983241704E+03  0.55847133041E+02  0.49585265811E+03  0.15294330000E+03 0.  0.
    8880022    1    1    2    0    0 -0.42816230184E+03  0.18983241704E+03 -0.19041429471E+04  0.19668531514E+04  0.15294330000E+03 0.  0.
<mgrwt>
<rscale>  0 0.49269763E+03</rscale>
<asrwt>0</asrwt>
<pdfrwt beam="1">  1        1 0.33161550E+00 0.49269763E+03</pdfrwt>
<pdfrwt beam="2">  1       -1 0.47262309E-01 0.49269763E+03</pdfrwt>
<totfact> 0.11493021E+01</totfact>
</mgrwt>
</event>
<event>
 4    1  0.2293715E-008  0.2557255E+03  0.7818608E-02  0.1109739E+00
         -1   -1    0    0    0  501 -0.00000000000E+00  0.00000000000E+00  0.59253926341E+02  0.59253926556E+02  0.50400000000E-02 0.  1.
          1   -1    0    0  501    0  0.00000000000E+00 -0.00000000000E+00 -0.15695041937E+04  0.15695041937E+04  0.50400000000E-02 0. -1.
    8880022    1    1    2    0    0 -0.20365649882E+03 -0.22976547017E+02 -0.11988060707E+04  0.12257779323E+04  0.15294330000E+03 0.  0.
    8880022    1    1    2    0    0  0.20365649882E+03  0.22976547017E+02 -0.31144419670E+03  0.40298018797E+03  0.15294330000E+03 0.  0.
<mgrwt>
<rscale>  0 0.25572553E+03</rscale>
<asrwt>0</asrwt>
<pdfrwt beam="1">  1        1 0.24146215E+00 0.25572553E+03</pdfrwt>
<pdfrwt beam="2">  1       -1 0.91159899E-02 0.25572553E+03</pdfrwt>
<totfact> 0.45501171E+02</totfact>
</mgrwt>
</event>
<event>
 4    1  0.2293715E-008  0.3336876E+03  0.7818608E-02  0.1069517E+00
          1   -1    0    0  501    0  0.00000000000E+00  0.00000000000E+00  0.44296859493E+03  0.44296859496E+03  0.50400000000E-02 0. -1.
         -1   -1    0    0    0  501 -0.00000000000E+00 -0.00000000000E+00 -0.55437445011E+03  0.55437445013E+03  0.50400000000E-02 0.  1.
    8880022    1    1    2    0    0  0.22368919734E+02 -0.29572860310E+03 -0.42437482684E+03  0.53985314848E+03  0.15294330000E+03 0.  0.
    8880022    1    1    2    0    0 -0.22368919734E+02  0.29572860310E+03  0.31296897166E+03  0.45748989661E+03  0.15294330000E+03 0.  0.
<mgrwt>
<rscale>  0 0.33368762E+03</rscale>
<asrwt>0</asrwt>
<pdfrwt beam="1">  1        1 0.68149015E-01 0.33368762E+03</pdfrwt>
<pdfrwt beam="2">  1       -1 0.85288377E-01 0.33368762E+03</pdfrwt>
<totfact> 0.75717442E+01</totfact>
</mgrwt>
</event>
<event>
 4    1  0.2293715E-008  0.2115018E+03  0.7818608E-02  0.1140382E+00
         -1   -1    0    0    0  501 -0.00000000000E+00  0.00000000000E+00  0.10012119117E+03  0.10012119129E+03  0.50400000000E-02 0.  1.
          1   -1    0    0  501    0  0.00000000000E+00 -0.00000000000E+00 -0.21496755381E+04  0.21496755381E+04  0.50400000000E-02 0. -1.
    8880022    1    1    2    0    0 -0.92808053202E+01 -0.14579164592E+03 -0.23579673925E+02  0.21281210352E+03  0.15294330000E+03 0.  0.
    8880022    1    1    2    0    0  0.92808053202E+01  0.14579164592E+03 -0.20259746730E+04  0.20369846259E+04  0.15294330000E+03 0. -1.
<mgrwt>
<rscale>  0 0.21150175E+03</rscale>
<asrwt>0</asrwt>
<pdfrwt beam="1">  1        1 0.33071928E+00 0.21150175E+03</pdfrwt>
<pdfrwt beam="2">  1       -1 0.15403262E-01 0.21150175E+03</pdfrwt>
<totfact> 0.85214301E+01</totfact>
</mgrwt>
</event>
<event>
 4    1  0.2293715E-008  0.1450538E+04  0.7818608E-02  0.8918028E-01
         -1   -1    0    0    0  501 -0.00000000000E+00  0.00000000000E+00  0.26368370117E+04  0.26368370117E+04  0.50400000000E-02 0.  1.
          1   -1    0    0  501    0  0.00000000000E+00 -0.00000000000E+00 -0.84309347020E+03  0.84309347022E+03  0.50400000000E-02 0. -1.
    8880022    1    1    2    0    0  0.12870989794E+04 -0.65118669848E+03  0.49423960752E+03  0.15324269450E+04  0.15294330000E+03 0. -1.
    8880022    1    1    2    0    0 -0.12870989794E+04  0.65118669848E+03  0.12995039340E+04  0.19475035369E+04  0.15294330000E+03 0.  1.
<mgrwt>
<rscale>  0 0.14505377E+04</rscale>
<asrwt>0</asrwt>
<pdfrwt beam="1">  1        1 0.12970669E+00 0.14505377E+04</pdfrwt>
<pdfrwt beam="2">  1       -1 0.40566722E+00 0.14505377E+04</pdfrwt>
<totfact> 0.12764784E-01</totfact>
</mgrwt>
</event>
<event>
 4    1  0.2293715E-008  0.1094520E+04  0.7818608E-02  0.9210550E-01
         -1   -1    0    0    0  501 -0.00000000000E+00  0.00000000000E+00  0.10211988286E+04  0.10211988286E+04  0.50400000000E-02 0.  1.
          1   -1    0    0  501    0  0.00000000000E+00 -0.00000000000E+00 -0.16289180610E+04  0.16289180610E+04  0.50400000000E-02 0. -1.
    8880022    1    1    2    0    0  0.41158945622E+03 -0.10025848084E+04  0.39707679471E+03  0.11643211810E+04  0.15294330000E+03 0.  0.
    8880022    1    1    2    0    0 -0.41158945622E+03  0.10025848084E+04 -0.10047960271E+04  0.14857957086E+04  0.15294330000E+03 0.  0.
<mgrwt>
<rscale>  0 0.10945199E+04</rscale>
<asrwt>0</asrwt>
<pdfrwt beam="1">  1        1 0.25060278E+00 0.10945199E+04</pdfrwt>
<pdfrwt beam="2">  1       -1 0.15710751E+00 0.10945199E+04</pdfrwt>
<totfact> 0.16289596E+00</totfact>
</mgrwt>
</event>
<event>
 4    1  0.2293715E-008  0.3562892E+03  0.7818608E-02  0.1060063E+00
         -1   -1    0    0    0  501 -0.00000000000E+00  0.00000000000E+00  0.15531847814E+03  0.15531847822E+03  0.50400000000E-02 0.  1.
          1   -1    0    0  501    0  0.00000000000E+00 -0.00000000000E+00 -0.13360374365E+04  0.13360374366E+04  0.50400000000E-02 0. -1.
    8880022    1    1    2    0    0 -0.30720182693E+03  0.95798507440E+02 -0.12572085414E+03  0.37781966952E+03  0.15294330000E+03 0.  0.
    8880022    1    1    2    0    0  0.30720182693E+03 -0.95798507440E+02 -0.10549981043E+04  0.11135362453E+04  0.15294330000E+03 0.  0.
<mgrwt>
<rscale>  0 0.35628917E+03</rscale>
<asrwt>0</asrwt>
<pdfrwt beam="1">  1        1 0.20554421E+00 0.35628917E+03</pdfrwt>
<pdfrwt beam="2">  1       -1 0.23895151E-01 0.35628917E+03</pdfrwt>
<totfact> 0.13754704E+02</totfact>
</mgrwt>
</event>
<event>
 4    1  0.2293715E-008  0.6759874E+03  0.7818608E-02  0.9759202E-01
          1   -1    0    0  501    0  0.00000000000E+00  0.00000000000E+00  0.29520599012E+04  0.29520599012E+04  0.50400000000E-02 0. -1.
         -1   -1    0    0    0  501 -0.00000000000E+00 -0.00000000000E+00 -0.31551910193E+03  0.31551910197E+03  0.50400000000E-02 0.  1.
    8880022    1    1    2    0    0 -0.53681389608E+03  0.38131114920E+03  0.24843444052E+04  0.25746701008E+04  0.15294330000E+03 0.  0.
    8880022    1    1    2    0    0  0.53681389608E+03 -0.38131114920E+03  0.15219639405E+03  0.69290890231E+03  0.15294330000E+03 0.  0.
<mgrwt>
<rscale>  0 0.67598743E+03</rscale>
<asrwt>0</asrwt>
<pdfrwt beam="1">  1        1 0.45416308E+00 0.67598743E+03</pdfrwt>
<pdfrwt beam="2">  1       -1 0.48541398E-01 0.67598743E+03</pdfrwt>
<totfact> 0.29919498E+00</totfact>
</mgrwt>
</event>
<event>
 4    1  0.2293715E-008  0.8489146E+03  0.7818608E-02  0.9491795E-01
         -1   -1    0    0    0  501 -0.00000000000E+00  0.00000000000E+00  0.24706891487E+04  0.24706891487E+04  0.50400000000E-02 0.  1.
          1   -1    0    0  501    0  0.00000000000E+00 -0.00000000000E+00 -0.57899274274E+03  0.57899274276E+03  0.50400000000E-02 0. -1.
    8880022    1    1    2    0    0  0.57143364275E+02 -0.83306603256E+03  0.20199953295E+04  0.21911269162E+04  0.15294330000E+03 0.  0.
    8880022    1    1    2    0    0 -0.57143364275E+02  0.83306603256E+03 -0.12829892358E+03  0.85855497523E+03  0.15294330000E+03 0.  0.
<mgrwt>
<rscale>  0 0.84891462E+03</rscale>
<asrwt>0</asrwt>
<pdfrwt beam="1">  1        1 0.89075805E-01 0.84891462E+03</pdfrwt>
<pdfrwt beam="2">  1       -1 0.38010603E+00 0.84891462E+03</pdfrwt>
<totfact> 0.37007377E-01</totfact>
</mgrwt>
</event>
<event>
 4    1  0.2751851E-008  0.9634418E+03  0.7818608E-02  0.9349576E-01
         -1   -1    0    0    0  501 -0.00000000000E+00  0.00000000000E+00  0.13949941484E+04  0.13949941484E+04  0.50400000000E-02 0.  1.
          1   -1    0    0  501    0  0.00000000000E+00 -0.00000000000E+00 -0.14948525752E+04  0.14948525753E+04  0.50400000000E-02 0. -1.
    8880022    1    1    2    0    0 -0.76832011432E+03  0.56081419985E+03 -0.11262534418E+04  0.14821156611E+04  0.15294330000E+03 0.  0.
    8880022    1    1    2    0    0  0.76832011432E+03 -0.56081419985E+03  0.10263950149E+04  0.14077310625E+04  0.15294330000E+03 0.  0.
<mgrwt>
<rscale>  0 0.96344176E+03</rscale>
<asrwt>0</asrwt>
<pdfrwt beam="1">  1        1 0.22997732E+00 0.96344176E+03</pdfrwt>
<pdfrwt beam="2">  1       -1 0.21461449E+00 0.96344176E+03</pdfrwt>
<totfact> 0.80010131E-01</totfact>
</mgrwt>
</event>
<event>
 4    1  0.2293715E-008  0.7073906E+03  0.7818608E-02  0.9704676E-01
          1   -1    0    0  501    0  0.00000000000E+00  0.00000000000E+00  0.57922728463E+03  0.57922728465E+03  0.50400000000E-02 0. -1.
         -1   -1    0    0    0  501 -0.00000000000E+00 -0.00000000000E+00 -0.16894115534E+04  0.16894115534E+04  0.50400000000E-02 0.  1.
    8880022    1    1    2    0    0  0.60912436665E+03 -0.32554157534E+03 -0.13480060323E+04  0.15223408710E+04  0.15294330000E+03 0.  0.
    8880022    1    1    2    0    0 -0.60912436665E+03  0.32554157534E+03  0.23782176359E+03  0.74629796702E+03  0.15294330000E+03 0.  0.
<mgrwt>
<rscale>  0 0.70739060E+03</rscale>
<asrwt>0</asrwt>
<pdfrwt beam="1">  1        1 0.89111891E-01 0.70739060E+03</pdfrwt>
<pdfrwt beam="2">  1       -1 0.25990947E+00 0.70739060E+03</pdfrwt>
<totfact> 0.22813670E+00</totfact>
</mgrwt>
</event>
<event>
 4    1  0.2293715E-008  0.2545962E+03  0.7818608E-02  0.1110434E+00
         -1   -1    0    0    0  501 -0.00000000000E+00  0.00000000000E+00  0.13704239875E+03  0.13704239885E+03  0.50400000000E-02 0.  1.
          1   -1    0    0  501    0  0.00000000000E+00 -0.00000000000E+00 -0.86176907361E+03  0.86176907363E+03  0.50400000000E-02 0. -1.
    8880022    1    1    2    0    0  0.33166291589E+02 -0.20081723012E+03 -0.69780069132E+03  0.74279540967E+03  0.15294330000E+03 0.  0.
    8880022    1    1    2    0    0 -0.33166291589E+02  0.20081723012E+03 -0.26925983541E+02  0.25601606280E+03  0.15294330000E+03 0.  0.
<mgrwt>
<rscale>  0 0.25459618E+03</rscale>
<asrwt>0</asrwt>
<pdfrwt beam="1">  1        1 0.13257985E+00 0.25459618E+03</pdfrwt>
<pdfrwt beam="2">  1       -1 0.21083447E-01 0.25459618E+03</pdfrwt>
<totfact> 0.38198965E+02</totfact>
</mgrwt>
</event>
<event>
 4    1  0.2293715E-008  0.5003264E+03  0.7818608E-02  0.1013694E+00
          1   -1    0    0  501    0  0.00000000000E+00  0.00000000000E+00  0.95448976143E+03  0.95448976145E+03  0.50400000000E-02 0. -1.
         -1   -1    0    0    0  501 -0.00000000000E+00 -0.00000000000E+00 -0.44574338761E+03  0.44574338764E+03  0.50400000000E-02 0.  1.
    8880022    1    1    2    0    0 -0.39517300316E+03  0.26603217350E+03  0.70355670743E+03  0.86331831519E+03  0.15294330000E+03 0.  0.
    8880022    1    1    2    0    0  0.39517300316E+03 -0.26603217350E+03 -0.19481033361E+03  0.53691483390E+03  0.15294330000E+03 0.  0.
<mgrwt>
<rscale>  0 0.50032637E+03</rscale>
<asrwt>0</asrwt>
<pdfrwt beam="1">  1        1 0.14684458E+00 0.50032637E+03</pdfrwt>
<pdfrwt beam="2">  1       -1 0.68575907E-01 0.50032637E+03</pdfrwt>
<totfact> 0.37463273E+01</totfact>
</mgrwt>
</event>
<event>
 4    1  0.2293715E-008  0.6606767E+03  0.7818608E-02  0.9786949E-01
         -1   -1    0    0    0  501 -0.00000000000E+00  0.00000000000E+00  0.63175274654E+03  0.63175274656E+03  0.50400000000E-02 0.  1.
          1   -1    0    0  501    0  0.00000000000E+00 -0.00000000000E+00 -0.12781059711E+04  0.12781059711E+04  0.50400000000E-02 0. -1.
    8880022    1    1    2    0    0  0.37115580436E+02  0.64165763066E+03  0.32407601064E+03  0.73587974220E+03  0.15294330000E+03 0.  0.
    8880022    1    1    2    0    0 -0.37115580436E+02 -0.64165763066E+03 -0.97042923524E+03  0.11739789755E+04  0.15294330000E+03 0.  0.
<mgrwt>
<rscale>  0 0.66067672E+03</rscale>
<asrwt>0</asrwt>
<pdfrwt beam="1">  1        1 0.19663169E+00 0.66067672E+03</pdfrwt>
<pdfrwt beam="2">  1       -1 0.97192730E-01 0.66067672E+03</pdfrwt>
<totfact> 0.10015398E+01</totfact>
</mgrwt>
</event>
<event>
 4    1  0.2293715E-008  0.5870337E+03  0.7818608E-02  0.9932678E-01
         -1   -1    0    0    0  501 -0.00000000000E+00  0.00000000000E+00  0.77711583879E+03  0.77711583881E+03  0.50400000000E-02 0.  1.
          1   -1    0    0  501    0  0.00000000000E+00 -0.00000000000E+00 -0.13666662485E+04  0.13666662485E+04  0.50400000000E-02 0. -1.
    8880022    1    1    2    0    0 -0.56613393592E+03 -0.26632503321E+02 -0.11757676193E+04  0.13141682051E+04  0.15294330000E+03 0.  0.
    8880022    1    1    2    0    0  0.56613393592E+03  0.26632503321E+02  0.58621720963E+03  0.82961388219E+03  0.15294330000E+03 0.  0.
<mgrwt>
<rscale>  0 0.58703371E+03</rscale>
<asrwt>0</asrwt>
<pdfrwt beam="1">  1        1 0.21025635E+00 0.58703371E+03</pdfrwt>
<pdfrwt beam="2">  1       -1 0.11955628E+00 0.58703371E+03</pdfrwt>
<totfact> 0.54293463E+00</totfact>
</mgrwt>
</event>
<event>
 4    1  0.2293715E-008  0.1906700E+03  0.7818608E-02  0.1157858E+00
          1   -1    0    0  501    0  0.00000000000E+00  0.00000000000E+00  0.20363743147E+04  0.20363743147E+04  0.50400000000E-02 0. -1.
         -1   -1    0    0    0  501 -0.00000000000E+00 -0.00000000000E+00 -0.89091016053E+02  0.89091016195E+02  0.50400000000E-02 0.  1.
    8880022    1    1    2    0    0 -0.10701416187E+03 -0.38876237990E+02  0.19239477081E+04  0.19333726566E+04  0.15294330000E+03 0. -1.
    8880022    1    1    2    0    0  0.10701416187E+03  0.38876237990E+02  0.23335590538E+02  0.19209267431E+03  0.15294330000E+03 0.  0.
<mgrwt>
<rscale>  0 0.19066999E+03</rscale>
<asrwt>0</asrwt>
<pdfrwt beam="1">  1        1 0.31328835E+00 0.19066999E+03</pdfrwt>
<pdfrwt beam="2">  1       -1 0.13706310E-01 0.19066999E+03</pdfrwt>
<totfact> 0.12221476E+02</totfact>
</mgrwt>
</event>
<event>
 4    1  0.2293715E-008  0.7638667E+03  0.7818608E-02  0.9613843E-01
          1   -1    0    0  501    0  0.00000000000E+00  0.00000000000E+00  0.31598242207E+03  0.31598242211E+03  0.50400000000E-02 0. -1.
         -1   -1    0    0    0  501 -0.00000000000E+00 -0.00000000000E+00 -0.28316475753E+04  0.28316475753E+04  0.50400000000E-02 0.  1.
    8880022    1    1    2    0    0 -0.74838344203E+03 -0.47825423941E+01 -0.32958618880E+03  0.83193711174E+03  0.15294330000E+03 0.  0.
    8880022    1    1    2    0    0  0.74838344203E+03  0.47825423941E+01 -0.21860789645E+04  0.23156928857E+04  0.15294330000E+03 0.  0.
<mgrwt>
<rscale>  0 0.76386668E+03</rscale>
<asrwt>0</asrwt>
<pdfrwt beam="1">  1        1 0.48612682E-01 0.76386668E+03</pdfrwt>
<pdfrwt beam="2">  1       -1 0.43563807E+00 0.76386668E+03</pdfrwt>
<totfact> 0.35618624E-01</totfact>
</mgrwt>
</event>
<event>
 4    1  0.2293715E-008  0.7985158E+03  0.7818608E-02  0.9562168E-01
          1   -1    0    0  501    0  0.00000000000E+00  0.00000000000E+00  0.13046719512E+04  0.13046719512E+04  0.50400000000E-02 0. -1.
         -1   -1    0    0    0  501 -0.00000000000E+00 -0.00000000000E+00 -0.10500745390E+04  0.10500745390E+04  0.50400000000E-02 0.  1.
    8880022    1    1    2    0    0 -0.23499928337E+03  0.74767045255E+03  0.98813447159E+03  0.12704476202E+04  0.15294330000E+03 0.  0.
    8880022    1    1    2    0    0  0.23499928337E+03 -0.74767045255E+03 -0.73353705942E+03  0.10842988699E+04  0.15294330000E+03 0.  0.
<mgrwt>
<rscale>  0 0.79851576E+03</rscale>
<asrwt>0</asrwt>
<pdfrwt beam="1">  1        1 0.20071876E+00 0.79851576E+03</pdfrwt>
<pdfrwt beam="2">  1       -1 0.16154993E+00 0.79851576E+03</pdfrwt>
<totfact> 0.26417339E+00</totfact>
</mgrwt>
</event>
<event>
 4    1  0.2293715E-008  0.3504425E+03  0.7818608E-02  0.1062434E+00
         -1   -1    0    0    0  501 -0.00000000000E+00  0.00000000000E+00  0.15234957518E+03  0.15234957527E+03  0.50400000000E-02 0.  1.
          1   -1    0    0  501    0  0.00000000000E+00 -0.00000000000E+00 -0.13588899313E+04  0.13588899313E+04  0.50400000000E-02 0. -1.
    8880022    1    1    2    0    0 -0.26416368083E+03 -0.17215070728E+03 -0.12133491357E+03  0.37085324665E+03  0.15294330000E+03 0.  0.
    8880022    1    1    2    0    0  0.26416368083E+03  0.17215070728E+03 -0.10852054425E+04  0.11403862599E+04  0.15294330000E+03 0.  0.
<mgrwt>
<rscale>  0 0.35044253E+03</rscale>
<asrwt>0</asrwt>
<pdfrwt beam="1">  1        1 0.20905998E+00 0.35044253E+03</pdfrwt>
<pdfrwt beam="2">  1       -1 0.23438397E-01 0.35044253E+03</pdfrwt>
<totfact> 0.13716047E+02</totfact>
</mgrwt>
</event>
<event>
 4    1  0.2293715E-008  0.5388112E+03  0.7818608E-02  0.1004117E+00
          1   -1    0    0  501    0  0.00000000000E+00  0.00000000000E+00  0.23468566555E+04  0.23468566555E+04  0.50400000000E-02 0. -1.
         -1   -1    0    0    0  501 -0.00000000000E+00 -0.00000000000E+00 -0.31636383515E+03  0.31636383519E+03  0.50400000000E-02 0.  1.
    8880022    1    1    2    0    0  0.42342318778E+03  0.29603831406E+03 -0.23903860275E+02  0.53934119710E+03  0.15294330000E+03 0.  0.
    8880022    1    1    2    0    0 -0.42342318778E+03 -0.29603831406E+03  0.20543966806E+04  0.21238792936E+04  0.15294330000E+03 0.  0.
<mgrwt>
<rscale>  0 0.53881122E+03</rscale>
<asrwt>0</asrwt>
<pdfrwt beam="1">  1        1 0.36105487E+00 0.53881122E+03</pdfrwt>
<pdfrwt beam="2">  1       -1 0.48671359E-01 0.53881122E+03</pdfrwt>
<totfact> 0.80215139E+00</totfact>
</mgrwt>
</event>
<event>
 4    1  0.2293715E-008  0.6483127E+03  0.7818608E-02  0.9809951E-01
          1   -1    0    0  501    0  0.00000000000E+00  0.00000000000E+00  0.13591259415E+04  0.13591259415E+04  0.50400000000E-02 0. -1.
         -1   -1    0    0    0  501 -0.00000000000E+00 -0.00000000000E+00 -0.43304299103E+03  0.43304299106E+03  0.50400000000E-02 0.  1.
    8880022    1    1    2    0    0  0.16271862122E+03 -0.60863807820E+03 -0.16064918220E+02  0.64851167648E+03  0.15294330000E+03 0.  0.
    8880022    1    1    2    0    0 -0.16271862122E+03  0.60863807820E+03  0.94214786869E+03  0.11436572561E+04  0.15294330000E+03 0.  0.
<mgrwt>
<rscale>  0 0.64831267E+03</rscale>
<asrwt>0</asrwt>
<pdfrwt beam="1">  1        1 0.20909629E+00 0.64831267E+03</pdfrwt>
<pdfrwt beam="2">  1       -1 0.66622000E-01 0.64831267E+03</pdfrwt>
<totfact> 0.19640673E+01</totfact>
</mgrwt>
</event>
<event>
 4    1  0.2293715E-008  0.2638882E+03  0.7818608E-02  0.1104829E+00
         -1   -1    0    0    0  501 -0.00000000000E+00  0.00000000000E+00  0.17125293725E+03  0.17125293732E+03  0.50400000000E-02 0.  1.
          1   -1    0    0  501    0  0.00000000000E+00 -0.00000000000E+00 -0.42823117568E+03  0.42823117571E+03  0.50400000000E-02 0. -1.
    8880022    1    1    2    0    0  0.17699846053E+03 -0.12213473085E+03 -0.61172443395E+02  0.27088571088E+03  0.15294330000E+03 0.  0.
    8880022    1    1    2    0    0 -0.17699846053E+03  0.12213473085E+03 -0.19580579504E+03  0.32859840215E+03  0.15294330000E+03 0.  0.
<mgrwt>
<rscale>  0 0.26388823E+03</rscale>
<asrwt>0</asrwt>
<pdfrwt beam="1">  1        1 0.65881719E-01 0.26388823E+03</pdfrwt>
<pdfrwt beam="2">  1       -1 0.26346606E-01 0.26388823E+03</pdfrwt>
<totfact> 0.70919597E+02</totfact>
</mgrwt>
</event>
<event>
 4    1  0.2293715E-008  0.4638118E+03  0.7818608E-02  0.1023681E+00
          1   -1    0    0  501    0  0.00000000000E+00  0.00000000000E+00  0.42850550678E+03  0.42850550681E+03  0.50400000000E-02 0. -1.
         -1   -1    0    0    0  501 -0.00000000000E+00 -0.00000000000E+00 -0.62981584646E+03  0.62981584648E+03  0.50400000000E-02 0.  1.
    8880022    1    1    2    0    0 -0.37468517200E+03 -0.22658499488E+03  0.13770134154E+03  0.48382130017E+03  0.15294330000E+03 0.  0.
    8880022    1    1    2    0    0  0.37468517200E+03  0.22658499488E+03 -0.33901168122E+03  0.57450005312E+03  0.15294330000E+03 0.  0.
<mgrwt>
<rscale>  0 0.46381181E+03</rscale>
<asrwt>0</asrwt>
<pdfrwt beam="1">  1        1 0.65923924E-01 0.46381181E+03</pdfrwt>
<pdfrwt beam="2">  1       -1 0.96894746E-01 0.46381181E+03</pdfrwt>
<totfact> 0.58799827E+01</totfact>
</mgrwt>
</event>
<event>
 4    1  0.2293715E-008  0.2403386E+03  0.7818608E-02  0.1119567E+00
          1   -1    0    0  501    0  0.00000000000E+00  0.00000000000E+00  0.72664872210E+03  0.72664872212E+03  0.50400000000E-02 0. -1.
         -1   -1    0    0    0  501 -0.00000000000E+00 -0.00000000000E+00 -0.21836252413E+03  0.21836252419E+03  0.50400000000E-02 0.  1.
    8880022    1    1    2    0    0 -0.15625379285E+03  0.99778388268E+02 -0.12266762233E+03  0.26983323207E+03  0.15294330000E+03 0.  0.
    8880022    1    1    2    0    0  0.15625379285E+03 -0.99778388268E+02  0.63095382030E+03  0.67517801424E+03  0.15294330000E+03 0.  0.
<mgrwt>
<rscale>  0 0.24033857E+03</rscale>
<asrwt>0</asrwt>
<pdfrwt beam="1">  1        1 0.11179211E+00 0.24033857E+03</pdfrwt>
<pdfrwt beam="2">  1       -1 0.33594234E-01 0.24033857E+03</pdfrwt>
<totfact> 0.22723779E+02</totfact>
</mgrwt>
</event>
<event>
 4    1  0.2293715E-008  0.9351207E+03  0.7818608E-02  0.9382713E-01
         -1   -1    0    0    0  501 -0.00000000000E+00  0.00000000000E+00  0.19489820449E+04  0.19489820449E+04  0.50400000000E-02 0.  1.
          1   -1    0    0  501    0  0.00000000000E+00 -0.00000000000E+00 -0.19095928080E+04  0.19095928080E+04  0.50400000000E-02 0. -1.
    8880022    1    1    2    0    0  0.85015832432E+03  0.35817577562E+03  0.17071803588E+04  0.19465136766E+04  0.15294330000E+03 0.  0.
    8880022    1    1    2    0    0 -0.85015832432E+03 -0.35817577562E+03 -0.16677911219E+04  0.19120611764E+04  0.15294330000E+03 0.  0.
<mgrwt>
<rscale>  0 0.93512070E+03</rscale>
<asrwt>0</asrwt>
<pdfrwt beam="1">  1        1 0.29378351E+00 0.93512070E+03</pdfrwt>
<pdfrwt beam="2">  1       -1 0.29984339E+00 0.93512070E+03</pdfrwt>
<totfact> 0.11762149E-01</totfact>
</mgrwt>
</event>
<event>
 4    1  0.2293715E-008  0.8694054E+03  0.7818608E-02  0.9464656E-01
         -1   -1    0    0    0  501 -0.00000000000E+00  0.00000000000E+00  0.52497522370E+03  0.52497522373E+03  0.50400000000E-02 0.  1.
          1   -1    0    0  501    0  0.00000000000E+00 -0.00000000000E+00 -0.18369438710E+04  0.18369438710E+04  0.50400000000E-02 0. -1.
    8880022    1    1    2    0    0 -0.78798549423E+03 -0.33399550441E+03 -0.12050879100E+04  0.14859685932E+04  0.15294330000E+03 0.  0.
    8880022    1    1    2    0    0  0.78798549423E+03  0.33399550441E+03 -0.10688073725E+03  0.87595050151E+03  0.15294330000E+03 0.  0.
<mgrwt>
<rscale>  0 0.86940542E+03</rscale>
<asrwt>0</asrwt>
<pdfrwt beam="1">  1        1 0.28260675E+00 0.86940542E+03</pdfrwt>
<pdfrwt beam="2">  1       -1 0.80765420E-01 0.86940542E+03</pdfrwt>
<totfact> 0.60352994E+00</totfact>
</mgrwt>
</event>
<event>
 4    1  0.2293715E-008  0.2755552E+03  0.7818608E-02  0.1098142E+00
          1   -1    0    0  501    0  0.00000000000E+00  0.00000000000E+00  0.12696872084E+04  0.12696872084E+04  0.50400000000E-02 0. -1.
         -1   -1    0    0    0  501 -0.00000000000E+00 -0.00000000000E+00 -0.12942332079E+03  0.12942332089E+03  0.50400000000E-02 0.  1.
    8880022    1    1    2    0    0  0.22520667357E+03 -0.42672969434E+02  0.10832116165E+04  0.11177110929E+04  0.15294330000E+03 0. -1.
    8880022    1    1    2    0    0 -0.22520667357E+03  0.42672969434E+02  0.57052271124E+02  0.28139943638E+03  0.15294330000E+03 0.  0.
<mgrwt>
<rscale>  0 0.27555522E+03</rscale>
<asrwt>0</asrwt>
<pdfrwt beam="1">  1        1 0.19533649E+00 0.27555522E+03</pdfrwt>
<pdfrwt beam="2">  1       -1 0.19911281E-01 0.27555522E+03</pdfrwt>
<totfact> 0.20945168E+02</totfact>
</mgrwt>
</event>
<event>
 4    1  0.2293715E-008  0.4868495E+03  0.7818608E-02  0.1017270E+00
          1   -1    0    0  501    0  0.00000000000E+00  0.00000000000E+00  0.38370818052E+03  0.38370818055E+03  0.50400000000E-02 0. -1.
         -1   -1    0    0    0  501 -0.00000000000E+00 -0.00000000000E+00 -0.11819812890E+04  0.11819812890E+04  0.50400000000E-02 0.  1.
    8880022    1    1    2    0    0 -0.44874776840E+03  0.11070762372E+03  0.14175760836E+03  0.50706765834E+03  0.15294330000E+03 0.  0.
    8880022    1    1    2    0    0  0.44874776840E+03 -0.11070762372E+03 -0.94003071686E+03  0.10586218112E+04  0.15294330000E+03 0.  0.
<mgrwt>
<rscale>  0 0.48684945E+03</rscale>
<asrwt>0</asrwt>
<pdfrwt beam="1">  1        1 0.59032028E-01 0.48684945E+03</pdfrwt>
<pdfrwt beam="2">  1       -1 0.18184327E+00 0.48684945E+03</pdfrwt>
<totfact> 0.13672274E+01</totfact>
</mgrwt>
</event>
<event>
 4    1  0.2293715E-008  0.3092171E+03  0.7818608E-02  0.1080722E+00
         -1   -1    0    0    0  501 -0.00000000000E+00  0.00000000000E+00  0.29281126261E+03  0.29281126265E+03  0.50400000000E-02 0.  1.
          1   -1    0    0  501    0  0.00000000000E+00 -0.00000000000E+00 -0.10724717903E+04  0.10724717903E+04  0.50400000000E-02 0. -1.
    8880022    1    1    2    0    0 -0.18367578243E+03 -0.19618039729E+03  0.17947961784E+03  0.35753059669E+03  0.15294330000E+03 0.  0.
    8880022    1    1    2    0    0  0.18367578243E+03  0.19618039729E+03 -0.95914014557E+03  0.10077524563E+04  0.15294330000E+03 0.  0.
<mgrwt>
<rscale>  0 0.30921707E+03</rscale>
<asrwt>0</asrwt>
<pdfrwt beam="1">  1        1 0.16499566E+00 0.30921707E+03</pdfrwt>
<pdfrwt beam="2">  1       -1 0.45047887E-01 0.30921707E+03</pdfrwt>
<totfact> 0.70725701E+01</totfact>
</mgrwt>
</event>
<event>
 4    1  0.2293715E-008  0.2780107E+03  0.7818608E-02  0.1096780E+00
         -1   -1    0    0    0  501 -0.00000000000E+00  0.00000000000E+00  0.17089228267E+04  0.17089228267E+04  0.50400000000E-02 0.  1.
          1   -1    0    0  501    0  0.00000000000E+00 -0.00000000000E+00 -0.12757252758E+04  0.12757252758E+04  0.50400000000E-02 0. -1.
    8880022    1    1    2    0    0  0.20355174177E+03 -0.11164676624E+03  0.16822310167E+04  0.17050487262E+04  0.15294330000E+03 0.  0.
    8880022    1    1    2    0    0 -0.20355174177E+03  0.11164676624E+03 -0.12490334659E+04  0.12795993763E+04  0.15294330000E+03 0. -1.
<mgrwt>
<rscale>  0 0.27801073E+03</rscale>
<asrwt>0</asrwt>
<pdfrwt beam="1">  1        1 0.19626543E+00 0.27801073E+03</pdfrwt>
<pdfrwt beam="2">  1       -1 0.26291120E+00 0.27801073E+03</pdfrwt>
<totfact> 0.67893207E-01</totfact>
</mgrwt>
</event>
<event>
 4    1  0.2293715E-008  0.1303054E+04  0.7818608E-02  0.9027147E-01
         -1   -1    0    0    0  501 -0.00000000000E+00  0.00000000000E+00  0.93865032780E+03  0.93865032781E+03  0.50400000000E-02 0.  1.
          1   -1    0    0  501    0  0.00000000000E+00 -0.00000000000E+00 -0.26020060649E+04  0.26020060649E+04  0.50400000000E-02 0. -1.
    8880022    1    1    2    0    0 -0.10883039120E+04 -0.70010957999E+03  0.14568922682E+03  0.13111734564E+04  0.15294330000E+03 0.  0.
    8880022    1    1    2    0    0  0.10883039120E+04  0.70010957999E+03 -0.18090449639E+04  0.22294829363E+04  0.15294330000E+03 0.  0.
<mgrwt>
<rscale>  0 0.13030543E+04</rscale>
<asrwt>0</asrwt>
<pdfrwt beam="1">  1        1 0.40030862E+00 0.13030543E+04</pdfrwt>
<pdfrwt beam="2">  1       -1 0.14440774E+00 0.13030543E+04</pdfrwt>
<totfact> 0.43275737E-01</totfact>
</mgrwt>
</event>
<event>
 4    1  0.5963821E-008  0.8169624E+03  0.7818608E-02  0.9535784E-01
         -1   -1    0    0    0  501 -0.00000000000E+00  0.00000000000E+00  0.16168442340E+04  0.16168442340E+04  0.50400000000E-02 0.  1.
          1   -1    0    0  501    0  0.00000000000E+00 -0.00000000000E+00 -0.10610998992E+04  0.10610998992E+04  0.50400000000E-02 0. -1.
    8880022    1    1    2    0    0 -0.80241516134E+03  0.12875095557E+02  0.13244765676E+04  0.15561701997E+04  0.15294330000E+03 0.  0.
    8880022    1    1    2    0    0  0.80241516134E+03 -0.12875095557E+02 -0.76873223277E+03  0.11217739335E+04  0.15294330000E+03 0.  0.
<mgrwt>
<rscale>  0 0.81696237E+03</rscale>
<asrwt>0</asrwt>
<pdfrwt beam="1">  1        1 0.16324614E+00 0.81696237E+03</pdfrwt>
<pdfrwt beam="2">  1       -1 0.24874527E+00 0.81696237E+03</pdfrwt>
<totfact> 0.10017472E+00</totfact>
</mgrwt>
</event>
<event>
 4    1  0.2293715E-008  0.4786052E+03  0.7818608E-02  0.1019519E+00
          1   -1    0    0  501    0  0.00000000000E+00  0.00000000000E+00  0.21249114825E+04  0.21249114825E+04  0.50400000000E-02 0. -1.
         -1   -1    0    0    0  501 -0.00000000000E+00 -0.00000000000E+00 -0.26740213920E+03  0.26740213925E+03  0.50400000000E-02 0.  1.
    8880022    1    1    2    0    0  0.42608743452E+03  0.15530869818E+03  0.46383500139E+01  0.47862768505E+03  0.15294330000E+03 0.  0.
    8880022    1    1    2    0    0 -0.42608743452E+03 -0.15530869818E+03  0.18528709933E+04  0.19136859367E+04  0.15294330000E+03 0.  0.
<mgrwt>
<rscale>  0 0.47860521E+03</rscale>
<asrwt>0</asrwt>
<pdfrwt beam="1">  1        1 0.32690948E+00 0.47860521E+03</pdfrwt>
<pdfrwt beam="2">  1       -1 0.41138788E-01 0.47860521E+03</pdfrwt>
<totfact> 0.15587942E+01</totfact>
</mgrwt>
</event>
<event>
 4    1  0.2293715E-008  0.2471985E+03  0.7818608E-02  0.1115088E+00
         -1   -1    0    0    0  501 -0.00000000000E+00  0.00000000000E+00  0.24134079367E+03  0.24134079372E+03  0.50400000000E-02 0.  1.
          1   -1    0    0  501    0  0.00000000000E+00 -0.00000000000E+00 -0.81302173445E+03  0.81302173447E+03  0.50400000000E-02 0. -1.
    8880022    1    1    2    0    0 -0.71967616096E+02 -0.18037768925E+03  0.15161554180E+03  0.28999029997E+03  0.15294330000E+03 0.  1.
    8880022    1    1    2    0    0  0.71967616096E+02  0.18037768925E+03 -0.72329648258E+03  0.76437222822E+03  0.15294330000E+03 0.  0.
<mgrwt>
<rscale>  0 0.24719851E+03</rscale>
<asrwt>0</asrwt>
<pdfrwt beam="1">  1        1 0.12508027E+00 0.24719851E+03</pdfrwt>
<pdfrwt beam="2">  1       -1 0.37129353E-01 0.24719851E+03</pdfrwt>
<totfact> 0.16084577E+02</totfact>
</mgrwt>
</event>
<event>
 4    1  0.2293715E-008  0.3930470E+03  0.7818608E-02  0.1046214E+00
          1   -1    0    0  501    0  0.00000000000E+00  0.00000000000E+00  0.62557717530E+03  0.62557717532E+03  0.50400000000E-02 0. -1.
         -1   -1    0    0    0  501 -0.00000000000E+00 -0.00000000000E+00 -0.55461159321E+03  0.55461159324E+03  0.50400000000E-02 0.  1.
    8880022    1    1    2    0    0 -0.18430158912E+03  0.31165233471E+03 -0.40402246939E+03  0.56366662334E+03  0.15294330000E+03 0.  0.
    8880022    1    1    2    0    0  0.18430158912E+03 -0.31165233471E+03  0.47498805147E+03  0.61652214521E+03  0.15294330000E+03 0.  0.
<mgrwt>
<rscale>  0 0.39304695E+03</rscale>
<asrwt>0</asrwt>
<pdfrwt beam="1">  1        1 0.96242642E-01 0.39304695E+03</pdfrwt>
<pdfrwt beam="2">  1       -1 0.85324861E-01 0.39304695E+03</pdfrwt>
<totfact> 0.46754973E+01</totfact>
</mgrwt>
</event>
<event>
 4    1  0.2293715E-008  0.4774015E+03  0.7818608E-02  0.1019852E+00
          1   -1    0    0  501    0  0.00000000000E+00  0.00000000000E+00  0.15018756828E+04  0.15018756828E+04  0.50400000000E-02 0. -1.
         -1   -1    0    0    0  501 -0.00000000000E+00 -0.00000000000E+00 -0.44156392596E+03  0.44156392598E+03  0.50400000000E-02 0.  1.
    8880022    1    1    2    0    0 -0.13030114944E+03  0.43306137485E+03 -0.25707588342E+03  0.54221785915E+03  0.15294330000E+03 0.  0.
    8880022    1    1    2    0    0  0.13030114944E+03 -0.43306137485E+03  0.13173876403E+04  0.14012217497E+04  0.15294330000E+03 0. -1.
<mgrwt>
<rscale>  0 0.47740150E+03</rscale>
<asrwt>0</asrwt>
<pdfrwt beam="1">  1        1 0.23105780E+00 0.47740150E+03</pdfrwt>
<pdfrwt beam="2">  1       -1 0.67932912E-01 0.47740150E+03</pdfrwt>
<totfact> 0.15555322E+01</totfact>
</mgrwt>
</event>
<event>
 4    1  0.2293715E-008  0.4702339E+03  0.7818608E-02  0.1021854E+00
         -1   -1    0    0    0  501 -0.00000000000E+00  0.00000000000E+00  0.31225009080E+03  0.31225009084E+03  0.50400000000E-02 0.  1.
          1   -1    0    0  501    0  0.00000000000E+00 -0.00000000000E+00 -0.31014498770E+04  0.31014498770E+04  0.50400000000E-02 0. -1.
    8880022    1    1    2    0    0  0.43380561625E+03  0.97678044226E+02 -0.28939791887E+04  0.29319337494E+04  0.15294330000E+03 0.  0.
    8880022    1    1    2    0    0 -0.43380561625E+03 -0.97678044226E+02  0.10477940255E+03  0.48176621844E+03  0.15294330000E+03 0.  0.
<mgrwt>
<rscale>  0 0.47023395E+03</rscale>
<asrwt>0</asrwt>
<pdfrwt beam="1">  1        1 0.47714611E+00 0.47023395E+03</pdfrwt>
<pdfrwt beam="2">  1       -1 0.48038478E-01 0.47023395E+03</pdfrwt>
<totfact> 0.25226049E+00</totfact>
</mgrwt>
</event>
<event>
 4    1  0.2293715E-008  0.3441734E+03  0.7818608E-02  0.1065032E+00
         -1   -1    0    0    0  501 -0.00000000000E+00  0.00000000000E+00  0.40915683594E+03  0.40915683597E+03  0.50400000000E-02 0.  1.
          1   -1    0    0  501    0  0.00000000000E+00 -0.00000000000E+00 -0.92149300115E+03  0.92149300116E+03  0.50400000000E-02 0. -1.
    8880022    1    1    2    0    0 -0.30456446412E+03  0.48001438806E+02  0.29481746633E+03  0.45318058476E+03  0.15294330000E+03 0.  0.
    8880022    1    1    2    0    0  0.30456446412E+03 -0.48001438806E+02 -0.80715363154E+03  0.87746925237E+03  0.15294330000E+03 0. -1.
<mgrwt>
<rscale>  0 0.34417336E+03</rscale>
<asrwt>0</asrwt>
<pdfrwt beam="1">  1        1 0.14176815E+00 0.34417336E+03</pdfrwt>
<pdfrwt beam="2">  1       -1 0.62947206E-01 0.34417336E+03</pdfrwt>
<totfact> 0.48533849E+01</totfact>
</mgrwt>
</event>
<event>
 4    1  0.2293715E-008  0.6002789E+03  0.7818608E-02  0.9904828E-01
         -1   -1    0    0    0  501 -0.00000000000E+00  0.00000000000E+00  0.40162243268E+03  0.40162243271E+03  0.50400000000E-02 0.  1.
          1   -1    0    0  501    0  0.00000000000E+00 -0.00000000000E+00 -0.14854719477E+04  0.14854719477E+04  0.50400000000E-02 0. -1.
    8880022    1    1    2    0    0  0.57516319495E+03  0.78296759447E+02  0.51849416839E+02  0.60251398192E+03  0.15294330000E+03 0.  0.
    8880022    1    1    2    0    0 -0.57516319495E+03 -0.78296759447E+02 -0.11356989319E+04  0.12845803985E+04  0.15294330000E+03 0.  0.
<mgrwt>
<rscale>  0 0.60027888E+03</rscale>
<asrwt>0</asrwt>
<pdfrwt beam="1">  1        1 0.22853414E+00 0.60027888E+03</pdfrwt>
<pdfrwt beam="2">  1       -1 0.61788067E-01 0.60027888E+03</pdfrwt>
<totfact> 0.18826090E+01</totfact>
</mgrwt>
</event>
<event>
 4    1  0.2293715E-008  0.3762863E+03  0.7818608E-02  0.1052315E+00
          1   -1    0    0  501    0  0.00000000000E+00  0.00000000000E+00  0.36438277839E+03  0.36438277843E+03  0.50400000000E-02 0. -1.
         -1   -1    0    0    0  501 -0.00000000000E+00 -0.00000000000E+00 -0.57736836669E+03  0.57736836671E+03  0.50400000000E-02 0.  1.
    8880022    1    1    2    0    0  0.30021670583E+03 -0.16753993536E+03  0.16276537116E+03  0.40998038912E+03  0.15294330000E+03 0.  0.
    8880022    1    1    2    0    0 -0.30021670583E+03  0.16753993536E+03 -0.37575095946E+03  0.53177075601E+03  0.15294330000E+03 0.  0.
<mgrwt>
<rscale>  0 0.37628627E+03</rscale>
<asrwt>0</asrwt>
<pdfrwt beam="1">  1        1 0.56058890E-01 0.37628627E+03</pdfrwt>
<pdfrwt beam="2">  1       -1 0.88825902E-01 0.37628627E+03</pdfrwt>
<totfact> 0.88920628E+01</totfact>
</mgrwt>
</event>
<event>
 4    1  0.2293715E-008  0.3986146E+03  0.7818608E-02  0.1044260E+00
         -1   -1    0    0    0  501 -0.00000000000E+00  0.00000000000E+00  0.61959788067E+03  0.61959788069E+03  0.50400000000E-02 0.  1.
          1   -1    0    0  501    0  0.00000000000E+00 -0.00000000000E+00 -0.35056557388E+03  0.35056557392E+03  0.50400000000E-02 0. -1.
    8880022    1    1    2    0    0  0.30736180229E+03  0.20256032838E+03  0.38586068633E+03  0.55478111577E+03  0.15294330000E+03 0.  0.
    8880022    1    1    2    0    0 -0.30736180229E+03 -0.20256032838E+03 -0.11682837954E+03  0.41538233884E+03  0.15294330000E+03 0.  0.
<mgrwt>
<rscale>  0 0.39861462E+03</rscale>
<asrwt>0</asrwt>
<pdfrwt beam="1">  1        1 0.53933166E-01 0.39861462E+03</pdfrwt>
<pdfrwt beam="2">  1       -1 0.95322750E-01 0.39861462E+03</pdfrwt>
<totfact> 0.79865903E+01</totfact>
</mgrwt>
</event>
<event>
 4    1  0.2293715E-008  0.1597860E+03  0.7818608E-02  0.1188939E+00
          1   -1    0    0  501    0  0.00000000000E+00  0.00000000000E+00  0.72517498374E+03  0.72517498376E+03  0.50400000000E-02 0. -1.
         -1   -1    0    0    0  501 -0.00000000000E+00 -0.00000000000E+00 -0.17306857932E+03  0.17306857939E+03  0.50400000000E-02 0.  1.
    8880022    1    1    2    0    0 -0.43448722110E+02  0.15877874100E+02 -0.12479131044E+03  0.20274225636E+03  0.15294330000E+03 0.  0.
    8880022    1    1    2    0    0  0.43448722110E+02 -0.15877874100E+02  0.67689771487E+03  0.69550130679E+03  0.15294330000E+03 0. -1.
<mgrwt>
<rscale>  0 0.15978595E+03</rscale>
<asrwt>0</asrwt>
<pdfrwt beam="1">  1        1 0.11156538E+00 0.15978595E+03</pdfrwt>
<pdfrwt beam="2">  1       -1 0.26625935E-01 0.15978595E+03</pdfrwt>
<totfact> 0.34214284E+02</totfact>
</mgrwt>
</event>
<event>
 4    1  0.2293715E-008  0.6856455E+03  0.7818608E-02  0.9742100E-01
         -1   -1    0    0    0  501 -0.00000000000E+00  0.00000000000E+00  0.18163896746E+03  0.18163896753E+03  0.50400000000E-02 0.  1.
          1   -1    0    0  501    0  0.00000000000E+00 -0.00000000000E+00 -0.44387832872E+04  0.44387832872E+04  0.50400000000E-02 0. -1.
    8880022    1    1    2    0    0 -0.66339471342E+03  0.81397107204E+02 -0.36202648860E+04  0.36846204055E+04  0.15294330000E+03 0.  0.
    8880022    1    1    2    0    0  0.66339471342E+03 -0.81397107204E+02 -0.63687943371E+03  0.93580184920E+03  0.15294330000E+03 0.  0.
<mgrwt>
<rscale>  0 0.68564545E+03</rscale>
<asrwt>0</asrwt>
<pdfrwt beam="1">  1        1 0.68288966E+00 0.68564545E+03</pdfrwt>
<pdfrwt beam="2">  1       -1 0.27944460E-01 0.68564545E+03</pdfrwt>
<totfact> 0.49214825E-01</totfact>
</mgrwt>
</event>
<event>
 4    1  0.2293715E-008  0.5474124E+03  0.7818608E-02  0.1002095E+00
          1   -1    0    0  501    0  0.00000000000E+00  0.00000000000E+00  0.22203286606E+04  0.22203286606E+04  0.50400000000E-02 0. -1.
         -1   -1    0    0    0  501 -0.00000000000E+00 -0.00000000000E+00 -0.56242061080E+03  0.56242061082E+03  0.50400000000E-02 0.  1.
    8880022    1    1    2    0    0  0.50933806631E+03 -0.12978198876E+03  0.20419530102E+04  0.21140559074E+04  0.15294330000E+03 0.  0.
    8880022    1    1    2    0    0 -0.50933806631E+03  0.12978198876E+03 -0.38404496048E+03  0.66869336402E+03  0.15294330000E+03 0.  0.
<mgrwt>
<rscale>  0 0.54741235E+03</rscale>
<asrwt>0</asrwt>
<pdfrwt beam="1">  1        1 0.34158903E+00 0.54741235E+03</pdfrwt>
<pdfrwt beam="2">  1       -1 0.86526248E-01 0.54741235E+03</pdfrwt>
<totfact> 0.30734270E+00</totfact>
</mgrwt>
</event>
<event>
 4    1  0.2293715E-008  0.1663284E+03  0.7818608E-02  0.1181732E+00
          1   -1    0    0  501    0  0.00000000000E+00  0.00000000000E+00  0.38303475857E+03  0.38303475861E+03  0.50400000000E-02 0. -1.
         -1   -1    0    0    0  501 -0.00000000000E+00 -0.00000000000E+00 -0.18191764059E+03  0.18191764066E+03  0.50400000000E-02 0.  1.
    8880022    1    1    2    0    0  0.64880963174E+02  0.79955281260E+01  0.31990518053E+03  0.36056129215E+03  0.15294330000E+03 0. -1.
    8880022    1    1    2    0    0 -0.64880963174E+02 -0.79955281260E+01 -0.11878806254E+03  0.20439110712E+03  0.15294330000E+03 0.  0.
<mgrwt>
<rscale>  0 0.16632835E+03</rscale>
<asrwt>0</asrwt>
<pdfrwt beam="1">  1        1 0.58928424E-01 0.16632835E+03</pdfrwt>
<pdfrwt beam="2">  1       -1 0.27987329E-01 0.16632835E+03</pdfrwt>
<totfact> 0.73930829E+02</totfact>
</mgrwt>
</event>
<event>
 4    1  0.2293715E-008  0.4667145E+03  0.7818608E-02  0.1022852E+00
          1   -1    0    0  501    0  0.00000000000E+00  0.00000000000E+00  0.84755373835E+03  0.84755373837E+03  0.50400000000E-02 0. -1.
         -1   -1    0    0    0  501 -0.00000000000E+00 -0.00000000000E+00 -0.58240644327E+03  0.58240644329E+03  0.50400000000E-02 0.  1.
    8880022    1    1    2    0    0 -0.26769928786E+03  0.35038240373E+03  0.66700642611E+03  0.81407614082E+03  0.15294330000E+03 0.  0.
    8880022    1    1    2    0    0  0.26769928786E+03 -0.35038240373E+03 -0.40185913102E+03  0.61588404084E+03  0.15294330000E+03 0.  0.
<mgrwt>
<rscale>  0 0.46671446E+03</rscale>
<asrwt>0</asrwt>
<pdfrwt beam="1">  1        1 0.13039288E+00 0.46671446E+03</pdfrwt>
<pdfrwt beam="2">  1       -1 0.89600991E-01 0.46671446E+03</pdfrwt>
<totfact> 0.26227474E+01</totfact>
</mgrwt>
</event>
<event>
 4    1  0.2293715E-008  0.1788079E+03  0.7818608E-02  0.1168962E+00
         -1   -1    0    0    0  501 -0.00000000000E+00  0.00000000000E+00  0.46570130295E+02  0.46570130568E+02  0.50400000000E-02 0.  1.
          1   -1    0    0  501    0  0.00000000000E+00 -0.00000000000E+00 -0.17830549424E+04  0.17830549424E+04  0.50400000000E-02 0. -1.
    8880022    1    1    2    0    0 -0.43297434870E+02 -0.81889875809E+02 -0.15084969989E+03  0.23393995939E+03  0.15294330000E+03 0.  0.
    8880022    1    1    2    0    0  0.43297434870E+02  0.81889875809E+02 -0.15856351123E+04  0.15956851136E+04  0.15294330000E+03 0. -1.
<mgrwt>
<rscale>  0 0.17880792E+03</rscale>
<asrwt>0</asrwt>
<pdfrwt beam="1">  1        1 0.27431609E+00 0.17880792E+03</pdfrwt>
<pdfrwt beam="2">  1       -1 0.71646368E-02 0.17880792E+03</pdfrwt>
<totfact> 0.48384877E+02</totfact>
</mgrwt>
</event>
<event>
 4    1  0.2293715E-008  0.5281710E+03  0.7818608E-02  0.1006677E+00
         -1   -1    0    0    0  501 -0.00000000000E+00  0.00000000000E+00  0.75836960553E+03  0.75836960554E+03  0.50400000000E-02 0.  1.
          1   -1    0    0  501    0  0.00000000000E+00 -0.00000000000E+00 -0.53371322041E+03  0.53371322044E+03  0.50400000000E-02 0. -1.
    8880022    1    1    2    0    0  0.50441511459E+03 -0.33739875387E+02  0.47247885692E+03  0.70866135091E+03  0.15294330000E+03 0.  0.
    8880022    1    1    2    0    0 -0.50441511459E+03  0.33739875387E+02 -0.24782247181E+03  0.58342147507E+03  0.15294330000E+03 0.  0.
<mgrwt>
<rscale>  0 0.52817103E+03</rscale>
<asrwt>0</asrwt>
<pdfrwt beam="1">  1        1 0.82109727E-01 0.52817103E+03</pdfrwt>
<pdfrwt beam="2">  1       -1 0.11667225E+00 0.52817103E+03</pdfrwt>
<totfact> 0.28219433E+01</totfact>
</mgrwt>
</event>
<event>
 4    1  0.2293715E-008  0.5022945E+03  0.7818608E-02  0.1013182E+00
          1   -1    0    0  501    0  0.00000000000E+00  0.00000000000E+00  0.38406286738E+03  0.38406286741E+03  0.50400000000E-02 0. -1.
         -1   -1    0    0    0  501 -0.00000000000E+00 -0.00000000000E+00 -0.11270356371E+04  0.11270356371E+04  0.50400000000E-02 0.  1.
    8880022    1    1    2    0    0 -0.46555657253E+03  0.11029592683E+03  0.11648558468E+03  0.51562453215E+03  0.15294330000E+03 0.  0.
    8880022    1    1    2    0    0  0.46555657253E+03 -0.11029592683E+03 -0.85945835442E+03  0.99547397239E+03  0.15294330000E+03 0.  0.
<mgrwt>
<rscale>  0 0.50229450E+03</rscale>
<asrwt>0</asrwt>
<pdfrwt beam="1">  1        1 0.59086595E-01 0.50229450E+03</pdfrwt>
<pdfrwt beam="2">  1       -1 0.17339010E+00 0.50229450E+03</pdfrwt>
<totfact> 0.15642987E+01</totfact>
</mgrwt>
</event>
<event>
 4    1  0.2293715E-008  0.2397000E+03  0.7818608E-02  0.1119993E+00
          1   -1    0    0  501    0  0.00000000000E+00  0.00000000000E+00  0.42495896272E+03  0.42495896275E+03  0.50400000000E-02 0. -1.
         -1   -1    0    0    0  501 -0.00000000000E+00 -0.00000000000E+00 -0.50438629379E+03  0.50438629381E+03  0.50400000000E-02 0.  1.
    8880022    1    1    2    0    0  0.99325089044E+02 -0.15556010886E+03 -0.43725838787E+03  0.49864914675E+03  0.15294330000E+03 0.  1.
    8880022    1    1    2    0    0 -0.99325089044E+02  0.15556010886E+03  0.35783105680E+03  0.43069610981E+03  0.15294330000E+03 0.  0.
<mgrwt>
<rscale>  0 0.23969997E+03</rscale>
<asrwt>0</asrwt>
<pdfrwt beam="1">  1        1 0.65378302E-01 0.23969997E+03</pdfrwt>
<pdfrwt beam="2">  1       -1 0.77597891E-01 0.23969997E+03</pdfrwt>
<totfact> 0.99038160E+01</totfact>
</mgrwt>
</event>
<event>
 4    1  0.2293715E-008  0.5355449E+03  0.7818608E-02  0.1004896E+00
         -1   -1    0    0    0  501 -0.00000000000E+00  0.00000000000E+00  0.36200709108E+03  0.36200709112E+03  0.50400000000E-02 0.  1.
          1   -1    0    0  501    0  0.00000000000E+00 -0.00000000000E+00 -0.13622653829E+04  0.13622653829E+04  0.50400000000E-02 0. -1.
    8880022    1    1    2    0    0  0.17183161969E+02  0.51295363444E+03  0.57543919488E+02  0.53862755948E+03  0.15294330000E+03 0.  0.
    8880022    1    1    2    0    0 -0.17183161969E+02 -0.51295363444E+03 -0.10578022113E+04  0.11856449146E+04  0.15294330000E+03 0. -1.
<mgrwt>
<rscale>  0 0.53554490E+03</rscale>
<asrwt>0</asrwt>
<pdfrwt beam="1">  1        1 0.20957929E+00 0.53554490E+03</pdfrwt>
<pdfrwt beam="2">  1       -1 0.55693399E-01 0.53554490E+03</pdfrwt>
<totfact> 0.28320305E+01</totfact>
</mgrwt>
</event>
<event>
 4    1  0.2293715E-008  0.8319377E+03  0.7818608E-02  0.9514905E-01
         -1   -1    0    0    0  501 -0.00000000000E+00  0.00000000000E+00  0.10057918473E+04  0.10057918473E+04  0.50400000000E-02 0.  1.
          1   -1    0    0  501    0  0.00000000000E+00 -0.00000000000E+00 -0.87727541777E+03  0.87727541778E+03  0.50400000000E-02 0. -1.
    8880022    1    1    2    0    0 -0.39618940886E+02  0.81679800173E+03 -0.37292185383E+03  0.91169676878E+03  0.15294330000E+03 0.  0.
    8880022    1    1    2    0    0  0.39618940886E+02 -0.81679800173E+03  0.50143828339E+03  0.97137049635E+03  0.15294330000E+03 0.  0.
<mgrwt>
<rscale>  0 0.83193767E+03</rscale>
<asrwt>0</asrwt>
<pdfrwt beam="1">  1        1 0.13496545E+00 0.83193767E+03</pdfrwt>
<pdfrwt beam="2">  1       -1 0.15473721E+00 0.83193767E+03</pdfrwt>
<totfact> 0.62302167E+00</totfact>
</mgrwt>
</event>
<event>
 4    1  0.2293715E-008  0.9686737E+03  0.7818608E-02  0.9343586E-01
          1   -1    0    0  501    0  0.00000000000E+00  0.00000000000E+00  0.23197017447E+04  0.23197017447E+04  0.50400000000E-02 0. -1.
         -1   -1    0    0    0  501 -0.00000000000E+00 -0.00000000000E+00 -0.10877791925E+04  0.10877791925E+04  0.50400000000E-02 0.  1.
    8880022    1    1    2    0    0 -0.60371205993E+02 -0.95461637466E+03  0.19662631653E+04  0.21919214387E+04  0.15294330000E+03 0. -1.
    8880022    1    1    2    0    0  0.60371205993E+02  0.95461637466E+03 -0.73434061310E+03  0.12155594985E+04  0.15294330000E+03 0.  0.
<mgrwt>
<rscale>  0 0.96867371E+03</rscale>
<asrwt>0</asrwt>
<pdfrwt beam="1">  1        1 0.35687718E+00 0.96867371E+03</pdfrwt>
<pdfrwt beam="2">  1       -1 0.16735065E+00 0.96867371E+03</pdfrwt>
<totfact> 0.47445312E-01</totfact>
</mgrwt>
</event>
<event>
 4    1  0.2293715E-008  0.2608026E+03  0.7818608E-02  0.1106662E+00
         -1   -1    0    0    0  501 -0.00000000000E+00  0.00000000000E+00  0.41989769024E+03  0.41989769027E+03  0.50400000000E-02 0.  1.
          1   -1    0    0  501    0  0.00000000000E+00 -0.00000000000E+00 -0.20559128995E+03  0.20559129001E+03  0.50400000000E-02 0. -1.
    8880022    1    1    2    0    0  0.16785302224E+03 -0.12826427247E+03  0.25118267233E+03  0.36209218241E+03  0.15294330000E+03 0.  0.
    8880022    1    1    2    0    0 -0.16785302224E+03  0.12826427247E+03 -0.36876272041E+02  0.26339679786E+03  0.15294330000E+03 0.  0.
<mgrwt>
<rscale>  0 0.26080263E+03</rscale>
<asrwt>0</asrwt>
<pdfrwt beam="1">  1        1 0.31629430E-01 0.26080263E+03</pdfrwt>
<pdfrwt beam="2">  1       -1 0.64599644E-01 0.26080263E+03</pdfrwt>
<totfact> 0.35820268E+02</totfact>
</mgrwt>
</event>
<event>
 4    1  0.2293715E-008  0.2514038E+03  0.7818608E-02  0.1112421E+00
         -1   -1    0    0    0  501 -0.00000000000E+00  0.00000000000E+00  0.51412372167E+02  0.51412372414E+02  0.50400000000E-02 0.  1.
          1   -1    0    0  501    0  0.00000000000E+00 -0.00000000000E+00 -0.15049839348E+04  0.15049839348E+04  0.50400000000E-02 0. -1.
    8880022    1    1    2    0    0  0.19673163647E+03 -0.33299620238E+02 -0.39375086430E+03  0.46716549279E+03  0.15294330000E+03 0.  0.
    8880022    1    1    2    0    0 -0.19673163647E+03  0.33299620238E+02 -0.10598206983E+04  0.10892308144E+04  0.15294330000E+03 0.  0.
<mgrwt>
<rscale>  0 0.25140377E+03</rscale>
<asrwt>0</asrwt>
<pdfrwt beam="1">  1        1 0.23153596E+00 0.25140377E+03</pdfrwt>
<pdfrwt beam="2">  1       -1 0.79095969E-02 0.25140377E+03</pdfrwt>
<totfact> 0.62451190E+02</totfact>
</mgrwt>
</event>
<event>
 4    1  0.2336612E-008  0.7994423E+03  0.7818608E-02  0.9560825E-01
         -1   -1    0    0    0  501 -0.00000000000E+00  0.00000000000E+00  0.59387388193E+03  0.59387388195E+03  0.50400000000E-02 0.  1.
          1   -1    0    0  501    0  0.00000000000E+00 -0.00000000000E+00 -0.27012256700E+04  0.27012256700E+04  0.50400000000E-02 0. -1.
    8880022    1    1    2    0    0  0.72383251970E+03 -0.30295672044E+03 -0.23315631147E+04  0.24648112507E+04  0.15294330000E+03 0. -1.
    8880022    1    1    2    0    0 -0.72383251970E+03  0.30295672044E+03  0.22421132665E+03  0.83028830117E+03  0.15294330000E+03 0.  0.
<mgrwt>
<rscale>  0 0.79944227E+03</rscale>
<asrwt>0</asrwt>
<pdfrwt beam="1">  1        1 0.41557317E+00 0.79944227E+03</pdfrwt>
<pdfrwt beam="2">  1       -1 0.91365214E-01 0.79944227E+03</pdfrwt>
<totfact> 0.12127210E+00</totfact>
</mgrwt>
</event>
<event>
 4    1  0.2293715E-008  0.1049504E+04  0.7818608E-02  0.9255856E-01
         -1   -1    0    0    0  501 -0.00000000000E+00  0.00000000000E+00  0.12725717197E+04  0.12725717197E+04  0.50400000000E-02 0.  1.
          1   -1    0    0  501    0  0.00000000000E+00 -0.00000000000E+00 -0.20790421747E+04  0.20790421747E+04  0.50400000000E-02 0. -1.
    8880022    1    1    2    0    0  0.59512173782E+03  0.85082177668E+03  0.87706837383E+03  0.13677383390E+04  0.15294330000E+03 0.  0.
    8880022    1    1    2    0    0 -0.59512173782E+03 -0.85082177668E+03 -0.16835388288E+04  0.19838755555E+04  0.15294330000E+03 0.  0.
<mgrwt>
<rscale>  0 0.10495043E+04</rscale>
<asrwt>0</asrwt>
<pdfrwt beam="1">  1        1 0.31985264E+00 0.10495043E+04</pdfrwt>
<pdfrwt beam="2">  1       -1 0.19578026E+00 0.10495043E+04</pdfrwt>
<totfact> 0.42609809E-01</totfact>
</mgrwt>
</event>
<event>
 4    1  0.2298885E-008  0.8166658E+03  0.7818608E-02  0.9536202E-01
         -1   -1    0    0    0  501 -0.00000000000E+00  0.00000000000E+00  0.87866456479E+03  0.87866456480E+03  0.50400000000E-02 0.  1.
          1   -1    0    0  501    0  0.00000000000E+00 -0.00000000000E+00 -0.27599770240E+04  0.27599770240E+04  0.50400000000E-02 0. -1.
    8880022    1    1    2    0    0 -0.79119480653E+03  0.13252226104E+03  0.60842102872E+03  0.10183904815E+04  0.15294330000E+03 0.  0.
    8880022    1    1    2    0    0  0.79119480653E+03 -0.13252226104E+03 -0.24897334879E+04  0.26202511073E+04  0.15294330000E+03 0.  0.
<mgrwt>
<rscale>  0 0.81666580E+03</rscale>
<asrwt>0</asrwt>
<pdfrwt beam="1">  1        1 0.42461184E+00 0.81666580E+03</pdfrwt>
<pdfrwt beam="2">  1       -1 0.13517917E+00 0.81666580E+03</pdfrwt>
<totfact> 0.43347553E-01</totfact>
</mgrwt>
</event>
<event>
 4    1  0.2293715E-008  0.1019805E+04  0.7818608E-02  0.9287086E-01
          1   -1    0    0  501    0  0.00000000000E+00  0.00000000000E+00  0.15748046489E+04  0.15748046489E+04  0.50400000000E-02 0. -1.
         -1   -1    0    0    0  501 -0.00000000000E+00 -0.00000000000E+00 -0.13674236454E+04  0.13674236454E+04  0.50400000000E-02 0.  1.
    8880022    1    1    2    0    0 -0.34698525198E+02  0.10076735231E+04  0.11615102863E+04  0.15456738708E+04  0.15294330000E+03 0.  0.
    8880022    1    1    2    0    0  0.34698525198E+02 -0.10076735231E+04 -0.95412928269E+03  0.13965544235E+04  0.15294330000E+03 0.  0.
<mgrwt>
<rscale>  0 0.10198047E+04</rscale>
<asrwt>0</asrwt>
<pdfrwt beam="1">  1        1 0.24227764E+00 0.10198047E+04</pdfrwt>
<pdfrwt beam="2">  1       -1 0.21037287E+00 0.10198047E+04</pdfrwt>
<totfact> 0.74625516E-01</totfact>
</mgrwt>
</event>
<event>
 4    1  0.2293715E-008  0.3539344E+03  0.7818608E-02  0.1061012E+00
          1   -1    0    0  501    0  0.00000000000E+00  0.00000000000E+00  0.95705972633E+02  0.95705972766E+02  0.50400000000E-02 0. -1.
         -1   -1    0    0    0  501 -0.00000000000E+00 -0.00000000000E+00 -0.14684103986E+04  0.14684103986E+04  0.50400000000E-02 0.  1.
    8880022    1    1    2    0    0 -0.28692100218E+02  0.31789092754E+03 -0.94410897740E+03  0.10082714380E+04  0.15294330000E+03 0.  0.
    8880022    1    1    2    0    0  0.28692100218E+02 -0.31789092754E+03 -0.42859544854E+03  0.55584493336E+03  0.15294330000E+03 0.  0.
<mgrwt>
<rscale>  0 0.35393436E+03</rscale>
<asrwt>0</asrwt>
<pdfrwt beam="1">  1        1 0.14723997E-01 0.35393436E+03</pdfrwt>
<pdfrwt beam="2">  1       -1 0.22590928E+00 0.35393436E+03</pdfrwt>
<totfact> 0.42643622E+01</totfact>
</mgrwt>
</event>
<event>
 4    1  0.2293715E-008  0.8246663E+03  0.7818608E-02  0.9524984E-01
          1   -1    0    0  501    0  0.00000000000E+00  0.00000000000E+00  0.99173766337E+03  0.99173766339E+03  0.50400000000E-02 0. -1.
         -1   -1    0    0    0  501 -0.00000000000E+00 -0.00000000000E+00 -0.71588780479E+03  0.71588780480E+03  0.50400000000E-02 0.  1.
    8880022    1    1    2    0    0 -0.48824936291E+01 -0.81034499611E+03 -0.37287808094E+02  0.82550886435E+03  0.15294330000E+03 0.  0.
    8880022    1    1    2    0    0  0.48824936291E+01  0.81034499611E+03  0.31313766668E+03  0.88211660384E+03  0.15294330000E+03 0.  0.
<mgrwt>
<rscale>  0 0.82466630E+03</rscale>
<asrwt>0</asrwt>
<pdfrwt beam="1">  1        1 0.15257503E+00 0.82466630E+03</pdfrwt>
<pdfrwt beam="2">  1       -1 0.11013659E+00 0.82466630E+03</pdfrwt>
<totfact> 0.11942654E+01</totfact>
</mgrwt>
</event>
<event>
 4    1  0.2293715E-008  0.4461057E+03  0.7818608E-02  0.1028890E+00
          1   -1    0    0  501    0  0.00000000000E+00  0.00000000000E+00  0.14279002172E+04  0.14279002172E+04  0.50400000000E-02 0. -1.
         -1   -1    0    0    0  501 -0.00000000000E+00 -0.00000000000E+00 -0.19409364072E+03  0.19409364079E+03  0.50400000000E-02 0.  1.
    8880022    1    1    2    0    0  0.22625237339E+03  0.35274419913E+03  0.18628698285E+03  0.48343882703E+03  0.15294330000E+03 0.  0.
    8880022    1    1    2    0    0 -0.22625237339E+03 -0.35274419913E+03  0.10475195936E+04  0.11385550310E+04  0.15294330000E+03 0.  0.
<mgrwt>
<rscale>  0 0.44610566E+03</rscale>
<asrwt>0</asrwt>
<pdfrwt beam="1">  1        1 0.21967697E+00 0.44610566E+03</pdfrwt>
<pdfrwt beam="2">  1       -1 0.29860559E-01 0.44610566E+03</pdfrwt>
<totfact> 0.80326468E+01</totfact>
</mgrwt>
</event>
<event>
 4    1  0.2293715E-008  0.1141447E+04  0.7818608E-02  0.9165711E-01
          1   -1    0    0  501    0  0.00000000000E+00  0.00000000000E+00  0.21775842352E+04  0.21775842352E+04  0.50400000000E-02 0. -1.
         -1   -1    0    0    0  501 -0.00000000000E+00 -0.00000000000E+00 -0.84954135702E+03  0.84954135703E+03  0.50400000000E-02 0.  1.
    8880022    1    1    2    0    0  0.11311489799E+04 -0.32358158186E+01 -0.15904199628E+03  0.11524732079E+04  0.15294330000E+03 0.  0.
    8880022    1    1    2    0    0 -0.11311489799E+04  0.32358158186E+01  0.14870848744E+04  0.18746523843E+04  0.15294330000E+03 0.  0.
<mgrwt>
<rscale>  0 0.11414465E+04</rscale>
<asrwt>0</asrwt>
<pdfrwt beam="1">  1        1 0.33501296E+00 0.11414465E+04</pdfrwt>
<pdfrwt beam="2">  1       -1 0.13069867E+00 0.11414465E+04</pdfrwt>
<totfact> 0.11208376E+00</totfact>
</mgrwt>
</event>
<event>
 4    1  0.2293715E-008  0.9113731E+03  0.7818608E-02  0.9411475E-01
          1   -1    0    0  501    0  0.00000000000E+00  0.00000000000E+00  0.10992036797E+04  0.10992036797E+04  0.50400000000E-02 0. -1.
         -1   -1    0    0    0  501 -0.00000000000E+00 -0.00000000000E+00 -0.18873520150E+04  0.18873520150E+04  0.50400000000E-02 0.  1.
    8880022    1    1    2    0    0 -0.89810251815E+03  0.24921768154E+02  0.76225737732E+03  0.11881233900E+04  0.15294330000E+03 0.  0.
    8880022    1    1    2    0    0  0.89810251815E+03 -0.24921768154E+02 -0.15504057127E+04  0.17984323047E+04  0.15294330000E+03 0.  0.
<mgrwt>
<rscale>  0 0.91137307E+03</rscale>
<asrwt>0</asrwt>
<pdfrwt beam="1">  1        1 0.16910826E+00 0.91137307E+03</pdfrwt>
<pdfrwt beam="2">  1       -1 0.29036185E+00 0.91137307E+03</pdfrwt>
<totfact> 0.49798246E-01</totfact>
</mgrwt>
</event>
<event>
 4    1  0.2293715E-008  0.4565367E+03  0.7818608E-02  0.1025790E+00
         -1   -1    0    0    0  501 -0.00000000000E+00  0.00000000000E+00  0.72089839564E+02  0.72089839740E+02  0.50400000000E-02 0.  1.
          1   -1    0    0  501    0  0.00000000000E+00 -0.00000000000E+00 -0.31134539407E+04  0.31134539407E+04  0.50400000000E-02 0. -1.
    8880022    1    1    2    0    0 -0.39250413741E+03 -0.17599611885E+03 -0.19462431961E+04  0.19990718754E+04  0.15294330000E+03 0.  0.
    8880022    1    1    2    0    0  0.39250413741E+03  0.17599611885E+03 -0.10951209051E+04  0.11864719051E+04  0.15294330000E+03 0.  0.
<mgrwt>
<rscale>  0 0.45653673E+03</rscale>
<asrwt>0</asrwt>
<pdfrwt beam="1">  1        1 0.47899281E+00 0.45653673E+03</pdfrwt>
<pdfrwt beam="2">  1       -1 0.11090747E-01 0.45653673E+03</pdfrwt>
<totfact> 0.29557138E+01</totfact>
</mgrwt>
</event>
<event>
 4    1  0.2293715E-008  0.4563991E+03  0.7818608E-02  0.1025831E+00
         -1   -1    0    0    0  501 -0.00000000000E+00  0.00000000000E+00  0.88196455469E+03  0.88196455470E+03  0.50400000000E-02 0.  1.
          1   -1    0    0  501    0  0.00000000000E+00 -0.00000000000E+00 -0.12777184951E+04  0.12777184951E+04  0.50400000000E-02 0. -1.
    8880022    1    1    2    0    0  0.39331903327E+03 -0.17380629142E+03 -0.11728231178E+04  0.12584968048E+04  0.15294330000E+03 0. -1.
    8880022    1    1    2    0    0 -0.39331903327E+03  0.17380629142E+03  0.77706917739E+03  0.90118624508E+03  0.15294330000E+03 0.  0.
<mgrwt>
<rscale>  0 0.45639910E+03</rscale>
<asrwt>0</asrwt>
<pdfrwt beam="1">  1        1 0.19657208E+00 0.45639910E+03</pdfrwt>
<pdfrwt beam="2">  1       -1 0.13568685E+00 0.45639910E+03</pdfrwt>
<totfact> 0.47222657E+00</totfact>
</mgrwt>
</event>
<event>
 4    1  0.2293715E-008  0.2447879E+03  0.7818608E-02  0.1116644E+00
         -1   -1    0    0    0  501 -0.00000000000E+00  0.00000000000E+00  0.10933634533E+03  0.10933634544E+03  0.50400000000E-02 0.  1.
          1   -1    0    0  501    0  0.00000000000E+00 -0.00000000000E+00 -0.36459117268E+04  0.36459117268E+04  0.50400000000E-02 0. -1.
    8880022    1    1    2    0    0  0.14418442321E+03  0.12546043293E+03 -0.34990482942E+04  0.35076003316E+04  0.15294330000E+03 0.  0.
    8880022    1    1    2    0    0 -0.14418442321E+03 -0.12546043293E+03 -0.37527087224E+02  0.24764774059E+03  0.15294330000E+03 0.  1.
<mgrwt>
<rscale>  0 0.24478791E+03</rscale>
<asrwt>0</asrwt>
<pdfrwt beam="1">  1        1 0.56090940E+00 0.24478791E+03</pdfrwt>
<pdfrwt beam="2">  1       -1 0.16820979E-01 0.24478791E+03</pdfrwt>
<totfact> 0.66210183E+00</totfact>
</mgrwt>
</event>
<event>
 4    1  0.2293715E-008  0.1227692E+04  0.7818608E-02  0.9088958E-01
         -1   -1    0    0    0  501 -0.00000000000E+00  0.00000000000E+00  0.93000226201E+03  0.93000226203E+03  0.50400000000E-02 0.  1.
          1   -1    0    0  501    0  0.00000000000E+00 -0.00000000000E+00 -0.21457483175E+04  0.21457483175E+04  0.50400000000E-02 0. -1.
    8880022    1    1    2    0    0  0.11419444671E+04  0.42402571044E+03  0.15288025484E+03  0.12371737931E+04  0.15294330000E+03 0.  0.
    8880022    1    1    2    0    0 -0.11419444671E+04 -0.42402571044E+03 -0.13686263103E+04  0.18385767864E+04  0.15294330000E+03 0.  0.
<mgrwt>
<rscale>  0 0.12276916E+04</rscale>
<asrwt>0</asrwt>
<pdfrwt beam="1">  1        1 0.33011512E+00 0.12276916E+04</pdfrwt>
<pdfrwt beam="2">  1       -1 0.14307727E+00 0.12276916E+04</pdfrwt>
<totfact> 0.92082172E-01</totfact>
</mgrwt>
</event>
<event>
 4    1  0.2293715E-008  0.5879130E+03  0.7818608E-02  0.9930805E-01
         -1   -1    0    0    0  501 -0.00000000000E+00  0.00000000000E+00  0.15959506989E+04  0.15959506990E+04  0.50400000000E-02 0.  1.
          1   -1    0    0  501    0  0.00000000000E+00 -0.00000000000E+00 -0.34224872740E+03  0.34224872744E+03  0.50400000000E-02 0. -1.
    8880022    1    1    2    0    0  0.47843490830E+03  0.30553236412E+03  0.12140986378E+04  0.13489540920E+04  0.15294330000E+03 0.  0.
    8880022    1    1    2    0    0 -0.47843490830E+03 -0.30553236412E+03  0.39603333713E+02  0.58924533436E+03  0.15294330000E+03 0.  0.
<mgrwt>
<rscale>  0 0.58791295E+03</rscale>
<asrwt>0</asrwt>
<pdfrwt beam="1">  1        1 0.52653649E-01 0.58791295E+03</pdfrwt>
<pdfrwt beam="2">  1       -1 0.24553088E+00 0.58791295E+03</pdfrwt>
<totfact> 0.58561833E+00</totfact>
</mgrwt>
</event>
<event>
 4    1  0.2293715E-008  0.1532461E+03  0.7818608E-02  0.1196540E+00
         -1   -1    0    0    0  501 -0.00000000000E+00  0.00000000000E+00  0.11171476777E+03  0.11171476789E+03  0.50400000000E-02 0.  1.
          1   -1    0    0  501    0  0.00000000000E+00 -0.00000000000E+00 -0.33399647660E+03  0.33399647663E+03  0.50400000000E-02 0. -1.
    8880022    1    1    2    0    0  0.69800731366E+01  0.66317008063E+01  0.24526953532E+02  0.15519640892E+03  0.15294330000E+03 0.  0.
    8880022    1    1    2    0    0 -0.69800731366E+01 -0.66317008063E+01 -0.24680866236E+03  0.29051483560E+03  0.15294330000E+03 0. -1.
<mgrwt>
<rscale>  0 0.15324606E+03</rscale>
<asrwt>0</asrwt>
<pdfrwt beam="1">  1        1 0.51384073E-01 0.15324606E+03</pdfrwt>
<pdfrwt beam="2">  1       -1 0.17186888E-01 0.15324606E+03</pdfrwt>
<totfact> 0.19396404E+03</totfact>
</mgrwt>
</event>
<event>
 4    1  0.2293715E-008  0.5227934E+03  0.7818608E-02  0.1007995E+00
         -1   -1    0    0    0  501 -0.00000000000E+00  0.00000000000E+00  0.85687436912E+03  0.85687436914E+03  0.50400000000E-02 0.  1.
          1   -1    0    0  501    0  0.00000000000E+00 -0.00000000000E+00 -0.43046827783E+03  0.43046827786E+03  0.50400000000E-02 0. -1.
    8880022    1    1    2    0    0 -0.29978312497E+03  0.40006424245E+03 -0.11439198942E+03  0.53516212530E+03  0.15294330000E+03 0.  0.
    8880022    1    1    2    0    0  0.29978312497E+03 -0.40006424245E+03  0.54079808072E+03  0.75218052170E+03  0.15294330000E+03 0.  0.
<mgrwt>
<rscale>  0 0.52279343E+03</rscale>
<asrwt>0</asrwt>
<pdfrwt beam="1">  1        1 0.66225890E-01 0.52279343E+03</pdfrwt>
<pdfrwt beam="2">  1       -1 0.13182682E+00 0.52279343E+03</pdfrwt>
<totfact> 0.27983672E+01</totfact>
</mgrwt>
</event>
<event>
 4    1  0.2293715E-008  0.4252044E+03  0.7818608E-02  0.1035386E+00
         -1   -1    0    0    0  501 -0.00000000000E+00  0.00000000000E+00  0.32749524890E+03  0.32749524894E+03  0.50400000000E-02 0.  1.
          1   -1    0    0  501    0  0.00000000000E+00 -0.00000000000E+00 -0.15369213478E+04  0.15369213478E+04  0.50400000000E-02 0. -1.
    8880022    1    1    2    0    0  0.32187624397E+03 -0.23195439115E+03 -0.13509443992E+04  0.14162801908E+04  0.15294330000E+03 0.  0.
    8880022    1    1    2    0    0 -0.32187624397E+03  0.23195439115E+03  0.14151830032E+03  0.44813640596E+03  0.15294330000E+03 0.  0.
<mgrwt>
<rscale>  0 0.42520443E+03</rscale>
<asrwt>0</asrwt>
<pdfrwt beam="1">  1        1 0.23644943E+00 0.42520443E+03</pdfrwt>
<pdfrwt beam="2">  1       -1 0.50383886E-01 0.42520443E+03</pdfrwt>
<totfact> 0.26630806E+01</totfact>
</mgrwt>
</event>
<event>
 4    1  0.2628700E-008  0.7597135E+03  0.7818608E-02  0.9620233E-01
          1   -1    0    0  501    0  0.00000000000E+00  0.00000000000E+00  0.26696154203E+04  0.26696154203E+04  0.50400000000E-02 0. -1.
         -1   -1    0    0    0  501 -0.00000000000E+00 -0.00000000000E+00 -0.10631269447E+04  0.10631269448E+04  0.50400000000E-02 0.  1.
    8880022    1    1    2    0    0 -0.12739617649E+03 -0.73317333138E+03  0.24690679346E+04  0.25833042868E+04  0.15294330000E+03 0.  0.
    8880022    1    1    2    0    0  0.12739617649E+03  0.73317333138E+03 -0.86257945902E+03  0.11494380783E+04  0.15294330000E+03 0.  0.
<mgrwt>
<rscale>  0 0.75971348E+03</rscale>
<asrwt>0</asrwt>
<pdfrwt beam="1">  1        1 0.41071006E+00 0.75971348E+03</pdfrwt>
<pdfrwt beam="2">  1       -1 0.16355800E+00 0.75971348E+03</pdfrwt>
<totfact> 0.30467669E-01</totfact>
</mgrwt>
</event>
<event>
 4    1  0.2293715E-008  0.7510782E+03  0.7818608E-02  0.9633660E-01
         -1   -1    0    0    0  501 -0.00000000000E+00  0.00000000000E+00  0.14532312044E+03  0.14532312053E+03  0.50400000000E-02 0.  1.
          1   -1    0    0  501    0  0.00000000000E+00 -0.00000000000E+00 -0.42755902513E+04  0.42755902513E+04  0.50400000000E-02 0. -1.
    8880022    1    1    2    0    0 -0.33968722620E+03  0.65218055029E+03 -0.13943164509E+04  0.15837414246E+04  0.15294330000E+03 0.  0.
    8880022    1    1    2    0    0  0.33968722620E+03 -0.65218055029E+03 -0.27359506800E+04  0.28371719472E+04  0.15294330000E+03 0.  0.
<mgrwt>
<rscale>  0 0.75107825E+03</rscale>
<asrwt>0</asrwt>
<pdfrwt beam="1">  1        1 0.65778302E+00 0.75107825E+03</pdfrwt>
<pdfrwt beam="2">  1       -1 0.22357406E-01 0.75107825E+03</pdfrwt>
<totfact> 0.10136864E+00</totfact>
</mgrwt>
</event>
<event>
 4    1  0.2293715E-008  0.3239385E+03  0.7818608E-02  0.1073851E+00
         -1   -1    0    0    0  501 -0.00000000000E+00  0.00000000000E+00  0.60026225736E+03  0.60026225739E+03  0.50400000000E-02 0.  1.
          1   -1    0    0  501    0  0.00000000000E+00 -0.00000000000E+00 -0.18906935578E+04  0.18906935578E+04  0.50400000000E-02 0. -1.
    8880022    1    1    2    0    0 -0.32195600000E+02  0.28373917444E+03 -0.18317176087E+04  0.18601412653E+04  0.15294330000E+03 0. -1.
    8880022    1    1    2    0    0  0.32195600000E+02 -0.28373917444E+03  0.54128630830E+03  0.63081454988E+03  0.15294330000E+03 0.  0.
<mgrwt>
<rscale>  0 0.32393846E+03</rscale>
<asrwt>0</asrwt>
<pdfrwt beam="1">  1        1 0.29087593E+00 0.32393846E+03</pdfrwt>
<pdfrwt beam="2">  1       -1 0.92348040E-01 0.32393846E+03</pdfrwt>
<totfact> 0.47451920E+00</totfact>
</mgrwt>
</event>
<event>
 4    1  0.2293715E-008  0.4412160E+03  0.7818608E-02  0.1030374E+00
          1   -1    0    0  501    0  0.00000000000E+00  0.00000000000E+00  0.71737870434E+03  0.71737870436E+03  0.50400000000E-02 0. -1.
         -1   -1    0    0    0  501 -0.00000000000E+00 -0.00000000000E+00 -0.27172454671E+03  0.27172454676E+03  0.50400000000E-02 0.  1.
    8880022    1    1    2    0    0  0.24307884310E+03 -0.33495156379E+03  0.20483925549E+03  0.48644696283E+03  0.15294330000E+03 0. -1.
    8880022    1    1    2    0    0 -0.24307884310E+03  0.33495156379E+03  0.24081490214E+03  0.50265628829E+03  0.15294330000E+03 0.  1.
<mgrwt>
<rscale>  0 0.44121596E+03</rscale>
<asrwt>0</asrwt>
<pdfrwt beam="1">  1        1 0.11036595E+00 0.44121596E+03</pdfrwt>
<pdfrwt beam="2">  1       -1 0.41803777E-01 0.44121596E+03</pdfrwt>
<totfact> 0.15339871E+02</totfact>
</mgrwt>
</event>
<event>
 4    1  0.2293715E-008  0.5121261E+03  0.7818608E-02  0.1010661E+00
         -1   -1    0    0    0  501 -0.00000000000E+00  0.00000000000E+00  0.12987009705E+03  0.12987009715E+03  0.50400000000E-02 0.  1.
          1   -1    0    0  501    0  0.00000000000E+00 -0.00000000000E+00 -0.24689558465E+04  0.24689558465E+04  0.50400000000E-02 0. -1.
    8880022    1    1    2    0    0  0.21911822393E+03 -0.43688526462E+03 -0.61513152825E+03  0.80041238157E+03  0.15294330000E+03 0.  0.
    8880022    1    1    2    0    0 -0.21911822393E+03  0.43688526462E+03 -0.17239542212E+04  0.17984135620E+04  0.15294330000E+03 0.  0.
<mgrwt>
<rscale>  0 0.51212614E+03</rscale>
<asrwt>0</asrwt>
<pdfrwt beam="1">  1        1 0.37983933E+00 0.51212614E+03</pdfrwt>
<pdfrwt beam="2">  1       -1 0.19980017E-01 0.51212614E+03</pdfrwt>
<totfact> 0.31666692E+01</totfact>
</mgrwt>
</event>
<event>
 4    1  0.2293715E-008  0.5936075E+03  0.7818608E-02  0.9918758E-01
         -1   -1    0    0    0  501 -0.00000000000E+00  0.00000000000E+00  0.93574230472E+03  0.93574230473E+03  0.50400000000E-02 0.  1.
          1   -1    0    0  501    0  0.00000000000E+00 -0.00000000000E+00 -0.46735627883E+03  0.46735627885E+03  0.50400000000E-02 0. -1.
    8880022    1    1    2    0    0  0.30103388952E+03  0.48821802711E+03 -0.75015083628E+02  0.59832863914E+03  0.15294330000E+03 0.  0.
    8880022    1    1    2    0    0 -0.30103388952E+03 -0.48821802711E+03  0.54340110952E+03  0.80476994444E+03  0.15294330000E+03 0.  0.
<mgrwt>
<rscale>  0 0.59360753E+03</rscale>
<asrwt>0</asrwt>
<pdfrwt beam="1">  1        1 0.71900967E-01 0.59360753E+03</pdfrwt>
<pdfrwt beam="2">  1       -1 0.14396035E+00 0.59360753E+03</pdfrwt>
<totfact> 0.19802905E+01</totfact>
</mgrwt>
</event>
<event>
 4    1  0.2293715E-008  0.1024141E+04  0.7818608E-02  0.9282457E-01
         -1   -1    0    0    0  501 -0.00000000000E+00  0.00000000000E+00  0.99658406838E+03  0.99658406839E+03  0.50400000000E-02 0.  1.
          1   -1    0    0  501    0  0.00000000000E+00 -0.00000000000E+00 -0.12939623648E+04  0.12939623649E+04  0.50400000000E-02 0. -1.
    8880022    1    1    2    0    0 -0.10035344297E+03  0.10076714869E+04 -0.64346614024E+03  0.12095093905E+04  0.15294330000E+03 0.  0.
    8880022    1    1    2    0    0  0.10035344297E+03 -0.10076714869E+04  0.34608784377E+03  0.10810370427E+04  0.15294330000E+03 0.  0.
<mgrwt>
<rscale>  0 0.10241408E+04</rscale>
<asrwt>0</asrwt>
<pdfrwt beam="1">  1        1 0.19907113E+00 0.10241408E+04</pdfrwt>
<pdfrwt beam="2">  1       -1 0.15332063E+00 0.10241408E+04</pdfrwt>
<totfact> 0.30065320E+00</totfact>
</mgrwt>
</event>
<event>
 4    1  0.2293715E-008  0.4318787E+03  0.7818608E-02  0.1033268E+00
          1   -1    0    0  501    0  0.00000000000E+00  0.00000000000E+00  0.29664972969E+04  0.29664972969E+04  0.50400000000E-02 0. -1.
         -1   -1    0    0    0  501 -0.00000000000E+00 -0.00000000000E+00 -0.11594042645E+03  0.11594042656E+03  0.50400000000E-02 0.  1.
    8880022    1    1    2    0    0 -0.39284086093E+03  0.93827660640E+02  0.38259680495E+03  0.57697447092E+03  0.15294330000E+03 0.  0.
    8880022    1    1    2    0    0  0.39284086093E+03 -0.93827660640E+02  0.24679600655E+04  0.25054632526E+04  0.15294330000E+03 0.  0.
<mgrwt>
<rscale>  0 0.43187872E+03</rscale>
<asrwt>0</asrwt>
<pdfrwt beam="1">  1        1 0.45638416E+00 0.43187872E+03</pdfrwt>
<pdfrwt beam="2">  1       -1 0.17836990E-01 0.43187872E+03</pdfrwt>
<totfact> 0.17668891E+01</totfact>
</mgrwt>
</event>
<event>
 4    1  0.2293715E-008  0.9224249E+03  0.7818608E-02  0.9397975E-01
         -1   -1    0    0    0  501 -0.00000000000E+00  0.00000000000E+00  0.10373464682E+04  0.10373464682E+04  0.50400000000E-02 0.  1.
          1   -1    0    0  501    0  0.00000000000E+00 -0.00000000000E+00 -0.10148820940E+04  0.10148820940E+04  0.50400000000E-02 0. -1.
    8880022    1    1    2    0    0 -0.73591094080E+03 -0.53470657699E+03  0.46061049496E+03  0.10310333250E+04  0.15294330000E+03 0.  0.
    8880022    1    1    2    0    0  0.73591094080E+03  0.53470657699E+03 -0.43814612081E+03  0.10211952372E+04  0.15294330000E+03 0.  0.
<mgrwt>
<rscale>  0 0.92242490E+03</rscale>
<asrwt>0</asrwt>
<pdfrwt beam="1">  1        1 0.15613571E+00 0.92242490E+03</pdfrwt>
<pdfrwt beam="2">  1       -1 0.15959177E+00 0.92242490E+03</pdfrwt>
<totfact> 0.43895835E+00</totfact>
</mgrwt>
</event>
<event>
 4    1  0.2293715E-008  0.4794894E+03  0.7818608E-02  0.1019276E+00
         -1   -1    0    0    0  501 -0.00000000000E+00  0.00000000000E+00  0.37233552305E+03  0.37233552308E+03  0.50400000000E-02 0.  1.
          1   -1    0    0  501    0  0.00000000000E+00 -0.00000000000E+00 -0.10664153594E+04  0.10664153594E+04  0.50400000000E-02 0. -1.
    8880022    1    1    2    0    0  0.44562331729E+03 -0.89096866852E+02 -0.81378948059E+03  0.94454399809E+03  0.15294330000E+03 0.  0.
    8880022    1    1    2    0    0 -0.44562331729E+03  0.89096866852E+02  0.11970964428E+03  0.49420688436E+03  0.15294330000E+03 0.  0.
<mgrwt>
<rscale>  0 0.47948936E+03</rscale>
<asrwt>0</asrwt>
<pdfrwt beam="1">  1        1 0.16406390E+00 0.47948936E+03</pdfrwt>
<pdfrwt beam="2">  1       -1 0.57282389E-01 0.47948936E+03</pdfrwt>
<totfact> 0.44066643E+01</totfact>
</mgrwt>
</event>
<event>
 4    1  0.2293715E-008  0.3394141E+03  0.7818608E-02  0.1067046E+00
         -1   -1    0    0    0  501 -0.00000000000E+00  0.00000000000E+00  0.13394068490E+03  0.13394068499E+03  0.50400000000E-02 0.  1.
          1   -1    0    0  501    0  0.00000000000E+00 -0.00000000000E+00 -0.29301856007E+04  0.29301856007E+04  0.50400000000E-02 0. -1.
    8880022    1    1    2    0    0  0.49722582870E+02  0.29889451252E+03 -0.26858489086E+04  0.27072100542E+04  0.15294330000E+03 0.  0.
    8880022    1    1    2    0    0 -0.49722582870E+02 -0.29889451252E+03 -0.11039600719E+03  0.35691623146E+03  0.15294330000E+03 0.  0.
<mgrwt>
<rscale>  0 0.33941408E+03</rscale>
<asrwt>0</asrwt>
<pdfrwt beam="1">  1        1 0.45079774E+00 0.33941408E+03</pdfrwt>
<pdfrwt beam="2">  1       -1 0.20606261E-01 0.33941408E+03</pdfrwt>
<totfact> 0.15229902E+01</totfact>
</mgrwt>
</event>
<event>
 4    1  0.2293715E-008  0.2626791E+03  0.7818608E-02  0.1105544E+00
         -1   -1    0    0    0  501 -0.00000000000E+00  0.00000000000E+00  0.28092768612E+03  0.28092768617E+03  0.50400000000E-02 0.  1.
          1   -1    0    0  501    0  0.00000000000E+00 -0.00000000000E+00 -0.23052288364E+04  0.23052288365E+04  0.50400000000E-02 0. -1.
    8880022    1    1    2    0    0  0.20501986927E+03  0.59795522546E+02  0.21010097032E+03  0.33636694555E+03  0.15294330000E+03 0.  0.
    8880022    1    1    2    0    0 -0.20501986927E+03 -0.59795522546E+02 -0.22344021207E+04  0.22497895771E+04  0.15294330000E+03 0.  0.
<mgrwt>
<rscale>  0 0.26267909E+03</rscale>
<asrwt>0</asrwt>
<pdfrwt beam="1">  1        1 0.35465058E+00 0.26267909E+03</pdfrwt>
<pdfrwt beam="2">  1       -1 0.43219645E-01 0.26267909E+03</pdfrwt>
<totfact> 0.11664896E+01</totfact>
</mgrwt>
</event>
<event>
 4    1  0.2293715E-008  0.6140245E+03  0.7818608E-02  0.9876729E-01
          1   -1    0    0  501    0  0.00000000000E+00  0.00000000000E+00  0.69303374126E+03  0.69303374128E+03  0.50400000000E-02 0. -1.
         -1   -1    0    0    0  501 -0.00000000000E+00 -0.00000000000E+00 -0.86742008934E+03  0.86742008936E+03  0.50400000000E-02 0.  1.
    8880022    1    1    2    0    0  0.39643676511E+03 -0.44325198179E+03 -0.56359613341E+03  0.83346666562E+03  0.15294330000E+03 0.  0.
    8880022    1    1    2    0    0 -0.39643676511E+03  0.44325198179E+03  0.38920978533E+03  0.72698716502E+03  0.15294330000E+03 0.  0.
<mgrwt>
<rscale>  0 0.61402450E+03</rscale>
<asrwt>0</asrwt>
<pdfrwt beam="1">  1        1 0.10662058E+00 0.61402450E+03</pdfrwt>
<pdfrwt beam="2">  1       -1 0.13344924E+00 0.61402450E+03</pdfrwt>
<totfact> 0.13755676E+01</totfact>
</mgrwt>
</event>
<event>
 4    1  0.2293715E-008  0.2480493E+03  0.7818608E-02  0.1114544E+00
          1   -1    0    0  501    0  0.00000000000E+00  0.00000000000E+00  0.19595295331E+03  0.19595295337E+03  0.50400000000E-02 0. -1.
         -1   -1    0    0    0  501 -0.00000000000E+00 -0.00000000000E+00 -0.12686674807E+04  0.12686674807E+04  0.50400000000E-02 0.  1.
    8880022    1    1    2    0    0 -0.14018947990E+03 -0.13595486839E+03 -0.11716123247E+04  0.11975825269E+04  0.15294330000E+03 0.  1.
    8880022    1    1    2    0    0  0.14018947990E+03  0.13595486839E+03  0.98897797294E+02  0.26703790712E+03  0.15294330000E+03 0.  0.
<mgrwt>
<rscale>  0 0.24804933E+03</rscale>
<asrwt>0</asrwt>
<pdfrwt beam="1">  1        1 0.30146609E-01 0.24804933E+03</pdfrwt>
<pdfrwt beam="2">  1       -1 0.19517961E+00 0.24804933E+03</pdfrwt>
<totfact> 0.27487272E+01</totfact>
</mgrwt>
</event>
<event>
 4    1  0.2293715E-008  0.9483822E+03  0.7818608E-02  0.9367043E-01
         -1   -1    0    0    0  501 -0.00000000000E+00  0.00000000000E+00  0.56078791681E+03  0.56078791683E+03  0.50400000000E-02 0.  1.
          1   -1    0    0  501    0  0.00000000000E+00 -0.00000000000E+00 -0.19688793478E+04  0.19688793478E+04  0.50400000000E-02 0. -1.
    8880022    1    1    2    0    0  0.51559610909E+03 -0.78115161595E+03 -0.15944520905E+03  0.96169206221E+03  0.15294330000E+03 0.  0.
    8880022    1    1    2    0    0 -0.51559610909E+03  0.78115161595E+03 -0.12486462219E+04  0.15679752024E+04  0.15294330000E+03 0.  0.
<mgrwt>
<rscale>  0 0.94838223E+03</rscale>
<asrwt>0</asrwt>
<pdfrwt beam="1">  1        1 0.30290451E+00 0.94838223E+03</pdfrwt>
<pdfrwt beam="2">  1       -1 0.86275065E-01 0.94838223E+03</pdfrwt>
<totfact> 0.42211656E+00</totfact>
</mgrwt>
</event>
<event>
 4    1  0.2293715E-008  0.4218257E+03  0.7818608E-02  0.1036474E+00
         -1   -1    0    0    0  501 -0.00000000000E+00  0.00000000000E+00  0.67895132707E+03  0.67895132709E+03  0.50400000000E-02 0.  1.
          1   -1    0    0  501    0  0.00000000000E+00 -0.00000000000E+00 -0.72556944121E+03  0.72556944123E+03  0.50400000000E-02 0. -1.
    8880022    1    1    2    0    0  0.38084470703E+03  0.97481133717E+02 -0.58459016951E+03  0.72089013144E+03  0.15294330000E+03 0.  0.
    8880022    1    1    2    0    0 -0.38084470703E+03 -0.97481133717E+02  0.53797205537E+03  0.68363063688E+03  0.15294330000E+03 0.  1.
<mgrwt>
<rscale>  0 0.42182569E+03</rscale>
<asrwt>0</asrwt>
<pdfrwt beam="1">  1        1 0.11162607E+00 0.42182569E+03</pdfrwt>
<pdfrwt beam="2">  1       -1 0.10445405E+00 0.42182569E+03</pdfrwt>
<totfact> 0.23928980E+01</totfact>
</mgrwt>
</event>
<event>
 4    1  0.2293715E-008  0.1641841E+03  0.7818608E-02  0.1184052E+00
         -1   -1    0    0    0  501 -0.00000000000E+00  0.00000000000E+00  0.29476797392E+03  0.29476797396E+03  0.50400000000E-02 0.  1.
          1   -1    0    0  501    0  0.00000000000E+00 -0.00000000000E+00 -0.10140023402E+04  0.10140023402E+04  0.50400000000E-02 0. -1.
    8880022    1    1    2    0    0  0.19435894779E+02  0.56453619189E+02  0.26456240036E+03  0.31136743860E+03  0.15294330000E+03 0.  0.
    8880022    1    1    2    0    0 -0.19435894779E+02 -0.56453619189E+02 -0.98379676659E+03  0.99740287552E+03  0.15294330000E+03 0. -1.
<mgrwt>
<rscale>  0 0.16418410E+03</rscale>
<asrwt>0</asrwt>
<pdfrwt beam="1">  1        1 0.15600036E+00 0.16418410E+03</pdfrwt>
<pdfrwt beam="2">  1       -1 0.45348920E-01 0.16418410E+03</pdfrwt>
<totfact> 0.80525737E+01</totfact>
</mgrwt>
</event>
<event>
 4    1  0.2293715E-008  0.3673467E+03  0.7818608E-02  0.1055712E+00
         -1   -1    0    0    0  501 -0.00000000000E+00  0.00000000000E+00  0.33203172476E+03  0.33203172480E+03  0.50400000000E-02 0.  1.
          1   -1    0    0  501    0  0.00000000000E+00 -0.00000000000E+00 -0.42889257265E+03  0.42889257268E+03  0.50400000000E-02 0. -1.
    8880022    1    1    2    0    0  0.33308900051E+03  0.24569627877E+02  0.38662903516E+02  0.36937571928E+03  0.15294330000E+03 0.  1.
    8880022    1    1    2    0    0 -0.33308900051E+03 -0.24569627877E+02 -0.13552375140E+03  0.39154857819E+03  0.15294330000E+03 0. -1.
<mgrwt>
<rscale>  0 0.36734671E+03</rscale>
<asrwt>0</asrwt>
<pdfrwt beam="1">  1        1 0.65983473E-01 0.36734671E+03</pdfrwt>
<pdfrwt beam="2">  1       -1 0.51081804E-01 0.36734671E+03</pdfrwt>
<totfact> 0.21834813E+02</totfact>
</mgrwt>
</event>
<event>
 4    1  0.2293715E-008  0.4953337E+03  0.7818608E-02  0.1015004E+00
         -1   -1    0    0    0  501 -0.00000000000E+00  0.00000000000E+00  0.39242956363E+03  0.39242956366E+03  0.50400000000E-02 0.  1.
          1   -1    0    0  501    0  0.00000000000E+00 -0.00000000000E+00 -0.35103692625E+04  0.35103692625E+04  0.50400000000E-02 0. -1.
    8880022    1    1    2    0    0  0.34669214484E+03 -0.31901149774E+03 -0.33280755935E+04  0.33647351439E+04  0.15294330000E+03 0.  0.
    8880022    1    1    2    0    0 -0.34669214484E+03  0.31901149774E+03  0.21013589466E+03  0.53806368231E+03  0.15294330000E+03 0.  0.
<mgrwt>
<rscale>  0 0.49533366E+03</rscale>
<asrwt>0</asrwt>
<pdfrwt beam="1">  1        1 0.54005679E+00 0.49533366E+03</pdfrwt>
<pdfrwt beam="2">  1       -1 0.60373781E-01 0.49533366E+03</pdfrwt>
<totfact> 0.80369390E-01</totfact>
</mgrwt>
</event>
<event>
 4    1  0.2293715E-008  0.3818316E+03  0.7818608E-02  0.1050259E+00
         -1   -1    0    0    0  501 -0.00000000000E+00  0.00000000000E+00  0.13583878671E+03  0.13583878680E+03  0.50400000000E-02 0.  1.
          1   -1    0    0  501    0  0.00000000000E+00 -0.00000000000E+00 -0.12926583857E+04  0.12926583857E+04  0.50400000000E-02 0. -1.
    8880022    1    1    2    0    0 -0.33167723877E+03  0.11132786193E+03 -0.28417923598E+03  0.47597602328E+03  0.15294330000E+03 0.  0.
    8880022    1    1    2    0    0  0.33167723877E+03 -0.11132786193E+03 -0.87264036303E+03  0.95252114925E+03  0.15294330000E+03 0.  1.
<mgrwt>
<rscale>  0 0.38183156E+03</rscale>
<asrwt>0</asrwt>
<pdfrwt beam="1">  1        1 0.19887051E+00 0.38183156E+03</pdfrwt>
<pdfrwt beam="2">  1       -1 0.20898276E-01 0.38183156E+03</pdfrwt>
<totfact> 0.18338674E+02</totfact>
</mgrwt>
</event>
<event>
 4    1  0.2293715E-008  0.1821578E+03  0.7818608E-02  0.1165731E+00
          1   -1    0    0  501    0  0.00000000000E+00  0.00000000000E+00  0.12498072547E+04  0.12498072547E+04  0.50400000000E-02 0. -1.
         -1   -1    0    0    0  501 -0.00000000000E+00 -0.00000000000E+00 -0.17021197886E+03  0.17021197893E+03  0.50400000000E-02 0.  1.
    8880022    1    1    2    0    0  0.82437872165E+02 -0.54715778773E+02  0.11920883488E+04  0.12059254138E+04  0.15294330000E+03 0.  0.
    8880022    1    1    2    0    0 -0.82437872165E+02  0.54715778773E+02 -0.11249307298E+03  0.21409381985E+03  0.15294330000E+03 0.  1.
<mgrwt>
<rscale>  0 0.18215782E+03</rscale>
<asrwt>0</asrwt>
<pdfrwt beam="1">  1        1 0.19227804E+00 0.18215782E+03</pdfrwt>
<pdfrwt beam="2">  1       -1 0.26186458E-01 0.18215782E+03</pdfrwt>
<totfact> 0.14073852E+02</totfact>
</mgrwt>
</event>
<event>
 4    1  0.2293715E-008  0.1139791E+04  0.7818608E-02  0.9167254E-01
         -1   -1    0    0    0  501 -0.00000000000E+00  0.00000000000E+00  0.55934968803E+03  0.55934968805E+03  0.50400000000E-02 0.  1.
          1   -1    0    0  501    0  0.00000000000E+00 -0.00000000000E+00 -0.26092594186E+04  0.26092594186E+04  0.50400000000E-02 0. -1.
    8880022    1    1    2    0    0 -0.86057863187E+03  0.73152992840E+03 -0.15501169531E+04  0.19240545313E+04  0.15294330000E+03 0.  0.
    8880022    1    1    2    0    0  0.86057863187E+03 -0.73152992840E+03 -0.49979277742E+03  0.12445545754E+04  0.15294330000E+03 0.  0.
<mgrwt>
<rscale>  0 0.11397909E+04</rscale>
<asrwt>0</asrwt>
<pdfrwt beam="1">  1        1 0.40142452E+00 0.11397909E+04</pdfrwt>
<pdfrwt beam="2">  1       -1 0.86053800E-01 0.11397909E+04</pdfrwt>
<totfact> 0.15157518E+00</totfact>
</mgrwt>
</event>
<event>
 4    1  0.2371477E-008  0.5879393E+03  0.7818608E-02  0.9930749E-01
          1   -1    0    0  501    0  0.00000000000E+00  0.00000000000E+00  0.16859513884E+04  0.16859513884E+04  0.50400000000E-02 0. -1.
         -1   -1    0    0    0  501 -0.00000000000E+00 -0.00000000000E+00 -0.91565314778E+03  0.91565314779E+03  0.50400000000E-02 0.  1.
    8880022    1    1    2    0    0 -0.51282922782E+03  0.24348958943E+03  0.15310976058E+04  0.16401013775E+04  0.15294330000E+03 0.  0.
    8880022    1    1    2    0    0  0.51282922782E+03 -0.24348958943E+03 -0.76079936518E+03  0.96150315867E+03  0.15294330000E+03 0.  0.
<mgrwt>
<rscale>  0 0.58793933E+03</rscale>
<asrwt>0</asrwt>
<pdfrwt beam="1">  1        1 0.25937714E+00 0.58793933E+03</pdfrwt>
<pdfrwt beam="2">  1       -1 0.14086972E+00 0.58793933E+03</pdfrwt>
<totfact> 0.21840702E+00</totfact>
</mgrwt>
</event>
<event>
 4    1  0.2293715E-008  0.4775511E+03  0.7818608E-02  0.1019810E+00
          1   -1    0    0  501    0  0.00000000000E+00  0.00000000000E+00  0.20109972957E+04  0.20109972957E+04  0.50400000000E-02 0. -1.
         -1   -1    0    0    0  501 -0.00000000000E+00 -0.00000000000E+00 -0.44822546079E+03  0.44822546082E+03  0.50400000000E-02 0.  1.
    8880022    1    1    2    0    0 -0.28433756906E+03 -0.35187427944E+03 -0.28135229120E+03  0.55426900191E+03  0.15294330000E+03 0.  0.
    8880022    1    1    2    0    0  0.28433756906E+03  0.35187427944E+03  0.18441241261E+04  0.19049537546E+04  0.15294330000E+03 0.  0.
<mgrwt>
<rscale>  0 0.47755106E+03</rscale>
<asrwt>0</asrwt>
<pdfrwt beam="1">  1        1 0.30938420E+00 0.47755106E+03</pdfrwt>
<pdfrwt beam="2">  1       -1 0.68957763E-01 0.47755106E+03</pdfrwt>
<totfact> 0.69245309E+00</totfact>
</mgrwt>
</event>
<event>
 4    1  0.2293715E-008  0.3169283E+03  0.7818608E-02  0.1077072E+00
         -1   -1    0    0    0  501 -0.00000000000E+00  0.00000000000E+00  0.70756810087E+03  0.70756810089E+03  0.50400000000E-02 0.  1.
          1   -1    0    0  501    0  0.00000000000E+00 -0.00000000000E+00 -0.16640102879E+04  0.16640102879E+04  0.50400000000E-02 0. -1.
    8880022    1    1    2    0    0  0.69662886592E+02 -0.26869862009E+03  0.65586117452E+03  0.72842116902E+03  0.15294330000E+03 0.  0.
    8880022    1    1    2    0    0 -0.69662886592E+02  0.26869862009E+03 -0.16123033616E+04  0.16431572198E+04  0.15294330000E+03 0.  0.
<mgrwt>
<rscale>  0 0.31692826E+03</rscale>
<asrwt>0</asrwt>
<pdfrwt beam="1">  1        1 0.25600158E+00 0.31692826E+03</pdfrwt>
<pdfrwt beam="2">  1       -1 0.10885663E+00 0.31692826E+03</pdfrwt>
<totfact> 0.46312451E+00</totfact>
</mgrwt>
</event>
<event>
 4    1  0.2293715E-008  0.5560649E+03  0.7818608E-02  0.1000100E+00
         -1   -1    0    0    0  501 -0.00000000000E+00  0.00000000000E+00  0.41565932833E+03  0.41565932836E+03  0.50400000000E-02 0.  1.
          1   -1    0    0  501    0  0.00000000000E+00 -0.00000000000E+00 -0.18090742038E+04  0.18090742038E+04  0.50400000000E-02 0. -1.
    8880022    1    1    2    0    0 -0.80072787386E+02  0.52858764785E+03 -0.15502604742E+04  0.16469716888E+04  0.15294330000E+03 0.  0.
    8880022    1    1    2    0    0  0.80072787386E+02 -0.52858764785E+03  0.15684559879E+03  0.57776184334E+03  0.15294330000E+03 0.  0.
<mgrwt>
<rscale>  0 0.55606493E+03</rscale>
<asrwt>0</asrwt>
<pdfrwt beam="1">  1        1 0.27831910E+00 0.55606493E+03</pdfrwt>
<pdfrwt beam="2">  1       -1 0.63947590E-01 0.55606493E+03</pdfrwt>
<totfact> 0.10754552E+01</totfact>
</mgrwt>
</event>
<event>
 4    1  0.2293715E-008  0.6357881E+03  0.7818608E-02  0.9833818E-01
          1   -1    0    0  501    0  0.00000000000E+00  0.00000000000E+00  0.14532375005E+04  0.14532375005E+04  0.50400000000E-02 0. -1.
         -1   -1    0    0    0  501 -0.00000000000E+00 -0.00000000000E+00 -0.36587076234E+03  0.36587076237E+03  0.50400000000E-02 0.  1.
    8880022    1    1    2    0    0 -0.45253501751E+03 -0.41957944317E+03  0.98333397727E+02  0.64334746547E+03  0.15294330000E+03 0.  1.
    8880022    1    1    2    0    0  0.45253501751E+03  0.41957944317E+03  0.98903334044E+03  0.11757607974E+04  0.15294330000E+03 0.  0.
<mgrwt>
<rscale>  0 0.63578810E+03</rscale>
<asrwt>0</asrwt>
<pdfrwt beam="1">  1        1 0.22357500E+00 0.63578810E+03</pdfrwt>
<pdfrwt beam="2">  1       -1 0.56287811E-01 0.63578810E+03</pdfrwt>
<totfact> 0.23634342E+01</totfact>
</mgrwt>
</event>
<event>
 4    1  0.2293715E-008  0.5306058E+03  0.7818608E-02  0.1006085E+00
          1   -1    0    0  501    0  0.00000000000E+00  0.00000000000E+00  0.21473585020E+04  0.21473585020E+04  0.50400000000E-02 0. -1.
         -1   -1    0    0    0  501 -0.00000000000E+00 -0.00000000000E+00 -0.29942974822E+03  0.29942974827E+03  0.50400000000E-02 0.  1.
    8880022    1    1    2    0    0  0.25890722977E+03  0.43717028491E+03  0.67199581094E+01  0.53064830395E+03  0.15294330000E+03 0.  0.
    8880022    1    1    2    0    0 -0.25890722977E+03 -0.43717028491E+03  0.18412087957E+04  0.19161399463E+04  0.15294330000E+03 0. -1.
<mgrwt>
<rscale>  0 0.53060575E+03</rscale>
<asrwt>0</asrwt>
<pdfrwt beam="1">  1        1 0.33036285E+00 0.53060575E+03</pdfrwt>
<pdfrwt beam="2">  1       -1 0.46066115E-01 0.53060575E+03</pdfrwt>
<totfact> 0.12096648E+01</totfact>
</mgrwt>
</event>
<event>
 4    1  0.2293715E-008  0.4301032E+03  0.7818608E-02  0.1033827E+00
         -1   -1    0    0    0  501 -0.00000000000E+00  0.00000000000E+00  0.18675565159E+04  0.18675565159E+04  0.50400000000E-02 0.  1.
          1   -1    0    0  501    0  0.00000000000E+00 -0.00000000000E+00 -0.39202250733E+03  0.39202250736E+03  0.50400000000E-02 0. -1.
    8880022    1    1    2    0    0 -0.38932942248E+03 -0.10009849843E+03 -0.23891363513E+03  0.49200455960E+03  0.15294330000E+03 0.  0.
    8880022    1    1    2    0    0  0.38932942248E+03  0.10009849843E+03  0.17144476437E+04  0.17675744636E+04  0.15294330000E+03 0.  0.
<mgrwt>
<rscale>  0 0.43010320E+03</rscale>
<asrwt>0</asrwt>
<pdfrwt beam="1">  1        1 0.60311155E-01 0.43010320E+03</pdfrwt>
<pdfrwt beam="2">  1       -1 0.28731639E+00 0.43010320E+03</pdfrwt>
<totfact> 0.27582392E+00</totfact>
</mgrwt>
</event>
<event>
 4    1  0.2293715E-008  0.2195131E+03  0.7818608E-02  0.1134247E+00
         -1   -1    0    0    0  501 -0.00000000000E+00  0.00000000000E+00  0.27114592189E+03  0.27114592194E+03  0.50400000000E-02 0.  1.
          1   -1    0    0  501    0  0.00000000000E+00 -0.00000000000E+00 -0.12028472573E+04  0.12028472573E+04  0.50400000000E-02 0. -1.
    8880022    1    1    2    0    0 -0.12515606326E+03 -0.95552758061E+02  0.21452803988E+03  0.30693371052E+03  0.15294330000E+03 0.  0.
    8880022    1    1    2    0    0  0.12515606326E+03  0.95552758061E+02 -0.11462293753E+04  0.11670594687E+04  0.15294330000E+03 0.  0.
<mgrwt>
<rscale>  0 0.21951315E+03</rscale>
<asrwt>0</asrwt>
<pdfrwt beam="1">  1        1 0.18505342E+00 0.21951315E+03</pdfrwt>
<pdfrwt beam="2">  1       -1 0.41714758E-01 0.21951315E+03</pdfrwt>
<totfact> 0.67230358E+01</totfact>
</mgrwt>
</event>
<event>
 4    1  0.2293715E-008  0.5003786E+03  0.7818608E-02  0.1013680E+00
         -1   -1    0    0    0  501 -0.00000000000E+00  0.00000000000E+00  0.21871732227E+03  0.21871732233E+03  0.50400000000E-02 0.  1.
          1   -1    0    0  501    0  0.00000000000E+00 -0.00000000000E+00 -0.14998814619E+04  0.14998814619E+04  0.50400000000E-02 0. -1.
    8880022    1    1    2    0    0  0.34701778719E+03  0.32644415295E+03 -0.22245848862E+03  0.54760073210E+03  0.15294330000E+03 0.  0.
    8880022    1    1    2    0    0 -0.34701778719E+03 -0.32644415295E+03 -0.10587056510E+04  0.11709980521E+04  0.15294330000E+03 0. -1.
<mgrwt>
<rscale>  0 0.50037864E+03</rscale>
<asrwt>0</asrwt>
<pdfrwt beam="1">  1        1 0.23075099E+00 0.50037864E+03</pdfrwt>
<pdfrwt beam="2">  1       -1 0.33648820E-01 0.50037864E+03</pdfrwt>
<totfact> 0.57791824E+01</totfact>
</mgrwt>
</event>
<event>
 4    1  0.2293715E-008  0.1168183E+04  0.7818608E-02  0.9141171E-01
         -1   -1    0    0    0  501 -0.00000000000E+00  0.00000000000E+00  0.92785560767E+03  0.92785560769E+03  0.50400000000E-02 0.  1.
          1   -1    0    0  501    0  0.00000000000E+00 -0.00000000000E+00 -0.17620022346E+04  0.17620022347E+04  0.50400000000E-02 0. -1.
    8880022    1    1    2    0    0  0.11560658982E+04  0.69071746687E+02 -0.96386875389E+03  0.15144946005E+04  0.15294330000E+03 0.  0.
    8880022    1    1    2    0    0 -0.11560658982E+04 -0.69071746687E+02  0.12972212691E+03  0.11753632419E+04  0.15294330000E+03 0.  0.
<mgrwt>
<rscale>  0 0.11681827E+04</rscale>
<asrwt>0</asrwt>
<pdfrwt beam="1">  1        1 0.27107727E+00 0.11681827E+04</pdfrwt>
<pdfrwt beam="2">  1       -1 0.14274702E+00 0.11681827E+04</pdfrwt>
<totfact> 0.16977241E+00</totfact>
</mgrwt>
</event>
<event>
 4    1  0.2293715E-008  0.5701905E+03  0.7818608E-02  0.9969257E-01
         -1   -1    0    0    0  501 -0.00000000000E+00  0.00000000000E+00  0.36744483498E+03  0.36744483502E+03  0.50400000000E-02 0.  1.
          1   -1    0    0  501    0  0.00000000000E+00 -0.00000000000E+00 -0.24911401839E+04  0.24911401839E+04  0.50400000000E-02 0. -1.
    8880022    1    1    2    0    0 -0.45392408811E+03  0.30931946098E+03 -0.22095784696E+04  0.22819628115E+04  0.15294330000E+03 0.  0.
    8880022    1    1    2    0    0  0.45392408811E+03 -0.30931946098E+03  0.85883120646E+02  0.57662220746E+03  0.15294330000E+03 0.  0.
<mgrwt>
<rscale>  0 0.57019055E+03</rscale>
<asrwt>0</asrwt>
<pdfrwt beam="1">  1        1 0.38325233E+00 0.57019055E+03</pdfrwt>
<pdfrwt beam="2">  1       -1 0.56529976E-01 0.57019055E+03</pdfrwt>
<totfact> 0.47870361E+00</totfact>
</mgrwt>
</event>
<event>
 4    1  0.2293715E-008  0.1018866E+04  0.7818608E-02  0.9288092E-01
         -1   -1    0    0    0  501 -0.00000000000E+00  0.00000000000E+00  0.75661977627E+03  0.75661977629E+03  0.50400000000E-02 0.  1.
          1   -1    0    0  501    0  0.00000000000E+00 -0.00000000000E+00 -0.18242289374E+04  0.18242289374E+04  0.50400000000E-02 0. -1.
    8880022    1    1    2    0    0 -0.20115124568E+03 -0.98703301525E+03 -0.11762979967E+04  0.15562019878E+04  0.15294330000E+03 0.  0.
    8880022    1    1    2    0    0  0.20115124568E+03  0.98703301525E+03  0.10868883557E+03  0.10246467259E+04  0.15294330000E+03 0.  0.
<mgrwt>
<rscale>  0 0.10188659E+04</rscale>
<asrwt>0</asrwt>
<pdfrwt beam="1">  1        1 0.28065061E+00 0.10188659E+04</pdfrwt>
<pdfrwt beam="2">  1       -1 0.11640304E+00 0.10188659E+04</pdfrwt>
<totfact> 0.26310687E+00</totfact>
</mgrwt>
</event>
<event>
 4    1  0.2293715E-008  0.4330839E+03  0.7818608E-02  0.1032890E+00
         -1   -1    0    0    0  501 -0.00000000000E+00  0.00000000000E+00  0.76449940945E+03  0.76449940947E+03  0.50400000000E-02 0.  1.
          1   -1    0    0  501    0  0.00000000000E+00 -0.00000000000E+00 -0.49515064105E+03  0.49515064107E+03  0.50400000000E-02 0. -1.
    8880022    1    1    2    0    0  0.38493298915E+03  0.12647751651E+03  0.58203470546E+03  0.72548330077E+03  0.15294330000E+03 0.  0.
    8880022    1    1    2    0    0 -0.38493298915E+03 -0.12647751651E+03 -0.31268593706E+03  0.53416674977E+03  0.15294330000E+03 0.  0.
<mgrwt>
<rscale>  0 0.43308385E+03</rscale>
<asrwt>0</asrwt>
<pdfrwt beam="1">  1        1 0.76177022E-01 0.43308385E+03</pdfrwt>
<pdfrwt beam="2">  1       -1 0.11761529E+00 0.43308385E+03</pdfrwt>
<totfact> 0.31123827E+01</totfact>
</mgrwt>
</event>
<event>
 4    1  0.2337811E-008  0.9039059E+03  0.7818608E-02  0.9420712E-01
         -1   -1    0    0    0  501 -0.00000000000E+00  0.00000000000E+00  0.10332198429E+04  0.10332198429E+04  0.50400000000E-02 0.  1.
          1   -1    0    0  501    0  0.00000000000E+00 -0.00000000000E+00 -0.15508226130E+04  0.15508226130E+04  0.50400000000E-02 0. -1.
    8880022    1    1    2    0    0  0.67589681069E+03  0.58035996592E+03 -0.11633014318E+04  0.14731992611E+04  0.15294330000E+03 0.  0.
    8880022    1    1    2    0    0 -0.67589681069E+03 -0.58035996592E+03  0.64569866167E+03  0.11108431948E+04  0.15294330000E+03 0.  0.
<mgrwt>
<rscale>  0 0.90390588E+03</rscale>
<asrwt>0</asrwt>
<pdfrwt beam="1">  1        1 0.23858809E+00 0.90390588E+03</pdfrwt>
<pdfrwt beam="2">  1       -1 0.15895690E+00 0.90390588E+03</pdfrwt>
<totfact> 0.18325475E+00</totfact>
</mgrwt>
</event>
<event>
 4    1  0.2293715E-008  0.2996263E+03  0.7818608E-02  0.1085428E+00
          1   -1    0    0  501    0  0.00000000000E+00  0.00000000000E+00  0.19625608482E+03  0.19625608488E+03  0.50400000000E-02 0. -1.
         -1   -1    0    0    0  501 -0.00000000000E+00 -0.00000000000E+00 -0.80140483050E+03  0.80140483051E+03  0.50400000000E-02 0.  1.
    8880022    1    1    2    0    0 -0.23603407715E+03 -0.10330619748E+03  0.24225827439E+02  0.30060405809E+03  0.15294330000E+03 0.  0.
    8880022    1    1    2    0    0  0.23603407715E+03  0.10330619748E+03 -0.62937457312E+03  0.69705685730E+03  0.15294330000E+03 0.  0.
<mgrwt>
<rscale>  0 0.29962628E+03</rscale>
<asrwt>0</asrwt>
<pdfrwt beam="1">  1        1 0.30193244E-01 0.29962628E+03</pdfrwt>
<pdfrwt beam="2">  1       -1 0.12329305E+00 0.29962628E+03</pdfrwt>
<totfact> 0.93427980E+01</totfact>
</mgrwt>
</event>
<event>
 4    1  0.2293715E-008  0.8041399E+03  0.7818608E-02  0.9554044E-01
          1   -1    0    0  501    0  0.00000000000E+00  0.00000000000E+00  0.18519649067E+04  0.18519649067E+04  0.50400000000E-02 0. -1.
         -1   -1    0    0    0  501 -0.00000000000E+00 -0.00000000000E+00 -0.81173214247E+03  0.81173214249E+03  0.50400000000E-02 0.  1.
    8880022    1    1    2    0    0 -0.62251978533E+03 -0.48550848056E+03 -0.48527678651E+03  0.93922019802E+03  0.15294330000E+03 0.  0.
    8880022    1    1    2    0    0  0.62251978533E+03  0.48550848056E+03  0.15255095508E+04  0.17244768512E+04  0.15294330000E+03 0.  0.
<mgrwt>
<rscale>  0 0.80413993E+03</rscale>
<asrwt>0</asrwt>
<pdfrwt beam="1">  1        1 0.28491768E+00 0.80413993E+03</pdfrwt>
<pdfrwt beam="2">  1       -1 0.12488187E+00 0.80413993E+03</pdfrwt>
<totfact> 0.21932901E+00</totfact>
</mgrwt>
</event>
<event>
 4    1  0.2293715E-008  0.3681865E+03  0.7818608E-02  0.1055389E+00
          1   -1    0    0  501    0  0.00000000000E+00  0.00000000000E+00  0.30584239669E+03  0.30584239673E+03  0.50400000000E-02 0. -1.
         -1   -1    0    0    0  501 -0.00000000000E+00 -0.00000000000E+00 -0.98035766846E+03  0.98035766847E+03  0.50400000000E-02 0.  1.
    8880022    1    1    2    0    0 -0.32379869818E+03  0.85580781173E+02  0.13875811639E+03  0.39346554478E+03  0.15294330000E+03 0.  0.
    8880022    1    1    2    0    0  0.32379869818E+03 -0.85580781173E+02 -0.81327338816E+03  0.89273452042E+03  0.15294330000E+03 0.  0.
<mgrwt>
<rscale>  0 0.36818653E+03</rscale>
<asrwt>0</asrwt>
<pdfrwt beam="1">  1        1 0.47052677E-01 0.36818653E+03</pdfrwt>
<pdfrwt beam="2">  1       -1 0.15082426E+00 0.36818653E+03</pdfrwt>
<totfact> 0.31565234E+01</totfact>
</mgrwt>
</event>
<event>
 4    1  0.2293715E-008  0.3136703E+03  0.7818608E-02  0.1078600E+00
          1   -1    0    0  501    0  0.00000000000E+00  0.00000000000E+00  0.12781053601E+04  0.12781053601E+04  0.50400000000E-02 0. -1.
         -1   -1    0    0    0  501 -0.00000000000E+00 -0.00000000000E+00 -0.25950941292E+03  0.25950941297E+03  0.50400000000E-02 0.  1.
    8880022    1    1    2    0    0  0.54909238369E+02 -0.26829529644E+03  0.11540711463E+04  0.11959386499E+04  0.15294330000E+03 0.  0.
    8880022    1    1    2    0    0 -0.54909238369E+02  0.26829529644E+03 -0.13547519914E+03  0.34167612317E+03  0.15294330000E+03 0.  1.
<mgrwt>
<rscale>  0 0.31367028E+03</rscale>
<asrwt>0</asrwt>
<pdfrwt beam="1">  1        1 0.19663160E+00 0.31367028E+03</pdfrwt>
<pdfrwt beam="2">  1       -1 0.39924525E-01 0.31367028E+03</pdfrwt>
<totfact> 0.62767331E+01</totfact>
</mgrwt>
</event>
<event>
 4    1  0.2293715E-008  0.1105115E+04  0.7818608E-02  0.9200220E-01
          1   -1    0    0  501    0  0.00000000000E+00  0.00000000000E+00  0.16173640359E+04  0.16173640359E+04  0.50400000000E-02 0. -1.
         -1   -1    0    0    0  501 -0.00000000000E+00 -0.00000000000E+00 -0.11272876781E+04  0.11272876781E+04  0.50400000000E-02 0.  1.
    8880022    1    1    2    0    0 -0.89771826807E+03  0.62609105870E+03  0.10335676214E+04  0.15131231885E+04  0.15294330000E+03 0.  0.
    8880022    1    1    2    0    0  0.89771826807E+03 -0.62609105870E+03 -0.54349126355E+03  0.12315285255E+04  0.15294330000E+03 0.  0.
<mgrwt>
<rscale>  0 0.11051153E+04</rscale>
<asrwt>0</asrwt>
<pdfrwt beam="1">  1        1 0.24882524E+00 0.11051153E+04</pdfrwt>
<pdfrwt beam="2">  1       -1 0.17342887E+00 0.11051153E+04</pdfrwt>
<totfact> 0.12511704E+00</totfact>
</mgrwt>
</event>
<event>
 4    1  0.2293715E-008  0.1946049E+03  0.7818608E-02  0.1154372E+00
          1   -1    0    0  501    0  0.00000000000E+00  0.00000000000E+00  0.44811944955E+03  0.44811944958E+03  0.50400000000E-02 0. -1.
         -1   -1    0    0    0  501 -0.00000000000E+00 -0.00000000000E+00 -0.92043864235E+03  0.92043864236E+03  0.50400000000E-02 0.  1.
    8880022    1    1    2    0    0 -0.12031669721E+03 -0.18162117406E+01  0.41594932509E+03  0.45922205992E+03  0.15294330000E+03 0.  0.
    8880022    1    1    2    0    0  0.12031669721E+03  0.18162117406E+01 -0.88826851789E+03  0.90933603203E+03  0.15294330000E+03 0.  1.
<mgrwt>
<rscale>  0 0.19460488E+03</rscale>
<asrwt>0</asrwt>
<pdfrwt beam="1">  1        1 0.68941454E-01 0.19460488E+03</pdfrwt>
<pdfrwt beam="2">  1       -1 0.14160594E+00 0.19460488E+03</pdfrwt>
<totfact> 0.23887828E+01</totfact>
</mgrwt>
</event>
<event>
 4    1  0.2293715E-008  0.3051890E+03  0.7818608E-02  0.1082675E+00
          1   -1    0    0  501    0  0.00000000000E+00  0.00000000000E+00  0.18071117059E+04  0.18071117059E+04  0.50400000000E-02 0. -1.
         -1   -1    0    0    0  501 -0.00000000000E+00 -0.00000000000E+00 -0.17418547604E+03  0.17418547611E+03  0.50400000000E-02 0.  1.
    8880022    1    1    2    0    0 -0.23535841199E+03  0.11981284957E+03 -0.14798339980E+02  0.30554761478E+03  0.15294330000E+03 0.  0.
    8880022    1    1    2    0    0  0.23535841199E+03 -0.11981284957E+03  0.16477245698E+04  0.16757495672E+04  0.15294330000E+03 0.  0.
<mgrwt>
<rscale>  0 0.30518905E+03</rscale>
<asrwt>0</asrwt>
<pdfrwt beam="1">  1        1 0.27801719E+00 0.30518905E+03</pdfrwt>
<pdfrwt beam="2">  1       -1 0.26797765E-01 0.30518905E+03</pdfrwt>
<totfact> 0.55760575E+01</totfact>
</mgrwt>
</event>
<event>
 4    1  0.2293715E-008  0.6383108E+03  0.7818608E-02  0.9828964E-01
         -1   -1    0    0    0  501 -0.00000000000E+00  0.00000000000E+00  0.51059691101E+03  0.51059691104E+03  0.50400000000E-02 0.  1.
          1   -1    0    0  501    0  0.00000000000E+00 -0.00000000000E+00 -0.22281287168E+04  0.22281287168E+04  0.50400000000E-02 0. -1.
    8880022    1    1    2    0    0  0.58049375638E+03  0.21697006858E+03 -0.19558517578E+04  0.20573761842E+04  0.15294330000E+03 0.  0.
    8880022    1    1    2    0    0 -0.58049375638E+03 -0.21697006858E+03  0.23831995198E+03  0.68134944367E+03  0.15294330000E+03 0.  0.
<mgrwt>
<rscale>  0 0.63831079E+03</rscale>
<asrwt>0</asrwt>
<pdfrwt beam="1">  1        1 0.34278903E+00 0.63831079E+03</pdfrwt>
<pdfrwt beam="2">  1       -1 0.78553372E-01 0.63831079E+03</pdfrwt>
<totfact> 0.36502119E+00</totfact>
</mgrwt>
</event>
<event>
 4    1  0.2293715E-008  0.5579276E+03  0.7818608E-02  0.9996755E-01
          1   -1    0    0  501    0  0.00000000000E+00  0.00000000000E+00  0.18655912873E+04  0.18655912873E+04  0.50400000000E-02 0. -1.
         -1   -1    0    0    0  501 -0.00000000000E+00 -0.00000000000E+00 -0.69370770126E+03  0.69370770127E+03  0.50400000000E-02 0.  1.
    8880022    1    1    2    0    0  0.11478524617E+03  0.52413346181E+03  0.17011279927E+04  0.17902847927E+04  0.15294330000E+03 0.  0.
    8880022    1    1    2    0    0 -0.11478524617E+03 -0.52413346181E+03 -0.52924440661E+03  0.76901419589E+03  0.15294330000E+03 0.  0.
<mgrwt>
<rscale>  0 0.55792759E+03</rscale>
<asrwt>0</asrwt>
<pdfrwt beam="1">  1        1 0.28701404E+00 0.55792759E+03</pdfrwt>
<pdfrwt beam="2">  1       -1 0.10672426E+00 0.55792759E+03</pdfrwt>
<totfact> 0.32970094E+00</totfact>
</mgrwt>
</event>
<event>
 4    1  0.2293715E-008  0.7452787E+03  0.7818608E-02  0.9642787E-01
         -1   -1    0    0    0  501 -0.00000000000E+00  0.00000000000E+00  0.19556732251E+03  0.19556732258E+03  0.50400000000E-02 0.  1.
          1   -1    0    0  501    0  0.00000000000E+00 -0.00000000000E+00 -0.39610445802E+04  0.39610445803E+04  0.50400000000E-02 0. -1.
    8880022    1    1    2    0    0 -0.58789020672E+03  0.43177972026E+03 -0.29883111975E+04  0.30798448155E+04  0.15294330000E+03 0.  0.
    8880022    1    1    2    0    0  0.58789020672E+03 -0.43177972026E+03 -0.77716606028E+03  0.10767670873E+04  0.15294330000E+03 0.  0.
<mgrwt>
<rscale>  0 0.74527866E+03</rscale>
<asrwt>0</asrwt>
<pdfrwt beam="1">  1        1 0.60939141E+00 0.74527866E+03</pdfrwt>
<pdfrwt beam="2">  1       -1 0.30087283E-01 0.74527866E+03</pdfrwt>
<totfact> 0.11632319E+00</totfact>
</mgrwt>
</event>
<event>
 4    1  0.2293715E-008  0.7192133E+03  0.7818608E-02  0.9684928E-01
          1   -1    0    0  501    0  0.00000000000E+00  0.00000000000E+00  0.10866248749E+04  0.10866248749E+04  0.50400000000E-02 0. -1.
         -1   -1    0    0    0  501 -0.00000000000E+00 -0.00000000000E+00 -0.66922214186E+03  0.66922214188E+03  0.50400000000E-02 0.  1.
    8880022    1    1    2    0    0 -0.50589957926E+03  0.48779266816E+03  0.68039988603E+03  0.99005642735E+03  0.15294330000E+03 0.  0.
    8880022    1    1    2    0    0  0.50589957926E+03 -0.48779266816E+03 -0.26299715298E+03  0.76579058945E+03  0.15294330000E+03 0.  0.
<mgrwt>
<rscale>  0 0.71921327E+03</rscale>
<asrwt>0</asrwt>
<pdfrwt beam="1">  1        1 0.16717306E+00 0.71921327E+03</pdfrwt>
<pdfrwt beam="2">  1       -1 0.10295725E+00 0.71921327E+03</pdfrwt>
<totfact> 0.11991910E+01</totfact>
</mgrwt>
</event>
<event>
 4    1  0.2293715E-008  0.1001790E+04  0.7818608E-02  0.9306584E-01
          1   -1    0    0  501    0  0.00000000000E+00  0.00000000000E+00  0.12834326344E+04  0.12834326344E+04  0.50400000000E-02 0. -1.
         -1   -1    0    0    0  501 -0.00000000000E+00 -0.00000000000E+00 -0.22711935020E+04  0.22711935020E+04  0.50400000000E-02 0.  1.
    8880022    1    1    2    0    0  0.79267399096E+03 -0.59317723325E+03  0.94531378426E+03  0.13773892296E+04  0.15294330000E+03 0.  0.
    8880022    1    1    2    0    0 -0.79267399096E+03  0.59317723325E+03 -0.19330746519E+04  0.21772369069E+04  0.15294330000E+03 0.  0.
<mgrwt>
<rscale>  0 0.10017899E+04</rscale>
<asrwt>0</asrwt>
<pdfrwt beam="1">  1        1 0.19745117E+00 0.10017899E+04</pdfrwt>
<pdfrwt beam="2">  1       -1 0.34941438E+00 0.10017899E+04</pdfrwt>
<totfact> 0.14888261E-01</totfact>
</mgrwt>
</event>
<event>
 4    1  0.2293715E-008  0.5776200E+03  0.7818608E-02  0.9952957E-01
          1   -1    0    0  501    0  0.00000000000E+00  0.00000000000E+00  0.67539799949E+03  0.67539799951E+03  0.50400000000E-02 0. -1.
         -1   -1    0    0    0  501 -0.00000000000E+00 -0.00000000000E+00 -0.70788160122E+03  0.70788160124E+03  0.50400000000E-02 0.  1.
    8880022    1    1    2    0    0 -0.41373449383E+03  0.37293024688E+03  0.36393798435E+03  0.68271202560E+03  0.15294330000E+03 0.  0.
    8880022    1    1    2    0    0  0.41373449383E+03 -0.37293024688E+03 -0.39642158608E+03  0.70056757515E+03  0.15294330000E+03 0.  0.
<mgrwt>
<rscale>  0 0.57761999E+03</rscale>
<asrwt>0</asrwt>
<pdfrwt beam="1">  1        1 0.10390738E+00 0.57761999E+03</pdfrwt>
<pdfrwt beam="2">  1       -1 0.10890486E+00 0.57761999E+03</pdfrwt>
<totfact> 0.23557799E+01</totfact>
</mgrwt>
</event>
<event>
 4    1  0.2293715E-008  0.1699178E+03  0.7818608E-02  0.1177934E+00
         -1   -1    0    0    0  501 -0.00000000000E+00  0.00000000000E+00  0.11243786929E+03  0.11243786940E+03  0.50400000000E-02 0.  1.
          1   -1    0    0  501    0  0.00000000000E+00 -0.00000000000E+00 -0.94056305628E+03  0.94056305629E+03  0.50400000000E-02 0. -1.
    8880022    1    1    2    0    0  0.13834844798E+02 -0.72725631516E+02  0.34851441297E+02  0.17345517111E+03  0.15294330000E+03 0.  1.
    8880022    1    1    2    0    0 -0.13834844798E+02  0.72725631516E+02 -0.86297662829E+03  0.87954575458E+03  0.15294330000E+03 0.  0.
<mgrwt>
<rscale>  0 0.16991784E+03</rscale>
<asrwt>0</asrwt>
<pdfrwt beam="1">  1        1 0.14470200E+00 0.16991784E+03</pdfrwt>
<pdfrwt beam="2">  1       -1 0.17298134E-01 0.16991784E+03</pdfrwt>
<totfact> 0.46108454E+02</totfact>
</mgrwt>
</event>
<event>
 4    1  0.2293715E-008  0.5766271E+03  0.7818608E-02  0.9955120E-01
         -1   -1    0    0    0  501 -0.00000000000E+00  0.00000000000E+00  0.16860023270E+04  0.16860023270E+04  0.50400000000E-02 0.  1.
          1   -1    0    0  501    0  0.00000000000E+00 -0.00000000000E+00 -0.46154845634E+03  0.46154845637E+03  0.50400000000E-02 0. -1.
    8880022    1    1    2    0    0  0.34559313821E+03 -0.43551405207E+03 -0.20038627524E+03  0.61045345363E+03  0.15294330000E+03 0.  0.
    8880022    1    1    2    0    0 -0.34559313821E+03  0.43551405207E+03  0.14248401459E+04  0.15370973298E+04  0.15294330000E+03 0.  0.
<mgrwt>
<rscale>  0 0.57662705E+03</rscale>
<asrwt>0</asrwt>
<pdfrwt beam="1">  1        1 0.71007453E-01 0.57662705E+03</pdfrwt>
<pdfrwt beam="2">  1       -1 0.25938498E+00 0.57662705E+03</pdfrwt>
<totfact> 0.32250166E+00</totfact>
</mgrwt>
</event>
<event>
 4    1  0.2293715E-008  0.4533263E+03  0.7818608E-02  0.1026735E+00
          1   -1    0    0  501    0  0.00000000000E+00  0.00000000000E+00  0.64270884056E+03  0.64270884058E+03  0.50400000000E-02 0. -1.
         -1   -1    0    0    0  501 -0.00000000000E+00 -0.00000000000E+00 -0.10332856134E+04  0.10332856135E+04  0.50400000000E-02 0.  1.
    8880022    1    1    2    0    0  0.18965910864E+03  0.38228594982E+03  0.50108291969E+03  0.67571360083E+03  0.15294330000E+03 0.  0.
    8880022    1    1    2    0    0 -0.18965910864E+03 -0.38228594982E+03 -0.89165969257E+03  0.10002808532E+04  0.15294330000E+03 0.  0.
<mgrwt>
<rscale>  0 0.45332635E+03</rscale>
<asrwt>0</asrwt>
<pdfrwt beam="1">  1        1 0.98878283E-01 0.45332635E+03</pdfrwt>
<pdfrwt beam="2">  1       -1 0.15896702E+00 0.45332635E+03</pdfrwt>
<totfact> 0.99839127E+00</totfact>
</mgrwt>
</event>
<event>
 4    1  0.2293715E-008  0.2447759E+03  0.7818608E-02  0.1116652E+00
          1   -1    0    0  501    0  0.00000000000E+00  0.00000000000E+00  0.73018351848E+03  0.73018351850E+03  0.50400000000E-02 0. -1.
         -1   -1    0    0    0  501 -0.00000000000E+00 -0.00000000000E+00 -0.93301954523E+02  0.93301954659E+02  0.50400000000E-02 0.  1.
    8880022    1    1    2    0    0  0.36696596508E+01 -0.19107621371E+03  0.17548647420E+03  0.30118223967E+03  0.15294330000E+03 0.  0.
    8880022    1    1    2    0    0 -0.36696596508E+01  0.19107621371E+03  0.46139508975E+03  0.52230323349E+03  0.15294330000E+03 0.  0.
<mgrwt>
<rscale>  0 0.24477590E+03</rscale>
<asrwt>0</asrwt>
<pdfrwt beam="1">  1        1 0.11233592E+00 0.24477590E+03</pdfrwt>
<pdfrwt beam="2">  1       -1 0.14354147E-01 0.24477590E+03</pdfrwt>
<totfact> 0.91550941E+02</totfact>
</mgrwt>
</event>
<event>
 4    1  0.2293715E-008  0.3980393E+03  0.7818608E-02  0.1044461E+00
         -1   -1    0    0    0  501 -0.00000000000E+00  0.00000000000E+00  0.34031699982E+03  0.34031699986E+03  0.50400000000E-02 0.  1.
          1   -1    0    0  501    0  0.00000000000E+00 -0.00000000000E+00 -0.11773881724E+04  0.11773881724E+04  0.50400000000E-02 0. -1.
    8880022    1    1    2    0    0  0.13300493502E+03  0.34256872688E+03  0.17151273111E+03  0.43341886821E+03  0.15294330000E+03 0.  1.
    8880022    1    1    2    0    0 -0.13300493502E+03 -0.34256872688E+03 -0.10085839037E+04  0.10842863040E+04  0.15294330000E+03 0.  0.
<mgrwt>
<rscale>  0 0.39803932E+03</rscale>
<asrwt>0</asrwt>
<pdfrwt beam="1">  1        1 0.18113664E+00 0.39803932E+03</pdfrwt>
<pdfrwt beam="2">  1       -1 0.52356462E-01 0.39803932E+03</pdfrwt>
<totfact> 0.44079162E+01</totfact>
</mgrwt>
</event>
<event>
 4    1  0.2293715E-008  0.8334248E+03  0.7818608E-02  0.9512858E-01
          1   -1    0    0  501    0  0.00000000000E+00  0.00000000000E+00  0.30487545128E+04  0.30487545128E+04  0.50400000000E-02 0. -1.
         -1   -1    0    0    0  501 -0.00000000000E+00 -0.00000000000E+00 -0.28447948351E+03  0.28447948355E+03  0.50400000000E-02 0.  1.
    8880022    1    1    2    0    0 -0.59156167086E+03  0.56679804538E+03  0.21258573789E+04  0.22833892536E+04  0.15294330000E+03 0.  0.
    8880022    1    1    2    0    0  0.59156167086E+03 -0.56679804538E+03  0.63841765033E+03  0.10498447428E+04  0.15294330000E+03 0.  0.
<mgrwt>
<rscale>  0 0.83342479E+03</rscale>
<asrwt>0</asrwt>
<pdfrwt beam="1">  1        1 0.46903910E+00 0.83342479E+03</pdfrwt>
<pdfrwt beam="2">  1       -1 0.43766080E-01 0.83342479E+03</pdfrwt>
<totfact> 0.29992615E+00</totfact>
</mgrwt>
</event>
<event>
 4    1  0.2293715E-008  0.7614102E+03  0.7818608E-02  0.9617618E-01
         -1   -1    0    0    0  501 -0.00000000000E+00  0.00000000000E+00  0.42780854063E+03  0.42780854066E+03  0.50400000000E-02 0.  1.
          1   -1    0    0  501    0  0.00000000000E+00 -0.00000000000E+00 -0.16774101810E+04  0.16774101810E+04  0.50400000000E-02 0. -1.
    8880022    1    1    2    0    0 -0.43223320787E+03 -0.60788842889E+03 -0.10861711460E+04  0.13264664713E+04  0.15294330000E+03 0.  0.
    8880022    1    1    2    0    0  0.43223320787E+03  0.60788842889E+03 -0.16343049434E+03  0.77875225038E+03  0.15294330000E+03 0.  0.
<mgrwt>
<rscale>  0 0.76141023E+03</rscale>
<asrwt>0</asrwt>
<pdfrwt beam="1">  1        1 0.25806310E+00 0.76141023E+03</pdfrwt>
<pdfrwt beam="2">  1       -1 0.65816699E-01 0.76141023E+03</pdfrwt>
<totfact> 0.11996839E+01</totfact>
</mgrwt>
</event>
<event>
 4    1  0.2293715E-008  0.5479727E+03  0.7818608E-02  0.1001964E+00
          1   -1    0    0  501    0  0.00000000000E+00  0.00000000000E+00  0.83367720723E+03  0.83367720725E+03  0.50400000000E-02 0. -1.
         -1   -1    0    0    0  501 -0.00000000000E+00 -0.00000000000E+00 -0.58301805510E+03  0.58301805512E+03  0.50400000000E-02 0.  1.
    8880022    1    1    2    0    0  0.46440940395E+03 -0.24739905122E+03  0.56325475008E+03  0.78583073975E+03  0.15294330000E+03 0.  0.
    8880022    1    1    2    0    0 -0.46440940395E+03  0.24739905122E+03 -0.31259559795E+03  0.63086452262E+03  0.15294330000E+03 0.  0.
<mgrwt>
<rscale>  0 0.54797266E+03</rscale>
<asrwt>0</asrwt>
<pdfrwt beam="1">  1        1 0.12825803E+00 0.54797266E+03</pdfrwt>
<pdfrwt beam="2">  1       -1 0.89695085E-01 0.54797266E+03</pdfrwt>
<totfact> 0.26513772E+01</totfact>
</mgrwt>
</event>
<event>
 4    1  0.2293715E-008  0.2338666E+03  0.7818608E-02  0.1123948E+00
         -1   -1    0    0    0  501 -0.00000000000E+00  0.00000000000E+00  0.13947632648E+03  0.13947632657E+03  0.50400000000E-02 0.  1.
          1   -1    0    0  501    0  0.00000000000E+00 -0.00000000000E+00 -0.16788287988E+04  0.16788287988E+04  0.50400000000E-02 0. -1.
    8880022    1    1    2    0    0 -0.54032964200E+02 -0.16847063441E+03  0.26246924024E+02  0.23533480388E+03  0.15294330000E+03 0.  0.
    8880022    1    1    2    0    0  0.54032964200E+02  0.16847063441E+03 -0.15655993964E+04  0.15829703215E+04  0.15294330000E+03 0. -1.
<mgrwt>
<rscale>  0 0.23386656E+03</rscale>
<asrwt>0</asrwt>
<pdfrwt beam="1">  1        1 0.25828134E+00 0.23386656E+03</pdfrwt>
<pdfrwt beam="2">  1       -1 0.21457898E-01 0.23386656E+03</pdfrwt>
<totfact> 0.99912845E+01</totfact>
</mgrwt>
</event>
<event>
 4    1  0.2293715E-008  0.6386326E+03  0.7818608E-02  0.9828346E-01
          1   -1    0    0  501    0  0.00000000000E+00  0.00000000000E+00  0.67415553273E+03  0.67415553275E+03  0.50400000000E-02 0. -1.
         -1   -1    0    0    0  501 -0.00000000000E+00 -0.00000000000E+00 -0.74311260335E+03  0.74311260336E+03  0.50400000000E-02 0.  1.
    8880022    1    1    2    0    0 -0.44045835689E+02  0.61848192818E+03 -0.33999917217E+03  0.72349915081E+03  0.15294330000E+03 0.  0.
    8880022    1    1    2    0    0  0.44045835689E+02 -0.61848192818E+03  0.27104210156E+03  0.69376898530E+03  0.15294330000E+03 0.  0.
<mgrwt>
<rscale>  0 0.63863259E+03</rscale>
<asrwt>0</asrwt>
<pdfrwt beam="1">  1        1 0.10371624E+00 0.63863259E+03</pdfrwt>
<pdfrwt beam="2">  1       -1 0.11432502E+00 0.63863259E+03</pdfrwt>
<totfact> 0.20891206E+01</totfact>
</mgrwt>
</event>
<event>
 4    1  0.2293715E-008  0.5762879E+03  0.7818608E-02  0.9955860E-01
          1   -1    0    0  501    0  0.00000000000E+00  0.00000000000E+00  0.92344197939E+03  0.92344197941E+03  0.50400000000E-02 0. -1.
         -1   -1    0    0    0  501 -0.00000000000E+00 -0.00000000000E+00 -0.66476225906E+03  0.66476225908E+03  0.50400000000E-02 0.  1.
    8880022    1    1    2    0    0  0.28018197410E+03 -0.47980642632E+03 -0.40865639933E+03  0.70647565498E+03  0.15294330000E+03 0.  0.
    8880022    1    1    2    0    0 -0.28018197410E+03  0.47980642632E+03  0.66733611967E+03  0.88172858351E+03  0.15294330000E+03 0.  0.
<mgrwt>
<rscale>  0 0.57628795E+03</rscale>
<asrwt>0</asrwt>
<pdfrwt beam="1">  1        1 0.14206800E+00 0.57628795E+03</pdfrwt>
<pdfrwt beam="2">  1       -1 0.10227112E+00 0.57628795E+03</pdfrwt>
<totfact> 0.16628783E+01</totfact>
</mgrwt>
</event>
<event>
 4    1  0.2293715E-008  0.3963881E+03  0.7818608E-02  0.1045038E+00
         -1   -1    0    0    0  501 -0.00000000000E+00  0.00000000000E+00  0.36555334804E+03  0.36555334808E+03  0.50400000000E-02 0.  1.
          1   -1    0    0  501    0  0.00000000000E+00 -0.00000000000E+00 -0.94060309535E+03  0.94060309536E+03  0.50400000000E-02 0. -1.
    8880022    1    1    2    0    0 -0.36222862920E+03 -0.50222636312E+02 -0.76878360564E+03  0.86495767430E+03  0.15294330000E+03 0.  0.
    8880022    1    1    2    0    0  0.36222862920E+03  0.50222636312E+02  0.19373385834E+03  0.44119876914E+03  0.15294330000E+03 0.  1.
<mgrwt>
<rscale>  0 0.39638813E+03</rscale>
<asrwt>0</asrwt>
<pdfrwt beam="1">  1        1 0.14470817E+00 0.39638813E+03</pdfrwt>
<pdfrwt beam="2">  1       -1 0.56238977E-01 0.39638813E+03</pdfrwt>
<totfact> 0.57748215E+01</totfact>
</mgrwt>
</event>
<event>
 4    1  0.2293715E-008  0.5423812E+03  0.7818608E-02  0.1003273E+00
          1   -1    0    0  501    0  0.00000000000E+00  0.00000000000E+00  0.39353487118E+03  0.39353487121E+03  0.50400000000E-02 0. -1.
         -1   -1    0    0    0  501 -0.00000000000E+00 -0.00000000000E+00 -0.15146756550E+04  0.15146756550E+04  0.50400000000E-02 0.  1.
    8880022    1    1    2    0    0  0.42368975842E+03  0.30211373777E+03  0.11844034329E+03  0.55516257968E+03  0.15294330000E+03 0.  0.
    8880022    1    1    2    0    0 -0.42368975842E+03 -0.30211373777E+03 -0.12395811271E+04  0.13530479465E+04  0.15294330000E+03 0.  0.
<mgrwt>
<rscale>  0 0.54238121E+03</rscale>
<asrwt>0</asrwt>
<pdfrwt beam="1">  1        1 0.60543827E-01 0.54238121E+03</pdfrwt>
<pdfrwt beam="2">  1       -1 0.23302702E+00 0.54238121E+03</pdfrwt>
<totfact> 0.59281564E+00</totfact>
</mgrwt>
</event>
<event>
 4    1  0.2293715E-008  0.4828726E+03  0.7818608E-02  0.1018349E+00
         -1   -1    0    0    0  501 -0.00000000000E+00  0.00000000000E+00  0.13843653978E+04  0.13843653978E+04  0.50400000000E-02 0.  1.
          1   -1    0    0  501    0  0.00000000000E+00 -0.00000000000E+00 -0.11151568544E+04  0.11151568545E+04  0.50400000000E-02 0. -1.
    8880022    1    1    2    0    0 -0.32281974338E+03 -0.32490258927E+03 -0.10169166513E+04  0.11257377172E+04  0.15294330000E+03 0.  0.
    8880022    1    1    2    0    0  0.32281974338E+03  0.32490258927E+03  0.12861251947E+04  0.13737845350E+04  0.15294330000E+03 0.  0.
<mgrwt>
<rscale>  0 0.48287258E+03</rscale>
<asrwt>0</asrwt>
<pdfrwt beam="1">  1        1 0.17156259E+00 0.48287258E+03</pdfrwt>
<pdfrwt beam="2">  1       -1 0.21297929E+00 0.48287258E+03</pdfrwt>
<totfact> 0.16898366E+00</totfact>
</mgrwt>
</event>
<event>
 4    1  0.2293715E-008  0.1437127E+04  0.7818608E-02  0.8927374E-01
          1   -1    0    0  501    0  0.00000000000E+00  0.00000000000E+00  0.43322483853E+04  0.43322483853E+04  0.50400000000E-02 0. -1.
         -1   -1    0    0    0  501 -0.00000000000E+00 -0.00000000000E+00 -0.12094423196E+04  0.12094423196E+04  0.50400000000E-02 0.  1.
    8880022    1    1    2    0    0  0.53324488223E+03  0.13257426351E+04 -0.59527300637E+03  0.15555337489E+04  0.15294330000E+03 0.  0.
    8880022    1    1    2    0    0 -0.53324488223E+03 -0.13257426351E+04  0.37180790720E+04  0.39861569560E+04  0.15294330000E+03 0.  0.
<mgrwt>
<rscale>  0 0.14371274E+04</rscale>
<asrwt>0</asrwt>
<pdfrwt beam="1">  1        1 0.66649976E+00 0.14371274E+04</pdfrwt>
<pdfrwt beam="2">  1       -1 0.18606805E+00 0.14371274E+04</pdfrwt>
<totfact> 0.86963421E-03</totfact>
</mgrwt>
</event>
<event>
 4    1  0.2293715E-008  0.3771095E+03  0.7818608E-02  0.1052007E+00
          1   -1    0    0  501    0  0.00000000000E+00  0.00000000000E+00  0.23539080587E+04  0.23539080587E+04  0.50400000000E-02 0. -1.
         -1   -1    0    0    0  501 -0.00000000000E+00 -0.00000000000E+00 -0.60823020219E+03  0.60823020221E+03  0.50400000000E-02 0.  1.
    8880022    1    1    2    0    0  0.34245390521E+03 -0.39309132570E+02 -0.53275006792E+03  0.65271293306E+03  0.15294330000E+03 0.  1.
    8880022    1    1    2    0    0 -0.34245390521E+03  0.39309132570E+02  0.22784279245E+04  0.23094253279E+04  0.15294330000E+03 0.  0.
<mgrwt>
<rscale>  0 0.37710945E+03</rscale>
<asrwt>0</asrwt>
<pdfrwt beam="1">  1        1 0.36213971E+00 0.37710945E+03</pdfrwt>
<pdfrwt beam="2">  1       -1 0.93573875E-01 0.37710945E+03</pdfrwt>
<totfact> 0.22355609E+00</totfact>
</mgrwt>
</event>
<event>
 4    1  0.2293715E-008  0.7214723E+03  0.7818608E-02  0.9681200E-01
         -1   -1    0    0    0  501 -0.00000000000E+00  0.00000000000E+00  0.96801132432E+03  0.96801132433E+03  0.50400000000E-02 0.  1.
          1   -1    0    0  501    0  0.00000000000E+00 -0.00000000000E+00 -0.65417470404E+03  0.65417470406E+03  0.50400000000E-02 0. -1.
    8880022    1    1    2    0    0 -0.10193711181E+03 -0.69766715239E+03 -0.18529435303E+03  0.74488675687E+03  0.15294330000E+03 0.  0.
    8880022    1    1    2    0    0  0.10193711181E+03  0.69766715239E+03  0.49913097331E+03  0.87729927152E+03  0.15294330000E+03 0.  0.
<mgrwt>
<rscale>  0 0.72147230E+03</rscale>
<asrwt>0</asrwt>
<pdfrwt beam="1">  1        1 0.10064226E+00 0.72147230E+03</pdfrwt>
<pdfrwt beam="2">  1       -1 0.14892482E+00 0.72147230E+03</pdfrwt>
<totfact> 0.11094074E+01</totfact>
</mgrwt>
</event>
<event>
 4    1  0.2293715E-008  0.4194157E+03  0.7818608E-02  0.1037257E+00
         -1   -1    0    0    0  501 -0.00000000000E+00  0.00000000000E+00  0.20825309525E+03  0.20825309531E+03  0.50400000000E-02 0.  1.
          1   -1    0    0  501    0  0.00000000000E+00 -0.00000000000E+00 -0.99374050836E+03  0.99374050837E+03  0.50400000000E-02 0. -1.
    8880022    1    1    2    0    0  0.37814007725E+03 -0.97611258132E+02 -0.62549968461E+03  0.75309985008E+03  0.15294330000E+03 0. -1.
    8880022    1    1    2    0    0 -0.37814007725E+03  0.97611258132E+02 -0.15998772850E+03  0.44889375360E+03  0.15294330000E+03 0.  0.
<mgrwt>
<rscale>  0 0.41941570E+03</rscale>
<asrwt>0</asrwt>
<pdfrwt beam="1">  1        1 0.15288315E+00 0.41941570E+03</pdfrwt>
<pdfrwt beam="2">  1       -1 0.32038938E-01 0.41941570E+03</pdfrwt>
<totfact> 0.14575604E+02</totfact>
</mgrwt>
</event>
<event>
 4    1  0.2293715E-008  0.6377155E+03  0.7818608E-02  0.9830107E-01
         -1   -1    0    0    0  501 -0.00000000000E+00  0.00000000000E+00  0.59261189978E+03  0.59261189980E+03  0.50400000000E-02 0.  1.
          1   -1    0    0  501    0  0.00000000000E+00 -0.00000000000E+00 -0.12552092352E+04  0.12552092352E+04  0.50400000000E-02 0. -1.
    8880022    1    1    2    0    0  0.56311087301E+03  0.25728493192E+03 -0.95332922579E+03  0.11469601812E+04  0.15294330000E+03 0.  0.
    8880022    1    1    2    0    0 -0.56311087301E+03 -0.25728493192E+03  0.29073189037E+03  0.70086095382E+03  0.15294330000E+03 0.  0.
<mgrwt>
<rscale>  0 0.63771549E+03</rscale>
<asrwt>0</asrwt>
<pdfrwt beam="1">  1        1 0.19310911E+00 0.63771549E+03</pdfrwt>
<pdfrwt beam="2">  1       -1 0.91171061E-01 0.63771549E+03</pdfrwt>
<totfact> 0.12033432E+01</totfact>
</mgrwt>
</event>
<event>
 4    1  0.2293715E-008  0.3160084E+03  0.7818608E-02  0.1077501E+00
         -1   -1    0    0    0  501 -0.00000000000E+00  0.00000000000E+00  0.12753181763E+04  0.12753181763E+04  0.50400000000E-02 0.  1.
          1   -1    0    0  501    0  0.00000000000E+00 -0.00000000000E+00 -0.28382410371E+03  0.28382410376E+03  0.50400000000E-02 0. -1.
    8880022    1    1    2    0    0  0.22531094683E+03 -0.16032673403E+03 -0.16762818555E+03  0.35771573352E+03  0.15294330000E+03 0. -1.
    8880022    1    1    2    0    0 -0.22531094683E+03  0.16032673403E+03  0.11591222582E+04  0.12014265466E+04  0.15294330000E+03 0.  0.
<mgrwt>
<rscale>  0 0.31600845E+03</rscale>
<asrwt>0</asrwt>
<pdfrwt beam="1">  1        1 0.43665247E-01 0.31600845E+03</pdfrwt>
<pdfrwt beam="2">  1       -1 0.19620280E+00 0.31600845E+03</pdfrwt>
<totfact> 0.16627837E+01</totfact>
</mgrwt>
</event>
<event>
 4    1  0.2293715E-008  0.5976300E+03  0.7818608E-02  0.9910335E-01
         -1   -1    0    0    0  501 -0.00000000000E+00  0.00000000000E+00  0.36564182676E+03  0.36564182679E+03  0.50400000000E-02 0.  1.
          1   -1    0    0  501    0  0.00000000000E+00 -0.00000000000E+00 -0.12273375985E+04  0.12273375985E+04  0.50400000000E-02 0. -1.
    8880022    1    1    2    0    0 -0.71064373619E+02  0.57334093003E+03 -0.79070346861E+03  0.99114761541E+03  0.15294330000E+03 0.  0.
    8880022    1    1    2    0    0  0.71064373619E+02 -0.57334093003E+03 -0.70992303108E+02  0.60183180986E+03  0.15294330000E+03 0.  0.
<mgrwt>
<rscale>  0 0.59763000E+03</rscale>
<asrwt>0</asrwt>
<pdfrwt beam="1">  1        1 0.18882117E+00 0.59763000E+03</pdfrwt>
<pdfrwt beam="2">  1       -1 0.56252589E-01 0.59763000E+03</pdfrwt>
<totfact> 0.34218204E+01</totfact>
</mgrwt>
</event>
<event>
 4    1  0.2293715E-008  0.1203304E+04  0.7818608E-02  0.9109970E-01
         -1   -1    0    0    0  501 -0.00000000000E+00  0.00000000000E+00  0.62498118126E+03  0.62498118128E+03  0.50400000000E-02 0.  1.
          1   -1    0    0  501    0  0.00000000000E+00 -0.00000000000E+00 -0.23806405719E+04  0.23806405719E+04  0.50400000000E-02 0. -1.
    8880022    1    1    2    0    0  0.65340682692E+03  0.99880329166E+03 -0.11239765124E+04  0.16465914340E+04  0.15294330000E+03 0.  0.
    8880022    1    1    2    0    0 -0.65340682692E+03 -0.99880329166E+03 -0.63168287817E+03  0.13590303192E+04  0.15294330000E+03 0.  0.
<mgrwt>
<rscale>  0 0.12033038E+04</rscale>
<asrwt>0</asrwt>
<pdfrwt beam="1">  1        1 0.36625239E+00 0.12033038E+04</pdfrwt>
<pdfrwt beam="2">  1       -1 0.96150952E-01 0.12033038E+04</pdfrwt>
<totfact> 0.16884110E+00</totfact>
</mgrwt>
</event>
<event>
 4    1  0.2293715E-008  0.1108947E+04  0.7818608E-02  0.9196515E-01
          1   -1    0    0  501    0  0.00000000000E+00  0.00000000000E+00  0.88164285650E+03  0.88164285651E+03  0.50400000000E-02 0. -1.
         -1   -1    0    0    0  501 -0.00000000000E+00 -0.00000000000E+00 -0.20504321092E+04  0.20504321092E+04  0.50400000000E-02 0.  1.
    8880022    1    1    2    0    0 -0.52116709546E+03 -0.96682801476E+03 -0.14133564807E+04  0.17964798206E+04  0.15294330000E+03 0.  0.
    8880022    1    1    2    0    0  0.52116709546E+03  0.96682801476E+03  0.24456722796E+03  0.11355951451E+04  0.15294330000E+03 0.  0.
<mgrwt>
<rscale>  0 0.11089469E+04</rscale>
<asrwt>0</asrwt>
<pdfrwt beam="1">  1        1 0.13563736E+00 0.11089469E+04</pdfrwt>
<pdfrwt beam="2">  1       -1 0.31545109E+00 0.11089469E+04</pdfrwt>
<totfact> 0.49356886E-01</totfact>
</mgrwt>
</event>
<event>
 4    1  0.2293715E-008  0.1996132E+03  0.7818608E-02  0.1150066E+00
          1   -1    0    0  501    0  0.00000000000E+00  0.00000000000E+00  0.35208218552E+03  0.35208218555E+03  0.50400000000E-02 0. -1.
         -1   -1    0    0    0  501 -0.00000000000E+00 -0.00000000000E+00 -0.48459455418E+03  0.48459455421E+03  0.50400000000E-02 0.  1.
    8880022    1    1    2    0    0 -0.62892114689E+02  0.11179599254E+03  0.29999014891E+03  0.36033249159E+03  0.15294330000E+03 0. -1.
    8880022    1    1    2    0    0  0.62892114689E+02 -0.11179599254E+03 -0.43250251758E+03  0.47634424817E+03  0.15294330000E+03 0.  0.
<mgrwt>
<rscale>  0 0.19961316E+03</rscale>
<asrwt>0</asrwt>
<pdfrwt beam="1">  1        1 0.54166490E-01 0.19961316E+03</pdfrwt>
<pdfrwt beam="2">  1       -1 0.74553008E-01 0.19961316E+03</pdfrwt>
<totfact> 0.13770313E+02</totfact>
</mgrwt>
</event>
<event>
 4    1  0.2293715E-008  0.2718106E+03  0.7818608E-02  0.1100248E+00
         -1   -1    0    0    0  501 -0.00000000000E+00  0.00000000000E+00  0.22644233441E+03  0.22644233447E+03  0.50400000000E-02 0.  1.
          1   -1    0    0  501    0  0.00000000000E+00 -0.00000000000E+00 -0.56565867401E+03  0.56565867403E+03  0.50400000000E-02 0. -1.
    8880022    1    1    2    0    0 -0.22071798276E+03  0.42106317026E+02 -0.42725595698E+03  0.50638787074E+03  0.15294330000E+03 0.  0.
    8880022    1    1    2    0    0  0.22071798276E+03 -0.42106317026E+02  0.88039617383E+02  0.28571313776E+03  0.15294330000E+03 0.  0.
<mgrwt>
<rscale>  0 0.27181064E+03</rscale>
<asrwt>0</asrwt>
<pdfrwt beam="1">  1        1 0.87024411E-01 0.27181064E+03</pdfrwt>
<pdfrwt beam="2">  1       -1 0.34837282E-01 0.27181064E+03</pdfrwt>
<totfact> 0.30345431E+02</totfact>
</mgrwt>
</event>
<event>
 4    1  0.2293715E-008  0.2509007E+03  0.7818608E-02  0.1112737E+00
          1   -1    0    0  501    0  0.00000000000E+00  0.00000000000E+00  0.50978808097E+03  0.50978808099E+03  0.50400000000E-02 0. -1.
         -1   -1    0    0    0  501 -0.00000000000E+00 -0.00000000000E+00 -0.30812507430E+03  0.30812507434E+03  0.50400000000E-02 0.  1.
    8880022    1    1    2    0    0 -0.15095725672E+03  0.12950445256E+03 -0.21574358235E+03  0.33090246740E+03  0.15294330000E+03 0.  1.
    8880022    1    1    2    0    0  0.15095725672E+03 -0.12950445256E+03  0.41740658902E+03  0.48701068793E+03  0.15294330000E+03 0.  0.
<mgrwt>
<rscale>  0 0.25090068E+03</rscale>
<asrwt>0</asrwt>
<pdfrwt beam="1">  1        1 0.78428936E-01 0.25090068E+03</pdfrwt>
<pdfrwt beam="2">  1       -1 0.47403857E-01 0.25090068E+03</pdfrwt>
<totfact> 0.20200857E+02</totfact>
</mgrwt>
</event>
<event>
 4    1  0.2293715E-008  0.3831994E+03  0.7818608E-02  0.1049758E+00
         -1   -1    0    0    0  501 -0.00000000000E+00  0.00000000000E+00  0.37818271882E+03  0.37818271885E+03  0.50400000000E-02 0.  1.
          1   -1    0    0  501    0  0.00000000000E+00 -0.00000000000E+00 -0.71287634533E+03  0.71287634535E+03  0.50400000000E-02 0. -1.
    8880022    1    1    2    0    0  0.33242513280E+03 -0.11377025937E+03 -0.53545984643E+03  0.65845200356E+03  0.15294330000E+03 0.  0.
    8880022    1    1    2    0    0 -0.33242513280E+03  0.11377025937E+03  0.20076621993E+03  0.43260706064E+03  0.15294330000E+03 0.  0.
<mgrwt>
<rscale>  0 0.38319942E+03</rscale>
<asrwt>0</asrwt>
<pdfrwt beam="1">  1        1 0.10967328E+00 0.38319942E+03</pdfrwt>
<pdfrwt beam="2">  1       -1 0.58181957E-01 0.38319942E+03</pdfrwt>
<totfact> 0.84102661E+01</totfact>
</mgrwt>
</event>
<event>
 4    1  0.2293715E-008  0.1899053E+03  0.7818608E-02  0.1158547E+00
         -1   -1    0    0    0  501 -0.00000000000E+00  0.00000000000E+00  0.10089618151E+03  0.10089618164E+03  0.50400000000E-02 0.  1.
          1   -1    0    0  501    0  0.00000000000E+00 -0.00000000000E+00 -0.85693722814E+03  0.85693722815E+03  0.50400000000E-02 0. -1.
    8880022    1    1    2    0    0 -0.33354557278E+01  0.11252211669E+03 -0.74366029323E+03  0.76752500725E+03  0.15294330000E+03 0. -1.
    8880022    1    1    2    0    0  0.33354557278E+01 -0.11252211669E+03 -0.12380753400E+02  0.19030840254E+03  0.15294330000E+03 0.  1.
<mgrwt>
<rscale>  0 0.18990525E+03</rscale>
<asrwt>0</asrwt>
<pdfrwt beam="1">  1        1 0.13183649E+00 0.18990525E+03</pdfrwt>
<pdfrwt beam="2">  1       -1 0.15522490E-01 0.18990525E+03</pdfrwt>
<totfact> 0.63487083E+02</totfact>
</mgrwt>
</event>
<event>
 4    1  0.2293715E-008  0.9129667E+03  0.7818608E-02  0.9409516E-01
          1   -1    0    0  501    0  0.00000000000E+00  0.00000000000E+00  0.16613244142E+04  0.16613244142E+04  0.50400000000E-02 0. -1.
         -1   -1    0    0    0  501 -0.00000000000E+00 -0.00000000000E+00 -0.52935554979E+03  0.52935554982E+03  0.50400000000E-02 0.  1.
    8880022    1    1    2    0    0  0.63971276138E+02  0.89778848166E+03  0.31568268487E+03  0.96600398163E+03  0.15294330000E+03 0.  0.
    8880022    1    1    2    0    0 -0.63971276138E+02 -0.89778848166E+03  0.81628617957E+03  0.12246759824E+04  0.15294330000E+03 0.  0.
<mgrwt>
<rscale>  0 0.91296667E+03</rscale>
<asrwt>0</asrwt>
<pdfrwt beam="1">  1        1 0.25558837E+00 0.91296667E+03</pdfrwt>
<pdfrwt beam="2">  1       -1 0.81439317E-01 0.91296667E+03</pdfrwt>
<totfact> 0.77434133E+00</totfact>
</mgrwt>
</event>
<event>
 4    1  0.2293715E-008  0.2364808E+03  0.7818608E-02  0.1122160E+00
          1   -1    0    0  501    0  0.00000000000E+00  0.00000000000E+00  0.17619240805E+03  0.17619240812E+03  0.50400000000E-02 0. -1.
         -1   -1    0    0    0  501 -0.00000000000E+00 -0.00000000000E+00 -0.31739859451E+03  0.31739859455E+03  0.50400000000E-02 0.  1.
    8880022    1    1    2    0    0 -0.16259782553E+03  0.78060541850E+02 -0.70329698076E+02  0.24671728863E+03  0.15294330000E+03 0.  0.
    8880022    1    1    2    0    0  0.16259782553E+03 -0.78060541850E+02 -0.70876488384E+02  0.24687371404E+03  0.15294330000E+03 0.  1.
<mgrwt>
<rscale>  0 0.23648077E+03</rscale>
<asrwt>0</asrwt>
<pdfrwt beam="1">  1        1 0.27106524E-01 0.23648077E+03</pdfrwt>
<pdfrwt beam="2">  1       -1 0.48830553E-01 0.23648077E+03</pdfrwt>
<totfact> 0.74132319E+02</totfact>
</mgrwt>
</event>
<event>
 4    1  0.2293715E-008  0.9508163E+03  0.7818608E-02  0.9364197E-01
         -1   -1    0    0    0  501 -0.00000000000E+00  0.00000000000E+00  0.11601488325E+04  0.11601488326E+04  0.50400000000E-02 0.  1.
          1   -1    0    0  501    0  0.00000000000E+00 -0.00000000000E+00 -0.11434242639E+04  0.11434242639E+04  0.50400000000E-02 0. -1.
    8880022    1    1    2    0    0  0.93238745585E+03  0.10636553625E+03  0.65837224430E+03  0.11565057977E+04  0.15294330000E+03 0.  0.
    8880022    1    1    2    0    0 -0.93238745585E+03 -0.10636553625E+03 -0.64164767564E+03  0.11470672987E+04  0.15294330000E+03 0.  0.
<mgrwt>
<rscale>  0 0.95081631E+03</rscale>
<asrwt>0</asrwt>
<pdfrwt beam="1">  1        1 0.17591143E+00 0.95081631E+03</pdfrwt>
<pdfrwt beam="2">  1       -1 0.17848444E+00 0.95081631E+03</pdfrwt>
<totfact> 0.25367057E+00</totfact>
</mgrwt>
</event>
<event>
 4    1  0.7486607E-008  0.5135834E+03  0.7818608E-02  0.1010293E+00
         -1   -1    0    0    0  501 -0.00000000000E+00  0.00000000000E+00  0.27447059231E+04  0.27447059231E+04  0.50400000000E-02 0.  1.
          1   -1    0    0  501    0  0.00000000000E+00 -0.00000000000E+00 -0.19561979082E+04  0.19561979082E+04  0.50400000000E-02 0. -1.
    8880022    1    1    2    0    0  0.22102950876E+03 -0.43763253451E+03 -0.18977364553E+04  0.19660039638E+04  0.15294330000E+03 0.  0.
    8880022    1    1    2    0    0 -0.22102950876E+03  0.43763253451E+03  0.26862444702E+04  0.27348998675E+04  0.15294330000E+03 0.  0.
<mgrwt>
<rscale>  0 0.51358342E+03</rscale>
<asrwt>0</asrwt>
<pdfrwt beam="1">  1        1 0.30095353E+00 0.51358342E+03</pdfrwt>
<pdfrwt beam="2">  1       -1 0.42226245E+00 0.51358342E+03</pdfrwt>
<totfact> 0.19460466E-02</totfact>
</mgrwt>
</event>
<event>
 4    1  0.2293715E-008  0.7722817E+03  0.7818608E-02  0.9601028E-01
          1   -1    0    0  501    0  0.00000000000E+00  0.00000000000E+00  0.30001351888E+04  0.30001351888E+04  0.50400000000E-02 0. -1.
         -1   -1    0    0    0  501 -0.00000000000E+00 -0.00000000000E+00 -0.36503393262E+03  0.36503393265E+03  0.50400000000E-02 0.  1.
    8880022    1    1    2    0    0 -0.43489195144E+03 -0.61959367460E+03  0.24530151172E+04  0.25717119102E+04  0.15294330000E+03 0.  0.
    8880022    1    1    2    0    0  0.43489195144E+03  0.61959367460E+03  0.18208613900E+03  0.79345721123E+03  0.15294330000E+03 0.  0.
<mgrwt>
<rscale>  0 0.77228167E+03</rscale>
<asrwt>0</asrwt>
<pdfrwt beam="1">  1        1 0.46155927E+00 0.77228167E+03</pdfrwt>
<pdfrwt beam="2">  1       -1 0.56159065E-01 0.77228167E+03</pdfrwt>
<totfact> 0.20507302E+00</totfact>
</mgrwt>
</event>
<event>
 4    1  0.2293715E-008  0.1380519E+04  0.7818608E-02  0.8968042E-01
          1   -1    0    0  501    0  0.00000000000E+00  0.00000000000E+00  0.21271106745E+04  0.21271106745E+04  0.50400000000E-02 0. -1.
         -1   -1    0    0    0  501 -0.00000000000E+00 -0.00000000000E+00 -0.11539813447E+04  0.11539813447E+04  0.50400000000E-02 0.  1.
    8880022    1    1    2    0    0  0.12740185556E+04  0.50923121253E+03  0.12622879632E+04  0.18706154770E+04  0.15294330000E+03 0.  0.
    8880022    1    1    2    0    0 -0.12740185556E+04 -0.50923121253E+03 -0.28915863342E+03  0.14104765422E+04  0.15294330000E+03 0.  0.
<mgrwt>
<rscale>  0 0.13805185E+04</rscale>
<asrwt>0</asrwt>
<pdfrwt beam="1">  1        1 0.32724780E+00 0.13805185E+04</pdfrwt>
<pdfrwt beam="2">  1       -1 0.17753559E+00 0.13805185E+04</pdfrwt>
<totfact> 0.50840972E-01</totfact>
</mgrwt>
</event>
<event>
 4    1  0.2293715E-008  0.3506804E+03  0.7818608E-02  0.1062336E+00
          1   -1    0    0  501    0  0.00000000000E+00  0.00000000000E+00  0.31615663282E+03  0.31615663286E+03  0.50400000000E-02 0. -1.
         -1   -1    0    0    0  501 -0.00000000000E+00 -0.00000000000E+00 -0.86307574031E+03  0.86307574033E+03  0.50400000000E-02 0.  1.
    8880022    1    1    2    0    0  0.31106184470E+03 -0.53156334447E+02  0.16353970782E+03  0.38693921508E+03  0.15294330000E+03 0.  0.
    8880022    1    1    2    0    0 -0.31106184470E+03  0.53156334447E+02 -0.71045881531E+03  0.79229315811E+03  0.15294330000E+03 0.  1.
<mgrwt>
<rscale>  0 0.35068037E+03</rscale>
<asrwt>0</asrwt>
<pdfrwt beam="1">  1        1 0.48639482E-01 0.35068037E+03</pdfrwt>
<pdfrwt beam="2">  1       -1 0.13278088E+00 0.35068037E+03</pdfrwt>
<totfact> 0.42148824E+01</totfact>
</mgrwt>
</event>
<event>
 4    1  0.2293715E-008  0.3186469E+03  0.7818608E-02  0.1076274E+00
          1   -1    0    0  501    0  0.00000000000E+00  0.00000000000E+00  0.36184187229E+03  0.36184187233E+03  0.50400000000E-02 0. -1.
         -1   -1    0    0    0  501 -0.00000000000E+00 -0.00000000000E+00 -0.10089965006E+04  0.10089965006E+04  0.50400000000E-02 0.  1.
    8880022    1    1    2    0    0 -0.26323960113E+03  0.94069529500E+02 -0.90593912929E+03  0.96034448141E+03  0.15294330000E+03 0.  1.
    8880022    1    1    2    0    0  0.26323960113E+03 -0.94069529500E+02  0.25878450101E+03  0.41049389150E+03  0.15294330000E+03 0.  0.
<mgrwt>
<rscale>  0 0.31864685E+03</rscale>
<asrwt>0</asrwt>
<pdfrwt beam="1">  1        1 0.55667981E-01 0.31864685E+03</pdfrwt>
<pdfrwt beam="2">  1       -1 0.15523023E+00 0.31864685E+03</pdfrwt>
<totfact> 0.23823711E+01</totfact>
</mgrwt>
</event>
<event>
 4    1  0.2293715E-008  0.2490869E+03  0.7818608E-02  0.1113883E+00
         -1   -1    0    0    0  501 -0.00000000000E+00  0.00000000000E+00  0.37352124755E+04  0.37352124755E+04  0.50400000000E-02 0.  1.
          1   -1    0    0  501    0  0.00000000000E+00 -0.00000000000E+00 -0.44607733510E+03  0.44607733513E+03  0.50400000000E-02 0. -1.
    8880022    1    1    2    0    0  0.13861038367E+03  0.13942659392E+03 -0.40678325850E+03  0.47698730168E+03  0.15294330000E+03 0.  0.
    8880022    1    1    2    0    0 -0.13861038367E+03 -0.13942659392E+03  0.36959183989E+04  0.37043025090E+04  0.15294330000E+03 0.  0.
<mgrwt>
<rscale>  0 0.24908687E+03</rscale>
<asrwt>0</asrwt>
<pdfrwt beam="1">  1        1 0.68627284E-01 0.24908687E+03</pdfrwt>
<pdfrwt beam="2">  1       -1 0.57464806E+00 0.24908687E+03</pdfrwt>
<totfact> 0.36052175E-02</totfact>
</mgrwt>
</event>
<event>
 4    1  0.2293715E-008  0.4142764E+03  0.7818608E-02  0.1038945E+00
          1   -1    0    0  501    0  0.00000000000E+00  0.00000000000E+00  0.11220666078E+04  0.11220666078E+04  0.50400000000E-02 0. -1.
         -1   -1    0    0    0  501 -0.00000000000E+00 -0.00000000000E+00 -0.47474302508E+03  0.47474302510E+03  0.50400000000E-02 0.  1.
    8880022    1    1    2    0    0  0.12296338962E+03  0.36484696933E+03  0.98098540679E+03  0.10648743248E+04  0.15294330000E+03 0.  0.
    8880022    1    1    2    0    0 -0.12296338962E+03 -0.36484696933E+03 -0.33366182405E+03  0.53193530815E+03  0.15294330000E+03 0.  0.
<mgrwt>
<rscale>  0 0.41427643E+03</rscale>
<asrwt>0</asrwt>
<pdfrwt beam="1">  1        1 0.17262563E+00 0.41427643E+03</pdfrwt>
<pdfrwt beam="2">  1       -1 0.73037389E-01 0.41427643E+03</pdfrwt>
<totfact> 0.25051668E+01</totfact>
</mgrwt>
</event>
<event>
 4    1  0.2293715E-008  0.3771516E+03  0.7818608E-02  0.1051992E+00
         -1   -1    0    0    0  501 -0.00000000000E+00  0.00000000000E+00  0.49437906913E+03  0.49437906916E+03  0.50400000000E-02 0.  1.
          1   -1    0    0  501    0  0.00000000000E+00 -0.00000000000E+00 -0.10913815905E+04  0.10913815905E+04  0.50400000000E-02 0. -1.
    8880022    1    1    2    0    0  0.25636309849E+03 -0.23049865406E+03 -0.97888766041E+03  0.10490302057E+04  0.15294330000E+03 0.  0.
    8880022    1    1    2    0    0 -0.25636309849E+03  0.23049865406E+03  0.38188513903E+03  0.53673045397E+03  0.15294330000E+03 0.  0.
<mgrwt>
<rscale>  0 0.37715159E+03</rscale>
<asrwt>0</asrwt>
<pdfrwt beam="1">  1        1 0.16790486E+00 0.37715159E+03</pdfrwt>
<pdfrwt beam="2">  1       -1 0.76058318E-01 0.37715159E+03</pdfrwt>
<totfact> 0.24481033E+01</totfact>
</mgrwt>
</event>
<event>
 4    1  0.2293715E-008  0.2779319E+03  0.7818608E-02  0.1096824E+00
          1   -1    0    0  501    0  0.00000000000E+00  0.00000000000E+00  0.72715238683E+03  0.72715238685E+03  0.50400000000E-02 0. -1.
         -1   -1    0    0    0  501 -0.00000000000E+00 -0.00000000000E+00 -0.19925322327E+03  0.19925322333E+03  0.50400000000E-02 0.  1.
    8880022    1    1    2    0    0 -0.17953222671E+03 -0.14704643683E+03  0.58044093665E+03  0.64355093735E+03  0.15294330000E+03 0.  0.
    8880022    1    1    2    0    0  0.17953222671E+03  0.14704643683E+03 -0.52541773085E+02  0.28285467283E+03  0.15294330000E+03 0.  0.
<mgrwt>
<rscale>  0 0.27793188E+03</rscale>
<asrwt>0</asrwt>
<pdfrwt beam="1">  1        1 0.11186960E+00 0.27793188E+03</pdfrwt>
<pdfrwt beam="2">  1       -1 0.30654342E-01 0.27793188E+03</pdfrwt>
<totfact> 0.26443291E+02</totfact>
</mgrwt>
</event>
<event>
 4    1  0.2293715E-008  0.1097577E+04  0.7818608E-02  0.9207556E-01
         -1   -1    0    0    0  501 -0.00000000000E+00  0.00000000000E+00  0.94938249366E+03  0.94938249367E+03  0.50400000000E-02 0.  1.
          1   -1    0    0  501    0  0.00000000000E+00 -0.00000000000E+00 -0.32816030507E+04  0.32816030507E+04  0.50400000000E-02 0. -1.
    8880022    1    1    2    0    0  0.80438315781E+03 -0.73092562156E+03  0.49064299262E+03  0.12022506927E+04  0.15294330000E+03 0.  0.
    8880022    1    1    2    0    0 -0.80438315781E+03  0.73092562156E+03 -0.28228635497E+04  0.30287348517E+04  0.15294330000E+03 0.  0.
<mgrwt>
<rscale>  0 0.10975774E+04</rscale>
<asrwt>0</asrwt>
<pdfrwt beam="1">  1        1 0.50486200E+00 0.10975774E+04</pdfrwt>
<pdfrwt beam="2">  1       -1 0.14605885E+00 0.10975774E+04</pdfrwt>
<totfact> 0.14029656E-01</totfact>
</mgrwt>
</event>
<event>
 4    1  0.2293715E-008  0.2765975E+03  0.7818608E-02  0.1097562E+00
         -1   -1    0    0    0  501 -0.00000000000E+00  0.00000000000E+00  0.78888902573E+02  0.78888902734E+02  0.50400000000E-02 0.  1.
          1   -1    0    0  501    0  0.00000000000E+00 -0.00000000000E+00 -0.98701275854E+03  0.98701275855E+03  0.50400000000E-02 0. -1.
    8880022    1    1    2    0    0  0.46720853178E+02 -0.22568046610E+03 -0.38367403089E+03  0.47298195092E+03  0.15294330000E+03 0.  1.
    8880022    1    1    2    0    0 -0.46720853178E+02  0.22568046610E+03 -0.52444982508E+03  0.59291971037E+03  0.15294330000E+03 0. -1.
<mgrwt>
<rscale>  0 0.27659748E+03</rscale>
<asrwt>0</asrwt>
<pdfrwt beam="1">  1        1 0.15184811E+00 0.27659748E+03</pdfrwt>
<pdfrwt beam="2">  1       -1 0.12136755E-01 0.27659748E+03</pdfrwt>
<totfact> 0.73784515E+02</totfact>
</mgrwt>
</event>
<event>
 4    1  0.2293715E-008  0.4096919E+03  0.7818608E-02  0.1040474E+00
         -1   -1    0    0    0  501 -0.00000000000E+00  0.00000000000E+00  0.22536768615E+03  0.22536768620E+03  0.50400000000E-02 0.  1.
          1   -1    0    0  501    0  0.00000000000E+00 -0.00000000000E+00 -0.13914167962E+04  0.13914167962E+04  0.50400000000E-02 0. -1.
    8880022    1    1    2    0    0 -0.35575082964E+03 -0.13378012246E+03 -0.31929414793E+02  0.41093419729E+03  0.15294330000E+03 0.  0.
    8880022    1    1    2    0    0  0.35575082964E+03  0.13378012246E+03 -0.11341196953E+04  0.12058502852E+04  0.15294330000E+03 0.  0.
<mgrwt>
<rscale>  0 0.40969187E+03</rscale>
<asrwt>0</asrwt>
<pdfrwt beam="1">  1        1 0.21406412E+00 0.40969187E+03</pdfrwt>
<pdfrwt beam="2">  1       -1 0.34671953E-01 0.40969187E+03</pdfrwt>
<totfact> 0.65998853E+01</totfact>
</mgrwt>
</event>
<event>
 4    1  0.2293715E-008  0.2704635E+03  0.7818608E-02  0.1101015E+00
          1   -1    0    0  501    0  0.00000000000E+00  0.00000000000E+00  0.60260736210E+03  0.60260736212E+03  0.50400000000E-02 0. -1.
         -1   -1    0    0    0  501 -0.00000000000E+00 -0.00000000000E+00 -0.27384139060E+03  0.27384139065E+03  0.50400000000E-02 0.  1.
    8880022    1    1    2    0    0  0.15509404006E+03 -0.16032685006E+03  0.49135657011E+03  0.56087591508E+03  0.15294330000E+03 0.  0.
    8880022    1    1    2    0    0 -0.15509404006E+03  0.16032685006E+03 -0.16259059861E+03  0.31557283769E+03  0.15294330000E+03 0.  0.
<mgrwt>
<rscale>  0 0.27046352E+03</rscale>
<asrwt>0</asrwt>
<pdfrwt beam="1">  1        1 0.92708824E-01 0.27046352E+03</pdfrwt>
<pdfrwt beam="2">  1       -1 0.42129445E-01 0.27046352E+03</pdfrwt>
<totfact> 0.19863765E+02</totfact>
</mgrwt>
</event>
<event>
 4    1  0.2293715E-008  0.3417848E+03  0.7818608E-02  0.1066038E+00
         -1   -1    0    0    0  501 -0.00000000000E+00  0.00000000000E+00  0.11766848745E+03  0.11766848756E+03  0.50400000000E-02 0.  1.
          1   -1    0    0  501    0  0.00000000000E+00 -0.00000000000E+00 -0.19643206476E+04  0.19643206476E+04  0.50400000000E-02 0. -1.
    8880022    1    1    2    0    0  0.13016544875E+03 -0.27655410553E+03 -0.19121554697E+03  0.39163791409E+03  0.15294330000E+03 0.  0.
    8880022    1    1    2    0    0 -0.13016544875E+03  0.27655410553E+03 -0.16554366132E+04  0.16903512211E+04  0.15294330000E+03 0.  0.
<mgrwt>
<rscale>  0 0.34178483E+03</rscale>
<asrwt>0</asrwt>
<pdfrwt beam="1">  1        1 0.30220315E+00 0.34178483E+03</pdfrwt>
<pdfrwt beam="2">  1       -1 0.18102846E-01 0.34178483E+03</pdfrwt>
<totfact> 0.83449771E+01</totfact>
</mgrwt>
</event>
<event>
 4    1  0.3494992E-008  0.7122009E+03  0.7818608E-02  0.9696592E-01
          1   -1    0    0  501    0  0.00000000000E+00  0.00000000000E+00  0.13903925961E+04  0.13903925961E+04  0.50400000000E-02 0. -1.
         -1   -1    0    0    0  501 -0.00000000000E+00 -0.00000000000E+00 -0.11694382958E+04  0.11694382958E+04  0.50400000000E-02 0.  1.
    8880022    1    1    2    0    0  0.65406112811E+03  0.23673291508E+03  0.11721484764E+04  0.13715546421E+04  0.15294330000E+03 0.  0.
    8880022    1    1    2    0    0 -0.65406112811E+03 -0.23673291508E+03 -0.95119417612E+03  0.11882762499E+04  0.15294330000E+03 0.  0.
<mgrwt>
<rscale>  0 0.71220087E+03</rscale>
<asrwt>0</asrwt>
<pdfrwt beam="1">  1        1 0.21390655E+00 0.71220087E+03</pdfrwt>
<pdfrwt beam="2">  1       -1 0.17991358E+00 0.71220087E+03</pdfrwt>
<totfact> 0.17161125E+00</totfact>
</mgrwt>
</event>
<event>
 4    1  0.2293715E-008  0.1231309E+04  0.7818608E-02  0.9085885E-01
          1   -1    0    0  501    0  0.00000000000E+00  0.00000000000E+00  0.81860774760E+03  0.81860774761E+03  0.50400000000E-02 0. -1.
         -1   -1    0    0    0  501 -0.00000000000E+00 -0.00000000000E+00 -0.29919074976E+04  0.29919074976E+04  0.50400000000E-02 0.  1.
    8880022    1    1    2    0    0 -0.69143327725E+03 -0.10072986182E+04 -0.22626309489E+04  0.25759699041E+04  0.15294330000E+03 0.  0.
    8880022    1    1    2    0    0  0.69143327725E+03  0.10072986182E+04  0.89331198816E+02  0.12345453411E+04  0.15294330000E+03 0.  0.
<mgrwt>
<rscale>  0 0.12313091E+04</rscale>
<asrwt>0</asrwt>
<pdfrwt beam="1">  1        1 0.12593965E+00 0.12313091E+04</pdfrwt>
<pdfrwt beam="2">  1       -1 0.46029346E+00 0.12313091E+04</pdfrwt>
<totfact> 0.57839125E-02</totfact>
</mgrwt>
</event>
<event>
 4    1  0.2293715E-008  0.2307317E+03  0.7818608E-02  0.1126126E+00
         -1   -1    0    0    0  501 -0.00000000000E+00  0.00000000000E+00  0.89647982838E+02  0.89647982980E+02  0.50400000000E-02 0.  1.
          1   -1    0    0  501    0  0.00000000000E+00 -0.00000000000E+00 -0.34509366302E+04  0.34509366302E+04  0.50400000000E-02 0. -1.
    8880022    1    1    2    0    0  0.13381142909E+03 -0.10927024401E+03 -0.69856036901E+02  0.24107468488E+03  0.15294330000E+03 0.  0.
    8880022    1    1    2    0    0 -0.13381142909E+03  0.10927024401E+03 -0.32914326104E+04  0.32995099283E+04  0.15294330000E+03 0.  0.
<mgrwt>
<rscale>  0 0.23073174E+03</rscale>
<asrwt>0</asrwt>
<pdfrwt beam="1">  1        1 0.53091323E+00 0.23073174E+03</pdfrwt>
<pdfrwt beam="2">  1       -1 0.13792000E-01 0.23073174E+03</pdfrwt>
<totfact> 0.12881102E+01</totfact>
</mgrwt>
</event>
<event>
 4    1  0.2293715E-008  0.7888891E+03  0.7818608E-02  0.9576240E-01
         -1   -1    0    0    0  501 -0.00000000000E+00  0.00000000000E+00  0.62435259430E+03  0.62435259432E+03  0.50400000000E-02 0.  1.
          1   -1    0    0  501    0  0.00000000000E+00 -0.00000000000E+00 -0.16393763028E+04  0.16393763028E+04  0.50400000000E-02 0. -1.
    8880022    1    1    2    0    0  0.74642490051E+03 -0.20446067232E+03  0.20112243313E+03  0.81412295432E+03  0.15294330000E+03 0.  0.
    8880022    1    1    2    0    0 -0.74642490051E+03  0.20446067232E+03 -0.12161461416E+04  0.14496059428E+04  0.15294330000E+03 0.  0.
<mgrwt>
<rscale>  0 0.78888906E+03</rscale>
<asrwt>0</asrwt>
<pdfrwt beam="1">  1        1 0.25221174E+00 0.78888906E+03</pdfrwt>
<pdfrwt beam="2">  1       -1 0.96054245E-01 0.78888906E+03</pdfrwt>
<totfact> 0.56781554E+00</totfact>
</mgrwt>
</event>
<event>
 4    1  0.2293715E-008  0.3676908E+03  0.7818608E-02  0.1055579E+00
          1   -1    0    0  501    0  0.00000000000E+00  0.00000000000E+00  0.31595016176E+04  0.31595016176E+04  0.50400000000E-02 0. -1.
         -1   -1    0    0    0  501 -0.00000000000E+00 -0.00000000000E+00 -0.69306278434E+02  0.69306278618E+02  0.50400000000E-02 0.  1.
    8880022    1    1    2    0    0  0.64059062272E+02  0.32817873400E+03  0.25436676758E+04  0.25701053953E+04  0.15294330000E+03 0.  0.
    8880022    1    1    2    0    0 -0.64059062272E+02 -0.32817873400E+03  0.54652766336E+03  0.65870250094E+03  0.15294330000E+03 0.  0.
<mgrwt>
<rscale>  0 0.36769076E+03</rscale>
<asrwt>0</asrwt>
<pdfrwt beam="1">  1        1 0.48607720E+00 0.36769076E+03</pdfrwt>
<pdfrwt beam="2">  1       -1 0.10662504E-01 0.36769076E+03</pdfrwt>
<totfact> 0.29833529E+01</totfact>
</mgrwt>
</event>
<event>
 4    1  0.2293715E-008  0.8933167E+03  0.7818608E-02  0.9433975E-01
          1   -1    0    0  501    0  0.00000000000E+00  0.00000000000E+00  0.20315111540E+04  0.20315111540E+04  0.50400000000E-02 0. -1.
         -1   -1    0    0    0  501 -0.00000000000E+00 -0.00000000000E+00 -0.63139434177E+03  0.63139434179E+03  0.50400000000E-02 0.  1.
    8880022    1    1    2    0    0 -0.83431121410E+03 -0.28026386961E+03  0.15185021997E+04  0.17617785394E+04  0.15294330000E+03 0.  0.
    8880022    1    1    2    0    0  0.83431121410E+03  0.28026386961E+03 -0.11838538741E+03  0.90112695640E+03  0.15294330000E+03 0.  0.
<mgrwt>
<rscale>  0 0.89331668E+03</rscale>
<asrwt>0</asrwt>
<pdfrwt beam="1">  1        1 0.31254018E+00 0.89331668E+03</pdfrwt>
<pdfrwt beam="2">  1       -1 0.97137592E-01 0.89331668E+03</pdfrwt>
<totfact> 0.29681014E+00</totfact>
</mgrwt>
</event>
<event>
 4    1  0.2293715E-008  0.6858353E+03  0.7818608E-02  0.9741767E-01
         -1   -1    0    0    0  501 -0.00000000000E+00  0.00000000000E+00  0.42425144451E+03  0.42425144454E+03  0.50400000000E-02 0.  1.
          1   -1    0    0  501    0  0.00000000000E+00 -0.00000000000E+00 -0.28201933798E+04  0.28201933798E+04  0.50400000000E-02 0. -1.
    8880022    1    1    2    0    0  0.46283133834E+02  0.66696044737E+03  0.65769328810E+02  0.68898158499E+03  0.15294330000E+03 0.  1.
    8880022    1    1    2    0    0 -0.46283133834E+02 -0.66696044737E+03 -0.24617112641E+04  0.25554632393E+04  0.15294330000E+03 0.  0.
<mgrwt>
<rscale>  0 0.68583527E+03</rscale>
<asrwt>0</asrwt>
<pdfrwt beam="1">  1        1 0.43387589E+00 0.68583527E+03</pdfrwt>
<pdfrwt beam="2">  1       -1 0.65269455E-01 0.68583527E+03</pdfrwt>
<totfact> 0.20825856E+00</totfact>
</mgrwt>
</event>
<event>
 4    1  0.2293715E-008  0.2416098E+03  0.7818608E-02  0.1118725E+00
          1   -1    0    0  501    0  0.00000000000E+00  0.00000000000E+00  0.10958810269E+04  0.10958810269E+04  0.50400000000E-02 0. -1.
         -1   -1    0    0    0  501 -0.00000000000E+00 -0.00000000000E+00 -0.28160371173E+03  0.28160371177E+03  0.50400000000E-02 0.  1.
    8880022    1    1    2    0    0  0.72639511357E+02 -0.17235766600E+03  0.10273284261E+04  0.10553572910E+04  0.15294330000E+03 0.  0.
    8880022    1    1    2    0    0 -0.72639511357E+02  0.17235766600E+03 -0.21305111094E+03  0.32212744764E+03  0.15294330000E+03 0.  0.
<mgrwt>
<rscale>  0 0.24160984E+03</rscale>
<asrwt>0</asrwt>
<pdfrwt beam="1">  1        1 0.16859708E+00 0.24160984E+03</pdfrwt>
<pdfrwt beam="2">  1       -1 0.43323648E-01 0.24160984E+03</pdfrwt>
<totfact> 0.74263028E+01</totfact>
</mgrwt>
</event>
<event>
 4    1  0.2293715E-008  0.3026393E+03  0.7818608E-02  0.1083929E+00
         -1   -1    0    0    0  501 -0.00000000000E+00  0.00000000000E+00  0.47954553266E+02  0.47954553531E+02  0.50400000000E-02 0.  1.
          1   -1    0    0  501    0  0.00000000000E+00 -0.00000000000E+00 -0.27750313036E+04  0.27750313036E+04  0.50400000000E-02 0. -1.
    8880022    1    1    2    0    0 -0.71925492247E+02 -0.25104900126E+03 -0.57545052264E+03  0.65017984781E+03  0.15294330000E+03 0.  0.
    8880022    1    1    2    0    0  0.71925492247E+02  0.25104900126E+03 -0.21516262277E+04  0.21728060093E+04  0.15294330000E+03 0.  0.
<mgrwt>
<rscale>  0 0.30263927E+03</rscale>
<asrwt>0</asrwt>
<pdfrwt beam="1">  1        1 0.42692777E+00 0.30263927E+03</pdfrwt>
<pdfrwt beam="2">  1       -1 0.73776258E-02 0.30263927E+03</pdfrwt>
<totfact> 0.10008402E+02</totfact>
</mgrwt>
</event>
<event>
 4    1  0.2293715E-008  0.8324468E+03  0.7818608E-02  0.9514204E-01
          1   -1    0    0  501    0  0.00000000000E+00  0.00000000000E+00  0.22774598641E+04  0.22774598641E+04  0.50400000000E-02 0. -1.
         -1   -1    0    0    0  501 -0.00000000000E+00 -0.00000000000E+00 -0.97530408816E+03  0.97530408818E+03  0.50400000000E-02 0.  1.
    8880022    1    1    2    0    0  0.54889155693E+03  0.60687242531E+03 -0.69795987909E+03  0.10863313158E+04  0.15294330000E+03 0.  0.
    8880022    1    1    2    0    0 -0.54889155693E+03 -0.60687242531E+03  0.20001156551E+04  0.21664326365E+04  0.15294330000E+03 0.  0.
<mgrwt>
<rscale>  0 0.83244684E+03</rscale>
<asrwt>0</asrwt>
<pdfrwt beam="1">  1        1 0.35037844E+00 0.83244684E+03</pdfrwt>
<pdfrwt beam="2">  1       -1 0.15004678E+00 0.83244684E+03</pdfrwt>
<totfact> 0.70368171E-01</totfact>
</mgrwt>
</event>
<event>
 4    1  0.2293715E-008  0.4724959E+03  0.7818608E-02  0.1021218E+00
         -1   -1    0    0    0  501 -0.00000000000E+00  0.00000000000E+00  0.41831292422E+03  0.41831292425E+03  0.50400000000E-02 0.  1.
          1   -1    0    0  501    0  0.00000000000E+00 -0.00000000000E+00 -0.11290350295E+04  0.11290350295E+04  0.50400000000E-02 0. -1.
    8880022    1    1    2    0    0  0.76818290374E+02 -0.44040847693E+03  0.20644461252E+03  0.51562748893E+03  0.15294330000E+03 0.  0.
    8880022    1    1    2    0    0 -0.76818290374E+02  0.44040847693E+03 -0.91716671777E+03  0.10317204648E+04  0.15294330000E+03 0.  0.
<mgrwt>
<rscale>  0 0.47249585E+03</rscale>
<asrwt>0</asrwt>
<pdfrwt beam="1">  1        1 0.17369770E+00 0.47249585E+03</pdfrwt>
<pdfrwt beam="2">  1       -1 0.64355835E-01 0.47249585E+03</pdfrwt>
<totfact> 0.31581217E+01</totfact>
</mgrwt>
</event>
<event>
 4    1  0.2293715E-008  0.2495399E+03  0.7818608E-02  0.1113596E+00
          1   -1    0    0  501    0  0.00000000000E+00  0.00000000000E+00  0.37882192060E+03  0.37882192064E+03  0.50400000000E-02 0. -1.
         -1   -1    0    0    0  501 -0.00000000000E+00 -0.00000000000E+00 -0.26249453791E+03  0.26249453795E+03  0.50400000000E-02 0.  1.
    8880022    1    1    2    0    0 -0.18303835930E+03  0.73317586051E+02  0.25420714880E+03  0.35621824338E+03  0.15294330000E+03 0.  0.
    8880022    1    1    2    0    0  0.18303835930E+03 -0.73317586051E+02 -0.13787976610E+03  0.28509821521E+03  0.15294330000E+03 0.  0.
<mgrwt>
<rscale>  0 0.24953990E+03</rscale>
<asrwt>0</asrwt>
<pdfrwt beam="1">  1        1 0.58280295E-01 0.24953990E+03</pdfrwt>
<pdfrwt beam="2">  1       -1 0.40383775E-01 0.24953990E+03</pdfrwt>
<totfact> 0.39749014E+02</totfact>
</mgrwt>
</event>
<event>
 4    1  0.2293715E-008  0.1115994E+04  0.7818608E-02  0.9189742E-01
          1   -1    0    0  501    0  0.00000000000E+00  0.00000000000E+00  0.13298152676E+04  0.13298152676E+04  0.50400000000E-02 0. -1.
         -1   -1    0    0    0  501 -0.00000000000E+00 -0.00000000000E+00 -0.11530786586E+04  0.11530786586E+04  0.50400000000E-02 0.  1.
    8880022    1    1    2    0    0  0.53359801213E+03 -0.96815518879E+03 -0.44959545926E+03  0.12031537882E+04  0.15294330000E+03 0.  0.
    8880022    1    1    2    0    0 -0.53359801213E+03  0.96815518879E+03  0.62633206820E+03  0.12797401380E+04  0.15294330000E+03 0.  0.
<mgrwt>
<rscale>  0 0.11159942E+04</rscale>
<asrwt>0</asrwt>
<pdfrwt beam="1">  1        1 0.20458696E+00 0.11159942E+04</pdfrwt>
<pdfrwt beam="2">  1       -1 0.17739672E+00 0.11159942E+04</pdfrwt>
<totfact> 0.18527423E+00</totfact>
</mgrwt>
</event>
<event>
 4    1  0.2293715E-008  0.2948677E+03  0.7818608E-02  0.1087835E+00
         -1   -1    0    0    0  501 -0.00000000000E+00  0.00000000000E+00  0.62529360848E+03  0.62529360851E+03  0.50400000000E-02 0.  1.
          1   -1    0    0  501    0  0.00000000000E+00 -0.00000000000E+00 -0.39885082377E+04  0.39885082377E+04  0.50400000000E-02 0. -1.
    8880022    1    1    2    0    0 -0.10346690330E+03  0.22989113221E+03 -0.39479392078E+04  0.39589355861E+04  0.15294330000E+03 0. -1.
    8880022    1    1    2    0    0  0.10346690330E+03 -0.22989113221E+03  0.58472457865E+03  0.65486626012E+03  0.15294330000E+03 0.  0.
<mgrwt>
<rscale>  0 0.29486774E+03</rscale>
<asrwt>0</asrwt>
<pdfrwt beam="1">  1        1 0.61361664E+00 0.29486774E+03</pdfrwt>
<pdfrwt beam="2">  1       -1 0.96199019E-01 0.29486774E+03</pdfrwt>
<totfact> 0.14090249E-01</totfact>
</mgrwt>
</event>
<event>
 4    1  0.2293715E-008  0.3353356E+03  0.7818608E-02  0.1068800E+00
          1   -1    0    0  501    0  0.00000000000E+00  0.00000000000E+00  0.13700314333E+04  0.13700314333E+04  0.50400000000E-02 0. -1.
         -1   -1    0    0    0  501 -0.00000000000E+00 -0.00000000000E+00 -0.10521625046E+03  0.10521625058E+03  0.50400000000E-02 0.  1.
    8880022    1    1    2    0    0  0.29821553118E+03  0.11217645163E+02  0.97831113883E+03  0.10341869637E+04  0.15294330000E+03 0.  0.
    8880022    1    1    2    0    0 -0.29821553118E+03 -0.11217645163E+02  0.28650404397E+03  0.44106072011E+03  0.15294330000E+03 0.  0.
<mgrwt>
<rscale>  0 0.33533564E+03</rscale>
<asrwt>0</asrwt>
<pdfrwt beam="1">  1        1 0.21077407E+00 0.33533564E+03</pdfrwt>
<pdfrwt beam="2">  1       -1 0.16187116E-01 0.33533564E+03</pdfrwt>
<totfact> 0.24768454E+02</totfact>
</mgrwt>
</event>
<event>
 4    1  0.2293715E-008  0.7941834E+03  0.7818608E-02  0.9568475E-01
          1   -1    0    0  501    0  0.00000000000E+00  0.00000000000E+00  0.12038954686E+04  0.12038954686E+04  0.50400000000E-02 0. -1.
         -1   -1    0    0    0  501 -0.00000000000E+00 -0.00000000000E+00 -0.87856614165E+03  0.87856614166E+03  0.50400000000E-02 0.  1.
    8880022    1    1    2    0    0  0.33366780731E+03 -0.70427367974E+03 -0.49889096372E+03  0.93788030595E+03  0.15294330000E+03 0.  0.
    8880022    1    1    2    0    0 -0.33366780731E+03  0.70427367974E+03  0.82422029063E+03  0.11445813043E+04  0.15294330000E+03 0.  0.
<mgrwt>
<rscale>  0 0.79418340E+03</rscale>
<asrwt>0</asrwt>
<pdfrwt beam="1">  1        1 0.18521469E+00 0.79418340E+03</pdfrwt>
<pdfrwt beam="2">  1       -1 0.13516402E+00 0.79418340E+03</pdfrwt>
<totfact> 0.50267176E+00</totfact>
</mgrwt>
</event>
<event>
 4    1  0.2293715E-008  0.2580725E+03  0.7818608E-02  0.1108307E+00
         -1   -1    0    0    0  501 -0.00000000000E+00  0.00000000000E+00  0.50971538406E+03  0.50971538409E+03  0.50400000000E-02 0.  1.
          1   -1    0    0  501    0  0.00000000000E+00 -0.00000000000E+00 -0.29740018689E+04  0.29740018689E+04  0.50400000000E-02 0. -1.
    8880022    1    1    2    0    0  0.13610390154E+03 -0.15711609547E+03 -0.29353074766E+04  0.29466305121E+04  0.15294330000E+03 0.  0.
    8880022    1    1    2    0    0 -0.13610390154E+03  0.15711609547E+03  0.47102099182E+03  0.53708674087E+03  0.15294330000E+03 0.  1.
<mgrwt>
<rscale>  0 0.25807246E+03</rscale>
<asrwt>0</asrwt>
<pdfrwt beam="1">  1        1 0.45753874E+00 0.25807246E+03</pdfrwt>
<pdfrwt beam="2">  1       -1 0.78417753E-01 0.25807246E+03</pdfrwt>
<totfact> 0.13189268E+00</totfact>
</mgrwt>
</event>
<event>
 4    1  0.2293715E-008  0.3100039E+03  0.7818608E-02  0.1080344E+00
          1   -1    0    0  501    0  0.00000000000E+00  0.00000000000E+00  0.28314299240E+04  0.28314299240E+04  0.50400000000E-02 0. -1.
         -1   -1    0    0    0  501 -0.00000000000E+00 -0.00000000000E+00 -0.77693893750E+02  0.77693893913E+02  0.50400000000E-02 0.  1.
    8880022    1    1    2    0    0 -0.26873739521E+03 -0.22158424049E+02  0.24684104576E+04  0.24878007604E+04  0.15294330000E+03 0.  0.
    8880022    1    1    2    0    0  0.26873739521E+03  0.22158424049E+02  0.28532557259E+03  0.42132305744E+03  0.15294330000E+03 0.  0.
<mgrwt>
<rscale>  0 0.31000393E+03</rscale>
<asrwt>0</asrwt>
<pdfrwt beam="1">  1        1 0.43560457E+00 0.31000393E+03</pdfrwt>
<pdfrwt beam="2">  1       -1 0.11952908E-01 0.31000393E+03</pdfrwt>
<totfact> 0.43213712E+01</totfact>
</mgrwt>
</event>
<event>
 4    1  0.2293715E-008  0.3196768E+03  0.7818608E-02  0.1075798E+00
         -1   -1    0    0    0  501 -0.00000000000E+00  0.00000000000E+00  0.17854881933E+04  0.17854881933E+04  0.50400000000E-02 0.  1.
          1   -1    0    0  501    0  0.00000000000E+00 -0.00000000000E+00 -0.61154286802E+03  0.61154286804E+03  0.50400000000E-02 0. -1.
    8880022    1    1    2    0    0 -0.12888359653E+03  0.24938047185E+03  0.17280249637E+04  0.17573455919E+04  0.15294330000E+03 0.  0.
    8880022    1    1    2    0    0  0.12888359653E+03 -0.24938047185E+03 -0.55407963838E+03  0.63968546949E+03  0.15294330000E+03 0.  0.
<mgrwt>
<rscale>  0 0.31967680E+03</rscale>
<asrwt>0</asrwt>
<pdfrwt beam="1">  1        1 0.94083520E-01 0.31967680E+03</pdfrwt>
<pdfrwt beam="2">  1       -1 0.27469049E+00 0.31967680E+03</pdfrwt>
<totfact> 0.18912895E+00</totfact>
</mgrwt>
</event>
<event>
 4    1  0.2293715E-008  0.3901965E+03  0.7818608E-02  0.1047228E+00
          1   -1    0    0  501    0  0.00000000000E+00  0.00000000000E+00  0.18171709740E+04  0.18171709740E+04  0.50400000000E-02 0. -1.
         -1   -1    0    0    0  501 -0.00000000000E+00 -0.00000000000E+00 -0.41491485088E+03  0.41491485091E+03  0.50400000000E-02 0.  1.
    8880022    1    1    2    0    0 -0.29447766904E+03  0.20529139425E+03  0.16981391306E+04  0.17423919805E+04  0.15294330000E+03 0. -1.
    8880022    1    1    2    0    0  0.29447766904E+03 -0.20529139425E+03 -0.29588300743E+03  0.48969384438E+03  0.15294330000E+03 0.  0.
<mgrwt>
<rscale>  0 0.39019650E+03</rscale>
<asrwt>0</asrwt>
<pdfrwt beam="1">  1        1 0.27956477E+00 0.39019650E+03</pdfrwt>
<pdfrwt beam="2">  1       -1 0.63833052E-01 0.39019650E+03</pdfrwt>
<totfact> 0.11118198E+01</totfact>
</mgrwt>
</event>
<event>
 4    1  0.2293715E-008  0.4685157E+03  0.7818608E-02  0.1022340E+00
         -1   -1    0    0    0  501 -0.00000000000E+00  0.00000000000E+00  0.15605960170E+03  0.15605960178E+03  0.50400000000E-02 0.  1.
          1   -1    0    0  501    0  0.00000000000E+00 -0.00000000000E+00 -0.14185335743E+04  0.14185335743E+04  0.50400000000E-02 0. -1.
    8880022    1    1    2    0    0 -0.18161775578E+03  0.40389394948E+03 -0.55890094685E+03  0.72929915196E+03  0.15294330000E+03 0.  0.
    8880022    1    1    2    0    0  0.18161775578E+03 -0.40389394948E+03 -0.70357302574E+03  0.84529402411E+03  0.15294330000E+03 0.  0.
<mgrwt>
<rscale>  0 0.46851573E+03</rscale>
<asrwt>0</asrwt>
<pdfrwt beam="1">  1        1 0.21823593E+00 0.46851573E+03</pdfrwt>
<pdfrwt beam="2">  1       -1 0.24009170E-01 0.46851573E+03</pdfrwt>
<totfact> 0.11777767E+02</totfact>
</mgrwt>
</event>
<event>
 4    1  0.2293715E-008  0.1068619E+04  0.7818608E-02  0.9236329E-01
          1   -1    0    0  501    0  0.00000000000E+00  0.00000000000E+00  0.15073119562E+04  0.15073119562E+04  0.50400000000E-02 0. -1.
         -1   -1    0    0    0  501 -0.00000000000E+00 -0.00000000000E+00 -0.13566619685E+04  0.13566619685E+04  0.50400000000E-02 0.  1.
    8880022    1    1    2    0    0  0.89930410853E+03  0.55660298652E+03 -0.87623781352E+03  0.13819331109E+04  0.15294330000E+03 0.  0.
    8880022    1    1    2    0    0 -0.89930410853E+03 -0.55660298652E+03  0.10268878012E+04  0.14820408137E+04  0.15294330000E+03 0.  0.
<mgrwt>
<rscale>  0 0.10686189E+04</rscale>
<asrwt>0</asrwt>
<pdfrwt beam="1">  1        1 0.23189414E+00 0.10686189E+04</pdfrwt>
<pdfrwt beam="2">  1       -1 0.20871723E+00 0.10686189E+04</pdfrwt>
<totfact> 0.84595019E-01</totfact>
</mgrwt>
</event>
<event>
 4    1  0.2293715E-008  0.8989974E+03  0.7818608E-02  0.9426836E-01
          1   -1    0    0  501    0  0.00000000000E+00  0.00000000000E+00  0.28201654442E+04  0.28201654442E+04  0.50400000000E-02 0. -1.
         -1   -1    0    0    0  501 -0.00000000000E+00 -0.00000000000E+00 -0.43793948517E+03  0.43793948520E+03  0.50400000000E-02 0.  1.
    8880022    1    1    2    0    0 -0.20758186971E+03 -0.86122839891E+03  0.21488279708E+04  0.23293041641E+04  0.15294330000E+03 0.  0.
    8880022    1    1    2    0    0  0.20758186971E+03  0.86122839891E+03  0.23339798823E+03  0.92880076531E+03  0.15294330000E+03 0.  0.
<mgrwt>
<rscale>  0 0.89899735E+03</rscale>
<asrwt>0</asrwt>
<pdfrwt beam="1">  1        1 0.43387161E+00 0.89899735E+03</pdfrwt>
<pdfrwt beam="2">  1       -1 0.67375306E-01 0.89899735E+03</pdfrwt>
<totfact> 0.18732824E+00</totfact>
</mgrwt>
</event>
<event>
 4    1  0.2293715E-008  0.2534040E+03  0.7818608E-02  0.1111172E+00
          1   -1    0    0  501    0  0.00000000000E+00  0.00000000000E+00  0.12848449356E+03  0.12848449366E+03  0.50400000000E-02 0. -1.
         -1   -1    0    0    0  501 -0.00000000000E+00 -0.00000000000E+00 -0.16684704813E+04  0.16684704813E+04  0.50400000000E-02 0.  1.
    8880022    1    1    2    0    0  0.19810361647E+03  0.39710121124E+02 -0.15219590802E+04  0.15429105714E+04  0.15294330000E+03 0.  1.
    8880022    1    1    2    0    0 -0.19810361647E+03 -0.39710121124E+02 -0.18026907567E+02  0.25404440358E+03  0.15294330000E+03 0.  0.
<mgrwt>
<rscale>  0 0.25340400E+03</rscale>
<asrwt>0</asrwt>
<pdfrwt beam="1">  1        1 0.19766846E-01 0.25340400E+03</pdfrwt>
<pdfrwt beam="2">  1       -1 0.25668775E+00 0.25340400E+03</pdfrwt>
<totfact> 0.18875767E+01</totfact>
</mgrwt>
</event>
<event>
 4    1  0.2293715E-008  0.6650073E+03  0.7818608E-02  0.9779019E-01
         -1   -1    0    0    0  501 -0.00000000000E+00  0.00000000000E+00  0.68686598883E+03  0.68686598885E+03  0.50400000000E-02 0.  1.
          1   -1    0    0  501    0  0.00000000000E+00 -0.00000000000E+00 -0.15492575675E+04  0.15492575675E+04  0.50400000000E-02 0. -1.
    8880022    1    1    2    0    0 -0.93879267901E+02  0.64033566222E+03 -0.12859227882E+04  0.14476989147E+04  0.15294330000E+03 0.  0.
    8880022    1    1    2    0    0  0.93879267901E+02 -0.64033566222E+03  0.42353120951E+03  0.78842464173E+03  0.15294330000E+03 0.  0.
<mgrwt>
<rscale>  0 0.66500732E+03</rscale>
<asrwt>0</asrwt>
<pdfrwt beam="1">  1        1 0.23834732E+00 0.66500732E+03</pdfrwt>
<pdfrwt beam="2">  1       -1 0.10567169E+00 0.66500732E+03</pdfrwt>
<totfact> 0.53678442E+00</totfact>
</mgrwt>
</event>
<event>
 4    1  0.2293715E-008  0.3090152E+03  0.7818608E-02  0.1080819E+00
          1   -1    0    0  501    0  0.00000000000E+00  0.00000000000E+00  0.31085940115E+04  0.31085940115E+04  0.50400000000E-02 0. -1.
         -1   -1    0    0    0  501 -0.00000000000E+00 -0.00000000000E+00 -0.96769758300E+02  0.96769758431E+02  0.50400000000E-02 0.  1.
    8880022    1    1    2    0    0  0.15259705180E+03 -0.22093635146E+03  0.28300068766E+04  0.28468279376E+04  0.15294330000E+03 0.  0.
    8880022    1    1    2    0    0 -0.15259705180E+03  0.22093635146E+03  0.18181737657E+03  0.35853583231E+03  0.15294330000E+03 0.  0.
<mgrwt>
<rscale>  0 0.30901519E+03</rscale>
<asrwt>0</asrwt>
<pdfrwt beam="1">  1        1 0.47824518E+00 0.30901519E+03</pdfrwt>
<pdfrwt beam="2">  1       -1 0.14887657E-01 0.30901519E+03</pdfrwt>
<totfact> 0.19526085E+01</totfact>
</mgrwt>
</event>
<event>
 4    1  0.2293715E-008  0.3036013E+03  0.7818608E-02  0.1083454E+00
          1   -1    0    0  501    0  0.00000000000E+00  0.00000000000E+00  0.11956682443E+04  0.11956682443E+04  0.50400000000E-02 0. -1.
         -1   -1    0    0    0  501 -0.00000000000E+00 -0.00000000000E+00 -0.23246643436E+03  0.23246643442E+03  0.50400000000E-02 0.  1.
    8880022    1    1    2    0    0  0.24058585991E+03  0.10440550861E+03  0.10653846816E+04  0.11077988261E+04  0.15294330000E+03 0.  0.
    8880022    1    1    2    0    0 -0.24058585991E+03 -0.10440550861E+03 -0.10218287168E+03  0.32033585265E+03  0.15294330000E+03 0.  0.
<mgrwt>
<rscale>  0 0.30360125E+03</rscale>
<asrwt>0</asrwt>
<pdfrwt beam="1">  1        1 0.18394896E+00 0.30360125E+03</pdfrwt>
<pdfrwt beam="2">  1       -1 0.35764066E-01 0.30360125E+03</pdfrwt>
<totfact> 0.87274913E+01</totfact>
</mgrwt>
</event>
<event>
 4    1  0.2293715E-008  0.1893705E+03  0.7818608E-02  0.1159030E+00
          1   -1    0    0  501    0  0.00000000000E+00  0.00000000000E+00  0.13558734156E+04  0.13558734156E+04  0.50400000000E-02 0. -1.
         -1   -1    0    0    0  501 -0.00000000000E+00 -0.00000000000E+00 -0.18456381847E+03  0.18456381854E+03  0.50400000000E-02 0.  1.
    8880022    1    1    2    0    0 -0.24418173749E+02  0.10896459723E+03 -0.12724309525E+03  0.22814904988E+03  0.15294330000E+03 0.  0.
    8880022    1    1    2    0    0  0.24418173749E+02 -0.10896459723E+03  0.12985526924E+04  0.13122881843E+04  0.15294330000E+03 0. -1.
<mgrwt>
<rscale>  0 0.18937049E+03</rscale>
<asrwt>0</asrwt>
<pdfrwt beam="1">  1        1 0.20859592E+00 0.18937049E+03</pdfrwt>
<pdfrwt beam="2">  1       -1 0.28394433E-01 0.18937049E+03</pdfrwt>
<totfact> 0.10395789E+02</totfact>
</mgrwt>
</event>
<event>
 4    1  0.2293715E-008  0.3680675E+03  0.7818608E-02  0.1055434E+00
         -1   -1    0    0    0  501 -0.00000000000E+00  0.00000000000E+00  0.93732275053E+03  0.93732275055E+03  0.50400000000E-02 0.  1.
          1   -1    0    0  501    0  0.00000000000E+00 -0.00000000000E+00 -0.19686599055E+03  0.19686599062E+03  0.50400000000E-02 0. -1.
    8880022    1    1    2    0    0 -0.28415061867E+03 -0.17703229478E+03  0.77840360585E+02  0.37620842925E+03  0.15294330000E+03 0.  1.
    8880022    1    1    2    0    0  0.28415061867E+03  0.17703229478E+03  0.66261639940E+03  0.75798031192E+03  0.15294330000E+03 0.  0.
<mgrwt>
<rscale>  0 0.36806747E+03</rscale>
<asrwt>0</asrwt>
<pdfrwt beam="1">  1        1 0.30287076E-01 0.36806747E+03</pdfrwt>
<pdfrwt beam="2">  1       -1 0.14420350E+00 0.36806747E+03</pdfrwt>
<totfact> 0.62239858E+01</totfact>
</mgrwt>
</event>
<event>
 4    1  0.2293715E-008  0.1290145E+04  0.7818608E-02  0.9037417E-01
         -1   -1    0    0    0  501 -0.00000000000E+00  0.00000000000E+00  0.14318578922E+04  0.14318578922E+04  0.50400000000E-02 0.  1.
          1   -1    0    0  501    0  0.00000000000E+00 -0.00000000000E+00 -0.15156750210E+04  0.15156750211E+04  0.50400000000E-02 0. -1.
    8880022    1    1    2    0    0  0.40798333737E+03  0.12143447587E+04  0.66954437859E+03  0.14535353193E+04  0.15294330000E+03 0.  0.
    8880022    1    1    2    0    0 -0.40798333737E+03 -0.12143447587E+04 -0.75336150747E+03  0.14939975939E+04  0.15294330000E+03 0.  0.
<mgrwt>
<rscale>  0 0.12901454E+04</rscale>
<asrwt>0</asrwt>
<pdfrwt beam="1">  1        1 0.23318077E+00 0.12901454E+04</pdfrwt>
<pdfrwt beam="2">  1       -1 0.22028583E+00 0.12901454E+04</pdfrwt>
<totfact> 0.67735971E-01</totfact>
</mgrwt>
</event>
<event>
 4    1  0.2293715E-008  0.8191201E+03  0.7818608E-02  0.9532747E-01
         -1   -1    0    0    0  501 -0.00000000000E+00  0.00000000000E+00  0.63932227134E+03  0.63932227136E+03  0.50400000000E-02 0.  1.
          1   -1    0    0  501    0  0.00000000000E+00 -0.00000000000E+00 -0.16290062603E+04  0.16290062603E+04  0.50400000000E-02 0. -1.
    8880022    1    1    2    0    0  0.68400079121E+03  0.42392100348E+03  0.18163040117E+03  0.83901570617E+03  0.15294330000E+03 0.  0.
    8880022    1    1    2    0    0 -0.68400079121E+03 -0.42392100348E+03 -0.11713143901E+04  0.14293128255E+04  0.15294330000E+03 0.  0.
<mgrwt>
<rscale>  0 0.81912011E+03</rscale>
<asrwt>0</asrwt>
<pdfrwt beam="1">  1        1 0.25061634E+00 0.81912011E+03</pdfrwt>
<pdfrwt beam="2">  1       -1 0.98357274E-01 0.81912011E+03</pdfrwt>
<totfact> 0.54445096E+00</totfact>
</mgrwt>
</event>
<event>
 4    1  0.2293715E-008  0.7112346E+03  0.7818608E-02  0.9698210E-01
          1   -1    0    0  501    0  0.00000000000E+00  0.00000000000E+00  0.18740274707E+04  0.18740274707E+04  0.50400000000E-02 0. -1.
         -1   -1    0    0    0  501 -0.00000000000E+00 -0.00000000000E+00 -0.31452902103E+03  0.31452902107E+03  0.50400000000E-02 0.  1.
    8880022    1    1    2    0    0 -0.20011147486E+03  0.66514543752E+03  0.11918126171E+04  0.13879020220E+04  0.15294330000E+03 0.  0.
    8880022    1    1    2    0    0  0.20011147486E+03 -0.66514543752E+03  0.36768583255E+03  0.80065446973E+03  0.15294330000E+03 0.  0.
<mgrwt>
<rscale>  0 0.71123464E+03</rscale>
<asrwt>0</asrwt>
<pdfrwt beam="1">  1        1 0.28831192E+00 0.71123464E+03</pdfrwt>
<pdfrwt beam="2">  1       -1 0.48389080E-01 0.71123464E+03</pdfrwt>
<totfact> 0.16224729E+01</totfact>
</mgrwt>
</event>
<event>
 4    1  0.2293715E-008  0.8327997E+03  0.7818608E-02  0.9513718E-01
         -1   -1    0    0    0  501 -0.00000000000E+00  0.00000000000E+00  0.69944133572E+03  0.69944133574E+03  0.50400000000E-02 0.  1.
          1   -1    0    0  501    0  0.00000000000E+00 -0.00000000000E+00 -0.14678777333E+04  0.14678777333E+04  0.50400000000E-02 0. -1.
    8880022    1    1    2    0    0  0.75986845254E+03  0.30457107962E+03  0.23306587626E+03  0.86479764304E+03  0.15294330000E+03 0.  0.
    8880022    1    1    2    0    0 -0.75986845254E+03 -0.30457107962E+03 -0.10015022739E+04  0.13025214260E+04  0.15294330000E+03 0.  0.
<mgrwt>
<rscale>  0 0.83279965E+03</rscale>
<asrwt>0</asrwt>
<pdfrwt beam="1">  1        1 0.22582734E+00 0.83279965E+03</pdfrwt>
<pdfrwt beam="2">  1       -1 0.10760636E+00 0.83279965E+03</pdfrwt>
<totfact> 0.56890366E+00</totfact>
</mgrwt>
</event>
<event>
 4    1  0.2293715E-008  0.7537459E+03  0.7818608E-02  0.9629492E-01
         -1   -1    0    0    0  501 -0.00000000000E+00  0.00000000000E+00  0.70220537551E+03  0.70220537553E+03  0.50400000000E-02 0.  1.
          1   -1    0    0  501    0  0.00000000000E+00 -0.00000000000E+00 -0.12954212587E+04  0.12954212587E+04  0.50400000000E-02 0. -1.
    8880022    1    1    2    0    0  0.43912700494E+03  0.59321894941E+03 -0.90861170360E+03  0.11805541620E+04  0.15294330000E+03 0.  0.
    8880022    1    1    2    0    0 -0.43912700494E+03 -0.59321894941E+03  0.31539582041E+03  0.81707247227E+03  0.15294330000E+03 0.  0.
<mgrwt>
<rscale>  0 0.75374591E+03</rscale>
<asrwt>0</asrwt>
<pdfrwt beam="1">  1        1 0.19929558E+00 0.75374591E+03</pdfrwt>
<pdfrwt beam="2">  1       -1 0.10803160E+00 0.75374591E+03</pdfrwt>
<totfact> 0.75244601E+00</totfact>
</mgrwt>
</event>
<event>
 4    1  0.2293715E-008  0.9658217E+03  0.7818608E-02  0.9346846E-01
         -1   -1    0    0    0  501 -0.00000000000E+00  0.00000000000E+00  0.19188336755E+04  0.19188336755E+04  0.50400000000E-02 0.  1.
          1   -1    0    0  501    0  0.00000000000E+00 -0.00000000000E+00 -0.60756871409E+03  0.60756871411E+03  0.50400000000E-02 0. -1.
    8880022    1    1    2    0    0  0.84178369542E+03  0.44812946990E+03  0.90896889244E+02  0.97008953667E+03  0.15294330000E+03 0.  0.
    8880022    1    1    2    0    0 -0.84178369542E+03 -0.44812946990E+03  0.12203680722E+04  0.15563128530E+04  0.15294330000E+03 0.  0.
<mgrwt>
<rscale>  0 0.96582165E+03</rscale>
<asrwt>0</asrwt>
<pdfrwt beam="1">  1        1 0.93472111E-01 0.96582165E+03</pdfrwt>
<pdfrwt beam="2">  1       -1 0.29520518E+00 0.96582165E+03</pdfrwt>
<totfact> 0.12149108E+00</totfact>
</mgrwt>
</event>
<event>
 4    1  0.2293715E-008  0.2661999E+03  0.7818608E-02  0.1103474E+00
         -1   -1    0    0    0  501 -0.00000000000E+00  0.00000000000E+00  0.27909581420E+03  0.27909581425E+03  0.50400000000E-02 0.  1.
          1   -1    0    0  501    0  0.00000000000E+00 -0.00000000000E+00 -0.44742170167E+03  0.44742170170E+03  0.50400000000E-02 0. -1.
    8880022    1    1    2    0    0 -0.21722802281E+03  0.16814753094E+02 -0.32306644043E+03  0.41860999482E+03  0.15294330000E+03 0.  0.
    8880022    1    1    2    0    0  0.21722802281E+03 -0.16814753094E+02  0.15474055297E+03  0.30790752112E+03  0.15294330000E+03 0.  0.
<mgrwt>
<rscale>  0 0.26619993E+03</rscale>
<asrwt>0</asrwt>
<pdfrwt beam="1">  1        1 0.68834108E-01 0.26619993E+03</pdfrwt>
<pdfrwt beam="2">  1       -1 0.42937817E-01 0.26619993E+03</pdfrwt>
<totfact> 0.28684504E+02</totfact>
</mgrwt>
</event>
<event>
 4    1  0.2293715E-008  0.1740038E+03  0.7818608E-02  0.1173736E+00
         -1   -1    0    0    0  501 -0.00000000000E+00  0.00000000000E+00  0.12111055971E+03  0.12111055982E+03  0.50400000000E-02 0.  1.
          1   -1    0    0  501    0  0.00000000000E+00 -0.00000000000E+00 -0.11097211397E+04  0.11097211398E+04  0.50400000000E-02 0. -1.
    8880022    1    1    2    0    0 -0.76540548186E+02 -0.32050170805E+02 -0.10359833103E+04  0.10504945222E+04  0.15294330000E+03 0.  0.
    8880022    1    1    2    0    0  0.76540548186E+02  0.32050170805E+02  0.47372730232E+02  0.18033717739E+03  0.15294330000E+03 0.  1.
<mgrwt>
<rscale>  0 0.17400380E+03</rscale>
<asrwt>0</asrwt>
<pdfrwt beam="1">  1        1 0.17072632E+00 0.17400380E+03</pdfrwt>
<pdfrwt beam="2">  1       -1 0.18632395E-01 0.17400380E+03</pdfrwt>
<totfact> 0.30766619E+02</totfact>
</mgrwt>
</event>
<event>
 4    1  0.2293715E-008  0.1966850E+03  0.7818608E-02  0.1152566E+00
          1   -1    0    0  501    0  0.00000000000E+00  0.00000000000E+00  0.34337397434E+03  0.34337397438E+03  0.50400000000E-02 0. -1.
         -1   -1    0    0    0  501 -0.00000000000E+00 -0.00000000000E+00 -0.27496908248E+03  0.27496908252E+03  0.50400000000E-02 0.  1.
    8880022    1    1    2    0    0  0.11874906336E+03  0.34525396687E+02  0.27173715895E+03  0.33544907160E+03  0.15294330000E+03 0.  0.
    8880022    1    1    2    0    0 -0.11874906336E+03 -0.34525396687E+02 -0.20333226709E+03  0.28289398530E+03  0.15294330000E+03 0.  1.
<mgrwt>
<rscale>  0 0.19668502E+03</rscale>
<asrwt>0</asrwt>
<pdfrwt beam="1">  1        1 0.52826765E-01 0.19668502E+03</pdfrwt>
<pdfrwt beam="2">  1       -1 0.42302936E-01 0.19668502E+03</pdfrwt>
<totfact> 0.41578058E+02</totfact>
</mgrwt>
</event>
<event>
 4    1  0.2293715E-008  0.6266181E+03  0.7818608E-02  0.9851671E-01
          1   -1    0    0  501    0  0.00000000000E+00  0.00000000000E+00  0.21130158763E+04  0.21130158763E+04  0.50400000000E-02 0. -1.
         -1   -1    0    0    0  501 -0.00000000000E+00 -0.00000000000E+00 -0.28108362519E+03  0.28108362524E+03  0.50400000000E-02 0.  1.
    8880022    1    1    2    0    0  0.51364025591E+03 -0.32470328731E+03  0.16128295083E+04  0.17302800968E+04  0.15294330000E+03 0.  0.
    8880022    1    1    2    0    0 -0.51364025591E+03  0.32470328731E+03  0.21910274280E+03  0.66381940480E+03  0.15294330000E+03 0.  0.
<mgrwt>
<rscale>  0 0.62661806E+03</rscale>
<asrwt>0</asrwt>
<pdfrwt beam="1">  1        1 0.32507935E+00 0.62661806E+03</pdfrwt>
<pdfrwt beam="2">  1       -1 0.43243637E-01 0.62661806E+03</pdfrwt>
<totfact> 0.14052076E+01</totfact>
</mgrwt>
</event>
<event>
 4    1  0.2293715E-008  0.5627239E+03  0.7818608E-02  0.9985910E-01
          1   -1    0    0  501    0  0.00000000000E+00  0.00000000000E+00  0.78920247260E+03  0.78920247262E+03  0.50400000000E-02 0. -1.
         -1   -1    0    0    0  501 -0.00000000000E+00 -0.00000000000E+00 -0.44320222573E+03  0.44320222576E+03  0.50400000000E-02 0.  1.
    8880022    1    1    2    0    0  0.51556048439E+03 -0.16572230902E+03  0.36261008530E+03  0.66943575028E+03  0.15294330000E+03 0.  0.
    8880022    1    1    2    0    0 -0.51556048439E+03  0.16572230902E+03 -0.16609838428E+02  0.56296894810E+03  0.15294330000E+03 0.  0.
<mgrwt>
<rscale>  0 0.56272387E+03</rscale>
<asrwt>0</asrwt>
<pdfrwt beam="1">  1        1 0.12141576E+00 0.56272387E+03</pdfrwt>
<pdfrwt beam="2">  1       -1 0.68184958E-01 0.56272387E+03</pdfrwt>
<totfact> 0.51334384E+01</totfact>
</mgrwt>
</event>
<event>
 4    1  0.2293715E-008  0.8493420E+03  0.7818608E-02  0.9491220E-01
         -1   -1    0    0    0  501 -0.00000000000E+00  0.00000000000E+00  0.85596049154E+03  0.85596049155E+03  0.50400000000E-02 0.  1.
          1   -1    0    0  501    0  0.00000000000E+00 -0.00000000000E+00 -0.11846632924E+04  0.11846632924E+04  0.50400000000E-02 0. -1.
    8880022    1    1    2    0    0 -0.60558795964E+03 -0.57554622736E+03 -0.71247405916E+03  0.11086032540E+04  0.15294330000E+03 0.  0.
    8880022    1    1    2    0    0  0.60558795964E+03  0.57554622736E+03  0.38377125828E+03  0.93202053003E+03  0.15294330000E+03 0.  0.
<mgrwt>
<rscale>  0 0.84934203E+03</rscale>
<asrwt>0</asrwt>
<pdfrwt beam="1">  1        1 0.18225589E+00 0.84934203E+03</pdfrwt>
<pdfrwt beam="2">  1       -1 0.13168623E+00 0.84934203E+03</pdfrwt>
<totfact> 0.55033908E+00</totfact>
</mgrwt>
</event>
<event>
 4    1  0.2293715E-008  0.4242128E+03  0.7818608E-02  0.1035704E+00
          1   -1    0    0  501    0  0.00000000000E+00  0.00000000000E+00  0.13756001652E+04  0.13756001652E+04  0.50400000000E-02 0. -1.
         -1   -1    0    0    0  501 -0.00000000000E+00 -0.00000000000E+00 -0.17811727554E+03  0.17811727561E+03  0.50400000000E-02 0.  1.
    8880022    1    1    2    0    0  0.19567454549E+03 -0.34391328911E+03  0.99905966626E+03  0.10853924396E+04  0.15294330000E+03 0. -1.
    8880022    1    1    2    0    0 -0.19567454549E+03  0.34391328911E+03  0.19842322342E+03  0.46832500123E+03  0.15294330000E+03 0.  1.
<mgrwt>
<rscale>  0 0.42421284E+03</rscale>
<asrwt>0</asrwt>
<pdfrwt beam="1">  1        1 0.21163079E+00 0.42421284E+03</pdfrwt>
<pdfrwt beam="2">  1       -1 0.27402659E-01 0.42421284E+03</pdfrwt>
<totfact> 0.10141083E+02</totfact>
</mgrwt>
</event>
<event>
 4    1  0.2293715E-008  0.4756556E+03  0.7818608E-02  0.1020336E+00
         -1   -1    0    0    0  501 -0.00000000000E+00  0.00000000000E+00  0.11035823311E+04  0.11035823312E+04  0.50400000000E-02 0.  1.
          1   -1    0    0  501    0  0.00000000000E+00 -0.00000000000E+00 -0.33487749869E+03  0.33487749872E+03  0.50400000000E-02 0. -1.
    8880022    1    1    2    0    0  0.20218131439E+02 -0.44994206647E+03  0.83224166801E+03  0.95857940882E+03  0.15294330000E+03 0.  0.
    8880022    1    1    2    0    0 -0.20218131439E+02  0.44994206647E+03 -0.63536835560E+02  0.47988042105E+03  0.15294330000E+03 0.  0.
<mgrwt>
<rscale>  0 0.47565564E+03</rscale>
<asrwt>0</asrwt>
<pdfrwt beam="1">  1        1 0.51519615E-01 0.47565564E+03</pdfrwt>
<pdfrwt beam="2">  1       -1 0.16978190E+00 0.47565564E+03</pdfrwt>
<totfact> 0.19930593E+01</totfact>
</mgrwt>
</event>
<event>
 4    1  0.2293715E-008  0.3625526E+03  0.7818608E-02  0.1057578E+00
          1   -1    0    0  501    0  0.00000000000E+00  0.00000000000E+00  0.11981105140E+04  0.11981105140E+04  0.50400000000E-02 0. -1.
         -1   -1    0    0    0  501 -0.00000000000E+00 -0.00000000000E+00 -0.17749351237E+03  0.17749351244E+03  0.50400000000E-02 0.  1.
    8880022    1    1    2    0    0  0.13842409704E+03  0.29814680486E+03  0.85263368168E+02  0.37244361031E+03  0.15294330000E+03 0.  0.
    8880022    1    1    2    0    0 -0.13842409704E+03 -0.29814680486E+03  0.93535363349E+03  0.10031604162E+04  0.15294330000E+03 0.  0.
<mgrwt>
<rscale>  0 0.36255262E+03</rscale>
<asrwt>0</asrwt>
<pdfrwt beam="1">  1        1 0.18432470E+00 0.36255262E+03</pdfrwt>
<pdfrwt beam="2">  1       -1 0.27306694E-01 0.36255262E+03</pdfrwt>
<totfact> 0.13692272E+02</totfact>
</mgrwt>
</event>
<event>
 4    1  0.2293715E-008  0.2787996E+03  0.7818608E-02  0.1096346E+00
          1   -1    0    0  501    0  0.00000000000E+00  0.00000000000E+00  0.85774057639E+03  0.85774057640E+03  0.50400000000E-02 0. -1.
         -1   -1    0    0    0  501 -0.00000000000E+00 -0.00000000000E+00 -0.41767960574E+03  0.41767960578E+03  0.50400000000E-02 0.  1.
    8880022    1    1    2    0    0 -0.10594903964E+03 -0.20763515219E+03  0.78433629613E+03  0.83241373959E+03  0.15294330000E+03 0.  0.
    8880022    1    1    2    0    0  0.10594903964E+03  0.20763515219E+03 -0.34427532548E+03  0.44300644259E+03  0.15294330000E+03 0.  1.
<mgrwt>
<rscale>  0 0.27879958E+03</rscale>
<asrwt>0</asrwt>
<pdfrwt beam="1">  1        1 0.13196009E+00 0.27879958E+03</pdfrwt>
<pdfrwt beam="2">  1       -1 0.64258402E-01 0.27879958E+03</pdfrwt>
<totfact> 0.53203591E+01</totfact>
</mgrwt>
</event>
<event>
 4    1  0.2293715E-008  0.4330439E+03  0.7818608E-02  0.1032903E+00
         -1   -1    0    0    0  501 -0.00000000000E+00  0.00000000000E+00  0.19408223641E+03  0.19408223648E+03  0.50400000000E-02 0.  1.
          1   -1    0    0  501    0  0.00000000000E+00 -0.00000000000E+00 -0.13362441275E+04  0.13362441276E+04  0.50400000000E-02 0. -1.
    8880022    1    1    2    0    0  0.61333617721E+02 -0.40046670443E+03 -0.97372698750E+03  0.10656787946E+04  0.15294330000E+03 0.  0.
    8880022    1    1    2    0    0 -0.61333617721E+02  0.40046670443E+03 -0.16843490363E+03  0.46464756945E+03  0.15294330000E+03 0.  1.
<mgrwt>
<rscale>  0 0.43304393E+03</rscale>
<asrwt>0</asrwt>
<pdfrwt beam="1">  1        1 0.20557601E+00 0.43304393E+03</pdfrwt>
<pdfrwt beam="2">  1       -1 0.29858806E-01 0.43304393E+03</pdfrwt>
<totfact> 0.93035400E+01</totfact>
</mgrwt>
</event>
<event>
 4    1  0.2293715E-008  0.2952131E+03  0.7818608E-02  0.1087658E+00
         -1   -1    0    0    0  501 -0.00000000000E+00  0.00000000000E+00  0.43651593786E+03  0.43651593789E+03  0.50400000000E-02 0.  1.
          1   -1    0    0  501    0  0.00000000000E+00 -0.00000000000E+00 -0.30202757550E+03  0.30202757554E+03  0.50400000000E-02 0. -1.
    8880022    1    1    2    0    0 -0.53566588851E+02  0.24675849098E+03 -0.14774835167E+03  0.33012173625E+03  0.15294330000E+03 0.  0.
    8880022    1    1    2    0    0  0.53566588851E+02 -0.24675849098E+03  0.28223671403E+03  0.40842177718E+03  0.15294330000E+03 0.  0.
<mgrwt>
<rscale>  0 0.29521312E+03</rscale>
<asrwt>0</asrwt>
<pdfrwt beam="1">  1        1 0.46465781E-01 0.29521312E+03</pdfrwt>
<pdfrwt beam="2">  1       -1 0.67156297E-01 0.29521312E+03</pdfrwt>
<totfact> 0.20354031E+02</totfact>
</mgrwt>
</event>
<event>
 4    1  0.2293715E-008  0.2425166E+03  0.7818608E-02  0.1118128E+00
          1   -1    0    0  501    0  0.00000000000E+00  0.00000000000E+00  0.32843512170E+03  0.32843512174E+03  0.50400000000E-02 0. -1.
         -1   -1    0    0    0  501 -0.00000000000E+00 -0.00000000000E+00 -0.10977953048E+04  0.10977953048E+04  0.50400000000E-02 0.  1.
    8880022    1    1    2    0    0 -0.12921786077E+03  0.13684071541E+03 -0.10370453724E+04  0.10650245980E+04  0.15294330000E+03 0.  0.
    8880022    1    1    2    0    0  0.12921786077E+03 -0.13684071541E+03  0.26768518934E+03  0.36120582850E+03  0.15294330000E+03 0.  0.
<mgrwt>
<rscale>  0 0.24251658E+03</rscale>
<asrwt>0</asrwt>
<pdfrwt beam="1">  1        1 0.50528481E-01 0.24251658E+03</pdfrwt>
<pdfrwt beam="2">  1       -1 0.16889158E+00 0.24251658E+03</pdfrwt>
<totfact> 0.21853583E+01</totfact>
</mgrwt>
</event>
<event>
 4    1  0.2293715E-008  0.2261094E+03  0.7818608E-02  0.1129409E+00
         -1   -1    0    0    0  501 -0.00000000000E+00  0.00000000000E+00  0.11221005220E+03  0.11221005231E+03  0.50400000000E-02 0.  1.
          1   -1    0    0  501    0  0.00000000000E+00 -0.00000000000E+00 -0.11012121358E+04  0.11012121358E+04  0.50400000000E-02 0. -1.
    8880022    1    1    2    0    0  0.16072551429E+03  0.43601679857E+02 -0.29959412202E+02  0.22808554716E+03  0.15294330000E+03 0.  0.
    8880022    1    1    2    0    0 -0.16072551429E+03 -0.43601679857E+02 -0.95904267136E+03  0.98533664091E+03  0.15294330000E+03 0. -1.
<mgrwt>
<rscale>  0 0.22610938E+03</rscale>
<asrwt>0</asrwt>
<pdfrwt beam="1">  1        1 0.16941724E+00 0.22610938E+03</pdfrwt>
<pdfrwt beam="2">  1       -1 0.17263086E-01 0.22610938E+03</pdfrwt>
<totfact> 0.34943261E+02</totfact>
</mgrwt>
</event>
<event>
 4    1  0.2293715E-008  0.4805404E+03  0.7818608E-02  0.1018987E+00
          1   -1    0    0  501    0  0.00000000000E+00  0.00000000000E+00  0.50452988308E+03  0.50452988311E+03  0.50400000000E-02 0. -1.
         -1   -1    0    0    0  501 -0.00000000000E+00 -0.00000000000E+00 -0.66350885692E+03  0.66350885694E+03  0.50400000000E-02 0.  1.
    8880022    1    1    2    0    0 -0.12344417617E+02 -0.45538444385E+03  0.24578118572E+03  0.53974755267E+03  0.15294330000E+03 0.  0.
    8880022    1    1    2    0    0  0.12344417617E+02  0.45538444385E+03 -0.40476015956E+03  0.62829118737E+03  0.15294330000E+03 0.  0.
<mgrwt>
<rscale>  0 0.48054035E+03</rscale>
<asrwt>0</asrwt>
<pdfrwt beam="1">  1        1 0.77619982E-01 0.48054035E+03</pdfrwt>
<pdfrwt beam="2">  1       -1 0.10207829E+00 0.48054035E+03</pdfrwt>
<totfact> 0.41912702E+01</totfact>
</mgrwt>
</event>
<event>
 4    1  0.2293715E-008  0.3912183E+03  0.7818608E-02  0.1046864E+00
         -1   -1    0    0    0  501 -0.00000000000E+00  0.00000000000E+00  0.38342393911E+03  0.38342393915E+03  0.50400000000E-02 0.  1.
          1   -1    0    0  501    0  0.00000000000E+00 -0.00000000000E+00 -0.10800680136E+04  0.10800680136E+04  0.50400000000E-02 0. -1.
    8880022    1    1    2    0    0  0.16559756189E+03 -0.31974613482E+03 -0.92932111058E+03  0.10083102314E+04  0.15294330000E+03 0.  0.
    8880022    1    1    2    0    0 -0.16559756189E+03  0.31974613482E+03  0.23267703613E+03  0.45518172129E+03  0.15294330000E+03 0.  0.
<mgrwt>
<rscale>  0 0.39121835E+03</rscale>
<asrwt>0</asrwt>
<pdfrwt beam="1">  1        1 0.16616431E+00 0.39121835E+03</pdfrwt>
<pdfrwt beam="2">  1       -1 0.58988299E-01 0.39121835E+03</pdfrwt>
<totfact> 0.41339782E+01</totfact>
</mgrwt>
</event>
<event>
 4    1  0.2293715E-008  0.7687589E+03  0.7818608E-02  0.9606372E-01
          1   -1    0    0  501    0  0.00000000000E+00  0.00000000000E+00  0.27115630891E+04  0.27115630891E+04  0.50400000000E-02 0. -1.
         -1   -1    0    0    0  501 -0.00000000000E+00 -0.00000000000E+00 -0.51808119110E+03  0.51808119112E+03  0.50400000000E-02 0.  1.
    8880022    1    1    2    0    0 -0.27826771003E+03  0.70011837125E+03 -0.13233856361E+03  0.78006653603E+03  0.15294330000E+03 0.  1.
    8880022    1    1    2    0    0  0.27826771003E+03 -0.70011837125E+03  0.23258204616E+04  0.24495777442E+04  0.15294330000E+03 0. -1.
<mgrwt>
<rscale>  0 0.76875894E+03</rscale>
<asrwt>0</asrwt>
<pdfrwt beam="1">  1        1 0.41716354E+00 0.76875894E+03</pdfrwt>
<pdfrwt beam="2">  1       -1 0.79704801E-01 0.76875894E+03</pdfrwt>
<totfact> 0.16133531E+00</totfact>
</mgrwt>
</event>
<event>
 4    1  0.2293715E-008  0.6607476E+03  0.7818608E-02  0.9786818E-01
          1   -1    0    0  501    0  0.00000000000E+00  0.00000000000E+00  0.10414347598E+04  0.10414347599E+04  0.50400000000E-02 0. -1.
         -1   -1    0    0    0  501 -0.00000000000E+00 -0.00000000000E+00 -0.12795968288E+04  0.12795968288E+04  0.50400000000E-02 0.  1.
    8880022    1    1    2    0    0  0.61012056060E+03 -0.20235784134E+03 -0.10706921740E+04  0.12581610306E+04  0.15294330000E+03 0.  0.
    8880022    1    1    2    0    0 -0.61012056060E+03  0.20235784134E+03  0.83253010504E+03  0.10628705581E+04  0.15294330000E+03 0.  0.
<mgrwt>
<rscale>  0 0.66074764E+03</rscale>
<asrwt>0</asrwt>
<pdfrwt beam="1">  1        1 0.16022073E+00 0.66074764E+03</pdfrwt>
<pdfrwt beam="2">  1       -1 0.19686105E+00 0.66074764E+03</pdfrwt>
<totfact> 0.23580155E+00</totfact>
</mgrwt>
</event>
<event>
 4    1  0.2293715E-008  0.5011818E+03  0.7818608E-02  0.1013471E+00
         -1   -1    0    0    0  501 -0.00000000000E+00  0.00000000000E+00  0.15583062265E+04  0.15583062265E+04  0.50400000000E-02 0.  1.
          1   -1    0    0  501    0  0.00000000000E+00 -0.00000000000E+00 -0.48251025958E+03  0.48251025961E+03  0.50400000000E-02 0. -1.
    8880022    1    1    2    0    0  0.34245843590E+03 -0.33243614790E+03 -0.29480439269E+03  0.58145752701E+03  0.15294330000E+03 0.  0.
    8880022    1    1    2    0    0 -0.34245843590E+03  0.33243614790E+03  0.13706003596E+04  0.14593589591E+04  0.15294330000E+03 0.  0.
<mgrwt>
<rscale>  0 0.50118183E+03</rscale>
<asrwt>0</asrwt>
<pdfrwt beam="1">  1        1 0.74232348E-01 0.50118183E+03</pdfrwt>
<pdfrwt beam="2">  1       -1 0.23973942E+00 0.50118183E+03</pdfrwt>
<totfact> 0.41261730E+00</totfact>
</mgrwt>
</event>
<event>
 4    1  0.2293715E-008  0.2924981E+03  0.7818608E-02  0.1089052E+00
         -1   -1    0    0    0  501 -0.00000000000E+00  0.00000000000E+00  0.64142252064E+02  0.64142252262E+02  0.50400000000E-02 0.  1.
          1   -1    0    0  501    0  0.00000000000E+00 -0.00000000000E+00 -0.17651266924E+04  0.17651266924E+04  0.50400000000E-02 0. -1.
    8880022    1    1    2    0    0 -0.11792476230E+03 -0.21967526550E+03 -0.39838066069E+03  0.49422897089E+03  0.15294330000E+03 0.  0.
    8880022    1    1    2    0    0  0.11792476230E+03  0.21967526550E+03 -0.13026037796E+04  0.13350399738E+04  0.15294330000E+03 0.  0.
<mgrwt>
<rscale>  0 0.29249808E+03</rscale>
<asrwt>0</asrwt>
<pdfrwt beam="1">  1        1 0.27155792E+00 0.29249808E+03</pdfrwt>
<pdfrwt beam="2">  1       -1 0.98680401E-02 0.29249808E+03</pdfrwt>
<totfact> 0.29790005E+02</totfact>
</mgrwt>
</event>
<event>
 4    1  0.2293715E-008  0.3281592E+03  0.7818608E-02  0.1071954E+00
         -1   -1    0    0    0  501 -0.00000000000E+00  0.00000000000E+00  0.45804905277E+03  0.45804905279E+03  0.50400000000E-02 0.  1.
          1   -1    0    0  501    0  0.00000000000E+00 -0.00000000000E+00 -0.70911631820E+03  0.70911631822E+03  0.50400000000E-02 0. -1.
    8880022    1    1    2    0    0  0.59361805002E+02 -0.28420591813E+03 -0.60266630469E+03  0.68621800881E+03  0.15294330000E+03 0.  0.
    8880022    1    1    2    0    0 -0.59361805002E+02  0.28420591813E+03  0.35159903925E+03  0.48094736220E+03  0.15294330000E+03 0.  1.
<mgrwt>
<rscale>  0 0.32815923E+03</rscale>
<asrwt>0</asrwt>
<pdfrwt beam="1">  1        1 0.10909482E+00 0.32815923E+03</pdfrwt>
<pdfrwt beam="2">  1       -1 0.70469085E-01 0.32815923E+03</pdfrwt>
<totfact> 0.58648192E+01</totfact>
</mgrwt>
</event>
<event>
 4    1  0.2293715E-008  0.2572363E+03  0.7818608E-02  0.1108815E+00
          1   -1    0    0  501    0  0.00000000000E+00  0.00000000000E+00  0.14133899737E+04  0.14133899738E+04  0.50400000000E-02 0. -1.
         -1   -1    0    0    0  501 -0.00000000000E+00 -0.00000000000E+00 -0.61414363216E+02  0.61414363423E+02  0.50400000000E-02 0.  1.
    8880022    1    1    2    0    0  0.18599284843E+03  0.90473764257E+02  0.10354958191E+04  0.10669686435E+04  0.15294330000E+03 0.  0.
    8880022    1    1    2    0    0 -0.18599284843E+03 -0.90473764257E+02  0.31647979140E+03  0.40783569371E+03  0.15294330000E+03 0.  1.
<mgrwt>
<rscale>  0 0.25723626E+03</rscale>
<asrwt>0</asrwt>
<pdfrwt beam="1">  1        1 0.21744461E+00 0.25723626E+03</pdfrwt>
<pdfrwt beam="2">  1       -1 0.94483637E-02 0.25723626E+03</pdfrwt>
<totfact> 0.54644318E+02</totfact>
</mgrwt>
</event>
<event>
 4    1  0.2293715E-008  0.1195169E+04  0.7818608E-02  0.9117095E-01
         -1   -1    0    0    0  501 -0.00000000000E+00  0.00000000000E+00  0.62780991236E+03  0.62780991238E+03  0.50400000000E-02 0.  1.
          1   -1    0    0  501    0  0.00000000000E+00 -0.00000000000E+00 -0.33651107874E+04  0.33651107874E+04  0.50400000000E-02 0. -1.
    8880022    1    1    2    0    0 -0.11782169297E+04  0.12978087184E+03 -0.25048243655E+04  0.27753513224E+04  0.15294330000E+03 0.  0.
    8880022    1    1    2    0    0  0.11782169297E+04 -0.12978087184E+03 -0.23247650959E+03  0.12175693774E+04  0.15294330000E+03 0.  0.
<mgrwt>
<rscale>  0 0.11951694E+04</rscale>
<asrwt>0</asrwt>
<pdfrwt beam="1">  1        1 0.51770934E+00 0.11951694E+04</pdfrwt>
<pdfrwt beam="2">  1       -1 0.96586143E-01 0.11951694E+04</pdfrwt>
<totfact> 0.32933538E-01</totfact>
</mgrwt>
</event>
<event>
 4    1  0.2293715E-008  0.3674906E+03  0.7818608E-02  0.1055657E+00
         -1   -1    0    0    0  501 -0.00000000000E+00  0.00000000000E+00  0.45800500387E+03  0.45800500390E+03  0.50400000000E-02 0.  1.
          1   -1    0    0  501    0  0.00000000000E+00 -0.00000000000E+00 -0.25696240171E+04  0.25696240171E+04  0.50400000000E-02 0. -1.
    8880022    1    1    2    0    0  0.31319365021E+03 -0.11647913501E+03 -0.24801231721E+04  0.25072016778E+04  0.15294330000E+03 0.  0.
    8880022    1    1    2    0    0 -0.31319365021E+03  0.11647913501E+03  0.36850415887E+03  0.52042734319E+03  0.15294330000E+03 0.  0.
<mgrwt>
<rscale>  0 0.36749055E+03</rscale>
<asrwt>0</asrwt>
<pdfrwt beam="1">  1        1 0.39532676E+00 0.36749055E+03</pdfrwt>
<pdfrwt beam="2">  1       -1 0.70462310E-01 0.36749055E+03</pdfrwt>
<totfact> 0.29249068E+00</totfact>
</mgrwt>
</event>
<event>
 4    1  0.2293715E-008  0.5842380E+03  0.7818608E-02  0.9938658E-01
         -1   -1    0    0    0  501 -0.00000000000E+00  0.00000000000E+00  0.43268658168E+03  0.43268658171E+03  0.50400000000E-02 0.  1.
          1   -1    0    0  501    0  0.00000000000E+00 -0.00000000000E+00 -0.88520182706E+03  0.88520182707E+03  0.50400000000E-02 0. -1.
    8880022    1    1    2    0    0 -0.55393047119E+03  0.10537267767E+03 -0.88826769944E+01  0.58430550491E+03  0.15294330000E+03 0.  0.
    8880022    1    1    2    0    0  0.55393047119E+03 -0.10537267767E+03 -0.44363256838E+03  0.73358290387E+03  0.15294330000E+03 0.  0.
<mgrwt>
<rscale>  0 0.58423798E+03</rscale>
<asrwt>0</asrwt>
<pdfrwt beam="1">  1        1 0.13618490E+00 0.58423798E+03</pdfrwt>
<pdfrwt beam="2">  1       -1 0.66567166E-01 0.58423798E+03</pdfrwt>
<totfact> 0.44642042E+01</totfact>
</mgrwt>
</event>
<event>
 4    1  0.2293715E-008  0.4985855E+03  0.7818608E-02  0.1014149E+00
          1   -1    0    0  501    0  0.00000000000E+00  0.00000000000E+00  0.63648359955E+03  0.63648359957E+03  0.50400000000E-02 0. -1.
         -1   -1    0    0    0  501 -0.00000000000E+00 -0.00000000000E+00 -0.85776648152E+03  0.85776648154E+03  0.50400000000E-02 0.  1.
    8880022    1    1    2    0    0 -0.41072199017E+03  0.23770414119E+03  0.44075176611E+03  0.66546944655E+03  0.15294330000E+03 0.  0.
    8880022    1    1    2    0    0  0.41072199017E+03 -0.23770414119E+03 -0.66203464808E+03  0.82878063456E+03  0.15294330000E+03 0.  1.
<mgrwt>
<rscale>  0 0.49858546E+03</rscale>
<asrwt>0</asrwt>
<pdfrwt beam="1">  1        1 0.97920554E-01 0.49858546E+03</pdfrwt>
<pdfrwt beam="2">  1       -1 0.13196407E+00 0.49858546E+03</pdfrwt>
<totfact> 0.16343955E+01</totfact>
</mgrwt>
</event>
<event>
 4    1  0.2293715E-008  0.3290118E+03  0.7818608E-02  0.1071575E+00
          1   -1    0    0  501    0  0.00000000000E+00  0.00000000000E+00  0.15556107733E+04  0.15556107733E+04  0.50400000000E-02 0. -1.
         -1   -1    0    0    0  501 -0.00000000000E+00 -0.00000000000E+00 -0.84690566424E+02  0.84690566574E+02  0.50400000000E-02 0.  1.
    8880022    1    1    2    0    0  0.43761571123E+02  0.28799659866E+03  0.10818218410E+04  0.11307463308E+04  0.15294330000E+03 0. -1.
    8880022    1    1    2    0    0 -0.43761571123E+02 -0.28799659866E+03  0.38909836593E+03  0.50955500913E+03  0.15294330000E+03 0.  0.
<mgrwt>
<rscale>  0 0.32901181E+03</rscale>
<asrwt>0</asrwt>
<pdfrwt beam="1">  1        1 0.23932471E+00 0.32901181E+03</pdfrwt>
<pdfrwt beam="2">  1       -1 0.13029319E-01 0.32901181E+03</pdfrwt>
<totfact> 0.26309912E+02</totfact>
</mgrwt>
</event>
<event>
 4    1  0.2293715E-008  0.5371055E+03  0.7818608E-02  0.1004523E+00
          1   -1    0    0  501    0  0.00000000000E+00  0.00000000000E+00  0.18193811023E+04  0.18193811023E+04  0.50400000000E-02 0. -1.
         -1   -1    0    0    0  501 -0.00000000000E+00 -0.00000000000E+00 -0.15898463215E+03  0.15898463223E+03  0.50400000000E-02 0.  1.
    8880022    1    1    2    0    0 -0.46799431652E+03 -0.21464391594E+03  0.77911876054E+03  0.94631304914E+03  0.15294330000E+03 0.  0.
    8880022    1    1    2    0    0  0.46799431652E+03  0.21464391594E+03  0.88127770957E+03  0.10320526854E+04  0.15294330000E+03 0.  0.
<mgrwt>
<rscale>  0 0.53710552E+03</rscale>
<asrwt>0</asrwt>
<pdfrwt beam="1">  1        1 0.27990478E+00 0.53710552E+03</pdfrwt>
<pdfrwt beam="2">  1       -1 0.24459175E-01 0.53710552E+03</pdfrwt>
<totfact> 0.60854137E+01</totfact>
</mgrwt>
</event>
<event>
 4    1  0.2293715E-008  0.7202533E+03  0.7818608E-02  0.9683210E-01
          1   -1    0    0  501    0  0.00000000000E+00  0.00000000000E+00  0.28458209210E+04  0.28458209210E+04  0.50400000000E-02 0. -1.
         -1   -1    0    0    0  501 -0.00000000000E+00 -0.00000000000E+00 -0.84853886914E+03  0.84853886916E+03  0.50400000000E-02 0.  1.
    8880022    1    1    2    0    0  0.19311069566E+03 -0.67681709263E+03 -0.63814367276E+03  0.96228484232E+03  0.15294330000E+03 0.  0.
    8880022    1    1    2    0    0 -0.19311069566E+03  0.67681709263E+03  0.26354257246E+04  0.27320749478E+04  0.15294330000E+03 0.  0.
<mgrwt>
<rscale>  0 0.72025327E+03</rscale>
<asrwt>0</asrwt>
<pdfrwt beam="1">  1        1 0.43781860E+00 0.72025327E+03</pdfrwt>
<pdfrwt beam="2">  1       -1 0.13054444E+00 0.72025327E+03</pdfrwt>
<totfact> 0.42182938E-01</totfact>
</mgrwt>
</event>
<event>
 4    1  0.2293715E-008  0.5519898E+03  0.7818608E-02  0.1001034E+00
         -1   -1    0    0    0  501 -0.00000000000E+00  0.00000000000E+00  0.29167300881E+03  0.29167300886E+03  0.50400000000E-02 0.  1.
          1   -1    0    0  501    0  0.00000000000E+00 -0.00000000000E+00 -0.18032109711E+04  0.18032109712E+04  0.50400000000E-02 0. -1.
    8880022    1    1    2    0    0 -0.17777738287E+03 -0.49969619572E+03 -0.14351374117E+04  0.15376319876E+04  0.15294330000E+03 0.  0.
    8880022    1    1    2    0    0  0.17777738287E+03  0.49969619572E+03 -0.76400550640E+02  0.55725199240E+03  0.15294330000E+03 0.  0.
<mgrwt>
<rscale>  0 0.55198980E+03</rscale>
<asrwt>0</asrwt>
<pdfrwt beam="1">  1        1 0.27741706E+00 0.55198980E+03</pdfrwt>
<pdfrwt beam="2">  1       -1 0.44872772E-01 0.55198980E+03</pdfrwt>
<totfact> 0.21382731E+01</totfact>
</mgrwt>
</event>
<event>
 4    1  0.2293715E-008  0.2520455E+03  0.7818608E-02  0.1112019E+00
          1   -1    0    0  501    0  0.00000000000E+00  0.00000000000E+00  0.13831650813E+04  0.13831650813E+04  0.50400000000E-02 0. -1.
         -1   -1    0    0    0  501 -0.00000000000E+00 -0.00000000000E+00 -0.63426140582E+02  0.63426140782E+02  0.50400000000E-02 0.  1.
    8880022    1    1    2    0    0  0.18870563050E+03 -0.67271710438E+02  0.27996958862E+03  0.37670933301E+03  0.15294330000E+03 0.  0.
    8880022    1    1    2    0    0 -0.18870563050E+03  0.67271710438E+02  0.10397693521E+04  0.10698818891E+04  0.15294330000E+03 0. -1.
<mgrwt>
<rscale>  0 0.25204553E+03</rscale>
<asrwt>0</asrwt>
<pdfrwt beam="1">  1        1 0.21279463E+00 0.25204553E+03</pdfrwt>
<pdfrwt beam="2">  1       -1 0.97578679E-02 0.25204553E+03</pdfrwt>
<totfact> 0.54509273E+02</totfact>
</mgrwt>
</event>
<event>
 4    1  0.2293715E-008  0.3983627E+03  0.7818608E-02  0.1044348E+00
          1   -1    0    0  501    0  0.00000000000E+00  0.00000000000E+00  0.82175354410E+03  0.82175354411E+03  0.50400000000E-02 0. -1.
         -1   -1    0    0    0  501 -0.00000000000E+00 -0.00000000000E+00 -0.23937093796E+03  0.23937093801E+03  0.50400000000E-02 0.  1.
    8880022    1    1    2    0    0 -0.14932796202E+03 -0.33615821796E+03  0.52442157384E+03  0.65856725387E+03  0.15294330000E+03 0.  0.
    8880022    1    1    2    0    0  0.14932796202E+03  0.33615821796E+03  0.57961032301E+02  0.40255722826E+03  0.15294330000E+03 0.  0.
<mgrwt>
<rscale>  0 0.39836270E+03</rscale>
<asrwt>0</asrwt>
<pdfrwt beam="1">  1        1 0.12642362E+00 0.39836270E+03</pdfrwt>
<pdfrwt beam="2">  1       -1 0.36826298E-01 0.39836270E+03</pdfrwt>
<totfact> 0.15692827E+02</totfact>
</mgrwt>
</event>
<event>
 4    1  0.2293715E-008  0.5247495E+03  0.7818608E-02  0.1007513E+00
          1   -1    0    0  501    0  0.00000000000E+00  0.00000000000E+00  0.31559005923E+03  0.31559005927E+03  0.50400000000E-02 0. -1.
         -1   -1    0    0    0  501 -0.00000000000E+00 -0.00000000000E+00 -0.10835335036E+04  0.10835335036E+04  0.50400000000E-02 0.  1.
    8880022    1    1    2    0    0 -0.21202031560E+03  0.45499203674E+03 -0.75262930431E+02  0.53011935395E+03  0.15294330000E+03 0.  0.
    8880022    1    1    2    0    0  0.21202031560E+03 -0.45499203674E+03 -0.69268051394E+03  0.86900420892E+03  0.15294330000E+03 0.  0.
<mgrwt>
<rscale>  0 0.52474948E+03</rscale>
<asrwt>0</asrwt>
<pdfrwt beam="1">  1        1 0.48552317E-01 0.52474948E+03</pdfrwt>
<pdfrwt beam="2">  1       -1 0.16669746E+00 0.52474948E+03</pdfrwt>
<totfact> 0.22488237E+01</totfact>
</mgrwt>
</event>
<event>
 4    1  0.2293715E-008  0.3616634E+03  0.7818608E-02  0.1057927E+00
         -1   -1    0    0    0  501 -0.00000000000E+00  0.00000000000E+00  0.39112584066E+03  0.39112584069E+03  0.50400000000E-02 0.  1.
          1   -1    0    0  501    0  0.00000000000E+00 -0.00000000000E+00 -0.19190590446E+04  0.19190590446E+04  0.50400000000E-02 0. -1.
    8880022    1    1    2    0    0  0.26808244045E+03 -0.18852205181E+03  0.28566696824E+03  0.46087528536E+03  0.15294330000E+03 0.  0.
    8880022    1    1    2    0    0 -0.26808244045E+03  0.18852205181E+03 -0.18136001721E+04  0.18493095999E+04  0.15294330000E+03 0.  0.
<mgrwt>
<rscale>  0 0.36166340E+03</rscale>
<asrwt>0</asrwt>
<pdfrwt beam="1">  1        1 0.29523985E+00 0.36166340E+03</pdfrwt>
<pdfrwt beam="2">  1       -1 0.60173207E-01 0.36166340E+03</pdfrwt>
<totfact> 0.10799597E+01</totfact>
</mgrwt>
</event>
<event>
 4    1  0.2293715E-008  0.1166904E+04  0.7818608E-02  0.9142329E-01
          1   -1    0    0  501    0  0.00000000000E+00  0.00000000000E+00  0.30033551498E+04  0.30033551498E+04  0.50400000000E-02 0. -1.
         -1   -1    0    0    0  501 -0.00000000000E+00 -0.00000000000E+00 -0.50427800555E+03  0.50427800558E+03  0.50400000000E-02 0.  1.
    8880022    1    1    2    0    0  0.80082004252E+03  0.83484175462E+03  0.18067164574E+04  0.21507881129E+04  0.15294330000E+03 0.  0.
    8880022    1    1    2    0    0 -0.80082004252E+03 -0.83484175462E+03  0.69236068679E+03  0.13568450425E+04  0.15294330000E+03 0.  0.
<mgrwt>
<rscale>  0 0.11669041E+04</rscale>
<asrwt>0</asrwt>
<pdfrwt beam="1">  1        1 0.46205463E+00 0.11669041E+04</pdfrwt>
<pdfrwt beam="2">  1       -1 0.77581233E-01 0.11669041E+04</pdfrwt>
<totfact> 0.99238919E-01</totfact>
</mgrwt>
</event>
<event>
 4    1  0.2293715E-008  0.2660950E+03  0.7818608E-02  0.1103536E+00
          1   -1    0    0  501    0  0.00000000000E+00  0.00000000000E+00  0.11817214584E+04  0.11817214584E+04  0.50400000000E-02 0. -1.
         -1   -1    0    0    0  501 -0.00000000000E+00 -0.00000000000E+00 -0.26798819056E+03  0.26798819061E+03  0.50400000000E-02 0.  1.
    8880022    1    1    2    0    0 -0.82123350345E+02  0.20166971208E+03 -0.18183492404E+03  0.32228948177E+03  0.15294330000E+03 0.  0.
    8880022    1    1    2    0    0  0.82123350345E+02 -0.20166971208E+03  0.10955681918E+04  0.11274201672E+04  0.15294330000E+03 0.  0.
<mgrwt>
<rscale>  0 0.26609504E+03</rscale>
<asrwt>0</asrwt>
<pdfrwt beam="1">  1        1 0.18180330E+00 0.26609504E+03</pdfrwt>
<pdfrwt beam="2">  1       -1 0.41228953E-01 0.26609504E+03</pdfrwt>
<totfact> 0.70035525E+01</totfact>
</mgrwt>
</event>
<event>
 4    1  0.2293715E-008  0.4496621E+03  0.7818608E-02  0.1027823E+00
         -1   -1    0    0    0  501 -0.00000000000E+00  0.00000000000E+00  0.26109251184E+03  0.26109251189E+03  0.50400000000E-02 0.  1.
          1   -1    0    0  501    0  0.00000000000E+00 -0.00000000000E+00 -0.10877753168E+04  0.10877753168E+04  0.50400000000E-02 0. -1.
    8880022    1    1    2    0    0  0.39673254147E+03  0.14631337395E+03 -0.77532298099E+03  0.89628214906E+03  0.15294330000E+03 0.  0.
    8880022    1    1    2    0    0 -0.39673254147E+03 -0.14631337395E+03 -0.51359823929E+02  0.45258567961E+03  0.15294330000E+03 0.  0.
<mgrwt>
<rscale>  0 0.44966206E+03</rscale>
<asrwt>0</asrwt>
<pdfrwt beam="1">  1        1 0.16735005E+00 0.44966206E+03</pdfrwt>
<pdfrwt beam="2">  1       -1 0.40168079E-01 0.44966206E+03</pdfrwt>
<totfact> 0.82706577E+01</totfact>
</mgrwt>
</event>
<event>
 4    1  0.2293715E-008  0.2681146E+03  0.7818608E-02  0.1102364E+00
         -1   -1    0    0    0  501 -0.00000000000E+00  0.00000000000E+00  0.35653190427E+03  0.35653190430E+03  0.50400000000E-02 0.  1.
          1   -1    0    0  501    0  0.00000000000E+00 -0.00000000000E+00 -0.79597773213E+03  0.79597773215E+03  0.50400000000E-02 0. -1.
    8880022    1    1    2    0    0 -0.22007401655E+03 -0.78241268928E+01  0.27822802106E+03  0.38638876076E+03  0.15294330000E+03 0.  0.
    8880022    1    1    2    0    0  0.22007401655E+03  0.78241268928E+01 -0.71767384893E+03  0.76612087569E+03  0.15294330000E+03 0. -1.
<mgrwt>
<rscale>  0 0.26811461E+03</rscale>
<asrwt>0</asrwt>
<pdfrwt beam="1">  1        1 0.12245811E+00 0.26811461E+03</pdfrwt>
<pdfrwt beam="2">  1       -1 0.54851062E-01 0.26811461E+03</pdfrwt>
<totfact> 0.81357926E+01</totfact>
</mgrwt>
</event>
<event>
 4    1  0.2293715E-008  0.1195627E+04  0.7818608E-02  0.9116693E-01
          1   -1    0    0  501    0  0.00000000000E+00  0.00000000000E+00  0.19433813209E+04  0.19433813210E+04  0.50400000000E-02 0. -1.
         -1   -1    0    0    0  501 -0.00000000000E+00 -0.00000000000E+00 -0.14781600211E+04  0.14781600211E+04  0.50400000000E-02 0.  1.
    8880022    1    1    2    0    0  0.63072129932E+03 -0.10041527437E+04  0.14451643983E+04  0.18756395925E+04  0.15294330000E+03 0.  0.
    8880022    1    1    2    0    0 -0.63072129932E+03  0.10041527437E+04 -0.97994309838E+03  0.15459017495E+04  0.15294330000E+03 0.  1.
<mgrwt>
<rscale>  0 0.11956269E+04</rscale>
<asrwt>0</asrwt>
<pdfrwt beam="1">  1        1 0.29898174E+00 0.11956269E+04</pdfrwt>
<pdfrwt beam="2">  1       -1 0.22740923E+00 0.11956269E+04</pdfrwt>
<totfact> 0.31409457E-01</totfact>
</mgrwt>
</event>
<event>
 4    1  0.2293715E-008  0.1128352E+04  0.7818608E-02  0.9177991E-01
         -1   -1    0    0    0  501 -0.00000000000E+00  0.00000000000E+00  0.94752385624E+03  0.94752385626E+03  0.50400000000E-02 0.  1.
          1   -1    0    0  501    0  0.00000000000E+00 -0.00000000000E+00 -0.20819552266E+04  0.20819552266E+04  0.50400000000E-02 0. -1.
    8880022    1    1    2    0    0  0.65625071698E+03 -0.90505314403E+03  0.33478865116E+03  0.11769712363E+04  0.15294330000E+03 0.  0.
    8880022    1    1    2    0    0 -0.65625071698E+03  0.90505314403E+03 -0.14692200215E+04  0.18525078466E+04  0.15294330000E+03 0.  0.
<mgrwt>
<rscale>  0 0.11283518E+04</rscale>
<asrwt>0</asrwt>
<pdfrwt beam="1">  1        1 0.32030080E+00 0.11283518E+04</pdfrwt>
<pdfrwt beam="2">  1       -1 0.14577290E+00 0.11283518E+04</pdfrwt>
<totfact> 0.98073121E-01</totfact>
</mgrwt>
</event>
<event>
 4    1  0.2293715E-008  0.8430420E+03  0.7818608E-02  0.9499724E-01
          1   -1    0    0  501    0  0.00000000000E+00  0.00000000000E+00  0.24991607631E+04  0.24991607631E+04  0.50400000000E-02 0. -1.
         -1   -1    0    0    0  501 -0.00000000000E+00 -0.00000000000E+00 -0.54178405575E+03  0.54178405577E+03  0.50400000000E-02 0.  1.
    8880022    1    1    2    0    0  0.23323513654E+03  0.79556873055E+03  0.20267099709E+04  0.21950565353E+04  0.15294330000E+03 0.  0.
    8880022    1    1    2    0    0 -0.23323513654E+03 -0.79556873055E+03 -0.69333263506E+02  0.84588828364E+03  0.15294330000E+03 0.  0.
<mgrwt>
<rscale>  0 0.84304204E+03</rscale>
<asrwt>0</asrwt>
<pdfrwt beam="1">  1        1 0.38448627E+00 0.84304204E+03</pdfrwt>
<pdfrwt beam="2">  1       -1 0.83351393E-01 0.84304204E+03</pdfrwt>
<totfact> 0.20252696E+00</totfact>
</mgrwt>
</event>
<event>
 4    1  0.2293715E-008  0.3276922E+03  0.7818608E-02  0.1072163E+00
         -1   -1    0    0    0  501 -0.00000000000E+00  0.00000000000E+00  0.24193204902E+03  0.24193204907E+03  0.50400000000E-02 0.  1.
          1   -1    0    0  501    0  0.00000000000E+00 -0.00000000000E+00 -0.16490652779E+04  0.16490652779E+04  0.50400000000E-02 0. -1.
    8880022    1    1    2    0    0  0.12115955038E+03  0.26326961572E+03 -0.15118689486E+04  0.15469744336E+04  0.15294330000E+03 0.  0.
    8880022    1    1    2    0    0 -0.12115955038E+03 -0.26326961572E+03  0.10473571973E+03  0.34402289345E+03  0.15294330000E+03 0.  0.
<mgrwt>
<rscale>  0 0.32769220E+03</rscale>
<asrwt>0</asrwt>
<pdfrwt beam="1">  1        1 0.25370234E+00 0.32769220E+03</pdfrwt>
<pdfrwt beam="2">  1       -1 0.37220316E-01 0.32769220E+03</pdfrwt>
<totfact> 0.39892860E+01</totfact>
</mgrwt>
</event>
<event>
 4    1  0.2293715E-008  0.4914147E+03  0.7818608E-02  0.1016044E+00
         -1   -1    0    0    0  501 -0.00000000000E+00  0.00000000000E+00  0.79762055592E+03  0.79762055594E+03  0.50400000000E-02 0.  1.
          1   -1    0    0  501    0  0.00000000000E+00 -0.00000000000E+00 -0.34669787948E+03  0.34669787952E+03  0.50400000000E-02 0. -1.
    8880022    1    1    2    0    0 -0.37788015668E+03  0.27441461617E+03  0.42914472116E+03  0.65242136621E+03  0.15294330000E+03 0.  0.
    8880022    1    1    2    0    0  0.37788015668E+03 -0.27441461617E+03  0.21777955282E+02  0.49189706924E+03  0.15294330000E+03 0.  0.
<mgrwt>
<rscale>  0 0.49141474E+03</rscale>
<asrwt>0</asrwt>
<pdfrwt beam="1">  1        1 0.53338136E-01 0.49141474E+03</pdfrwt>
<pdfrwt beam="2">  1       -1 0.12271085E+00 0.49141474E+03</pdfrwt>
<totfact> 0.44544215E+01</totfact>
</mgrwt>
</event>
<event>
 4    1  0.2293715E-008  0.4960318E+03  0.7818608E-02  0.1014820E+00
         -1   -1    0    0    0  501 -0.00000000000E+00  0.00000000000E+00  0.26219772470E+03  0.26219772475E+03  0.50400000000E-02 0.  1.
          1   -1    0    0  501    0  0.00000000000E+00 -0.00000000000E+00 -0.17841665436E+04  0.17841665436E+04  0.50400000000E-02 0. -1.
    8880022    1    1    2    0    0  0.21810020861E+03  0.41843544713E+03 -0.14654492077E+04  0.15471227999E+04  0.15294330000E+03 0.  0.
    8880022    1    1    2    0    0 -0.21810020861E+03 -0.41843544713E+03 -0.56519611189E+02  0.49924146851E+03  0.15294330000E+03 0.  0.
<mgrwt>
<rscale>  0 0.49603183E+03</rscale>
<asrwt>0</asrwt>
<pdfrwt beam="1">  1        1 0.27448715E+00 0.49603183E+03</pdfrwt>
<pdfrwt beam="2">  1       -1 0.40338113E-01 0.49603183E+03</pdfrwt>
<totfact> 0.27032675E+01</totfact>
</mgrwt>
</event>
<event>
 4    1  0.2293715E-008  0.7139790E+03  0.7818608E-02  0.9693621E-01
         -1   -1    0    0    0  501 -0.00000000000E+00  0.00000000000E+00  0.49560052905E+03  0.49560052908E+03  0.50400000000E-02 0.  1.
          1   -1    0    0  501    0  0.00000000000E+00 -0.00000000000E+00 -0.21716257205E+04  0.21716257205E+04  0.50400000000E-02 0. -1.
    8880022    1    1    2    0    0 -0.21947266394E+02 -0.69705998176E+03 -0.18055521495E+04  0.19415932937E+04  0.15294330000E+03 0. -1.
    8880022    1    1    2    0    0  0.21947266394E+02  0.69705998176E+03  0.12952695809E+03  0.72563295581E+03  0.15294330000E+03 0.  0.
<mgrwt>
<rscale>  0 0.71397896E+03</rscale>
<asrwt>0</asrwt>
<pdfrwt beam="1">  1        1 0.33409626E+00 0.71397896E+03</pdfrwt>
<pdfrwt beam="2">  1       -1 0.76246236E-01 0.71397896E+03</pdfrwt>
<totfact> 0.41737525E+00</totfact>
</mgrwt>
</event>
<event>
 4    1  0.2293715E-008  0.3449481E+03  0.7818608E-02  0.1064708E+00
          1   -1    0    0  501    0  0.00000000000E+00  0.00000000000E+00  0.25405632503E+04  0.25405632503E+04  0.50400000000E-02 0. -1.
         -1   -1    0    0    0  501 -0.00000000000E+00 -0.00000000000E+00 -0.41624942533E+03  0.41624942536E+03  0.50400000000E-02 0.  1.
    8880022    1    1    2    0    0 -0.17327231646E+03 -0.25607465492E+03  0.24549079102E+04  0.24790244100E+04  0.15294330000E+03 0.  0.
    8880022    1    1    2    0    0  0.17327231646E+03  0.25607465492E+03 -0.33059408530E+03  0.47778826565E+03  0.15294330000E+03 0.  0.
<mgrwt>
<rscale>  0 0.34494808E+03</rscale>
<asrwt>0</asrwt>
<pdfrwt beam="1">  1        1 0.39085587E+00 0.34494808E+03</pdfrwt>
<pdfrwt beam="2">  1       -1 0.64038375E-01 0.34494808E+03</pdfrwt>
<totfact> 0.37387159E+00</totfact>
</mgrwt>
</event>
<event>
 4    1  0.2293715E-008  0.1020198E+04  0.7818608E-02  0.9286665E-01
          1   -1    0    0  501    0  0.00000000000E+00  0.00000000000E+00  0.11930340959E+04  0.11930340959E+04  0.50400000000E-02 0. -1.
         -1   -1    0    0    0  501 -0.00000000000E+00 -0.00000000000E+00 -0.11313847905E+04  0.11313847905E+04  0.50400000000E-02 0.  1.
    8880022    1    1    2    0    0  0.46376478014E+03 -0.89573104759E+03  0.58687734514E+03  0.11769573281E+04  0.15294330000E+03 0.  0.
    8880022    1    1    2    0    0 -0.46376478014E+03  0.89573104759E+03 -0.52522803977E+03  0.11474615583E+04  0.15294330000E+03 0.  0.
<mgrwt>
<rscale>  0 0.10201978E+04</rscale>
<asrwt>0</asrwt>
<pdfrwt beam="1">  1        1 0.18354371E+00 0.10201978E+04</pdfrwt>
<pdfrwt beam="2">  1       -1 0.17405920E+00 0.10201978E+04</pdfrwt>
<totfact> 0.24876849E+00</totfact>
</mgrwt>
</event>
<event>
 4    1  0.2293715E-008  0.5342882E+03  0.7818608E-02  0.1005197E+00
         -1   -1    0    0    0  501 -0.00000000000E+00  0.00000000000E+00  0.13288102684E+04  0.13288102684E+04  0.50400000000E-02 0.  1.
          1   -1    0    0  501    0  0.00000000000E+00 -0.00000000000E+00 -0.98830047079E+03  0.98830047080E+03  0.50400000000E-02 0. -1.
    8880022    1    1    2    0    0 -0.44780381499E+03 -0.24808048959E+03 -0.85467722907E+03  0.10079370044E+04  0.15294330000E+03 0.  0.
    8880022    1    1    2    0    0  0.44780381499E+03  0.24808048959E+03  0.11951870267E+04  0.13091737348E+04  0.15294330000E+03 0.  0.
<mgrwt>
<rscale>  0 0.53428816E+03</rscale>
<asrwt>0</asrwt>
<pdfrwt beam="1">  1        1 0.15204623E+00 0.53428816E+03</pdfrwt>
<pdfrwt beam="2">  1       -1 0.20443235E+00 0.53428816E+03</pdfrwt>
<totfact> 0.23664891E+00</totfact>
</mgrwt>
</event>
<event>
 4    1  0.2293715E-008  0.2596338E+03  0.7818608E-02  0.1107363E+00
          1   -1    0    0  501    0  0.00000000000E+00  0.00000000000E+00  0.20425826316E+03  0.20425826322E+03  0.50400000000E-02 0. -1.
         -1   -1    0    0    0  501 -0.00000000000E+00 -0.00000000000E+00 -0.50028860030E+03  0.50028860033E+03  0.50400000000E-02 0.  1.
    8880022    1    1    2    0    0  0.18171869371E+03 -0.10486359801E+03  0.57495503510E+02  0.26592375556E+03  0.15294330000E+03 0.  0.
    8880022    1    1    2    0    0 -0.18171869371E+03  0.10486359801E+03 -0.35352584066E+03  0.43862310799E+03  0.15294330000E+03 0.  1.
<mgrwt>
<rscale>  0 0.25963380E+03</rscale>
<asrwt>0</asrwt>
<pdfrwt beam="1">  1        1 0.31424348E-01 0.25963380E+03</pdfrwt>
<pdfrwt beam="2">  1       -1 0.76967477E-01 0.25963380E+03</pdfrwt>
<totfact> 0.25410226E+02</totfact>
</mgrwt>
</event>
<event>
 4    1  0.2293715E-008  0.4686282E+03  0.7818608E-02  0.1022308E+00
         -1   -1    0    0    0  501 -0.00000000000E+00  0.00000000000E+00  0.21181612214E+04  0.21181612214E+04  0.50400000000E-02 0.  1.
          1   -1    0    0  501    0  0.00000000000E+00 -0.00000000000E+00 -0.50480428781E+03  0.50480428784E+03  0.50400000000E-02 0. -1.
    8880022    1    1    2    0    0 -0.32279449608E+03 -0.30335536777E+03 -0.36239060741E+03  0.59240135990E+03  0.15294330000E+03 0. -1.
    8880022    1    1    2    0    0  0.32279449608E+03  0.30335536777E+03  0.19757475410E+04  0.20305641493E+04  0.15294330000E+03 0.  0.
<mgrwt>
<rscale>  0 0.46862823E+03</rscale>
<asrwt>0</asrwt>
<pdfrwt beam="1">  1        1 0.77662201E-01 0.46862823E+03</pdfrwt>
<pdfrwt beam="2">  1       -1 0.32587095E+00 0.46862823E+03</pdfrwt>
<totfact> 0.11098757E+00</totfact>
</mgrwt>
</event>
<event>
 4    1  0.2293715E-008  0.2711845E+03  0.7818608E-02  0.1100604E+00
         -1   -1    0    0    0  501 -0.00000000000E+00  0.00000000000E+00  0.31681506387E+03  0.31681506391E+03  0.50400000000E-02 0.  1.
          1   -1    0    0  501    0  0.00000000000E+00 -0.00000000000E+00 -0.22295978479E+04  0.22295978479E+04  0.50400000000E-02 0. -1.
    8880022    1    1    2    0    0  0.21439896824E+03  0.64671886452E+02  0.24871639846E+03  0.36796857252E+03  0.15294330000E+03 0.  0.
    8880022    1    1    2    0    0 -0.21439896824E+03 -0.64671886452E+02 -0.21614991825E+04  0.21784443393E+04  0.15294330000E+03 0.  0.
<mgrwt>
<rscale>  0 0.27118448E+03</rscale>
<asrwt>0</asrwt>
<pdfrwt beam="1">  1        1 0.34301504E+00 0.27118448E+03</pdfrwt>
<pdfrwt beam="2">  1       -1 0.48740780E-01 0.27118448E+03</pdfrwt>
<totfact> 0.10455672E+01</totfact>
</mgrwt>
</event>
<event>
 4    1  0.2293715E-008  0.4762527E+03  0.7818608E-02  0.1020170E+00
         -1   -1    0    0    0  501 -0.00000000000E+00  0.00000000000E+00  0.19655959543E+03  0.19655959549E+03  0.50400000000E-02 0.  1.
          1   -1    0    0  501    0  0.00000000000E+00 -0.00000000000E+00 -0.16641821772E+04  0.16641821772E+04  0.50400000000E-02 0. -1.
    8880022    1    1    2    0    0  0.16062955148E+03 -0.42145361295E+03 -0.12489767382E+04  0.13366972530E+04  0.15294330000E+03 0.  0.
    8880022    1    1    2    0    0 -0.16062955148E+03  0.42145361295E+03 -0.21864584359E+03  0.52404451968E+03  0.15294330000E+03 0.  0.
<mgrwt>
<rscale>  0 0.47625272E+03</rscale>
<asrwt>0</asrwt>
<pdfrwt beam="1">  1        1 0.25602802E+00 0.47625272E+03</pdfrwt>
<pdfrwt beam="2">  1       -1 0.30239939E-01 0.47625272E+03</pdfrwt>
<totfact> 0.54235348E+01</totfact>
</mgrwt>
</event>
<event>
 4    1  0.2293715E-008  0.3606696E+03  0.7818608E-02  0.1058319E+00
          1   -1    0    0  501    0  0.00000000000E+00  0.00000000000E+00  0.19896584753E+04  0.19896584753E+04  0.50400000000E-02 0. -1.
         -1   -1    0    0    0  501 -0.00000000000E+00 -0.00000000000E+00 -0.70486419902E+02  0.70486420082E+02  0.50400000000E-02 0.  1.
    8880022    1    1    2    0    0 -0.20490465184E+02 -0.32599235295E+03  0.12368554959E+04  0.12883687532E+04  0.15294330000E+03 0.  0.
    8880022    1    1    2    0    0  0.20490465184E+02  0.32599235295E+03  0.68231655947E+03  0.77177614221E+03  0.15294330000E+03 0. -1.
<mgrwt>
<rscale>  0 0.36066955E+03</rscale>
<asrwt>0</asrwt>
<pdfrwt beam="1">  1        1 0.30610127E+00 0.36066955E+03</pdfrwt>
<pdfrwt beam="2">  1       -1 0.10844066E-01 0.36066955E+03</pdfrwt>
<totfact> 0.18121981E+02</totfact>
</mgrwt>
</event>
<event>
 4    1  0.2293715E-008  0.3375161E+03  0.7818608E-02  0.1067859E+00
         -1   -1    0    0    0  501 -0.00000000000E+00  0.00000000000E+00  0.11972719573E+03  0.11972719584E+03  0.50400000000E-02 0.  1.
          1   -1    0    0  501    0  0.00000000000E+00 -0.00000000000E+00 -0.14005312862E+04  0.14005312862E+04  0.50400000000E-02 0. -1.
    8880022    1    1    2    0    0  0.16925134874E+03 -0.24875575774E+03 -0.10708223725E+04  0.11227544935E+04  0.15294330000E+03 0.  0.
    8880022    1    1    2    0    0 -0.16925134874E+03  0.24875575774E+03 -0.20998171793E+03  0.39750398859E+03  0.15294330000E+03 0.  1.
<mgrwt>
<rscale>  0 0.33751607E+03</rscale>
<asrwt>0</asrwt>
<pdfrwt beam="1">  1        1 0.21546634E+00 0.33751607E+03</pdfrwt>
<pdfrwt beam="2">  1       -1 0.18419570E-01 0.33751607E+03</pdfrwt>
<totfact> 0.19151741E+02</totfact>
</mgrwt>
</event>
<event>
 4    1  0.2293715E-008  0.8930548E+03  0.7818608E-02  0.9434305E-01
         -1   -1    0    0    0  501 -0.00000000000E+00  0.00000000000E+00  0.60508930488E+03  0.60508930490E+03  0.50400000000E-02 0.  1.
          1   -1    0    0  501    0  0.00000000000E+00 -0.00000000000E+00 -0.19782376759E+04  0.19782376759E+04  0.50400000000E-02 0. -1.
    8880022    1    1    2    0    0  0.45825631339E+03  0.75110338838E+03 -0.14327463587E+04  0.16882857963E+04  0.15294330000E+03 0.  0.
    8880022    1    1    2    0    0 -0.45825631339E+03 -0.75110338838E+03  0.59597987633E+02  0.89504118450E+03  0.15294330000E+03 0.  0.
<mgrwt>
<rscale>  0 0.89305476E+03</rscale>
<asrwt>0</asrwt>
<pdfrwt beam="1">  1        1 0.30434425E+00 0.89305476E+03</pdfrwt>
<pdfrwt beam="2">  1       -1 0.93090663E-01 0.89305476E+03</pdfrwt>
<totfact> 0.35463701E+00</totfact>
</mgrwt>
</event>
<event>
 4    1  0.2293715E-008  0.2531686E+03  0.7818608E-02  0.1111319E+00
         -1   -1    0    0    0  501 -0.00000000000E+00  0.00000000000E+00  0.48301510224E+03  0.48301510227E+03  0.50400000000E-02 0.  1.
          1   -1    0    0  501    0  0.00000000000E+00 -0.00000000000E+00 -0.38868643008E+03  0.38868643012E+03  0.50400000000E-02 0. -1.
    8880022    1    1    2    0    0  0.17192959652E+03 -0.10555983892E+03  0.40087628543E+03  0.47412668664E+03  0.15294330000E+03 0.  0.
    8880022    1    1    2    0    0 -0.17192959652E+03  0.10555983892E+03 -0.30654761327E+03  0.39757484574E+03  0.15294330000E+03 0. -1.
<mgrwt>
<rscale>  0 0.25316856E+03</rscale>
<asrwt>0</asrwt>
<pdfrwt beam="1">  1        1 0.59797913E-01 0.25316856E+03</pdfrwt>
<pdfrwt beam="2">  1       -1 0.74310015E-01 0.25316856E+03</pdfrwt>
<totfact> 0.12108726E+02</totfact>
</mgrwt>
</event>
<event>
 4    1  0.2293715E-008  0.9841204E+03  0.7818608E-02  0.9326135E-01
          1   -1    0    0  501    0  0.00000000000E+00  0.00000000000E+00  0.23222701446E+04  0.23222701446E+04  0.50400000000E-02 0. -1.
         -1   -1    0    0    0  501 -0.00000000000E+00 -0.00000000000E+00 -0.71932667582E+03  0.71932667584E+03  0.50400000000E-02 0.  1.
    8880022    1    1    2    0    0 -0.97133846148E+03  0.40036658530E+02 -0.18438522784E+03  0.10012446784E+04  0.15294330000E+03 0.  0.
    8880022    1    1    2    0    0  0.97133846148E+03 -0.40036658530E+02  0.17873286966E+04  0.20403521420E+04  0.15294330000E+03 0.  0.
<mgrwt>
<rscale>  0 0.98412042E+03</rscale>
<asrwt>0</asrwt>
<pdfrwt beam="1">  1        1 0.35727232E+00 0.98412042E+03</pdfrwt>
<pdfrwt beam="2">  1       -1 0.11066564E+00 0.98412042E+03</pdfrwt>
<totfact> 0.13764241E+00</totfact>
</mgrwt>
</event>
<event>
 4    1  0.2293715E-008  0.7185894E+03  0.7818608E-02  0.9685960E-01
          1   -1    0    0  501    0  0.00000000000E+00  0.00000000000E+00  0.69407437775E+03  0.69407437777E+03  0.50400000000E-02 0. -1.
         -1   -1    0    0    0  501 -0.00000000000E+00 -0.00000000000E+00 -0.18533275455E+04  0.18533275455E+04  0.50400000000E-02 0.  1.
    8880022    1    1    2    0    0 -0.12614719024E+03  0.69069957524E+03 -0.15650596106E+04  0.17221446671E+04  0.15294330000E+03 0.  0.
    8880022    1    1    2    0    0  0.12614719024E+03 -0.69069957524E+03  0.40580644280E+03  0.82525725618E+03  0.15294330000E+03 0.  0.
<mgrwt>
<rscale>  0 0.71858936E+03</rscale>
<asrwt>0</asrwt>
<pdfrwt beam="1">  1        1 0.10678067E+00 0.71858936E+03</pdfrwt>
<pdfrwt beam="2">  1       -1 0.28512731E+00 0.71858936E+03</pdfrwt>
<totfact> 0.12059059E+00</totfact>
</mgrwt>
</event>
<event>
 4    1  0.2293715E-008  0.7230415E+03  0.7818608E-02  0.9678620E-01
         -1   -1    0    0    0  501 -0.00000000000E+00  0.00000000000E+00  0.40561854883E+03  0.40561854886E+03  0.50400000000E-02 0.  1.
          1   -1    0    0  501    0  0.00000000000E+00 -0.00000000000E+00 -0.31911871810E+04  0.31911871810E+04  0.50400000000E-02 0. -1.
    8880022    1    1    2    0    0 -0.46665869346E+03 -0.53068541094E+03 -0.42632406531E+01  0.72305405732E+03  0.15294330000E+03 0.  0.
    8880022    1    1    2    0    0  0.46665869346E+03  0.53068541094E+03 -0.27813053915E+04  0.28737516725E+04  0.15294330000E+03 0.  0.
<mgrwt>
<rscale>  0 0.72304149E+03</rscale>
<asrwt>0</asrwt>
<pdfrwt beam="1">  1        1 0.49095186E+00 0.72304149E+03</pdfrwt>
<pdfrwt beam="2">  1       -1 0.62402856E-01 0.72304149E+03</pdfrwt>
<totfact> 0.12239794E+00</totfact>
</mgrwt>
</event>
<event>
 4    1  0.2293715E-008  0.2047621E+03  0.7818608E-02  0.1145782E+00
          1   -1    0    0  501    0  0.00000000000E+00  0.00000000000E+00  0.43352882391E+03  0.43352882394E+03  0.50400000000E-02 0. -1.
         -1   -1    0    0    0  501 -0.00000000000E+00 -0.00000000000E+00 -0.10487720265E+04  0.10487720265E+04  0.50400000000E-02 0.  1.
    8880022    1    1    2    0    0 -0.15648382684E+02 -0.13524424199E+03 -0.10137731772E+04  0.10342454180E+04  0.15294330000E+03 0.  0.
    8880022    1    1    2    0    0  0.15648382684E+02  0.13524424199E+03  0.39852997460E+03  0.44805543244E+03  0.15294330000E+03 0.  0.
<mgrwt>
<rscale>  0 0.20476213E+03</rscale>
<asrwt>0</asrwt>
<pdfrwt beam="1">  1        1 0.66696742E-01 0.20476213E+03</pdfrwt>
<pdfrwt beam="2">  1       -1 0.16134954E+00 0.20476213E+03</pdfrwt>
<totfact> 0.17629394E+01</totfact>
</mgrwt>
</event>
<event>
 4    1  0.2293715E-008  0.7098832E+03  0.7818608E-02  0.9700478E-01
          1   -1    0    0  501    0  0.00000000000E+00  0.00000000000E+00  0.31267347598E+04  0.31267347598E+04  0.50400000000E-02 0. -1.
         -1   -1    0    0    0  501 -0.00000000000E+00 -0.00000000000E+00 -0.78198650452E+03  0.78198650453E+03  0.50400000000E-02 0.  1.
    8880022    1    1    2    0    0 -0.60512944082E+03 -0.33817292472E+03  0.29137273953E+04  0.29989567443E+04  0.15294330000E+03 0.  0.
    8880022    1    1    2    0    0  0.60512944082E+03  0.33817292472E+03 -0.56897913999E+03  0.90976452004E+03  0.15294330000E+03 0.  0.
<mgrwt>
<rscale>  0 0.70988324E+03</rscale>
<asrwt>0</asrwt>
<pdfrwt beam="1">  1        1 0.48103612E+00 0.70988324E+03</pdfrwt>
<pdfrwt beam="2">  1       -1 0.12030561E+00 0.70988324E+03</pdfrwt>
<totfact> 0.32607212E-01</totfact>
</mgrwt>
</event>
<event>
 4    1  0.2293715E-008  0.5156416E+03  0.7818608E-02  0.1009775E+00
         -1   -1    0    0    0  501 -0.00000000000E+00  0.00000000000E+00  0.28271177395E+03  0.28271177399E+03  0.50400000000E-02 0.  1.
          1   -1    0    0  501    0  0.00000000000E+00 -0.00000000000E+00 -0.12831376288E+04  0.12831376288E+04  0.50400000000E-02 0. -1.
    8880022    1    1    2    0    0 -0.27539841287E+02 -0.49166673203E+03 -0.95627523913E+02  0.52443388010E+03  0.15294330000E+03 0.  0.
    8880022    1    1    2    0    0  0.27539841287E+02  0.49166673203E+03 -0.90479833090E+03  0.10414155227E+04  0.15294330000E+03 0.  0.
<mgrwt>
<rscale>  0 0.51564161E+03</rscale>
<asrwt>0</asrwt>
<pdfrwt beam="1">  1        1 0.19740579E+00 0.51564161E+03</pdfrwt>
<pdfrwt beam="2">  1       -1 0.43494120E-01 0.51564161E+03</pdfrwt>
<totfact> 0.51299050E+01</totfact>
</mgrwt>
</event>
<event>
 4    1  0.2293715E-008  0.5293761E+03  0.7818608E-02  0.1006384E+00
         -1   -1    0    0    0  501 -0.00000000000E+00  0.00000000000E+00  0.23222335682E+03  0.23222335688E+03  0.50400000000E-02 0.  1.
          1   -1    0    0  501    0  0.00000000000E+00 -0.00000000000E+00 -0.24751874508E+04  0.24751874508E+04  0.50400000000E-02 0. -1.
    8880022    1    1    2    0    0  0.45323482909E+03  0.22677210242E+03 -0.15241895550E+03  0.55088164587E+03  0.15294330000E+03 0.  0.
    8880022    1    1    2    0    0 -0.45323482909E+03 -0.22677210242E+03 -0.20905451385E+04  0.21565291619E+04  0.15294330000E+03 0.  0.
<mgrwt>
<rscale>  0 0.52937609E+03</rscale>
<asrwt>0</asrwt>
<pdfrwt beam="1">  1        1 0.38079805E+00 0.52937609E+03</pdfrwt>
<pdfrwt beam="2">  1       -1 0.35726672E-01 0.52937609E+03</pdfrwt>
<totfact> 0.11571931E+01</totfact>
</mgrwt>
</event>
<event>
 4    1  0.2293715E-008  0.1270835E+04  0.7818608E-02  0.9053019E-01
          1   -1    0    0  501    0  0.00000000000E+00  0.00000000000E+00  0.22233820088E+04  0.22233820088E+04  0.50400000000E-02 0. -1.
         -1   -1    0    0    0  501 -0.00000000000E+00 -0.00000000000E+00 -0.79762226408E+03  0.79762226409E+03  0.50400000000E-02 0.  1.
    8880022    1    1    2    0    0  0.64054566085E+02  0.12599705766E+04  0.11643106811E+04  0.17235544252E+04  0.15294330000E+03 0.  0.
    8880022    1    1    2    0    0 -0.64054566085E+02 -0.12599705766E+04  0.26144906360E+03  0.12974498477E+04  0.15294330000E+03 0.  0.
<mgrwt>
<rscale>  0 0.12708346E+04</rscale>
<asrwt>0</asrwt>
<pdfrwt beam="1">  1        1 0.34205877E+00 0.12708346E+04</pdfrwt>
<pdfrwt beam="2">  1       -1 0.12271112E+00 0.12708346E+04</pdfrwt>
<totfact> 0.12024716E+00</totfact>
</mgrwt>
</event>
<event>
 4    1  0.2293715E-008  0.4011108E+03  0.7818608E-02  0.1043396E+00
          1   -1    0    0  501    0  0.00000000000E+00  0.00000000000E+00  0.10678349582E+04  0.10678349582E+04  0.50400000000E-02 0. -1.
         -1   -1    0    0    0  501 -0.00000000000E+00 -0.00000000000E+00 -0.23908806790E+03  0.23908806795E+03  0.50400000000E-02 0.  1.
    8880022    1    1    2    0    0  0.34367719648E+03  0.13922705807E+03  0.16986559674E+02  0.40147027947E+03  0.15294330000E+03 0.  0.
    8880022    1    1    2    0    0 -0.34367719648E+03 -0.13922705807E+03  0.81176033059E+03  0.90545274665E+03  0.15294330000E+03 0.  0.
<mgrwt>
<rscale>  0 0.40111076E+03</rscale>
<asrwt>0</asrwt>
<pdfrwt beam="1">  1        1 0.16428230E+00 0.40111076E+03</pdfrwt>
<pdfrwt beam="2">  1       -1 0.36782779E-01 0.40111076E+03</pdfrwt>
<totfact> 0.10087572E+02</totfact>
</mgrwt>
</event>
<event>
 4    1  0.2293715E-008  0.6016446E+03  0.7818608E-02  0.9902000E-01
         -1   -1    0    0    0  501 -0.00000000000E+00  0.00000000000E+00  0.54007187425E+03  0.54007187427E+03  0.50400000000E-02 0.  1.
          1   -1    0    0  501    0  0.00000000000E+00 -0.00000000000E+00 -0.12258386527E+04  0.12258386527E+04  0.50400000000E-02 0. -1.
    8880022    1    1    2    0    0  0.46474942678E+03  0.35013217812E+03 -0.93731754606E+03  0.11137954960E+04  0.15294330000E+03 0.  0.
    8880022    1    1    2    0    0 -0.46474942678E+03 -0.35013217812E+03  0.25155076762E+03  0.65211503092E+03  0.15294330000E+03 0.  0.
<mgrwt>
<rscale>  0 0.60164460E+03</rscale>
<asrwt>0</asrwt>
<pdfrwt beam="1">  1        1 0.18859056E+00 0.60164460E+03</pdfrwt>
<pdfrwt beam="2">  1       -1 0.83087981E-01 0.60164460E+03</pdfrwt>
<totfact> 0.15537567E+01</totfact>
</mgrwt>
</event>
<event>
 4    1  0.2293715E-008  0.6524524E+03  0.7818608E-02  0.9802188E-01
         -1   -1    0    0    0  501 -0.00000000000E+00  0.00000000000E+00  0.13525325424E+04  0.13525325424E+04  0.50400000000E-02 0.  1.
          1   -1    0    0  501    0  0.00000000000E+00 -0.00000000000E+00 -0.94813135183E+03  0.94813135185E+03  0.50400000000E-02 0. -1.
    8880022    1    1    2    0    0  0.79576482240E+02 -0.62926152320E+03 -0.73801075229E+03  0.98506548239E+03  0.15294330000E+03 0.  0.
    8880022    1    1    2    0    0 -0.79576482240E+02  0.62926152320E+03  0.11424119429E+04  0.13155984119E+04  0.15294330000E+03 0.  0.
<mgrwt>
<rscale>  0 0.65245240E+03</rscale>
<asrwt>0</asrwt>
<pdfrwt beam="1">  1        1 0.14586636E+00 0.65245240E+03</pdfrwt>
<pdfrwt beam="2">  1       -1 0.20808193E+00 0.65245240E+03</pdfrwt>
<totfact> 0.23405504E+00</totfact>
</mgrwt>
</event>
<event>
 4    1  0.2293715E-008  0.2598203E+03  0.7818608E-02  0.1107251E+00
          1   -1    0    0  501    0  0.00000000000E+00  0.00000000000E+00  0.65200659546E+03  0.65200659548E+03  0.50400000000E-02 0. -1.
         -1   -1    0    0    0  501 -0.00000000000E+00 -0.00000000000E+00 -0.61340912256E+03  0.61340912258E+03  0.50400000000E-02 0.  1.
    8880022    1    1    2    0    0  0.12236195845E+03  0.17071169411E+03 -0.55754594501E+03  0.61511305074E+03  0.15294330000E+03 0.  0.
    8880022    1    1    2    0    0 -0.12236195845E+03 -0.17071169411E+03  0.59614341791E+03  0.65030266731E+03  0.15294330000E+03 0.  0.
<mgrwt>
<rscale>  0 0.25982029E+03</rscale>
<asrwt>0</asrwt>
<pdfrwt beam="1">  1        1 0.10030871E+00 0.25982029E+03</pdfrwt>
<pdfrwt beam="2">  1       -1 0.94370635E-01 0.25982029E+03</pdfrwt>
<totfact> 0.36513501E+01</totfact>
</mgrwt>
</event>
<event>
 4    1  0.2293715E-008  0.2625825E+03  0.7818608E-02  0.1105601E+00
         -1   -1    0    0    0  501 -0.00000000000E+00  0.00000000000E+00  0.67275652613E+03  0.67275652615E+03  0.50400000000E-02 0.  1.
          1   -1    0    0  501    0  0.00000000000E+00 -0.00000000000E+00 -0.20471780492E+03  0.20471780498E+03  0.50400000000E-02 0. -1.
    8880022    1    1    2    0    0 -0.10293602044E+03 -0.18698159390E+03  0.54405740942E+03  0.60410931008E+03  0.15294330000E+03 0.  0.
    8880022    1    1    2    0    0  0.10293602044E+03  0.18698159390E+03 -0.76018688209E+02  0.27336502105E+03  0.15294330000E+03 0.  0.
<mgrwt>
<rscale>  0 0.26258255E+03</rscale>
<asrwt>0</asrwt>
<pdfrwt beam="1">  1        1 0.31495047E-01 0.26258255E+03</pdfrwt>
<pdfrwt beam="2">  1       -1 0.10350100E+00 0.26258255E+03</pdfrwt>
<totfact> 0.13394279E+02</totfact>
</mgrwt>
</event>
<event>
 4    1  0.2293715E-008  0.7361498E+03  0.7818608E-02  0.9657333E-01
         -1   -1    0    0    0  501 -0.00000000000E+00  0.00000000000E+00  0.54626125803E+03  0.54626125805E+03  0.50400000000E-02 0.  1.
          1   -1    0    0  501    0  0.00000000000E+00 -0.00000000000E+00 -0.22376607580E+04  0.22376607580E+04  0.50400000000E-02 0. -1.
    8880022    1    1    2    0    0 -0.66066814397E+03  0.28643067511E+03 -0.18842361636E+04  0.20229341318E+04  0.15294330000E+03 0.  0.
    8880022    1    1    2    0    0  0.66066814397E+03 -0.28643067511E+03  0.19283666370E+03  0.76098788426E+03  0.15294330000E+03 0.  0.
<mgrwt>
<rscale>  0 0.73614984E+03</rscale>
<asrwt>0</asrwt>
<pdfrwt beam="1">  1        1 0.34425550E+00 0.73614984E+03</pdfrwt>
<pdfrwt beam="2">  1       -1 0.84040195E-01 0.73614984E+03</pdfrwt>
<totfact> 0.30527176E+00</totfact>
</mgrwt>
</event>
<event>
 4    1  0.2293715E-008  0.1232657E+04  0.7818608E-02  0.9084742E-01
         -1   -1    0    0    0  501 -0.00000000000E+00  0.00000000000E+00  0.80432722505E+03  0.80432722507E+03  0.50400000000E-02 0.  1.
          1   -1    0    0  501    0  0.00000000000E+00 -0.00000000000E+00 -0.20048309546E+04  0.20048309547E+04  0.50400000000E-02 0. -1.
    8880022    1    1    2    0    0  0.38247864820E+03  0.11617927869E+04 -0.93773852200E+03  0.15488052120E+04  0.15294330000E+03 0.  0.
    8880022    1    1    2    0    0 -0.38247864820E+03 -0.11617927869E+04 -0.26276520759E+03  0.12603529678E+04  0.15294330000E+03 0.  0.
<mgrwt>
<rscale>  0 0.12326573E+04</rscale>
<asrwt>0</asrwt>
<pdfrwt beam="1">  1        1 0.30843553E+00 0.12326573E+04</pdfrwt>
<pdfrwt beam="2">  1       -1 0.12374265E+00 0.12326573E+04</pdfrwt>
<totfact> 0.16642737E+00</totfact>
</mgrwt>
</event>
<event>
 4    1  0.2293715E-008  0.4555491E+03  0.7818608E-02  0.1026080E+00
          1   -1    0    0  501    0  0.00000000000E+00  0.00000000000E+00  0.26529598742E+04  0.26529598743E+04  0.50400000000E-02 0. -1.
         -1   -1    0    0    0  501 -0.00000000000E+00 -0.00000000000E+00 -0.10905726599E+03  0.10905726610E+03  0.50400000000E-02 0.  1.
    8880022    1    1    2    0    0 -0.29895635743E+03  0.30782857666E+03  0.20062609242E+04  0.20573302810E+04  0.15294330000E+03 0.  0.
    8880022    1    1    2    0    0  0.29895635743E+03 -0.30782857666E+03  0.53764168410E+03  0.70468685936E+03  0.15294330000E+03 0.  0.
<mgrwt>
<rscale>  0 0.45554911E+03</rscale>
<asrwt>0</asrwt>
<pdfrwt beam="1">  1        1 0.40814763E+00 0.45554911E+03</pdfrwt>
<pdfrwt beam="2">  1       -1 0.16778043E-01 0.45554911E+03</pdfrwt>
<totfact> 0.32015126E+01</totfact>
</mgrwt>
</event>
<event>
 4    1  0.2293715E-008  0.4841210E+03  0.7818608E-02  0.1018009E+00
         -1   -1    0    0    0  501 -0.00000000000E+00  0.00000000000E+00  0.50387155902E+03  0.50387155904E+03  0.50400000000E-02 0.  1.
          1   -1    0    0  501    0  0.00000000000E+00 -0.00000000000E+00 -0.14773388097E+04  0.14773388097E+04  0.50400000000E-02 0. -1.
    8880022    1    1    2    0    0  0.48593205649E+02 -0.45674959295E+03 -0.13066932420E+04  0.13934921500E+04  0.15294330000E+03 0.  0.
    8880022    1    1    2    0    0 -0.48593205649E+02  0.45674959295E+03  0.33322599137E+03  0.58771821874E+03  0.15294330000E+03 0.  0.
<mgrwt>
<rscale>  0 0.48412100E+03</rscale>
<asrwt>0</asrwt>
<pdfrwt beam="1">  1        1 0.22728289E+00 0.48412100E+03</pdfrwt>
<pdfrwt beam="2">  1       -1 0.77518702E-01 0.48412100E+03</pdfrwt>
<totfact> 0.12313377E+01</totfact>
</mgrwt>
</event>
<event>
 4    1  0.2293715E-008  0.3908462E+03  0.7818608E-02  0.1046996E+00
         -1   -1    0    0    0  501 -0.00000000000E+00  0.00000000000E+00  0.26515726337E+03  0.26515726342E+03  0.50400000000E-02 0.  1.
          1   -1    0    0  501    0  0.00000000000E+00 -0.00000000000E+00 -0.15783755981E+04  0.15783755981E+04  0.50400000000E-02 0. -1.
    8880022    1    1    2    0    0 -0.35929672268E+03 -0.16583069743E+02  0.77915313443E+02  0.39853680159E+03  0.15294330000E+03 0.  0.
    8880022    1    1    2    0    0  0.35929672268E+03  0.16583069743E+02 -0.13911336482E+04  0.14449960599E+04  0.15294330000E+03 0.  0.
<mgrwt>
<rscale>  0 0.39084624E+03</rscale>
<asrwt>0</asrwt>
<pdfrwt beam="1">  1        1 0.24282701E+00 0.39084624E+03</pdfrwt>
<pdfrwt beam="2">  1       -1 0.40793426E-01 0.39084624E+03</pdfrwt>
<totfact> 0.37125220E+01</totfact>
</mgrwt>
</event>
<event>
 4    1  0.2293715E-008  0.1282408E+04  0.7818608E-02  0.9043633E-01
         -1   -1    0    0    0  501 -0.00000000000E+00  0.00000000000E+00  0.13978691809E+04  0.13978691809E+04  0.50400000000E-02 0.  1.
          1   -1    0    0  501    0  0.00000000000E+00 -0.00000000000E+00 -0.21857185471E+04  0.21857185471E+04  0.50400000000E-02 0. -1.
    8880022    1    1    2    0    0  0.12062600332E+04 -0.40757270735E+03 -0.16114753014E+04  0.20594715534E+04  0.15294330000E+03 0.  0.
    8880022    1    1    2    0    0 -0.12062600332E+04  0.40757270735E+03  0.82362593510E+03  0.15241161746E+04  0.15294330000E+03 0.  0.
<mgrwt>
<rscale>  0 0.12824081E+04</rscale>
<asrwt>0</asrwt>
<pdfrwt beam="1">  1        1 0.33626439E+00 0.12824081E+04</pdfrwt>
<pdfrwt beam="2">  1       -1 0.21505680E+00 0.12824081E+04</pdfrwt>
<totfact> 0.25709314E-01</totfact>
</mgrwt>
</event>
<event>
 4    1  0.2293715E-008  0.4306573E+03  0.7818608E-02  0.1033653E+00
         -1   -1    0    0    0  501 -0.00000000000E+00  0.00000000000E+00  0.55867312367E+03  0.55867312369E+03  0.50400000000E-02 0.  1.
          1   -1    0    0  501    0  0.00000000000E+00 -0.00000000000E+00 -0.12578289515E+04  0.12578289515E+04  0.50400000000E-02 0. -1.
    8880022    1    1    2    0    0 -0.24099884953E+03  0.32248042228E+03 -0.11288089881E+04  0.12081702913E+04  0.15294330000E+03 0.  0.
    8880022    1    1    2    0    0  0.24099884953E+03 -0.32248042228E+03  0.42965316021E+03  0.60833178392E+03  0.15294330000E+03 0.  1.
<mgrwt>
<rscale>  0 0.43065731E+03</rscale>
<asrwt>0</asrwt>
<pdfrwt beam="1">  1        1 0.19351215E+00 0.43065731E+03</pdfrwt>
<pdfrwt beam="2">  1       -1 0.85949711E-01 0.43065731E+03</pdfrwt>
<totfact> 0.14197963E+01</totfact>
</mgrwt>
</event>
<event>
 4    1  0.2293715E-008  0.3284573E+03  0.7818608E-02  0.1071821E+00
          1   -1    0    0  501    0  0.00000000000E+00  0.00000000000E+00  0.59611063580E+03  0.59611063582E+03  0.50400000000E-02 0. -1.
         -1   -1    0    0    0  501 -0.00000000000E+00 -0.00000000000E+00 -0.25961732348E+03  0.25961732353E+03  0.50400000000E-02 0.  1.
    8880022    1    1    2    0    0 -0.11102256768E+03 -0.26863834500E+03 -0.67232620482E+02  0.33526772766E+03  0.15294330000E+03 0.  0.
    8880022    1    1    2    0    0  0.11102256768E+03  0.26863834500E+03  0.40372593279E+03  0.52046023169E+03  0.15294330000E+03 0.  0.
<mgrwt>
<rscale>  0 0.32845734E+03</rscale>
<asrwt>0</asrwt>
<pdfrwt beam="1">  1        1 0.91709327E-01 0.32845734E+03</pdfrwt>
<pdfrwt beam="2">  1       -1 0.39941127E-01 0.32845734E+03</pdfrwt>
<totfact> 0.22038757E+02</totfact>
</mgrwt>
</event>
<event>
 4    1  0.2293715E-008  0.4210977E+03  0.7818608E-02  0.1036710E+00
         -1   -1    0    0    0  501 -0.00000000000E+00  0.00000000000E+00  0.14999558610E+04  0.14999558610E+04  0.50400000000E-02 0.  1.
          1   -1    0    0  501    0  0.00000000000E+00 -0.00000000000E+00 -0.14682614672E+03  0.14682614680E+03  0.50400000000E-02 0. -1.
    8880022    1    1    2    0    0 -0.39018521118E+03 -0.41074841262E+02  0.10400123060E+04  0.11220289173E+04  0.15294330000E+03 0.  0.
    8880022    1    1    2    0    0  0.39018521118E+03  0.41074841262E+02  0.31311740827E+03  0.52475309050E+03  0.15294330000E+03 0.  0.
<mgrwt>
<rscale>  0 0.42109773E+03</rscale>
<asrwt>0</asrwt>
<pdfrwt beam="1">  1        1 0.22588639E-01 0.42109773E+03</pdfrwt>
<pdfrwt beam="2">  1       -1 0.23076243E+00 0.42109773E+03</pdfrwt>
<totfact> 0.22347386E+01</totfact>
</mgrwt>
</event>
<event>
 4    1  0.2293715E-008  0.6595111E+03  0.7818608E-02  0.9789094E-01
         -1   -1    0    0    0  501 -0.00000000000E+00  0.00000000000E+00  0.41171109513E+03  0.41171109516E+03  0.50400000000E-02 0.  1.
          1   -1    0    0  501    0  0.00000000000E+00 -0.00000000000E+00 -0.16112009692E+04  0.16112009692E+04  0.50400000000E-02 0. -1.
    8880022    1    1    2    0    0 -0.23192765491E+03 -0.59814116215E+03 -0.62478817108E+01  0.65954073112E+03  0.15294330000E+03 0.  0.
    8880022    1    1    2    0    0  0.23192765491E+03  0.59814116215E+03 -0.11932419923E+04  0.13633713332E+04  0.15294330000E+03 0.  0.
<mgrwt>
<rscale>  0 0.65951114E+03</rscale>
<asrwt>0</asrwt>
<pdfrwt beam="1">  1        1 0.24787707E+00 0.65951114E+03</pdfrwt>
<pdfrwt beam="2">  1       -1 0.63340169E-01 0.65951114E+03</pdfrwt>
<totfact> 0.14584925E+01</totfact>
</mgrwt>
</event>
<event>
 4    1  0.2293715E-008  0.5664848E+03  0.7818608E-02  0.9977488E-01
          1   -1    0    0  501    0  0.00000000000E+00  0.00000000000E+00  0.19942435967E+04  0.19942435967E+04  0.50400000000E-02 0. -1.
         -1   -1    0    0    0  501 -0.00000000000E+00 -0.00000000000E+00 -0.27855852659E+03  0.27855852664E+03  0.50400000000E-02 0.  1.
    8880022    1    1    2    0    0 -0.18072676162E+03  0.51463698627E+03  0.11933286794E+03  0.57891741759E+03  0.15294330000E+03 0.  0.
    8880022    1    1    2    0    0  0.18072676162E+03 -0.51463698627E+03  0.15963522022E+04  0.16938847058E+04  0.15294330000E+03 0.  0.
<mgrwt>
<rscale>  0 0.56648481E+03</rscale>
<asrwt>0</asrwt>
<pdfrwt beam="1">  1        1 0.30680672E+00 0.56648481E+03</pdfrwt>
<pdfrwt beam="2">  1       -1 0.42855156E-01 0.56648481E+03</pdfrwt>
<totfact> 0.17330719E+01</totfact>
</mgrwt>
</event>
<event>
 4    1  0.2293715E-008  0.1552655E+03  0.7818608E-02  0.1194148E+00
          1   -1    0    0  501    0  0.00000000000E+00  0.00000000000E+00  0.31052752043E+03  0.31052752047E+03  0.50400000000E-02 0. -1.
         -1   -1    0    0    0  501 -0.00000000000E+00 -0.00000000000E+00 -0.84902919494E+03  0.84902919495E+03  0.50400000000E-02 0.  1.
    8880022    1    1    2    0    0  0.21843497605E+02 -0.15446289899E+02 -0.82188694333E+03  0.83642425054E+03  0.15294330000E+03 0.  0.
    8880022    1    1    2    0    0 -0.21843497605E+02  0.15446289899E+02  0.28338526883E+03  0.32313246489E+03  0.15294330000E+03 0. -1.
<mgrwt>
<rscale>  0 0.15526551E+03</rscale>
<asrwt>0</asrwt>
<pdfrwt beam="1">  1        1 0.47773465E-01 0.15526551E+03</pdfrwt>
<pdfrwt beam="2">  1       -1 0.13061988E+00 0.15526551E+03</pdfrwt>
<totfact> 0.47194474E+01</totfact>
</mgrwt>
</event>
<event>
 4    1  0.2293715E-008  0.2613542E+03  0.7818608E-02  0.1106332E+00
          1   -1    0    0  501    0  0.00000000000E+00  0.00000000000E+00  0.31241623269E+03  0.31241623273E+03  0.50400000000E-02 0. -1.
         -1   -1    0    0    0  501 -0.00000000000E+00 -0.00000000000E+00 -0.90723275636E+03  0.90723275637E+03  0.50400000000E-02 0.  1.
    8880022    1    1    2    0    0 -0.36990871495E+02 -0.20867683444E+03 -0.82869309853E+03  0.86892937019E+03  0.15294330000E+03 0.  0.
    8880022    1    1    2    0    0  0.36990871495E+02  0.20867683444E+03  0.23387657486E+03  0.35071961891E+03  0.15294330000E+03 0.  0.
<mgrwt>
<rscale>  0 0.26135416E+03</rscale>
<asrwt>0</asrwt>
<pdfrwt beam="1">  1        1 0.48064036E-01 0.26135416E+03</pdfrwt>
<pdfrwt beam="2">  1       -1 0.13957427E+00 0.26135416E+03</pdfrwt>
<totfact> 0.38445470E+01</totfact>
</mgrwt>
</event>
<event>
 4    1  0.2293715E-008  0.3814401E+03  0.7818608E-02  0.1050403E+00
         -1   -1    0    0    0  501 -0.00000000000E+00  0.00000000000E+00  0.10885373570E+04  0.10885373570E+04  0.50400000000E-02 0.  1.
          1   -1    0    0  501    0  0.00000000000E+00 -0.00000000000E+00 -0.35507468517E+03  0.35507468521E+03  0.50400000000E-02 0. -1.
    8880022    1    1    2    0    0 -0.30699088117E+03 -0.16691763534E+03 -0.20325109646E+03  0.43221240072E+03  0.15294330000E+03 0.  0.
    8880022    1    1    2    0    0  0.30699088117E+03  0.16691763534E+03  0.93671376829E+03  0.10113996415E+04  0.15294330000E+03 0.  0.
<mgrwt>
<rscale>  0 0.38144010E+03</rscale>
<asrwt>0</asrwt>
<pdfrwt beam="1">  1        1 0.54626874E-01 0.38144010E+03</pdfrwt>
<pdfrwt beam="2">  1       -1 0.16746729E+00 0.38144010E+03</pdfrwt>
<totfact> 0.19547204E+01</totfact>
</mgrwt>
</event>
<event>
 4    1  0.2293715E-008  0.5577719E+03  0.7818608E-02  0.9997109E-01
          1   -1    0    0  501    0  0.00000000000E+00  0.00000000000E+00  0.32091760205E+03  0.32091760209E+03  0.50400000000E-02 0. -1.
         -1   -1    0    0    0  501 -0.00000000000E+00 -0.00000000000E+00 -0.23608811560E+04  0.23608811560E+04  0.50400000000E-02 0.  1.
    8880022    1    1    2    0    0  0.53111854347E+03 -0.75039672433E+02 -0.20494002591E+04  0.21239470179E+04  0.15294330000E+03 0.  0.
    8880022    1    1    2    0    0 -0.53111854347E+03  0.75039672433E+02  0.94367051648E+01  0.55785174023E+03  0.15294330000E+03 0.  0.
<mgrwt>
<rscale>  0 0.55777192E+03</rscale>
<asrwt>0</asrwt>
<pdfrwt beam="1">  1        1 0.49371940E-01 0.55777192E+03</pdfrwt>
<pdfrwt beam="2">  1       -1 0.36321248E+00 0.55777192E+03</pdfrwt>
<totfact> 0.11272616E+00</totfact>
</mgrwt>
</event>
<event>
 4    1  0.2293715E-008  0.1080084E+04  0.7818608E-02  0.9224823E-01
          1   -1    0    0  501    0  0.00000000000E+00  0.00000000000E+00  0.22111761853E+04  0.22111761853E+04  0.50400000000E-02 0. -1.
         -1   -1    0    0    0  501 -0.00000000000E+00 -0.00000000000E+00 -0.91587079335E+03  0.91587079336E+03  0.50400000000E-02 0.  1.
    8880022    1    1    2    0    0 -0.77206429628E+03  0.73966699227E+03 -0.37038382607E+03  0.11418258925E+04  0.15294330000E+03 0.  0.
    8880022    1    1    2    0    0  0.77206429628E+03 -0.73966699227E+03  0.16656892180E+04  0.19852210862E+04  0.15294330000E+03 0.  0.
<mgrwt>
<rscale>  0 0.10800843E+04</rscale>
<asrwt>0</asrwt>
<pdfrwt beam="1">  1        1 0.34018095E+00 0.10800843E+04</pdfrwt>
<pdfrwt beam="2">  1       -1 0.14090320E+00 0.10800843E+04</pdfrwt>
<totfact> 0.88349997E-01</totfact>
</mgrwt>
</event>
<event>
 4    1  0.2293715E-008  0.7069303E+03  0.7818608E-02  0.9705453E-01
         -1   -1    0    0    0  501 -0.00000000000E+00  0.00000000000E+00  0.12900642855E+04  0.12900642855E+04  0.50400000000E-02 0.  1.
          1   -1    0    0  501    0  0.00000000000E+00 -0.00000000000E+00 -0.83581227655E+03  0.83581227656E+03  0.50400000000E-02 0. -1.
    8880022    1    1    2    0    0 -0.38854542308E+03  0.57043070221E+03  0.10057004132E+04  0.12293021215E+04  0.15294330000E+03 0.  0.
    8880022    1    1    2    0    0  0.38854542308E+03 -0.57043070221E+03 -0.55144840427E+03  0.89657444053E+03  0.15294330000E+03 0.  0.
<mgrwt>
<rscale>  0 0.70693025E+03</rscale>
<asrwt>0</asrwt>
<pdfrwt beam="1">  1        1 0.12858650E+00 0.70693025E+03</pdfrwt>
<pdfrwt beam="2">  1       -1 0.19847143E+00 0.70693025E+03</pdfrwt>
<totfact> 0.33245438E+00</totfact>
</mgrwt>
</event>
<event>
 4    1  0.2293715E-008  0.6582636E+03  0.7818608E-02  0.9791395E-01
         -1   -1    0    0    0  501 -0.00000000000E+00  0.00000000000E+00  0.15298543696E+04  0.15298543696E+04  0.50400000000E-02 0.  1.
          1   -1    0    0  501    0  0.00000000000E+00 -0.00000000000E+00 -0.92515001841E+03  0.92515001843E+03  0.50400000000E-02 0. -1.
    8880022    1    1    2    0    0  0.18552575628E+03 -0.61278014964E+03  0.13248311221E+04  0.14793540729E+04  0.15294330000E+03 0.  0.
    8880022    1    1    2    0    0 -0.18552575628E+03  0.61278014964E+03 -0.72012677095E+03  0.97565031506E+03  0.15294330000E+03 0.  0.
<mgrwt>
<rscale>  0 0.65826360E+03</rscale>
<asrwt>0</asrwt>
<pdfrwt beam="1">  1        1 0.14233077E+00 0.65826360E+03</pdfrwt>
<pdfrwt beam="2">  1       -1 0.23536221E+00 0.65826360E+03</pdfrwt>
<totfact> 0.16100569E+00</totfact>
</mgrwt>
</event>
<event>
 4    1  0.2293715E-008  0.2028219E+03  0.7818608E-02  0.1147380E+00
         -1   -1    0    0    0  501 -0.00000000000E+00  0.00000000000E+00  0.84617749634E+03  0.84617749636E+03  0.50400000000E-02 0.  1.
          1   -1    0    0  501    0  0.00000000000E+00 -0.00000000000E+00 -0.10517661809E+03  0.10517661821E+03  0.50400000000E-02 0. -1.
    8880022    1    1    2    0    0 -0.11511927942E+03 -0.67027157047E+02  0.71933083671E+03  0.74737781204E+03  0.15294330000E+03 0.  1.
    8880022    1    1    2    0    0  0.11511927942E+03  0.67027157047E+02  0.21670041539E+02  0.20397630252E+03  0.15294330000E+03 0.  0.
<mgrwt>
<rscale>  0 0.20282194E+03</rscale>
<asrwt>0</asrwt>
<pdfrwt beam="1">  1        1 0.16181018E-01 0.20282194E+03</pdfrwt>
<pdfrwt beam="2">  1       -1 0.13018115E+00 0.20282194E+03</pdfrwt>
<totfact> 0.18479028E+02</totfact>
</mgrwt>
</event>
<event>
 4    1  0.2293715E-008  0.7122853E+03  0.7818608E-02  0.9696450E-01
          1   -1    0    0  501    0  0.00000000000E+00  0.00000000000E+00  0.13439306571E+04  0.13439306571E+04  0.50400000000E-02 0. -1.
         -1   -1    0    0    0  501 -0.00000000000E+00 -0.00000000000E+00 -0.62959879308E+03  0.62959879310E+03  0.50400000000E-02 0.  1.
    8880022    1    1    2    0    0 -0.61312340737E+02 -0.69296424287E+03 -0.26722486932E+03  0.76076239971E+03  0.15294330000E+03 0.  0.
    8880022    1    1    2    0    0  0.61312340737E+02  0.69296424287E+03  0.98155673336E+03  0.12127670505E+04  0.15294330000E+03 0.  1.
<mgrwt>
<rscale>  0 0.71228526E+03</rscale>
<asrwt>0</asrwt>
<pdfrwt beam="1">  1        1 0.20675856E+00 0.71228526E+03</pdfrwt>
<pdfrwt beam="2">  1       -1 0.96861353E-01 0.71228526E+03</pdfrwt>
<totfact> 0.89958855E+00</totfact>
</mgrwt>
</event>
<event>
 4    1  0.2293715E-008  0.1951532E+03  0.7818608E-02  0.1153894E+00
          1   -1    0    0  501    0  0.00000000000E+00  0.00000000000E+00  0.14890191736E+04  0.14890191736E+04  0.50400000000E-02 0. -1.
         -1   -1    0    0    0  501 -0.00000000000E+00 -0.00000000000E+00 -0.90520665310E+02  0.90520665450E+02  0.50400000000E-02 0.  1.
    8880022    1    1    2    0    0 -0.73639123858E+02 -0.96282858718E+02  0.13682010908E+04  0.13820488368E+04  0.15294330000E+03 0.  0.
    8880022    1    1    2    0    0  0.73639123858E+02  0.96282858718E+02  0.30297417483E+02  0.19749100224E+03  0.15294330000E+03 0.  1.
<mgrwt>
<rscale>  0 0.19515318E+03</rscale>
<asrwt>0</asrwt>
<pdfrwt beam="1">  1        1 0.22907984E+00 0.19515318E+03</pdfrwt>
<pdfrwt beam="2">  1       -1 0.13926258E-01 0.19515318E+03</pdfrwt>
<totfact> 0.26881683E+02</totfact>
</mgrwt>
</event>
<event>
 4    1  0.2293715E-008  0.4528912E+03  0.7818608E-02  0.1026863E+00
          1   -1    0    0  501    0  0.00000000000E+00  0.00000000000E+00  0.71965414710E+03  0.71965414712E+03  0.50400000000E-02 0. -1.
         -1   -1    0    0    0  501 -0.00000000000E+00 -0.00000000000E+00 -0.69797685711E+03  0.69797685713E+03  0.50400000000E-02 0.  1.
    8880022    1    1    2    0    0  0.42182956060E+03 -0.61470328453E+02  0.55605512788E+03  0.71715252055E+03  0.15294330000E+03 0.  0.
    8880022    1    1    2    0    0 -0.42182956060E+03  0.61470328453E+02 -0.53437783789E+03  0.70047848370E+03  0.15294330000E+03 0.  1.
<mgrwt>
<rscale>  0 0.45289119E+03</rscale>
<asrwt>0</asrwt>
<pdfrwt beam="1">  1        1 0.11071602E+00 0.45289119E+03</pdfrwt>
<pdfrwt beam="2">  1       -1 0.10738105E+00 0.45289119E+03</pdfrwt>
<totfact> 0.22595716E+01</totfact>
</mgrwt>
</event>
<event>
 4    1  0.2293715E-008  0.9864200E+03  0.7818608E-02  0.9323566E-01
         -1   -1    0    0    0  501 -0.00000000000E+00  0.00000000000E+00  0.81090944975E+03  0.81090944977E+03  0.50400000000E-02 0.  1.
          1   -1    0    0  501    0  0.00000000000E+00 -0.00000000000E+00 -0.15298972295E+04  0.15298972296E+04  0.50400000000E-02 0. -1.
    8880022    1    1    2    0    0 -0.97136392419E+03  0.78006211633E+02 -0.90305453985E+03  0.13373600851E+04  0.15294330000E+03 0.  0.
    8880022    1    1    2    0    0  0.97136392419E+03 -0.78006211633E+02  0.18406676006E+03  0.10034465942E+04  0.15294330000E+03 0.  0.
<mgrwt>
<rscale>  0 0.98642004E+03</rscale>
<asrwt>0</asrwt>
<pdfrwt beam="1">  1        1 0.23536880E+00 0.98642004E+03</pdfrwt>
<pdfrwt beam="2">  1       -1 0.12475530E+00 0.98642004E+03</pdfrwt>
<totfact> 0.35337035E+00</totfact>
</mgrwt>
</event>
<event>
 4    1  0.2293715E-008  0.2875933E+03  0.7818608E-02  0.1091612E+00
         -1   -1    0    0    0  501 -0.00000000000E+00  0.00000000000E+00  0.43840301273E+03  0.43840301276E+03  0.50400000000E-02 0.  1.
          1   -1    0    0  501    0  0.00000000000E+00 -0.00000000000E+00 -0.19995237583E+04  0.19995237583E+04  0.50400000000E-02 0. -1.
    8880022    1    1    2    0    0 -0.17668308525E+03  0.16763455681E+03 -0.19405925786E+04  0.19617873142E+04  0.15294330000E+03 0.  0.
    8880022    1    1    2    0    0  0.17668308525E+03 -0.16763455681E+03  0.37947183303E+03  0.47613945681E+03  0.15294330000E+03 0.  1.
<mgrwt>
<rscale>  0 0.28759331E+03</rscale>
<asrwt>0</asrwt>
<pdfrwt beam="1">  1        1 0.30761903E+00 0.28759331E+03</pdfrwt>
<pdfrwt beam="2">  1       -1 0.67446619E-01 0.28759331E+03</pdfrwt>
<totfact> 0.78729071E+00</totfact>
</mgrwt>
</event>
<event>
 4    1  0.2944550E-008  0.8576065E+03  0.7818608E-02  0.9480184E-01
          1   -1    0    0  501    0  0.00000000000E+00  0.00000000000E+00  0.18664883621E+04  0.18664883621E+04  0.50400000000E-02 0. -1.
         -1   -1    0    0    0  501 -0.00000000000E+00 -0.00000000000E+00 -0.82554148213E+03  0.82554148215E+03  0.50400000000E-02 0.  1.
    8880022    1    1    2    0    0 -0.38460718292E+03 -0.75111552432E+03 -0.45264739756E+03  0.96973116665E+03  0.15294330000E+03 0.  0.
    8880022    1    1    2    0    0  0.38460718292E+03  0.75111552432E+03  0.14935942775E+04  0.17222986776E+04  0.15294330000E+03 0.  0.
<mgrwt>
<rscale>  0 0.85760648E+03</rscale>
<asrwt>0</asrwt>
<pdfrwt beam="1">  1        1 0.28715205E+00 0.85760648E+03</pdfrwt>
<pdfrwt beam="2">  1       -1 0.12700638E+00 0.85760648E+03</pdfrwt>
<totfact> 0.20372283E+00</totfact>
</mgrwt>
</event>
<event>
 4    1  0.2293715E-008  0.4363829E+03  0.7818608E-02  0.1031862E+00
         -1   -1    0    0    0  501 -0.00000000000E+00  0.00000000000E+00  0.61152894918E+03  0.61152894920E+03  0.50400000000E-02 0.  1.
          1   -1    0    0  501    0  0.00000000000E+00 -0.00000000000E+00 -0.32873811663E+03  0.32873811667E+03  0.50400000000E-02 0. -1.
    8880022    1    1    2    0    0 -0.35231790099E+03 -0.20714836162E+03  0.24936452263E+03  0.50260587466E+03  0.15294330000E+03 0.  0.
    8880022    1    1    2    0    0  0.35231790099E+03  0.20714836162E+03  0.33426309919E+02  0.43766119121E+03  0.15294330000E+03 0.  0.
<mgrwt>
<rscale>  0 0.43638286E+03</rscale>
<asrwt>0</asrwt>
<pdfrwt beam="1">  1        1 0.50575096E-01 0.43638286E+03</pdfrwt>
<pdfrwt beam="2">  1       -1 0.94081376E-01 0.43638286E+03</pdfrwt>
<totfact> 0.88910335E+01</totfact>
</mgrwt>
</event>
<event>
 4    1  0.2293715E-008  0.1800287E+03  0.7818608E-02  0.1167775E+00
          1   -1    0    0  501    0  0.00000000000E+00  0.00000000000E+00  0.19771264474E+04  0.19771264474E+04  0.50400000000E-02 0. -1.
         -1   -1    0    0    0  501 -0.00000000000E+00 -0.00000000000E+00 -0.15150399443E+03  0.15150399451E+03  0.50400000000E-02 0.  1.
    8880022    1    1    2    0    0 -0.27963269249E+02  0.90756515480E+02  0.19178993441E+04  0.19263302512E+04  0.15294330000E+03 0.  0.
    8880022    1    1    2    0    0  0.27963269249E+02 -0.90756515480E+02 -0.92276891106E+02  0.20230019075E+03  0.15294330000E+03 0.  1.
<mgrwt>
<rscale>  0 0.18002873E+03</rscale>
<asrwt>0</asrwt>
<pdfrwt beam="1">  1        1 0.30417328E+00 0.18002873E+03</pdfrwt>
<pdfrwt beam="2">  1       -1 0.23308309E-01 0.18002873E+03</pdfrwt>
<totfact> 0.57226199E+01</totfact>
</mgrwt>
</event>
<event>
 4    1  0.2293715E-008  0.1169124E+04  0.7818608E-02  0.9140320E-01
          1   -1    0    0  501    0  0.00000000000E+00  0.00000000000E+00  0.22985975052E+04  0.22985975052E+04  0.50400000000E-02 0. -1.
         -1   -1    0    0    0  501 -0.00000000000E+00 -0.00000000000E+00 -0.88463837268E+03  0.88463837270E+03  0.50400000000E-02 0.  1.
    8880022    1    1    2    0    0  0.84409924743E+03 -0.79432766867E+03  0.16182542034E+04  0.19963963295E+04  0.15294330000E+03 0.  0.
    8880022    1    1    2    0    0 -0.84409924743E+03  0.79432766867E+03 -0.20429507081E+03  0.11868395484E+04  0.15294330000E+03 0.  0.
<mgrwt>
<rscale>  0 0.11691243E+04</rscale>
<asrwt>0</asrwt>
<pdfrwt beam="1">  1        1 0.35363039E+00 0.11691243E+04</pdfrwt>
<pdfrwt beam="2">  1       -1 0.13609821E+00 0.11691243E+04</pdfrwt>
<totfact> 0.83300303E-01</totfact>
</mgrwt>
</event>
<event>
 4    1  0.2412397E-008  0.9837136E+03  0.7818608E-02  0.9326590E-01
          1   -1    0    0  501    0  0.00000000000E+00  0.00000000000E+00  0.21044564158E+04  0.21044564158E+04  0.50400000000E-02 0. -1.
         -1   -1    0    0    0  501 -0.00000000000E+00 -0.00000000000E+00 -0.10979811013E+04  0.10979811013E+04  0.50400000000E-02 0.  1.
    8880022    1    1    2    0    0 -0.89997528178E+03 -0.36653151386E+03 -0.71747921416E+03  0.12175668089E+04  0.15294330000E+03 0.  0.
    8880022    1    1    2    0    0  0.89997528178E+03  0.36653151386E+03  0.17239545286E+04  0.19848707082E+04  0.15294330000E+03 0.  0.
<mgrwt>
<rscale>  0 0.98371363E+03</rscale>
<asrwt>0</asrwt>
<pdfrwt beam="1">  1        1 0.32376253E+00 0.98371363E+03</pdfrwt>
<pdfrwt beam="2">  1       -1 0.16892017E+00 0.98371363E+03</pdfrwt>
<totfact> 0.64416798E-01</totfact>
</mgrwt>
</event>
<event>
 4    1  0.2293715E-008  0.5422528E+03  0.7818608E-02  0.1003303E+00
         -1   -1    0    0    0  501 -0.00000000000E+00  0.00000000000E+00  0.23644172637E+03  0.23644172643E+03  0.50400000000E-02 0.  1.
          1   -1    0    0  501    0  0.00000000000E+00 -0.00000000000E+00 -0.15240516404E+04  0.15240516404E+04  0.50400000000E-02 0. -1.
    8880022    1    1    2    0    0  0.22458549706E+03 -0.46926299706E+03 -0.10214087987E+04  0.11564229300E+04  0.15294330000E+03 0.  0.
    8880022    1    1    2    0    0 -0.22458549706E+03  0.46926299706E+03 -0.26620111536E+03  0.60407043690E+03  0.15294330000E+03 0. -1.
<mgrwt>
<rscale>  0 0.54225276E+03</rscale>
<asrwt>0</asrwt>
<pdfrwt beam="1">  1        1 0.23446948E+00 0.54225276E+03</pdfrwt>
<pdfrwt beam="2">  1       -1 0.36375651E-01 0.54225276E+03</pdfrwt>
<totfact> 0.48173107E+01</totfact>
</mgrwt>
</event>
<event>
 4    1  0.2293715E-008  0.1772131E+03  0.7818608E-02  0.1170528E+00
          1   -1    0    0  501    0  0.00000000000E+00  0.00000000000E+00  0.58060430716E+03  0.58060430718E+03  0.50400000000E-02 0. -1.
         -1   -1    0    0    0  501 -0.00000000000E+00 -0.00000000000E+00 -0.58975918542E+02  0.58975918757E+02  0.50400000000E-02 0.  1.
    8880022    1    1    2    0    0 -0.71063760193E+02  0.54431447758E+02  0.16876268651E+03  0.24471480930E+03  0.15294330000E+03 0.  0.
    8880022    1    1    2    0    0  0.71063760193E+02 -0.54431447758E+02  0.35286570211E+03  0.39486541664E+03  0.15294330000E+03 0.  1.
<mgrwt>
<rscale>  0 0.17721313E+03</rscale>
<asrwt>0</asrwt>
<pdfrwt beam="1">  1        1 0.89323737E-01 0.17721313E+03</pdfrwt>
<pdfrwt beam="2">  1       -1 0.90732185E-02 0.17721313E+03</pdfrwt>
<totfact> 0.25765346E+03</totfact>
</mgrwt>
</event>
<event>
 4    1  0.2293715E-008  0.5236599E+03  0.7818608E-02  0.1007781E+00
          1   -1    0    0  501    0  0.00000000000E+00  0.00000000000E+00  0.23153309655E+04  0.23153309655E+04  0.50400000000E-02 0. -1.
         -1   -1    0    0    0  501 -0.00000000000E+00 -0.00000000000E+00 -0.31577987111E+03  0.31577987115E+03  0.50400000000E-02 0.  1.
    8880022    1    1    2    0    0  0.37099818649E+03  0.33643475617E+03 -0.40212189102E+02  0.52520155436E+03  0.15294330000E+03 0.  0.
    8880022    1    1    2    0    0 -0.37099818649E+03 -0.33643475617E+03  0.20397632835E+04  0.21059092823E+04  0.15294330000E+03 0.  0.
<mgrwt>
<rscale>  0 0.52365986E+03</rscale>
<asrwt>0</asrwt>
<pdfrwt beam="1">  1        1 0.35620476E+00 0.52365986E+03</pdfrwt>
<pdfrwt beam="2">  1       -1 0.48581519E-01 0.52365986E+03</pdfrwt>
<totfact> 0.84811449E+00</totfact>
</mgrwt>
</event>
<event>
 4    1  0.2293715E-008  0.1137047E+04  0.7818608E-02  0.9169817E-01
          1   -1    0    0  501    0  0.00000000000E+00  0.00000000000E+00  0.23214907842E+04  0.23214907842E+04  0.50400000000E-02 0. -1.
         -1   -1    0    0    0  501 -0.00000000000E+00 -0.00000000000E+00 -0.10125879052E+04  0.10125879052E+04  0.50400000000E-02 0.  1.
    8880022    1    1    2    0    0  0.35407524377E+03 -0.10696326436E+04  0.17727446762E+04  0.21060623473E+04  0.15294330000E+03 0.  0.
    8880022    1    1    2    0    0 -0.35407524377E+03  0.10696326436E+04 -0.46384179729E+03  0.12280163421E+04  0.15294330000E+03 0.  0.
<mgrwt>
<rscale>  0 0.11370466E+04</rscale>
<asrwt>0</asrwt>
<pdfrwt beam="1">  1        1 0.35715242E+00 0.11370466E+04</pdfrwt>
<pdfrwt beam="2">  1       -1 0.15578276E+00 0.11370466E+04</pdfrwt>
<totfact> 0.56278429E-01</totfact>
</mgrwt>
</event>
<event>
 4    1  0.2293715E-008  0.4878761E+03  0.7818608E-02  0.1016993E+00
         -1   -1    0    0    0  501 -0.00000000000E+00  0.00000000000E+00  0.26621343019E+03  0.26621343024E+03  0.50400000000E-02 0.  1.
          1   -1    0    0  501    0  0.00000000000E+00 -0.00000000000E+00 -0.25369040267E+04  0.25369040267E+04  0.50400000000E-02 0. -1.
    8880022    1    1    2    0    0  0.46299240079E+03  0.16415869345E+02 -0.22631952678E+04  0.23151837761E+04  0.15294330000E+03 0.  0.
    8880022    1    1    2    0    0 -0.46299240079E+03 -0.16415869345E+02 -0.74953287467E+01  0.48793368086E+03  0.15294330000E+03 0.  0.
<mgrwt>
<rscale>  0 0.48787611E+03</rscale>
<asrwt>0</asrwt>
<pdfrwt beam="1">  1        1 0.39029291E+00 0.48787611E+03</pdfrwt>
<pdfrwt beam="2">  1       -1 0.40955914E-01 0.48787611E+03</pdfrwt>
<totfact> 0.83135065E+00</totfact>
</mgrwt>
</event>
<event>
 4    1  0.2293715E-008  0.1159445E+04  0.7818608E-02  0.9149114E-01
          1   -1    0    0  501    0  0.00000000000E+00  0.00000000000E+00  0.34472495634E+04  0.34472495634E+04  0.50400000000E-02 0. -1.
         -1   -1    0    0    0  501 -0.00000000000E+00 -0.00000000000E+00 -0.10784275934E+04  0.10784275934E+04  0.50400000000E-02 0.  1.
    8880022    1    1    2    0    0 -0.74060327727E+03  0.87887888276E+03 -0.62358590044E+03  0.13165000316E+04  0.15294330000E+03 0.  0.
    8880022    1    1    2    0    0  0.74060327727E+03 -0.87887888276E+03  0.29924078704E+04  0.32091771252E+04  0.15294330000E+03 0.  0.
<mgrwt>
<rscale>  0 0.11594451E+04</rscale>
<asrwt>0</asrwt>
<pdfrwt beam="1">  1        1 0.53034607E+00 0.11594451E+04</pdfrwt>
<pdfrwt beam="2">  1       -1 0.16591194E+00 0.11594451E+04</pdfrwt>
<totfact> 0.73001231E-02</totfact>
</mgrwt>
</event>
<event>
 4    1  0.2293715E-008  0.4035793E+03  0.7818608E-02  0.1042547E+00
          1   -1    0    0  501    0  0.00000000000E+00  0.00000000000E+00  0.46774234186E+03  0.46774234188E+03  0.50400000000E-02 0. -1.
         -1   -1    0    0    0  501 -0.00000000000E+00 -0.00000000000E+00 -0.36624795352E+03  0.36624795355E+03  0.50400000000E-02 0.  1.
    8880022    1    1    2    0    0 -0.18914034130E+03  0.32204117454E+03 -0.41774233113E+02  0.40573553748E+03  0.15294330000E+03 0.  0.
    8880022    1    1    2    0    0  0.18914034130E+03 -0.32204117454E+03  0.14326862145E+03  0.42825475796E+03  0.15294330000E+03 0.  0.
<mgrwt>
<rscale>  0 0.40357929E+03</rscale>
<asrwt>0</asrwt>
<pdfrwt beam="1">  1        1 0.71960360E-01 0.40357929E+03</pdfrwt>
<pdfrwt beam="2">  1       -1 0.56345839E-01 0.40357929E+03</pdfrwt>
<totfact> 0.16110785E+02</totfact>
</mgrwt>
</event>
<event>
 4    1  0.2293715E-008  0.1133526E+04  0.7818608E-02  0.9173117E-01
          1   -1    0    0  501    0  0.00000000000E+00  0.00000000000E+00  0.77526459935E+03  0.77526459937E+03  0.50400000000E-02 0. -1.
         -1   -1    0    0    0  501 -0.00000000000E+00 -0.00000000000E+00 -0.19083228752E+04  0.19083228752E+04  0.50400000000E-02 0.  1.
    8880022    1    1    2    0    0 -0.17187392594E+03  0.11099321678E+04 -0.79924046799E+02  0.11363404287E+04  0.15294330000E+03 0.  0.
    8880022    1    1    2    0    0  0.17187392594E+03 -0.11099321678E+04 -0.10531342290E+04  0.15472470459E+04  0.15294330000E+03 0.  0.
<mgrwt>
<rscale>  0 0.11335262E+04</rscale>
<asrwt>0</asrwt>
<pdfrwt beam="1">  1        1 0.11927148E+00 0.11335262E+04</pdfrwt>
<pdfrwt beam="2">  1       -1 0.29358813E+00 0.11335262E+04</pdfrwt>
<totfact> 0.84050517E-01</totfact>
</mgrwt>
</event>
<event>
 4    1  0.2293715E-008  0.2951090E+03  0.7818608E-02  0.1087711E+00
         -1   -1    0    0    0  501 -0.00000000000E+00  0.00000000000E+00  0.35745765354E+03  0.35745765358E+03  0.50400000000E-02 0.  1.
          1   -1    0    0  501    0  0.00000000000E+00 -0.00000000000E+00 -0.94931456184E+03  0.94931456186E+03  0.50400000000E-02 0. -1.
    8880022    1    1    2    0    0 -0.16264539804E+03 -0.19298737769E+03 -0.85926574262E+03  0.90853008916E+03  0.15294330000E+03 0.  0.
    8880022    1    1    2    0    0  0.16264539804E+03  0.19298737769E+03  0.26740883432E+03  0.39824212627E+03  0.15294330000E+03 0.  0.
<mgrwt>
<rscale>  0 0.29510897E+03</rscale>
<asrwt>0</asrwt>
<pdfrwt beam="1">  1        1 0.14604839E+00 0.29510897E+03</pdfrwt>
<pdfrwt beam="2">  1       -1 0.54993486E-01 0.29510897E+03</pdfrwt>
<totfact> 0.60590881E+01</totfact>
</mgrwt>
</event>
<event>
 4    1  0.2293715E-008  0.5471718E+03  0.7818608E-02  0.1002151E+00
         -1   -1    0    0    0  501 -0.00000000000E+00  0.00000000000E+00  0.72449858914E+03  0.72449858915E+03  0.50400000000E-02 0.  1.
          1   -1    0    0  501    0  0.00000000000E+00 -0.00000000000E+00 -0.10500843151E+04  0.10500843151E+04  0.50400000000E-02 0. -1.
    8880022    1    1    2    0    0 -0.14090386836E+03 -0.50611407700E+03  0.52819178051E+03  0.76051533125E+03  0.15294330000E+03 0.  0.
    8880022    1    1    2    0    0  0.14090386836E+03  0.50611407700E+03 -0.85377750645E+03  0.10140675730E+04  0.15294330000E+03 0.  0.
<mgrwt>
<rscale>  0 0.54717183E+03</rscale>
<asrwt>0</asrwt>
<pdfrwt beam="1">  1        1 0.16155143E+00 0.54717183E+03</pdfrwt>
<pdfrwt beam="2">  1       -1 0.11146132E+00 0.54717183E+03</pdfrwt>
<totfact> 0.10923680E+01</totfact>
</mgrwt>
</event>
<event>
 4    1  0.2293715E-008  0.4547126E+03  0.7818608E-02  0.1026326E+00
          1   -1    0    0  501    0  0.00000000000E+00  0.00000000000E+00  0.85462103274E+03  0.85462103275E+03  0.50400000000E-02 0. -1.
         -1   -1    0    0    0  501 -0.00000000000E+00 -0.00000000000E+00 -0.52704873667E+03  0.52704873670E+03  0.50400000000E-02 0.  1.
    8880022    1    1    2    0    0 -0.37282903552E+03 -0.21064286840E+03 -0.34432322998E+03  0.57037009691E+03  0.15294330000E+03 0.  0.
    8880022    1    1    2    0    0  0.37282903552E+03  0.21064286840E+03  0.67189552604E+03  0.81129967254E+03  0.15294330000E+03 0.  0.
<mgrwt>
<rscale>  0 0.45471261E+03</rscale>
<asrwt>0</asrwt>
<pdfrwt beam="1">  1        1 0.13148016E+00 0.45471261E+03</pdfrwt>
<pdfrwt beam="2">  1       -1 0.81084422E-01 0.45471261E+03</pdfrwt>
<totfact> 0.32122895E+01</totfact>
</mgrwt>
</event>
<event>
 4    1  0.2293715E-008  0.9165414E+03  0.7818608E-02  0.9405137E-01
         -1   -1    0    0    0  501 -0.00000000000E+00  0.00000000000E+00  0.56572108430E+03  0.56572108432E+03  0.50400000000E-02 0.  1.
          1   -1    0    0  501    0  0.00000000000E+00 -0.00000000000E+00 -0.20913002330E+04  0.20913002330E+04  0.50400000000E-02 0. -1.
    8880022    1    1    2    0    0 -0.48840800996E+03 -0.76033809131E+03 -0.47419198095E+02  0.91776719850E+03  0.15294330000E+03 0.  0.
    8880022    1    1    2    0    0  0.48840800996E+03  0.76033809131E+03 -0.14781599506E+04  0.17392541189E+04  0.15294330000E+03 0.  0.
<mgrwt>
<rscale>  0 0.91654135E+03</rscale>
<asrwt>0</asrwt>
<pdfrwt beam="1">  1        1 0.32173849E+00 0.91654135E+03</pdfrwt>
<pdfrwt beam="2">  1       -1 0.87034014E-01 0.91654135E+03</pdfrwt>
<totfact> 0.34419597E+00</totfact>
</mgrwt>
</event>
<event>
 4    1  0.2293715E-008  0.3300342E+03  0.7818608E-02  0.1071122E+00
         -1   -1    0    0    0  501 -0.00000000000E+00  0.00000000000E+00  0.23988546022E+03  0.23988546027E+03  0.50400000000E-02 0.  1.
          1   -1    0    0  501    0  0.00000000000E+00 -0.00000000000E+00 -0.86004912230E+03  0.86004912232E+03  0.50400000000E-02 0. -1.
    8880022    1    1    2    0    0 -0.28947829075E+03  0.41631911876E+02  0.67779177580E+02  0.33692219700E+03  0.15294330000E+03 0.  0.
    8880022    1    1    2    0    0  0.28947829075E+03 -0.41631911876E+02 -0.68794283966E+03  0.76301238559E+03  0.15294330000E+03 0.  0.
<mgrwt>
<rscale>  0 0.33003416E+03</rscale>
<asrwt>0</asrwt>
<pdfrwt beam="1">  1        1 0.13231525E+00 0.33003416E+03</pdfrwt>
<pdfrwt beam="2">  1       -1 0.36905456E-01 0.33003416E+03</pdfrwt>
<totfact> 0.14671244E+02</totfact>
</mgrwt>
</event>
<event>
 4    1  0.2293715E-008  0.1712293E+03  0.7818608E-02  0.1176572E+00
          1   -1    0    0  501    0  0.00000000000E+00  0.00000000000E+00  0.30653444224E+02  0.30653444638E+02  0.50400000000E-02 0. -1.
         -1   -1    0    0    0  501 -0.00000000000E+00 -0.00000000000E+00 -0.16859863172E+04  0.16859863173E+04  0.50400000000E-02 0.  1.
    8880022    1    1    2    0    0 -0.75864033391E+02 -0.13133375941E+02 -0.13922599260E+04  0.14027498678E+04  0.15294330000E+03 0.  1.
    8880022    1    1    2    0    0  0.75864033391E+02  0.13133375941E+02 -0.26307294701E+03  0.31388989406E+03  0.15294330000E+03 0.  0.
<mgrwt>
<rscale>  0 0.17122935E+03</rscale>
<asrwt>0</asrwt>
<pdfrwt beam="1">  1        1 0.47159158E-02 0.17122935E+03</pdfrwt>
<pdfrwt beam="2">  1       -1 0.25938244E+00 0.17122935E+03</pdfrwt>
<totfact> 0.12666061E+02</totfact>
</mgrwt>
</event>
<event>
 4    1  0.2293715E-008  0.5367609E+03  0.7818608E-02  0.1004606E+00
          1   -1    0    0  501    0  0.00000000000E+00  0.00000000000E+00  0.13737352262E+04  0.13737352262E+04  0.50400000000E-02 0. -1.
         -1   -1    0    0    0  501 -0.00000000000E+00 -0.00000000000E+00 -0.55465007513E+03  0.55465007515E+03  0.50400000000E-02 0.  1.
    8880022    1    1    2    0    0 -0.47911292453E+03 -0.18754032573E+03 -0.35080837952E+03  0.64123220473E+03  0.15294330000E+03 0.  0.
    8880022    1    1    2    0    0  0.47911292453E+03  0.18754032573E+03  0.11698935306E+04  0.12871530966E+04  0.15294330000E+03 0.  0.
<mgrwt>
<rscale>  0 0.53676086E+03</rscale>
<asrwt>0</asrwt>
<pdfrwt beam="1">  1        1 0.21134388E+00 0.53676086E+03</pdfrwt>
<pdfrwt beam="2">  1       -1 0.85330780E-01 0.53676086E+03</pdfrwt>
<totfact> 0.11695527E+01</totfact>
</mgrwt>
</event>
<event>
 4    1  0.2293715E-008  0.2951256E+03  0.7818608E-02  0.1087703E+00
         -1   -1    0    0    0  501 -0.00000000000E+00  0.00000000000E+00  0.47465479890E+03  0.47465479893E+03  0.50400000000E-02 0.  1.
          1   -1    0    0  501    0  0.00000000000E+00 -0.00000000000E+00 -0.42822638189E+03  0.42822638192E+03  0.50400000000E-02 0. -1.
    8880022    1    1    2    0    0  0.24673871176E+03 -0.53174158641E+02  0.36448909182E+03  0.46898980170E+03  0.15294330000E+03 0.  1.
    8880022    1    1    2    0    0 -0.24673871176E+03  0.53174158641E+02 -0.31806067480E+03  0.43389137915E+03  0.15294330000E+03 0.  0.
<mgrwt>
<rscale>  0 0.29512563E+03</rscale>
<asrwt>0</asrwt>
<pdfrwt beam="1">  1        1 0.65880982E-01 0.29512563E+03</pdfrwt>
<pdfrwt beam="2">  1       -1 0.73023815E-01 0.29512563E+03</pdfrwt>
<totfact> 0.10995863E+02</totfact>
</mgrwt>
</event>
<event>
 4    1  0.2293715E-008  0.5808712E+03  0.7818608E-02  0.9945907E-01
          1   -1    0    0  501    0  0.00000000000E+00  0.00000000000E+00  0.68225509295E+03  0.68225509296E+03  0.50400000000E-02 0. -1.
         -1   -1    0    0    0  501 -0.00000000000E+00 -0.00000000000E+00 -0.10122780188E+04  0.10122780188E+04  0.50400000000E-02 0.  1.
    8880022    1    1    2    0    0  0.55355582569E+03 -0.87153298978E+02 -0.77093758485E+03  0.96527517446E+03  0.15294330000E+03 0.  0.
    8880022    1    1    2    0    0 -0.55355582569E+03  0.87153298978E+02  0.44091465897E+03  0.72925793735E+03  0.15294330000E+03 0.  0.
<mgrwt>
<rscale>  0 0.58087124E+03</rscale>
<asrwt>0</asrwt>
<pdfrwt beam="1">  1        1 0.10496232E+00 0.58087124E+03</pdfrwt>
<pdfrwt beam="2">  1       -1 0.15573508E+00 0.58087124E+03</pdfrwt>
<totfact> 0.94378717E+00</totfact>
</mgrwt>
</event>
<event>
 4    1  0.2293715E-008  0.4089655E+03  0.7818608E-02  0.1040719E+00
          1   -1    0    0  501    0  0.00000000000E+00  0.00000000000E+00  0.33812250671E+04  0.33812250671E+04  0.50400000000E-02 0. -1.
         -1   -1    0    0    0  501 -0.00000000000E+00 -0.00000000000E+00 -0.93600772920E+02  0.93600773056E+02  0.50400000000E-02 0.  1.
    8880022    1    1    2    0    0  0.37559618157E+03 -0.52807569771E+02  0.28368603487E+04  0.28661872622E+04  0.15294330000E+03 0.  0.
    8880022    1    1    2    0    0 -0.37559618157E+03  0.52807569771E+02  0.45076394557E+03  0.60863857803E+03  0.15294330000E+03 0.  0.
<mgrwt>
<rscale>  0 0.40896550E+03</rscale>
<asrwt>0</asrwt>
<pdfrwt beam="1">  1        1 0.52018839E+00 0.40896550E+03</pdfrwt>
<pdfrwt beam="2">  1       -1 0.14400121E-01 0.40896550E+03</pdfrwt>
<totfact> 0.12578479E+01</totfact>
</mgrwt>
</event>
<event>
 4    1  0.2641508E-008  0.5771597E+03  0.7818608E-02  0.9953959E-01
          1   -1    0    0  501    0  0.00000000000E+00  0.00000000000E+00  0.13291077234E+04  0.13291077234E+04  0.50400000000E-02 0. -1.
         -1   -1    0    0    0  501 -0.00000000000E+00 -0.00000000000E+00 -0.12588229851E+04  0.12588229851E+04  0.50400000000E-02 0.  1.
    8880022    1    1    2    0    0 -0.52016526650E+03 -0.19786306646E+03  0.11931523449E+04  0.13254153571E+04  0.15294330000E+03 0.  0.
    8880022    1    1    2    0    0  0.52016526650E+03  0.19786306646E+03 -0.11228676066E+04  0.12625153514E+04  0.15294330000E+03 0.  0.
<mgrwt>
<rscale>  0 0.57715973E+03</rscale>
<asrwt>0</asrwt>
<pdfrwt beam="1">  1        1 0.20447811E+00 0.57715973E+03</pdfrwt>
<pdfrwt beam="2">  1       -1 0.19366507E+00 0.57715973E+03</pdfrwt>
<totfact> 0.15642388E+00</totfact>
</mgrwt>
</event>
<event>
 4    1  0.2293715E-008  0.2160992E+03  0.7818608E-02  0.1136825E+00
          1   -1    0    0  501    0  0.00000000000E+00  0.00000000000E+00  0.47699237362E+03  0.47699237365E+03  0.50400000000E-02 0. -1.
         -1   -1    0    0    0  501 -0.00000000000E+00 -0.00000000000E+00 -0.12399118434E+03  0.12399118444E+03  0.50400000000E-02 0.  1.
    8880022    1    1    2    0    0 -0.14418305371E+03  0.50184059121E+02  0.38664951615E+02  0.21953091870E+03  0.15294330000E+03 0.  0.
    8880022    1    1    2    0    0  0.14418305371E+03 -0.50184059121E+02  0.31433623767E+03  0.38145263939E+03  0.15294330000E+03 0. -1.
<mgrwt>
<rscale>  0 0.21609916E+03</rscale>
<asrwt>0</asrwt>
<pdfrwt beam="1">  1        1 0.73383442E-01 0.21609916E+03</pdfrwt>
<pdfrwt beam="2">  1       -1 0.19075567E-01 0.21609916E+03</pdfrwt>
<totfact> 0.10481319E+03</totfact>
</mgrwt>
</event>
<event>
 4    1  0.2293715E-008  0.1952801E+03  0.7818608E-02  0.1153783E+00
          1   -1    0    0  501    0  0.00000000000E+00  0.00000000000E+00  0.21626847239E+04  0.21626847239E+04  0.50400000000E-02 0. -1.
         -1   -1    0    0    0  501 -0.00000000000E+00 -0.00000000000E+00 -0.23017809252E+03  0.23017809257E+03  0.50400000000E-02 0.  1.
    8880022    1    1    2    0    0  0.12130992716E+03 -0.51555909720E+01 -0.18343863078E+03  0.26792547998E+03  0.15294330000E+03 0.  0.
    8880022    1    1    2    0    0 -0.12130992716E+03  0.51555909720E+01  0.21159452622E+04  0.21249373365E+04  0.15294330000E+03 0.  0.
<mgrwt>
<rscale>  0 0.19528014E+03</rscale>
<asrwt>0</asrwt>
<pdfrwt beam="1">  1        1 0.33272072E+00 0.19528014E+03</pdfrwt>
<pdfrwt beam="2">  1       -1 0.35412015E-01 0.19528014E+03</pdfrwt>
<totfact> 0.21301962E+01</totfact>
</mgrwt>
</event>
<event>
 4    1  0.2293715E-008  0.3963460E+03  0.7818608E-02  0.1045052E+00
         -1   -1    0    0    0  501 -0.00000000000E+00  0.00000000000E+00  0.48913136871E+03  0.48913136873E+03  0.50400000000E-02 0.  1.
          1   -1    0    0  501    0  0.00000000000E+00 -0.00000000000E+00 -0.85278801898E+03  0.85278801900E+03  0.50400000000E-02 0. -1.
    8880022    1    1    2    0    0 -0.36529340641E+03 -0.16099712697E+02  0.34793176391E+03  0.52739609296E+03  0.15294330000E+03 0.  0.
    8880022    1    1    2    0    0  0.36529340641E+03  0.16099712697E+02 -0.71158841419E+03  0.81452329478E+03  0.15294330000E+03 0. -1.
<mgrwt>
<rscale>  0 0.39634597E+03</rscale>
<asrwt>0</asrwt>
<pdfrwt beam="1">  1        1 0.13119816E+00 0.39634597E+03</pdfrwt>
<pdfrwt beam="2">  1       -1 0.75250980E-01 0.39634597E+03</pdfrwt>
<totfact> 0.38075998E+01</totfact>
</mgrwt>
</event>
<event>
 4    1  0.2293715E-008  0.8469967E+03  0.7818608E-02  0.9494377E-01
          1   -1    0    0  501    0  0.00000000000E+00  0.00000000000E+00  0.14761643022E+04  0.14761643022E+04  0.50400000000E-02 0. -1.
         -1   -1    0    0    0  501 -0.00000000000E+00 -0.00000000000E+00 -0.19017173950E+04  0.19017173950E+04  0.50400000000E-02 0.  1.
    8880022    1    1    2    0    0 -0.64985331831E+03 -0.52125080812E+03  0.12444632689E+04  0.15053545167E+04  0.15294330000E+03 0. -1.
    8880022    1    1    2    0    0  0.64985331831E+03  0.52125080812E+03 -0.16700163617E+04  0.18725271805E+04  0.15294330000E+03 0.  0.
<mgrwt>
<rscale>  0 0.84699669E+03</rscale>
<asrwt>0</asrwt>
<pdfrwt beam="1">  1        1 0.22710220E+00 0.84699669E+03</pdfrwt>
<pdfrwt beam="2">  1       -1 0.29257191E+00 0.84699669E+03</pdfrwt>
<totfact> 0.26247009E-01</totfact>
</mgrwt>
</event>
<event>
 4    1  0.2293715E-008  0.5020148E+03  0.7818608E-02  0.1013254E+00
          1   -1    0    0  501    0  0.00000000000E+00  0.00000000000E+00  0.95179518942E+03  0.95179518944E+03  0.50400000000E-02 0. -1.
         -1   -1    0    0    0  501 -0.00000000000E+00 -0.00000000000E+00 -0.55147102372E+03  0.55147102374E+03  0.50400000000E-02 0.  1.
    8880022    1    1    2    0    0  0.17116488866E+03 -0.44646367095E+03  0.74210003920E+03  0.89595276091E+03  0.15294330000E+03 0.  0.
    8880022    1    1    2    0    0 -0.17116488866E+03  0.44646367095E+03 -0.34177587349E+03  0.60731345227E+03  0.15294330000E+03 0.  0.
<mgrwt>
<rscale>  0 0.50201482E+03</rscale>
<asrwt>0</asrwt>
<pdfrwt beam="1">  1        1 0.14643003E+00 0.50201482E+03</pdfrwt>
<pdfrwt beam="2">  1       -1 0.84841696E-01 0.50201482E+03</pdfrwt>
<totfact> 0.24176969E+01</totfact>
</mgrwt>
</event>
<event>
 4    1  0.2293715E-008  0.3563747E+03  0.7818608E-02  0.1060029E+00
         -1   -1    0    0    0  501 -0.00000000000E+00  0.00000000000E+00  0.14447478583E+03  0.14447478591E+03  0.50400000000E-02 0.  1.
          1   -1    0    0  501    0  0.00000000000E+00 -0.00000000000E+00 -0.11705047118E+04  0.11705047118E+04  0.50400000000E-02 0. -1.
    8880022    1    1    2    0    0  0.30410627986E+03 -0.10550196286E+03 -0.84109185184E+03  0.91347602589E+03  0.15294330000E+03 0.  0.
    8880022    1    1    2    0    0 -0.30410627986E+03  0.10550196286E+03 -0.18493807413E+03  0.40150347184E+03  0.15294330000E+03 0.  0.
<mgrwt>
<rscale>  0 0.35637473E+03</rscale>
<asrwt>0</asrwt>
<pdfrwt beam="1">  1        1 0.18007764E+00 0.35637473E+03</pdfrwt>
<pdfrwt beam="2">  1       -1 0.22226891E-01 0.35637473E+03</pdfrwt>
<totfact> 0.20252880E+02</totfact>
</mgrwt>
</event>
<event>
 4    1  0.2293715E-008  0.7203777E+03  0.7818608E-02  0.9683005E-01
         -1   -1    0    0    0  501 -0.00000000000E+00  0.00000000000E+00  0.19267291672E+04  0.19267291672E+04  0.50400000000E-02 0.  1.
          1   -1    0    0  501    0  0.00000000000E+00 -0.00000000000E+00 -0.59500067338E+03  0.59500067341E+03  0.50400000000E-02 0. -1.
    8880022    1    1    2    0    0  0.42322354202E+03 -0.56252480423E+03 -0.26694518206E+03  0.76824716410E+03  0.15294330000E+03 0.  0.
    8880022    1    1    2    0    0 -0.42322354202E+03  0.56252480423E+03  0.15986736759E+04  0.17534826766E+04  0.15294330000E+03 0.  0.
<mgrwt>
<rscale>  0 0.72037766E+03</rscale>
<asrwt>0</asrwt>
<pdfrwt beam="1">  1        1 0.91538565E-01 0.72037766E+03</pdfrwt>
<pdfrwt beam="2">  1       -1 0.29641987E+00 0.72037766E+03</pdfrwt>
<totfact> 0.12801903E+00</totfact>
</mgrwt>
</event>
<event>
 4    1  0.2430164E-008  0.8850038E+03  0.7818608E-02  0.9444524E-01
          1   -1    0    0  501    0  0.00000000000E+00  0.00000000000E+00  0.11855625861E+04  0.11855625861E+04  0.50400000000E-02 0. -1.
         -1   -1    0    0    0  501 -0.00000000000E+00 -0.00000000000E+00 -0.13226348635E+04  0.13226348635E+04  0.50400000000E-02 0.  1.
    8880022    1    1    2    0    0  0.20052332127E+01 -0.87168577963E+03  0.81869868855E+03  0.12056115938E+04  0.15294330000E+03 0.  0.
    8880022    1    1    2    0    0 -0.20052332127E+01  0.87168577963E+03 -0.95577096598E+03  0.13025858558E+04  0.15294330000E+03 0.  0.
<mgrwt>
<rscale>  0 0.88500383E+03</rscale>
<asrwt>0</asrwt>
<pdfrwt beam="1">  1        1 0.18239425E+00 0.88500383E+03</pdfrwt>
<pdfrwt beam="2">  1       -1 0.20348228E+00 0.88500383E+03</pdfrwt>
<totfact> 0.15945324E+00</totfact>
</mgrwt>
</event>
<event>
 4    1  0.2293715E-008  0.3791532E+03  0.7818608E-02  0.1051247E+00
         -1   -1    0    0    0  501 -0.00000000000E+00  0.00000000000E+00  0.15581635054E+03  0.15581635062E+03  0.50400000000E-02 0.  1.
          1   -1    0    0  501    0  0.00000000000E+00 -0.00000000000E+00 -0.31652314573E+04  0.31652314573E+04  0.50400000000E-02 0. -1.
    8880022    1    1    2    0    0 -0.71631365348E+02 -0.33946198845E+03 -0.10698575035E+03  0.39395824385E+03  0.15294330000E+03 0.  1.
    8880022    1    1    2    0    0  0.71631365348E+02  0.33946198845E+03 -0.29024293564E+04  0.29270895640E+04  0.15294330000E+03 0.  0.
<mgrwt>
<rscale>  0 0.37915320E+03</rscale>
<asrwt>0</asrwt>
<pdfrwt beam="1">  1        1 0.48695864E+00 0.37915320E+03</pdfrwt>
<pdfrwt beam="2">  1       -1 0.23971749E-01 0.37915320E+03</pdfrwt>
<totfact> 0.79546712E+00</totfact>
</mgrwt>
</event>
<event>
 4    1  0.2741271E-008  0.6766076E+03  0.7818608E-02  0.9758094E-01
          1   -1    0    0  501    0  0.00000000000E+00  0.00000000000E+00  0.12549309977E+04  0.12549309977E+04  0.50400000000E-02 0. -1.
         -1   -1    0    0    0  501 -0.00000000000E+00 -0.00000000000E+00 -0.16809001295E+04  0.16809001295E+04  0.50400000000E-02 0.  1.
    8880022    1    1    2    0    0 -0.44012080370E+03  0.49061179217E+03  0.10859124140E+04  0.12794544448E+04  0.15294330000E+03 0.  0.
    8880022    1    1    2    0    0  0.44012080370E+03 -0.49061179217E+03 -0.15118815458E+04  0.16563766824E+04  0.15294330000E+03 0.  0.
<mgrwt>
<rscale>  0 0.67660765E+03</rscale>
<asrwt>0</asrwt>
<pdfrwt beam="1">  1        1 0.19306631E+00 0.67660765E+03</pdfrwt>
<pdfrwt beam="2">  1       -1 0.25860002E+00 0.67660765E+03</pdfrwt>
<totfact> 0.64259998E-01</totfact>
</mgrwt>
</event>
<event>
 4    1  0.2293715E-008  0.1362148E+04  0.7818608E-02  0.8981683E-01
         -1   -1    0    0    0  501 -0.00000000000E+00  0.00000000000E+00  0.73855709279E+03  0.73855709281E+03  0.50400000000E-02 0.  1.
          1   -1    0    0  501    0  0.00000000000E+00 -0.00000000000E+00 -0.26835350864E+04  0.26835350865E+04  0.50400000000E-02 0. -1.
    8880022    1    1    2    0    0 -0.62006823115E+03 -0.12031509189E+04 -0.14047574340E+04  0.19567298859E+04  0.15294330000E+03 0.  0.
    8880022    1    1    2    0    0  0.62006823115E+03  0.12031509189E+04 -0.54022055965E+03  0.14653622934E+04  0.15294330000E+03 0.  0.
<mgrwt>
<rscale>  0 0.13621484E+04</rscale>
<asrwt>0</asrwt>
<pdfrwt beam="1">  1        1 0.41285155E+00 0.13621484E+04</pdfrwt>
<pdfrwt beam="2">  1       -1 0.11362417E+00 0.13621484E+04</pdfrwt>
<totfact> 0.69118749E-01</totfact>
</mgrwt>
</event>
<event>
 4    1  0.3310933E-008  0.8841779E+03  0.7818608E-02  0.9445579E-01
         -1   -1    0    0    0  501 -0.00000000000E+00  0.00000000000E+00  0.14004804060E+04  0.14004804061E+04  0.50400000000E-02 0.  1.
          1   -1    0    0  501    0  0.00000000000E+00 -0.00000000000E+00 -0.15323050768E+04  0.15323050769E+04  0.50400000000E-02 0. -1.
    8880022    1    1    2    0    0 -0.60390248022E+03  0.62743973696E+03  0.11032559673E+04  0.14138402355E+04  0.15294330000E+03 0.  0.
    8880022    1    1    2    0    0  0.60390248022E+03 -0.62743973696E+03 -0.12350806381E+04  0.15189452474E+04  0.15294330000E+03 0.  0.
<mgrwt>
<rscale>  0 0.88417786E+03</rscale>
<asrwt>0</asrwt>
<pdfrwt beam="1">  1        1 0.23573924E+00 0.88417786E+03</pdfrwt>
<pdfrwt beam="2">  1       -1 0.21545852E+00 0.88417786E+03</pdfrwt>
<totfact> 0.75439009E-01</totfact>
</mgrwt>
</event>
<event>
 4    1  0.2293715E-008  0.8999729E+03  0.7818608E-02  0.9425615E-01
         -1   -1    0    0    0  501 -0.00000000000E+00  0.00000000000E+00  0.56569994937E+03  0.56569994940E+03  0.50400000000E-02 0.  1.
          1   -1    0    0  501    0  0.00000000000E+00 -0.00000000000E+00 -0.16373475935E+04  0.16373475935E+04  0.50400000000E-02 0. -1.
    8880022    1    1    2    0    0 -0.21299759482E+03 -0.86092483211E+03 -0.92613701166E+03  0.12913872228E+04  0.15294330000E+03 0.  0.
    8880022    1    1    2    0    0  0.21299759482E+03  0.86092483211E+03 -0.14551063243E+03  0.91166032003E+03  0.15294330000E+03 0.  0.
<mgrwt>
<rscale>  0 0.89997289E+03</rscale>
<asrwt>0</asrwt>
<pdfrwt beam="1">  1        1 0.25189963E+00 0.89997289E+03</pdfrwt>
<pdfrwt beam="2">  1       -1 0.87030762E-01 0.89997289E+03</pdfrwt>
<totfact> 0.69754039E+00</totfact>
</mgrwt>
</event>
<event>
 4    1  0.2293715E-008  0.4421321E+03  0.7818608E-02  0.1030095E+00
          1   -1    0    0  501    0  0.00000000000E+00  0.00000000000E+00  0.25043023305E+04  0.25043023305E+04  0.50400000000E-02 0. -1.
         -1   -1    0    0    0  501 -0.00000000000E+00 -0.00000000000E+00 -0.25387795883E+03  0.25387795888E+03  0.50400000000E-02 0.  1.
    8880022    1    1    2    0    0  0.25585318166E+03 -0.32653990667E+03  0.22728748448E+04  0.23154785411E+04  0.15294330000E+03 0.  0.
    8880022    1    1    2    0    0 -0.25585318166E+03  0.32653990667E+03 -0.22450473074E+02  0.44270174832E+03  0.15294330000E+03 0.  0.
<mgrwt>
<rscale>  0 0.44213212E+03</rscale>
<asrwt>0</asrwt>
<pdfrwt beam="1">  1        1 0.38527726E+00 0.44213212E+03</pdfrwt>
<pdfrwt beam="2">  1       -1 0.39058150E-01 0.44213212E+03</pdfrwt>
<totfact> 0.96501600E+00</totfact>
</mgrwt>
</event>
<event>
 4    1  0.2293715E-008  0.6849358E+03  0.7818608E-02  0.9743347E-01
          1   -1    0    0  501    0  0.00000000000E+00  0.00000000000E+00  0.11967620673E+04  0.11967620673E+04  0.50400000000E-02 0. -1.
         -1   -1    0    0    0  501 -0.00000000000E+00 -0.00000000000E+00 -0.39664207351E+03  0.39664207354E+03  0.50400000000E-02 0.  1.
    8880022    1    1    2    0    0 -0.66742281312E+03 -0.17093232790E+02  0.31391983625E+03  0.75344721559E+03  0.15294330000E+03 0.  0.
    8880022    1    1    2    0    0  0.66742281312E+03  0.17093232790E+02  0.48620015754E+03  0.83995692525E+03  0.15294330000E+03 0.  0.
<mgrwt>
<rscale>  0 0.68493579E+03</rscale>
<asrwt>0</asrwt>
<pdfrwt beam="1">  1        1 0.18411724E+00 0.68493579E+03</pdfrwt>
<pdfrwt beam="2">  1       -1 0.61021859E-01 0.68493579E+03</pdfrwt>
<totfact> 0.30343435E+01</totfact>
</mgrwt>
</event>
<event>
 4    1  0.2293715E-008  0.1148218E+04  0.7818608E-02  0.9159429E-01
         -1   -1    0    0    0  501 -0.00000000000E+00  0.00000000000E+00  0.14487920462E+04  0.14487920462E+04  0.50400000000E-02 0.  1.
          1   -1    0    0  501    0  0.00000000000E+00 -0.00000000000E+00 -0.11686997931E+04  0.11686997932E+04  0.50400000000E-02 0. -1.
    8880022    1    1    2    0    0  0.45158796947E+03  0.10445481654E+04  0.75578971185E+03  0.13746353355E+04  0.15294330000E+03 0.  0.
    8880022    1    1    2    0    0 -0.45158796947E+03 -0.10445481654E+04 -0.47569745877E+03  0.12428565039E+04  0.15294330000E+03 0.  0.
<mgrwt>
<rscale>  0 0.11482178E+04</rscale>
<asrwt>0</asrwt>
<pdfrwt beam="1">  1        1 0.17979997E+00 0.11482178E+04</pdfrwt>
<pdfrwt beam="2">  1       -1 0.22289108E+00 0.11482178E+04</pdfrwt>
<totfact> 0.11701943E+00</totfact>
</mgrwt>
</event>
<event>
 4    1  0.2293715E-008  0.1906047E+04  0.7818608E-02  0.8651852E-01
          1   -1    0    0  501    0  0.00000000000E+00  0.00000000000E+00  0.16803063048E+04  0.16803063048E+04  0.50400000000E-02 0. -1.
         -1   -1    0    0    0  501 -0.00000000000E+00 -0.00000000000E+00 -0.23324603018E+04  0.23324603018E+04  0.50400000000E-02 0.  1.
    8880022    1    1    2    0    0  0.11506291078E+04  0.15118454552E+04  0.21613820946E+03  0.19182626001E+04  0.15294330000E+03 0.  0.
    8880022    1    1    2    0    0 -0.11506291078E+04 -0.15118454552E+04 -0.86829220648E+03  0.20945040065E+04  0.15294330000E+03 0.  0.
<mgrwt>
<rscale>  0 0.19060471E+04</rscale>
<asrwt>0</asrwt>
<pdfrwt beam="1">  1        1 0.25850866E+00 0.19060471E+04</pdfrwt>
<pdfrwt beam="2">  1       -1 0.35884005E+00 0.19060471E+04</pdfrwt>
<totfact> 0.60164077E-02</totfact>
</mgrwt>
</event>
<event>
 4    1  0.2293715E-008  0.1821737E+03  0.7818608E-02  0.1165716E+00
         -1   -1    0    0    0  501 -0.00000000000E+00  0.00000000000E+00  0.13240701669E+04  0.13240701669E+04  0.50400000000E-02 0.  1.
          1   -1    0    0  501    0  0.00000000000E+00 -0.00000000000E+00 -0.99152899060E+03  0.99152899061E+03  0.50400000000E-02 0. -1.
    8880022    1    1    2    0    0 -0.70023984013E+02  0.69944539873E+02  0.13093426601E+04  0.13219551625E+04  0.15294330000E+03 0.  1.
    8880022    1    1    2    0    0  0.70023984013E+02 -0.69944539873E+02 -0.97680148384E+03  0.99364399502E+03  0.15294330000E+03 0.  0.
<mgrwt>
<rscale>  0 0.18217368E+03</rscale>
<asrwt>0</asrwt>
<pdfrwt beam="1">  1        1 0.15254292E+00 0.18217368E+03</pdfrwt>
<pdfrwt beam="2">  1       -1 0.20370310E+00 0.18217368E+03</pdfrwt>
<totfact> 0.27653509E+00</totfact>
</mgrwt>
</event>
<event>
 4    1  0.2293715E-008  0.7639375E+03  0.7818608E-02  0.9613735E-01
          1   -1    0    0  501    0  0.00000000000E+00  0.00000000000E+00  0.10564125752E+04  0.10564125752E+04  0.50400000000E-02 0. -1.
         -1   -1    0    0    0  501 -0.00000000000E+00 -0.00000000000E+00 -0.62549744474E+03  0.62549744476E+03  0.50400000000E-02 0.  1.
    8880022    1    1    2    0    0  0.73914095866E+03 -0.11781108500E+03 -0.71953689774E+02  0.76731857465E+03  0.15294330000E+03 0.  0.
    8880022    1    1    2    0    0 -0.73914095866E+03  0.11781108500E+03  0.50286882026E+03  0.91459144536E+03  0.15294330000E+03 0.  0.
<mgrwt>
<rscale>  0 0.76393747E+03</rscale>
<asrwt>0</asrwt>
<pdfrwt beam="1">  1        1 0.16252501E+00 0.76393747E+03</pdfrwt>
<pdfrwt beam="2">  1       -1 0.96230378E-01 0.76393747E+03</pdfrwt>
<totfact> 0.14650773E+01</totfact>
</mgrwt>
</event>
<event>
 4    1  0.2293715E-008  0.3238327E+03  0.7818608E-02  0.1073899E+00
         -1   -1    0    0    0  501 -0.00000000000E+00  0.00000000000E+00  0.26782013829E+03  0.26782013834E+03  0.50400000000E-02 0.  1.
          1   -1    0    0  501    0  0.00000000000E+00 -0.00000000000E+00 -0.57440434287E+03  0.57440434289E+03  0.50400000000E-02 0. -1.
    8880022    1    1    2    0    0  0.91346864037E+02 -0.27042874839E+03 -0.39088308941E+03  0.50759944851E+03  0.15294330000E+03 0.  0.
    8880022    1    1    2    0    0 -0.91346864037E+02  0.27042874839E+03  0.84298884826E+02  0.33462503272E+03  0.15294330000E+03 0.  1.
<mgrwt>
<rscale>  0 0.32383269E+03</rscale>
<asrwt>0</asrwt>
<pdfrwt beam="1">  1        1 0.88369899E-01 0.32383269E+03</pdfrwt>
<pdfrwt beam="2">  1       -1 0.41203098E-01 0.32383269E+03</pdfrwt>
<totfact> 0.21959181E+02</totfact>
</mgrwt>
</event>
<event>
 4    1  0.3176460E-008  0.7837188E+03  0.7818608E-02  0.9583887E-01
          1   -1    0    0  501    0  0.00000000000E+00  0.00000000000E+00  0.18746322215E+04  0.18746322215E+04  0.50400000000E-02 0. -1.
         -1   -1    0    0    0  501 -0.00000000000E+00 -0.00000000000E+00 -0.95254504932E+03  0.95254504934E+03  0.50400000000E-02 0.  1.
    8880022    1    1    2    0    0 -0.95938164872E+02 -0.76263970062E+03 -0.68390328769E+03  0.10401628740E+04  0.15294330000E+03 0.  0.
    8880022    1    1    2    0    0  0.95938164872E+02  0.76263970062E+03  0.16059904598E+04  0.17870143968E+04  0.15294330000E+03 0.  0.
<mgrwt>
<rscale>  0 0.78371876E+03</rscale>
<asrwt>0</asrwt>
<pdfrwt beam="1">  1        1 0.28840496E+00 0.78371876E+03</pdfrwt>
<pdfrwt beam="2">  1       -1 0.14654539E+00 0.78371876E+03</pdfrwt>
<totfact> 0.14103399E+00</totfact>
</mgrwt>
</event>
<event>
 4    1  0.2293715E-008  0.7402896E+03  0.7818608E-02  0.9650709E-01
          1   -1    0    0  501    0  0.00000000000E+00  0.00000000000E+00  0.21248394716E+04  0.21248394716E+04  0.50400000000E-02 0. -1.
         -1   -1    0    0    0  501 -0.00000000000E+00 -0.00000000000E+00 -0.38647787806E+03  0.38647787809E+03  0.50400000000E-02 0.  1.
    8880022    1    1    2    0    0 -0.62218822237E+03  0.37083535045E+03  0.14496748950E+03  0.75435022849E+03  0.15294330000E+03 0.  0.
    8880022    1    1    2    0    0  0.62218822237E+03 -0.37083535045E+03  0.15933941041E+04  0.17569671212E+04  0.15294330000E+03 0.  0.
<mgrwt>
<rscale>  0 0.74028960E+03</rscale>
<asrwt>0</asrwt>
<pdfrwt beam="1">  1        1 0.32689838E+00 0.74028960E+03</pdfrwt>
<pdfrwt beam="2">  1       -1 0.59458136E-01 0.74028960E+03</pdfrwt>
<totfact> 0.73908254E+00</totfact>
</mgrwt>
</event>
<event>
 4    1  0.2293715E-008  0.4132324E+03  0.7818608E-02  0.1039292E+00
         -1   -1    0    0    0  501 -0.00000000000E+00  0.00000000000E+00  0.94339494978E+02  0.94339495113E+02  0.50400000000E-02 0.  1.
          1   -1    0    0  501    0  0.00000000000E+00 -0.00000000000E+00 -0.29561072390E+04  0.29561072390E+04  0.50400000000E-02 0. -1.
    8880022    1    1    2    0    0  0.37873006819E+03 -0.62712694284E+02 -0.48121346771E+03  0.63429283544E+03  0.15294330000E+03 0.  0.
    8880022    1    1    2    0    0 -0.37873006819E+03  0.62712694284E+02 -0.23805542763E+04  0.24161538986E+04  0.15294330000E+03 0.  0.
<mgrwt>
<rscale>  0 0.41323238E+03</rscale>
<asrwt>0</asrwt>
<pdfrwt beam="1">  1        1 0.45478566E+00 0.41323238E+03</pdfrwt>
<pdfrwt beam="2">  1       -1 0.14513771E-01 0.41323238E+03</pdfrwt>
<totfact> 0.25207772E+01</totfact>
</mgrwt>
</event>
<event>
 4    1  0.2293715E-008  0.2475701E+03  0.7818608E-02  0.1114850E+00
         -1   -1    0    0    0  501 -0.00000000000E+00  0.00000000000E+00  0.28232142543E+03  0.28232142547E+03  0.50400000000E-02 0.  1.
          1   -1    0    0  501    0  0.00000000000E+00 -0.00000000000E+00 -0.16100923334E+04  0.16100923334E+04  0.50400000000E-02 0. -1.
    8880022    1    1    2    0    0  0.16390359925E+03 -0.10504724340E+03 -0.15439927756E+04  0.15637150179E+04  0.15294330000E+03 0.  0.
    8880022    1    1    2    0    0 -0.16390359925E+03  0.10504724340E+03  0.21622186767E+03  0.32869874090E+03  0.15294330000E+03 0.  1.
<mgrwt>
<rscale>  0 0.24757012E+03</rscale>
<asrwt>0</asrwt>
<pdfrwt beam="1">  1        1 0.24770651E+00 0.24757012E+03</pdfrwt>
<pdfrwt beam="2">  1       -1 0.43434066E-01 0.24757012E+03</pdfrwt>
<totfact> 0.32984363E+01</totfact>
</mgrwt>
</event>
<event>
 4    1  0.2293715E-008  0.4691154E+03  0.7818608E-02  0.1022170E+00
         -1   -1    0    0    0  501 -0.00000000000E+00  0.00000000000E+00  0.10207077515E+04  0.10207077515E+04  0.50400000000E-02 0.  1.
          1   -1    0    0  501    0  0.00000000000E+00 -0.00000000000E+00 -0.36571533249E+03  0.36571533253E+03  0.50400000000E-02 0. -1.
    8880022    1    1    2    0    0  0.41225504762E+03 -0.16347301238E+03 -0.11662350253E+03  0.48339460529E+03  0.15294330000E+03 0.  0.
    8880022    1    1    2    0    0 -0.41225504762E+03  0.16347301238E+03  0.77161592155E+03  0.90302847877E+03  0.15294330000E+03 0.  0.
<mgrwt>
<rscale>  0 0.46911545E+03</rscale>
<asrwt>0</asrwt>
<pdfrwt beam="1">  1        1 0.56263898E-01 0.46911545E+03</pdfrwt>
<pdfrwt beam="2">  1       -1 0.15703196E+00 0.46911545E+03</pdfrwt>
<totfact> 0.22112824E+01</totfact>
</mgrwt>
</event>
<event>
 4    1  0.2351681E-008  0.9035915E+03  0.7818608E-02  0.9421103E-01
         -1   -1    0    0    0  501 -0.00000000000E+00  0.00000000000E+00  0.19310511591E+04  0.19310511591E+04  0.50400000000E-02 0.  1.
          1   -1    0    0  501    0  0.00000000000E+00 -0.00000000000E+00 -0.86170119384E+03  0.86170119386E+03  0.50400000000E-02 0. -1.
    8880022    1    1    2    0    0  0.86309283793E+03 -0.21944637633E+03 -0.46187706928E+03  0.10147945798E+04  0.15294330000E+03 0.  0.
    8880022    1    1    2    0    0 -0.86309283793E+03  0.21944637633E+03  0.15312270346E+04  0.17779577732E+04  0.15294330000E+03 0.  0.
<mgrwt>
<rscale>  0 0.90359151E+03</rscale>
<asrwt>0</asrwt>
<pdfrwt beam="1">  1        1 0.13256942E+00 0.90359151E+03</pdfrwt>
<pdfrwt beam="2">  1       -1 0.29708479E+00 0.90359151E+03</pdfrwt>
<totfact> 0.69504774E-01</totfact>
</mgrwt>
</event>
<event>
 4    1  0.2293715E-008  0.3373084E+03  0.7818608E-02  0.1067948E+00
         -1   -1    0    0    0  501 -0.00000000000E+00  0.00000000000E+00  0.41686305197E+03  0.41686305200E+03  0.50400000000E-02 0.  1.
          1   -1    0    0  501    0  0.00000000000E+00 -0.00000000000E+00 -0.77671944381E+03  0.77671944382E+03  0.50400000000E-02 0. -1.
    8880022    1    1    2    0    0 -0.28919107627E+03  0.82181458187E+02 -0.66055978719E+03  0.74169815702E+03  0.15294330000E+03 0.  0.
    8880022    1    1    2    0    0  0.28919107627E+03 -0.82181458187E+02  0.30070339535E+03  0.45188433880E+03  0.15294330000E+03 0.  0.
<mgrwt>
<rscale>  0 0.33730835E+03</rscale>
<asrwt>0</asrwt>
<pdfrwt beam="1">  1        1 0.11949530E+00 0.33730835E+03</pdfrwt>
<pdfrwt beam="2">  1       -1 0.64132777E-01 0.33730835E+03</pdfrwt>
<totfact> 0.61572883E+01</totfact>
</mgrwt>
</event>
<event>
 4    1  0.2293715E-008  0.6275437E+03  0.7818608E-02  0.9849854E-01
          1   -1    0    0  501    0  0.00000000000E+00  0.00000000000E+00  0.12164302633E+04  0.12164302633E+04  0.50400000000E-02 0. -1.
         -1   -1    0    0    0  501 -0.00000000000E+00 -0.00000000000E+00 -0.64151589122E+03  0.64151589124E+03  0.50400000000E-02 0.  1.
    8880022    1    1    2    0    0  0.68927292058E+02 -0.60470532028E+03  0.94127633401E+03  0.11312878882E+04  0.15294330000E+03 0.  0.
    8880022    1    1    2    0    0 -0.68927292058E+02  0.60470532028E+03 -0.36636196190E+03  0.72665826639E+03  0.15294330000E+03 0.  0.
<mgrwt>
<rscale>  0 0.62754374E+03</rscale>
<asrwt>0</asrwt>
<pdfrwt beam="1">  1        1 0.18714311E+00 0.62754374E+03</pdfrwt>
<pdfrwt beam="2">  1       -1 0.98694755E-01 0.62754374E+03</pdfrwt>
<totfact> 0.10764727E+01</totfact>
</mgrwt>
</event>
<event>
 4    1  0.2293715E-008  0.4302592E+03  0.7818608E-02  0.1033778E+00
          1   -1    0    0  501    0  0.00000000000E+00  0.00000000000E+00  0.90179031190E+03  0.90179031192E+03  0.50400000000E-02 0. -1.
         -1   -1    0    0    0  501 -0.00000000000E+00 -0.00000000000E+00 -0.96562880458E+03  0.96562880459E+03  0.50400000000E-02 0.  1.
    8880022    1    1    2    0    0 -0.38397895979E+03 -0.11954696325E+03 -0.86045649504E+03  0.96203344581E+03  0.15294330000E+03 0.  0.
    8880022    1    1    2    0    0  0.38397895979E+03  0.11954696325E+03  0.79661800237E+03  0.90538567069E+03  0.15294330000E+03 0. -1.
<mgrwt>
<rscale>  0 0.43025919E+03</rscale>
<asrwt>0</asrwt>
<pdfrwt beam="1">  1        1 0.13873697E+00 0.43025919E+03</pdfrwt>
<pdfrwt beam="2">  1       -1 0.14855828E+00 0.43025919E+03</pdfrwt>
<totfact> 0.71421942E+00</totfact>
</mgrwt>
</event>
<event>
 4    1  0.2293715E-008  0.5403019E+03  0.7818608E-02  0.1003764E+00
         -1   -1    0    0    0  501 -0.00000000000E+00  0.00000000000E+00  0.58562545157E+03  0.58562545159E+03  0.50400000000E-02 0.  1.
          1   -1    0    0  501    0  0.00000000000E+00 -0.00000000000E+00 -0.97798064360E+03  0.97798064361E+03  0.50400000000E-02 0. -1.
    8880022    1    1    2    0    0  0.18710463828E+03  0.48324562022E+03  0.35124671330E+03  0.64443803562E+03  0.15294330000E+03 0.  1.
    8880022    1    1    2    0    0 -0.18710463828E+03 -0.48324562022E+03 -0.74360190533E+03  0.91916805958E+03  0.15294330000E+03 0.  0.
<mgrwt>
<rscale>  0 0.54030189E+03</rscale>
<asrwt>0</asrwt>
<pdfrwt beam="1">  1        1 0.15045856E+00 0.54030189E+03</pdfrwt>
<pdfrwt beam="2">  1       -1 0.90096224E-01 0.54030189E+03</pdfrwt>
<totfact> 0.20120678E+01</totfact>
</mgrwt>
</event>
<event>
 4    1  0.2293715E-008  0.6292607E+03  0.7818608E-02  0.9846493E-01
          1   -1    0    0  501    0  0.00000000000E+00  0.00000000000E+00  0.11018429557E+04  0.11018429557E+04  0.50400000000E-02 0. -1.
         -1   -1    0    0    0  501 -0.00000000000E+00 -0.00000000000E+00 -0.80770403252E+03  0.80770403254E+03  0.50400000000E-02 0.  1.
    8880022    1    1    2    0    0 -0.46484336222E+03  0.39559824129E+03 -0.56426725645E+03  0.84520205255E+03  0.15294330000E+03 0.  0.
    8880022    1    1    2    0    0  0.46484336222E+03 -0.39559824129E+03  0.85840617964E+03  0.10643449357E+04  0.15294330000E+03 0.  0.
<mgrwt>
<rscale>  0 0.62926066E+03</rscale>
<asrwt>0</asrwt>
<pdfrwt beam="1">  1        1 0.16951430E+00 0.62926066E+03</pdfrwt>
<pdfrwt beam="2">  1       -1 0.12426216E+00 0.62926066E+03</pdfrwt>
<totfact> 0.75765779E+00</totfact>
</mgrwt>
</event>
<event>
 4    1  0.2293715E-008  0.4573177E+03  0.7818608E-02  0.1025562E+00
          1   -1    0    0  501    0  0.00000000000E+00  0.00000000000E+00  0.17515952750E+04  0.17515952750E+04  0.50400000000E-02 0. -1.
         -1   -1    0    0    0  501 -0.00000000000E+00 -0.00000000000E+00 -0.29546548779E+03  0.29546548783E+03  0.50400000000E-02 0.  1.
    8880022    1    1    2    0    0  0.27119157743E+03  0.33496708689E+03 -0.62040781042E+02  0.46150680655E+03  0.15294330000E+03 0.  1.
    8880022    1    1    2    0    0 -0.27119157743E+03 -0.33496708689E+03  0.15181705683E+04  0.15855539563E+04  0.15294330000E+03 0.  0.
<mgrwt>
<rscale>  0 0.45731769E+03</rscale>
<asrwt>0</asrwt>
<pdfrwt beam="1">  1        1 0.26947620E+00 0.45731769E+03</pdfrwt>
<pdfrwt beam="2">  1       -1 0.45456228E-01 0.45731769E+03</pdfrwt>
<totfact> 0.23035592E+01</totfact>
</mgrwt>
</event>
<event>
 4    1  0.2293715E-008  0.2101849E+03  0.7818608E-02  0.1141420E+00
         -1   -1    0    0    0  501 -0.00000000000E+00  0.00000000000E+00  0.20506241408E+03  0.20506241414E+03  0.50400000000E-02 0.  1.
          1   -1    0    0  501    0  0.00000000000E+00 -0.00000000000E+00 -0.79159163579E+03  0.79159163581E+03  0.50400000000E-02 0. -1.
    8880022    1    1    2    0    0 -0.93440403167E+02 -0.10979494617E+03  0.13187737372E+03  0.24813168654E+03  0.15294330000E+03 0.  1.
    8880022    1    1    2    0    0  0.93440403167E+02  0.10979494617E+03 -0.71840659544E+03  0.74852236341E+03  0.15294330000E+03 0.  0.
<mgrwt>
<rscale>  0 0.21018490E+03</rscale>
<asrwt>0</asrwt>
<pdfrwt beam="1">  1        1 0.12178333E+00 0.21018490E+03</pdfrwt>
<pdfrwt beam="2">  1       -1 0.31548064E-01 0.21018490E+03</pdfrwt>
<totfact> 0.22373156E+02</totfact>
</mgrwt>
</event>
<event>
 4    1  0.2293715E-008  0.5406296E+03  0.7818608E-02  0.1003686E+00
          1   -1    0    0  501    0  0.00000000000E+00  0.00000000000E+00  0.58876876665E+03  0.58876876667E+03  0.50400000000E-02 0. -1.
         -1   -1    0    0    0  501 -0.00000000000E+00 -0.00000000000E+00 -0.17454247243E+04  0.17454247243E+04  0.50400000000E-02 0.  1.
    8880022    1    1    2    0    0  0.51750541579E+03  0.32815299664E+02 -0.15656009017E+04  0.16563171604E+04  0.15294330000E+03 0.  0.
    8880022    1    1    2    0    0 -0.51750541579E+03 -0.32815299664E+02  0.40894494408E+03  0.67787633059E+03  0.15294330000E+03 0.  0.
<mgrwt>
<rscale>  0 0.54062959E+03</rscale>
<asrwt>0</asrwt>
<pdfrwt beam="1">  1        1 0.90579811E-01 0.54062959E+03</pdfrwt>
<pdfrwt beam="2">  1       -1 0.26852688E+00 0.54062959E+03</pdfrwt>
<totfact> 0.20330489E+00</totfact>
</mgrwt>
</event>
<event>
 4    1  0.2293715E-008  0.9082361E+03  0.7818608E-02  0.9415344E-01
         -1   -1    0    0    0  501 -0.00000000000E+00  0.00000000000E+00  0.66720632027E+03  0.66720632029E+03  0.50400000000E-02 0.  1.
          1   -1    0    0  501    0  0.00000000000E+00 -0.00000000000E+00 -0.19241161701E+04  0.19241161701E+04  0.50400000000E-02 0. -1.
    8880022    1    1    2    0    0 -0.24891465290E+03 -0.85996661802E+03  0.14618507075E+03  0.91992544071E+03  0.15294330000E+03 0.  0.
    8880022    1    1    2    0    0  0.24891465290E+03  0.85996661802E+03 -0.14030949206E+04  0.16713970497E+04  0.15294330000E+03 0.  0.
<mgrwt>
<rscale>  0 0.90823606E+03</rscale>
<asrwt>0</asrwt>
<pdfrwt beam="1">  1        1 0.29601787E+00 0.90823606E+03</pdfrwt>
<pdfrwt beam="2">  1       -1 0.10264713E+00 0.90823606E+03</pdfrwt>
<totfact> 0.30818157E+00</totfact>
</mgrwt>
</event>
<event>
 4    1  0.2293715E-008  0.3232224E+03  0.7818608E-02  0.1074176E+00
          1   -1    0    0  501    0  0.00000000000E+00  0.00000000000E+00  0.44602900496E+03  0.44602900499E+03  0.50400000000E-02 0. -1.
         -1   -1    0    0    0  501 -0.00000000000E+00 -0.00000000000E+00 -0.58097861012E+03  0.58097861014E+03  0.50400000000E-02 0.  1.
    8880022    1    1    2    0    0 -0.22284045186E+03 -0.17726585776E+03  0.32923405836E+03  0.46137595246E+03  0.15294330000E+03 0. -1.
    8880022    1    1    2    0    0  0.22284045186E+03  0.17726585776E+03 -0.46418366352E+03  0.56563166266E+03  0.15294330000E+03 0.  0.
<mgrwt>
<rscale>  0 0.32322238E+03</rscale>
<asrwt>0</asrwt>
<pdfrwt beam="1">  1        1 0.68619847E-01 0.32322238E+03</pdfrwt>
<pdfrwt beam="2">  1       -1 0.89381325E-01 0.32322238E+03</pdfrwt>
<totfact> 0.67980261E+01</totfact>
</mgrwt>
</event>
<event>
 4    1  0.2293715E-008  0.5226629E+03  0.7818608E-02  0.1008027E+00
          1   -1    0    0  501    0  0.00000000000E+00  0.00000000000E+00  0.17923373810E+04  0.17923373810E+04  0.50400000000E-02 0. -1.
         -1   -1    0    0    0  501 -0.00000000000E+00 -0.00000000000E+00 -0.59526271167E+03  0.59526271169E+03  0.50400000000E-02 0.  1.
    8880022    1    1    2    0    0 -0.39139499790E+03 -0.31079711173E+03  0.16282241574E+04  0.17100556859E+04  0.15294330000E+03 0.  0.
    8880022    1    1    2    0    0  0.39139499790E+03  0.31079711173E+03 -0.43114948812E+03  0.67754440678E+03  0.15294330000E+03 0.  1.
<mgrwt>
<rscale>  0 0.52266293E+03</rscale>
<asrwt>0</asrwt>
<pdfrwt beam="1">  1        1 0.27574421E+00 0.52266293E+03</pdfrwt>
<pdfrwt beam="2">  1       -1 0.91578880E-01 0.52266293E+03</pdfrwt>
<totfact> 0.52559874E+00</totfact>
</mgrwt>
</event>
<event>
 4    1  0.2293715E-008  0.6809329E+03  0.7818608E-02  0.9750407E-01
         -1   -1    0    0    0  501 -0.00000000000E+00  0.00000000000E+00  0.27978077333E+04  0.27978077333E+04  0.50400000000E-02 0.  1.
          1   -1    0    0  501    0  0.00000000000E+00 -0.00000000000E+00 -0.35867964462E+03  0.35867964465E+03  0.50400000000E-02 0. -1.
    8880022    1    1    2    0    0  0.61723295263E+03 -0.24351890670E+03  0.61994395927E+02  0.68374917468E+03  0.15294330000E+03 0.  0.
    8880022    1    1    2    0    0 -0.61723295263E+03  0.24351890670E+03  0.23771336927E+04  0.24727382032E+04  0.15294330000E+03 0.  0.
<mgrwt>
<rscale>  0 0.68093291E+03</rscale>
<asrwt>0</asrwt>
<pdfrwt beam="1">  1        1 0.55181483E-01 0.68093291E+03</pdfrwt>
<pdfrwt beam="2">  1       -1 0.43043196E+00 0.68093291E+03</pdfrwt>
<totfact> 0.33367150E-01</totfact>
</mgrwt>
</event>
<event>
 4    1  0.2293715E-008  0.4810529E+03  0.7818608E-02  0.1018846E+00
          1   -1    0    0  501    0  0.00000000000E+00  0.00000000000E+00  0.23360907732E+04  0.23360907732E+04  0.50400000000E-02 0. -1.
         -1   -1    0    0    0  501 -0.00000000000E+00 -0.00000000000E+00 -0.24817413692E+03  0.24817413697E+03  0.50400000000E-02 0.  1.
    8880022    1    1    2    0    0 -0.43043143667E+03 -0.15082773898E+03  0.20455460041E+04  0.21013496464E+04  0.15294330000E+03 0.  0.
    8880022    1    1    2    0    0  0.43043143667E+03  0.15082773898E+03  0.42370632197E+02  0.48291526379E+03  0.15294330000E+03 0.  0.
<mgrwt>
<rscale>  0 0.48105289E+03</rscale>
<asrwt>0</asrwt>
<pdfrwt beam="1">  1        1 0.35939857E+00 0.48105289E+03</pdfrwt>
<pdfrwt beam="2">  1       -1 0.38180638E-01 0.48105289E+03</pdfrwt>
<totfact> 0.12897140E+01</totfact>
</mgrwt>
</event>
<event>
 4    1  0.2293715E-008  0.3707182E+03  0.7818608E-02  0.1054419E+00
         -1   -1    0    0    0  501 -0.00000000000E+00  0.00000000000E+00  0.19018078560E+03  0.19018078567E+03  0.50400000000E-02 0.  1.
          1   -1    0    0  501    0  0.00000000000E+00 -0.00000000000E+00 -0.23579639268E+04  0.23579639268E+04  0.50400000000E-02 0. -1.
    8880022    1    1    2    0    0  0.30877379804E+03 -0.13674452823E+03 -0.22861736950E+02  0.37142245003E+03  0.15294330000E+03 0.  0.
    8880022    1    1    2    0    0 -0.30877379804E+03  0.13674452823E+03 -0.21449214043E+04  0.21767222624E+04  0.15294330000E+03 0. -1.
<mgrwt>
<rscale>  0 0.37071819E+03</rscale>
<asrwt>0</asrwt>
<pdfrwt beam="1">  1        1 0.36276366E+00 0.37071819E+03</pdfrwt>
<pdfrwt beam="2">  1       -1 0.29258584E-01 0.37071819E+03</pdfrwt>
<totfact> 0.20486800E+01</totfact>
</mgrwt>
</event>
<event>
 4    1  0.2293715E-008  0.5512710E+03  0.7818608E-02  0.1001200E+00
          1   -1    0    0  501    0  0.00000000000E+00  0.00000000000E+00  0.32563601728E+03  0.32563601732E+03  0.50400000000E-02 0. -1.
         -1   -1    0    0    0  501 -0.00000000000E+00 -0.00000000000E+00 -0.15274117331E+04  0.15274117331E+04  0.50400000000E-02 0.  1.
    8880022    1    1    2    0    0  0.52757294447E+03  0.46634924593E+02 -0.23016670688E+02  0.55175125561E+03  0.15294330000E+03 0.  0.
    8880022    1    1    2    0    0 -0.52757294447E+03 -0.46634924593E+02 -0.11787590451E+04  0.13012964948E+04  0.15294330000E+03 0.  0.
<mgrwt>
<rscale>  0 0.55127097E+03</rscale>
<asrwt>0</asrwt>
<pdfrwt beam="1">  1        1 0.50097850E-01 0.55127097E+03</pdfrwt>
<pdfrwt beam="2">  1       -1 0.23498642E+00 0.55127097E+03</pdfrwt>
<totfact> 0.73545955E+00</totfact>
</mgrwt>
</event>
<event>
 4    1  0.2293715E-008  0.3276018E+03  0.7818608E-02  0.1072203E+00
         -1   -1    0    0    0  501 -0.00000000000E+00  0.00000000000E+00  0.40997164098E+03  0.40997164101E+03  0.50400000000E-02 0.  1.
          1   -1    0    0  501    0  0.00000000000E+00 -0.00000000000E+00 -0.31711500873E+03  0.31711500877E+03  0.50400000000E-02 0. -1.
    8880022    1    1    2    0    0 -0.28449015367E+03  0.54741790043E+02 -0.10543124483E+03  0.34414925761E+03  0.15294330000E+03 0.  0.
    8880022    1    1    2    0    0  0.28449015367E+03 -0.54741790043E+02  0.19828787708E+03  0.38293739217E+03  0.15294330000E+03 0.  0.
<mgrwt>
<rscale>  0 0.32760184E+03</rscale>
<asrwt>0</asrwt>
<pdfrwt beam="1">  1        1 0.48786925E-01 0.32760184E+03</pdfrwt>
<pdfrwt beam="2">  1       -1 0.63072560E-01 0.32760184E+03</pdfrwt>
<totfact> 0.21590401E+02</totfact>
</mgrwt>
</event>
<event>
 4    1  0.2293715E-008  0.5356565E+03  0.7818608E-02  0.1004869E+00
         -1   -1    0    0    0  501 -0.00000000000E+00  0.00000000000E+00  0.17150632387E+03  0.17150632394E+03  0.50400000000E-02 0.  1.
          1   -1    0    0  501    0  0.00000000000E+00 -0.00000000000E+00 -0.27643158225E+04  0.27643158225E+04  0.50400000000E-02 0. -1.
    8880022    1    1    2    0    0 -0.50832549145E+03  0.71703767911E+02 -0.22187291218E+04  0.22824738343E+04  0.15294330000E+03 0.  0.
    8880022    1    1    2    0    0  0.50832549145E+03 -0.71703767911E+02 -0.37408037688E+03  0.65334831214E+03  0.15294330000E+03 0.  0.
<mgrwt>
<rscale>  0 0.53565650E+03</rscale>
<asrwt>0</asrwt>
<pdfrwt beam="1">  1        1 0.42527932E+00 0.53565650E+03</pdfrwt>
<pdfrwt beam="2">  1       -1 0.26385590E-01 0.53565650E+03</pdfrwt>
<totfact> 0.12411860E+01</totfact>
</mgrwt>
</event>
<event>
 4    1  0.2293715E-008  0.3408721E+03  0.7818608E-02  0.1066425E+00
         -1   -1    0    0    0  501 -0.00000000000E+00  0.00000000000E+00  0.21023333768E+03  0.21023333774E+03  0.50400000000E-02 0.  1.
          1   -1    0    0  501    0  0.00000000000E+00 -0.00000000000E+00 -0.23867483579E+04  0.23867483579E+04  0.50400000000E-02 0. -1.
    8880022    1    1    2    0    0  0.11655245969E+02 -0.30441138048E+03  0.50004379283E+02  0.34452028138E+03  0.15294330000E+03 0.  0.
    8880022    1    1    2    0    0 -0.11655245969E+02  0.30441138048E+03 -0.22265193995E+04  0.22524614143E+04  0.15294330000E+03 0.  0.
<mgrwt>
<rscale>  0 0.34087210E+03</rscale>
<asrwt>0</asrwt>
<pdfrwt beam="1">  1        1 0.36719203E+00 0.34087210E+03</pdfrwt>
<pdfrwt beam="2">  1       -1 0.32343592E-01 0.34087210E+03</pdfrwt>
<totfact> 0.16653622E+01</totfact>
</mgrwt>
</event>
<event>
 4    1  0.2293715E-008  0.3006411E+03  0.7818608E-02  0.1084921E+00
          1   -1    0    0  501    0  0.00000000000E+00  0.00000000000E+00  0.47857013994E+03  0.47857013997E+03  0.50400000000E-02 0. -1.
         -1   -1    0    0    0  501 -0.00000000000E+00 -0.00000000000E+00 -0.43765245435E+03  0.43765245438E+03  0.50400000000E-02 0.  1.
    8880022    1    1    2    0    0  0.15031711221E+03 -0.21070870312E+03 -0.32493989539E+03  0.44268609694E+03  0.15294330000E+03 0.  0.
    8880022    1    1    2    0    0 -0.15031711221E+03  0.21070870312E+03  0.36585758099E+03  0.47353649740E+03  0.15294330000E+03 0. -1.
<mgrwt>
<rscale>  0 0.30064106E+03</rscale>
<asrwt>0</asrwt>
<pdfrwt beam="1">  1        1 0.73626176E-01 0.30064106E+03</pdfrwt>
<pdfrwt beam="2">  1       -1 0.67331147E-01 0.30064106E+03</pdfrwt>
<totfact> 0.11174302E+02</totfact>
</mgrwt>
</event>
<event>
 4    1  0.2293715E-008  0.2557856E+03  0.7818608E-02  0.1109702E+00
         -1   -1    0    0    0  501 -0.00000000000E+00  0.00000000000E+00  0.43270625163E+03  0.43270625166E+03  0.50400000000E-02 0.  1.
          1   -1    0    0  501    0  0.00000000000E+00 -0.00000000000E+00 -0.60891472388E+03  0.60891472390E+03  0.50400000000E-02 0. -1.
    8880022    1    1    2    0    0  0.13513992775E+03  0.15418117289E+03 -0.53964578341E+03  0.59719666670E+03  0.15294330000E+03 0.  0.
    8880022    1    1    2    0    0 -0.13513992775E+03 -0.15418117289E+03  0.36343731116E+03  0.44442430886E+03  0.15294330000E+03 0.  1.
<mgrwt>
<rscale>  0 0.25578563E+03</rscale>
<asrwt>0</asrwt>
<pdfrwt beam="1">  1        1 0.93679189E-01 0.25578563E+03</pdfrwt>
<pdfrwt beam="2">  1       -1 0.66570192E-01 0.25578563E+03</pdfrwt>
<totfact> 0.83048440E+01</totfact>
</mgrwt>
</event>
<event>
 4    1  0.2293715E-008  0.4174588E+03  0.7818608E-02  0.1037897E+00
          1   -1    0    0  501    0  0.00000000000E+00  0.00000000000E+00  0.19702570882E+04  0.19702570882E+04  0.50400000000E-02 0. -1.
         -1   -1    0    0    0  501 -0.00000000000E+00 -0.00000000000E+00 -0.27096452944E+03  0.27096452948E+03  0.50400000000E-02 0.  1.
    8880022    1    1    2    0    0 -0.38189789892E+03 -0.70952025156E+02  0.17693453164E+04  0.18179259327E+04  0.15294330000E+03 0.  0.
    8880022    1    1    2    0    0  0.38189789892E+03  0.70952025156E+02 -0.70052757633E+02  0.42329568500E+03  0.15294330000E+03 0.  0.
<mgrwt>
<rscale>  0 0.41745880E+03</rscale>
<asrwt>0</asrwt>
<pdfrwt beam="1">  1        1 0.30311647E+00 0.41745880E+03</pdfrwt>
<pdfrwt beam="2">  1       -1 0.41686851E-01 0.41745880E+03</pdfrwt>
<totfact> 0.19546441E+01</totfact>
</mgrwt>
</event>
<event>
 4    1  0.2293715E-008  0.7539629E+03  0.7818608E-02  0.9629154E-01
          1   -1    0    0  501    0  0.00000000000E+00  0.00000000000E+00  0.80585741334E+03  0.80585741336E+03  0.50400000000E-02 0. -1.
         -1   -1    0    0    0  501 -0.00000000000E+00 -0.00000000000E+00 -0.12700048900E+04  0.12700048900E+04  0.50400000000E-02 0.  1.
    8880022    1    1    2    0    0 -0.27770487121E+03  0.68406754986E+03  0.45997110073E+03  0.88319503780E+03  0.15294330000E+03 0.  0.
    8880022    1    1    2    0    0  0.27770487121E+03 -0.68406754986E+03 -0.92411857741E+03  0.11926672656E+04  0.15294330000E+03 0.  0.
<mgrwt>
<rscale>  0 0.75396290E+03</rscale>
<asrwt>0</asrwt>
<pdfrwt beam="1">  1        1 0.12397806E+00 0.75396290E+03</pdfrwt>
<pdfrwt beam="2">  1       -1 0.19538537E+00 0.75396290E+03</pdfrwt>
<totfact> 0.36741440E+00</totfact>
</mgrwt>
</event>
<event>
 4    1  0.2293715E-008  0.5611543E+03  0.7818608E-02  0.9989446E-01
         -1   -1    0    0    0  501 -0.00000000000E+00  0.00000000000E+00  0.10562829832E+04  0.10562829832E+04  0.50400000000E-02 0.  1.
          1   -1    0    0  501    0  0.00000000000E+00 -0.00000000000E+00 -0.11189108408E+04  0.11189108408E+04  0.50400000000E-02 0. -1.
    8880022    1    1    2    0    0  0.51804620123E+03 -0.15208744725E+03 -0.96282435665E+03  0.11144168219E+04  0.15294330000E+03 0.  0.
    8880022    1    1    2    0    0 -0.51804620123E+03  0.15208744725E+03  0.90019649909E+03  0.10607770021E+04  0.15294330000E+03 0.  0.
<mgrwt>
<rscale>  0 0.56115427E+03</rscale>
<asrwt>0</asrwt>
<pdfrwt beam="1">  1        1 0.17214013E+00 0.56115427E+03</pdfrwt>
<pdfrwt beam="2">  1       -1 0.16250507E+00 0.56115427E+03</pdfrwt>
<totfact> 0.37026301E+00</totfact>
</mgrwt>
</event>
<event>
 4    1  0.2293715E-008  0.3479975E+03  0.7818608E-02  0.1063440E+00
         -1   -1    0    0    0  501 -0.00000000000E+00  0.00000000000E+00  0.31892968378E+03  0.31892968382E+03  0.50400000000E-02 0.  1.
          1   -1    0    0  501    0  0.00000000000E+00 -0.00000000000E+00 -0.12779432828E+04  0.12779432828E+04  0.50400000000E-02 0. -1.
    8880022    1    1    2    0    0  0.80307218371E+02 -0.30209500398E+03  0.18988134341E+03  0.39643059713E+03  0.15294330000E+03 0.  0.
    8880022    1    1    2    0    0 -0.80307218371E+02  0.30209500398E+03 -0.11488949425E+04  0.12004423695E+04  0.15294330000E+03 0.  0.
<mgrwt>
<rscale>  0 0.34799755E+03</rscale>
<asrwt>0</asrwt>
<pdfrwt beam="1">  1        1 0.19660666E+00 0.34799755E+03</pdfrwt>
<pdfrwt beam="2">  1       -1 0.49066106E-01 0.34799755E+03</pdfrwt>
<totfact> 0.42764600E+01</totfact>
</mgrwt>
</event>
<event>
 4    1  0.2293715E-008  0.3295477E+03  0.7818608E-02  0.1071337E+00
          1   -1    0    0  501    0  0.00000000000E+00  0.00000000000E+00  0.25353178809E+03  0.25353178814E+03  0.50400000000E-02 0. -1.
         -1   -1    0    0    0  501 -0.00000000000E+00 -0.00000000000E+00 -0.11769110314E+04  0.11769110315E+04  0.50400000000E-02 0.  1.
    8880022    1    1    2    0    0  0.18584151539E+03  0.22510650026E+03 -0.10320912942E+04  0.10834270155E+04  0.15294330000E+03 0.  0.
    8880022    1    1    2    0    0 -0.18584151539E+03 -0.22510650026E+03  0.10871205084E+03  0.34701580412E+03  0.15294330000E+03 0.  0.
<mgrwt>
<rscale>  0 0.32954766E+03</rscale>
<asrwt>0</asrwt>
<pdfrwt beam="1">  1        1 0.39004891E-01 0.32954766E+03</pdfrwt>
<pdfrwt beam="2">  1       -1 0.18106323E+00 0.32954766E+03</pdfrwt>
<totfact> 0.24298292E+01</totfact>
</mgrwt>
</event>
<event>
 4    1  0.2293715E-008  0.1034105E+04  0.7818608E-02  0.9271911E-01
          1   -1    0    0  501    0  0.00000000000E+00  0.00000000000E+00  0.22418873366E+04  0.22418873367E+04  0.50400000000E-02 0. -1.
         -1   -1    0    0    0  501 -0.00000000000E+00 -0.00000000000E+00 -0.63302773232E+03  0.63302773234E+03  0.50400000000E-02 0.  1.
    8880022    1    1    2    0    0  0.82720116417E+02  0.10193811126E+04  0.15180869245E+04  0.18368342423E+04  0.15294330000E+03 0.  0.
    8880022    1    1    2    0    0 -0.82720116417E+02 -0.10193811126E+04  0.90772679795E+02  0.10380808267E+04  0.15294330000E+03 0.  0.
<mgrwt>
<rscale>  0 0.10341045E+04</rscale>
<asrwt>0</asrwt>
<pdfrwt beam="1">  1        1 0.34490575E+00 0.10341045E+04</pdfrwt>
<pdfrwt beam="2">  1       -1 0.97388881E-01 0.10341045E+04</pdfrwt>
<totfact> 0.20846269E+00</totfact>
</mgrwt>
</event>
<event>
 4    1  0.2293715E-008  0.5635530E+03  0.7818608E-02  0.9984047E-01
         -1   -1    0    0    0  501 -0.00000000000E+00  0.00000000000E+00  0.71274824342E+03  0.71274824344E+03  0.50400000000E-02 0.  1.
          1   -1    0    0  501    0  0.00000000000E+00 -0.00000000000E+00 -0.66731758356E+03  0.66731758358E+03  0.50400000000E-02 0. -1.
    8880022    1    1    2    0    0 -0.26203386684E+03 -0.47490898680E+03 -0.37503953959E+03  0.67693914230E+03  0.15294330000E+03 0.  0.
    8880022    1    1    2    0    0  0.26203386684E+03  0.47490898680E+03  0.42047019945E+03  0.70312668471E+03  0.15294330000E+03 0.  0.
<mgrwt>
<rscale>  0 0.56355297E+03</rscale>
<asrwt>0</asrwt>
<pdfrwt beam="1">  1        1 0.10266424E+00 0.56355297E+03</pdfrwt>
<pdfrwt beam="2">  1       -1 0.10965358E+00 0.56355297E+03</pdfrwt>
<totfact> 0.23647394E+01</totfact>
</mgrwt>
</event>
<event>
 4    1  0.2293715E-008  0.8827650E+03  0.7818608E-02  0.9447386E-01
          1   -1    0    0  501    0  0.00000000000E+00  0.00000000000E+00  0.10208698400E+04  0.10208698400E+04  0.50400000000E-02 0. -1.
         -1   -1    0    0    0  501 -0.00000000000E+00 -0.00000000000E+00 -0.14857708038E+04  0.14857708038E+04  0.50400000000E-02 0.  1.
    8880022    1    1    2    0    0  0.83299769267E+03  0.24899236958E+03  0.64149300426E+03  0.10912320027E+04  0.15294330000E+03 0. -1.
    8880022    1    1    2    0    0 -0.83299769267E+03 -0.24899236958E+03 -0.11063939681E+04  0.14154086412E+04  0.15294330000E+03 0.  0.
<mgrwt>
<rscale>  0 0.88276498E+03</rscale>
<asrwt>0</asrwt>
<pdfrwt beam="1">  1        1 0.15705690E+00 0.88276498E+03</pdfrwt>
<pdfrwt beam="2">  1       -1 0.22858013E+00 0.88276498E+03</pdfrwt>
<totfact> 0.14395934E+00</totfact>
</mgrwt>
</event>
<event>
 4    1  0.2293715E-008  0.6238099E+03  0.7818608E-02  0.9857203E-01
         -1   -1    0    0    0  501 -0.00000000000E+00  0.00000000000E+00  0.44827040152E+03  0.44827040155E+03  0.50400000000E-02 0.  1.
          1   -1    0    0  501    0  0.00000000000E+00 -0.00000000000E+00 -0.10240770983E+04  0.10240770983E+04  0.50400000000E-02 0. -1.
    8880022    1    1    2    0    0  0.59094062612E+03  0.12859372725E+03 -0.58785013442E+00  0.62381020260E+03  0.15294330000E+03 0.  0.
    8880022    1    1    2    0    0 -0.59094062612E+03 -0.12859372725E+03 -0.57521884666E+03  0.84853729727E+03  0.15294330000E+03 0.  0.
<mgrwt>
<rscale>  0 0.62380993E+03</rscale>
<asrwt>0</asrwt>
<pdfrwt beam="1">  1        1 0.15755032E+00 0.62380993E+03</pdfrwt>
<pdfrwt beam="2">  1       -1 0.68964678E-01 0.62380993E+03</pdfrwt>
<totfact> 0.32145107E+01</totfact>
</mgrwt>
</event>
<event>
 4    1  0.2293715E-008  0.6511674E+03  0.7818608E-02  0.9804591E-01
         -1   -1    0    0    0  501 -0.00000000000E+00  0.00000000000E+00  0.79088059002E+03  0.79088059003E+03  0.50400000000E-02 0.  1.
          1   -1    0    0  501    0  0.00000000000E+00 -0.00000000000E+00 -0.53965406103E+03  0.53965406105E+03  0.50400000000E-02 0. -1.
    8880022    1    1    2    0    0  0.20984693255E+03  0.59715294123E+03  0.17933273507E+03  0.67541043314E+03  0.15294330000E+03 0.  0.
    8880022    1    1    2    0    0 -0.20984693255E+03 -0.59715294123E+03  0.71893793919E+02  0.65512421794E+03  0.15294330000E+03 0.  0.
<mgrwt>
<rscale>  0 0.65116743E+03</rscale>
<asrwt>0</asrwt>
<pdfrwt beam="1">  1        1 0.83023702E-01 0.65116743E+03</pdfrwt>
<pdfrwt beam="2">  1       -1 0.12167394E+00 0.65116743E+03</pdfrwt>
<totfact> 0.24707300E+01</totfact>
</mgrwt>
</event>
<event>
 4    1  0.2293715E-008  0.2962383E+03  0.7818608E-02  0.1087136E+00
         -1   -1    0    0    0  501 -0.00000000000E+00  0.00000000000E+00  0.16728003644E+03  0.16728003652E+03  0.50400000000E-02 0.  1.
          1   -1    0    0  501    0  0.00000000000E+00 -0.00000000000E+00 -0.54744578039E+03  0.54744578041E+03  0.50400000000E-02 0. -1.
    8880022    1    1    2    0    0 -0.24939442253E+03 -0.46560755841E+02 -0.11709903976E+03  0.31854249340E+03  0.15294330000E+03 0. -1.
    8880022    1    1    2    0    0  0.24939442253E+03  0.46560755841E+02 -0.26306670418E+03  0.39618332352E+03  0.15294330000E+03 0.  1.
<mgrwt>
<rscale>  0 0.29623831E+03</rscale>
<asrwt>0</asrwt>
<pdfrwt beam="1">  1        1 0.84222427E-01 0.29623831E+03</pdfrwt>
<pdfrwt beam="2">  1       -1 0.25735390E-01 0.29623831E+03</pdfrwt>
<totfact> 0.53169309E+02</totfact>
</mgrwt>
</event>
<event>
 4    1  0.2293715E-008  0.3600924E+03  0.7818608E-02  0.1058547E+00
         -1   -1    0    0    0  501 -0.00000000000E+00  0.00000000000E+00  0.27857530751E+03  0.27857530755E+03  0.50400000000E-02 0.  1.
          1   -1    0    0  501    0  0.00000000000E+00 -0.00000000000E+00 -0.49394876068E+04  0.49394876068E+04  0.50400000000E-02 0. -1.
    8880022    1    1    2    0    0  0.22312326838E+03 -0.23767807788E+03  0.15260575348E+03  0.39109465684E+03  0.15294330000E+03 0.  0.
    8880022    1    1    2    0    0 -0.22312326838E+03  0.23767807788E+03 -0.48135180527E+04  0.48269682575E+04  0.15294330000E+03 0. -1.
<mgrwt>
<rscale>  0 0.36009237E+03</rscale>
<asrwt>0</asrwt>
<pdfrwt beam="1">  1        1 0.75992111E+00 0.36009237E+03</pdfrwt>
<pdfrwt beam="2">  1       -1 0.42857743E-01 0.36009237E+03</pdfrwt>
<totfact> 0.76774357E-02</totfact>
</mgrwt>
</event>
<event>
 4    1  0.2293715E-008  0.1062231E+04  0.7818608E-02  0.9242806E-01
          1   -1    0    0  501    0  0.00000000000E+00  0.00000000000E+00  0.27896265954E+04  0.27896265954E+04  0.50400000000E-02 0. -1.
         -1   -1    0    0    0  501 -0.00000000000E+00 -0.00000000000E+00 -0.45268563208E+03  0.45268563211E+03  0.50400000000E-02 0.  1.
    8880022    1    1    2    0    0  0.20765877926E+03 -0.10304473185E+04  0.63942156631E+03  0.12398368591E+04  0.15294330000E+03 0.  1.
    8880022    1    1    2    0    0 -0.20765877926E+03  0.10304473185E+04  0.16975193970E+04  0.20024753684E+04  0.15294330000E+03 0.  0.
<mgrwt>
<rscale>  0 0.10622314E+04</rscale>
<asrwt>0</asrwt>
<pdfrwt beam="1">  1        1 0.42917332E+00 0.10622314E+04</pdfrwt>
<pdfrwt beam="2">  1       -1 0.69643944E-01 0.10622314E+04</pdfrwt>
<totfact> 0.17933236E+00</totfact>
</mgrwt>
</event>
<event>
 4    1  0.2293715E-008  0.7638487E+03  0.7818608E-02  0.9613871E-01
         -1   -1    0    0    0  501 -0.00000000000E+00  0.00000000000E+00  0.11750467746E+04  0.11750467746E+04  0.50400000000E-02 0.  1.
          1   -1    0    0  501    0  0.00000000000E+00 -0.00000000000E+00 -0.79031688085E+03  0.79031688087E+03  0.50400000000E-02 0. -1.
    8880022    1    1    2    0    0  0.23434460217E+03 -0.71074315527E+03  0.79148879071E+03  0.10999633558E+04  0.15294330000E+03 0.  0.
    8880022    1    1    2    0    0 -0.23434460217E+03  0.71074315527E+03 -0.40675889698E+03  0.86540029964E+03  0.15294330000E+03 0. -1.
<mgrwt>
<rscale>  0 0.76384873E+03</rscale>
<asrwt>0</asrwt>
<pdfrwt beam="1">  1        1 0.12158721E+00 0.76384873E+03</pdfrwt>
<pdfrwt beam="2">  1       -1 0.18077643E+00 0.76384873E+03</pdfrwt>
<totfact> 0.47898127E+00</totfact>
</mgrwt>
</event>
<event>
 4    1  0.2293715E-008  0.3152115E+03  0.7818608E-02  0.1077874E+00
         -1   -1    0    0    0  501 -0.00000000000E+00  0.00000000000E+00  0.21914535171E+03  0.21914535176E+03  0.50400000000E-02 0.  1.
          1   -1    0    0  501    0  0.00000000000E+00 -0.00000000000E+00 -0.18378253563E+04  0.18378253564E+04  0.50400000000E-02 0. -1.
    8880022    1    1    2    0    0  0.77475782223E+02  0.26450736427E+03 -0.17019923346E+04  0.17309350660E+04  0.15294330000E+03 0.  0.
    8880022    1    1    2    0    0 -0.77475782223E+02 -0.26450736427E+03  0.83312329987E+02  0.32603564211E+03  0.15294330000E+03 0.  1.
<mgrwt>
<rscale>  0 0.31521151E+03</rscale>
<asrwt>0</asrwt>
<pdfrwt beam="1">  1        1 0.28274235E+00 0.31521151E+03</pdfrwt>
<pdfrwt beam="2">  1       -1 0.33714671E-01 0.31521151E+03</pdfrwt>
<totfact> 0.35816822E+01</totfact>
</mgrwt>
</event>
<event>
 4    1  0.2293715E-008  0.7571332E+03  0.7818608E-02  0.9624226E-01
         -1   -1    0    0    0  501 -0.00000000000E+00  0.00000000000E+00  0.29865667105E+03  0.29865667109E+03  0.50400000000E-02 0.  1.
          1   -1    0    0  501    0  0.00000000000E+00 -0.00000000000E+00 -0.30065785574E+04  0.30065785574E+04  0.50400000000E-02 0. -1.
    8880022    1    1    2    0    0  0.29145254954E+03 -0.68184631062E+03 -0.23477186438E+04  0.24667860595E+04  0.15294330000E+03 0.  0.
    8880022    1    1    2    0    0 -0.29145254954E+03  0.68184631062E+03 -0.36020324248E+03  0.83844916891E+03  0.15294330000E+03 0.  0.
<mgrwt>
<rscale>  0 0.75713317E+03</rscale>
<asrwt>0</asrwt>
<pdfrwt beam="1">  1        1 0.46255053E+00 0.75713317E+03</pdfrwt>
<pdfrwt beam="2">  1       -1 0.45947182E-01 0.75713317E+03</pdfrwt>
<totfact> 0.29807077E+00</totfact>
</mgrwt>
</event>
<event>
 4    1  0.2293715E-008  0.6907285E+03  0.7818608E-02  0.9733220E-01
         -1   -1    0    0    0  501 -0.00000000000E+00  0.00000000000E+00  0.11120731346E+04  0.11120731346E+04  0.50400000000E-02 0.  1.
          1   -1    0    0  501    0  0.00000000000E+00 -0.00000000000E+00 -0.15726816511E+04  0.15726816511E+04  0.50400000000E-02 0. -1.
    8880022    1    1    2    0    0 -0.93228627891E+02  0.66710019704E+03 -0.13750321564E+04  0.15387720215E+04  0.15294330000E+03 0.  0.
    8880022    1    1    2    0    0  0.93228627891E+02 -0.66710019704E+03  0.91442363981E+03  0.11459827643E+04  0.15294330000E+03 0.  0.
<mgrwt>
<rscale>  0 0.69072853E+03</rscale>
<asrwt>0</asrwt>
<pdfrwt beam="1">  1        1 0.24195102E+00 0.69072853E+03</pdfrwt>
<pdfrwt beam="2">  1       -1 0.17108817E+00 0.69072853E+03</pdfrwt>
<totfact> 0.14967308E+00</totfact>
</mgrwt>
</event>
<event>
 4    1  0.2293715E-008  0.6292691E+03  0.7818608E-02  0.9846476E-01
          1   -1    0    0  501    0  0.00000000000E+00  0.00000000000E+00  0.99081069431E+03  0.99081069433E+03  0.50400000000E-02 0. -1.
         -1   -1    0    0    0  501 -0.00000000000E+00 -0.00000000000E+00 -0.90168964528E+03  0.90168964529E+03  0.50400000000E-02 0.  1.
    8880022    1    1    2    0    0 -0.60687953409E+03 -0.65460861153E+02  0.75062691706E+03  0.97950003311E+03  0.15294330000E+03 0.  0.
    8880022    1    1    2    0    0  0.60687953409E+03  0.65460861153E+02 -0.66150586802E+03  0.91300030650E+03  0.15294330000E+03 0.  0.
<mgrwt>
<rscale>  0 0.62926906E+03</rscale>
<asrwt>0</asrwt>
<pdfrwt beam="1">  1        1 0.15243241E+00 0.62926906E+03</pdfrwt>
<pdfrwt beam="2">  1       -1 0.13872148E+00 0.62926906E+03</pdfrwt>
<totfact> 0.69679640E+00</totfact>
</mgrwt>
</event>
<event>
 4    1  0.2293715E-008  0.2604883E+03  0.7818608E-02  0.1106850E+00
         -1   -1    0    0    0  501 -0.00000000000E+00  0.00000000000E+00  0.11914023924E+03  0.11914023934E+03  0.50400000000E-02 0.  1.
          1   -1    0    0  501    0  0.00000000000E+00 -0.00000000000E+00 -0.16220510567E+04  0.16220510567E+04  0.50400000000E-02 0. -1.
    8880022    1    1    2    0    0 -0.44494537409E+02 -0.20611336142E+03 -0.50162750894E+02  0.26527426601E+03  0.15294330000E+03 0.  1.
    8880022    1    1    2    0    0  0.44494537409E+02  0.20611336142E+03 -0.14527480666E+04  0.14759170300E+04  0.15294330000E+03 0.  0.
<mgrwt>
<rscale>  0 0.26048826E+03</rscale>
<asrwt>0</asrwt>
<pdfrwt beam="1">  1        1 0.24954630E+00 0.26048826E+03</pdfrwt>
<pdfrwt beam="2">  1       -1 0.18329269E-01 0.26048826E+03</pdfrwt>
<totfact> 0.13960927E+02</totfact>
</mgrwt>
</event>
<event>
 4    1  0.2293715E-008  0.2488914E+03  0.7818608E-02  0.1114007E+00
         -1   -1    0    0    0  501 -0.00000000000E+00  0.00000000000E+00  0.11068601184E+04  0.11068601184E+04  0.50400000000E-02 0.  1.
          1   -1    0    0  501    0  0.00000000000E+00 -0.00000000000E+00 -0.15023993433E+03  0.15023993441E+03  0.50400000000E-02 0. -1.
    8880022    1    1    2    0    0 -0.18073667930E+03 -0.76743301069E+02  0.97621010506E+03  0.10074388834E+04  0.15294330000E+03 0.  0.
    8880022    1    1    2    0    0  0.18073667930E+03  0.76743301069E+02 -0.19589921004E+02  0.24966116943E+03  0.15294330000E+03 0.  0.
<mgrwt>
<rscale>  0 0.24889141E+03</rscale>
<asrwt>0</asrwt>
<pdfrwt beam="1">  1        1 0.23113836E-01 0.24889141E+03</pdfrwt>
<pdfrwt beam="2">  1       -1 0.17028617E+00 0.24889141E+03</pdfrwt>
<totfact> 0.57325622E+01</totfact>
</mgrwt>
</event>
<event>
 4    1  0.2293715E-008  0.1883633E+03  0.7818608E-02  0.1159946E+00
          1   -1    0    0  501    0  0.00000000000E+00  0.00000000000E+00  0.12923252747E+03  0.12923252757E+03  0.50400000000E-02 0. -1.
         -1   -1    0    0    0  501 -0.00000000000E+00 -0.00000000000E+00 -0.61997553876E+03  0.61997553878E+03  0.50400000000E-02 0.  1.
    8880022    1    1    2    0    0  0.20019234756E+02 -0.10811255267E+03  0.34244872189E+02  0.19145092868E+03  0.15294330000E+03 0. -1.
    8880022    1    1    2    0    0 -0.20019234756E+02  0.10811255267E+03 -0.52498788348E+03  0.55775713767E+03  0.15294330000E+03 0.  0.
<mgrwt>
<rscale>  0 0.18836334E+03</rscale>
<asrwt>0</asrwt>
<pdfrwt beam="1">  1        1 0.19881928E-01 0.18836334E+03</pdfrwt>
<pdfrwt beam="2">  1       -1 0.95380851E-01 0.18836334E+03</pdfrwt>
<totfact> 0.29066843E+02</totfact>
</mgrwt>
</event>
<event>
 4    1  0.2293715E-008  0.1919363E+03  0.7818608E-02  0.1156726E+00
         -1   -1    0    0    0  501 -0.00000000000E+00  0.00000000000E+00  0.89818479409E+02  0.89818479550E+02  0.50400000000E-02 0.  1.
          1   -1    0    0  501    0  0.00000000000E+00 -0.00000000000E+00 -0.41331867417E+03  0.41331867420E+03  0.50400000000E-02 0. -1.
    8880022    1    1    2    0    0 -0.23992931188E+01 -0.11594026854E+03 -0.18375736731E+03  0.26571850807E+03  0.15294330000E+03 0. -1.
    8880022    1    1    2    0    0  0.23992931188E+01  0.11594026854E+03 -0.13974282745E+03  0.23741864568E+03  0.15294330000E+03 0.  1.
<mgrwt>
<rscale>  0 0.19193633E+03</rscale>
<asrwt>0</asrwt>
<pdfrwt beam="1">  1        1 0.63587487E-01 0.19193633E+03</pdfrwt>
<pdfrwt beam="2">  1       -1 0.13818228E-01 0.19193633E+03</pdfrwt>
<totfact> 0.21051428E+03</totfact>
</mgrwt>
</event>
<event>
 4    1  0.2293715E-008  0.6040457E+03  0.7818608E-02  0.9897048E-01
         -1   -1    0    0    0  501 -0.00000000000E+00  0.00000000000E+00  0.98158499084E+03  0.98158499086E+03  0.50400000000E-02 0.  1.
          1   -1    0    0  501    0  0.00000000000E+00 -0.00000000000E+00 -0.54070483927E+03  0.54070483929E+03  0.50400000000E-02 0. -1.
    8880022    1    1    2    0    0  0.58419220434E+03 -0.14108903105E+02  0.64595589557E+03  0.88438128926E+03  0.15294330000E+03 0.  0.
    8880022    1    1    2    0    0 -0.58419220434E+03  0.14108903105E+02 -0.20507574399E+03  0.63790854089E+03  0.15294330000E+03 0. -1.
<mgrwt>
<rscale>  0 0.60404573E+03</rscale>
<asrwt>0</asrwt>
<pdfrwt beam="1">  1        1 0.83185360E-01 0.60404573E+03</pdfrwt>
<pdfrwt beam="2">  1       -1 0.15101307E+00 0.60404573E+03</pdfrwt>
<totfact> 0.14268135E+01</totfact>
</mgrwt>
</event>
<event>
 4    1  0.2293715E-008  0.6470337E+03  0.7818608E-02  0.9812361E-01
         -1   -1    0    0    0  501 -0.00000000000E+00  0.00000000000E+00  0.50399017272E+03  0.50399017274E+03  0.50400000000E-02 0.  1.
          1   -1    0    0  501    0  0.00000000000E+00 -0.00000000000E+00 -0.10385367559E+04  0.10385367560E+04  0.50400000000E-02 0. -1.
    8880022    1    1    2    0    0 -0.55694685565E+03  0.29166963597E+03 -0.61232000098E+03  0.89083579474E+03  0.15294330000E+03 0.  0.
    8880022    1    1    2    0    0  0.55694685565E+03 -0.29166963597E+03  0.77773417753E+02  0.65169113397E+03  0.15294330000E+03 0.  0.
<mgrwt>
<rscale>  0 0.64703372E+03</rscale>
<asrwt>0</asrwt>
<pdfrwt beam="1">  1        1 0.15977488E+00 0.64703372E+03</pdfrwt>
<pdfrwt beam="2">  1       -1 0.77536950E-01 0.64703372E+03</pdfrwt>
<totfact> 0.24531641E+01</totfact>
</mgrwt>
</event>
<event>
 4    1  0.2293715E-008  0.7346026E+03  0.7818608E-02  0.9659821E-01
          1   -1    0    0  501    0  0.00000000000E+00  0.00000000000E+00  0.12917770145E+04  0.12917770145E+04  0.50400000000E-02 0. -1.
         -1   -1    0    0    0  501 -0.00000000000E+00 -0.00000000000E+00 -0.58322889760E+03  0.58322889762E+03  0.50400000000E-02 0.  1.
    8880022    1    1    2    0    0 -0.13092921197E+03 -0.70647498298E+03 -0.14509686859E+03  0.74879510843E+03  0.15294330000E+03 0.  0.
    8880022    1    1    2    0    0  0.13092921197E+03  0.70647498298E+03  0.85364498550E+03  0.11262108037E+04  0.15294330000E+03 0.  0.
<mgrwt>
<rscale>  0 0.73460262E+03</rscale>
<asrwt>0</asrwt>
<pdfrwt beam="1">  1        1 0.19873492E+00 0.73460262E+03</pdfrwt>
<pdfrwt beam="2">  1       -1 0.89727523E-01 0.73460262E+03</pdfrwt>
<totfact> 0.11565805E+01</totfact>
</mgrwt>
</event>
<event>
 4    1  0.2293715E-008  0.3292523E+03  0.7818608E-02  0.1071468E+00
         -1   -1    0    0    0  501 -0.00000000000E+00  0.00000000000E+00  0.13769615191E+04  0.13769615191E+04  0.50400000000E-02 0.  1.
          1   -1    0    0  501    0  0.00000000000E+00 -0.00000000000E+00 -0.21760456793E+03  0.21760456799E+03  0.50400000000E-02 0. -1.
    8880022    1    1    2    0    0  0.25150721247E+03  0.14751126334E+03  0.12166075982E+04  0.12603734176E+04  0.15294330000E+03 0.  0.
    8880022    1    1    2    0    0 -0.25150721247E+03 -0.14751126334E+03 -0.57250647050E+02  0.33419266949E+03  0.15294330000E+03 0. -1.
<mgrwt>
<rscale>  0 0.32925234E+03</rscale>
<asrwt>0</asrwt>
<pdfrwt beam="1">  1        1 0.33477627E-01 0.32925234E+03</pdfrwt>
<pdfrwt beam="2">  1       -1 0.21184023E+00 0.32925234E+03</pdfrwt>
<totfact> 0.18254833E+01</totfact>
</mgrwt>
</event>
<event>
 4    1  0.2293715E-008  0.6387227E+03  0.7818608E-02  0.9828173E-01
          1   -1    0    0  501    0  0.00000000000E+00  0.00000000000E+00  0.16703745884E+04  0.16703745885E+04  0.50400000000E-02 0. -1.
         -1   -1    0    0    0  501 -0.00000000000E+00 -0.00000000000E+00 -0.34734033783E+03  0.34734033787E+03  0.50400000000E-02 0.  1.
    8880022    1    1    2    0    0 -0.55553459086E+03 -0.27560188364E+03  0.12111709449E+04  0.13692705323E+04  0.15294330000E+03 0.  0.
    8880022    1    1    2    0    0  0.55553459086E+03  0.27560188364E+03  0.11186330570E+03  0.64844439398E+03  0.15294330000E+03 0.  0.
<mgrwt>
<rscale>  0 0.63872274E+03</rscale>
<asrwt>0</asrwt>
<pdfrwt beam="1">  1        1 0.25698071E+00 0.63872274E+03</pdfrwt>
<pdfrwt beam="2">  1       -1 0.53436975E-01 0.63872274E+03</pdfrwt>
<totfact> 0.18606199E+01</totfact>
</mgrwt>
</event>
<event>
 4    1  0.2293715E-008  0.6930181E+03  0.7818608E-02  0.9729247E-01
         -1   -1    0    0    0  501 -0.00000000000E+00  0.00000000000E+00  0.64720695528E+03  0.64720695530E+03  0.50400000000E-02 0.  1.
          1   -1    0    0  501    0  0.00000000000E+00 -0.00000000000E+00 -0.27716500512E+04  0.27716500513E+04  0.50400000000E-02 0. -1.
    8880022    1    1    2    0    0 -0.53747015724E+03 -0.40988805600E+03 -0.25250205045E+04  0.26183969503E+04  0.15294330000E+03 0.  0.
    8880022    1    1    2    0    0  0.53747015724E+03  0.40988805600E+03  0.40057740852E+03  0.80046005622E+03  0.15294330000E+03 0.  0.
<mgrwt>
<rscale>  0 0.69301807E+03</rscale>
<asrwt>0</asrwt>
<pdfrwt beam="1">  1        1 0.42640769E+00 0.69301807E+03</pdfrwt>
<pdfrwt beam="2">  1       -1 0.99570303E-01 0.69301807E+03</pdfrwt>
<totfact> 0.91474799E-01</totfact>
</mgrwt>
</event>
<event>
 4    1  0.2293715E-008  0.7391457E+03  0.7818608E-02  0.9652535E-01
         -1   -1    0    0    0  501 -0.00000000000E+00  0.00000000000E+00  0.21793418627E+03  0.21793418633E+03  0.50400000000E-02 0.  1.
          1   -1    0    0  501    0  0.00000000000E+00 -0.00000000000E+00 -0.34123921199E+04  0.34123921199E+04  0.50400000000E-02 0. -1.
    8880022    1    1    2    0    0 -0.87569883878E+02  0.71782744775E+03 -0.66218581734E+03  0.99238421945E+03  0.15294330000E+03 0.  0.
    8880022    1    1    2    0    0  0.87569883878E+02 -0.71782744775E+03 -0.25322721163E+04  0.26379420868E+04  0.15294330000E+03 0.  0.
<mgrwt>
<rscale>  0 0.73914571E+03</rscale>
<asrwt>0</asrwt>
<pdfrwt beam="1">  1        1 0.52498336E+00 0.73914571E+03</pdfrwt>
<pdfrwt beam="2">  1       -1 0.33528339E-01 0.73914571E+03</pdfrwt>
<totfact> 0.26580573E+00</totfact>
</mgrwt>
</event>
<event>
 4    1  0.2293715E-008  0.6505687E+03  0.7818608E-02  0.9805713E-01
         -1   -1    0    0    0  501 -0.00000000000E+00  0.00000000000E+00  0.15537863786E+04  0.15537863786E+04  0.50400000000E-02 0.  1.
          1   -1    0    0  501    0  0.00000000000E+00 -0.00000000000E+00 -0.54679574298E+03  0.54679574300E+03  0.50400000000E-02 0. -1.
    8880022    1    1    2    0    0  0.22814102081E+03 -0.58974538286E+03 -0.24053701492E+03  0.69361203172E+03  0.15294330000E+03 0.  0.
    8880022    1    1    2    0    0 -0.22814102081E+03  0.58974538286E+03  0.12475276506E+04  0.14069700899E+04  0.15294330000E+03 0.  0.
<mgrwt>
<rscale>  0 0.65056867E+03</rscale>
<asrwt>0</asrwt>
<pdfrwt beam="1">  1        1 0.84122423E-01 0.65056867E+03</pdfrwt>
<pdfrwt beam="2">  1       -1 0.23904405E+00 0.65056867E+03</pdfrwt>
<totfact> 0.34068343E+00</totfact>
</mgrwt>
</event>
<event>
 4    1  0.2293715E-008  0.9486121E+03  0.7818608E-02  0.9366774E-01
         -1   -1    0    0    0  501 -0.00000000000E+00  0.00000000000E+00  0.53660543380E+03  0.53660543382E+03  0.50400000000E-02 0.  1.
          1   -1    0    0  501    0  0.00000000000E+00 -0.00000000000E+00 -0.21021064742E+04  0.21021064742E+04  0.50400000000E-02 0. -1.
    8880022    1    1    2    0    0  0.90972738138E+03  0.22106397771E+03 -0.18940881758E+03  0.96733683062E+03  0.15294330000E+03 0.  0.
    8880022    1    1    2    0    0 -0.90972738138E+03 -0.22106397771E+03 -0.13760922229E+04  0.16713750775E+04  0.15294330000E+03 0.  0.
<mgrwt>
<rscale>  0 0.94861206E+03</rscale>
<asrwt>0</asrwt>
<pdfrwt beam="1">  1        1 0.32340099E+00 0.94861206E+03</pdfrwt>
<pdfrwt beam="2">  1       -1 0.82554683E-01 0.94861206E+03</pdfrwt>
<totfact> 0.37780558E+00</totfact>
</mgrwt>
</event>
<event>
 4    1  0.2293715E-008  0.5963603E+03  0.7818608E-02  0.9912986E-01
         -1   -1    0    0    0  501 -0.00000000000E+00  0.00000000000E+00  0.35847728361E+03  0.35847728364E+03  0.50400000000E-02 0.  1.
          1   -1    0    0  501    0  0.00000000000E+00 -0.00000000000E+00 -0.12764753136E+04  0.12764753136E+04  0.50400000000E-02 0. -1.
    8880022    1    1    2    0    0  0.60499288956E+02  0.57323100900E+03 -0.84484526245E+03  0.10341223932E+04  0.15294330000E+03 0.  0.
    8880022    1    1    2    0    0 -0.60499288956E+02 -0.57323100900E+03 -0.73152767507E+02  0.60083020401E+03  0.15294330000E+03 0.  0.
<mgrwt>
<rscale>  0 0.59636030E+03</rscale>
<asrwt>0</asrwt>
<pdfrwt beam="1">  1        1 0.19638082E+00 0.59636030E+03</pdfrwt>
<pdfrwt beam="2">  1       -1 0.55150352E-01 0.59636030E+03</pdfrwt>
<totfact> 0.32811130E+01</totfact>
</mgrwt>
</event>
<event>
 4    1  0.2293715E-008  0.6119571E+03  0.7818608E-02  0.9880905E-01
         -1   -1    0    0    0  501 -0.00000000000E+00  0.00000000000E+00  0.11494249912E+04  0.11494249912E+04  0.50400000000E-02 0.  1.
          1   -1    0    0  501    0  0.00000000000E+00 -0.00000000000E+00 -0.78565431306E+03  0.78565431307E+03  0.50400000000E-02 0. -1.
    8880022    1    1    2    0    0  0.31569109495E+03  0.50143686001E+03 -0.55833249928E+03  0.82838796754E+03  0.15294330000E+03 0. -1.
    8880022    1    1    2    0    0 -0.31569109495E+03 -0.50143686001E+03  0.92210317745E+03  0.11066913368E+04  0.15294330000E+03 0.  0.
<mgrwt>
<rscale>  0 0.61195706E+03</rscale>
<asrwt>0</asrwt>
<pdfrwt beam="1">  1        1 0.12086989E+00 0.61195706E+03</pdfrwt>
<pdfrwt beam="2">  1       -1 0.17683461E+00 0.61195706E+03</pdfrwt>
<totfact> 0.52898236E+00</totfact>
</mgrwt>
</event>
<event>
 4    1  0.2293715E-008  0.5529384E+03  0.7818608E-02  0.1000816E+00
         -1   -1    0    0    0  501 -0.00000000000E+00  0.00000000000E+00  0.88342308934E+03  0.88342308936E+03  0.50400000000E-02 0.  1.
          1   -1    0    0  501    0  0.00000000000E+00 -0.00000000000E+00 -0.11994580851E+04  0.11994580851E+04  0.50400000000E-02 0. -1.
    8880022    1    1    2    0    0  0.51664711737E+03 -0.12419753479E+03 -0.10364552977E+04  0.11747257164E+04  0.15294330000E+03 0.  0.
    8880022    1    1    2    0    0 -0.51664711737E+03  0.12419753479E+03  0.72042030198E+03  0.90815545808E+03  0.15294330000E+03 0.  0.
<mgrwt>
<rscale>  0 0.55293845E+03</rscale>
<asrwt>0</asrwt>
<pdfrwt beam="1">  1        1 0.18453201E+00 0.55293845E+03</pdfrwt>
<pdfrwt beam="2">  1       -1 0.13591125E+00 0.55293845E+03</pdfrwt>
<totfact> 0.52164903E+00</totfact>
</mgrwt>
</event>
<event>
 4    1  0.2293715E-008  0.3494023E+03  0.7818608E-02  0.1062861E+00
         -1   -1    0    0    0  501 -0.00000000000E+00  0.00000000000E+00  0.59803412948E+03  0.59803412950E+03  0.50400000000E-02 0.  1.
          1   -1    0    0  501    0  0.00000000000E+00 -0.00000000000E+00 -0.85031571203E+03  0.85031571204E+03  0.50400000000E-02 0. -1.
    8880022    1    1    2    0    0  0.11492370230E+03  0.29237455594E+03  0.50514946258E+03  0.61421329429E+03  0.15294330000E+03 0.  0.
    8880022    1    1    2    0    0 -0.11492370230E+03 -0.29237455594E+03 -0.75743104514E+03  0.83413654725E+03  0.15294330000E+03 0.  0.
<mgrwt>
<rscale>  0 0.34940233E+03</rscale>
<asrwt>0</asrwt>
<pdfrwt beam="1">  1        1 0.13081780E+00 0.34940233E+03</pdfrwt>
<pdfrwt beam="2">  1       -1 0.92005251E-01 0.34940233E+03</pdfrwt>
<totfact> 0.25245260E+01</totfact>
</mgrwt>
</event>
<event>
 4    1  0.2293715E-008  0.1829011E+03  0.7818608E-02  0.1165025E+00
          1   -1    0    0  501    0  0.00000000000E+00  0.00000000000E+00  0.39581435161E+03  0.39581435164E+03  0.50400000000E-02 0. -1.
         -1   -1    0    0    0  501 -0.00000000000E+00 -0.00000000000E+00 -0.28326808036E+03  0.28326808040E+03  0.50400000000E-02 0.  1.
    8880022    1    1    2    0    0  0.98133210991E+02  0.20760950324E+02 -0.22813964188E+03  0.29240467398E+03  0.15294330000E+03 0.  0.
    8880022    1    1    2    0    0 -0.98133210991E+02 -0.20760950324E+02  0.34068591313E+03  0.38667775806E+03  0.15294330000E+03 0. -1.
<mgrwt>
<rscale>  0 0.18290106E+03</rscale>
<asrwt>0</asrwt>
<pdfrwt beam="1">  1        1 0.60894515E-01 0.18290106E+03</pdfrwt>
<pdfrwt beam="2">  1       -1 0.43579705E-01 0.18290106E+03</pdfrwt>
<totfact> 0.32965914E+02</totfact>
</mgrwt>
</event>
<event>
 4    1  0.2293715E-008  0.1197427E+04  0.7818608E-02  0.9115111E-01
         -1   -1    0    0    0  501 -0.00000000000E+00  0.00000000000E+00  0.14051921552E+04  0.14051921552E+04  0.50400000000E-02 0.  1.
          1   -1    0    0  501    0  0.00000000000E+00 -0.00000000000E+00 -0.17130613522E+04  0.17130613522E+04  0.50400000000E-02 0. -1.
    8880022    1    1    2    0    0 -0.97249666120E+03 -0.68168252011E+03 -0.11453625445E+04  0.16570117156E+04  0.15294330000E+03 0.  0.
    8880022    1    1    2    0    0  0.97249666120E+03  0.68168252011E+03  0.83749334749E+03  0.14612417919E+04  0.15294330000E+03 0.  0.
<mgrwt>
<rscale>  0 0.11974274E+04</rscale>
<asrwt>0</asrwt>
<pdfrwt beam="1">  1        1 0.26354790E+00 0.11974274E+04</pdfrwt>
<pdfrwt beam="2">  1       -1 0.21618341E+00 0.11974274E+04</pdfrwt>
<totfact> 0.53465341E-01</totfact>
</mgrwt>
</event>
<event>
 4    1  0.2293715E-008  0.5042288E+03  0.7818608E-02  0.1012681E+00
          1   -1    0    0  501    0  0.00000000000E+00  0.00000000000E+00  0.10629642440E+04  0.10629642441E+04  0.50400000000E-02 0. -1.
         -1   -1    0    0    0  501 -0.00000000000E+00 -0.00000000000E+00 -0.47603848684E+03  0.47603848687E+03  0.50400000000E-02 0.  1.
    8880022    1    1    2    0    0 -0.39763954488E+03 -0.26969941045E+03 -0.24932099182E+03  0.56250119078E+03  0.15294330000E+03 0.  0.
    8880022    1    1    2    0    0  0.39763954488E+03  0.26969941045E+03  0.83624674902E+03  0.97650154015E+03  0.15294330000E+03 0. -1.
<mgrwt>
<rscale>  0 0.50422875E+03</rscale>
<asrwt>0</asrwt>
<pdfrwt beam="1">  1        1 0.16353296E+00 0.50422875E+03</pdfrwt>
<pdfrwt beam="2">  1       -1 0.73236691E-01 0.50422875E+03</pdfrwt>
<totfact> 0.27058762E+01</totfact>
</mgrwt>
</event>
<event>
 4    1  0.2293715E-008  0.7051124E+03  0.7818608E-02  0.9708529E-01
         -1   -1    0    0    0  501 -0.00000000000E+00  0.00000000000E+00  0.61630401308E+03  0.61630401310E+03  0.50400000000E-02 0.  1.
          1   -1    0    0  501    0  0.00000000000E+00 -0.00000000000E+00 -0.13797080898E+04  0.13797080898E+04  0.50400000000E-02 0. -1.
    8880022    1    1    2    0    0  0.68121541832E+03  0.98678213193E+02 -0.10248533453E+04  0.12439886930E+04  0.15294330000E+03 0.  0.
    8880022    1    1    2    0    0 -0.68121541832E+03 -0.98678213193E+02  0.26144926863E+03  0.75202340988E+03  0.15294330000E+03 0.  0.
<mgrwt>
<rscale>  0 0.70511239E+03</rscale>
<asrwt>0</asrwt>
<pdfrwt beam="1">  1        1 0.21226278E+00 0.70511239E+03</pdfrwt>
<pdfrwt beam="2">  1       -1 0.94816002E-01 0.70511239E+03</pdfrwt>
<totfact> 0.89200672E+00</totfact>
</mgrwt>
</event>
<event>
 4    1  0.2293715E-008  0.3611811E+03  0.7818608E-02  0.1058117E+00
         -1   -1    0    0    0  501 -0.00000000000E+00  0.00000000000E+00  0.35789952991E+04  0.35789952991E+04  0.50400000000E-02 0.  1.
          1   -1    0    0  501    0  0.00000000000E+00 -0.00000000000E+00 -0.29383382827E+03  0.29383382832E+03  0.50400000000E-02 0. -1.
    8880022    1    1    2    0    0  0.99050127787E+02 -0.31184806430E+03  0.34549165816E+04  0.34737444325E+04  0.15294330000E+03 0.  0.
    8880022    1    1    2    0    0 -0.99050127787E+02  0.31184806430E+03 -0.16975511086E+03  0.39908469490E+03  0.15294330000E+03 0.  0.
<mgrwt>
<rscale>  0 0.36118111E+03</rscale>
<asrwt>0</asrwt>
<pdfrwt beam="1">  1        1 0.45205204E-01 0.36118111E+03</pdfrwt>
<pdfrwt beam="2">  1       -1 0.55061466E+00 0.36118111E+03</pdfrwt>
<totfact> 0.77717889E-02</totfact>
</mgrwt>
</event>
<event>
 4    1  0.2293715E-008  0.5096253E+03  0.7818608E-02  0.1011297E+00
         -1   -1    0    0    0  501 -0.00000000000E+00  0.00000000000E+00  0.54524567458E+03  0.54524567460E+03  0.50400000000E-02 0.  1.
          1   -1    0    0  501    0  0.00000000000E+00 -0.00000000000E+00 -0.17605971139E+04  0.17605971139E+04  0.50400000000E-02 0. -1.
    8880022    1    1    2    0    0 -0.34718324966E+03  0.34027936908E+03 -0.15923601347E+04  0.16719236554E+04  0.15294330000E+03 0.  0.
    8880022    1    1    2    0    0  0.34718324966E+03 -0.34027936908E+03  0.37700869541E+03  0.63391913308E+03  0.15294330000E+03 0.  0.
<mgrwt>
<rscale>  0 0.50962527E+03</rscale>
<asrwt>0</asrwt>
<pdfrwt beam="1">  1        1 0.27086109E+00 0.50962527E+03</pdfrwt>
<pdfrwt beam="2">  1       -1 0.83883951E-01 0.50962527E+03</pdfrwt>
<totfact> 0.66942783E+00</totfact>
</mgrwt>
</event>
<event>
 4    1  0.2293715E-008  0.2010841E+03  0.7818608E-02  0.1148828E+00
          1   -1    0    0  501    0  0.00000000000E+00  0.00000000000E+00  0.30028925255E+04  0.30028925255E+04  0.50400000000E-02 0. -1.
         -1   -1    0    0    0  501 -0.00000000000E+00 -0.00000000000E+00 -0.25837463180E+02  0.25837463672E+02  0.50400000000E-02 0.  1.
    8880022    1    1    2    0    0 -0.12945868393E+03 -0.16840354282E+02  0.25364489699E+04  0.25444072351E+04  0.15294330000E+03 0.  0.
    8880022    1    1    2    0    0  0.12945868393E+03  0.16840354282E+02  0.44060609248E+03  0.48432275409E+03  0.15294330000E+03 0.  1.
<mgrwt>
<rscale>  0 0.20108407E+03</rscale>
<asrwt>0</asrwt>
<pdfrwt beam="1">  1        1 0.46198337E+00 0.20108407E+03</pdfrwt>
<pdfrwt beam="2">  1       -1 0.39749952E-02 0.20108407E+03</pdfrwt>
<totfact> 0.18257328E+02</totfact>
</mgrwt>
</event>
<event>
 4    1  0.2293715E-008  0.2370570E+03  0.7818608E-02  0.1121769E+00
          1   -1    0    0  501    0  0.00000000000E+00  0.00000000000E+00  0.84382411284E+03  0.84382411285E+03  0.50400000000E-02 0. -1.
         -1   -1    0    0    0  501 -0.00000000000E+00 -0.00000000000E+00 -0.24830604260E+03  0.24830604265E+03  0.50400000000E-02 0.  1.
    8880022    1    1    2    0    0 -0.12736195832E+03 -0.12877613011E+03  0.76489061605E+03  0.80078315895E+03  0.15294330000E+03 0.  0.
    8880022    1    1    2    0    0  0.12736195832E+03  0.12877613011E+03 -0.16937254581E+03  0.29134699656E+03  0.15294330000E+03 0.  1.
<mgrwt>
<rscale>  0 0.23705698E+03</rscale>
<asrwt>0</asrwt>
<pdfrwt beam="1">  1        1 0.12981909E+00 0.23705698E+03</pdfrwt>
<pdfrwt beam="2">  1       -1 0.38200931E-01 0.23705698E+03</pdfrwt>
<totfact> 0.14464006E+02</totfact>
</mgrwt>
</event>
<event>
 4    1  0.2293715E-008  0.3460475E+03  0.7818608E-02  0.1064249E+00
         -1   -1    0    0    0  501 -0.00000000000E+00  0.00000000000E+00  0.51936986603E+03  0.51936986606E+03  0.50400000000E-02 0.  1.
          1   -1    0    0  501    0  0.00000000000E+00 -0.00000000000E+00 -0.10240278597E+04  0.10240278597E+04  0.50400000000E-02 0. -1.
    8880022    1    1    2    0    0  0.22795479811E+03 -0.21069842627E+03 -0.93161878812E+03  0.99381207288E+03  0.15294330000E+03 0. -1.
    8880022    1    1    2    0    0 -0.22795479811E+03  0.21069842627E+03  0.42696079447E+03  0.54958565287E+03  0.15294330000E+03 0.  0.
<mgrwt>
<rscale>  0 0.34604750E+03</rscale>
<asrwt>0</asrwt>
<pdfrwt beam="1">  1        1 0.15754275E+00 0.34604750E+03</pdfrwt>
<pdfrwt beam="2">  1       -1 0.79903057E-01 0.34604750E+03</pdfrwt>
<totfact> 0.24983663E+01</totfact>
</mgrwt>
</event>
<event>
 4    1  0.2293715E-008  0.1152942E+04  0.7818608E-02  0.9155074E-01
          1   -1    0    0  501    0  0.00000000000E+00  0.00000000000E+00  0.91044285565E+03  0.91044285566E+03  0.50400000000E-02 0. -1.
         -1   -1    0    0    0  501 -0.00000000000E+00 -0.00000000000E+00 -0.24158108698E+04  0.24158108698E+04  0.50400000000E-02 0.  1.
    8880022    1    1    2    0    0 -0.56997412222E+03  0.99046126644E+03 -0.17987826358E+04  0.21365614066E+04  0.15294330000E+03 0.  0.
    8880022    1    1    2    0    0  0.56997412222E+03 -0.99046126644E+03  0.29341462167E+03  0.11896923189E+04  0.15294330000E+03 0.  0.
<mgrwt>
<rscale>  0 0.11529422E+04</rscale>
<asrwt>0</asrwt>
<pdfrwt beam="1">  1        1 0.14006813E+00 0.11529422E+04</pdfrwt>
<pdfrwt beam="2">  1       -1 0.37166321E+00 0.11529422E+04</pdfrwt>
<totfact> 0.19831060E-01</totfact>
</mgrwt>
</event>
<event>
 4    1  0.2293715E-008  0.3279902E+03  0.7818608E-02  0.1072030E+00
         -1   -1    0    0    0  501 -0.00000000000E+00  0.00000000000E+00  0.60570763831E+03  0.60570763833E+03  0.50400000000E-02 0.  1.
          1   -1    0    0  501    0  0.00000000000E+00 -0.00000000000E+00 -0.19136364136E+03  0.19136364143E+03  0.50400000000E-02 0. -1.
    8880022    1    1    2    0    0 -0.28043336651E+03  0.74451641121E+02  0.31402890915E+03  0.45408339401E+03  0.15294330000E+03 0.  0.
    8880022    1    1    2    0    0  0.28043336651E+03 -0.74451641121E+02  0.10031508779E+03  0.34298788575E+03  0.15294330000E+03 0.  0.
<mgrwt>
<rscale>  0 0.32799020E+03</rscale>
<asrwt>0</asrwt>
<pdfrwt beam="1">  1        1 0.29440561E-01 0.32799020E+03</pdfrwt>
<pdfrwt beam="2">  1       -1 0.93185790E-01 0.32799020E+03</pdfrwt>
<totfact> 0.18302268E+02</totfact>
</mgrwt>
</event>
<event>
 4    1  0.2293715E-008  0.4726021E+03  0.7818608E-02  0.1021188E+00
          1   -1    0    0  501    0  0.00000000000E+00  0.00000000000E+00  0.27056540073E+03  0.27056540078E+03  0.50400000000E-02 0. -1.
         -1   -1    0    0    0  501 -0.00000000000E+00 -0.00000000000E+00 -0.12956926242E+04  0.12956926242E+04  0.50400000000E-02 0.  1.
    8880022    1    1    2    0    0 -0.39690444637E+03  0.20598035270E+03 -0.98432086679E+03  0.10918975534E+04  0.15294330000E+03 0.  0.
    8880022    1    1    2    0    0  0.39690444637E+03 -0.20598035270E+03 -0.40806356655E+02  0.47436047159E+03  0.15294330000E+03 0. -1.
<mgrwt>
<rscale>  0 0.47260205E+03</rscale>
<asrwt>0</asrwt>
<pdfrwt beam="1">  1        1 0.41625447E-01 0.47260205E+03</pdfrwt>
<pdfrwt beam="2">  1       -1 0.19933732E+00 0.47260205E+03</pdfrwt>
<totfact> 0.16284817E+01</totfact>
</mgrwt>
</event>
<event>
 4    1  0.2293715E-008  0.1941291E+04  0.7818608E-02  0.8634572E-01
          1   -1    0    0  501    0  0.00000000000E+00  0.00000000000E+00  0.18032400409E+04  0.18032400409E+04  0.50400000000E-02 0. -1.
         -1   -1    0    0    0  501 -0.00000000000E+00 -0.00000000000E+00 -0.22489284506E+04  0.22489284506E+04  0.50400000000E-02 0.  1.
    8880022    1    1    2    0    0 -0.10553729499E+04  0.16221618093E+04 -0.76159878063E+03  0.20853405848E+04  0.15294330000E+03 0.  0.
    8880022    1    1    2    0    0  0.10553729499E+04 -0.16221618093E+04  0.31591037094E+03  0.19668279066E+04  0.15294330000E+03 0.  0.
<mgrwt>
<rscale>  0 0.19412915E+04</rscale>
<asrwt>0</asrwt>
<pdfrwt beam="1">  1        1 0.27742154E+00 0.19412915E+04</pdfrwt>
<pdfrwt beam="2">  1       -1 0.34598899E+00 0.19412915E+04</pdfrwt>
<totfact> 0.60094721E-02</totfact>
</mgrwt>
</event>
<event>
 4    1  0.2293715E-008  0.7031516E+03  0.7818608E-02  0.9711858E-01
         -1   -1    0    0    0  501 -0.00000000000E+00  0.00000000000E+00  0.31964981881E+03  0.31964981885E+03  0.50400000000E-02 0.  1.
          1   -1    0    0  501    0  0.00000000000E+00 -0.00000000000E+00 -0.19257944454E+04  0.19257944454E+04  0.50400000000E-02 0. -1.
    8880022    1    1    2    0    0  0.55364921051E+03 -0.40558977424E+03 -0.13011597192E+04  0.14789992499E+04  0.15294330000E+03 0.  0.
    8880022    1    1    2    0    0 -0.55364921051E+03  0.40558977424E+03 -0.30498490735E+03  0.76644501433E+03  0.15294330000E+03 0.  0.
<mgrwt>
<rscale>  0 0.70315160E+03</rscale>
<asrwt>0</asrwt>
<pdfrwt beam="1">  1        1 0.29627606E+00 0.70315160E+03</pdfrwt>
<pdfrwt beam="2">  1       -1 0.49176896E-01 0.70315160E+03</pdfrwt>
<totfact> 0.14553271E+01</totfact>
</mgrwt>
</event>
<event>
 4    1  0.2293715E-008  0.5397026E+03  0.7818608E-02  0.1003906E+00
         -1   -1    0    0    0  501 -0.00000000000E+00  0.00000000000E+00  0.15068300936E+04  0.15068300936E+04  0.50400000000E-02 0.  1.
          1   -1    0    0  501    0  0.00000000000E+00 -0.00000000000E+00 -0.22821481931E+04  0.22821481931E+04  0.50400000000E-02 0. -1.
    8880022    1    1    2    0    0 -0.17985553887E+03 -0.48532384104E+03  0.14248201987E+04  0.15236113341E+04  0.15294330000E+03 0.  0.
    8880022    1    1    2    0    0  0.17985553887E+03  0.48532384104E+03 -0.22001382982E+04  0.22653669526E+04  0.15294330000E+03 0.  0.
<mgrwt>
<rscale>  0 0.53970260E+03</rscale>
<asrwt>0</asrwt>
<pdfrwt beam="1">  1        1 0.35109972E+00 0.53970260E+03</pdfrwt>
<pdfrwt beam="2">  1       -1 0.23182002E+00 0.53970260E+03</pdfrwt>
<totfact> 0.20226518E-01</totfact>
</mgrwt>
</event>
<event>
 4    1  0.2293715E-008  0.1146580E+04  0.7818608E-02  0.9160944E-01
          1   -1    0    0  501    0  0.00000000000E+00  0.00000000000E+00  0.11191266616E+04  0.11191266616E+04  0.50400000000E-02 0. -1.
         -1   -1    0    0    0  501 -0.00000000000E+00 -0.00000000000E+00 -0.16157555670E+04  0.16157555670E+04  0.50400000000E-02 0.  1.
    8880022    1    1    2    0    0 -0.10295626580E+03  0.11316601647E+04  0.46612234033E+03  0.12377061082E+04  0.15294330000E+03 0.  0.
    8880022    1    1    2    0    0  0.10295626580E+03 -0.11316601647E+04 -0.96275124580E+03  0.14971761204E+04  0.15294330000E+03 0.  0.
<mgrwt>
<rscale>  0 0.11465803E+04</rscale>
<asrwt>0</asrwt>
<pdfrwt beam="1">  1        1 0.17217333E+00 0.11465803E+04</pdfrwt>
<pdfrwt beam="2">  1       -1 0.24857778E+00 0.11465803E+04</pdfrwt>
<totfact> 0.86337490E-01</totfact>
</mgrwt>
</event>
<event>
 4    1  0.2293715E-008  0.7806613E+03  0.7818608E-02  0.9588439E-01
         -1   -1    0    0    0  501 -0.00000000000E+00  0.00000000000E+00  0.35299115471E+03  0.35299115475E+03  0.50400000000E-02 0.  1.
          1   -1    0    0  501    0  0.00000000000E+00 -0.00000000000E+00 -0.28781223817E+04  0.28781223817E+04  0.50400000000E-02 0. -1.
    8880022    1    1    2    0    0 -0.27218707468E+03  0.71551003850E+03 -0.22845081258E+04  0.24142099016E+04  0.15294330000E+03 0.  0.
    8880022    1    1    2    0    0  0.27218707468E+03 -0.71551003850E+03 -0.24062310112E+03  0.81690363485E+03  0.15294330000E+03 0.  0.
<mgrwt>
<rscale>  0 0.78066130E+03</rscale>
<asrwt>0</asrwt>
<pdfrwt beam="1">  1        1 0.44278804E+00 0.78066130E+03</pdfrwt>
<pdfrwt beam="2">  1       -1 0.54306333E-01 0.78066130E+03</pdfrwt>
<totfact> 0.26687852E+00</totfact>
</mgrwt>
</event>
<event>
 4    1  0.2293715E-008  0.5970788E+03  0.7818608E-02  0.9911485E-01
          1   -1    0    0  501    0  0.00000000000E+00  0.00000000000E+00  0.31025717467E+04  0.31025717467E+04  0.50400000000E-02 0. -1.
         -1   -1    0    0    0  501 -0.00000000000E+00 -0.00000000000E+00 -0.26949584151E+03  0.26949584155E+03  0.50400000000E-02 0.  1.
    8880022    1    1    2    0    0 -0.55841989073E+03  0.14587193746E+03  0.13956647545E+03  0.61317358928E+03  0.15294330000E+03 0.  0.
    8880022    1    1    2    0    0  0.55841989073E+03 -0.14587193746E+03  0.26935094298E+04  0.27588939990E+04  0.15294330000E+03 0.  0.
<mgrwt>
<rscale>  0 0.59707876E+03</rscale>
<asrwt>0</asrwt>
<pdfrwt beam="1">  1        1 0.47731870E+00 0.59707876E+03</pdfrwt>
<pdfrwt beam="2">  1       -1 0.41460901E-01 0.59707876E+03</pdfrwt>
<totfact> 0.31825243E+00</totfact>
</mgrwt>
</event>
<event>
 4    1  0.2293715E-008  0.6682341E+03  0.7818608E-02  0.9773153E-01
         -1   -1    0    0    0  501 -0.00000000000E+00  0.00000000000E+00  0.82726801597E+03  0.82726801598E+03  0.50400000000E-02 0.  1.
          1   -1    0    0  501    0  0.00000000000E+00 -0.00000000000E+00 -0.89708296335E+03  0.89708296337E+03  0.50400000000E-02 0. -1.
    8880022    1    1    2    0    0 -0.34401761977E+03  0.55208423606E+03 -0.57903669341E+03  0.88420601206E+03  0.15294330000E+03 0.  0.
    8880022    1    1    2    0    0  0.34401761977E+03 -0.55208423606E+03  0.50922174603E+03  0.84014496729E+03  0.15294330000E+03 0.  0.
<mgrwt>
<rscale>  0 0.66823408E+03</rscale>
<asrwt>0</asrwt>
<pdfrwt beam="1">  1        1 0.13801276E+00 0.66823408E+03</pdfrwt>
<pdfrwt beam="2">  1       -1 0.12727200E+00 0.66823408E+03</pdfrwt>
<totfact> 0.10218487E+01</totfact>
</mgrwt>
</event>
<event>
 4    1  0.2293715E-008  0.2749806E+03  0.7818608E-02  0.1098462E+00
         -1   -1    0    0    0  501 -0.00000000000E+00  0.00000000000E+00  0.62333717304E+03  0.62333717306E+03  0.50400000000E-02 0.  1.
          1   -1    0    0  501    0  0.00000000000E+00 -0.00000000000E+00 -0.38346591221E+03  0.38346591224E+03  0.50400000000E-02 0. -1.
    8880022    1    1    2    0    0  0.51599196101E+02  0.22262125099E+03  0.53616675368E+03  0.60256878379E+03  0.15294330000E+03 0.  0.
    8880022    1    1    2    0    0 -0.51599196101E+02 -0.22262125099E+03 -0.29629549284E+03  0.40423430152E+03  0.15294330000E+03 0.  0.
<mgrwt>
<rscale>  0 0.27498064E+03</rscale>
<asrwt>0</asrwt>
<pdfrwt beam="1">  1        1 0.58994756E-01 0.27498064E+03</pdfrwt>
<pdfrwt beam="2">  1       -1 0.95898026E-01 0.27498064E+03</pdfrwt>
<totfact> 0.71586953E+01</totfact>
</mgrwt>
</event>
<event>
 4    1  0.2293715E-008  0.5577987E+03  0.7818608E-02  0.9997048E-01
         -1   -1    0    0    0  501 -0.00000000000E+00  0.00000000000E+00  0.38549458117E+03  0.38549458120E+03  0.50400000000E-02 0.  1.
          1   -1    0    0  501    0  0.00000000000E+00 -0.00000000000E+00 -0.16598977819E+04  0.16598977819E+04  0.50400000000E-02 0. -1.
    8880022    1    1    2    0    0  0.24829853418E+02 -0.53584630671E+03 -0.13702362881E+04  0.14794211450E+04  0.15294330000E+03 0.  0.
    8880022    1    1    2    0    0 -0.24829853418E+02  0.53584630671E+03  0.95833087407E+02  0.56597121808E+03  0.15294330000E+03 0.  0.
<mgrwt>
<rscale>  0 0.55779874E+03</rscale>
<asrwt>0</asrwt>
<pdfrwt beam="1">  1        1 0.25536889E+00 0.55779874E+03</pdfrwt>
<pdfrwt beam="2">  1       -1 0.59306859E-01 0.55779874E+03</pdfrwt>
<totfact> 0.15681397E+01</totfact>
</mgrwt>
</event>
<event>
 4    1  0.2293715E-008  0.7421582E+03  0.7818608E-02  0.9647734E-01
         -1   -1    0    0    0  501 -0.00000000000E+00  0.00000000000E+00  0.82021917403E+03  0.82021917404E+03  0.50400000000E-02 0.  1.
          1   -1    0    0  501    0  0.00000000000E+00 -0.00000000000E+00 -0.10909112990E+04  0.10909112990E+04  0.50400000000E-02 0. -1.
    8880022    1    1    2    0    0  0.53546295530E+03  0.49059821072E+03  0.45713164336E+03  0.87164681680E+03  0.15294330000E+03 0.  0.
    8880022    1    1    2    0    0 -0.53546295530E+03 -0.49059821072E+03 -0.72782376836E+03  0.10394836563E+04  0.15294330000E+03 0.  0.
<mgrwt>
<rscale>  0 0.74215823E+03</rscale>
<asrwt>0</asrwt>
<pdfrwt beam="1">  1        1 0.16783251E+00 0.74215823E+03</pdfrwt>
<pdfrwt beam="2">  1       -1 0.12618757E+00 0.74215823E+03</pdfrwt>
<totfact> 0.72958423E+00</totfact>
</mgrwt>
</event>
<event>
 4    1  0.2293715E-008  0.2344810E+03  0.7818608E-02  0.1123525E+00
         -1   -1    0    0    0  501 -0.00000000000E+00  0.00000000000E+00  0.49037634688E+03  0.49037634691E+03  0.50400000000E-02 0.  1.
          1   -1    0    0  501    0  0.00000000000E+00 -0.00000000000E+00 -0.71499127128E+03  0.71499127130E+03  0.50400000000E-02 0. -1.
    8880022    1    1    2    0    0 -0.17991022627E+02 -0.17682193597E+03  0.44110789407E+03  0.49955730518E+03  0.15294330000E+03 0.  0.
    8880022    1    1    2    0    0  0.17991022627E+02  0.17682193597E+03 -0.66572281847E+03  0.70581031303E+03  0.15294330000E+03 0. -1.
<mgrwt>
<rscale>  0 0.23448097E+03</rscale>
<asrwt>0</asrwt>
<pdfrwt beam="1">  1        1 0.10999866E+00 0.23448097E+03</pdfrwt>
<pdfrwt beam="2">  1       -1 0.75442515E-01 0.23448097E+03</pdfrwt>
<totfact> 0.51613980E+01</totfact>
</mgrwt>
</event>
<event>
 4    1  0.2293715E-008  0.5626462E+03  0.7818608E-02  0.9986085E-01
          1   -1    0    0  501    0  0.00000000000E+00  0.00000000000E+00  0.17751034445E+04  0.17751034445E+04  0.50400000000E-02 0. -1.
         -1   -1    0    0    0  501 -0.00000000000E+00 -0.00000000000E+00 -0.71075703218E+03  0.71075703219E+03  0.50400000000E-02 0.  1.
    8880022    1    1    2    0    0 -0.51654119339E+03 -0.16237074030E+03 -0.54357944406E+03  0.78233581459E+03  0.15294330000E+03 0.  0.
    8880022    1    1    2    0    0  0.51654119339E+03  0.16237074030E+03  0.16079258564E+04  0.17035246621E+04  0.15294330000E+03 0.  0.
<mgrwt>
<rscale>  0 0.56264617E+03</rscale>
<asrwt>0</asrwt>
<pdfrwt beam="1">  1        1 0.27309283E+00 0.56264617E+03</pdfrwt>
<pdfrwt beam="2">  1       -1 0.10934724E+00 0.56264617E+03</pdfrwt>
<totfact> 0.35740642E+00</totfact>
</mgrwt>
</event>
<event>
 4    1  0.2293715E-008  0.2427685E+03  0.7818608E-02  0.1117962E+00
         -1   -1    0    0    0  501 -0.00000000000E+00  0.00000000000E+00  0.22819068627E+02  0.22819069183E+02  0.50400000000E-02 0.  1.
          1   -1    0    0  501    0  0.00000000000E+00 -0.00000000000E+00 -0.30367587736E+04  0.30367587736E+04  0.50400000000E-02 0. -1.
    8880022    1    1    2    0    0 -0.31809483764E+02 -0.18583073543E+03 -0.20984575784E+04  0.21124537312E+04  0.15294330000E+03 0.  0.
    8880022    1    1    2    0    0  0.31809483764E+02  0.18583073543E+03 -0.91548212662E+03  0.94712411154E+03  0.15294330000E+03 0. -1.
<mgrwt>
<rscale>  0 0.24276853E+03</rscale>
<asrwt>0</asrwt>
<pdfrwt beam="1">  1        1 0.46719334E+00 0.24276853E+03</pdfrwt>
<pdfrwt beam="2">  1       -1 0.35106284E-02 0.24276853E+03</pdfrwt>
<totfact> 0.20517025E+02</totfact>
</mgrwt>
</event>
<event>
 4    1  0.2293715E-008  0.6119243E+03  0.7818608E-02  0.9880971E-01
          1   -1    0    0  501    0  0.00000000000E+00  0.00000000000E+00  0.71180800010E+03  0.71180800012E+03  0.50400000000E-02 0. -1.
         -1   -1    0    0    0  501 -0.00000000000E+00 -0.00000000000E+00 -0.69620166064E+03  0.69620166066E+03  0.50400000000E-02 0.  1.
    8880022    1    1    2    0    0 -0.28551400547E+03  0.51917386183E+03 -0.34022756656E+03  0.70014726750E+03  0.15294330000E+03 0.  0.
    8880022    1    1    2    0    0  0.28551400547E+03 -0.51917386183E+03  0.35583390602E+03  0.70786239328E+03  0.15294330000E+03 0.  0.
<mgrwt>
<rscale>  0 0.61192434E+03</rscale>
<asrwt>0</asrwt>
<pdfrwt beam="1">  1        1 0.10950892E+00 0.61192434E+03</pdfrwt>
<pdfrwt beam="2">  1       -1 0.10710795E+00 0.61192434E+03</pdfrwt>
<totfact> 0.22530795E+01</totfact>
</mgrwt>
</event>
<event>
 4    1  0.2293715E-008  0.3238481E+03  0.7818608E-02  0.1073892E+00
         -1   -1    0    0    0  501 -0.00000000000E+00  0.00000000000E+00  0.60927686217E+03  0.60927686219E+03  0.50400000000E-02 0.  1.
          1   -1    0    0  501    0  0.00000000000E+00 -0.00000000000E+00 -0.11329055421E+04  0.11329055421E+04  0.50400000000E-02 0. -1.
    8880022    1    1    2    0    0 -0.13636562236E+03  0.25077955363E+03 -0.10640033535E+04  0.11121963661E+04  0.15294330000E+03 0. -1.
    8880022    1    1    2    0    0  0.13636562236E+03 -0.25077955363E+03  0.54037467358E+03  0.62998603821E+03  0.15294330000E+03 0.  0.
<mgrwt>
<rscale>  0 0.32384814E+03</rscale>
<asrwt>0</asrwt>
<pdfrwt beam="1">  1        1 0.17429316E+00 0.32384814E+03</pdfrwt>
<pdfrwt beam="2">  1       -1 0.93734902E-01 0.32384814E+03</pdfrwt>
<totfact> 0.14868185E+01</totfact>
</mgrwt>
</event>
<event>
 4    1  0.2293715E-008  0.2888636E+03  0.7818608E-02  0.1090944E+00
          1   -1    0    0  501    0  0.00000000000E+00  0.00000000000E+00  0.46485829737E+03  0.46485829740E+03  0.50400000000E-02 0. -1.
         -1   -1    0    0    0  501 -0.00000000000E+00 -0.00000000000E+00 -0.12445830908E+04  0.12445830908E+04  0.50400000000E-02 0.  1.
    8880022    1    1    2    0    0 -0.53883591437E+02  0.23905462350E+03 -0.11805482218E+04  0.12153749674E+04  0.15294330000E+03 0.  0.
    8880022    1    1    2    0    0  0.53883591437E+02 -0.23905462350E+03  0.40082342835E+03  0.49406642080E+03  0.15294330000E+03 0.  0.
<mgrwt>
<rscale>  0 0.28886365E+03</rscale>
<asrwt>0</asrwt>
<pdfrwt beam="1">  1        1 0.71516662E-01 0.28886365E+03</pdfrwt>
<pdfrwt beam="2">  1       -1 0.19147432E+00 0.28886365E+03</pdfrwt>
<totfact> 0.95718711E+00</totfact>
</mgrwt>
</event>
<event>
 4    1  0.2293715E-008  0.7780338E+03  0.7818608E-02  0.9592368E-01
         -1   -1    0    0    0  501 -0.00000000000E+00  0.00000000000E+00  0.71875541320E+03  0.71875541322E+03  0.50400000000E-02 0.  1.
          1   -1    0    0  501    0  0.00000000000E+00 -0.00000000000E+00 -0.89311591849E+03  0.89311591850E+03  0.50400000000E-02 0. -1.
    8880022    1    1    2    0    0 -0.58737142783E+03 -0.48676464831E+03 -0.27960819784E+03  0.82675111998E+03  0.15294330000E+03 0.  0.
    8880022    1    1    2    0    0  0.58737142783E+03  0.48676464831E+03  0.10524769255E+03  0.78512021174E+03  0.15294330000E+03 0.  0.
<mgrwt>
<rscale>  0 0.77803385E+03</rscale>
<asrwt>0</asrwt>
<pdfrwt beam="1">  1        1 0.13740245E+00 0.77803385E+03</pdfrwt>
<pdfrwt beam="2">  1       -1 0.11057776E+00 0.77803385E+03</pdfrwt>
<totfact> 0.14262024E+01</totfact>
</mgrwt>
</event>
<event>
 4    1  0.2293715E-008  0.2302714E+03  0.7818608E-02  0.1126449E+00
         -1   -1    0    0    0  501 -0.00000000000E+00  0.00000000000E+00  0.45865118740E+03  0.45865118743E+03  0.50400000000E-02 0.  1.
          1   -1    0    0  501    0  0.00000000000E+00 -0.00000000000E+00 -0.27198621304E+03  0.27198621308E+03  0.50400000000E-02 0. -1.
    8880022    1    1    2    0    0  0.11625068923E+03  0.12696080263E+03 -0.18366958969E+03  0.29454955329E+03  0.15294330000E+03 0. -1.
    8880022    1    1    2    0    0 -0.11625068923E+03 -0.12696080263E+03  0.37033456405E+03  0.43608784722E+03  0.15294330000E+03 0.  0.
<mgrwt>
<rscale>  0 0.23027141E+03</rscale>
<asrwt>0</asrwt>
<pdfrwt beam="1">  1        1 0.41844033E-01 0.23027141E+03</pdfrwt>
<pdfrwt beam="2">  1       -1 0.70561720E-01 0.23027141E+03</pdfrwt>
<totfact> 0.21189163E+02</totfact>
</mgrwt>
</event>
<event>
 4    1  0.2716662E-008  0.7925438E+03  0.7818608E-02  0.9570873E-01
         -1   -1    0    0    0  501 -0.00000000000E+00  0.00000000000E+00  0.12616632355E+04  0.12616632355E+04  0.50400000000E-02 0.  1.
          1   -1    0    0  501    0  0.00000000000E+00 -0.00000000000E+00 -0.15386805288E+04  0.15386805288E+04  0.50400000000E-02 0. -1.
    8880022    1    1    2    0    0 -0.76473074056E+03 -0.14114141135E+03 -0.12900937551E+04  0.15140896782E+04  0.15294330000E+03 0.  0.
    8880022    1    1    2    0    0  0.76473074056E+03  0.14114141135E+03  0.10130764618E+04  0.12862540861E+04  0.15294330000E+03 0.  0.
<mgrwt>
<rscale>  0 0.79254379E+03</rscale>
<asrwt>0</asrwt>
<pdfrwt beam="1">  1        1 0.23672008E+00 0.79254379E+03</pdfrwt>
<pdfrwt beam="2">  1       -1 0.19410204E+00 0.79254379E+03</pdfrwt>
<totfact> 0.10617273E+00</totfact>
</mgrwt>
</event>
<event>
 4    1  0.2293715E-008  0.4397413E+03  0.7818608E-02  0.1030826E+00
         -1   -1    0    0    0  501 -0.00000000000E+00  0.00000000000E+00  0.30040802600E+04  0.30040802600E+04  0.50400000000E-02 0.  1.
          1   -1    0    0  501    0  0.00000000000E+00 -0.00000000000E+00 -0.33968240014E+03  0.33968240018E+03  0.50400000000E-02 0. -1.
    8880022    1    1    2    0    0 -0.26830855705E+03 -0.31303553780E+03  0.28373562005E+04  0.28712301530E+04  0.15294330000E+03 0.  0.
    8880022    1    1    2    0    0  0.26830855705E+03  0.31303553780E+03 -0.17295834069E+03  0.47253250717E+03  0.15294330000E+03 0.  0.
<mgrwt>
<rscale>  0 0.43974127E+03</rscale>
<asrwt>0</asrwt>
<pdfrwt beam="1">  1        1 0.52258831E-01 0.43974127E+03</pdfrwt>
<pdfrwt beam="2">  1       -1 0.46216620E+00 0.43974127E+03</pdfrwt>
<totfact> 0.23193053E-01</totfact>
</mgrwt>
</event>
<event>
 4    1  0.2293715E-008  0.3656152E+03  0.7818608E-02  0.1056382E+00
         -1   -1    0    0    0  501 -0.00000000000E+00  0.00000000000E+00  0.29359238235E+03  0.29359238240E+03  0.50400000000E-02 0.  1.
          1   -1    0    0  501    0  0.00000000000E+00 -0.00000000000E+00 -0.18284302701E+04  0.18284302701E+04  0.50400000000E-02 0. -1.
    8880022    1    1    2    0    0 -0.33097506152E+03  0.27171629897E+02  0.15204711745E+03  0.39597066528E+03  0.15294330000E+03 0.  0.
    8880022    1    1    2    0    0  0.33097506152E+03 -0.27171629897E+02 -0.16868850052E+04  0.17260519872E+04  0.15294330000E+03 0.  0.
<mgrwt>
<rscale>  0 0.36561516E+03</rscale>
<asrwt>0</asrwt>
<pdfrwt beam="1">  1        1 0.28129696E+00 0.36561516E+03</pdfrwt>
<pdfrwt beam="2">  1       -1 0.45168060E-01 0.36561516E+03</pdfrwt>
<totfact> 0.21234605E+01</totfact>
</mgrwt>
</event>
<event>
 4    1  0.2293715E-008  0.4632830E+03  0.7818608E-02  0.1023833E+00
          1   -1    0    0  501    0  0.00000000000E+00  0.00000000000E+00  0.25928289495E+04  0.25928289495E+04  0.50400000000E-02 0. -1.
         -1   -1    0    0    0  501 -0.00000000000E+00 -0.00000000000E+00 -0.17448831980E+03  0.17448831988E+03  0.50400000000E-02 0.  1.
    8880022    1    1    2    0    0 -0.33945785729E+03 -0.27569526536E+03  0.20604987870E+03  0.50703818569E+03  0.15294330000E+03 0.  0.
    8880022    1    1    2    0    0  0.33945785729E+03  0.27569526536E+03  0.22122907510E+04  0.22602790837E+04  0.15294330000E+03 0.  0.
<mgrwt>
<rscale>  0 0.46328303E+03</rscale>
<asrwt>0</asrwt>
<pdfrwt beam="1">  1        1 0.39889677E+00 0.46328303E+03</pdfrwt>
<pdfrwt beam="2">  1       -1 0.26844357E-01 0.46328303E+03</pdfrwt>
<totfact> 0.16083326E+01</totfact>
</mgrwt>
</event>
<event>
 4    1  0.2293715E-008  0.3625823E+03  0.7818608E-02  0.1057566E+00
          1   -1    0    0  501    0  0.00000000000E+00  0.00000000000E+00  0.19018344275E+04  0.19018344275E+04  0.50400000000E-02 0. -1.
         -1   -1    0    0    0  501 -0.00000000000E+00 -0.00000000000E+00 -0.46575860967E+03  0.46575860969E+03  0.50400000000E-02 0.  1.
    8880022    1    1    2    0    0  0.37010963276E+02 -0.32665646765E+03  0.18104610870E+04  0.18464114546E+04  0.15294330000E+03 0.  0.
    8880022    1    1    2    0    0 -0.37010963276E+02  0.32665646765E+03 -0.37438526914E+03  0.52118158259E+03  0.15294330000E+03 0.  0.
<mgrwt>
<rscale>  0 0.36258228E+03</rscale>
<asrwt>0</asrwt>
<pdfrwt beam="1">  1        1 0.29258991E+00 0.36258228E+03</pdfrwt>
<pdfrwt beam="2">  1       -1 0.71655170E-01 0.36258228E+03</pdfrwt>
<totfact> 0.78335991E+00</totfact>
</mgrwt>
</event>
<event>
 4    1  0.2293715E-008  0.6488735E+03  0.7818608E-02  0.9808895E-01
         -1   -1    0    0    0  501 -0.00000000000E+00  0.00000000000E+00  0.36191765244E+03  0.36191765248E+03  0.50400000000E-02 0.  1.
          1   -1    0    0  501    0  0.00000000000E+00 -0.00000000000E+00 -0.31654847075E+04  0.31654847075E+04  0.50400000000E-02 0. -1.
    8880022    1    1    2    0    0 -0.37177297728E+02 -0.62949420370E+03 -0.28044408585E+04  0.28785283194E+04  0.15294330000E+03 0.  0.
    8880022    1    1    2    0    0  0.37177297728E+02  0.62949420370E+03  0.87380344087E+00  0.64887404055E+03  0.15294330000E+03 0.  0.
<mgrwt>
<rscale>  0 0.64887345E+03</rscale>
<asrwt>0</asrwt>
<pdfrwt beam="1">  1        1 0.48699763E+00 0.64887345E+03</pdfrwt>
<pdfrwt beam="2">  1       -1 0.55679641E-01 0.64887345E+03</pdfrwt>
<totfact> 0.16271108E+00</totfact>
</mgrwt>
</event>
<event>
 4    1  0.2293715E-008  0.4198113E+03  0.7818608E-02  0.1037128E+00
         -1   -1    0    0    0  501 -0.00000000000E+00  0.00000000000E+00  0.65167227785E+03  0.65167227787E+03  0.50400000000E-02 0.  1.
          1   -1    0    0  501    0  0.00000000000E+00 -0.00000000000E+00 -0.47150156056E+03  0.47150156058E+03  0.50400000000E-02 0. -1.
    8880022    1    1    2    0    0 -0.22384708240E+03  0.32053443108E+03  0.45680533764E+03  0.62041325527E+03  0.15294330000E+03 0.  1.
    8880022    1    1    2    0    0  0.22384708240E+03 -0.32053443108E+03 -0.27663462035E+03  0.50276058318E+03  0.15294330000E+03 0.  0.
<mgrwt>
<rscale>  0 0.41981126E+03</rscale>
<asrwt>0</asrwt>
<pdfrwt beam="1">  1        1 0.72538702E-01 0.41981126E+03</pdfrwt>
<pdfrwt beam="2">  1       -1 0.10025727E+00 0.41981126E+03</pdfrwt>
<totfact> 0.48260723E+01</totfact>
</mgrwt>
</event>
<event>
 4    1  0.2293715E-008  0.1483116E+04  0.7818608E-02  0.8895759E-01
          1   -1    0    0  501    0  0.00000000000E+00  0.00000000000E+00  0.18259472700E+04  0.18259472701E+04  0.50400000000E-02 0. -1.
         -1   -1    0    0    0  501 -0.00000000000E+00 -0.00000000000E+00 -0.18440094206E+04  0.18440094206E+04  0.50400000000E-02 0.  1.
    8880022    1    1    2    0    0 -0.68824254142E+03 -0.13048232582E+04 -0.10895212706E+04  0.18402961129E+04  0.15294330000E+03 0.  0.
    8880022    1    1    2    0    0  0.68824254142E+03  0.13048232582E+04  0.10714591201E+04  0.18296605778E+04  0.15294330000E+03 0.  0.
<mgrwt>
<rscale>  0 0.14831160E+04</rscale>
<asrwt>0</asrwt>
<pdfrwt beam="1">  1        1 0.28091496E+00 0.14831160E+04</pdfrwt>
<pdfrwt beam="2">  1       -1 0.28369376E+00 0.14831160E+04</pdfrwt>
<totfact> 0.15583136E-01</totfact>
</mgrwt>
</event>
<event>
 4    1  0.2293715E-008  0.7012262E+03  0.7818608E-02  0.9715137E-01
         -1   -1    0    0    0  501 -0.00000000000E+00  0.00000000000E+00  0.13548477915E+04  0.13548477915E+04  0.50400000000E-02 0.  1.
          1   -1    0    0  501    0  0.00000000000E+00 -0.00000000000E+00 -0.39564143235E+03  0.39564143238E+03  0.50400000000E-02 0. -1.
    8880022    1    1    2    0    0  0.52609915084E+03 -0.43765997575E+03  0.73126196794E+03  0.10131447526E+04  0.15294330000E+03 0.  0.
    8880022    1    1    2    0    0 -0.52609915084E+03  0.43765997575E+03  0.22794439121E+03  0.73734447132E+03  0.15294330000E+03 0.  0.
<mgrwt>
<rscale>  0 0.70122623E+03</rscale>
<asrwt>0</asrwt>
<pdfrwt beam="1">  1        1 0.60867913E-01 0.70122623E+03</pdfrwt>
<pdfrwt beam="2">  1       -1 0.20843812E+00 0.70122623E+03</pdfrwt>
<totfact> 0.83390928E+00</totfact>
</mgrwt>
</event>
<event>
 4    1  0.2293715E-008  0.4679254E+03  0.7818608E-02  0.1022507E+00
         -1   -1    0    0    0  501 -0.00000000000E+00  0.00000000000E+00  0.93870190839E+02  0.93870190974E+02  0.50400000000E-02 0.  1.
          1   -1    0    0  501    0  0.00000000000E+00 -0.00000000000E+00 -0.26619867292E+04  0.26619867292E+04  0.50400000000E-02 0. -1.
    8880022    1    1    2    0    0 -0.25461622252E+03 -0.36157028231E+03 -0.79929557266E+03  0.92618980522E+03  0.15294330000E+03 0.  0.
    8880022    1    1    2    0    0  0.25461622252E+03  0.36157028231E+03 -0.17688209657E+04  0.18296671150E+04  0.15294330000E+03 0.  0.
<mgrwt>
<rscale>  0 0.46792536E+03</rscale>
<asrwt>0</asrwt>
<pdfrwt beam="1">  1        1 0.40953636E+00 0.46792536E+03</pdfrwt>
<pdfrwt beam="2">  1       -1 0.14441570E-01 0.46792536E+03</pdfrwt>
<totfact> 0.40108428E+01</totfact>
</mgrwt>
</event>
<event>
 4    1  0.2293715E-008  0.5366384E+03  0.7818608E-02  0.1004635E+00
         -1   -1    0    0    0  501 -0.00000000000E+00  0.00000000000E+00  0.23688077340E+03  0.23688077345E+03  0.50400000000E-02 0.  1.
          1   -1    0    0  501    0  0.00000000000E+00 -0.00000000000E+00 -0.20009638672E+04  0.20009638672E+04  0.50400000000E-02 0. -1.
    8880022    1    1    2    0    0 -0.48827826918E+03 -0.16178199279E+03 -0.18109880443E+03  0.56637223742E+03  0.15294330000E+03 0.  0.
    8880022    1    1    2    0    0  0.48827826918E+03  0.16178199279E+03 -0.15829842894E+04  0.16714724032E+04  0.15294330000E+03 0.  0.
<mgrwt>
<rscale>  0 0.53663836E+03</rscale>
<asrwt>0</asrwt>
<pdfrwt beam="1">  1        1 0.30784058E+00 0.53663836E+03</pdfrwt>
<pdfrwt beam="2">  1       -1 0.36443197E-01 0.53663836E+03</pdfrwt>
<totfact> 0.23117528E+01</totfact>
</mgrwt>
</event>
<event>
 4    1  0.2293715E-008  0.5339356E+03  0.7818608E-02  0.1005282E+00
          1   -1    0    0  501    0  0.00000000000E+00  0.00000000000E+00  0.11025559242E+04  0.11025559242E+04  0.50400000000E-02 0. -1.
         -1   -1    0    0    0  501 -0.00000000000E+00 -0.00000000000E+00 -0.51182556752E+03  0.51182556754E+03  0.50400000000E-02 0.  1.
    8880022    1    1    2    0    0 -0.36876097432E+03  0.35455738129E+03  0.86316491143E+03  0.10149585756E+04  0.15294330000E+03 0.  0.
    8880022    1    1    2    0    0  0.36876097432E+03 -0.35455738129E+03 -0.27243455474E+03  0.59942291618E+03  0.15294330000E+03 0.  0.
<mgrwt>
<rscale>  0 0.53393562E+03</rscale>
<asrwt>0</asrwt>
<pdfrwt beam="1">  1        1 0.16962399E+00 0.53393562E+03</pdfrwt>
<pdfrwt beam="2">  1       -1 0.78742394E-01 0.53393562E+03</pdfrwt>
<totfact> 0.21641679E+01</totfact>
</mgrwt>
</event>
<event>
 4    1  0.2293715E-008  0.6328414E+03  0.7818608E-02  0.9839520E-01
         -1   -1    0    0    0  501 -0.00000000000E+00  0.00000000000E+00  0.73930638559E+03  0.73930638561E+03  0.50400000000E-02 0.  1.
          1   -1    0    0  501    0  0.00000000000E+00 -0.00000000000E+00 -0.10178829925E+04  0.10178829925E+04  0.50400000000E-02 0. -1.
    8880022    1    1    2    0    0 -0.79080330035E+02  0.60896865992E+03  0.46164038595E+03  0.78332625791E+03  0.15294330000E+03 0.  0.
    8880022    1    1    2    0    0  0.79080330035E+02 -0.60896865992E+03 -0.74021699283E+03  0.97386312019E+03  0.15294330000E+03 0.  0.
<mgrwt>
<rscale>  0 0.63284135E+03</rscale>
<asrwt>0</asrwt>
<pdfrwt beam="1">  1        1 0.15659738E+00 0.63284135E+03</pdfrwt>
<pdfrwt beam="2">  1       -1 0.11373944E+00 0.63284135E+03</pdfrwt>
<totfact> 0.10850515E+01</totfact>
</mgrwt>
</event>
<event>
 4    1  0.2293715E-008  0.4763045E+03  0.7818608E-02  0.1020156E+00
          1   -1    0    0  501    0  0.00000000000E+00  0.00000000000E+00  0.66461843366E+03  0.66461843368E+03  0.50400000000E-02 0. -1.
         -1   -1    0    0    0  501 -0.00000000000E+00 -0.00000000000E+00 -0.55529003375E+03  0.55529003377E+03  0.50400000000E-02 0.  1.
    8880022    1    1    2    0    0  0.21277487331E+03 -0.39774514270E+03  0.43326858319E+03  0.64388482157E+03  0.15294330000E+03 0.  0.
    8880022    1    1    2    0    0 -0.21277487331E+03  0.39774514270E+03 -0.32394018328E+03  0.57602364588E+03  0.15294330000E+03 0.  0.
<mgrwt>
<rscale>  0 0.47630452E+03</rscale>
<asrwt>0</asrwt>
<pdfrwt beam="1">  1        1 0.10224899E+00 0.47630452E+03</pdfrwt>
<pdfrwt beam="2">  1       -1 0.85429236E-01 0.47630452E+03</pdfrwt>
<totfact> 0.42154412E+01</totfact>
</mgrwt>
</event>
<event>
 4    1  0.2293715E-008  0.7667511E+03  0.7818608E-02  0.9609431E-01
          1   -1    0    0  501    0  0.00000000000E+00  0.00000000000E+00  0.32045557066E+04  0.32045557066E+04  0.50400000000E-02 0. -1.
         -1   -1    0    0    0  501 -0.00000000000E+00 -0.00000000000E+00 -0.25068689489E+03  0.25068689494E+03  0.50400000000E-02 0.  1.
    8880022    1    1    2    0    0 -0.62831646800E+03 -0.41198781165E+03  0.23715878981E+04  0.24924558877E+04  0.15294330000E+03 0.  0.
    8880022    1    1    2    0    0  0.62831646800E+03  0.41198781165E+03  0.58228091363E+03  0.96278671382E+03  0.15294330000E+03 0.  0.
<mgrwt>
<rscale>  0 0.76675106E+03</rscale>
<asrwt>0</asrwt>
<pdfrwt beam="1">  1        1 0.49300858E+00 0.76675106E+03</pdfrwt>
<pdfrwt beam="2">  1       -1 0.38567214E-01 0.76675106E+03</pdfrwt>
<totfact> 0.29452745E+00</totfact>
</mgrwt>
</event>
<event>
 4    1  0.2293715E-008  0.2096831E+03  0.7818608E-02  0.1141817E+00
         -1   -1    0    0    0  501 -0.00000000000E+00  0.00000000000E+00  0.19198233849E+03  0.19198233855E+03  0.50400000000E-02 0.  1.
          1   -1    0    0  501    0  0.00000000000E+00 -0.00000000000E+00 -0.10104793414E+04  0.10104793414E+04  0.50400000000E-02 0. -1.
    8880022    1    1    2    0    0  0.25448158398E+02 -0.14116562194E+03 -0.93797598054E+03  0.96112742894E+03  0.15294330000E+03 0.  0.
    8880022    1    1    2    0    0 -0.25448158398E+02  0.14116562194E+03  0.11947897766E+03  0.24133425099E+03  0.15294330000E+03 0.  0.
<mgrwt>
<rscale>  0 0.20968308E+03</rscale>
<asrwt>0</asrwt>
<pdfrwt beam="1">  1        1 0.15545836E+00 0.20968308E+03</pdfrwt>
<pdfrwt beam="2">  1       -1 0.29535745E-01 0.20968308E+03</pdfrwt>
<totfact> 0.16867302E+02</totfact>
</mgrwt>
</event>
<event>
 4    1  0.2293715E-008  0.4359333E+03  0.7818608E-02  0.1032002E+00
         -1   -1    0    0    0  501 -0.00000000000E+00  0.00000000000E+00  0.24145278908E+03  0.24145278914E+03  0.50400000000E-02 0.  1.
          1   -1    0    0  501    0  0.00000000000E+00 -0.00000000000E+00 -0.15692080437E+04  0.15692080437E+04  0.50400000000E-02 0. -1.
    8880022    1    1    2    0    0 -0.32220252288E+03 -0.25066256460E+03 -0.13030401784E+04  0.13740274912E+04  0.15294330000E+03 0.  0.
    8880022    1    1    2    0    0  0.32220252288E+03  0.25066256460E+03 -0.24715076234E+02  0.43663334166E+03  0.15294330000E+03 0.  0.
<mgrwt>
<rscale>  0 0.43593330E+03</rscale>
<asrwt>0</asrwt>
<pdfrwt beam="1">  1        1 0.24141662E+00 0.43593330E+03</pdfrwt>
<pdfrwt beam="2">  1       -1 0.37146584E-01 0.43593330E+03</pdfrwt>
<totfact> 0.44089958E+01</totfact>
</mgrwt>
</event>
<event>
 4    1  0.2293715E-008  0.6705853E+03  0.7818608E-02  0.9768901E-01
         -1   -1    0    0    0  501 -0.00000000000E+00  0.00000000000E+00  0.17615276207E+04  0.17615276207E+04  0.50400000000E-02 0.  1.
          1   -1    0    0  501    0  0.00000000000E+00 -0.00000000000E+00 -0.38578513790E+04  0.38578513790E+04  0.50400000000E-02 0. -1.
    8880022    1    1    2    0    0  0.50334450647E+03 -0.41585735816E+03  0.16669755314E+04  0.17968005203E+04  0.15294330000E+03 0.  0.
    8880022    1    1    2    0    0 -0.50334450647E+03  0.41585735816E+03 -0.37632992897E+04  0.38225784794E+04  0.15294330000E+03 0. -1.
<mgrwt>
<rscale>  0 0.67058533E+03</rscale>
<asrwt>0</asrwt>
<pdfrwt beam="1">  1        1 0.59351560E+00 0.67058533E+03</pdfrwt>
<pdfrwt beam="2">  1       -1 0.27100425E+00 0.67058533E+03</pdfrwt>
<totfact> 0.76260558E-03</totfact>
</mgrwt>
</event>
<event>
 4    1  0.2293715E-008  0.1890888E+03  0.7818608E-02  0.1159286E+00
          1   -1    0    0  501    0  0.00000000000E+00  0.00000000000E+00  0.21189988832E+04  0.21189988832E+04  0.50400000000E-02 0. -1.
         -1   -1    0    0    0  501 -0.00000000000E+00 -0.00000000000E+00 -0.15182924438E+03  0.15182924446E+03  0.50400000000E-02 0.  1.
    8880022    1    1    2    0    0 -0.54461762248E+02 -0.96937383674E+02  0.20540498774E+04  0.20627349543E+04  0.15294330000E+03 0. -1.
    8880022    1    1    2    0    0  0.54461762248E+02  0.96937383674E+02 -0.86880238616E+02  0.20809317331E+03  0.15294330000E+03 0.  0.
<mgrwt>
<rscale>  0 0.18908885E+03</rscale>
<asrwt>0</asrwt>
<pdfrwt beam="1">  1        1 0.32599982E+00 0.18908885E+03</pdfrwt>
<pdfrwt beam="2">  1       -1 0.23358346E-01 0.18908885E+03</pdfrwt>
<totfact> 0.46009455E+01</totfact>
</mgrwt>
</event>
<event>
 4    1  0.2293715E-008  0.8943037E+03  0.7818608E-02  0.9432730E-01
         -1   -1    0    0    0  501 -0.00000000000E+00  0.00000000000E+00  0.11538958673E+04  0.11538958673E+04  0.50400000000E-02 0.  1.
          1   -1    0    0  501    0  0.00000000000E+00 -0.00000000000E+00 -0.17769871330E+04  0.17769871330E+04  0.50400000000E-02 0. -1.
    8880022    1    1    2    0    0 -0.84111450109E+03  0.26251434495E+03 -0.14560461069E+04  0.17087566543E+04  0.15294330000E+03 0.  0.
    8880022    1    1    2    0    0  0.84111450109E+03 -0.26251434495E+03  0.83295484119E+03  0.12221263461E+04  0.15294330000E+03 0.  0.
<mgrwt>
<rscale>  0 0.89430366E+03</rscale>
<asrwt>0</asrwt>
<pdfrwt beam="1">  1        1 0.27338264E+00 0.89430366E+03</pdfrwt>
<pdfrwt beam="2">  1       -1 0.17752244E+00 0.89430366E+03</pdfrwt>
<totfact> 0.94045818E-01</totfact>
</mgrwt>
</event>
<event>
 4    1  0.2293715E-008  0.2236831E+03  0.7818608E-02  0.1131167E+00
          1   -1    0    0  501    0  0.00000000000E+00  0.00000000000E+00  0.17623148198E+03  0.17623148206E+03  0.50400000000E-02 0. -1.
         -1   -1    0    0    0  501 -0.00000000000E+00 -0.00000000000E+00 -0.25828700126E+04  0.25828700126E+04  0.50400000000E-02 0.  1.
    8880022    1    1    2    0    0  0.66972619739E+02 -0.14885280806E+03 -0.25048426434E+04  0.25148102934E+04  0.15294330000E+03 0.  0.
    8880022    1    1    2    0    0 -0.66972619739E+02  0.14885280806E+03  0.98204112781E+02  0.24429120133E+03  0.15294330000E+03 0.  0.
<mgrwt>
<rscale>  0 0.22368313E+03</rscale>
<asrwt>0</asrwt>
<pdfrwt beam="1">  1        1 0.27112538E-01 0.22368313E+03</pdfrwt>
<pdfrwt beam="2">  1       -1 0.39736459E+00 0.22368313E+03</pdfrwt>
<totfact> 0.16298591E+00</totfact>
</mgrwt>
</event>
<event>
 4    1  0.2293715E-008  0.5946171E+03  0.7818608E-02  0.9916637E-01
         -1   -1    0    0    0  501 -0.00000000000E+00  0.00000000000E+00  0.26492710753E+03  0.26492710758E+03  0.50400000000E-02 0.  1.
          1   -1    0    0  501    0  0.00000000000E+00 -0.00000000000E+00 -0.20402595796E+04  0.20402595796E+04  0.50400000000E-02 0. -1.
    8880022    1    1    2    0    0  0.13461230465E+03 -0.55862100117E+03 -0.15655161336E+04  0.16746373676E+04  0.15294330000E+03 0.  0.
    8880022    1    1    2    0    0 -0.13461230465E+03  0.55862100117E+03 -0.20981633852E+03  0.63054931959E+03  0.15294330000E+03 0.  0.
<mgrwt>
<rscale>  0 0.59461714E+03</rscale>
<asrwt>0</asrwt>
<pdfrwt beam="1">  1        1 0.31388608E+00 0.59461714E+03</pdfrwt>
<pdfrwt beam="2">  1       -1 0.40758018E-01 0.59461714E+03</pdfrwt>
<totfact> 0.17606504E+01</totfact>
</mgrwt>
</event>
<event>
 4    1  0.2293715E-008  0.2138568E+03  0.7818608E-02  0.1138548E+00
         -1   -1    0    0    0  501 -0.00000000000E+00  0.00000000000E+00  0.83978602217E+02  0.83978602368E+02  0.50400000000E-02 0.  1.
          1   -1    0    0  501    0  0.00000000000E+00 -0.00000000000E+00 -0.10084074396E+04  0.10084074396E+04  0.50400000000E-02 0. -1.
    8880022    1    1    2    0    0 -0.14879733357E+03 -0.14227421717E+02 -0.83263672922E+03  0.85966193463E+03  0.15294330000E+03 0. -1.
    8880022    1    1    2    0    0  0.14879733357E+03  0.14227421717E+02 -0.91792108173E+02  0.23272410735E+03  0.15294330000E+03 0.  0.
<mgrwt>
<rscale>  0 0.21385677E+03</rscale>
<asrwt>0</asrwt>
<pdfrwt beam="1">  1        1 0.15513960E+00 0.21385677E+03</pdfrwt>
<pdfrwt beam="2">  1       -1 0.12919786E-01 0.21385677E+03</pdfrwt>
<totfact> 0.64745865E+02</totfact>
</mgrwt>
</event>
<event>
 4    1  0.2293715E-008  0.4512379E+03  0.7818608E-02  0.1027354E+00
         -1   -1    0    0    0  501 -0.00000000000E+00  0.00000000000E+00  0.12091978137E+04  0.12091978137E+04  0.50400000000E-02 0.  1.
          1   -1    0    0  501    0  0.00000000000E+00 -0.00000000000E+00 -0.56420027251E+03  0.56420027253E+03  0.50400000000E-02 0. -1.
    8880022    1    1    2    0    0 -0.42427104576E+03  0.14767260908E+02 -0.42018452786E+03  0.61657982674E+03  0.15294330000E+03 0.  0.
    8880022    1    1    2    0    0  0.42427104576E+03 -0.14767260908E+02  0.10651820691E+04  0.11568182595E+04  0.15294330000E+03 0.  0.
<mgrwt>
<rscale>  0 0.45123790E+03</rscale>
<asrwt>0</asrwt>
<pdfrwt beam="1">  1        1 0.86800043E-01 0.45123790E+03</pdfrwt>
<pdfrwt beam="2">  1       -1 0.18603043E+00 0.45123790E+03</pdfrwt>
<totfact> 0.76725804E+00</totfact>
</mgrwt>
</event>
<event>
 4    1  0.2293715E-008  0.4116157E+03  0.7818608E-02  0.1039830E+00
          1   -1    0    0  501    0  0.00000000000E+00  0.00000000000E+00  0.16590669327E+04  0.16590669327E+04  0.50400000000E-02 0. -1.
         -1   -1    0    0    0  501 -0.00000000000E+00 -0.00000000000E+00 -0.11472452158E+04  0.11472452159E+04  0.50400000000E-02 0.  1.
    8880022    1    1    2    0    0  0.90694626686E+02 -0.37122814693E+03  0.15951605853E+04  0.16474115449E+04  0.15294330000E+03 0.  0.
    8880022    1    1    2    0    0 -0.90694626686E+02  0.37122814693E+03 -0.10833388684E+04  0.11589006037E+04  0.15294330000E+03 0.  0.
<mgrwt>
<rscale>  0 0.41161573E+03</rscale>
<asrwt>0</asrwt>
<pdfrwt beam="1">  1        1 0.25524107E+00 0.41161573E+03</pdfrwt>
<pdfrwt beam="2">  1       -1 0.17649926E+00 0.41161573E+03</pdfrwt>
<totfact> 0.12979157E+00</totfact>
</mgrwt>
</event>
<event>
 4    1  0.2293715E-008  0.6571362E+03  0.7818608E-02  0.9793480E-01
         -1   -1    0    0    0  501 -0.00000000000E+00  0.00000000000E+00  0.70016961954E+03  0.70016961955E+03  0.50400000000E-02 0.  1.
          1   -1    0    0  501    0  0.00000000000E+00 -0.00000000000E+00 -0.73507932279E+03  0.73507932280E+03  0.50400000000E-02 0. -1.
    8880022    1    1    2    0    0  0.44768852679E+03  0.45608257534E+03  0.27047095428E+03  0.71062122307E+03  0.15294330000E+03 0.  0.
    8880022    1    1    2    0    0 -0.44768852679E+03 -0.45608257534E+03 -0.30538065753E+03  0.72462771929E+03  0.15294330000E+03 0.  0.
<mgrwt>
<rscale>  0 0.65713620E+03</rscale>
<asrwt>0</asrwt>
<pdfrwt beam="1">  1        1 0.11308913E+00 0.65713620E+03</pdfrwt>
<pdfrwt beam="2">  1       -1 0.10771840E+00 0.65713620E+03</pdfrwt>
<totfact> 0.21044859E+01</totfact>
</mgrwt>
</event>
<event>
 4    1  0.2314881E-008  0.8452089E+03  0.7818608E-02  0.9496790E-01
          1   -1    0    0  501    0  0.00000000000E+00  0.00000000000E+00  0.24525398887E+04  0.24525398887E+04  0.50400000000E-02 0. -1.
         -1   -1    0    0    0  501 -0.00000000000E+00 -0.00000000000E+00 -0.79406189903E+03  0.79406189904E+03  0.50400000000E-02 0.  1.
    8880022    1    1    2    0    0 -0.62516743805E+03 -0.54786146593E+03 -0.46245979500E+03  0.96345587675E+03  0.15294330000E+03 0.  0.
    8880022    1    1    2    0    0  0.62516743805E+03  0.54786146593E+03  0.21209377847E+04  0.22831459110E+04  0.15294330000E+03 0.  0.
<mgrwt>
<rscale>  0 0.84520895E+03</rscale>
<asrwt>0</asrwt>
<pdfrwt beam="1">  1        1 0.37731382E+00 0.84520895E+03</pdfrwt>
<pdfrwt beam="2">  1       -1 0.12216337E+00 0.84520895E+03</pdfrwt>
<totfact> 0.90565763E-01</totfact>
</mgrwt>
</event>
<event>
 4    1  0.2293715E-008  0.4830830E+03  0.7818608E-02  0.1018291E+00
          1   -1    0    0  501    0  0.00000000000E+00  0.00000000000E+00  0.19794973890E+04  0.19794973890E+04  0.50400000000E-02 0. -1.
         -1   -1    0    0    0  501 -0.00000000000E+00 -0.00000000000E+00 -0.31675882987E+03  0.31675882991E+03  0.50400000000E-02 0.  1.
    8880022    1    1    2    0    0  0.40560908157E+03  0.21321076794E+03 -0.78346836453E+02  0.48939497179E+03  0.15294330000E+03 0.  0.
    8880022    1    1    2    0    0 -0.40560908157E+03 -0.21321076794E+03  0.17410853955E+04  0.18068612471E+04  0.15294330000E+03 0. -1.
<mgrwt>
<rscale>  0 0.48308303E+03</rscale>
<asrwt>0</asrwt>
<pdfrwt beam="1">  1        1 0.30453806E+00 0.48308303E+03</pdfrwt>
<pdfrwt beam="2">  1       -1 0.48732128E-01 0.48308303E+03</pdfrwt>
<totfact> 0.14227125E+01</totfact>
</mgrwt>
</event>
<event>
 4    1  0.2293715E-008  0.7733387E+03  0.7818608E-02  0.9599431E-01
          1   -1    0    0  501    0  0.00000000000E+00  0.00000000000E+00  0.17851940975E+04  0.17851940975E+04  0.50400000000E-02 0. -1.
         -1   -1    0    0    0  501 -0.00000000000E+00 -0.00000000000E+00 -0.45612235714E+03  0.45612235717E+03  0.50400000000E-02 0.  1.
    8880022    1    1    2    0    0 -0.31888493697E+03  0.68773065753E+03  0.87062561166E+02  0.77822400561E+03  0.15294330000E+03 0.  0.
    8880022    1    1    2    0    0  0.31888493697E+03 -0.68773065753E+03  0.12420091792E+04  0.14630924491E+04  0.15294330000E+03 0.  0.
<mgrwt>
<rscale>  0 0.77333868E+03</rscale>
<asrwt>0</asrwt>
<pdfrwt beam="1">  1        1 0.27464525E+00 0.77333868E+03</pdfrwt>
<pdfrwt beam="2">  1       -1 0.70172670E-01 0.77333868E+03</pdfrwt>
<totfact> 0.88974443E+00</totfact>
</mgrwt>
</event>
<event>
 4    1  0.2293715E-008  0.3411769E+03  0.7818608E-02  0.1066296E+00
         -1   -1    0    0    0  501 -0.00000000000E+00  0.00000000000E+00  0.17109979148E+03  0.17109979155E+03  0.50400000000E-02 0.  1.
          1   -1    0    0  501    0  0.00000000000E+00 -0.00000000000E+00 -0.14039353455E+04  0.14039353455E+04  0.50400000000E-02 0. -1.
    8880022    1    1    2    0    0  0.52747207369E+02 -0.30037940544E+03 -0.51035535437E+02  0.34497294675E+03  0.15294330000E+03 0.  0.
    8880022    1    1    2    0    0 -0.52747207369E+02  0.30037940544E+03 -0.11818000186E+04  0.12300621903E+04  0.15294330000E+03 0.  0.
<mgrwt>
<rscale>  0 0.34117695E+03</rscale>
<asrwt>0</asrwt>
<pdfrwt beam="1">  1        1 0.21599005E+00 0.34117695E+03</pdfrwt>
<pdfrwt beam="2">  1       -1 0.26323046E-01 0.34117695E+03</pdfrwt>
<totfact> 0.10537711E+02</totfact>
</mgrwt>
</event>
<event>
 4    1  0.2293715E-008  0.6442697E+03  0.7818608E-02  0.9817591E-01
         -1   -1    0    0    0  501 -0.00000000000E+00  0.00000000000E+00  0.37956960579E+03  0.37956960582E+03  0.50400000000E-02 0.  1.
          1   -1    0    0  501    0  0.00000000000E+00 -0.00000000000E+00 -0.16134013854E+04  0.16134013855E+04  0.50400000000E-02 0. -1.
    8880022    1    1    2    0    0 -0.61371992672E+03 -0.12263641911E+03 -0.51284238008E+02  0.64630764024E+03  0.15294330000E+03 0.  0.
    8880022    1    1    2    0    0  0.61371992672E+03  0.12263641911E+03 -0.11825475417E+04  0.13466633510E+04  0.15294330000E+03 0.  0.
<mgrwt>
<rscale>  0 0.64426974E+03</rscale>
<asrwt>0</asrwt>
<pdfrwt beam="1">  1        1 0.24821559E+00 0.64426974E+03</pdfrwt>
<pdfrwt beam="2">  1       -1 0.58395325E-01 0.64426974E+03</pdfrwt>
<totfact> 0.17104530E+01</totfact>
</mgrwt>
</event>
<event>
 4    1  0.2293715E-008  0.6848396E+03  0.7818608E-02  0.9743516E-01
         -1   -1    0    0    0  501 -0.00000000000E+00  0.00000000000E+00  0.19646706054E+03  0.19646706060E+03  0.50400000000E-02 0.  1.
          1   -1    0    0  501    0  0.00000000000E+00 -0.00000000000E+00 -0.30378031602E+04  0.30378031602E+04  0.50400000000E-02 0. -1.
    8880022    1    1    2    0    0  0.55783844282E+03 -0.36664681892E+03 -0.21690548135E+04  0.22745997571E+04  0.15294330000E+03 0.  0.
    8880022    1    1    2    0    0 -0.55783844282E+03  0.36664681892E+03 -0.67228128612E+03  0.95967046364E+03  0.15294330000E+03 0.  0.
<mgrwt>
<rscale>  0 0.68483960E+03</rscale>
<asrwt>0</asrwt>
<pdfrwt beam="1">  1        1 0.46735430E+00 0.68483960E+03</pdfrwt>
<pdfrwt beam="2">  1       -1 0.30225704E-01 0.68483960E+03</pdfrwt>
<totfact> 0.60997865E+00</totfact>
</mgrwt>
</event>
<event>
 4    1  0.2293715E-008  0.6857419E+03  0.7818608E-02  0.9741931E-01
          1   -1    0    0  501    0  0.00000000000E+00  0.00000000000E+00  0.13013455473E+04  0.13013455473E+04  0.50400000000E-02 0. -1.
         -1   -1    0    0    0  501 -0.00000000000E+00 -0.00000000000E+00 -0.60734682034E+03  0.60734682036E+03  0.50400000000E-02 0.  1.
    8880022    1    1    2    0    0 -0.18226887062E+03 -0.64313941825E+03  0.95436726664E+03  0.11751845749E+04  0.15294330000E+03 0.  0.
    8880022    1    1    2    0    0  0.18226887062E+03  0.64313941825E+03 -0.26036853969E+03  0.73350779272E+03  0.15294330000E+03 0.  0.
<mgrwt>
<rscale>  0 0.68574187E+03</rscale>
<asrwt>0</asrwt>
<pdfrwt beam="1">  1        1 0.20020700E+00 0.68574187E+03</pdfrwt>
<pdfrwt beam="2">  1       -1 0.93437974E-01 0.68574187E+03</pdfrwt>
<totfact> 0.10489332E+01</totfact>
</mgrwt>
</event>
<event>
 4    1  0.2293715E-008  0.3072861E+03  0.7818608E-02  0.1081654E+00
          1   -1    0    0  501    0  0.00000000000E+00  0.00000000000E+00  0.48794906462E+03  0.48794906465E+03  0.50400000000E-02 0. -1.
         -1   -1    0    0    0  501 -0.00000000000E+00 -0.00000000000E+00 -0.57349545439E+03  0.57349545442E+03  0.50400000000E-02 0.  1.
    8880022    1    1    2    0    0 -0.19293867719E+03 -0.18386889224E+03 -0.47477321866E+03  0.56553900384E+03  0.15294330000E+03 0.  0.
    8880022    1    1    2    0    0  0.19293867719E+03  0.18386889224E+03  0.38922682889E+03  0.49590551523E+03  0.15294330000E+03 0.  0.
<mgrwt>
<rscale>  0 0.30728611E+03</rscale>
<asrwt>0</asrwt>
<pdfrwt beam="1">  1        1 0.75069087E-01 0.30728611E+03</pdfrwt>
<pdfrwt beam="2">  1       -1 0.88230070E-01 0.30728611E+03</pdfrwt>
<totfact> 0.62247056E+01</totfact>
</mgrwt>
</event>
<event>
 4    1  0.2293715E-008  0.4019120E+03  0.7818608E-02  0.1043120E+00
         -1   -1    0    0    0  501 -0.00000000000E+00  0.00000000000E+00  0.48794734134E+03  0.48794734136E+03  0.50400000000E-02 0.  1.
          1   -1    0    0  501    0  0.00000000000E+00 -0.00000000000E+00 -0.21206789161E+04  0.21206789161E+04  0.50400000000E-02 0. -1.
    8880022    1    1    2    0    0 -0.71619265438E+02 -0.36470848677E+03  0.38182596821E+03  0.55436839964E+03  0.15294330000E+03 0.  0.
    8880022    1    1    2    0    0  0.71619265438E+02  0.36470848677E+03 -0.20145575429E+04  0.20542578578E+04  0.15294330000E+03 0.  0.
<mgrwt>
<rscale>  0 0.40191200E+03</rscale>
<asrwt>0</asrwt>
<pdfrwt beam="1">  1        1 0.32625829E+00 0.40191200E+03</pdfrwt>
<pdfrwt beam="2">  1       -1 0.75068823E-01 0.40191200E+03</pdfrwt>
<totfact> 0.50454398E+00</totfact>
</mgrwt>
</event>
<event>
 4    1  0.2293715E-008  0.7747785E+03  0.7818608E-02  0.9597259E-01
          1   -1    0    0  501    0  0.00000000000E+00  0.00000000000E+00  0.16738016712E+04  0.16738016712E+04  0.50400000000E-02 0. -1.
         -1   -1    0    0    0  501 -0.00000000000E+00 -0.00000000000E+00 -0.43123438110E+03  0.43123438112E+03  0.50400000000E-02 0.  1.
    8880022    1    1    2    0    0  0.55485712632E+03 -0.51867493785E+03  0.18942358293E+03  0.79759831279E+03  0.15294330000E+03 0.  0.
    8880022    1    1    2    0    0 -0.55485712632E+03  0.51867493785E+03  0.10531437071E+04  0.13074377395E+04  0.15294330000E+03 0.  0.
<mgrwt>
<rscale>  0 0.77477853E+03</rscale>
<asrwt>0</asrwt>
<pdfrwt beam="1">  1        1 0.25750795E+00 0.77477853E+03</pdfrwt>
<pdfrwt beam="2">  1       -1 0.66343750E-01 0.77477853E+03</pdfrwt>
<totfact> 0.11848863E+01</totfact>
</mgrwt>
</event>
<event>
 4    1  0.2293715E-008  0.3816727E+03  0.7818608E-02  0.1050317E+00
          1   -1    0    0  501    0  0.00000000000E+00  0.00000000000E+00  0.14782982119E+04  0.14782982119E+04  0.50400000000E-02 0. -1.
         -1   -1    0    0    0  501 -0.00000000000E+00 -0.00000000000E+00 -0.33192569631E+03  0.33192569635E+03  0.50400000000E-02 0.  1.
    8880022    1    1    2    0    0 -0.12966708120E+03 -0.32475967957E+03 -0.18577110244E+03  0.42448198659E+03  0.15294330000E+03 0.  0.
    8880022    1    1    2    0    0  0.12966708120E+03  0.32475967957E+03  0.13321436180E+04  0.13857419216E+04  0.15294330000E+03 0.  0.
<mgrwt>
<rscale>  0 0.38167271E+03</rscale>
<asrwt>0</asrwt>
<pdfrwt beam="1">  1        1 0.22743050E+00 0.38167271E+03</pdfrwt>
<pdfrwt beam="2">  1       -1 0.51065491E-01 0.38167271E+03</pdfrwt>
<totfact> 0.28731246E+01</totfact>
</mgrwt>
</event>
<event>
 4    1  0.2293715E-008  0.2500784E+03  0.7818608E-02  0.1113255E+00
          1   -1    0    0  501    0  0.00000000000E+00  0.00000000000E+00  0.86300944043E+03  0.86300944044E+03  0.50400000000E-02 0. -1.
         -1   -1    0    0    0  501 -0.00000000000E+00 -0.00000000000E+00 -0.83067454258E+03  0.83067454259E+03  0.50400000000E-02 0.  1.
    8880022    1    1    2    0    0 -0.96554651244E+02  0.17269841040E+03 -0.79289334058E+03  0.83139584085E+03  0.15294330000E+03 0.  0.
    8880022    1    1    2    0    0  0.96554651244E+02 -0.17269841040E+03  0.82522823843E+03  0.86228814218E+03  0.15294330000E+03 0.  0.
<mgrwt>
<rscale>  0 0.25007838E+03</rscale>
<asrwt>0</asrwt>
<pdfrwt beam="1">  1        1 0.13277068E+00 0.25007838E+03</pdfrwt>
<pdfrwt beam="2">  1       -1 0.12779608E+00 0.25007838E+03</pdfrwt>
<totfact> 0.11930156E+01</totfact>
</mgrwt>
</event>
<event>
 4    1  0.2293715E-008  0.6133205E+03  0.7818608E-02  0.9878149E-01
         -1   -1    0    0    0  501 -0.00000000000E+00  0.00000000000E+00  0.23638914878E+03  0.23638914883E+03  0.50400000000E-02 0.  1.
          1   -1    0    0  501    0  0.00000000000E+00 -0.00000000000E+00 -0.16624034612E+04  0.16624034612E+04  0.50400000000E-02 0. -1.
    8880022    1    1    2    0    0  0.20514649485E+03 -0.55739148250E+03 -0.51663630967E+03  0.80191962103E+03  0.15294330000E+03 0.  0.
    8880022    1    1    2    0    0 -0.20514649485E+03  0.55739148250E+03 -0.90937800274E+03  0.10968729890E+04  0.15294330000E+03 0.  0.
<mgrwt>
<rscale>  0 0.61332047E+03</rscale>
<asrwt>0</asrwt>
<pdfrwt beam="1">  1        1 0.25575437E+00 0.61332047E+03</pdfrwt>
<pdfrwt beam="2">  1       -1 0.36367562E-01 0.61332047E+03</pdfrwt>
<totfact> 0.38472086E+01</totfact>
</mgrwt>
</event>
<event>
 4    1  0.2293715E-008  0.5571683E+03  0.7818608E-02  0.9998482E-01
         -1   -1    0    0    0  501 -0.00000000000E+00  0.00000000000E+00  0.49451360412E+03  0.49451360415E+03  0.50400000000E-02 0.  1.
          1   -1    0    0  501    0  0.00000000000E+00 -0.00000000000E+00 -0.69041878543E+03  0.69041878545E+03  0.50400000000E-02 0. -1.
    8880022    1    1    2    0    0 -0.53538481658E+03  0.20198029388E+02  0.80529099861E+02  0.56295777031E+03  0.15294330000E+03 0.  0.
    8880022    1    1    2    0    0  0.53538481658E+03 -0.20198029388E+02 -0.27643428117E+03  0.62197461929E+03  0.15294330000E+03 0.  0.
<mgrwt>
<rscale>  0 0.55716830E+03</rscale>
<asrwt>0</asrwt>
<pdfrwt beam="1">  1        1 0.10621827E+00 0.55716830E+03</pdfrwt>
<pdfrwt beam="2">  1       -1 0.76079016E-01 0.55716830E+03</pdfrwt>
<totfact> 0.50351254E+01</totfact>
</mgrwt>
</event>
<event>
 4    1  0.2293715E-008  0.2002338E+03  0.7818608E-02  0.1149542E+00
          1   -1    0    0  501    0  0.00000000000E+00  0.00000000000E+00  0.49812103457E+03  0.49812103459E+03  0.50400000000E-02 0. -1.
         -1   -1    0    0    0  501 -0.00000000000E+00 -0.00000000000E+00 -0.72124572582E+03  0.72124572584E+03  0.50400000000E-02 0.  1.
    8880022    1    1    2    0    0  0.58044285397E+02  0.11546768503E+03  0.46309518599E+03  0.50453020688E+03  0.15294330000E+03 0. -1.
    8880022    1    1    2    0    0 -0.58044285397E+02 -0.11546768503E+03 -0.68621987724E+03  0.71483655355E+03  0.15294330000E+03 0.  0.
<mgrwt>
<rscale>  0 0.20023381E+03</rscale>
<asrwt>0</asrwt>
<pdfrwt beam="1">  1        1 0.76634005E-01 0.20023381E+03</pdfrwt>
<pdfrwt beam="2">  1       -1 0.11096088E+00 0.20023381E+03</pdfrwt>
<totfact> 0.37410521E+01</totfact>
</mgrwt>
</event>
<event>
 4    1  0.2293715E-008  0.4795209E+03  0.7818608E-02  0.1019267E+00
         -1   -1    0    0    0  501 -0.00000000000E+00  0.00000000000E+00  0.53339331001E+03  0.53339331004E+03  0.50400000000E-02 0.  1.
          1   -1    0    0  501    0  0.00000000000E+00 -0.00000000000E+00 -0.11089822465E+04  0.11089822465E+04  0.50400000000E-02 0. -1.
    8880022    1    1    2    0    0 -0.43652703545E+03 -0.12646256957E+03 -0.92983235208E+03  0.10461971565E+04  0.15294330000E+03 0.  0.
    8880022    1    1    2    0    0  0.43652703545E+03  0.12646256957E+03  0.35424341562E+03  0.59617840007E+03  0.15294330000E+03 0.  0.
<mgrwt>
<rscale>  0 0.47952089E+03</rscale>
<asrwt>0</asrwt>
<pdfrwt beam="1">  1        1 0.17061265E+00 0.47952089E+03</pdfrwt>
<pdfrwt beam="2">  1       -1 0.82060509E-01 0.47952089E+03</pdfrwt>
<totfact> 0.19821427E+01</totfact>
</mgrwt>
</event>
<event>
 4    1  0.2293715E-008  0.2481529E+03  0.7818608E-02  0.1114478E+00
         -1   -1    0    0    0  501 -0.00000000000E+00  0.00000000000E+00  0.80561559482E+03  0.80561559484E+03  0.50400000000E-02 0.  1.
          1   -1    0    0  501    0  0.00000000000E+00 -0.00000000000E+00 -0.14364417627E+03  0.14364417636E+03  0.50400000000E-02 0. -1.
    8880022    1    1    2    0    0 -0.19357276596E+03  0.26791303577E+02  0.65563530691E+03  0.70102603257E+03  0.15294330000E+03 0.  0.
    8880022    1    1    2    0    0  0.19357276596E+03 -0.26791303577E+02  0.63361116435E+01  0.24823373863E+03  0.15294330000E+03 0. -1.
<mgrwt>
<rscale>  0 0.24815286E+03</rscale>
<asrwt>0</asrwt>
<pdfrwt beam="1">  1        1 0.22099104E-01 0.24815286E+03</pdfrwt>
<pdfrwt beam="2">  1       -1 0.12394086E+00 0.24815286E+03</pdfrwt>
<totfact> 0.13840497E+02</totfact>
</mgrwt>
</event>
<event>
 4    1  0.2293715E-008  0.5618702E+03  0.7818608E-02  0.9987832E-01
         -1   -1    0    0    0  501 -0.00000000000E+00  0.00000000000E+00  0.13498761447E+04  0.13498761447E+04  0.50400000000E-02 0.  1.
          1   -1    0    0  501    0  0.00000000000E+00 -0.00000000000E+00 -0.64000953430E+03  0.64000953432E+03  0.50400000000E-02 0. -1.
    8880022    1    1    2    0    0 -0.61006122926E+02 -0.53720084295E+03 -0.43764377222E+03  0.71220096678E+03  0.15294330000E+03 0.  0.
    8880022    1    1    2    0    0  0.61006122926E+02  0.53720084295E+03  0.11475103826E+04  0.12776847123E+04  0.15294330000E+03 0.  0.
<mgrwt>
<rscale>  0 0.56187022E+03</rscale>
<asrwt>0</asrwt>
<pdfrwt beam="1">  1        1 0.98463006E-01 0.56187022E+03</pdfrwt>
<pdfrwt beam="2">  1       -1 0.20767325E+00 0.56187022E+03</pdfrwt>
<totfact> 0.44553376E+00</totfact>
</mgrwt>
</event>
<event>
 4    1  0.2293715E-008  0.4437088E+03  0.7818608E-02  0.1029615E+00
         -1   -1    0    0    0  501 -0.00000000000E+00  0.00000000000E+00  0.28483655473E+03  0.28483655477E+03  0.50400000000E-02 0.  1.
          1   -1    0    0  501    0  0.00000000000E+00 -0.00000000000E+00 -0.10810525243E+04  0.10810525243E+04  0.50400000000E-02 0. -1.
    8880022    1    1    2    0    0 -0.54271782156E+02 -0.41296543270E+03 -0.80823194789E+03  0.92201757551E+03  0.15294330000E+03 0.  0.
    8880022    1    1    2    0    0  0.54271782156E+02  0.41296543270E+03  0.12015978313E+02  0.44387150358E+03  0.15294330000E+03 0.  0.
<mgrwt>
<rscale>  0 0.44370883E+03</rscale>
<asrwt>0</asrwt>
<pdfrwt beam="1">  1        1 0.16631577E+00 0.44370883E+03</pdfrwt>
<pdfrwt beam="2">  1       -1 0.43821009E-01 0.44370883E+03</pdfrwt>
<totfact> 0.71491629E+01</totfact>
</mgrwt>
</event>
<event>
 4    1  0.2293715E-008  0.7104724E+03  0.7818608E-02  0.9699489E-01
         -1   -1    0    0    0  501 -0.00000000000E+00  0.00000000000E+00  0.41649744785E+03  0.41649744788E+03  0.50400000000E-02 0.  1.
          1   -1    0    0  501    0  0.00000000000E+00 -0.00000000000E+00 -0.21338982874E+04  0.21338982874E+04  0.50400000000E-02 0. -1.
    8880022    1    1    2    0    0 -0.64470335870E+03 -0.25639211247E+03 -0.16968967409E+04  0.18396275543E+04  0.15294330000E+03 0.  0.
    8880022    1    1    2    0    0  0.64470335870E+03  0.25639211247E+03 -0.20504098603E+02  0.71076818100E+03  0.15294330000E+03 0.  0.
<mgrwt>
<rscale>  0 0.71047237E+03</rscale>
<asrwt>0</asrwt>
<pdfrwt beam="1">  1        1 0.32829204E+00 0.71047237E+03</pdfrwt>
<pdfrwt beam="2">  1       -1 0.64076532E-01 0.71047237E+03</pdfrwt>
<totfact> 0.63163617E+00</totfact>
</mgrwt>
</event>
<event>
 4    1  0.2787432E-008  0.7954891E+03  0.7818608E-02  0.9566570E-01
         -1   -1    0    0    0  501 -0.00000000000E+00  0.00000000000E+00  0.61950342791E+03  0.61950342793E+03  0.50400000000E-02 0.  1.
          1   -1    0    0  501    0  0.00000000000E+00 -0.00000000000E+00 -0.28951567766E+04  0.28951567766E+04  0.50400000000E-02 0. -1.
    8880022    1    1    2    0    0 -0.34881468577E+02 -0.77986824240E+03  0.27590193967E+03  0.84197667763E+03  0.15294330000E+03 0.  1.
    8880022    1    1    2    0    0  0.34881468577E+02  0.77986824240E+03 -0.25515552884E+04  0.26726835269E+04  0.15294330000E+03 0.  0.
<mgrwt>
<rscale>  0 0.79548906E+03</rscale>
<asrwt>0</asrwt>
<pdfrwt beam="1">  1        1 0.44540873E+00 0.79548906E+03</pdfrwt>
<pdfrwt beam="2">  1       -1 0.95308221E-01 0.79548906E+03</pdfrwt>
<totfact> 0.80743088E-01</totfact>
</mgrwt>
</event>
<event>
 4    1  0.2293715E-008  0.5690140E+03  0.7818608E-02  0.9971863E-01
          1   -1    0    0  501    0  0.00000000000E+00  0.00000000000E+00  0.13444126479E+04  0.13444126479E+04  0.50400000000E-02 0. -1.
         -1   -1    0    0    0  501 -0.00000000000E+00 -0.00000000000E+00 -0.10177963177E+04  0.10177963177E+04  0.50400000000E-02 0.  1.
    8880022    1    1    2    0    0  0.53323257839E+03 -0.12668167640E+03  0.11952579471E+04  0.13237894254E+04  0.15294330000E+03 0.  0.
    8880022    1    1    2    0    0 -0.53323257839E+03  0.12668167640E+03 -0.86864161692E+03  0.10384195402E+04  0.15294330000E+03 0.  0.
<mgrwt>
<rscale>  0 0.56901396E+03</rscale>
<asrwt>0</asrwt>
<pdfrwt beam="1">  1        1 0.20683272E+00 0.56901396E+03</pdfrwt>
<pdfrwt beam="2">  1       -1 0.15658405E+00 0.56901396E+03</pdfrwt>
<totfact> 0.28267914E+00</totfact>
</mgrwt>
</event>
<event>
 4    1  0.2293715E-008  0.3001068E+03  0.7818608E-02  0.1085187E+00
         -1   -1    0    0    0  501 -0.00000000000E+00  0.00000000000E+00  0.29669114221E+03  0.29669114225E+03  0.50400000000E-02 0.  1.
          1   -1    0    0  501    0  0.00000000000E+00 -0.00000000000E+00 -0.14196069096E+04  0.14196069096E+04  0.50400000000E-02 0. -1.
    8880022    1    1    2    0    0  0.25208933191E+02  0.25697649793E+03  0.19942805419E+03  0.36032709115E+03  0.15294330000E+03 0.  1.
    8880022    1    1    2    0    0 -0.25208933191E+02 -0.25697649793E+03 -0.13223438216E+04  0.13559709607E+04  0.15294330000E+03 0.  0.
<mgrwt>
<rscale>  0 0.30010675E+03</rscale>
<asrwt>0</asrwt>
<pdfrwt beam="1">  1        1 0.21840106E+00 0.30010675E+03</pdfrwt>
<pdfrwt beam="2">  1       -1 0.45644792E-01 0.30010675E+03</pdfrwt>
<totfact> 0.39605597E+01</totfact>
</mgrwt>
</event>
<event>
 4    1  0.2293715E-008  0.1159681E+04  0.7818608E-02  0.9148899E-01
         -1   -1    0    0    0  501 -0.00000000000E+00  0.00000000000E+00  0.77781788801E+03  0.77781788802E+03  0.50400000000E-02 0.  1.
          1   -1    0    0  501    0  0.00000000000E+00 -0.00000000000E+00 -0.25327222062E+04  0.25327222062E+04  0.50400000000E-02 0. -1.
    8880022    1    1    2    0    0 -0.85799599434E+03  0.76505565423E+03  0.54994421332E+02  0.11609837724E+04  0.15294330000E+03 0.  0.
    8880022    1    1    2    0    0  0.85799599434E+03 -0.76505565423E+03 -0.18098987395E+04  0.21495563218E+04  0.15294330000E+03 0.  0.
<mgrwt>
<rscale>  0 0.11596805E+04</rscale>
<asrwt>0</asrwt>
<pdfrwt beam="1">  1        1 0.38964957E+00 0.11596805E+04</pdfrwt>
<pdfrwt beam="2">  1       -1 0.11966429E+00 0.11596805E+04</pdfrwt>
<totfact> 0.79700011E-01</totfact>
</mgrwt>
</event>
<event>
 4    1  0.2293715E-008  0.1304102E+04  0.7818608E-02  0.9026319E-01
         -1   -1    0    0    0  501 -0.00000000000E+00  0.00000000000E+00  0.92002728975E+03  0.92002728977E+03  0.50400000000E-02 0.  1.
          1   -1    0    0  501    0  0.00000000000E+00 -0.00000000000E+00 -0.21929558907E+04  0.21929558907E+04  0.50400000000E-02 0. -1.
    8880022    1    1    2    0    0 -0.12904345801E+04  0.10985678592E+03 -0.12533305567E+04  0.18087341033E+04  0.15294330000E+03 0.  0.
    8880022    1    1    2    0    0  0.12904345801E+04 -0.10985678592E+03 -0.19598044266E+02  0.13042490772E+04  0.15294330000E+03 0.  0.
<mgrwt>
<rscale>  0 0.13041018E+04</rscale>
<asrwt>0</asrwt>
<pdfrwt beam="1">  1        1 0.33737783E+00 0.13041018E+04</pdfrwt>
<pdfrwt beam="2">  1       -1 0.14154266E+00 0.13041018E+04</pdfrwt>
<totfact> 0.87175623E-01</totfact>
</mgrwt>
</event>
<event>
 4    1  0.2293715E-008  0.2324641E+03  0.7818608E-02  0.1124917E+00
         -1   -1    0    0    0  501 -0.00000000000E+00  0.00000000000E+00  0.38297453009E+03  0.38297453012E+03  0.50400000000E-02 0.  1.
          1   -1    0    0  501    0  0.00000000000E+00 -0.00000000000E+00 -0.64602326852E+03  0.64602326854E+03  0.50400000000E-02 0. -1.
    8880022    1    1    2    0    0  0.16114676086E+03 -0.68407691663E+02 -0.58637730119E+03  0.63077562032E+03  0.15294330000E+03 0.  0.
    8880022    1    1    2    0    0 -0.16114676086E+03  0.68407691663E+02  0.32332856276E+03  0.39822217835E+03  0.15294330000E+03 0.  1.
<mgrwt>
<rscale>  0 0.23246407E+03</rscale>
<asrwt>0</asrwt>
<pdfrwt beam="1">  1        1 0.99388195E-01 0.23246407E+03</pdfrwt>
<pdfrwt beam="2">  1       -1 0.58919158E-01 0.23246407E+03</pdfrwt>
<totfact> 0.97409869E+01</totfact>
</mgrwt>
</event>
<event>
 4    1  0.2293715E-008  0.9420315E+03  0.7818608E-02  0.9374513E-01
         -1   -1    0    0    0  501 -0.00000000000E+00  0.00000000000E+00  0.87787076962E+03  0.87787076964E+03  0.50400000000E-02 0.  1.
          1   -1    0    0  501    0  0.00000000000E+00 -0.00000000000E+00 -0.18398229546E+04  0.18398229546E+04  0.50400000000E-02 0. -1.
    8880022    1    1    2    0    0  0.68120982617E+03  0.63244350979E+03  0.43112808070E+03  0.10359993703E+04  0.15294330000E+03 0.  0.
    8880022    1    1    2    0    0 -0.68120982617E+03 -0.63244350979E+03 -0.13930802656E+04  0.16816943539E+04  0.15294330000E+03 0.  0.
<mgrwt>
<rscale>  0 0.94203146E+03</rscale>
<asrwt>0</asrwt>
<pdfrwt beam="1">  1        1 0.28304968E+00 0.94203146E+03</pdfrwt>
<pdfrwt beam="2">  1       -1 0.13505704E+00 0.94203146E+03</pdfrwt>
<totfact> 0.17926144E+00</totfact>
</mgrwt>
</event>
<event>
 4    1  0.2293715E-008  0.4262757E+03  0.7818608E-02  0.1035043E+00
         -1   -1    0    0    0  501 -0.00000000000E+00  0.00000000000E+00  0.27917012009E+03  0.27917012014E+03  0.50400000000E-02 0.  1.
          1   -1    0    0  501    0  0.00000000000E+00 -0.00000000000E+00 -0.97274451890E+03  0.97274451892E+03  0.50400000000E-02 0. -1.
    8880022    1    1    2    0    0  0.24924753081E+03  0.31015314761E+03  0.13269164272E+02  0.42648215710E+03  0.15294330000E+03 0.  0.
    8880022    1    1    2    0    0 -0.24924753081E+03 -0.31015314761E+03 -0.70684356308E+03  0.82543248196E+03  0.15294330000E+03 0.  0.
<mgrwt>
<rscale>  0 0.42627568E+03</rscale>
<asrwt>0</asrwt>
<pdfrwt beam="1">  1        1 0.14965300E+00 0.42627568E+03</pdfrwt>
<pdfrwt beam="2">  1       -1 0.42949250E-01 0.42627568E+03</pdfrwt>
<totfact> 0.89752297E+01</totfact>
</mgrwt>
</event>
<event>
 4    1  0.2293715E-008  0.4064934E+03  0.7818608E-02  0.1041554E+00
          1   -1    0    0  501    0  0.00000000000E+00  0.00000000000E+00  0.33255646143E+04  0.33255646143E+04  0.50400000000E-02 0. -1.
         -1   -1    0    0    0  501 -0.00000000000E+00 -0.00000000000E+00 -0.32297979767E+03  0.32297979771E+03  0.50400000000E-02 0.  1.
    8880022    1    1    2    0    0  0.37137323744E+03  0.62667110985E+02  0.31793859183E+04  0.32052662478E+04  0.15294330000E+03 0.  0.
    8880022    1    1    2    0    0 -0.37137323744E+03 -0.62667110985E+02 -0.17680110174E+03  0.44327816422E+03  0.15294330000E+03 0.  0.
<mgrwt>
<rscale>  0 0.40649342E+03</rscale>
<asrwt>0</asrwt>
<pdfrwt beam="1">  1        1 0.51162535E+00 0.40649342E+03</pdfrwt>
<pdfrwt beam="2">  1       -1 0.49689197E-01 0.40649342E+03</pdfrwt>
<totfact> 0.16646575E+00</totfact>
</mgrwt>
</event>
<event>
 4    1  0.2293715E-008  0.3027405E+03  0.7818608E-02  0.1083879E+00
          1   -1    0    0  501    0  0.00000000000E+00  0.00000000000E+00  0.23029051651E+04  0.23029051651E+04  0.50400000000E-02 0. -1.
         -1   -1    0    0    0  501 -0.00000000000E+00 -0.00000000000E+00 -0.61088078401E+02  0.61088078609E+02  0.50400000000E-02 0.  1.
    8880022    1    1    2    0    0 -0.25145637306E+03 -0.70921551888E+02  0.18186958399E+04  0.18437207992E+04  0.15294330000E+03 0.  0.
    8880022    1    1    2    0    0  0.25145637306E+03  0.70921551888E+02  0.42312124677E+03  0.52027244455E+03  0.15294330000E+03 0.  1.
<mgrwt>
<rscale>  0 0.30274053E+03</rscale>
<asrwt>0</asrwt>
<pdfrwt beam="1">  1        1 0.35429312E+00 0.30274053E+03</pdfrwt>
<pdfrwt beam="2">  1       -1 0.93981654E-02 0.30274053E+03</pdfrwt>
<totfact> 0.14280377E+02</totfact>
</mgrwt>
</event>
<event>
 4    1  0.2381137E-008  0.4783861E+03  0.7818608E-02  0.1019580E+00
          1   -1    0    0  501    0  0.00000000000E+00  0.00000000000E+00  0.23611351357E+04  0.23611351357E+04  0.50400000000E-02 0. -1.
         -1   -1    0    0    0  501 -0.00000000000E+00 -0.00000000000E+00 -0.68792394587E+03  0.68792394589E+03  0.50400000000E-02 0.  1.
    8880022    1    1    2    0    0 -0.31807719322E+03 -0.32293729689E+03  0.22496602111E+04  0.22999618077E+04  0.15294330000E+03 0.  0.
    8880022    1    1    2    0    0  0.31807719322E+03  0.32293729689E+03 -0.57644902127E+03  0.74909727386E+03  0.15294330000E+03 0.  0.
<mgrwt>
<rscale>  0 0.47838609E+03</rscale>
<asrwt>0</asrwt>
<pdfrwt beam="1">  1        1 0.36325156E+00 0.47838609E+03</pdfrwt>
<pdfrwt beam="2">  1       -1 0.10583445E+00 0.47838609E+03</pdfrwt>
<totfact> 0.16125001E+00</totfact>
</mgrwt>
</event>
<event>
 4    1  0.2293715E-008  0.6775054E+03  0.7818608E-02  0.9756494E-01
         -1   -1    0    0    0  501 -0.00000000000E+00  0.00000000000E+00  0.29772150101E+03  0.29772150105E+03  0.50400000000E-02 0.  1.
          1   -1    0    0  501    0  0.00000000000E+00 -0.00000000000E+00 -0.21685572138E+04  0.21685572138E+04  0.50400000000E-02 0. -1.
    8880022    1    1    2    0    0  0.51110826080E+03  0.41760061626E+03 -0.27245070057E+03  0.73023487058E+03  0.15294330000E+03 0.  0.
    8880022    1    1    2    0    0 -0.51110826080E+03 -0.41760061626E+03 -0.15983850122E+04  0.17360438443E+04  0.15294330000E+03 0.  0.
<mgrwt>
<rscale>  0 0.67750541E+03</rscale>
<asrwt>0</asrwt>
<pdfrwt beam="1">  1        1 0.33362418E+00 0.67750541E+03</pdfrwt>
<pdfrwt beam="2">  1       -1 0.45803309E-01 0.67750541E+03</pdfrwt>
<totfact> 0.11496121E+01</totfact>
</mgrwt>
</event>
<event>
 4    1  0.2293715E-008  0.4643221E+03  0.7818608E-02  0.1023535E+00
         -1   -1    0    0    0  501 -0.00000000000E+00  0.00000000000E+00  0.74389889250E+03  0.74389889251E+03  0.50400000000E-02 0.  1.
          1   -1    0    0  501    0  0.00000000000E+00 -0.00000000000E+00 -0.30295785239E+03  0.30295785243E+03  0.50400000000E-02 0. -1.
    8880022    1    1    2    0    0 -0.16105488385E+03 -0.40775568825E+03  0.32948072530E+03  0.56934398940E+03  0.15294330000E+03 0.  0.
    8880022    1    1    2    0    0  0.16105488385E+03  0.40775568825E+03  0.11146031481E+03  0.47751275554E+03  0.15294330000E+03 0.  0.
<mgrwt>
<rscale>  0 0.46432212E+03</rscale>
<asrwt>0</asrwt>
<pdfrwt beam="1">  1        1 0.46608901E-01 0.46432212E+03</pdfrwt>
<pdfrwt beam="2">  1       -1 0.11444598E+00 0.46432212E+03</pdfrwt>
<totfact> 0.62872438E+01</totfact>
</mgrwt>
</event>
<event>
 4    1  0.2293715E-008  0.6380497E+03  0.7818608E-02  0.9829465E-01
         -1   -1    0    0    0  501 -0.00000000000E+00  0.00000000000E+00  0.51052752515E+03  0.51052752517E+03  0.50400000000E-02 0.  1.
          1   -1    0    0  501    0  0.00000000000E+00 -0.00000000000E+00 -0.25059272297E+04  0.25059272297E+04  0.50400000000E-02 0. -1.
    8880022    1    1    2    0    0  0.26053182946E+03 -0.56199553107E+03  0.24764707682E+03  0.68442423889E+03  0.15294330000E+03 0.  0.
    8880022    1    1    2    0    0 -0.26053182946E+03  0.56199553107E+03 -0.22430467814E+04  0.23320305160E+04  0.15294330000E+03 0.  0.
<mgrwt>
<rscale>  0 0.63804973E+03</rscale>
<asrwt>0</asrwt>
<pdfrwt beam="1">  1        1 0.38552726E+00 0.63804973E+03</pdfrwt>
<pdfrwt beam="2">  1       -1 0.78542698E-01 0.63804973E+03</pdfrwt>
<totfact> 0.23720739E+00</totfact>
</mgrwt>
</event>
<event>
 4    1  0.2293715E-008  0.2159432E+03  0.7818608E-02  0.1136944E+00
         -1   -1    0    0    0  501 -0.00000000000E+00  0.00000000000E+00  0.65854734847E+03  0.65854734849E+03  0.50400000000E-02 0.  1.
          1   -1    0    0  501    0  0.00000000000E+00 -0.00000000000E+00 -0.26267835802E+03  0.26267835807E+03  0.50400000000E-02 0. -1.
    8880022    1    1    2    0    0  0.12210728931E+03 -0.91266777407E+02  0.59159881127E+03  0.62977823182E+03  0.15294330000E+03 0.  0.
    8880022    1    1    2    0    0 -0.12210728931E+03  0.91266777407E+02 -0.19572982081E+03  0.29144747474E+03  0.15294330000E+03 0. -1.
<mgrwt>
<rscale>  0 0.21594320E+03</rscale>
<asrwt>0</asrwt>
<pdfrwt beam="1">  1        1 0.40412055E-01 0.21594320E+03</pdfrwt>
<pdfrwt beam="2">  1       -1 0.10131498E+00 0.21594320E+03</pdfrwt>
<totfact> 0.10343971E+02</totfact>
</mgrwt>
</event>
<event>
 4    1  0.2293715E-008  0.2960550E+03  0.7818608E-02  0.1087229E+00
         -1   -1    0    0    0  501 -0.00000000000E+00  0.00000000000E+00  0.12210637183E+03  0.12210637193E+03  0.50400000000E-02 0.  1.
          1   -1    0    0  501    0  0.00000000000E+00 -0.00000000000E+00 -0.88616921541E+03  0.88616921542E+03  0.50400000000E-02 0. -1.
    8880022    1    1    2    0    0  0.45563241945E+02 -0.24936097366E+03 -0.60177485063E+03  0.67065753411E+03  0.15294330000E+03 0.  0.
    8880022    1    1    2    0    0 -0.45563241945E+02  0.24936097366E+03 -0.16228799296E+03  0.33761805324E+03  0.15294330000E+03 0.  0.
<mgrwt>
<rscale>  0 0.29605499E+03</rscale>
<asrwt>0</asrwt>
<pdfrwt beam="1">  1        1 0.13633372E+00 0.29605499E+03</pdfrwt>
<pdfrwt beam="2">  1       -1 0.18785596E-01 0.29605499E+03</pdfrwt>
<totfact> 0.43911553E+02</totfact>
</mgrwt>
</event>
<event>
 4    1  0.2293715E-008  0.6604400E+03  0.7818608E-02  0.9787384E-01
          1   -1    0    0  501    0  0.00000000000E+00  0.00000000000E+00  0.79488336587E+03  0.79488336589E+03  0.50400000000E-02 0. -1.
         -1   -1    0    0    0  501 -0.00000000000E+00 -0.00000000000E+00 -0.12993201640E+04  0.12993201640E+04  0.50400000000E-02 0.  1.
    8880022    1    1    2    0    0  0.54643082759E+03  0.33793895115E+03 -0.10480671350E+04  0.12388001278E+04  0.15294330000E+03 0.  0.
    8880022    1    1    2    0    0 -0.54643082759E+03 -0.33793895115E+03  0.54363033693E+03  0.85540340208E+03  0.15294330000E+03 0. -1.
<mgrwt>
<rscale>  0 0.66044003E+03</rscale>
<asrwt>0</asrwt>
<pdfrwt beam="1">  1        1 0.12228975E+00 0.66044003E+03</pdfrwt>
<pdfrwt beam="2">  1       -1 0.19989541E+00 0.66044003E+03</pdfrwt>
<totfact> 0.35530006E+00</totfact>
</mgrwt>
</event>
<event>
 4    1  0.2293715E-008  0.8242716E+03  0.7818608E-02  0.9525535E-01
         -1   -1    0    0    0  501 -0.00000000000E+00  0.00000000000E+00  0.11443666895E+04  0.11443666895E+04  0.50400000000E-02 0.  1.
          1   -1    0    0  501    0  0.00000000000E+00 -0.00000000000E+00 -0.73560748407E+03  0.73560748408E+03  0.50400000000E-02 0. -1.
    8880022    1    1    2    0    0  0.61686020804E+03  0.52489566395E+03 -0.20846244054E+03  0.85022362730E+03  0.15294330000E+03 0.  0.
    8880022    1    1    2    0    0 -0.61686020804E+03 -0.52489566395E+03  0.61722164595E+03  0.10297505463E+04  0.15294330000E+03 0.  0.
<mgrwt>
<rscale>  0 0.82427157E+03</rscale>
<asrwt>0</asrwt>
<pdfrwt beam="1">  1        1 0.11317038E+00 0.82427157E+03</pdfrwt>
<pdfrwt beam="2">  1       -1 0.17605641E+00 0.82427157E+03</pdfrwt>
<totfact> 0.57447482E+00</totfact>
</mgrwt>
</event>
<event>
 4    1  0.2293715E-008  0.6604207E+03  0.7818608E-02  0.9787420E-01
          1   -1    0    0  501    0  0.00000000000E+00  0.00000000000E+00  0.11671675289E+04  0.11671675289E+04  0.50400000000E-02 0. -1.
         -1   -1    0    0    0  501 -0.00000000000E+00 -0.00000000000E+00 -0.81348490719E+03  0.81348490720E+03  0.50400000000E-02 0.  1.
    8880022    1    1    2    0    0 -0.21596035674E+03 -0.60508267056E+03 -0.55132403556E+03  0.86029864530E+03  0.15294330000E+03 0.  0.
    8880022    1    1    2    0    0  0.21596035674E+03  0.60508267056E+03  0.90500665729E+03  0.11203537908E+04  0.15294330000E+03 0.  0.
<mgrwt>
<rscale>  0 0.66042075E+03</rscale>
<asrwt>0</asrwt>
<pdfrwt beam="1">  1        1 0.17956423E+00 0.66042075E+03</pdfrwt>
<pdfrwt beam="2">  1       -1 0.12515152E+00 0.66042075E+03</pdfrwt>
<totfact> 0.66289541E+00</totfact>
</mgrwt>
</event>
<event>
 4    1  0.2293715E-008  0.3116714E+03  0.7818608E-02  0.1079548E+00
         -1   -1    0    0    0  501 -0.00000000000E+00  0.00000000000E+00  0.49820891973E+02  0.49820892228E+02  0.50400000000E-02 0.  1.
          1   -1    0    0  501    0  0.00000000000E+00 -0.00000000000E+00 -0.22217823157E+04  0.22217823157E+04  0.50400000000E-02 0. -1.
    8880022    1    1    2    0    0  0.11820360050E+03 -0.24448989006E+03 -0.68856073070E+03  0.75581408454E+03  0.15294330000E+03 0.  1.
    8880022    1    1    2    0    0 -0.11820360050E+03  0.24448989006E+03 -0.14834006930E+04  0.15157891234E+04  0.15294330000E+03 0.  0.
<mgrwt>
<rscale>  0 0.31167138E+03</rscale>
<asrwt>0</asrwt>
<pdfrwt beam="1">  1        1 0.34181259E+00 0.31167138E+03</pdfrwt>
<pdfrwt beam="2">  1       -1 0.76647544E-02 0.31167138E+03</pdfrwt>
<totfact> 0.22072063E+02</totfact>
</mgrwt>
</event>
<event>
 4    1  0.2293715E-008  0.3175383E+03  0.7818608E-02  0.1076788E+00
         -1   -1    0    0    0  501 -0.00000000000E+00  0.00000000000E+00  0.12701855911E+03  0.12701855921E+03  0.50400000000E-02 0.  1.
          1   -1    0    0  501    0  0.00000000000E+00 -0.00000000000E+00 -0.95102152767E+03  0.95102152768E+03  0.50400000000E-02 0. -1.
    8880022    1    1    2    0    0 -0.26223809931E+03 -0.93113196008E+02 -0.19285684409E+03  0.37151622216E+03  0.15294330000E+03 0.  0.
    8880022    1    1    2    0    0  0.26223809931E+03  0.93113196008E+02 -0.63114612446E+03  0.70652386473E+03  0.15294330000E+03 0.  0.
<mgrwt>
<rscale>  0 0.31753825E+03</rscale>
<asrwt>0</asrwt>
<pdfrwt beam="1">  1        1 0.14631100E+00 0.31753825E+03</pdfrwt>
<pdfrwt beam="2">  1       -1 0.19541317E-01 0.31753825E+03</pdfrwt>
<totfact> 0.36554159E+02</totfact>
</mgrwt>
</event>
<event>
 4    1  0.2293715E-008  0.3930969E+03  0.7818608E-02  0.1046197E+00
          1   -1    0    0  501    0  0.00000000000E+00  0.00000000000E+00  0.28691235286E+04  0.28691235286E+04  0.50400000000E-02 0. -1.
         -1   -1    0    0    0  501 -0.00000000000E+00 -0.00000000000E+00 -0.13278745995E+03  0.13278746005E+03  0.50400000000E-02 0.  1.
    8880022    1    1    2    0    0  0.31180969505E+03 -0.18414188321E+03  0.21096669296E+03  0.44613015772E+03  0.15294330000E+03 0.  0.
    8880022    1    1    2    0    0 -0.31180969505E+03  0.18414188321E+03  0.25253693757E+04  0.25557808309E+04  0.15294330000E+03 0.  0.
<mgrwt>
<rscale>  0 0.39309690E+03</rscale>
<asrwt>0</asrwt>
<pdfrwt beam="1">  1        1 0.44140362E+00 0.39309690E+03</pdfrwt>
<pdfrwt beam="2">  1       -1 0.20428840E-01 0.39309690E+03</pdfrwt>
<totfact> 0.16736571E+01</totfact>
</mgrwt>
</event>
<event>
 4    1  0.2293715E-008  0.4461090E+03  0.7818608E-02  0.1028889E+00
         -1   -1    0    0    0  501 -0.00000000000E+00  0.00000000000E+00  0.19748698982E+03  0.19748698989E+03  0.50400000000E-02 0.  1.
          1   -1    0    0  501    0  0.00000000000E+00 -0.00000000000E+00 -0.17813202552E+04  0.17813202552E+04  0.50400000000E-02 0. -1.
    8880022    1    1    2    0    0  0.27049226615E+03 -0.32008673865E+03 -0.14439329284E+04  0.15112761300E+04  0.15294330000E+03 0. -1.
    8880022    1    1    2    0    0 -0.27049226615E+03  0.32008673865E+03 -0.13990033699E+03  0.46753111513E+03  0.15294330000E+03 0.  0.
<mgrwt>
<rscale>  0 0.44610900E+03</rscale>
<asrwt>0</asrwt>
<pdfrwt beam="1">  1        1 0.27404926E+00 0.44610900E+03</pdfrwt>
<pdfrwt beam="2">  1       -1 0.30382615E-01 0.44610900E+03</pdfrwt>
<totfact> 0.45240822E+01</totfact>
</mgrwt>
</event>
<event>
 4    1  0.2293715E-008  0.8820131E+03  0.7818608E-02  0.9448349E-01
         -1   -1    0    0    0  501 -0.00000000000E+00  0.00000000000E+00  0.72647756175E+03  0.72647756177E+03  0.50400000000E-02 0.  1.
          1   -1    0    0  501    0  0.00000000000E+00 -0.00000000000E+00 -0.16619203108E+04  0.16619203108E+04  0.50400000000E-02 0. -1.
    8880022    1    1    2    0    0 -0.68570119562E+03 -0.53326292960E+03 -0.11799047700E+04  0.14731335313E+04  0.15294330000E+03 0.  0.
    8880022    1    1    2    0    0  0.68570119562E+03  0.53326292960E+03  0.24446202094E+03  0.91526434129E+03  0.15294330000E+03 0.  0.
<mgrwt>
<rscale>  0 0.88201311E+03</rscale>
<asrwt>0</asrwt>
<pdfrwt beam="1">  1        1 0.25568005E+00 0.88201311E+03</pdfrwt>
<pdfrwt beam="2">  1       -1 0.11176578E+00 0.88201311E+03</pdfrwt>
<totfact> 0.38063725E+00</totfact>
</mgrwt>
</event>
<event>
 4    1  0.2293715E-008  0.5186275E+03  0.7818608E-02  0.1009028E+00
         -1   -1    0    0    0  501 -0.00000000000E+00  0.00000000000E+00  0.67859543503E+03  0.67859543505E+03  0.50400000000E-02 0.  1.
          1   -1    0    0  501    0  0.00000000000E+00 -0.00000000000E+00 -0.59559020304E+03  0.59559020307E+03  0.50400000000E-02 0. -1.
    8880022    1    1    2    0    0  0.16360271490E+03 -0.46777880142E+03 -0.32696235890E+03  0.61308962847E+03  0.15294330000E+03 0.  0.
    8880022    1    1    2    0    0 -0.16360271490E+03  0.46777880142E+03  0.40996759089E+03  0.66109600965E+03  0.15294330000E+03 0.  0.
<mgrwt>
<rscale>  0 0.51862752E+03</rscale>
<asrwt>0</asrwt>
<pdfrwt beam="1">  1        1 0.91629262E-01 0.51862752E+03</pdfrwt>
<pdfrwt beam="2">  1       -1 0.10439930E+00 0.51862752E+03</pdfrwt>
<totfact> 0.31444718E+01</totfact>
</mgrwt>
</event>
<event>
 4    1  0.2293715E-008  0.1119294E+04  0.7818608E-02  0.9186588E-01
          1   -1    0    0  501    0  0.00000000000E+00  0.00000000000E+00  0.14040462604E+04  0.14040462605E+04  0.50400000000E-02 0. -1.
         -1   -1    0    0    0  501 -0.00000000000E+00 -0.00000000000E+00 -0.11206399308E+04  0.11206399308E+04  0.50400000000E-02 0.  1.
    8880022    1    1    2    0    0 -0.90894961952E+03 -0.63501087230E+03 -0.42812312037E+03  0.11983777693E+04  0.15294330000E+03 0.  0.
    8880022    1    1    2    0    0  0.90894961952E+03  0.63501087230E+03  0.71152945004E+03  0.13263084219E+04  0.15294330000E+03 0.  0.
<mgrwt>
<rscale>  0 0.11192944E+04</rscale>
<asrwt>0</asrwt>
<pdfrwt beam="1">  1        1 0.21600712E+00 0.11192944E+04</pdfrwt>
<pdfrwt beam="2">  1       -1 0.17240614E+00 0.11192944E+04</pdfrwt>
<totfact> 0.17846847E+00</totfact>
</mgrwt>
</event>
<event>
 4    1  0.2293715E-008  0.3825902E+03  0.7818608E-02  0.1049981E+00
         -1   -1    0    0    0  501 -0.00000000000E+00  0.00000000000E+00  0.13872782315E+03  0.13872782324E+03  0.50400000000E-02 0.  1.
          1   -1    0    0  501    0  0.00000000000E+00 -0.00000000000E+00 -0.18073849640E+04  0.18073849640E+04  0.50400000000E-02 0. -1.
    8880022    1    1    2    0    0  0.22767822413E+03 -0.26673250328E+03 -0.14620927432E+04  0.15113207618E+04  0.15294330000E+03 0.  0.
    8880022    1    1    2    0    0 -0.22767822413E+03  0.26673250328E+03 -0.20656439760E+03  0.43479202548E+03  0.15294330000E+03 0.  1.
<mgrwt>
<rscale>  0 0.38259019E+03</rscale>
<asrwt>0</asrwt>
<pdfrwt beam="1">  1        1 0.27805921E+00 0.38259019E+03</pdfrwt>
<pdfrwt beam="2">  1       -1 0.21342743E-01 0.38259019E+03</pdfrwt>
<totfact> 0.80011165E+01</totfact>
</mgrwt>
</event>
<event>
 4    1  0.2293715E-008  0.5041686E+03  0.7818608E-02  0.1012697E+00
         -1   -1    0    0    0  501 -0.00000000000E+00  0.00000000000E+00  0.56758093862E+03  0.56758093864E+03  0.50400000000E-02 0.  1.
          1   -1    0    0  501    0  0.00000000000E+00 -0.00000000000E+00 -0.14785561224E+04  0.14785561224E+04  0.50400000000E-02 0. -1.
    8880022    1    1    2    0    0  0.43397146895E+03  0.20606577962E+03  0.39870372174E+03  0.64276796135E+03  0.15294330000E+03 0.  1.
    8880022    1    1    2    0    0 -0.43397146895E+03 -0.20606577962E+03 -0.13096789055E+04  0.14033690997E+04  0.15294330000E+03 0.  0.
<mgrwt>
<rscale>  0 0.50416862E+03</rscale>
<asrwt>0</asrwt>
<pdfrwt beam="1">  1        1 0.22747017E+00 0.50416862E+03</pdfrwt>
<pdfrwt beam="2">  1       -1 0.87320145E-01 0.50416862E+03</pdfrwt>
<totfact> 0.95006765E+00</totfact>
</mgrwt>
</event>
<event>
 4    1  0.2293715E-008  0.5820308E+03  0.7818608E-02  0.9943404E-01
         -1   -1    0    0    0  501 -0.00000000000E+00  0.00000000000E+00  0.12031712186E+04  0.12031712187E+04  0.50400000000E-02 0.  1.
          1   -1    0    0  501    0  0.00000000000E+00 -0.00000000000E+00 -0.82517814597E+03  0.82517814598E+03  0.50400000000E-02 0. -1.
    8880022    1    1    2    0    0  0.25739415330E+03 -0.49911566184E+03  0.10121627790E+04  0.11675758384E+04  0.15294330000E+03 0.  0.
    8880022    1    1    2    0    0 -0.25739415330E+03  0.49911566184E+03 -0.63416970636E+03  0.86077352627E+03  0.15294330000E+03 0.  0.
<mgrwt>
<rscale>  0 0.58203080E+03</rscale>
<asrwt>0</asrwt>
<pdfrwt beam="1">  1        1 0.12695048E+00 0.58203080E+03</pdfrwt>
<pdfrwt beam="2">  1       -1 0.18510326E+00 0.58203080E+03</pdfrwt>
<totfact> 0.43003107E+00</totfact>
</mgrwt>
</event>
<event>
 4    1  0.2293715E-008  0.1397141E+04  0.7818608E-02  0.8955891E-01
          1   -1    0    0  501    0  0.00000000000E+00  0.00000000000E+00  0.21103411164E+04  0.21103411164E+04  0.50400000000E-02 0. -1.
         -1   -1    0    0    0  501 -0.00000000000E+00 -0.00000000000E+00 -0.11337271130E+04  0.11337271130E+04  0.50400000000E-02 0.  1.
    8880022    1    1    2    0    0  0.74568037253E+03  0.11715682297E+04  0.11843338327E+04  0.18315702594E+04  0.15294330000E+03 0.  0.
    8880022    1    1    2    0    0 -0.74568037253E+03 -0.11715682297E+04 -0.20771982934E+03  0.14124979700E+04  0.15294330000E+03 0.  0.
<mgrwt>
<rscale>  0 0.13971410E+04</rscale>
<asrwt>0</asrwt>
<pdfrwt beam="1">  1        1 0.32466787E+00 0.13971410E+04</pdfrwt>
<pdfrwt beam="2">  1       -1 0.17441955E+00 0.13971410E+04</pdfrwt>
<totfact> 0.54887867E-01</totfact>
</mgrwt>
</event>
<event>
 4    1  0.2293715E-008  0.3389886E+03  0.7818608E-02  0.1067227E+00
         -1   -1    0    0    0  501 -0.00000000000E+00  0.00000000000E+00  0.93315885505E+03  0.93315885506E+03  0.50400000000E-02 0.  1.
          1   -1    0    0  501    0  0.00000000000E+00 -0.00000000000E+00 -0.86034004735E+03  0.86034004736E+03  0.50400000000E-02 0. -1.
    8880022    1    1    2    0    0  0.26987567740E+03 -0.13670686514E+03 -0.79368488682E+03  0.86304634917E+03  0.15294330000E+03 0.  0.
    8880022    1    1    2    0    0 -0.26987567740E+03  0.13670686514E+03  0.86650369452E+03  0.93045255326E+03  0.15294330000E+03 0.  0.
<mgrwt>
<rscale>  0 0.33898864E+03</rscale>
<asrwt>0</asrwt>
<pdfrwt beam="1">  1        1 0.13236001E+00 0.33898864E+03</pdfrwt>
<pdfrwt beam="2">  1       -1 0.14356290E+00 0.33898864E+03</pdfrwt>
<totfact> 0.86610370E+00</totfact>
</mgrwt>
</event>
<event>
 4    1  0.2293715E-008  0.7879756E+03  0.7818608E-02  0.9577587E-01
         -1   -1    0    0    0  501 -0.00000000000E+00  0.00000000000E+00  0.30733935592E+03  0.30733935596E+03  0.50400000000E-02 0.  1.
          1   -1    0    0  501    0  0.00000000000E+00 -0.00000000000E+00 -0.24268073034E+04  0.24268073034E+04  0.50400000000E-02 0. -1.
    8880022    1    1    2    0    0  0.52779796732E+03 -0.56475057461E+03 -0.16192717893E+04  0.18008183380E+04  0.15294330000E+03 0.  0.
    8880022    1    1    2    0    0 -0.52779796732E+03  0.56475057461E+03 -0.50019615823E+03  0.93332832141E+03  0.15294330000E+03 0.  0.
<mgrwt>
<rscale>  0 0.78797561E+03</rscale>
<asrwt>0</asrwt>
<pdfrwt beam="1">  1        1 0.37335496E+00 0.78797561E+03</pdfrwt>
<pdfrwt beam="2">  1       -1 0.47282980E-01 0.78797561E+03</pdfrwt>
<totfact> 0.71224346E+00</totfact>
</mgrwt>
</event>
<event>
 4    1  0.2293715E-008  0.9984782E+03  0.7818608E-02  0.9310215E-01
         -1   -1    0    0    0  501 -0.00000000000E+00  0.00000000000E+00  0.60342648901E+03  0.60342648904E+03  0.50400000000E-02 0.  1.
          1   -1    0    0  501    0  0.00000000000E+00 -0.00000000000E+00 -0.32046508494E+04  0.32046508494E+04  0.50400000000E-02 0. -1.
    8880022    1    1    2    0    0  0.76634886488E+03 -0.62151142617E+03  0.24643159264E+02  0.99878224548E+03  0.15294330000E+03 0.  0.
    8880022    1    1    2    0    0 -0.76634886488E+03  0.62151142617E+03 -0.26258675196E+04  0.28092950929E+04  0.15294330000E+03 0.  0.
<mgrwt>
<rscale>  0 0.99847819E+03</rscale>
<asrwt>0</asrwt>
<pdfrwt beam="1">  1        1 0.49302320E+00 0.99847819E+03</pdfrwt>
<pdfrwt beam="2">  1       -1 0.92834846E-01 0.99847819E+03</pdfrwt>
<totfact> 0.49105101E-01</totfact>
</mgrwt>
</event>
<event>
 4    1  0.2293715E-008  0.4247507E+03  0.7818608E-02  0.1035531E+00
          1   -1    0    0  501    0  0.00000000000E+00  0.00000000000E+00  0.88998663253E+03  0.88998663255E+03  0.50400000000E-02 0. -1.
         -1   -1    0    0    0  501 -0.00000000000E+00 -0.00000000000E+00 -0.65276527683E+03  0.65276527685E+03  0.50400000000E-02 0.  1.
    8880022    1    1    2    0    0  0.64776189904E+02 -0.39092904101E+03 -0.52188819781E+03  0.67288960009E+03  0.15294330000E+03 0.  0.
    8880022    1    1    2    0    0 -0.64776189904E+02  0.39092904101E+03  0.75910955352E+03  0.86986230930E+03  0.15294330000E+03 0.  0.
<mgrwt>
<rscale>  0 0.42475066E+03</rscale>
<asrwt>0</asrwt>
<pdfrwt beam="1">  1        1 0.13692102E+00 0.42475066E+03</pdfrwt>
<pdfrwt beam="2">  1       -1 0.10042543E+00 0.42475066E+03</pdfrwt>
<totfact> 0.18968004E+01</totfact>
</mgrwt>
</event>
<event>
 4    1  0.2293715E-008  0.3314840E+03  0.7818608E-02  0.1070482E+00
          1   -1    0    0  501    0  0.00000000000E+00  0.00000000000E+00  0.17370717172E+04  0.17370717172E+04  0.50400000000E-02 0. -1.
         -1   -1    0    0    0  501 -0.00000000000E+00 -0.00000000000E+00 -0.30475861777E+03  0.30475861781E+03  0.50400000000E-02 0.  1.
    8880022    1    1    2    0    0 -0.27249707920E+03 -0.11061338376E+03  0.16249639256E+04  0.16584297969E+04  0.15294330000E+03 0.  0.
    8880022    1    1    2    0    0  0.27249707920E+03  0.11061338376E+03 -0.19265082611E+03  0.38340053815E+03  0.15294330000E+03 0.  0.
<mgrwt>
<rscale>  0 0.33148398E+03</rscale>
<asrwt>0</asrwt>
<pdfrwt beam="1">  1        1 0.26724180E+00 0.33148398E+03</pdfrwt>
<pdfrwt beam="2">  1       -1 0.46885942E-01 0.33148398E+03</pdfrwt>
<totfact> 0.22999740E+01</totfact>
</mgrwt>
</event>
<event>
 4    1  0.2293715E-008  0.4190338E+03  0.7818608E-02  0.1037381E+00
          1   -1    0    0  501    0  0.00000000000E+00  0.00000000000E+00  0.11830190622E+04  0.11830190622E+04  0.50400000000E-02 0. -1.
         -1   -1    0    0    0  501 -0.00000000000E+00 -0.00000000000E+00 -0.53527052927E+03  0.53527052929E+03  0.50400000000E-02 0.  1.
    8880022    1    1    2    0    0 -0.38440851803E+03  0.66541309958E+02 -0.40650532439E+03  0.58381151619E+03  0.15294330000E+03 0.  0.
    8880022    1    1    2    0    0  0.38440851803E+03 -0.66541309958E+02  0.10542538573E+04  0.11344780753E+04  0.15294330000E+03 0.  0.
<mgrwt>
<rscale>  0 0.41903378E+03</rscale>
<asrwt>0</asrwt>
<pdfrwt beam="1">  1        1 0.18200293E+00 0.41903378E+03</pdfrwt>
<pdfrwt beam="2">  1       -1 0.82349312E-01 0.41903378E+03</pdfrwt>
<totfact> 0.17620277E+01</totfact>
</mgrwt>
</event>
<event>
 4    1  0.2293715E-008  0.3936623E+03  0.7818608E-02  0.1045997E+00
         -1   -1    0    0    0  501 -0.00000000000E+00  0.00000000000E+00  0.17173263813E+04  0.17173263813E+04  0.50400000000E-02 0.  1.
          1   -1    0    0  501    0  0.00000000000E+00 -0.00000000000E+00 -0.21289046485E+03  0.21289046491E+03  0.50400000000E-02 0. -1.
    8880022    1    1    2    0    0 -0.16190751841E+03 -0.32459863561E+03  0.19673125359E+02  0.39415352799E+03  0.15294330000E+03 0.  0.
    8880022    1    1    2    0    0  0.16190751841E+03  0.32459863561E+03  0.14847627911E+04  0.15360633182E+04  0.15294330000E+03 0.  0.
<mgrwt>
<rscale>  0 0.39366226E+03</rscale>
<asrwt>0</asrwt>
<pdfrwt beam="1">  1        1 0.32752381E-01 0.39366226E+03</pdfrwt>
<pdfrwt beam="2">  1       -1 0.26420404E+00 0.39366226E+03</pdfrwt>
<totfact> 0.85212333E+00</totfact>
</mgrwt>
</event>
<event>
 4    1  0.2293715E-008  0.1921388E+03  0.7818608E-02  0.1156546E+00
         -1   -1    0    0    0  501 -0.00000000000E+00  0.00000000000E+00  0.77130715397E+03  0.77130715399E+03  0.50400000000E-02 0.  1.
          1   -1    0    0  501    0  0.00000000000E+00 -0.00000000000E+00 -0.31943305396E+03  0.31943305400E+03  0.50400000000E-02 0. -1.
    8880022    1    1    2    0    0  0.10911348582E+03 -0.40248332280E+02 -0.27691713674E+03  0.33704663575E+03  0.15294330000E+03 0.  0.
    8880022    1    1    2    0    0 -0.10911348582E+03  0.40248332280E+02  0.72879123676E+03  0.75369357223E+03  0.15294330000E+03 0.  1.
<mgrwt>
<rscale>  0 0.19213884E+03</rscale>
<asrwt>0</asrwt>
<pdfrwt beam="1">  1        1 0.49143548E-01 0.19213884E+03</pdfrwt>
<pdfrwt beam="2">  1       -1 0.11866264E+00 0.19213884E+03</pdfrwt>
<totfact> 0.56664975E+01</totfact>
</mgrwt>
</event>
<event>
 4    1  0.2293715E-008  0.5256249E+03  0.7818608E-02  0.1007299E+00
         -1   -1    0    0    0  501 -0.00000000000E+00  0.00000000000E+00  0.42156647516E+03  0.42156647519E+03  0.50400000000E-02 0.  1.
          1   -1    0    0  501    0  0.00000000000E+00 -0.00000000000E+00 -0.16919046118E+04  0.16919046118E+04  0.50400000000E-02 0. -1.
    8880022    1    1    2    0    0 -0.20989872252E+03  0.45698179778E+03 -0.14622929226E+04  0.15538925580E+04  0.15294330000E+03 0.  0.
    8880022    1    1    2    0    0  0.20989872252E+03 -0.45698179778E+03  0.19195478600E+03  0.55957852898E+03  0.15294330000E+03 0.  0.
<mgrwt>
<rscale>  0 0.52562486E+03</rscale>
<asrwt>0</asrwt>
<pdfrwt beam="1">  1        1 0.26029301E+00 0.52562486E+03</pdfrwt>
<pdfrwt beam="2">  1       -1 0.64856382E-01 0.52562486E+03</pdfrwt>
<totfact> 0.12594187E+01</totfact>
</mgrwt>
</event>
<event>
 4    1  0.2293715E-008  0.1631158E+03  0.7818608E-02  0.1185223E+00
          1   -1    0    0  501    0  0.00000000000E+00  0.00000000000E+00  0.13234467821E+04  0.13234467821E+04  0.50400000000E-02 0. -1.
         -1   -1    0    0    0  501 -0.00000000000E+00 -0.00000000000E+00 -0.44148054281E+03  0.44148054284E+03  0.50400000000E-02 0.  1.
    8880022    1    1    2    0    0 -0.46995334120E+02  0.31726308961E+02 -0.42115360995E+03  0.45163828037E+03  0.15294330000E+03 0.  1.
    8880022    1    1    2    0    0  0.46995334120E+02 -0.31726308961E+02  0.13031198492E+04  0.13132890445E+04  0.15294330000E+03 0.  0.
<mgrwt>
<rscale>  0 0.16311583E+03</rscale>
<asrwt>0</asrwt>
<pdfrwt beam="1">  1        1 0.20360719E+00 0.16311583E+03</pdfrwt>
<pdfrwt beam="2">  1       -1 0.67920085E-01 0.16311583E+03</pdfrwt>
<totfact> 0.22969609E+01</totfact>
</mgrwt>
</event>
<event>
 4    1  0.2293715E-008  0.1862846E+03  0.7818608E-02  0.1161856E+00
          1   -1    0    0  501    0  0.00000000000E+00  0.00000000000E+00  0.18642739710E+04  0.18642739710E+04  0.50400000000E-02 0. -1.
         -1   -1    0    0    0  501 -0.00000000000E+00 -0.00000000000E+00 -0.14139646590E+03  0.14139646599E+03  0.50400000000E-02 0.  1.
    8880022    1    1    2    0    0  0.10239672943E+03 -0.28726492226E+02  0.17959362342E+04  0.18055716303E+04  0.15294330000E+03 0. -1.
    8880022    1    1    2    0    0 -0.10239672943E+03  0.28726492226E+02 -0.73058729110E+02  0.20009880676E+03  0.15294330000E+03 0.  0.
<mgrwt>
<rscale>  0 0.18628461E+03</rscale>
<asrwt>0</asrwt>
<pdfrwt beam="1">  1        1 0.28681138E+00 0.18628461E+03</pdfrwt>
<pdfrwt beam="2">  1       -1 0.21753303E-01 0.18628461E+03</pdfrwt>
<totfact> 0.75472455E+01</totfact>
</mgrwt>
</event>
<event>
 4    1  0.2293715E-008  0.9713903E+03  0.7818608E-02  0.9340492E-01
          1   -1    0    0  501    0  0.00000000000E+00  0.00000000000E+00  0.43856700753E+04  0.43856700753E+04  0.50400000000E-02 0. -1.
         -1   -1    0    0    0  501 -0.00000000000E+00 -0.00000000000E+00 -0.32654743298E+03  0.32654743302E+03  0.50400000000E-02 0.  1.
    8880022    1    1    2    0    0 -0.19962673874E+03 -0.93827321116E+03  0.34056610982E+04  0.35414864990E+04  0.15294330000E+03 0.  0.
    8880022    1    1    2    0    0  0.19962673874E+03  0.93827321116E+03  0.65346154414E+03  0.11707310094E+04  0.15294330000E+03 0.  0.
<mgrwt>
<rscale>  0 0.97139030E+03</rscale>
<asrwt>0</asrwt>
<pdfrwt beam="1">  1        1 0.67471846E+00 0.97139030E+03</pdfrwt>
<pdfrwt beam="2">  1       -1 0.50238068E-01 0.97139030E+03</pdfrwt>
<totfact> 0.17949506E-01</totfact>
</mgrwt>
</event>
<event>
 4    1  0.2293715E-008  0.5044661E+03  0.7818608E-02  0.1012620E+00
          1   -1    0    0  501    0  0.00000000000E+00  0.00000000000E+00  0.13961055311E+04  0.13961055311E+04  0.50400000000E-02 0. -1.
         -1   -1    0    0    0  501 -0.00000000000E+00 -0.00000000000E+00 -0.71191078201E+03  0.71191078202E+03  0.50400000000E-02 0.  1.
    8880022    1    1    2    0    0 -0.45507419077E+03 -0.15492552273E+03 -0.56701303111E+03  0.75893996282E+03  0.15294330000E+03 0.  0.
    8880022    1    1    2    0    0  0.45507419077E+03  0.15492552273E+03  0.12512077802E+04  0.13490763503E+04  0.15294330000E+03 0.  0.
<mgrwt>
<rscale>  0 0.50446614E+03</rscale>
<asrwt>0</asrwt>
<pdfrwt beam="1">  1        1 0.21478547E+00 0.50446614E+03</pdfrwt>
<pdfrwt beam="2">  1       -1 0.10952474E+00 0.50446614E+03</pdfrwt>
<totfact> 0.65001822E+00</totfact>
</mgrwt>
</event>
<event>
 4    1  0.2293715E-008  0.1886786E+03  0.7818608E-02  0.1159659E+00
          1   -1    0    0  501    0  0.00000000000E+00  0.00000000000E+00  0.19484303995E+03  0.19484304001E+03  0.50400000000E-02 0. -1.
         -1   -1    0    0    0  501 -0.00000000000E+00 -0.00000000000E+00 -0.28536720130E+03  0.28536720135E+03  0.50400000000E-02 0.  1.
    8880022    1    1    2    0    0 -0.10823102099E+03  0.22226181788E+02 -0.18927314515E+03  0.26725256510E+03  0.15294330000E+03 0.  1.
    8880022    1    1    2    0    0  0.10823102099E+03 -0.22226181788E+02  0.98748983794E+02  0.21295767626E+03  0.15294330000E+03 0.  0.
<mgrwt>
<rscale>  0 0.18867859E+03</rscale>
<asrwt>0</asrwt>
<pdfrwt beam="1">  1        1 0.29975852E-01 0.18867859E+03</pdfrwt>
<pdfrwt beam="2">  1       -1 0.43902646E-01 0.18867859E+03</pdfrwt>
<totfact> 0.79094029E+02</totfact>
</mgrwt>
</event>
<event>
 4    1  0.2293715E-008  0.3104330E+03  0.7818608E-02  0.1080139E+00
          1   -1    0    0  501    0  0.00000000000E+00  0.00000000000E+00  0.11729576158E+04  0.11729576159E+04  0.50400000000E-02 0. -1.
         -1   -1    0    0    0  501 -0.00000000000E+00 -0.00000000000E+00 -0.26926606882E+03  0.26926606886E+03  0.50400000000E-02 0.  1.
    8880022    1    1    2    0    0 -0.16491857815E+03  0.21395987470E+03 -0.14926887656E+03  0.34445582580E+03  0.15294330000E+03 0.  0.
    8880022    1    1    2    0    0  0.16491857815E+03 -0.21395987470E+03  0.10529604236E+04  0.10977678589E+04  0.15294330000E+03 0. -1.
<mgrwt>
<rscale>  0 0.31043295E+03</rscale>
<asrwt>0</asrwt>
<pdfrwt beam="1">  1        1 0.18045501E+00 0.31043295E+03</pdfrwt>
<pdfrwt beam="2">  1       -1 0.41425550E-01 0.31043295E+03</pdfrwt>
<totfact> 0.69657026E+01</totfact>
</mgrwt>
</event>
<event>
 4    1  0.2293715E-008  0.3593098E+03  0.7818608E-02  0.1058857E+00
         -1   -1    0    0    0  501 -0.00000000000E+00  0.00000000000E+00  0.51086344285E+03  0.51086344287E+03  0.50400000000E-02 0.  1.
          1   -1    0    0  501    0  0.00000000000E+00 -0.00000000000E+00 -0.42359706166E+03  0.42359706169E+03  0.50400000000E-02 0. -1.
    8880022    1    1    2    0    0  0.17141398183E+03 -0.27627728686E+03 -0.25312383222E+03  0.43951703022E+03  0.15294330000E+03 0.  0.
    8880022    1    1    2    0    0 -0.17141398183E+03  0.27627728686E+03  0.34039021340E+03  0.49494347434E+03  0.15294330000E+03 0.  0.
<mgrwt>
<rscale>  0 0.35930982E+03</rscale>
<asrwt>0</asrwt>
<pdfrwt beam="1">  1        1 0.65168779E-01 0.35930982E+03</pdfrwt>
<pdfrwt beam="2">  1       -1 0.78594376E-01 0.35930982E+03</pdfrwt>
<totfact> 0.95005123E+01</totfact>
</mgrwt>
</event>
<event>
 4    1  0.2293715E-008  0.7078470E+03  0.7818608E-02  0.9703906E-01
         -1   -1    0    0    0  501 -0.00000000000E+00  0.00000000000E+00  0.54183844784E+03  0.54183844787E+03  0.50400000000E-02 0.  1.
          1   -1    0    0  501    0  0.00000000000E+00 -0.00000000000E+00 -0.17286721187E+04  0.17286721187E+04  0.50400000000E-02 0. -1.
    8880022    1    1    2    0    0  0.67617937341E+03  0.14295881650E+03  0.18078290610E+03  0.73056819010E+03  0.15294330000E+03 0.  0.
    8880022    1    1    2    0    0 -0.67617937341E+03 -0.14295881650E+03 -0.13676165769E+04  0.15399423764E+04  0.15294330000E+03 0.  0.
<mgrwt>
<rscale>  0 0.70784703E+03</rscale>
<asrwt>0</asrwt>
<pdfrwt beam="1">  1        1 0.26594955E+00 0.70784703E+03</pdfrwt>
<pdfrwt beam="2">  1       -1 0.83359762E-01 0.70784703E+03</pdfrwt>
<totfact> 0.68396698E+00</totfact>
</mgrwt>
</event>
<event>
 4    1  0.2293715E-008  0.5998718E+03  0.7818608E-02  0.9905672E-01
         -1   -1    0    0    0  501 -0.00000000000E+00  0.00000000000E+00  0.25060888450E+03  0.25060888455E+03  0.50400000000E-02 0.  1.
          1   -1    0    0  501    0  0.00000000000E+00 -0.00000000000E+00 -0.17895271371E+04  0.17895271372E+04  0.50400000000E-02 0. -1.
    8880022    1    1    2    0    0  0.45816314951E+03 -0.35572611284E+03 -0.12229205899E+04  0.13621236953E+04  0.15294330000E+03 0.  0.
    8880022    1    1    2    0    0 -0.45816314951E+03  0.35572611284E+03 -0.31599766270E+03  0.67801232642E+03  0.15294330000E+03 0.  0.
<mgrwt>
<rscale>  0 0.59987181E+03</rscale>
<asrwt>0</asrwt>
<pdfrwt beam="1">  1        1 0.27531186E+00 0.59987181E+03</pdfrwt>
<pdfrwt beam="2">  1       -1 0.38555214E-01 0.59987181E+03</pdfrwt>
<totfact> 0.28550292E+01</totfact>
</mgrwt>
</event>
<event>
 4    1  0.2293715E-008  0.1371924E+04  0.7818608E-02  0.8974396E-01
          1   -1    0    0  501    0  0.00000000000E+00  0.00000000000E+00  0.29716767618E+04  0.29716767618E+04  0.50400000000E-02 0. -1.
         -1   -1    0    0    0  501 -0.00000000000E+00 -0.00000000000E+00 -0.10112272446E+04  0.10112272446E+04  0.50400000000E-02 0.  1.
    8880022    1    1    2    0    0 -0.12628961261E+04  0.51369012185E+03 -0.23710542422E+03  0.13922624759E+04  0.15294330000E+03 0.  0.
    8880022    1    1    2    0    0  0.12628961261E+04 -0.51369012185E+03  0.21975549414E+04  0.25906415306E+04  0.15294330000E+03 0.  0.
<mgrwt>
<rscale>  0 0.13719241E+04</rscale>
<asrwt>0</asrwt>
<pdfrwt beam="1">  1        1 0.45718104E+00 0.13719241E+04</pdfrwt>
<pdfrwt beam="2">  1       -1 0.15557342E+00 0.13719241E+04</pdfrwt>
<totfact> 0.19155997E-01</totfact>
</mgrwt>
</event>
<event>
 4    1  0.2293715E-008  0.5969325E+03  0.7818608E-02  0.9911791E-01
          1   -1    0    0  501    0  0.00000000000E+00  0.00000000000E+00  0.15064412665E+04  0.15064412665E+04  0.50400000000E-02 0. -1.
         -1   -1    0    0    0  501 -0.00000000000E+00 -0.00000000000E+00 -0.56765459419E+03  0.56765459421E+03  0.50400000000E-02 0.  1.
    8880022    1    1    2    0    0  0.15816400041E+03  0.55490622857E+03  0.12614352633E+04  0.13955455385E+04  0.15294330000E+03 0.  0.
    8880022    1    1    2    0    0 -0.15816400041E+03 -0.55490622857E+03 -0.32264859097E+03  0.67855032223E+03  0.15294330000E+03 0.  0.
<mgrwt>
<rscale>  0 0.59693251E+03</rscale>
<asrwt>0</asrwt>
<pdfrwt beam="1">  1        1 0.23176019E+00 0.59693251E+03</pdfrwt>
<pdfrwt beam="2">  1       -1 0.87331477E-01 0.59693251E+03</pdfrwt>
<totfact> 0.89159212E+00</totfact>
</mgrwt>
</event>
<event>
 4    1  0.2293715E-008  0.2801945E+03  0.7818608E-02  0.1095583E+00
          1   -1    0    0  501    0  0.00000000000E+00  0.00000000000E+00  0.84471122024E+03  0.84471122025E+03  0.50400000000E-02 0. -1.
         -1   -1    0    0    0  501 -0.00000000000E+00 -0.00000000000E+00 -0.87259252412E+03  0.87259252414E+03  0.50400000000E-02 0.  1.
    8880022    1    1    2    0    0  0.18495569911E+03  0.14459837752E+03 -0.82557689030E+03  0.87182920130E+03  0.15294330000E+03 0.  1.
    8880022    1    1    2    0    0 -0.18495569911E+03 -0.14459837752E+03  0.79769558642E+03  0.84547454309E+03  0.15294330000E+03 0.  0.
<mgrwt>
<rscale>  0 0.28019449E+03</rscale>
<asrwt>0</asrwt>
<pdfrwt beam="1">  1        1 0.12995557E+00 0.28019449E+03</pdfrwt>
<pdfrwt beam="2">  1       -1 0.13424500E+00 0.28019449E+03</pdfrwt>
<totfact> 0.10799178E+01</totfact>
</mgrwt>
</event>
<event>
 4    1  0.2293715E-008  0.4554578E+03  0.7818608E-02  0.1026107E+00
         -1   -1    0    0    0  501 -0.00000000000E+00  0.00000000000E+00  0.29871350721E+03  0.29871350725E+03  0.50400000000E-02 0.  1.
          1   -1    0    0  501    0  0.00000000000E+00 -0.00000000000E+00 -0.84580675545E+03  0.84580675546E+03  0.50400000000E-02 0. -1.
    8880022    1    1    2    0    0 -0.39497903185E+03  0.16745665686E+03 -0.51562597015E+03  0.68797671591E+03  0.15294330000E+03 0.  0.
    8880022    1    1    2    0    0  0.39497903185E+03 -0.16745665686E+03 -0.31467278088E+02  0.45654354681E+03  0.15294330000E+03 0.  0.
<mgrwt>
<rscale>  0 0.45545781E+03</rscale>
<asrwt>0</asrwt>
<pdfrwt beam="1">  1        1 0.13012412E+00 0.45545781E+03</pdfrwt>
<pdfrwt beam="2">  1       -1 0.45955925E-01 0.45545781E+03</pdfrwt>
<totfact> 0.99700927E+01</totfact>
</mgrwt>
</event>
<event>
 4    1  0.2293715E-008  0.9509803E+03  0.7818608E-02  0.9364006E-01
         -1   -1    0    0    0  501 -0.00000000000E+00  0.00000000000E+00  0.13734529540E+04  0.13734529540E+04  0.50400000000E-02 0.  1.
          1   -1    0    0  501    0  0.00000000000E+00 -0.00000000000E+00 -0.10782176802E+04  0.10782176803E+04  0.50400000000E-02 0. -1.
    8880022    1    1    2    0    0  0.63767910459E+03 -0.68872141498E+03  0.91247132090E+03  0.13179405876E+04  0.15294330000E+03 0.  0.
    8880022    1    1    2    0    0 -0.63767910459E+03  0.68872141498E+03 -0.61723604714E+03  0.11337300467E+04  0.15294330000E+03 0.  0.
<mgrwt>
<rscale>  0 0.95098027E+03</rscale>
<asrwt>0</asrwt>
<pdfrwt beam="1">  1        1 0.16587964E+00 0.95098027E+03</pdfrwt>
<pdfrwt beam="2">  1       -1 0.21130045E+00 0.95098027E+03</pdfrwt>
<totfact> 0.16791697E+00</totfact>
</mgrwt>
</event>
<event>
 4    1  0.2293715E-008  0.3434909E+03  0.7818608E-02  0.1065319E+00
          1   -1    0    0  501    0  0.00000000000E+00  0.00000000000E+00  0.13373988943E+04  0.13373988943E+04  0.50400000000E-02 0. -1.
         -1   -1    0    0    0  501 -0.00000000000E+00 -0.00000000000E+00 -0.66275518879E+03  0.66275518881E+03  0.50400000000E-02 0.  1.
    8880022    1    1    2    0    0  0.27314258425E+03  0.14137695127E+03  0.12684619438E+04  0.13141467458E+04  0.15294330000E+03 0.  0.
    8880022    1    1    2    0    0 -0.27314258425E+03 -0.14137695127E+03 -0.59381823828E+03  0.68600733729E+03  0.15294330000E+03 0.  1.
<mgrwt>
<rscale>  0 0.34349085E+03</rscale>
<asrwt>0</asrwt>
<pdfrwt beam="1">  1        1 0.20575368E+00 0.34349085E+03</pdfrwt>
<pdfrwt beam="2">  1       -1 0.10196234E+00 0.34349085E+03</pdfrwt>
<totfact> 0.88057051E+00</totfact>
</mgrwt>
</event>
<event>
 4    1  0.2293715E-008  0.3340663E+03  0.7818608E-02  0.1069352E+00
          1   -1    0    0  501    0  0.00000000000E+00  0.00000000000E+00  0.73102072569E+03  0.73102072571E+03  0.50400000000E-02 0. -1.
         -1   -1    0    0    0  501 -0.00000000000E+00 -0.00000000000E+00 -0.83385964720E+03  0.83385964721E+03  0.50400000000E-02 0.  1.
    8880022    1    1    2    0    0 -0.28881636012E+03  0.69237001185E+02  0.65577802352E+03  0.73596543489E+03  0.15294330000E+03 0.  0.
    8880022    1    1    2    0    0  0.28881636012E+03 -0.69237001185E+02 -0.75861694502E+03  0.82891493803E+03  0.15294330000E+03 0.  1.
<mgrwt>
<rscale>  0 0.33406632E+03</rscale>
<asrwt>0</asrwt>
<pdfrwt beam="1">  1        1 0.11246473E+00 0.33406632E+03</pdfrwt>
<pdfrwt beam="2">  1       -1 0.12828610E+00 0.33406632E+03</pdfrwt>
<totfact> 0.14837271E+01</totfact>
</mgrwt>
</event>
<event>
 4    1  0.2522307E-008  0.7212324E+03  0.7818608E-02  0.9681595E-01
          1   -1    0    0  501    0  0.00000000000E+00  0.00000000000E+00  0.10432605397E+04  0.10432605397E+04  0.50400000000E-02 0. -1.
         -1   -1    0    0    0  501 -0.00000000000E+00 -0.00000000000E+00 -0.14111949762E+04  0.14111949762E+04  0.50400000000E-02 0.  1.
    8880022    1    1    2    0    0  0.67457274036E+03  0.20429432218E+03  0.80292383817E+03  0.10792881427E+04  0.15294330000E+03 0.  0.
    8880022    1    1    2    0    0 -0.67457274036E+03 -0.20429432218E+03 -0.11708582746E+04  0.13751673732E+04  0.15294330000E+03 0.  0.
<mgrwt>
<rscale>  0 0.72123242E+03</rscale>
<asrwt>0</asrwt>
<pdfrwt beam="1">  1        1 0.16050162E+00 0.72123242E+03</pdfrwt>
<pdfrwt beam="2">  1       -1 0.21710692E+00 0.72123242E+03</pdfrwt>
<totfact> 0.16953119E+00</totfact>
</mgrwt>
</event>
<event>
 4    1  0.2293715E-008  0.9106897E+03  0.7818608E-02  0.9412317E-01
         -1   -1    0    0    0  501 -0.00000000000E+00  0.00000000000E+00  0.11563159699E+04  0.11563159699E+04  0.50400000000E-02 0.  1.
          1   -1    0    0  501    0  0.00000000000E+00 -0.00000000000E+00 -0.11813627508E+04  0.11813627508E+04  0.50400000000E-02 0. -1.
    8880022    1    1    2    0    0 -0.66891175317E+02 -0.89525952705E+03  0.72009829089E+03  0.11609897724E+04  0.15294330000E+03 0.  0.
    8880022    1    1    2    0    0  0.66891175317E+02  0.89525952705E+03 -0.74514507179E+03  0.11766889483E+04  0.15294330000E+03 0.  0.
<mgrwt>
<rscale>  0 0.91068969E+03</rscale>
<asrwt>0</asrwt>
<pdfrwt beam="1">  1        1 0.18174812E+00 0.91068969E+03</pdfrwt>
<pdfrwt beam="2">  1       -1 0.17789476E+00 0.91068969E+03</pdfrwt>
<totfact> 0.24155700E+00</totfact>
</mgrwt>
</event>
<event>
 4    1  0.2293715E-008  0.5932088E+03  0.7818608E-02  0.9919597E-01
         -1   -1    0    0    0  501 -0.00000000000E+00  0.00000000000E+00  0.24733730345E+03  0.24733730350E+03  0.50400000000E-02 0.  1.
          1   -1    0    0  501    0  0.00000000000E+00 -0.00000000000E+00 -0.21949508254E+04  0.21949508254E+04  0.50400000000E-02 0. -1.
    8880022    1    1    2    0    0 -0.44115107877E+03 -0.36591089957E+03 -0.24950022483E+03  0.64354259838E+03  0.15294330000E+03 0.  0.
    8880022    1    1    2    0    0  0.44115107877E+03  0.36591089957E+03 -0.16981132972E+04  0.17987455306E+04  0.15294330000E+03 0.  0.
<mgrwt>
<rscale>  0 0.59320883E+03</rscale>
<asrwt>0</asrwt>
<pdfrwt beam="1">  1        1 0.33768473E+00 0.59320883E+03</pdfrwt>
<pdfrwt beam="2">  1       -1 0.38051894E-01 0.59320883E+03</pdfrwt>
<totfact> 0.15728620E+01</totfact>
</mgrwt>
</event>
<event>
 4    1  0.2293715E-008  0.1204159E+04  0.7818608E-02  0.9109224E-01
         -1   -1    0    0    0  501 -0.00000000000E+00  0.00000000000E+00  0.98250371039E+03  0.98250371040E+03  0.50400000000E-02 0.  1.
          1   -1    0    0  501    0  0.00000000000E+00 -0.00000000000E+00 -0.22668677113E+04  0.22668677113E+04  0.50400000000E-02 0. -1.
    8880022    1    1    2    0    0 -0.53157721858E+03 -0.10695944389E+04  0.31756710299E+03  0.12453301253E+04  0.15294330000E+03 0.  0.
    8880022    1    1    2    0    0  0.53157721858E+03  0.10695944389E+04 -0.16019311039E+04  0.20040412964E+04  0.15294330000E+03 0.  0.
<mgrwt>
<rscale>  0 0.12041587E+04</rscale>
<asrwt>0</asrwt>
<pdfrwt beam="1">  1        1 0.34874888E+00 0.12041587E+04</pdfrwt>
<pdfrwt beam="2">  1       -1 0.15115442E+00 0.12041587E+04</pdfrwt>
<totfact> 0.65952298E-01</totfact>
</mgrwt>
</event>
<event>
 4    1  0.2293715E-008  0.4415835E+03  0.7818608E-02  0.1030262E+00
         -1   -1    0    0    0  501 -0.00000000000E+00  0.00000000000E+00  0.10879694508E+03  0.10879694520E+03  0.50400000000E-02 0.  1.
          1   -1    0    0  501    0  0.00000000000E+00 -0.00000000000E+00 -0.25660744070E+04  0.25660744070E+04  0.50400000000E-02 0. -1.
    8880022    1    1    2    0    0  0.38923721962E+03  0.14176994841E+03 -0.19630637694E+04  0.20121171305E+04  0.15294330000E+03 0.  0.
    8880022    1    1    2    0    0 -0.38923721962E+03 -0.14176994841E+03 -0.49421369260E+03  0.66275422170E+03  0.15294330000E+03 0.  0.
<mgrwt>
<rscale>  0 0.44158350E+03</rscale>
<asrwt>0</asrwt>
<pdfrwt beam="1">  1        1 0.39478063E+00 0.44158350E+03</pdfrwt>
<pdfrwt beam="2">  1       -1 0.16737993E-01 0.44158350E+03</pdfrwt>
<totfact> 0.36943152E+01</totfact>
</mgrwt>
</event>
<event>
 4    1  0.2293715E-008  0.2570851E+03  0.7818608E-02  0.1108907E+00
         -1   -1    0    0    0  501 -0.00000000000E+00  0.00000000000E+00  0.28333305765E+03  0.28333305770E+03  0.50400000000E-02 0.  1.
          1   -1    0    0  501    0  0.00000000000E+00 -0.00000000000E+00 -0.14361545981E+04  0.14361545981E+04  0.50400000000E-02 0. -1.
    8880022    1    1    2    0    0 -0.13334058126E+03 -0.15786513945E+03 -0.13632403290E+04  0.13872696063E+04  0.15294330000E+03 0.  0.
    8880022    1    1    2    0    0  0.13334058126E+03  0.15786513945E+03  0.21041878853E+03  0.33221804955E+03  0.15294330000E+03 0.  0.
<mgrwt>
<rscale>  0 0.25708513E+03</rscale>
<asrwt>0</asrwt>
<pdfrwt beam="1">  1        1 0.22094686E+00 0.25708513E+03</pdfrwt>
<pdfrwt beam="2">  1       -1 0.43589702E-01 0.25708513E+03</pdfrwt>
<totfact> 0.42557244E+01</totfact>
</mgrwt>
</event>
<event>
 4    1  0.2293715E-008  0.3020695E+03  0.7818608E-02  0.1084211E+00
          1   -1    0    0  501    0  0.00000000000E+00  0.00000000000E+00  0.16203071498E+03  0.16203071506E+03  0.50400000000E-02 0. -1.
         -1   -1    0    0    0  501 -0.00000000000E+00 -0.00000000000E+00 -0.11284842980E+04  0.11284842980E+04  0.50400000000E-02 0.  1.
    8880022    1    1    2    0    0 -0.23279087303E+03 -0.11688775217E+03 -0.26515465508E+02  0.30323103419E+03  0.15294330000E+03 0.  0.
    8880022    1    1    2    0    0  0.23279087303E+03  0.11688775217E+03 -0.93993811755E+03  0.98728397891E+03  0.15294330000E+03 0.  0.
<mgrwt>
<rscale>  0 0.30206951E+03</rscale>
<asrwt>0</asrwt>
<pdfrwt beam="1">  1        1 0.24927803E-01 0.30206951E+03</pdfrwt>
<pdfrwt beam="2">  1       -1 0.17361296E+00 0.30206951E+03</pdfrwt>
<totfact> 0.48765228E+01</totfact>
</mgrwt>
</event>
<event>
 4    1  0.2293715E-008  0.6211099E+03  0.7818608E-02  0.9862552E-01
         -1   -1    0    0    0  501 -0.00000000000E+00  0.00000000000E+00  0.62924912426E+03  0.62924912428E+03  0.50400000000E-02 0.  1.
          1   -1    0    0  501    0  0.00000000000E+00 -0.00000000000E+00 -0.23394139064E+04  0.23394139064E+04  0.50400000000E-02 0. -1.
    8880022    1    1    2    0    0  0.57065966766E+03  0.19165973603E+03 -0.21301707263E+04  0.22188746894E+04  0.15294330000E+03 0.  0.
    8880022    1    1    2    0    0 -0.57065966766E+03 -0.19165973603E+03  0.42000594416E+03  0.74978834137E+03  0.15294330000E+03 0.  0.
<mgrwt>
<rscale>  0 0.62110994E+03</rscale>
<asrwt>0</asrwt>
<pdfrwt beam="1">  1        1 0.35990983E+00 0.62110994E+03</pdfrwt>
<pdfrwt beam="2">  1       -1 0.96807559E-01 0.62110994E+03</pdfrwt>
<totfact> 0.19600867E+00</totfact>
</mgrwt>
</event>
<event>
 4    1  0.2293715E-008  0.7026694E+03  0.7818608E-02  0.9712678E-01
         -1   -1    0    0    0  501 -0.00000000000E+00  0.00000000000E+00  0.63294248183E+03  0.63294248185E+03  0.50400000000E-02 0.  1.
          1   -1    0    0  501    0  0.00000000000E+00 -0.00000000000E+00 -0.10113575257E+04  0.10113575257E+04  0.50400000000E-02 0. -1.
    8880022    1    1    2    0    0 -0.68440812111E+03  0.44025079528E+02 -0.58236591539E+03  0.91263048179E+03  0.15294330000E+03 0.  0.
    8880022    1    1    2    0    0  0.68440812111E+03 -0.44025079528E+02  0.20395087155E+03  0.73166952574E+03  0.15294330000E+03 0.  0.
<mgrwt>
<rscale>  0 0.70266944E+03</rscale>
<asrwt>0</asrwt>
<pdfrwt beam="1">  1        1 0.15559347E+00 0.70266944E+03</pdfrwt>
<pdfrwt beam="2">  1       -1 0.97375766E-01 0.70266944E+03</pdfrwt>
<totfact> 0.15567499E+01</totfact>
</mgrwt>
</event>
<event>
 4    1  0.2293715E-008  0.9358078E+03  0.7818608E-02  0.9381895E-01
         -1   -1    0    0    0  501 -0.00000000000E+00  0.00000000000E+00  0.65160822351E+03  0.65160822353E+03  0.50400000000E-02 0.  1.
          1   -1    0    0  501    0  0.00000000000E+00 -0.00000000000E+00 -0.22875592042E+04  0.22875592042E+04  0.50400000000E-02 0. -1.
    8880022    1    1    2    0    0  0.89514257235E+03  0.22597416364E+03 -0.17618226105E+04  0.19949323576E+04  0.15294330000E+03 0.  0.
    8880022    1    1    2    0    0 -0.89514257235E+03 -0.22597416364E+03  0.12587162982E+03  0.94423507014E+03  0.15294330000E+03 0.  0.
<mgrwt>
<rscale>  0 0.93580778E+03</rscale>
<asrwt>0</asrwt>
<pdfrwt beam="1">  1        1 0.35193218E+00 0.93580778E+03</pdfrwt>
<pdfrwt beam="2">  1       -1 0.10024742E+00 0.93580778E+03</pdfrwt>
<totfact> 0.18444304E+00</totfact>
</mgrwt>
</event>
<event>
 4    1  0.2293715E-008  0.1406848E+04  0.7818608E-02  0.8948877E-01
          1   -1    0    0  501    0  0.00000000000E+00  0.00000000000E+00  0.16407166625E+04  0.16407166625E+04  0.50400000000E-02 0. -1.
         -1   -1    0    0    0  501 -0.00000000000E+00 -0.00000000000E+00 -0.13855110071E+04  0.13855110071E+04  0.50400000000E-02 0.  1.
    8880022    1    1    2    0    0 -0.28873140130E+03  0.13683797484E+04 -0.41656285832E+03  0.14672236455E+04  0.15294330000E+03 0.  0.
    8880022    1    1    2    0    0  0.28873140130E+03 -0.13683797484E+04  0.67176851373E+03  0.15590040241E+04  0.15294330000E+03 0.  0.
<mgrwt>
<rscale>  0 0.14068478E+04</rscale>
<asrwt>0</asrwt>
<pdfrwt beam="1">  1        1 0.25241795E+00 0.14068478E+04</pdfrwt>
<pdfrwt beam="2">  1       -1 0.21315554E+00 0.14068478E+04</pdfrwt>
<totfact> 0.61199946E-01</totfact>
</mgrwt>
</event>
<event>
 4    1  0.2293715E-008  0.9611112E+03  0.7818608E-02  0.9352257E-01
         -1   -1    0    0    0  501 -0.00000000000E+00  0.00000000000E+00  0.61123112360E+03  0.61123112362E+03  0.50400000000E-02 0.  1.
          1   -1    0    0  501    0  0.00000000000E+00 -0.00000000000E+00 -0.16267826560E+04  0.16267826560E+04  0.50400000000E-02 0. -1.
    8880022    1    1    2    0    0  0.81889166130E+03 -0.47933248211E+03 -0.80595959591E+03  0.12543148347E+04  0.15294330000E+03 0.  0.
    8880022    1    1    2    0    0 -0.81889166130E+03  0.47933248211E+03 -0.20959193649E+03  0.98369894490E+03  0.15294330000E+03 0.  0.
<mgrwt>
<rscale>  0 0.96111125E+03</rscale>
<asrwt>0</asrwt>
<pdfrwt beam="1">  1        1 0.25027425E+00 0.96111125E+03</pdfrwt>
<pdfrwt beam="2">  1       -1 0.94035558E-01 0.96111125E+03</pdfrwt>
<totfact> 0.59287869E+00</totfact>
</mgrwt>
</event>
<event>
 4    1  0.2293715E-008  0.1617402E+03  0.7818608E-02  0.1186746E+00
         -1   -1    0    0    0  501 -0.00000000000E+00  0.00000000000E+00  0.58397109889E+02  0.58397110106E+02  0.50400000000E-02 0.  1.
          1   -1    0    0  501    0  0.00000000000E+00 -0.00000000000E+00 -0.64730507937E+03  0.64730507939E+03  0.50400000000E-02 0. -1.
    8880022    1    1    2    0    0  0.22192460565E+02  0.47704740914E+02 -0.98644581768E+02  0.18944828883E+03  0.15294330000E+03 0.  1.
    8880022    1    1    2    0    0 -0.22192460565E+02 -0.47704740914E+02 -0.49026338772E+03  0.51625390067E+03  0.15294330000E+03 0.  0.
<mgrwt>
<rscale>  0 0.16174023E+03</rscale>
<asrwt>0</asrwt>
<pdfrwt beam="1">  1        1 0.99585392E-01 0.16174023E+03</pdfrwt>
<pdfrwt beam="2">  1       -1 0.89841712E-02 0.16174023E+03</pdfrwt>
<totfact> 0.22455344E+03</totfact>
</mgrwt>
</event>
<event>
 4    1  0.2293715E-008  0.5521324E+03  0.7818608E-02  0.1001002E+00
         -1   -1    0    0    0  501 -0.00000000000E+00  0.00000000000E+00  0.52402684422E+03  0.52402684425E+03  0.50400000000E-02 0.  1.
          1   -1    0    0  501    0  0.00000000000E+00 -0.00000000000E+00 -0.85233777359E+03  0.85233777361E+03  0.50400000000E-02 0. -1.
    8880022    1    1    2    0    0  0.41660863973E+03  0.32847492781E+03 -0.55190870621E+03  0.78067497071E+03  0.15294330000E+03 0.  0.
    8880022    1    1    2    0    0 -0.41660863973E+03 -0.32847492781E+03  0.22359777683E+03  0.59568964714E+03  0.15294330000E+03 0.  0.
<mgrwt>
<rscale>  0 0.55213240E+03</rscale>
<asrwt>0</asrwt>
<pdfrwt beam="1">  1        1 0.13112889E+00 0.55213240E+03</pdfrwt>
<pdfrwt beam="2">  1       -1 0.80619514E-01 0.55213240E+03</pdfrwt>
<totfact> 0.32151474E+01</totfact>
</mgrwt>
</event>
<event>
 4    1  0.2293715E-008  0.4394015E+03  0.7818608E-02  0.1030931E+00
          1   -1    0    0  501    0  0.00000000000E+00  0.00000000000E+00  0.74490339949E+03  0.74490339951E+03  0.50400000000E-02 0. -1.
         -1   -1    0    0    0  501 -0.00000000000E+00 -0.00000000000E+00 -0.34161716785E+03  0.34161716789E+03  0.50400000000E-02 0.  1.
    8880022    1    1    2    0    0 -0.27528943502E+03 -0.30642744662E+03 -0.65205861000E+02  0.44421336134E+03  0.15294330000E+03 0.  0.
    8880022    1    1    2    0    0  0.27528943502E+03  0.30642744662E+03  0.46849209264E+03  0.64230720606E+03  0.15294330000E+03 0.  0.
<mgrwt>
<rscale>  0 0.43940153E+03</rscale>
<asrwt>0</asrwt>
<pdfrwt beam="1">  1        1 0.11460052E+00 0.43940153E+03</pdfrwt>
<pdfrwt beam="2">  1       -1 0.52556488E-01 0.43940153E+03</pdfrwt>
<totfact> 0.94852543E+01</totfact>
</mgrwt>
</event>
<event>
 4    1  0.2293715E-008  0.4622269E+03  0.7818608E-02  0.1024137E+00
          1   -1    0    0  501    0  0.00000000000E+00  0.00000000000E+00  0.88987550182E+03  0.88987550184E+03  0.50400000000E-02 0. -1.
         -1   -1    0    0    0  501 -0.00000000000E+00 -0.00000000000E+00 -0.43094171537E+03  0.43094171540E+03  0.50400000000E-02 0.  1.
    8880022    1    1    2    0    0  0.29598908530E+02  0.43518501701E+03 -0.21002105247E+03  0.50770324985E+03  0.15294330000E+03 0.  0.
    8880022    1    1    2    0    0 -0.29598908530E+02 -0.43518501701E+03  0.66895483893E+03  0.81311396738E+03  0.15294330000E+03 0.  0.
<mgrwt>
<rscale>  0 0.46222694E+03</rscale>
<asrwt>0</asrwt>
<pdfrwt beam="1">  1        1 0.13690392E+00 0.46222694E+03</pdfrwt>
<pdfrwt beam="2">  1       -1 0.66298726E-01 0.46222694E+03</pdfrwt>
<totfact> 0.45398078E+01</totfact>
</mgrwt>
</event>
<event>
 4    1  0.2293715E-008  0.1346335E+04  0.7818608E-02  0.8993607E-01
          1   -1    0    0  501    0  0.00000000000E+00  0.00000000000E+00  0.21960773971E+04  0.21960773972E+04  0.50400000000E-02 0. -1.
         -1   -1    0    0    0  501 -0.00000000000E+00 -0.00000000000E+00 -0.11239674829E+04  0.11239674829E+04  0.50400000000E-02 0.  1.
    8880022    1    1    2    0    0 -0.11713197925E+04 -0.64593855110E+03  0.13916460890E+04  0.19363101916E+04  0.15294330000E+03 0.  0.
    8880022    1    1    2    0    0  0.11713197925E+04  0.64593855110E+03 -0.31953617470E+03  0.13837346885E+04  0.15294330000E+03 0.  0.
<mgrwt>
<rscale>  0 0.13463351E+04</rscale>
<asrwt>0</asrwt>
<pdfrwt beam="1">  1        1 0.33785806E+00 0.13463351E+04</pdfrwt>
<pdfrwt beam="2">  1       -1 0.17291808E+00 0.13463351E+04</pdfrwt>
<totfact> 0.49525700E-01</totfact>
</mgrwt>
</event>
<event>
 4    1  0.2293715E-008  0.8145253E+03  0.7818608E-02  0.9539227E-01
         -1   -1    0    0    0  501 -0.00000000000E+00  0.00000000000E+00  0.31837531020E+03  0.31837531024E+03  0.50400000000E-02 0.  1.
          1   -1    0    0  501    0  0.00000000000E+00 -0.00000000000E+00 -0.31819446824E+04  0.31819446824E+04  0.50400000000E-02 0. -1.
    8880022    1    1    2    0    0 -0.76492861954E+03 -0.23440144466E+03 -0.24599150161E+04  0.25912609613E+04  0.15294330000E+03 0.  0.
    8880022    1    1    2    0    0  0.76492861954E+03  0.23440144466E+03 -0.40365435613E+03  0.90905903135E+03  0.15294330000E+03 0.  0.
<mgrwt>
<rscale>  0 0.81452531E+03</rscale>
<asrwt>0</asrwt>
<pdfrwt beam="1">  1        1 0.48952993E+00 0.81452531E+03</pdfrwt>
<pdfrwt beam="2">  1       -1 0.48980819E-01 0.81452531E+03</pdfrwt>
<totfact> 0.19495838E+00</totfact>
</mgrwt>
</event>
<event>
 4    1  0.2293715E-008  0.8795165E+03  0.7818608E-02  0.9451555E-01
          1   -1    0    0  501    0  0.00000000000E+00  0.00000000000E+00  0.49606111105E+04  0.49606111105E+04  0.50400000000E-02 0. -1.
         -1   -1    0    0    0  501 -0.00000000000E+00 -0.00000000000E+00 -0.24667824892E+03  0.24667824897E+03  0.50400000000E-02 0.  1.
    8880022    1    1    2    0    0 -0.83954462558E+03  0.21289068274E+03  0.39360879336E+04  0.40331547819E+04  0.15294330000E+03 0.  0.
    8880022    1    1    2    0    0  0.83954462558E+03 -0.21289068274E+03  0.77784492798E+03  0.11741345775E+04  0.15294330000E+03 0.  0.
<mgrwt>
<rscale>  0 0.87951650E+03</rscale>
<asrwt>0</asrwt>
<pdfrwt beam="1">  1        1 0.76317094E+00 0.87951650E+03</pdfrwt>
<pdfrwt beam="2">  1       -1 0.37950500E-01 0.87951650E+03</pdfrwt>
<totfact> 0.73263679E-02</totfact>
</mgrwt>
</event>
<event>
 4    1  0.2293715E-008  0.6161359E+03  0.7818608E-02  0.9872483E-01
         -1   -1    0    0    0  501 -0.00000000000E+00  0.00000000000E+00  0.26948034517E+03  0.26948034522E+03  0.50400000000E-02 0.  1.
          1   -1    0    0  501    0  0.00000000000E+00 -0.00000000000E+00 -0.19302654264E+04  0.19302654264E+04  0.50400000000E-02 0. -1.
    8880022    1    1    2    0    0 -0.24291515709E+02  0.59635699070E+03 -0.25867904390E+03  0.66823516733E+03  0.15294330000E+03 0.  0.
    8880022    1    1    2    0    0  0.24291515709E+02 -0.59635699070E+03 -0.14021060373E+04  0.15315106043E+04  0.15294330000E+03 0.  0.
<mgrwt>
<rscale>  0 0.61613585E+03</rscale>
<asrwt>0</asrwt>
<pdfrwt beam="1">  1        1 0.29696390E+00 0.61613585E+03</pdfrwt>
<pdfrwt beam="2">  1       -1 0.41458516E-01 0.61613585E+03</pdfrwt>
<totfact> 0.20121742E+01</totfact>
</mgrwt>
</event>
<event>
 4    1  0.2293715E-008  0.2636204E+03  0.7818608E-02  0.1104987E+00
          1   -1    0    0  501    0  0.00000000000E+00  0.00000000000E+00  0.22401886742E+04  0.22401886742E+04  0.50400000000E-02 0. -1.
         -1   -1    0    0    0  501 -0.00000000000E+00 -0.00000000000E+00 -0.59180326101E+02  0.59180326315E+02  0.50400000000E-02 0.  1.
    8880022    1    1    2    0    0 -0.51531560486E+02 -0.20844316723E+03  0.29747085346E+03  0.39747278820E+03  0.15294330000E+03 0.  0.
    8880022    1    1    2    0    0  0.51531560486E+02  0.20844316723E+03  0.18835374946E+04  0.19018962123E+04  0.15294330000E+03 0.  0.
<mgrwt>
<rscale>  0 0.26362039E+03</rscale>
<asrwt>0</asrwt>
<pdfrwt beam="1">  1        1 0.34464435E+00 0.26362039E+03</pdfrwt>
<pdfrwt beam="2">  1       -1 0.91046671E-02 0.26362039E+03</pdfrwt>
<totfact> 0.16650315E+02</totfact>
</mgrwt>
</event>
<event>
 4    1  0.2293715E-008  0.1160332E+04  0.7818608E-02  0.9148305E-01
         -1   -1    0    0    0  501 -0.00000000000E+00  0.00000000000E+00  0.40632930421E+04  0.40632930421E+04  0.50400000000E-02 0.  1.
          1   -1    0    0  501    0  0.00000000000E+00 -0.00000000000E+00 -0.12164628341E+04  0.12164628341E+04  0.50400000000E-02 0. -1.
    8880022    1    1    2    0    0  0.24295230910E+03  0.11242561409E+04 -0.82840614185E+03  0.14257019617E+04  0.15294330000E+03 0.  0.
    8880022    1    1    2    0    0 -0.24295230910E+03 -0.11242561409E+04  0.36752363499E+04  0.38540539144E+04  0.15294330000E+03 0.  0.
<mgrwt>
<rscale>  0 0.11603316E+04</rscale>
<asrwt>0</asrwt>
<pdfrwt beam="1">  1        1 0.18714813E+00 0.11603316E+04</pdfrwt>
<pdfrwt beam="2">  1       -1 0.62512200E+00 0.11603316E+04</pdfrwt>
<totfact> 0.35469419E-03</totfact>
</mgrwt>
</event>
<event>
 4    1  0.2293715E-008  0.1660069E+03  0.7818608E-02  0.1182077E+00
          1   -1    0    0  501    0  0.00000000000E+00  0.00000000000E+00  0.32742863847E+03  0.32742863851E+03  0.50400000000E-02 0. -1.
         -1   -1    0    0    0  501 -0.00000000000E+00 -0.00000000000E+00 -0.12534055747E+03  0.12534055757E+03  0.50400000000E-02 0.  1.
    8880022    1    1    2    0    0 -0.40348902351E+02 -0.50384401194E+02 -0.28708804290E+02  0.16847097751E+03  0.15294330000E+03 0.  0.
    8880022    1    1    2    0    0  0.40348902351E+02  0.50384401194E+02  0.23079688530E+03  0.28429821857E+03  0.15294330000E+03 0.  0.
<mgrwt>
<rscale>  0 0.16600685E+03</rscale>
<asrwt>0</asrwt>
<pdfrwt beam="1">  1        1 0.50373636E-01 0.16600685E+03</pdfrwt>
<pdfrwt beam="2">  1       -1 0.19283163E-01 0.16600685E+03</pdfrwt>
<totfact> 0.16579529E+03</totfact>
</mgrwt>
</event>
<event>
 4    1  0.2293715E-008  0.7303550E+03  0.7818608E-02  0.9666684E-01
          1   -1    0    0  501    0  0.00000000000E+00  0.00000000000E+00  0.15963058497E+04  0.15963058497E+04  0.50400000000E-02 0. -1.
         -1   -1    0    0    0  501 -0.00000000000E+00 -0.00000000000E+00 -0.41591008815E+03  0.41591008818E+03  0.50400000000E-02 0.  1.
    8880022    1    1    2    0    0 -0.69360685834E+03  0.17010678169E+03  0.14413697112E+03  0.74444201290E+03  0.15294330000E+03 0.  0.
    8880022    1    1    2    0    0  0.69360685834E+03 -0.17010678169E+03  0.10362587905E+04  0.12677739250E+04  0.15294330000E+03 0.  0.
<mgrwt>
<rscale>  0 0.73035501E+03</rscale>
<asrwt>0</asrwt>
<pdfrwt beam="1">  1        1 0.24558551E+00 0.73035501E+03</pdfrwt>
<pdfrwt beam="2">  1       -1 0.63986168E-01 0.73035501E+03</pdfrwt>
<totfact> 0.14468505E+01</totfact>
</mgrwt>
</event>
<event>
 4    1  0.2293715E-008  0.4088293E+03  0.7818608E-02  0.1040765E+00
          1   -1    0    0  501    0  0.00000000000E+00  0.00000000000E+00  0.42533955032E+03  0.42533955035E+03  0.50400000000E-02 0. -1.
         -1   -1    0    0    0  501 -0.00000000000E+00 -0.00000000000E+00 -0.13052612537E+04  0.13052612537E+04  0.50400000000E-02 0.  1.
    8880022    1    1    2    0    0  0.62026203193E+02  0.37403541900E+03  0.28345385941E+03  0.49748114334E+03  0.15294330000E+03 0.  0.
    8880022    1    1    2    0    0 -0.62026203193E+02 -0.37403541900E+03 -0.11633755628E+04  0.12331196607E+04  0.15294330000E+03 0.  0.
<mgrwt>
<rscale>  0 0.40882930E+03</rscale>
<asrwt>0</asrwt>
<pdfrwt beam="1">  1        1 0.65436855E-01 0.40882930E+03</pdfrwt>
<pdfrwt beam="2">  1       -1 0.20080942E+00 0.40882930E+03</pdfrwt>
<totfact> 0.89885516E+00</totfact>
</mgrwt>
</event>
<event>
 4    1  0.2293715E-008  0.4264326E+03  0.7818608E-02  0.1034993E+00
         -1   -1    0    0    0  501 -0.00000000000E+00  0.00000000000E+00  0.16313951086E+03  0.16313951094E+03  0.50400000000E-02 0.  1.
          1   -1    0    0  501    0  0.00000000000E+00 -0.00000000000E+00 -0.19370083231E+04  0.19370083231E+04  0.50400000000E-02 0. -1.
    8880022    1    1    2    0    0 -0.38240584346E+03  0.11053902090E+03 -0.15711336145E+04  0.16279759187E+04  0.15294330000E+03 0.  0.
    8880022    1    1    2    0    0  0.38240584346E+03 -0.11053902090E+03 -0.20273519780E+03  0.47217191540E+03  0.15294330000E+03 0.  1.
<mgrwt>
<rscale>  0 0.42643259E+03</rscale>
<asrwt>0</asrwt>
<pdfrwt beam="1">  1        1 0.29800127E+00 0.42643259E+03</pdfrwt>
<pdfrwt beam="2">  1       -1 0.25098388E-01 0.42643259E+03</pdfrwt>
<totfact> 0.49695453E+01</totfact>
</mgrwt>
</event>
<event>
 4    1  0.2293715E-008  0.2872568E+03  0.7818608E-02  0.1091790E+00
          1   -1    0    0  501    0  0.00000000000E+00  0.00000000000E+00  0.70402798568E+03  0.70402798570E+03  0.50400000000E-02 0. -1.
         -1   -1    0    0    0  501 -0.00000000000E+00 -0.00000000000E+00 -0.12233065386E+03  0.12233065397E+03  0.50400000000E-02 0.  1.
    8880022    1    1    2    0    0  0.23633095215E+03 -0.57205922465E+02  0.20628339624E+03  0.35365142314E+03  0.15294330000E+03 0.  0.
    8880022    1    1    2    0    0 -0.23633095215E+03  0.57205922465E+02  0.37541393557E+03  0.47270721652E+03  0.15294330000E+03 0.  0.
<mgrwt>
<rscale>  0 0.28725684E+03</rscale>
<asrwt>0</asrwt>
<pdfrwt beam="1">  1        1 0.10831200E+00 0.28725684E+03</pdfrwt>
<pdfrwt beam="2">  1       -1 0.18820101E-01 0.28725684E+03</pdfrwt>
<totfact> 0.62477052E+02</totfact>
</mgrwt>
</event>
<event>
 4    1  0.2293715E-008  0.9501921E+03  0.7818608E-02  0.9364926E-01
          1   -1    0    0  501    0  0.00000000000E+00  0.00000000000E+00  0.18237066508E+04  0.18237066508E+04  0.50400000000E-02 0. -1.
         -1   -1    0    0    0  501 -0.00000000000E+00 -0.00000000000E+00 -0.61066774641E+03  0.61066774643E+03  0.50400000000E-02 0.  1.
    8880022    1    1    2    0    0 -0.10169628295E+03 -0.93227208772E+03  0.11360937637E+04  0.14810719336E+04  0.15294330000E+03 0.  0.
    8880022    1    1    2    0    0  0.10169628295E+03  0.93227208772E+03  0.76945140681E+02  0.95330246365E+03  0.15294330000E+03 0.  0.
<mgrwt>
<rscale>  0 0.95019210E+03</rscale>
<asrwt>0</asrwt>
<pdfrwt beam="1">  1        1 0.28057025E+00 0.95019210E+03</pdfrwt>
<pdfrwt beam="2">  1       -1 0.93948884E-01 0.95019210E+03</pdfrwt>
<totfact> 0.43774023E+00</totfact>
</mgrwt>
</event>
<event>
 4    1  0.2293715E-008  0.6412888E+03  0.7818608E-02  0.9823264E-01
          1   -1    0    0  501    0  0.00000000000E+00  0.00000000000E+00  0.46208373044E+03  0.46208373046E+03  0.50400000000E-02 0. -1.
         -1   -1    0    0    0  501 -0.00000000000E+00 -0.00000000000E+00 -0.17876711544E+04  0.17876711544E+04  0.50400000000E-02 0.  1.
    8880022    1    1    2    0    0  0.22658768461E+03 -0.58010147258E+03 -0.14599100044E+04  0.15945496453E+04  0.15294330000E+03 0.  0.
    8880022    1    1    2    0    0 -0.22658768461E+03  0.58010147258E+03  0.13432258046E+03  0.65520523956E+03  0.15294330000E+03 0.  0.
<mgrwt>
<rscale>  0 0.64128882E+03</rscale>
<asrwt>0</asrwt>
<pdfrwt beam="1">  1        1 0.71089806E-01 0.64128882E+03</pdfrwt>
<pdfrwt beam="2">  1       -1 0.27502633E+00 0.64128882E+03</pdfrwt>
<totfact> 0.25268956E+00</totfact>
</mgrwt>
</event>
<event>
 4    1  0.2293715E-008  0.6146592E+03  0.7818608E-02  0.9875451E-01
          1   -1    0    0  501    0  0.00000000000E+00  0.00000000000E+00  0.10524165051E+04  0.10524165051E+04  0.50400000000E-02 0. -1.
         -1   -1    0    0    0  501 -0.00000000000E+00 -0.00000000000E+00 -0.53225484968E+03  0.53225484970E+03  0.50400000000E-02 0.  1.
    8880022    1    1    2    0    0 -0.55397753180E+03  0.21799803823E+03 -0.19198943351E+03  0.64394553030E+03  0.15294330000E+03 0.  0.
    8880022    1    1    2    0    0  0.55397753180E+03 -0.21799803823E+03  0.71215108890E+03  0.94072582448E+03  0.15294330000E+03 0.  0.
<mgrwt>
<rscale>  0 0.61465918E+03</rscale>
<asrwt>0</asrwt>
<pdfrwt beam="1">  1        1 0.16191023E+00 0.61465918E+03</pdfrwt>
<pdfrwt beam="2">  1       -1 0.81885362E-01 0.61465918E+03</pdfrwt>
<totfact> 0.21435502E+01</totfact>
</mgrwt>
</event>
<event>
 4    1  0.2293715E-008  0.4070823E+03  0.7818608E-02  0.1041355E+00
          1   -1    0    0  501    0  0.00000000000E+00  0.00000000000E+00  0.17890564926E+04  0.17890564926E+04  0.50400000000E-02 0. -1.
         -1   -1    0    0    0  501 -0.00000000000E+00 -0.00000000000E+00 -0.18882653346E+03  0.18882653353E+03  0.50400000000E-02 0.  1.
    8880022    1    1    2    0    0 -0.61711422964E+02 -0.37217746346E+03  0.94245805485E+02  0.41784960081E+03  0.15294330000E+03 0.  0.
    8880022    1    1    2    0    0  0.61711422964E+02  0.37217746346E+03  0.15059841537E+04  0.15600334253E+04  0.15294330000E+03 0.  0.
<mgrwt>
<rscale>  0 0.40708232E+03</rscale>
<asrwt>0</asrwt>
<pdfrwt beam="1">  1        1 0.27523946E+00 0.40708232E+03</pdfrwt>
<pdfrwt beam="2">  1       -1 0.29050236E-01 0.40708232E+03</pdfrwt>
<totfact> 0.48696010E+01</totfact>
</mgrwt>
</event>
<event>
 4    1  0.2293715E-008  0.1075520E+04  0.7818608E-02  0.9229386E-01
         -1   -1    0    0    0  501 -0.00000000000E+00  0.00000000000E+00  0.49264391040E+03  0.49264391042E+03  0.50400000000E-02 0.  1.
          1   -1    0    0  501    0  0.00000000000E+00 -0.00000000000E+00 -0.32543006799E+04  0.32543006799E+04  0.50400000000E-02 0. -1.
    8880022    1    1    2    0    0  0.78425791759E+03 -0.71992430264E+03 -0.39216789115E+03  0.11447876618E+04  0.15294330000E+03 0.  0.
    8880022    1    1    2    0    0 -0.78425791759E+03  0.71992430264E+03 -0.23694888783E+04  0.26021569285E+04  0.15294330000E+03 0.  0.
<mgrwt>
<rscale>  0 0.10755199E+04</rscale>
<asrwt>0</asrwt>
<pdfrwt beam="1">  1        1 0.50066163E+00 0.10755199E+04</pdfrwt>
<pdfrwt beam="2">  1       -1 0.75791373E-01 0.10755199E+04</pdfrwt>
<totfact> 0.69077466E-01</totfact>
</mgrwt>
</event>
<event>
 4    1  0.2293715E-008  0.7251135E+03  0.7818608E-02  0.9675223E-01
         -1   -1    0    0    0  501 -0.00000000000E+00  0.00000000000E+00  0.96418665526E+03  0.96418665527E+03  0.50400000000E-02 0.  1.
          1   -1    0    0  501    0  0.00000000000E+00 -0.00000000000E+00 -0.65287431205E+03  0.65287431207E+03  0.50400000000E-02 0. -1.
    8880022    1    1    2    0    0 -0.56287111540E+03 -0.43078308493E+03  0.48382467232E+03  0.87170862413E+03  0.15294330000E+03 0.  0.
    8880022    1    1    2    0    0  0.56287111540E+03  0.43078308493E+03 -0.17251232912E+03  0.74535234321E+03  0.15294330000E+03 0.  0.
<mgrwt>
<rscale>  0 0.72511352E+03</rscale>
<asrwt>0</asrwt>
<pdfrwt beam="1">  1        1 0.10044220E+00 0.72511352E+03</pdfrwt>
<pdfrwt beam="2">  1       -1 0.14833641E+00 0.72511352E+03</pdfrwt>
<totfact> 0.11239659E+01</totfact>
</mgrwt>
</event>
<event>
 4    1  0.2293715E-008  0.7125149E+03  0.7818608E-02  0.9696066E-01
         -1   -1    0    0    0  501 -0.00000000000E+00  0.00000000000E+00  0.86349259929E+03  0.86349259930E+03  0.50400000000E-02 0.  1.
          1   -1    0    0  501    0  0.00000000000E+00 -0.00000000000E+00 -0.73315592232E+03  0.73315592234E+03  0.50400000000E-02 0. -1.
    8880022    1    1    2    0    0 -0.67584623648E+03 -0.16588448020E+03 -0.29013220715E+03  0.76932057478E+03  0.15294330000E+03 0.  0.
    8880022    1    1    2    0    0  0.67584623648E+03  0.16588448020E+03  0.42046888412E+03  0.82732794686E+03  0.15294330000E+03 0.  0.
<mgrwt>
<rscale>  0 0.71251488E+03</rscale>
<asrwt>0</asrwt>
<pdfrwt beam="1">  1        1 0.11279322E+00 0.71251488E+03</pdfrwt>
<pdfrwt beam="2">  1       -1 0.13284502E+00 0.71251488E+03</pdfrwt>
<totfact> 0.12599986E+01</totfact>
</mgrwt>
</event>
<event>
 4    1  0.2293715E-008  0.8703176E+03  0.7818608E-02  0.9463466E-01
         -1   -1    0    0    0  501 -0.00000000000E+00  0.00000000000E+00  0.53757034699E+03  0.53757034702E+03  0.50400000000E-02 0.  1.
          1   -1    0    0  501    0  0.00000000000E+00 -0.00000000000E+00 -0.15424962383E+04  0.15424962383E+04  0.50400000000E-02 0. -1.
    8880022    1    1    2    0    0 -0.22070795017E+03 -0.82785817030E+03 -0.19653389118E+03  0.89223224152E+03  0.15294330000E+03 0.  0.
    8880022    1    1    2    0    0  0.22070795017E+03  0.82785817030E+03 -0.80839200009E+03  0.11878343438E+04  0.15294330000E+03 0.  0.
<mgrwt>
<rscale>  0 0.87031764E+03</rscale>
<asrwt>0</asrwt>
<pdfrwt beam="1">  1        1 0.23730711E+00 0.87031764E+03</pdfrwt>
<pdfrwt beam="2">  1       -1 0.82703131E-01 0.87031764E+03</pdfrwt>
<totfact> 0.90758018E+00</totfact>
</mgrwt>
</event>
<event>
 4    1  0.4227195E-008  0.5545689E+03  0.7818608E-02  0.1000442E+00
          1   -1    0    0  501    0  0.00000000000E+00  0.00000000000E+00  0.19973645805E+04  0.19973645805E+04  0.50400000000E-02 0. -1.
         -1   -1    0    0    0  501 -0.00000000000E+00 -0.00000000000E+00 -0.13993789063E+04  0.13993789063E+04  0.50400000000E-02 0.  1.
    8880022    1    1    2    0    0  0.36423348504E+03 -0.38921582697E+03  0.19012048862E+04  0.19804359782E+04  0.15294330000E+03 0.  0.
    8880022    1    1    2    0    0 -0.36423348504E+03  0.38921582697E+03 -0.13032192119E+04  0.14163075086E+04  0.15294330000E+03 0.  0.
<mgrwt>
<rscale>  0 0.55456888E+03</rscale>
<asrwt>0</asrwt>
<pdfrwt beam="1">  1        1 0.30728686E+00 0.55456888E+03</pdfrwt>
<pdfrwt beam="2">  1       -1 0.21528906E+00 0.55456888E+03</pdfrwt>
<totfact> 0.39948626E-01</totfact>
</mgrwt>
</event>
<event>
 4    1  0.2293715E-008  0.6353168E+03  0.7818608E-02  0.9834728E-01
          1   -1    0    0  501    0  0.00000000000E+00  0.00000000000E+00  0.38063395435E+03  0.38063395438E+03  0.50400000000E-02 0. -1.
         -1   -1    0    0    0  501 -0.00000000000E+00 -0.00000000000E+00 -0.13242585292E+04  0.13242585292E+04  0.50400000000E-02 0.  1.
    8880022    1    1    2    0    0 -0.41623161601E+03  0.45495821297E+03 -0.91308146643E+02  0.64184465751E+03  0.15294330000E+03 0.  0.
    8880022    1    1    2    0    0  0.41623161601E+03 -0.45495821297E+03 -0.85231642816E+03  0.10630478260E+04  0.15294330000E+03 0.  0.
<mgrwt>
<rscale>  0 0.63531676E+03</rscale>
<asrwt>0</asrwt>
<pdfrwt beam="1">  1        1 0.58559070E-01 0.63531676E+03</pdfrwt>
<pdfrwt beam="2">  1       -1 0.20373208E+00 0.63531676E+03</pdfrwt>
<totfact> 0.95293194E+00</totfact>
</mgrwt>
</event>
<event>
 4    1  0.2293715E-008  0.3528686E+03  0.7818608E-02  0.1061444E+00
          1   -1    0    0  501    0  0.00000000000E+00  0.00000000000E+00  0.16825326458E+04  0.16825326458E+04  0.50400000000E-02 0. -1.
         -1   -1    0    0    0  501 -0.00000000000E+00 -0.00000000000E+00 -0.15664773961E+03  0.15664773969E+03  0.50400000000E-02 0.  1.
    8880022    1    1    2    0    0 -0.27388049494E+02  0.31681937816E+03  0.14308770170E+04  0.14737453356E+04  0.15294330000E+03 0.  0.
    8880022    1    1    2    0    0  0.27388049494E+02 -0.31681937816E+03  0.95007889214E+02  0.36543504985E+03  0.15294330000E+03 0.  0.
<mgrwt>
<rscale>  0 0.35286864E+03</rscale>
<asrwt>0</asrwt>
<pdfrwt beam="1">  1        1 0.25885115E+00 0.35286864E+03</pdfrwt>
<pdfrwt beam="2">  1       -1 0.24099654E-01 0.35286864E+03</pdfrwt>
<totfact> 0.79484726E+01</totfact>
</mgrwt>
</event>
<event>
 4    1  0.2293715E-008  0.6377720E+03  0.7818608E-02  0.9829999E-01
          1   -1    0    0  501    0  0.00000000000E+00  0.00000000000E+00  0.29079252210E+04  0.29079252210E+04  0.50400000000E-02 0. -1.
         -1   -1    0    0    0  501 -0.00000000000E+00 -0.00000000000E+00 -0.18119402426E+03  0.18119402433E+03  0.50400000000E-02 0.  1.
    8880022    1    1    2    0    0 -0.61024282848E+03 -0.10471489725E+03  0.62580980121E+03  0.89352732455E+03  0.15294330000E+03 0.  0.
    8880022    1    1    2    0    0  0.61024282848E+03  0.10471489725E+03  0.21009213956E+04  0.21955919208E+04  0.15294330000E+03 0.  0.
<mgrwt>
<rscale>  0 0.63777204E+03</rscale>
<asrwt>0</asrwt>
<pdfrwt beam="1">  1        1 0.44737312E+00 0.63777204E+03</pdfrwt>
<pdfrwt beam="2">  1       -1 0.27876003E-01 0.63777204E+03</pdfrwt>
<totfact> 0.87676813E+00</totfact>
</mgrwt>
</event>
<event>
 4    1  0.2293715E-008  0.4610988E+03  0.7818608E-02  0.1024463E+00
          1   -1    0    0  501    0  0.00000000000E+00  0.00000000000E+00  0.82138597054E+03  0.82138597055E+03  0.50400000000E-02 0. -1.
         -1   -1    0    0    0  501 -0.00000000000E+00 -0.00000000000E+00 -0.38009903996E+03  0.38009904000E+03  0.50400000000E-02 0.  1.
    8880022    1    1    2    0    0  0.26910880031E+03 -0.34176146604E+03  0.55994600312E+03  0.72536309908E+03  0.15294330000E+03 0.  0.
    8880022    1    1    2    0    0 -0.26910880031E+03  0.34176146604E+03 -0.11865907255E+03  0.47612191148E+03  0.15294330000E+03 0.  0.
<mgrwt>
<rscale>  0 0.46109880E+03</rscale>
<asrwt>0</asrwt>
<pdfrwt beam="1">  1        1 0.12636707E+00 0.46109880E+03</pdfrwt>
<pdfrwt beam="2">  1       -1 0.58476776E-01 0.46109880E+03</pdfrwt>
<totfact> 0.66204056E+01</totfact>
</mgrwt>
</event>
<event>
 4    1  0.2293715E-008  0.2623458E+03  0.7818608E-02  0.1105742E+00
         -1   -1    0    0    0  501 -0.00000000000E+00  0.00000000000E+00  0.20736846646E+03  0.20736846652E+03  0.50400000000E-02 0.  1.
          1   -1    0    0  501    0  0.00000000000E+00 -0.00000000000E+00 -0.11289599464E+04  0.11289599464E+04  0.50400000000E-02 0. -1.
    8880022    1    1    2    0    0 -0.13236488708E+03  0.16707244330E+03  0.10062673658E+03  0.28098230865E+03  0.15294330000E+03 0.  1.
    8880022    1    1    2    0    0  0.13236488708E+03 -0.16707244330E+03 -0.10222182165E+04  0.10553461043E+04  0.15294330000E+03 0.  0.
<mgrwt>
<rscale>  0 0.26234580E+03</rscale>
<asrwt>0</asrwt>
<pdfrwt beam="1">  1        1 0.17368614E+00 0.26234580E+03</pdfrwt>
<pdfrwt beam="2">  1       -1 0.31902842E-01 0.26234580E+03</pdfrwt>
<totfact> 0.11980191E+02</totfact>
</mgrwt>
</event>
<event>
 4    1  0.2293715E-008  0.2746517E+03  0.7818608E-02  0.1098646E+00
          1   -1    0    0  501    0  0.00000000000E+00  0.00000000000E+00  0.29626477449E+04  0.29626477449E+04  0.50400000000E-02 0. -1.
         -1   -1    0    0    0  501 -0.00000000000E+00 -0.00000000000E+00 -0.94502137028E+02  0.94502137162E+02  0.50400000000E-02 0.  1.
    8880022    1    1    2    0    0  0.11070722143E+03  0.19946386344E+03  0.27405992031E+04  0.27543270624E+04  0.15294330000E+03 0.  0.
    8880022    1    1    2    0    0 -0.11070722143E+03 -0.19946386344E+03  0.12754640470E+03  0.30282281959E+03  0.15294330000E+03 0.  0.
<mgrwt>
<rscale>  0 0.27465173E+03</rscale>
<asrwt>0</asrwt>
<pdfrwt beam="1">  1        1 0.45579202E+00 0.27465173E+03</pdfrwt>
<pdfrwt beam="2">  1       -1 0.14538788E-01 0.27465173E+03</pdfrwt>
<totfact> 0.26053635E+01</totfact>
</mgrwt>
</event>
<event>
 4    1  0.2293715E-008  0.3242648E+03  0.7818608E-02  0.1073703E+00
          1   -1    0    0  501    0  0.00000000000E+00  0.00000000000E+00  0.93624785296E+03  0.93624785297E+03  0.50400000000E-02 0. -1.
         -1   -1    0    0    0  501 -0.00000000000E+00 -0.00000000000E+00 -0.13313575807E+03  0.13313575817E+03  0.50400000000E-02 0.  1.
    8880022    1    1    2    0    0  0.22270401810E+03  0.17932914422E+03  0.19006965179E+03  0.37586453303E+03  0.15294330000E+03 0.  0.
    8880022    1    1    2    0    0 -0.22270401810E+03 -0.17932914422E+03  0.61304244310E+03  0.69351907811E+03  0.15294330000E+03 0.  0.
<mgrwt>
<rscale>  0 0.32426482E+03</rscale>
<asrwt>0</asrwt>
<pdfrwt beam="1">  1        1 0.14403814E+00 0.32426482E+03</pdfrwt>
<pdfrwt beam="2">  1       -1 0.20482424E-01 0.32426482E+03</pdfrwt>
<totfact> 0.34723243E+02</totfact>
</mgrwt>
</event>
<event>
 4    1  0.2293715E-008  0.4631500E+03  0.7818608E-02  0.1023872E+00
          1   -1    0    0  501    0  0.00000000000E+00  0.00000000000E+00  0.13004262789E+04  0.13004262789E+04  0.50400000000E-02 0. -1.
         -1   -1    0    0    0  501 -0.00000000000E+00 -0.00000000000E+00 -0.84816493040E+03  0.84816493041E+03  0.50400000000E-02 0.  1.
    8880022    1    1    2    0    0 -0.35015149899E+03 -0.26174455882E+03  0.11903185718E+04  0.12772494830E+04  0.15294330000E+03 0.  0.
    8880022    1    1    2    0    0  0.35015149899E+03  0.26174455882E+03 -0.73805722328E+03  0.87134172640E+03  0.15294330000E+03 0.  1.
<mgrwt>
<rscale>  0 0.46315002E+03</rscale>
<asrwt>0</asrwt>
<pdfrwt beam="1">  1        1 0.20006558E+00 0.46315002E+03</pdfrwt>
<pdfrwt beam="2">  1       -1 0.13048691E+00 0.46315002E+03</pdfrwt>
<totfact> 0.50137697E+00</totfact>
</mgrwt>
</event>
<event>
 4    1  0.2293715E-008  0.5032221E+03  0.7818608E-02  0.1012941E+00
         -1   -1    0    0    0  501 -0.00000000000E+00  0.00000000000E+00  0.58232889298E+03  0.58232889300E+03  0.50400000000E-02 0.  1.
          1   -1    0    0  501    0  0.00000000000E+00 -0.00000000000E+00 -0.84314667494E+03  0.84314667495E+03  0.50400000000E-02 0. -1.
    8880022    1    1    2    0    0 -0.50876689689E+02  0.47670997508E+03  0.36556630016E+03  0.62198971914E+03  0.15294330000E+03 0.  0.
    8880022    1    1    2    0    0  0.50876689689E+02 -0.47670997508E+03 -0.62638408212E+03  0.80348584881E+03  0.15294330000E+03 0.  0.
<mgrwt>
<rscale>  0 0.50322211E+03</rscale>
<asrwt>0</asrwt>
<pdfrwt beam="1">  1        1 0.12971487E+00 0.50322211E+03</pdfrwt>
<pdfrwt beam="2">  1       -1 0.89589060E-01 0.50322211E+03</pdfrwt>
<totfact> 0.26288972E+01</totfact>
</mgrwt>
</event>
<event>
 4    1  0.2293715E-008  0.2877240E+03  0.7818608E-02  0.1091543E+00
          1   -1    0    0  501    0  0.00000000000E+00  0.00000000000E+00  0.34585300812E+03  0.34585300816E+03  0.50400000000E-02 0. -1.
         -1   -1    0    0    0  501 -0.00000000000E+00 -0.00000000000E+00 -0.73410505451E+03  0.73410505452E+03  0.50400000000E-02 0.  1.
    8880022    1    1    2    0    0  0.12088015145E+03 -0.21161625350E+03  0.24916233700E+03  0.38061394214E+03  0.15294330000E+03 0.  0.
    8880022    1    1    2    0    0 -0.12088015145E+03  0.21161625350E+03 -0.63741438339E+03  0.69934412053E+03  0.15294330000E+03 0.  0.
<mgrwt>
<rscale>  0 0.28772400E+03</rscale>
<asrwt>0</asrwt>
<pdfrwt beam="1">  1        1 0.53208155E-01 0.28772400E+03</pdfrwt>
<pdfrwt beam="2">  1       -1 0.11293924E+00 0.28772400E+03</pdfrwt>
<totfact> 0.56236810E+01</totfact>
</mgrwt>
</event>
<event>
 4    1  0.2293715E-008  0.5094445E+03  0.7818608E-02  0.1011343E+00
          1   -1    0    0  501    0  0.00000000000E+00  0.00000000000E+00  0.52807849886E+03  0.52807849889E+03  0.50400000000E-02 0. -1.
         -1   -1    0    0    0  501 -0.00000000000E+00 -0.00000000000E+00 -0.10802522476E+04  0.10802522476E+04  0.50400000000E-02 0.  1.
    8880022    1    1    2    0    0 -0.23522156679E+03 -0.42522094283E+03 -0.86977842368E+03  0.10079921602E+04  0.15294330000E+03 0.  0.
    8880022    1    1    2    0    0  0.23522156679E+03  0.42522094283E+03  0.31760467491E+03  0.60033858634E+03  0.15294330000E+03 0.  0.
<mgrwt>
<rscale>  0 0.50944449E+03</rscale>
<asrwt>0</asrwt>
<pdfrwt beam="1">  1        1 0.81242846E-01 0.50944449E+03</pdfrwt>
<pdfrwt beam="2">  1       -1 0.16619265E+00 0.50944449E+03</pdfrwt>
<totfact> 0.11512145E+01</totfact>
</mgrwt>
</event>
<event>
 4    1  0.2293715E-008  0.1066951E+04  0.7818608E-02  0.9238016E-01
         -1   -1    0    0    0  501 -0.00000000000E+00  0.00000000000E+00  0.69107291324E+03  0.69107291326E+03  0.50400000000E-02 0.  1.
          1   -1    0    0  501    0  0.00000000000E+00 -0.00000000000E+00 -0.21016923968E+04  0.21016923968E+04  0.50400000000E-02 0. -1.
    8880022    1    1    2    0    0  0.84460249978E+03  0.63374963081E+03 -0.13546162650E+04  0.17243459211E+04  0.15294330000E+03 0.  0.
    8880022    1    1    2    0    0 -0.84460249978E+03 -0.63374963081E+03 -0.56003218557E+02  0.10684193890E+04  0.15294330000E+03 0.  0.
<mgrwt>
<rscale>  0 0.10669506E+04</rscale>
<asrwt>0</asrwt>
<pdfrwt beam="1">  1        1 0.32333729E+00 0.10669506E+04</pdfrwt>
<pdfrwt beam="2">  1       -1 0.10631891E+00 0.10669506E+04</pdfrwt>
<totfact> 0.21080284E+00</totfact>
</mgrwt>
</event>
<event>
 4    1  0.2293715E-008  0.3474946E+03  0.7818608E-02  0.1063648E+00
          1   -1    0    0  501    0  0.00000000000E+00  0.00000000000E+00  0.11068966642E+04  0.11068966642E+04  0.50400000000E-02 0. -1.
         -1   -1    0    0    0  501 -0.00000000000E+00 -0.00000000000E+00 -0.27911103065E+03  0.27911103069E+03  0.50400000000E-02 0.  1.
    8880022    1    1    2    0    0 -0.27392965480E+03  0.14941010992E+03  0.95476813154E+03  0.10160387171E+04  0.15294330000E+03 0.  0.
    8880022    1    1    2    0    0  0.27392965480E+03 -0.14941010992E+03 -0.12698249796E+03  0.36996897779E+03  0.15294330000E+03 0.  1.
<mgrwt>
<rscale>  0 0.34749459E+03</rscale>
<asrwt>0</asrwt>
<pdfrwt beam="1">  1        1 0.17029180E+00 0.34749459E+03</pdfrwt>
<pdfrwt beam="2">  1       -1 0.42940158E-01 0.34749459E+03</pdfrwt>
<totfact> 0.72236486E+01</totfact>
</mgrwt>
</event>
<event>
 4    1  0.2293715E-008  0.4673271E+03  0.7818608E-02  0.1022677E+00
          1   -1    0    0  501    0  0.00000000000E+00  0.00000000000E+00  0.10899532036E+04  0.10899532037E+04  0.50400000000E-02 0. -1.
         -1   -1    0    0    0  501 -0.00000000000E+00 -0.00000000000E+00 -0.33435574820E+03  0.33435574824E+03  0.50400000000E-02 0.  1.
    8880022    1    1    2    0    0 -0.44827239983E+02 -0.43931026284E+03  0.82861340438E+03  0.95131215456E+03  0.15294330000E+03 0.  0.
    8880022    1    1    2    0    0  0.44827239983E+02  0.43931026284E+03 -0.73015948942E+02  0.47299679734E+03  0.15294330000E+03 0.  0.
<mgrwt>
<rscale>  0 0.46732712E+03</rscale>
<asrwt>0</asrwt>
<pdfrwt beam="1">  1        1 0.16768511E+00 0.46732712E+03</pdfrwt>
<pdfrwt beam="2">  1       -1 0.51439346E-01 0.46732712E+03</pdfrwt>
<totfact> 0.52087029E+01</totfact>
</mgrwt>
</event>
<event>
 4    1  0.2293715E-008  0.7164929E+03  0.7818608E-02  0.9689435E-01
          1   -1    0    0  501    0  0.00000000000E+00  0.00000000000E+00  0.23827790220E+04  0.23827790220E+04  0.50400000000E-02 0. -1.
         -1   -1    0    0    0  501 -0.00000000000E+00 -0.00000000000E+00 -0.44430815541E+03  0.44430815544E+03  0.50400000000E-02 0.  1.
    8880022    1    1    2    0    0 -0.97344119459E+02  0.69317718323E+03  0.19837383186E+04  0.21091656774E+04  0.15294330000E+03 0.  0.
    8880022    1    1    2    0    0  0.97344119459E+02 -0.69317718323E+03 -0.45267452069E+02  0.71792150001E+03  0.15294330000E+03 0.  1.
<mgrwt>
<rscale>  0 0.71649294E+03</rscale>
<asrwt>0</asrwt>
<pdfrwt beam="1">  1        1 0.36658139E+00 0.71649294E+03</pdfrwt>
<pdfrwt beam="2">  1       -1 0.68355100E-01 0.71649294E+03</pdfrwt>
<totfact> 0.37672851E+00</totfact>
</mgrwt>
</event>
<event>
 4    1  0.2293715E-008  0.3237903E+03  0.7818608E-02  0.1073918E+00
         -1   -1    0    0    0  501 -0.00000000000E+00  0.00000000000E+00  0.13346371139E+04  0.13346371139E+04  0.50400000000E-02 0.  1.
          1   -1    0    0  501    0  0.00000000000E+00 -0.00000000000E+00 -0.54218009419E+03  0.54218009421E+03  0.50400000000E-02 0. -1.
    8880022    1    1    2    0    0  0.23297661996E+02 -0.28443930687E+03 -0.47154114452E+03  0.57200629747E+03  0.15294330000E+03 0.  0.
    8880022    1    1    2    0    0 -0.23297661996E+02  0.28443930687E+03  0.12639981642E+04  0.13048109106E+04  0.15294330000E+03 0.  0.
<mgrwt>
<rscale>  0 0.32379029E+03</rscale>
<asrwt>0</asrwt>
<pdfrwt beam="1">  1        1 0.83412322E-01 0.32379029E+03</pdfrwt>
<pdfrwt beam="2">  1       -1 0.20532879E+00 0.32379029E+03</pdfrwt>
<totfact> 0.62073070E+00</totfact>
</mgrwt>
</event>
<event>
 4    1  0.2293715E-008  0.5133098E+03  0.7818608E-02  0.1010362E+00
         -1   -1    0    0    0  501 -0.00000000000E+00  0.00000000000E+00  0.33682542823E+03  0.33682542827E+03  0.50400000000E-02 0.  1.
          1   -1    0    0  501    0  0.00000000000E+00 -0.00000000000E+00 -0.98783918915E+03  0.98783918916E+03  0.50400000000E-02 0. -1.
    8880022    1    1    2    0    0 -0.48428567562E+03  0.74583591381E+02 -0.23361217746E+02  0.51384114979E+03  0.15294330000E+03 0.  0.
    8880022    1    1    2    0    0  0.48428567562E+03 -0.74583591381E+02 -0.62765254317E+03  0.81082346764E+03  0.15294330000E+03 0.  0.
<mgrwt>
<rscale>  0 0.51330983E+03</rscale>
<asrwt>0</asrwt>
<pdfrwt beam="1">  1        1 0.15197526E+00 0.51330983E+03</pdfrwt>
<pdfrwt beam="2">  1       -1 0.51819297E-01 0.51330983E+03</pdfrwt>
<totfact> 0.60907099E+01</totfact>
</mgrwt>
</event>
<event>
 4    1  0.2293715E-008  0.3958787E+03  0.7818608E-02  0.1045216E+00
          1   -1    0    0  501    0  0.00000000000E+00  0.00000000000E+00  0.10391855782E+04  0.10391855782E+04  0.50400000000E-02 0. -1.
         -1   -1    0    0    0  501 -0.00000000000E+00 -0.00000000000E+00 -0.39589449270E+03  0.39589449273E+03  0.50400000000E-02 0.  1.
    8880022    1    1    2    0    0  0.19326110397E+03  0.30980388272E+03 -0.24291952579E+03  0.46446727450E+03  0.15294330000E+03 0.  0.
    8880022    1    1    2    0    0 -0.19326110397E+03 -0.30980388272E+03  0.88621061126E+03  0.97061279642E+03  0.15294330000E+03 0.  0.
<mgrwt>
<rscale>  0 0.39587871E+03</rscale>
<asrwt>0</asrwt>
<pdfrwt beam="1">  1        1 0.15987470E+00 0.39587871E+03</pdfrwt>
<pdfrwt beam="2">  1       -1 0.60906845E-01 0.39587871E+03</pdfrwt>
<totfact> 0.41615249E+01</totfact>
</mgrwt>
</event>
<event>
 4    1  0.2293715E-008  0.8240495E+03  0.7818608E-02  0.9525844E-01
          1   -1    0    0  501    0  0.00000000000E+00  0.00000000000E+00  0.48767803376E+03  0.48767803378E+03  0.50400000000E-02 0. -1.
         -1   -1    0    0    0  501 -0.00000000000E+00 -0.00000000000E+00 -0.18629849625E+04  0.18629849626E+04  0.50400000000E-02 0.  1.
    8880022    1    1    2    0    0  0.47460646786E+03 -0.65605996345E+03 -0.12783450461E+04  0.15209285601E+04  0.15294330000E+03 0.  1.
    8880022    1    1    2    0    0 -0.47460646786E+03  0.65605996345E+03 -0.96961882675E+02  0.82973443624E+03  0.15294330000E+03 0.  0.
<mgrwt>
<rscale>  0 0.82404953E+03</rscale>
<asrwt>0</asrwt>
<pdfrwt beam="1">  1        1 0.75027391E-01 0.82404953E+03</pdfrwt>
<pdfrwt beam="2">  1       -1 0.28661307E+00 0.82404953E+03</pdfrwt>
<totfact> 0.19196987E+00</totfact>
</mgrwt>
</event>
<event>
 4    1  0.2293715E-008  0.6006233E+03  0.7818608E-02  0.9904114E-01
          1   -1    0    0  501    0  0.00000000000E+00  0.00000000000E+00  0.12107249160E+04  0.12107249160E+04  0.50400000000E-02 0. -1.
         -1   -1    0    0    0  501 -0.00000000000E+00 -0.00000000000E+00 -0.79443207132E+03  0.79443207133E+03  0.50400000000E-02 0.  1.
    8880022    1    1    2    0    0 -0.37048927846E+03  0.44731909954E+03  0.10007155368E+04  0.11671246381E+04  0.15294330000E+03 0.  0.
    8880022    1    1    2    0    0  0.37048927846E+03 -0.44731909954E+03 -0.58442269213E+03  0.83803234923E+03  0.15294330000E+03 0.  1.
<mgrwt>
<rscale>  0 0.60062329E+03</rscale>
<asrwt>0</asrwt>
<pdfrwt beam="1">  1        1 0.18626537E+00 0.60062329E+03</pdfrwt>
<pdfrwt beam="2">  1       -1 0.12222032E+00 0.60062329E+03</pdfrwt>
<totfact> 0.66080296E+00</totfact>
</mgrwt>
</event>
<event>
 4    1  0.2293715E-008  0.7403407E+03  0.7818608E-02  0.9650627E-01
         -1   -1    0    0    0  501 -0.00000000000E+00  0.00000000000E+00  0.27122874726E+04  0.27122874726E+04  0.50400000000E-02 0.  1.
          1   -1    0    0  501    0  0.00000000000E+00 -0.00000000000E+00 -0.32549625693E+03  0.32549625697E+03  0.50400000000E-02 0. -1.
    8880022    1    1    2    0    0  0.14930987483E+03  0.70881541413E+03  0.25812651231E+03  0.78404953887E+03  0.15294330000E+03 0.  0.
    8880022    1    1    2    0    0 -0.14930987483E+03 -0.70881541413E+03  0.21286647034E+04  0.22537341907E+04  0.15294330000E+03 0.  0.
<mgrwt>
<rscale>  0 0.74034072E+03</rscale>
<asrwt>0</asrwt>
<pdfrwt beam="1">  1        1 0.50076349E-01 0.74034072E+03</pdfrwt>
<pdfrwt beam="2">  1       -1 0.41727498E+00 0.74034072E+03</pdfrwt>
<totfact> 0.46046264E-01</totfact>
</mgrwt>
</event>
<event>
 4    1  0.2293715E-008  0.7196281E+03  0.7818608E-02  0.9684242E-01
         -1   -1    0    0    0  501 -0.00000000000E+00  0.00000000000E+00  0.10525279865E+04  0.10525279865E+04  0.50400000000E-02 0.  1.
          1   -1    0    0  501    0  0.00000000000E+00 -0.00000000000E+00 -0.10646885979E+04  0.10646885979E+04  0.50400000000E-02 0. -1.
    8880022    1    1    2    0    0  0.68591682958E+03  0.15489029065E+03 -0.78246286560E+03  0.10630675841E+04  0.15294330000E+03 0.  0.
    8880022    1    1    2    0    0 -0.68591682958E+03 -0.15489029065E+03  0.77030225416E+03  0.10541490004E+04  0.15294330000E+03 0.  0.
<mgrwt>
<rscale>  0 0.71962807E+03</rscale>
<asrwt>0</asrwt>
<pdfrwt beam="1">  1        1 0.16379824E+00 0.71962807E+03</pdfrwt>
<pdfrwt beam="2">  1       -1 0.16192738E+00 0.71962807E+03</pdfrwt>
<totfact> 0.39780498E+00</totfact>
</mgrwt>
</event>
<event>
 4    1  0.2293715E-008  0.3355466E+03  0.7818608E-02  0.1068709E+00
          1   -1    0    0  501    0  0.00000000000E+00  0.00000000000E+00  0.17124550418E+04  0.17124550418E+04  0.50400000000E-02 0. -1.
         -1   -1    0    0    0  501 -0.00000000000E+00 -0.00000000000E+00 -0.70201354817E+02  0.70201354998E+02  0.50400000000E-02 0.  1.
    8880022    1    1    2    0    0  0.40638917915E+02  0.29588572178E+03  0.10456074938E+04  0.10981286655E+04  0.15294330000E+03 0.  0.
    8880022    1    1    2    0    0 -0.40638917915E+02 -0.29588572178E+03  0.59664619322E+03  0.68452773129E+03  0.15294330000E+03 0.  0.
<mgrwt>
<rscale>  0 0.33554662E+03</rscale>
<asrwt>0</asrwt>
<pdfrwt beam="1">  1        1 0.26345461E+00 0.33554662E+03</pdfrwt>
<pdfrwt beam="2">  1       -1 0.10800209E-01 0.33554662E+03</pdfrwt>
<totfact> 0.27824398E+02</totfact>
</mgrwt>
</event>
<event>
 4    1  0.2293715E-008  0.2521754E+03  0.7818608E-02  0.1111938E+00
         -1   -1    0    0    0  501 -0.00000000000E+00  0.00000000000E+00  0.21623916458E+04  0.21623916458E+04  0.50400000000E-02 0.  1.
          1   -1    0    0  501    0  0.00000000000E+00 -0.00000000000E+00 -0.14171056598E+04  0.14171056598E+04  0.50400000000E-02 0. -1.
    8880022    1    1    2    0    0  0.19333063340E+03 -0.53141566110E+02  0.21437234791E+04  0.21585047528E+04  0.15294330000E+03 0.  0.
    8880022    1    1    2    0    0 -0.19333063340E+03  0.53141566110E+02 -0.13984374932E+04  0.14209925528E+04  0.15294330000E+03 0. -1.
<mgrwt>
<rscale>  0 0.25217536E+03</rscale>
<asrwt>0</asrwt>
<pdfrwt beam="1">  1        1 0.21801626E+00 0.25217536E+03</pdfrwt>
<pdfrwt beam="2">  1       -1 0.33267564E+00 0.25217536E+03</pdfrwt>
<totfact> 0.20284255E-01</totfact>
</mgrwt>
</event>
<event>
 4    1  0.2293715E-008  0.4067718E+03  0.7818608E-02  0.1041460E+00
          1   -1    0    0  501    0  0.00000000000E+00  0.00000000000E+00  0.59876036466E+03  0.59876036468E+03  0.50400000000E-02 0. -1.
         -1   -1    0    0    0  501 -0.00000000000E+00 -0.00000000000E+00 -0.42688263140E+03  0.42688263143E+03  0.50400000000E-02 0.  1.
    8880022    1    1    2    0    0 -0.10126121622E+03  0.36306721202E+03 -0.21859618009E+03  0.46178737241E+03  0.15294330000E+03 0. -1.
    8880022    1    1    2    0    0  0.10126121622E+03 -0.36306721202E+03  0.39047391335E+03  0.56385562370E+03  0.15294330000E+03 0.  0.
<mgrwt>
<rscale>  0 0.40677179E+03</rscale>
<asrwt>0</asrwt>
<pdfrwt beam="1">  1        1 0.92116979E-01 0.40677179E+03</pdfrwt>
<pdfrwt beam="2">  1       -1 0.65674251E-01 0.40677179E+03</pdfrwt>
<totfact> 0.85126321E+01</totfact>
</mgrwt>
</event>
<event>
 4    1  0.2293715E-008  0.5729965E+03  0.7818608E-02  0.9963070E-01
         -1   -1    0    0    0  501 -0.00000000000E+00  0.00000000000E+00  0.20943200396E+03  0.20943200402E+03  0.50400000000E-02 0.  1.
          1   -1    0    0  501    0  0.00000000000E+00 -0.00000000000E+00 -0.29239432182E+04  0.29239432182E+04  0.50400000000E-02 0. -1.
    8880022    1    1    2    0    0 -0.53862408669E+03  0.12172700919E+03 -0.29024705606E+03  0.64231485900E+03  0.15294330000E+03 0.  0.
    8880022    1    1    2    0    0  0.53862408669E+03 -0.12172700919E+03 -0.24242641582E+04  0.24910603632E+04  0.15294330000E+03 0.  0.
<mgrwt>
<rscale>  0 0.57299653E+03</rscale>
<asrwt>0</asrwt>
<pdfrwt beam="1">  1        1 0.44983739E+00 0.57299653E+03</pdfrwt>
<pdfrwt beam="2">  1       -1 0.32220310E-01 0.57299653E+03</pdfrwt>
<totfact> 0.67372624E+00</totfact>
</mgrwt>
</event>
<event>
 4    1  0.2293715E-008  0.6848283E+03  0.7818608E-02  0.9743535E-01
          1   -1    0    0  501    0  0.00000000000E+00  0.00000000000E+00  0.73472617785E+03  0.73472617787E+03  0.50400000000E-02 0. -1.
         -1   -1    0    0    0  501 -0.00000000000E+00 -0.00000000000E+00 -0.15878242938E+04  0.15878242938E+04  0.50400000000E-02 0.  1.
    8880022    1    1    2    0    0  0.21044858935E+02 -0.66719958910E+03 -0.13245619916E+04  0.14911251793E+04  0.15294330000E+03 0.  0.
    8880022    1    1    2    0    0 -0.21044858935E+02  0.66719958910E+03  0.47146387562E+03  0.83142529239E+03  0.15294330000E+03 0.  0.
<mgrwt>
<rscale>  0 0.68482832E+03</rscale>
<asrwt>0</asrwt>
<pdfrwt beam="1">  1        1 0.11303480E+00 0.68482832E+03</pdfrwt>
<pdfrwt beam="2">  1       -1 0.24428066E+00 0.68482832E+03</pdfrwt>
<totfact> 0.20336834E+00</totfact>
</mgrwt>
</event>
<event>
 4    1  0.2293715E-008  0.9894036E+03  0.7818608E-02  0.9320244E-01
         -1   -1    0    0    0  501 -0.00000000000E+00  0.00000000000E+00  0.80661740053E+03  0.80661740055E+03  0.50400000000E-02 0.  1.
          1   -1    0    0  501    0  0.00000000000E+00 -0.00000000000E+00 -0.32143686509E+04  0.32143686509E+04  0.50400000000E-02 0. -1.
    8880022    1    1    2    0    0 -0.96810818008E+03 -0.13525650691E+03 -0.27900539686E+04  0.29602906228E+04  0.15294330000E+03 0.  0.
    8880022    1    1    2    0    0  0.96810818008E+03  0.13525650691E+03  0.38230271819E+03  0.10606954286E+04  0.15294330000E+03 0.  0.
<mgrwt>
<rscale>  0 0.98940357E+03</rscale>
<asrwt>0</asrwt>
<pdfrwt beam="1">  1        1 0.49451825E+00 0.98940357E+03</pdfrwt>
<pdfrwt beam="2">  1       -1 0.12409499E+00 0.98940357E+03</pdfrwt>
<totfact> 0.24445022E-01</totfact>
</mgrwt>
</event>
<event>
 4    1  0.2293715E-008  0.4903152E+03  0.7818608E-02  0.1016338E+00
         -1   -1    0    0    0  501 -0.00000000000E+00  0.00000000000E+00  0.64975673345E+03  0.64975673347E+03  0.50400000000E-02 0.  1.
          1   -1    0    0  501    0  0.00000000000E+00 -0.00000000000E+00 -0.47712271666E+03  0.47712271669E+03  0.50400000000E-02 0. -1.
    8880022    1    1    2    0    0 -0.10123008084E+03 -0.45471952108E+03 -0.18066144918E+03  0.52253955291E+03  0.15294330000E+03 0.  0.
    8880022    1    1    2    0    0  0.10123008084E+03  0.45471952108E+03  0.35329546596E+03  0.60433989725E+03  0.15294330000E+03 0.  0.
<mgrwt>
<rscale>  0 0.49031523E+03</rscale>
<asrwt>0</asrwt>
<pdfrwt beam="1">  1        1 0.73403495E-01 0.49031523E+03</pdfrwt>
<pdfrwt beam="2">  1       -1 0.99962574E-01 0.49031523E+03</pdfrwt>
<totfact> 0.47344379E+01</totfact>
</mgrwt>
</event>
<event>
 4    1  0.2293715E-008  0.1216057E+04  0.7818608E-02  0.9098917E-01
         -1   -1    0    0    0  501 -0.00000000000E+00  0.00000000000E+00  0.46559071553E+03  0.46559071555E+03  0.50400000000E-02 0.  1.
          1   -1    0    0  501    0  0.00000000000E+00 -0.00000000000E+00 -0.33223831053E+04  0.33223831053E+04  0.50400000000E-02 0. -1.
    8880022    1    1    2    0    0 -0.11638070559E+04 -0.31773524816E+03 -0.18257237140E+04  0.21936411020E+04  0.15294330000E+03 0.  0.
    8880022    1    1    2    0    0  0.11638070559E+04  0.31773524816E+03 -0.10310686758E+04  0.15943327189E+04  0.15294330000E+03 0.  0.
<mgrwt>
<rscale>  0 0.12160568E+04</rscale>
<asrwt>0</asrwt>
<pdfrwt beam="1">  1        1 0.51113585E+00 0.12160568E+04</pdfrwt>
<pdfrwt beam="2">  1       -1 0.71629343E-01 0.12160568E+04</pdfrwt>
<totfact> 0.67651100E-01</totfact>
</mgrwt>
</event>
<event>
 4    1  0.2293715E-008  0.4596362E+03  0.7818608E-02  0.1024887E+00
          1   -1    0    0  501    0  0.00000000000E+00  0.00000000000E+00  0.25447929540E+04  0.25447929540E+04  0.50400000000E-02 0. -1.
         -1   -1    0    0    0  501 -0.00000000000E+00 -0.00000000000E+00 -0.20381702576E+03  0.20381702582E+03  0.50400000000E-02 0.  1.
    8880022    1    1    2    0    0 -0.10197747655E+03  0.42127703042E+03  0.11246923301E+03  0.47319628429E+03  0.15294330000E+03 0.  1.
    8880022    1    1    2    0    0  0.10197747655E+03 -0.42127703042E+03  0.22285066953E+04  0.22754136956E+04  0.15294330000E+03 0.  0.
<mgrwt>
<rscale>  0 0.45963616E+03</rscale>
<asrwt>0</asrwt>
<pdfrwt beam="1">  1        1 0.39150660E+00 0.45963616E+03</pdfrwt>
<pdfrwt beam="2">  1       -1 0.31356466E-01 0.45963616E+03</pdfrwt>
<totfact> 0.13283651E+01</totfact>
</mgrwt>
</event>
<event>
 4    1  0.2293715E-008  0.3513752E+03  0.7818608E-02  0.1062052E+00
          1   -1    0    0  501    0  0.00000000000E+00  0.00000000000E+00  0.27942337897E+04  0.27942337897E+04  0.50400000000E-02 0. -1.
         -1   -1    0    0    0  501 -0.00000000000E+00 -0.00000000000E+00 -0.29666113042E+03  0.29666113046E+03  0.50400000000E-02 0.  1.
    8880022    1    1    2    0    0  0.10710284109E+03  0.29766059772E+03  0.26745045153E+04  0.26974875172E+04  0.15294330000E+03 0.  0.
    8880022    1    1    2    0    0 -0.10710284109E+03 -0.29766059772E+03 -0.17693185604E+03  0.39340740296E+03  0.15294330000E+03 0.  1.
<mgrwt>
<rscale>  0 0.35137516E+03</rscale>
<asrwt>0</asrwt>
<pdfrwt beam="1">  1        1 0.42988210E+00 0.35137516E+03</pdfrwt>
<pdfrwt beam="2">  1       -1 0.45640176E-01 0.35137516E+03</pdfrwt>
<totfact> 0.47678678E+00</totfact>
</mgrwt>
</event>
<event>
 4    1  0.2293715E-008  0.5324128E+03  0.7818608E-02  0.1005649E+00
         -1   -1    0    0    0  501 -0.00000000000E+00  0.00000000000E+00  0.15691883649E+04  0.15691883650E+04  0.50400000000E-02 0.  1.
          1   -1    0    0  501    0  0.00000000000E+00 -0.00000000000E+00 -0.31577854854E+03  0.31577854858E+03  0.50400000000E-02 0. -1.
    8880022    1    1    2    0    0  0.33004369422E+03  0.38877101327E+03  0.12432526567E+04  0.13524572312E+04  0.15294330000E+03 0.  0.
    8880022    1    1    2    0    0 -0.33004369422E+03 -0.38877101327E+03  0.10157159687E+02  0.53250968231E+03  0.15294330000E+03 0.  0.
<mgrwt>
<rscale>  0 0.53241280E+03</rscale>
<asrwt>0</asrwt>
<pdfrwt beam="1">  1        1 0.48581316E-01 0.53241280E+03</pdfrwt>
<pdfrwt beam="2">  1       -1 0.24141359E+00 0.53241280E+03</pdfrwt>
<totfact> 0.69784866E+00</totfact>
</mgrwt>
</event>
<event>
 4    1  0.3538380E-008  0.8033776E+03  0.7818608E-02  0.9555141E-01
         -1   -1    0    0    0  501 -0.00000000000E+00  0.00000000000E+00  0.30383787426E+04  0.30383787426E+04  0.50400000000E-02 0.  1.
          1   -1    0    0  501    0  0.00000000000E+00 -0.00000000000E+00 -0.15194843860E+04  0.15194843860E+04  0.50400000000E-02 0. -1.
    8880022    1    1    2    0    0 -0.77126951836E+03  0.16482496197E+03 -0.13541950628E+04  0.15745665623E+04  0.15294330000E+03 0.  0.
    8880022    1    1    2    0    0  0.77126951836E+03 -0.16482496197E+03  0.28730894194E+04  0.29832965664E+04  0.15294330000E+03 0.  0.
<mgrwt>
<rscale>  0 0.80337761E+03</rscale>
<asrwt>0</asrwt>
<pdfrwt beam="1">  1        1 0.23376683E+00 0.80337761E+03</pdfrwt>
<pdfrwt beam="2">  1       -1 0.46744288E+00 0.80337761E+03</pdfrwt>
<totfact> 0.16806503E-02</totfact>
</mgrwt>
</event>
<event>
 4    1  0.2293715E-008  0.2905284E+03  0.7818608E-02  0.1090074E+00
         -1   -1    0    0    0  501 -0.00000000000E+00  0.00000000000E+00  0.66847366356E+03  0.66847366358E+03  0.50400000000E-02 0.  1.
          1   -1    0    0  501    0  0.00000000000E+00 -0.00000000000E+00 -0.15371909297E+03  0.15371909305E+03  0.50400000000E-02 0. -1.
    8880022    1    1    2    0    0 -0.21191744197E+03 -0.12690976818E+03  0.83652970672E+02  0.30233187722E+03  0.15294330000E+03 0.  0.
    8880022    1    1    2    0    0  0.21191744197E+03  0.12690976818E+03  0.43110159992E+03  0.51986087940E+03  0.15294330000E+03 0.  1.
<mgrwt>
<rscale>  0 0.29052839E+03</rscale>
<asrwt>0</asrwt>
<pdfrwt beam="1">  1        1 0.23649091E-01 0.29052839E+03</pdfrwt>
<pdfrwt beam="2">  1       -1 0.10284210E+00 0.29052839E+03</pdfrwt>
<totfact> 0.19520338E+02</totfact>
</mgrwt>
</event>
<event>
 4    1  0.2293715E-008  0.4302443E+03  0.7818608E-02  0.1033783E+00
          1   -1    0    0  501    0  0.00000000000E+00  0.00000000000E+00  0.82448434010E+03  0.82448434011E+03  0.50400000000E-02 0. -1.
         -1   -1    0    0    0  501 -0.00000000000E+00 -0.00000000000E+00 -0.12165724297E+04  0.12165724297E+04  0.50400000000E-02 0.  1.
    8880022    1    1    2    0    0 -0.17929820376E+03 -0.35995924955E+03 -0.11176053465E+04  0.11975608005E+04  0.15294330000E+03 0.  1.
    8880022    1    1    2    0    0  0.17929820376E+03  0.35995924955E+03  0.72551725693E+03  0.84349596936E+03  0.15294330000E+03 0.  0.
<mgrwt>
<rscale>  0 0.43024430E+03</rscale>
<asrwt>0</asrwt>
<pdfrwt beam="1">  1        1 0.12684374E+00 0.43024430E+03</pdfrwt>
<pdfrwt beam="2">  1       -1 0.18716499E+00 0.43024430E+03</pdfrwt>
<totfact> 0.43198466E+00</totfact>
</mgrwt>
</event>
<event>
 4    1  0.2293715E-008  0.7686951E+03  0.7818608E-02  0.9606469E-01
          1   -1    0    0  501    0  0.00000000000E+00  0.00000000000E+00  0.13629832359E+04  0.13629832359E+04  0.50400000000E-02 0. -1.
         -1   -1    0    0    0  501 -0.00000000000E+00 -0.00000000000E+00 -0.91324026105E+03  0.91324026107E+03  0.50400000000E-02 0.  1.
    8880022    1    1    2    0    0 -0.17230291525E+03  0.73335680965E+03  0.10497358452E+04  0.13010908894E+04  0.15294330000E+03 0.  0.
    8880022    1    1    2    0    0  0.17230291525E+03 -0.73335680965E+03 -0.59999287034E+03  0.97513260756E+03  0.15294330000E+03 0.  0.
<mgrwt>
<rscale>  0 0.76869510E+03</rscale>
<asrwt>0</asrwt>
<pdfrwt beam="1">  1        1 0.20968973E+00 0.76869510E+03</pdfrwt>
<pdfrwt beam="2">  1       -1 0.14049850E+00 0.76869510E+03</pdfrwt>
<totfact> 0.35194990E+00</totfact>
</mgrwt>
</event>
<event>
 4    1  0.2293715E-008  0.1161042E+04  0.7818608E-02  0.9147657E-01
          1   -1    0    0  501    0  0.00000000000E+00  0.00000000000E+00  0.21481295171E+04  0.21481295171E+04  0.50400000000E-02 0. -1.
         -1   -1    0    0    0  501 -0.00000000000E+00 -0.00000000000E+00 -0.10562737262E+04  0.10562737262E+04  0.50400000000E-02 0.  1.
    8880022    1    1    2    0    0 -0.11421038308E+04 -0.14222004791E+03  0.15666956894E+04  0.19500140355E+04  0.15294330000E+03 0. -1.
    8880022    1    1    2    0    0  0.11421038308E+04  0.14222004791E+03 -0.47483989844E+03  0.12543892078E+04  0.15294330000E+03 0.  0.
<mgrwt>
<rscale>  0 0.11610424E+04</rscale>
<asrwt>0</asrwt>
<pdfrwt beam="1">  1        1 0.33048146E+00 0.11610424E+04</pdfrwt>
<pdfrwt beam="2">  1       -1 0.16250365E+00 0.11610424E+04</pdfrwt>
<totfact> 0.65374816E-01</totfact>
</mgrwt>
</event>
<event>
 4    1  0.2293715E-008  0.4547031E+03  0.7818608E-02  0.1026329E+00
         -1   -1    0    0    0  501 -0.00000000000E+00  0.00000000000E+00  0.23010785218E+03  0.23010785224E+03  0.50400000000E-02 0.  1.
          1   -1    0    0  501    0  0.00000000000E+00 -0.00000000000E+00 -0.15551281798E+04  0.15551281798E+04  0.50400000000E-02 0. -1.
    8880022    1    1    2    0    0 -0.42058701046E+03  0.80435249018E+02 -0.12425235068E+04  0.13231098143E+04  0.15294330000E+03 0.  0.
    8880022    1    1    2    0    0  0.42058701046E+03 -0.80435249018E+02 -0.82496820760E+02  0.46212621772E+03  0.15294330000E+03 0.  0.
<mgrwt>
<rscale>  0 0.45470311E+03</rscale>
<asrwt>0</asrwt>
<pdfrwt beam="1">  1        1 0.23925048E+00 0.45470311E+03</pdfrwt>
<pdfrwt beam="2">  1       -1 0.35401209E-01 0.45470311E+03</pdfrwt>
<totfact> 0.48892371E+01</totfact>
</mgrwt>
</event>
<event>
 4    1  0.2293715E-008  0.1710000E+03  0.7818608E-02  0.1176809E+00
         -1   -1    0    0    0  501 -0.00000000000E+00  0.00000000000E+00  0.13322482208E+04  0.13322482208E+04  0.50400000000E-02 0.  1.
          1   -1    0    0  501    0  0.00000000000E+00 -0.00000000000E+00 -0.64533790786E+03  0.64533790788E+03  0.50400000000E-02 0. -1.
    8880022    1    1    2    0    0  0.63589950636E+02  0.42493025430E+02  0.13152878282E+04  0.13263570647E+04  0.15294330000E+03 0.  0.
    8880022    1    1    2    0    0 -0.63589950636E+02 -0.42493025430E+02 -0.62837751529E+03  0.65122906398E+03  0.15294330000E+03 0. -1.
<mgrwt>
<rscale>  0 0.17099998E+03</rscale>
<asrwt>0</asrwt>
<pdfrwt beam="1">  1        1 0.99282756E-01 0.17099998E+03</pdfrwt>
<pdfrwt beam="2">  1       -1 0.20496126E+00 0.17099998E+03</pdfrwt>
<totfact> 0.52802505E+00</totfact>
</mgrwt>
</event>
<event>
 4    1  0.2293715E-008  0.9280064E+03  0.7818608E-02  0.9391234E-01
         -1   -1    0    0    0  501 -0.00000000000E+00  0.00000000000E+00  0.55661356803E+03  0.55661356805E+03  0.50400000000E-02 0.  1.
          1   -1    0    0  501    0  0.00000000000E+00 -0.00000000000E+00 -0.25108802985E+04  0.25108802985E+04  0.50400000000E-02 0. -1.
    8880022    1    1    2    0    0 -0.80951028947E+03 -0.42719701263E+03 -0.19273132718E+04  0.21390961402E+04  0.15294330000E+03 0.  0.
    8880022    1    1    2    0    0  0.80951028947E+03  0.42719701263E+03 -0.26953458671E+02  0.92839772636E+03  0.15294330000E+03 0.  0.
<mgrwt>
<rscale>  0 0.92800638E+03</rscale>
<asrwt>0</asrwt>
<pdfrwt beam="1">  1        1 0.38628927E+00 0.92800638E+03</pdfrwt>
<pdfrwt beam="2">  1       -1 0.85632858E-01 0.92800638E+03</pdfrwt>
<totfact> 0.18483757E+00</totfact>
</mgrwt>
</event>
<event>
 4    1  0.2293715E-008  0.4461484E+03  0.7818608E-02  0.1028877E+00
         -1   -1    0    0    0  501 -0.00000000000E+00  0.00000000000E+00  0.16412505059E+03  0.16412505067E+03  0.50400000000E-02 0.  1.
          1   -1    0    0  501    0  0.00000000000E+00 -0.00000000000E+00 -0.37004488542E+04  0.37004488542E+04  0.50400000000E-02 0. -1.
    8880022    1    1    2    0    0 -0.10011378097E+03 -0.40698155301E+03 -0.33524722633E+04  0.33820287820E+04  0.15294330000E+03 0.  0.
    8880022    1    1    2    0    0  0.10011378097E+03  0.40698155301E+03 -0.18385154030E+03  0.48254512278E+03  0.15294330000E+03 0.  0.
<mgrwt>
<rscale>  0 0.44614841E+03</rscale>
<asrwt>0</asrwt>
<pdfrwt beam="1">  1        1 0.56929976E+00 0.44614841E+03</pdfrwt>
<pdfrwt beam="2">  1       -1 0.25250011E-01 0.44614841E+03</pdfrwt>
<totfact> 0.28031458E+00</totfact>
</mgrwt>
</event>
<event>
 4    1  0.2293715E-008  0.3261777E+03  0.7818608E-02  0.1072841E+00
         -1   -1    0    0    0  501 -0.00000000000E+00  0.00000000000E+00  0.25091410064E+03  0.25091410069E+03  0.50400000000E-02 0.  1.
          1   -1    0    0  501    0  0.00000000000E+00 -0.00000000000E+00 -0.13665972626E+04  0.13665972626E+04  0.50400000000E-02 0. -1.
    8880022    1    1    2    0    0 -0.59618454910E+02  0.28186139945E+03  0.11382884451E+03  0.34546905436E+03  0.15294330000E+03 0.  1.
    8880022    1    1    2    0    0  0.59618454910E+02 -0.28186139945E+03 -0.12295120065E+04  0.12720423090E+04  0.15294330000E+03 0.  0.
<mgrwt>
<rscale>  0 0.32617765E+03</rscale>
<asrwt>0</asrwt>
<pdfrwt beam="1">  1        1 0.21024573E+00 0.32617765E+03</pdfrwt>
<pdfrwt beam="2">  1       -1 0.38602170E-01 0.32617765E+03</pdfrwt>
<totfact> 0.57779547E+01</totfact>
</mgrwt>
</event>
<event>
 4    1  0.2293715E-008  0.1669159E+03  0.7818608E-02  0.1181103E+00
          1   -1    0    0  501    0  0.00000000000E+00  0.00000000000E+00  0.38793975414E+03  0.38793975417E+03  0.50400000000E-02 0. -1.
         -1   -1    0    0    0  501 -0.00000000000E+00 -0.00000000000E+00 -0.12570351410E+03  0.12570351420E+03  0.50400000000E-02 0.  1.
    8880022    1    1    2    0    0  0.42561244248E+02 -0.51553818196E+02  0.29926757133E+03  0.34266891885E+03  0.15294330000E+03 0.  0.
    8880022    1    1    2    0    0 -0.42561244248E+02  0.51553818196E+02 -0.37031331289E+02  0.17097434952E+03  0.15294330000E+03 0.  0.
<mgrwt>
<rscale>  0 0.16691587E+03</rscale>
<asrwt>0</asrwt>
<pdfrwt beam="1">  1        1 0.59683041E-01 0.16691587E+03</pdfrwt>
<pdfrwt beam="2">  1       -1 0.19339002E-01 0.16691587E+03</pdfrwt>
<totfact> 0.13335018E+03</totfact>
</mgrwt>
</event>
<event>
 4    1  0.2293715E-008  0.2552861E+03  0.7818608E-02  0.1110009E+00
         -1   -1    0    0    0  501 -0.00000000000E+00  0.00000000000E+00  0.54579164568E+03  0.54579164570E+03  0.50400000000E-02 0.  1.
          1   -1    0    0  501    0  0.00000000000E+00 -0.00000000000E+00 -0.11847275968E+04  0.11847275969E+04  0.50400000000E-02 0. -1.
    8880022    1    1    2    0    0 -0.20423075211E+03 -0.83161958445E+01  0.50102991728E+03  0.56231840646E+03  0.15294330000E+03 0.  1.
    8880022    1    1    2    0    0  0.20423075211E+03  0.83161958445E+01 -0.11399658684E+04  0.11682008361E+04  0.15294330000E+03 0.  0.
<mgrwt>
<rscale>  0 0.25528614E+03</rscale>
<asrwt>0</asrwt>
<pdfrwt beam="1">  1        1 0.18226578E+00 0.25528614E+03</pdfrwt>
<pdfrwt beam="2">  1       -1 0.83967946E-01 0.25528614E+03</pdfrwt>
<totfact> 0.17734740E+01</totfact>
</mgrwt>
</event>
<event>
 4    1  0.2293715E-008  0.6333083E+03  0.7818608E-02  0.9838614E-01
         -1   -1    0    0    0  501 -0.00000000000E+00  0.00000000000E+00  0.35704992459E+03  0.35704992463E+03  0.50400000000E-02 0.  1.
          1   -1    0    0  501    0  0.00000000000E+00 -0.00000000000E+00 -0.16094452153E+04  0.16094452153E+04  0.50400000000E-02 0. -1.
    8880022    1    1    2    0    0 -0.49287375268E+03  0.36710104188E+03 -0.11665801820E+04  0.13273992184E+04  0.15294330000E+03 0.  0.
    8880022    1    1    2    0    0  0.49287375268E+03 -0.36710104188E+03 -0.85815108747E+02  0.63909592154E+03  0.15294330000E+03 0.  0.
<mgrwt>
<rscale>  0 0.63330827E+03</rscale>
<asrwt>0</asrwt>
<pdfrwt beam="1">  1        1 0.24760695E+00 0.63330827E+03</pdfrwt>
<pdfrwt beam="2">  1       -1 0.54930758E-01 0.63330827E+03</pdfrwt>
<totfact> 0.19410599E+01</totfact>
</mgrwt>
</event>
<event>
 4    1  0.2293715E-008  0.2285770E+03  0.7818608E-02  0.1127645E+00
          1   -1    0    0  501    0  0.00000000000E+00  0.00000000000E+00  0.36988245836E+03  0.36988245840E+03  0.50400000000E-02 0. -1.
         -1   -1    0    0    0  501 -0.00000000000E+00 -0.00000000000E+00 -0.41567090259E+03  0.41567090262E+03  0.50400000000E-02 0.  1.
    8880022    1    1    2    0    0  0.76814707459E+02  0.15151010927E+03 -0.34203046097E+03  0.41137853826E+03  0.15294330000E+03 0.  1.
    8880022    1    1    2    0    0 -0.76814707459E+02 -0.15151010927E+03  0.29624201674E+03  0.37417482276E+03  0.15294330000E+03 0.  0.
<mgrwt>
<rscale>  0 0.22857705E+03</rscale>
<asrwt>0</asrwt>
<pdfrwt beam="1">  1        1 0.56904994E-01 0.22857705E+03</pdfrwt>
<pdfrwt beam="2">  1       -1 0.63949369E-01 0.22857705E+03</pdfrwt>
<totfact> 0.17465143E+02</totfact>
</mgrwt>
</event>
<event>
 4    1  0.2293715E-008  0.5238948E+03  0.7818608E-02  0.1007724E+00
          1   -1    0    0  501    0  0.00000000000E+00  0.00000000000E+00  0.16833884978E+04  0.16833884978E+04  0.50400000000E-02 0. -1.
         -1   -1    0    0    0  501 -0.00000000000E+00 -0.00000000000E+00 -0.46801775913E+03  0.46801775916E+03  0.50400000000E-02 0.  1.
    8880022    1    1    2    0    0  0.33958390496E+03 -0.36845198632E+03 -0.26066056490E+03  0.58515782302E+03  0.15294330000E+03 0.  0.
    8880022    1    1    2    0    0 -0.33958390496E+03  0.36845198632E+03  0.14760313036E+04  0.15662484340E+04  0.15294330000E+03 0.  0.
<mgrwt>
<rscale>  0 0.52389479E+03</rscale>
<asrwt>0</asrwt>
<pdfrwt beam="1">  1        1 0.25898284E+00 0.52389479E+03</pdfrwt>
<pdfrwt beam="2">  1       -1 0.72002733E-01 0.52389479E+03</pdfrwt>
<totfact> 0.10334792E+01</totfact>
</mgrwt>
</event>
<event>
 4    1  0.2405002E-008  0.9989635E+03  0.7818608E-02  0.9309682E-01
          1   -1    0    0  501    0  0.00000000000E+00  0.00000000000E+00  0.10746468591E+04  0.10746468591E+04  0.50400000000E-02 0. -1.
         -1   -1    0    0    0  501 -0.00000000000E+00 -0.00000000000E+00 -0.16464285568E+04  0.16464285568E+04  0.50400000000E-02 0.  1.
    8880022    1    1    2    0    0 -0.42171095083E+03 -0.89257844723E+03  0.61246088421E+03  0.11717663582E+04  0.15294330000E+03 0.  0.
    8880022    1    1    2    0    0  0.42171095083E+03  0.89257844723E+03 -0.11842425819E+04  0.15493090577E+04  0.15294330000E+03 0.  0.
<mgrwt>
<rscale>  0 0.99896349E+03</rscale>
<asrwt>0</asrwt>
<pdfrwt beam="1">  1        1 0.16533029E+00 0.99896349E+03</pdfrwt>
<pdfrwt beam="2">  1       -1 0.25329670E+00 0.99896349E+03</pdfrwt>
<totfact> 0.88712964E-01</totfact>
</mgrwt>
</event>
<event>
 4    1  0.2293715E-008  0.5578808E+03  0.7818608E-02  0.9996861E-01
          1   -1    0    0  501    0  0.00000000000E+00  0.00000000000E+00  0.39084699816E+04  0.39084699816E+04  0.50400000000E-02 0. -1.
         -1   -1    0    0    0  501 -0.00000000000E+00 -0.00000000000E+00 -0.17654623366E+03  0.17654623374E+03  0.50400000000E-02 0.  1.
    8880022    1    1    2    0    0  0.38542533996E+03 -0.37321130614E+03  0.33792899068E+04  0.34250301165E+04  0.15294330000E+03 0.  0.
    8880022    1    1    2    0    0 -0.38542533996E+03  0.37321130614E+03  0.35263384110E+03  0.65998609880E+03  0.15294330000E+03 0.  1.
<mgrwt>
<rscale>  0 0.55788083E+03</rscale>
<asrwt>0</asrwt>
<pdfrwt beam="1">  1        1 0.60130307E+00 0.55788083E+03</pdfrwt>
<pdfrwt beam="2">  1       -1 0.27160959E-01 0.55788083E+03</pdfrwt>
<totfact> 0.16150287E+00</totfact>
</mgrwt>
</event>
<event>
 4    1  0.2293715E-008  0.3612448E+03  0.7818608E-02  0.1058092E+00
          1   -1    0    0  501    0  0.00000000000E+00  0.00000000000E+00  0.19882920318E+04  0.19882920318E+04  0.50400000000E-02 0. -1.
         -1   -1    0    0    0  501 -0.00000000000E+00 -0.00000000000E+00 -0.45797711479E+03  0.45797711482E+03  0.50400000000E-02 0.  1.
    8880022    1    1    2    0    0  0.23372608347E+03  0.22908136467E+03  0.18972602452E+04  0.19313451904E+04  0.15294330000E+03 0. -1.
    8880022    1    1    2    0    0 -0.23372608347E+03 -0.22908136467E+03 -0.36694532819E+03  0.51492395616E+03  0.15294330000E+03 0.  0.
<mgrwt>
<rscale>  0 0.36124480E+03</rscale>
<asrwt>0</asrwt>
<pdfrwt beam="1">  1        1 0.30589107E+00 0.36124480E+03</pdfrwt>
<pdfrwt beam="2">  1       -1 0.70458020E-01 0.36124480E+03</pdfrwt>
<totfact> 0.71177111E+00</totfact>
</mgrwt>
</event>
<event>
 4    1  0.2293715E-008  0.4725092E+03  0.7818608E-02  0.1021214E+00
          1   -1    0    0  501    0  0.00000000000E+00  0.00000000000E+00  0.10285184995E+04  0.10285184995E+04  0.50400000000E-02 0. -1.
         -1   -1    0    0    0  501 -0.00000000000E+00 -0.00000000000E+00 -0.59469989743E+03  0.59469989745E+03  0.50400000000E-02 0.  1.
    8880022    1    1    2    0    0 -0.42042494214E+03 -0.15204013804E+03  0.86364779435E+03  0.98445543386E+03  0.15294330000E+03 0.  0.
    8880022    1    1    2    0    0  0.42042494214E+03  0.15204013804E+03 -0.42982919225E+03  0.63876296314E+03  0.15294330000E+03 0.  0.
<mgrwt>
<rscale>  0 0.47250925E+03</rscale>
<asrwt>0</asrwt>
<pdfrwt beam="1">  1        1 0.15823362E+00 0.47250925E+03</pdfrwt>
<pdfrwt beam="2">  1       -1 0.91492292E-01 0.47250925E+03</pdfrwt>
<totfact> 0.18022233E+01</totfact>
</mgrwt>
</event>
<event>
 4    1  0.2293715E-008  0.1864744E+03  0.7818608E-02  0.1161680E+00
          1   -1    0    0  501    0  0.00000000000E+00  0.00000000000E+00  0.73202169935E+03  0.73202169937E+03  0.50400000000E-02 0. -1.
         -1   -1    0    0    0  501 -0.00000000000E+00 -0.00000000000E+00 -0.24022716750E+03  0.24022716755E+03  0.50400000000E-02 0.  1.
    8880022    1    1    2    0    0  0.24047375925E+02  0.10393631261E+03  0.68131419523E+03  0.70637222411E+03  0.15294330000E+03 0.  0.
    8880022    1    1    2    0    0 -0.24047375925E+02 -0.10393631261E+03 -0.18951966337E+03  0.26587664280E+03  0.15294330000E+03 0.  0.
<mgrwt>
<rscale>  0 0.18647436E+03</rscale>
<asrwt>0</asrwt>
<pdfrwt beam="1">  1        1 0.11261872E+00 0.18647436E+03</pdfrwt>
<pdfrwt beam="2">  1       -1 0.36958026E-01 0.18647436E+03</pdfrwt>
<totfact> 0.19227484E+02</totfact>
</mgrwt>
</event>
<event>
 4    1  0.2293715E-008  0.4347080E+03  0.7818608E-02  0.1032383E+00
         -1   -1    0    0    0  501 -0.00000000000E+00  0.00000000000E+00  0.20823218433E+03  0.20823218439E+03  0.50400000000E-02 0.  1.
          1   -1    0    0  501    0  0.00000000000E+00 -0.00000000000E+00 -0.98566464479E+03  0.98566464480E+03  0.50400000000E-02 0. -1.
    8880022    1    1    2    0    0 -0.25660975155E+02  0.40610455151E+03 -0.55681823091E+03  0.70641176922E+03  0.15294330000E+03 0.  0.
    8880022    1    1    2    0    0  0.25660975155E+02 -0.40610455151E+03 -0.22061422955E+03  0.48748505998E+03  0.15294330000E+03 0.  0.
<mgrwt>
<rscale>  0 0.43470800E+03</rscale>
<asrwt>0</asrwt>
<pdfrwt beam="1">  1        1 0.15164071E+00 0.43470800E+03</pdfrwt>
<pdfrwt beam="2">  1       -1 0.32035721E-01 0.43470800E+03</pdfrwt>
<totfact> 0.14759291E+02</totfact>
</mgrwt>
</event>
<event>
 4    1  0.2293715E-008  0.5019852E+03  0.7818608E-02  0.1013262E+00
          1   -1    0    0  501    0  0.00000000000E+00  0.00000000000E+00  0.84250697744E+03  0.84250697746E+03  0.50400000000E-02 0. -1.
         -1   -1    0    0    0  501 -0.00000000000E+00 -0.00000000000E+00 -0.73095828120E+03  0.73095828121E+03  0.50400000000E-02 0.  1.
    8880022    1    1    2    0    0  0.32074516799E+03 -0.35457025185E+03  0.66049426558E+03  0.82960343186E+03  0.15294330000E+03 0. -1.
    8880022    1    1    2    0    0 -0.32074516799E+03  0.35457025185E+03 -0.54894556933E+03  0.74386182681E+03  0.15294330000E+03 0.  0.
<mgrwt>
<rscale>  0 0.50198524E+03</rscale>
<asrwt>0</asrwt>
<pdfrwt beam="1">  1        1 0.12961646E+00 0.50198524E+03</pdfrwt>
<pdfrwt beam="2">  1       -1 0.11245512E+00 0.50198524E+03</pdfrwt>
<totfact> 0.15726291E+01</totfact>
</mgrwt>
</event>
<event>
 4    1  0.2293715E-008  0.5196209E+03  0.7818608E-02  0.1008781E+00
          1   -1    0    0  501    0  0.00000000000E+00  0.00000000000E+00  0.73224991088E+03  0.73224991089E+03  0.50400000000E-02 0. -1.
         -1   -1    0    0    0  501 -0.00000000000E+00 -0.00000000000E+00 -0.15527263008E+04  0.15527263008E+04  0.50400000000E-02 0.  1.
    8880022    1    1    2    0    0  0.13825935443E+03 -0.47696808937E+03  0.58741263062E+03  0.78425726582E+03  0.15294330000E+03 0.  0.
    8880022    1    1    2    0    0 -0.13825935443E+03  0.47696808937E+03 -0.14078890206E+04  0.15007189459E+04  0.15294330000E+03 0.  0.
<mgrwt>
<rscale>  0 0.51962088E+03</rscale>
<asrwt>0</asrwt>
<pdfrwt beam="1">  1        1 0.11265383E+00 0.51962088E+03</pdfrwt>
<pdfrwt beam="2">  1       -1 0.23888097E+00 0.51962088E+03</pdfrwt>
<totfact> 0.22968376E+00</totfact>
</mgrwt>
</event>
<event>
 4    1  0.2293715E-008  0.5310115E+03  0.7818608E-02  0.1005987E+00
          1   -1    0    0  501    0  0.00000000000E+00  0.00000000000E+00  0.10407627255E+04  0.10407627255E+04  0.50400000000E-02 0. -1.
         -1   -1    0    0    0  501 -0.00000000000E+00 -0.00000000000E+00 -0.27971293071E+03  0.27971293076E+03  0.50400000000E-02 0.  1.
    8880022    1    1    2    0    0  0.47283763413E+03  0.18709931038E+03  0.49752288683E+03  0.72766905673E+03  0.15294330000E+03 0.  0.
    8880022    1    1    2    0    0 -0.47283763413E+03 -0.18709931038E+03  0.26352690792E+03  0.59280659950E+03  0.15294330000E+03 0.  1.
<mgrwt>
<rscale>  0 0.53101152E+03</rscale>
<asrwt>0</asrwt>
<pdfrwt beam="1">  1        1 0.16011734E+00 0.53101152E+03</pdfrwt>
<pdfrwt beam="2">  1       -1 0.43032759E-01 0.53101152E+03</pdfrwt>
<totfact> 0.78249634E+01</totfact>
</mgrwt>
</event>
<event>
 4    1  0.2293715E-008  0.2370611E+03  0.7818608E-02  0.1121766E+00
          1   -1    0    0  501    0  0.00000000000E+00  0.00000000000E+00  0.13237935063E+03  0.13237935072E+03  0.50400000000E-02 0. -1.
         -1   -1    0    0    0  501 -0.00000000000E+00 -0.00000000000E+00 -0.11560445930E+04  0.11560445930E+04  0.50400000000E-02 0.  1.
    8880022    1    1    2    0    0 -0.17711729810E+03  0.37891734066E+02 -0.10242871188E+04  0.10513620097E+04  0.15294330000E+03 0.  0.
    8880022    1    1    2    0    0  0.17711729810E+03 -0.37891734066E+02  0.62187642216E+00  0.23706193398E+03  0.15294330000E+03 0. -1.
<mgrwt>
<rscale>  0 0.23706112E+03</rscale>
<asrwt>0</asrwt>
<pdfrwt beam="1">  1        1 0.20366055E-01 0.23706112E+03</pdfrwt>
<pdfrwt beam="2">  1       -1 0.17785301E+00 0.23706112E+03</pdfrwt>
<totfact> 0.59785791E+01</totfact>
</mgrwt>
</event>
<event>
 4    1  0.2293715E-008  0.1200015E+04  0.7818608E-02  0.9112843E-01
          1   -1    0    0  501    0  0.00000000000E+00  0.00000000000E+00  0.15153294604E+04  0.15153294604E+04  0.50400000000E-02 0. -1.
         -1   -1    0    0    0  501 -0.00000000000E+00 -0.00000000000E+00 -0.19313030686E+04  0.19313030686E+04  0.50400000000E-02 0.  1.
    8880022    1    1    2    0    0 -0.11217120022E+04  0.39800384041E+03  0.10202219482E+04  0.15750839183E+04  0.15294330000E+03 0.  0.
    8880022    1    1    2    0    0  0.11217120022E+04 -0.39800384041E+03 -0.14361955565E+04  0.18715486107E+04  0.15294330000E+03 0.  0.
<mgrwt>
<rscale>  0 0.12000152E+04</rscale>
<asrwt>0</asrwt>
<pdfrwt beam="1">  1        1 0.23312761E+00 0.12000152E+04</pdfrwt>
<pdfrwt beam="2">  1       -1 0.29712355E+00 0.12000152E+04</pdfrwt>
<totfact> 0.21651972E-01</totfact>
</mgrwt>
</event>
<event>
 4    1  0.2293715E-008  0.5983764E+03  0.7818608E-02  0.9908780E-01
         -1   -1    0    0    0  501 -0.00000000000E+00  0.00000000000E+00  0.19089373650E+04  0.19089373650E+04  0.50400000000E-02 0.  1.
          1   -1    0    0  501    0  0.00000000000E+00 -0.00000000000E+00 -0.62204665887E+03  0.62204665889E+03  0.50400000000E-02 0. -1.
    8880022    1    1    2    0    0 -0.50220076845E+03  0.28715345890E+03  0.17010721925E+04  0.18032473424E+04  0.15294330000E+03 0.  1.
    8880022    1    1    2    0    0  0.50220076845E+03 -0.28715345890E+03 -0.41418148643E+03  0.72773668144E+03  0.15294330000E+03 0.  0.
<mgrwt>
<rscale>  0 0.59837645E+03</rscale>
<asrwt>0</asrwt>
<pdfrwt beam="1">  1        1 0.95699488E-01 0.59837645E+03</pdfrwt>
<pdfrwt beam="2">  1       -1 0.29368267E+00 0.59837645E+03</pdfrwt>
<totfact> 0.12828247E+00</totfact>
</mgrwt>
</event>
<event>
 4    1  0.2293715E-008  0.5496560E+03  0.7818608E-02  0.1001574E+00
          1   -1    0    0  501    0  0.00000000000E+00  0.00000000000E+00  0.14477937512E+04  0.14477937512E+04  0.50400000000E-02 0. -1.
         -1   -1    0    0    0  501 -0.00000000000E+00 -0.00000000000E+00 -0.35053429095E+03  0.35053429099E+03  0.50400000000E-02 0.  1.
    8880022    1    1    2    0    0  0.21549929728E+03 -0.48196480131E+03 -0.23374262638E+02  0.55015272970E+03  0.15294330000E+03 0.  1.
    8880022    1    1    2    0    0 -0.21549929728E+03  0.48196480131E+03  0.11206337229E+04  0.12481753125E+04  0.15294330000E+03 0.  0.
<mgrwt>
<rscale>  0 0.54965596E+03</rscale>
<asrwt>0</asrwt>
<pdfrwt beam="1">  1        1 0.22273750E+00 0.54965596E+03</pdfrwt>
<pdfrwt beam="2">  1       -1 0.53928352E-01 0.54965596E+03</pdfrwt>
<totfact> 0.26246971E+01</totfact>
</mgrwt>
</event>
<event>
 4    1  0.2293715E-008  0.5001339E+03  0.7818608E-02  0.1013744E+00
         -1   -1    0    0    0  501 -0.00000000000E+00  0.00000000000E+00  0.57273255567E+03  0.57273255570E+03  0.50400000000E-02 0.  1.
          1   -1    0    0  501    0  0.00000000000E+00 -0.00000000000E+00 -0.11556858473E+04  0.11556858473E+04  0.50400000000E-02 0. -1.
    8880022    1    1    2    0    0  0.46027174495E+03 -0.12203340954E+03 -0.97310520805E+03  0.10941058592E+04  0.15294330000E+03 0.  0.
    8880022    1    1    2    0    0 -0.46027174495E+03  0.12203340954E+03  0.39015191645E+03  0.63431254376E+03  0.15294330000E+03 0.  0.
<mgrwt>
<rscale>  0 0.50013387E+03</rscale>
<asrwt>0</asrwt>
<pdfrwt beam="1">  1        1 0.17779782E+00 0.50013387E+03</pdfrwt>
<pdfrwt beam="2">  1       -1 0.88112701E-01 0.50013387E+03</pdfrwt>
<totfact> 0.15668625E+01</totfact>
</mgrwt>
</event>
<event>
 4    1  0.2293715E-008  0.3680017E+03  0.7818608E-02  0.1055460E+00
          1   -1    0    0  501    0  0.00000000000E+00  0.00000000000E+00  0.99640566704E+03  0.99640566705E+03  0.50400000000E-02 0. -1.
         -1   -1    0    0    0  501 -0.00000000000E+00 -0.00000000000E+00 -0.76762942178E+03  0.76762942179E+03  0.50400000000E-02 0.  1.
    8880022    1    1    2    0    0 -0.17434199299E+03 -0.28572447644E+03 -0.68574497109E+03  0.77824894818E+03  0.15294330000E+03 0.  0.
    8880022    1    1    2    0    0  0.17434199299E+03  0.28572447644E+03  0.91452121635E+03  0.98578614067E+03  0.15294330000E+03 0. -1.
<mgrwt>
<rscale>  0 0.36800171E+03</rscale>
<asrwt>0</asrwt>
<pdfrwt beam="1">  1        1 0.15329318E+00 0.36800171E+03</pdfrwt>
<pdfrwt beam="2">  1       -1 0.11809683E+00 0.36800171E+03</pdfrwt>
<totfact> 0.10908967E+01</totfact>
</mgrwt>
</event>
<event>
 4    1  0.2293715E-008  0.2417578E+03  0.7818608E-02  0.1118627E+00
         -1   -1    0    0    0  501 -0.00000000000E+00  0.00000000000E+00  0.21126667584E+04  0.21126667584E+04  0.50400000000E-02 0.  1.
          1   -1    0    0  501    0  0.00000000000E+00 -0.00000000000E+00 -0.22367479702E+03  0.22367479707E+03  0.50400000000E-02 0. -1.
    8880022    1    1    2    0    0  0.15748386101E+03  0.10126214982E+03  0.20380411973E+04  0.20523300817E+04  0.15294330000E+03 0.  1.
    8880022    1    1    2    0    0 -0.15748386101E+03 -0.10126214982E+03 -0.14904923593E+03  0.28401147373E+03  0.15294330000E+03 0.  0.
<mgrwt>
<rscale>  0 0.24175782E+03</rscale>
<asrwt>0</asrwt>
<pdfrwt beam="1">  1        1 0.34411508E-01 0.24175782E+03</pdfrwt>
<pdfrwt beam="2">  1       -1 0.32502565E+00 0.24175782E+03</pdfrwt>
<totfact> 0.35005482E+00</totfact>
</mgrwt>
</event>
<event>
 4    1  0.2293715E-008  0.6546534E+03  0.7818608E-02  0.9798086E-01
         -1   -1    0    0    0  501 -0.00000000000E+00  0.00000000000E+00  0.92224102001E+03  0.92224102002E+03  0.50400000000E-02 0.  1.
          1   -1    0    0  501    0  0.00000000000E+00 -0.00000000000E+00 -0.10686954200E+04  0.10686954200E+04  0.50400000000E-02 0. -1.
    8880022    1    1    2    0    0  0.31590016827E+03 -0.55261787811E+03 -0.82159489460E+03  0.10505185669E+04  0.15294330000E+03 0.  0.
    8880022    1    1    2    0    0 -0.31590016827E+03  0.55261787811E+03  0.67514049465E+03  0.94041787310E+03  0.15294330000E+03 0.  0.
<mgrwt>
<rscale>  0 0.65465341E+03</rscale>
<asrwt>0</asrwt>
<pdfrwt beam="1">  1        1 0.16441468E+00 0.65465341E+03</pdfrwt>
<pdfrwt beam="2">  1       -1 0.14188323E+00 0.65465341E+03</pdfrwt>
<totfact> 0.57059365E+00</totfact>
</mgrwt>
</event>
<event>
 4    1  0.2293715E-008  0.1289144E+04  0.7818608E-02  0.9038218E-01
          1   -1    0    0  501    0  0.00000000000E+00  0.00000000000E+00  0.36649702816E+04  0.36649702816E+04  0.50400000000E-02 0. -1.
         -1   -1    0    0    0  501 -0.00000000000E+00 -0.00000000000E+00 -0.68475347234E+03  0.68475347236E+03  0.50400000000E-02 0.  1.
    8880022    1    1    2    0    0 -0.45653317771E+03 -0.11958589990E+04  0.22609255773E+03  0.13088203794E+04  0.15294330000E+03 0.  1.
    8880022    1    1    2    0    0  0.45653317771E+03  0.11958589990E+04  0.27541242515E+04  0.30409033746E+04  0.15294330000E+03 0.  0.
<mgrwt>
<rscale>  0 0.12891443E+04</rscale>
<asrwt>0</asrwt>
<pdfrwt beam="1">  1        1 0.56384158E+00 0.12891443E+04</pdfrwt>
<pdfrwt beam="2">  1       -1 0.10534669E+00 0.12891443E+04</pdfrwt>
<totfact> 0.15459357E-01</totfact>
</mgrwt>
</event>
<event>
 4    1  0.2293715E-008  0.8127835E+03  0.7818608E-02  0.9541696E-01
          1   -1    0    0  501    0  0.00000000000E+00  0.00000000000E+00  0.13185536981E+04  0.13185536981E+04  0.50400000000E-02 0. -1.
         -1   -1    0    0    0  501 -0.00000000000E+00 -0.00000000000E+00 -0.60043411068E+03  0.60043411070E+03  0.50400000000E-02 0.  1.
    8880022    1    1    2    0    0  0.73695894136E+03 -0.30678488075E+03  0.74948810697E+03  0.11055991678E+04  0.15294330000E+03 0.  0.
    8880022    1    1    2    0    0 -0.73695894136E+03  0.30678488075E+03 -0.31368519554E+02  0.81338864102E+03  0.15294330000E+03 0.  0.
<mgrwt>
<rscale>  0 0.81278355E+03</rscale>
<asrwt>0</asrwt>
<pdfrwt beam="1">  1        1 0.20285441E+00 0.81278355E+03</pdfrwt>
<pdfrwt beam="2">  1       -1 0.92374480E-01 0.81278355E+03</pdfrwt>
<totfact> 0.10272182E+01</totfact>
</mgrwt>
</event>
<event>
 4    1  0.2293715E-008  0.6487492E+03  0.7818608E-02  0.9809129E-01
          1   -1    0    0  501    0  0.00000000000E+00  0.00000000000E+00  0.20724479901E+04  0.20724479901E+04  0.50400000000E-02 0. -1.
         -1   -1    0    0    0  501 -0.00000000000E+00 -0.00000000000E+00 -0.40971285212E+03  0.40971285215E+03  0.50400000000E-02 0.  1.
    8880022    1    1    2    0    0 -0.17840419303E+03 -0.60469483791E+03 -0.50002680234E+02  0.65067336208E+03  0.15294330000E+03 0.  0.
    8880022    1    1    2    0    0  0.17840419303E+03  0.60469483791E+03  0.17127378182E+04  0.18314874802E+04  0.15294330000E+03 0.  0.
<mgrwt>
<rscale>  0 0.64874922E+03</rscale>
<asrwt>0</asrwt>
<pdfrwt beam="1">  1        1 0.31883815E+00 0.64874922E+03</pdfrwt>
<pdfrwt beam="2">  1       -1 0.63032747E-01 0.64874922E+03</pdfrwt>
<totfact> 0.72574744E+00</totfact>
</mgrwt>
</event>
<event>
 4    1  0.2293715E-008  0.9967067E+03  0.7818608E-02  0.9312164E-01
         -1   -1    0    0    0  501 -0.00000000000E+00  0.00000000000E+00  0.12173016847E+04  0.12173016847E+04  0.50400000000E-02 0.  1.
          1   -1    0    0  501    0  0.00000000000E+00 -0.00000000000E+00 -0.20681962528E+04  0.20681962528E+04  0.50400000000E-02 0. -1.
    8880022    1    1    2    0    0  0.94904436789E+03 -0.26333908788E+03 -0.17036401966E+04  0.19737817154E+04  0.15294330000E+03 0.  0.
    8880022    1    1    2    0    0 -0.94904436789E+03  0.26333908788E+03  0.85274562852E+03  0.13117162221E+04  0.15294330000E+03 0.  0.
<mgrwt>
<rscale>  0 0.99670675E+03</rscale>
<asrwt>0</asrwt>
<pdfrwt beam="1">  1        1 0.31818404E+00 0.99670675E+03</pdfrwt>
<pdfrwt beam="2">  1       -1 0.18727718E+00 0.99670675E+03</pdfrwt>
<totfact> 0.50140583E-01</totfact>
</mgrwt>
</event>
<event>
 4    1  0.2293715E-008  0.8486739E+03  0.7818608E-02  0.9492118E-01
          1   -1    0    0  501    0  0.00000000000E+00  0.00000000000E+00  0.18876094853E+04  0.18876094854E+04  0.50400000000E-02 0. -1.
         -1   -1    0    0    0  501 -0.00000000000E+00 -0.00000000000E+00 -0.44119333582E+03  0.44119333585E+03  0.50400000000E-02 0.  1.
    8880022    1    1    2    0    0  0.80007507833E+03 -0.23819249480E+03  0.11512745805E+04  0.14302729139E+04  0.15294330000E+03 0.  0.
    8880022    1    1    2    0    0 -0.80007507833E+03  0.23819249480E+03  0.29514156906E+03  0.89852990731E+03  0.15294330000E+03 0.  0.
<mgrwt>
<rscale>  0 0.84867394E+03</rscale>
<asrwt>0</asrwt>
<pdfrwt beam="1">  1        1 0.29040146E+00 0.84867394E+03</pdfrwt>
<pdfrwt beam="2">  1       -1 0.67875898E-01 0.84867394E+03</pdfrwt>
<totfact> 0.80402727E+00</totfact>
</mgrwt>
</event>
<event>
 4    1  0.2293715E-008  0.6608247E+03  0.7818608E-02  0.9786677E-01
         -1   -1    0    0    0  501 -0.00000000000E+00  0.00000000000E+00  0.30775192019E+03  0.30775192023E+03  0.50400000000E-02 0.  1.
          1   -1    0    0  501    0  0.00000000000E+00 -0.00000000000E+00 -0.17805284494E+04  0.17805284494E+04  0.50400000000E-02 0. -1.
    8880022    1    1    2    0    0  0.64027631980E+03  0.57825645820E+02 -0.12069066219E+04  0.13759770412E+04  0.15294330000E+03 0.  0.
    8880022    1    1    2    0    0 -0.64027631980E+03 -0.57825645820E+02 -0.26586990731E+03  0.71230332839E+03  0.15294330000E+03 0.  0.
<mgrwt>
<rscale>  0 0.66082465E+03</rscale>
<asrwt>0</asrwt>
<pdfrwt beam="1">  1        1 0.27392745E+00 0.66082465E+03</pdfrwt>
<pdfrwt beam="2">  1       -1 0.47346450E-01 0.66082465E+03</pdfrwt>
<totfact> 0.19668706E+01</totfact>
</mgrwt>
</event>
<event>
 4    1  0.2293715E-008  0.1623072E+04  0.7818608E-02  0.8806498E-01
         -1   -1    0    0    0  501 -0.00000000000E+00  0.00000000000E+00  0.23343554254E+04  0.23343554254E+04  0.50400000000E-02 0.  1.
          1   -1    0    0  501    0  0.00000000000E+00 -0.00000000000E+00 -0.24960316573E+04  0.24960316573E+04  0.50400000000E-02 0. -1.
    8880022    1    1    2    0    0 -0.78057129108E+02 -0.16139639022E+04 -0.18685297135E+04  0.24750287546E+04  0.15294330000E+03 0.  0.
    8880022    1    1    2    0    0  0.78057129108E+02  0.16139639022E+04  0.17068534816E+04  0.23553583281E+04  0.15294330000E+03 0.  0.
<mgrwt>
<rscale>  0 0.16230724E+04</rscale>
<asrwt>0</asrwt>
<pdfrwt beam="1">  1        1 0.38400487E+00 0.16230724E+04</pdfrwt>
<pdfrwt beam="2">  1       -1 0.35913160E+00 0.16230724E+04</pdfrwt>
<totfact> 0.17086243E-02</totfact>
</mgrwt>
</event>
<event>
 4    1  0.2293715E-008  0.5163294E+03  0.7818608E-02  0.1009602E+00
         -1   -1    0    0    0  501 -0.00000000000E+00  0.00000000000E+00  0.21332965551E+03  0.21332965557E+03  0.50400000000E-02 0.  1.
          1   -1    0    0  501    0  0.00000000000E+00 -0.00000000000E+00 -0.16276560872E+04  0.16276560872E+04  0.50400000000E-02 0. -1.
    8880022    1    1    2    0    0 -0.40575376476E+03 -0.28030024552E+03 -0.26358995423E+03  0.57972033106E+03  0.15294330000E+03 0. -1.
    8880022    1    1    2    0    0  0.40575376476E+03  0.28030024552E+03 -0.11507364775E+04  0.12612654117E+04  0.15294330000E+03 0.  1.
<mgrwt>
<rscale>  0 0.51632935E+03</rscale>
<asrwt>0</asrwt>
<pdfrwt beam="1">  1        1 0.25040862E+00 0.51632935E+03</pdfrwt>
<pdfrwt beam="2">  1       -1 0.32819948E-01 0.51632935E+03</pdfrwt>
<totfact> 0.49407288E+01</totfact>
</mgrwt>
</event>
<event>
 4    1  0.2293715E-008  0.5865075E+03  0.7818608E-02  0.9933801E-01
         -1   -1    0    0    0  501 -0.00000000000E+00  0.00000000000E+00  0.92904820633E+03  0.92904820634E+03  0.50400000000E-02 0.  1.
          1   -1    0    0  501    0  0.00000000000E+00 -0.00000000000E+00 -0.62614397503E+03  0.62614397505E+03  0.50400000000E-02 0. -1.
    8880022    1    1    2    0    0  0.34481257001E+03 -0.44911429293E+03 -0.34564017698E+03  0.68077760062E+03  0.15294330000E+03 0.  0.
    8880022    1    1    2    0    0 -0.34481257001E+03  0.44911429293E+03  0.64854440828E+03  0.87441458077E+03  0.15294330000E+03 0.  0.
<mgrwt>
<rscale>  0 0.58650747E+03</rscale>
<asrwt>0</asrwt>
<pdfrwt beam="1">  1        1 0.96329842E-01 0.58650747E+03</pdfrwt>
<pdfrwt beam="2">  1       -1 0.14293049E+00 0.58650747E+03</pdfrwt>
<totfact> 0.13441336E+01</totfact>
</mgrwt>
</event>
<event>
 4    1  0.2293715E-008  0.7247457E+03  0.7818608E-02  0.9675825E-01
         -1   -1    0    0    0  501 -0.00000000000E+00  0.00000000000E+00  0.48524404134E+03  0.48524404137E+03  0.50400000000E-02 0.  1.
          1   -1    0    0  501    0  0.00000000000E+00 -0.00000000000E+00 -0.17467872862E+04  0.17467872862E+04  0.50400000000E-02 0. -1.
    8880022    1    1    2    0    0  0.48779620092E+03 -0.51373097416E+03  0.57471648870E+02  0.72702083249E+03  0.15294330000E+03 0.  0.
    8880022    1    1    2    0    0 -0.48779620092E+03  0.51373097416E+03 -0.13190148938E+04  0.15050104951E+04  0.15294330000E+03 0.  0.
<mgrwt>
<rscale>  0 0.72474568E+03</rscale>
<asrwt>0</asrwt>
<pdfrwt beam="1">  1        1 0.26873650E+00 0.72474568E+03</pdfrwt>
<pdfrwt beam="2">  1       -1 0.74652931E-01 0.72474568E+03</pdfrwt>
<totfact> 0.83723502E+00</totfact>
</mgrwt>
</event>
<event>
 4    1  0.2293715E-008  0.5724013E+03  0.7818608E-02  0.9964379E-01
          1   -1    0    0  501    0  0.00000000000E+00  0.00000000000E+00  0.65343402432E+03  0.65343402434E+03  0.50400000000E-02 0. -1.
         -1   -1    0    0    0  501 -0.00000000000E+00 -0.00000000000E+00 -0.10761518860E+04  0.10761518860E+04  0.50400000000E-02 0.  1.
    8880022    1    1    2    0    0 -0.26633611809E+03  0.48302865625E+03  0.42062923089E+03  0.71033246684E+03  0.15294330000E+03 0.  0.
    8880022    1    1    2    0    0  0.26633611809E+03 -0.48302865625E+03 -0.84334709256E+03  0.10192534435E+04  0.15294330000E+03 0.  0.
<mgrwt>
<rscale>  0 0.57240131E+03</rscale>
<asrwt>0</asrwt>
<pdfrwt beam="1">  1        1 0.10052831E+00 0.57240131E+03</pdfrwt>
<pdfrwt beam="2">  1       -1 0.16556183E+00 0.57240131E+03</pdfrwt>
<totfact> 0.85054158E+00</totfact>
</mgrwt>
</event>
<event>
 4    1  0.2293715E-008  0.4851220E+03  0.7818608E-02  0.1017737E+00
         -1   -1    0    0    0  501 -0.00000000000E+00  0.00000000000E+00  0.32399051036E+03  0.32399051040E+03  0.50400000000E-02 0.  1.
          1   -1    0    0  501    0  0.00000000000E+00 -0.00000000000E+00 -0.92430273318E+03  0.92430273320E+03  0.50400000000E-02 0. -1.
    8880022    1    1    2    0    0  0.39639570304E+03  0.23414138847E+03 -0.11343194310E+02  0.48525463858E+03  0.15294330000E+03 0.  0.
    8880022    1    1    2    0    0 -0.39639570304E+03 -0.23414138847E+03 -0.58896902852E+03  0.76303860502E+03  0.15294330000E+03 0.  0.
<mgrwt>
<rscale>  0 0.48512204E+03</rscale>
<asrwt>0</asrwt>
<pdfrwt beam="1">  1        1 0.14220042E+00 0.48512204E+03</pdfrwt>
<pdfrwt beam="2">  1       -1 0.49844694E-01 0.48512204E+03</pdfrwt>
<totfact> 0.73755597E+01</totfact>
</mgrwt>
</event>
<event>
 4    1  0.2293715E-008  0.9529994E+03  0.7818608E-02  0.9361652E-01
          1   -1    0    0  501    0  0.00000000000E+00  0.00000000000E+00  0.16799068833E+04  0.16799068833E+04  0.50400000000E-02 0. -1.
         -1   -1    0    0    0  501 -0.00000000000E+00 -0.00000000000E+00 -0.10116666933E+04  0.10116666933E+04  0.50400000000E-02 0.  1.
    8880022    1    1    2    0    0  0.85177197436E+03 -0.39912493954E+03 -0.58418069264E+03  0.11177991538E+04  0.15294330000E+03 0.  0.
    8880022    1    1    2    0    0 -0.85177197436E+03  0.39912493954E+03  0.12524208826E+04  0.15737744228E+04  0.15294330000E+03 0.  0.
<mgrwt>
<rscale>  0 0.95299941E+03</rscale>
<asrwt>0</asrwt>
<pdfrwt beam="1">  1        1 0.25844721E+00 0.95299941E+03</pdfrwt>
<pdfrwt beam="2">  1       -1 0.15564103E+00 0.95299941E+03</pdfrwt>
<totfact> 0.15745238E+00</totfact>
</mgrwt>
</event>
<event>
 4    1  0.2781599E-008  0.4653469E+03  0.7818608E-02  0.1023242E+00
         -1   -1    0    0    0  501 -0.00000000000E+00  0.00000000000E+00  0.19497066519E+04  0.19497066520E+04  0.50400000000E-02 0.  1.
          1   -1    0    0  501    0  0.00000000000E+00 -0.00000000000E+00 -0.11159574825E+04  0.11159574825E+04  0.50400000000E-02 0. -1.
    8880022    1    1    2    0    0 -0.92423924637E+02  0.42966717805E+03  0.18714296211E+04  0.19284181459E+04  0.15294330000E+03 0.  0.
    8880022    1    1    2    0    0  0.92423924637E+02 -0.42966717805E+03 -0.10376804517E+04  0.11372459886E+04  0.15294330000E+03 0.  0.
<mgrwt>
<rscale>  0 0.46534688E+03</rscale>
<asrwt>0</asrwt>
<pdfrwt beam="1">  1        1 0.17168577E+00 0.46534688E+03</pdfrwt>
<pdfrwt beam="2">  1       -1 0.29995487E+00 0.46534688E+03</pdfrwt>
<totfact> 0.47079287E-01</totfact>
</mgrwt>
</event>
<event>
 4    1  0.2293715E-008  0.3200983E+03  0.7818608E-02  0.1075604E+00
          1   -1    0    0  501    0  0.00000000000E+00  0.00000000000E+00  0.22821248073E+03  0.22821248078E+03  0.50400000000E-02 0. -1.
         -1   -1    0    0    0  501 -0.00000000000E+00 -0.00000000000E+00 -0.96333632401E+03  0.96333632402E+03  0.50400000000E-02 0.  1.
    8880022    1    1    2    0    0  0.51766330764E+02 -0.27639018715E+03 -0.80289806435E+03  0.86435423485E+03  0.15294330000E+03 0.  0.
    8880022    1    1    2    0    0 -0.51766330764E+02  0.27639018715E+03  0.67774221068E+02  0.32719456996E+03  0.15294330000E+03 0.  0.
<mgrwt>
<rscale>  0 0.32009833E+03</rscale>
<asrwt>0</asrwt>
<pdfrwt beam="1">  1        1 0.35109613E-01 0.32009833E+03</pdfrwt>
<pdfrwt beam="2">  1       -1 0.14820559E+00 0.32009833E+03</pdfrwt>
<totfact> 0.48375686E+01</totfact>
</mgrwt>
</event>
<event>
 4    1  0.2293715E-008  0.1921209E+04  0.7818608E-02  0.8644371E-01
          1   -1    0    0  501    0  0.00000000000E+00  0.00000000000E+00  0.26087995120E+04  0.26087995120E+04  0.50400000000E-02 0. -1.
         -1   -1    0    0    0  501 -0.00000000000E+00 -0.00000000000E+00 -0.24258968183E+04  0.24258968183E+04  0.50400000000E-02 0.  1.
    8880022    1    1    2    0    0  0.79814157105E+03 -0.17408678762E+04  0.17166041054E+04  0.25763874394E+04  0.15294330000E+03 0.  0.
    8880022    1    1    2    0    0 -0.79814157105E+03  0.17408678762E+04 -0.15337014117E+04  0.24583088910E+04  0.15294330000E+03 0.  0.
<mgrwt>
<rscale>  0 0.19212086E+04</rscale>
<asrwt>0</asrwt>
<pdfrwt beam="1">  1        1 0.40135377E+00 0.19212086E+04</pdfrwt>
<pdfrwt beam="2">  1       -1 0.37321490E+00 0.19212086E+04</pdfrwt>
<totfact> 0.11030156E-02</totfact>
</mgrwt>
</event>
<event>
 4    1  0.2293715E-008  0.3925505E+03  0.7818608E-02  0.1046390E+00
          1   -1    0    0  501    0  0.00000000000E+00  0.00000000000E+00  0.36498059830E+03  0.36498059833E+03  0.50400000000E-02 0. -1.
         -1   -1    0    0    0  501 -0.00000000000E+00 -0.00000000000E+00 -0.16589939142E+04  0.16589939142E+04  0.50400000000E-02 0.  1.
    8880022    1    1    2    0    0  0.33960164652E+03 -0.12399578338E+03 -0.15207840402E+04  0.15706304411E+04  0.15294330000E+03 0.  0.
    8880022    1    1    2    0    0 -0.33960164652E+03  0.12399578338E+03  0.22677072434E+03  0.45334407138E+03  0.15294330000E+03 0.  0.
<mgrwt>
<rscale>  0 0.39255049E+03</rscale>
<asrwt>0</asrwt>
<pdfrwt beam="1">  1        1 0.56150862E-01 0.39255049E+03</pdfrwt>
<pdfrwt beam="2">  1       -1 0.25522983E+00 0.39255049E+03</pdfrwt>
<totfact> 0.48776561E+00</totfact>
</mgrwt>
</event>
<event>
 4    1  0.2293715E-008  0.3425906E+03  0.7818608E-02  0.1065698E+00
         -1   -1    0    0    0  501 -0.00000000000E+00  0.00000000000E+00  0.27619203336E+03  0.27619203340E+03  0.50400000000E-02 0.  1.
          1   -1    0    0  501    0  0.00000000000E+00 -0.00000000000E+00 -0.20286310657E+04  0.20286310657E+04  0.50400000000E-02 0. -1.
    8880022    1    1    2    0    0 -0.21954403037E+03 -0.21395576142E+03 -0.19008442214E+04  0.19314701799E+04  0.15294330000E+03 0. -1.
    8880022    1    1    2    0    0  0.21954403037E+03  0.21395576142E+03  0.14840518901E+03  0.37335291917E+03  0.15294330000E+03 0.  0.
<mgrwt>
<rscale>  0 0.34259058E+03</rscale>
<asrwt>0</asrwt>
<pdfrwt beam="1">  1        1 0.31209708E+00 0.34259058E+03</pdfrwt>
<pdfrwt beam="2">  1       -1 0.42491083E-01 0.34259058E+03</pdfrwt>
<totfact> 0.17673774E+01</totfact>
</mgrwt>
</event>
<event>
 4    1  0.3289308E-008  0.6307248E+03  0.7818608E-02  0.9843635E-01
          1   -1    0    0  501    0  0.00000000000E+00  0.00000000000E+00  0.16986875622E+04  0.16986875622E+04  0.50400000000E-02 0. -1.
         -1   -1    0    0    0  501 -0.00000000000E+00 -0.00000000000E+00 -0.11019278922E+04  0.11019278922E+04  0.50400000000E-02 0.  1.
    8880022    1    1    2    0    0  0.35358473268E+03 -0.49939963542E+03 -0.94424905935E+03  0.11355263529E+04  0.15294330000E+03 0.  0.
    8880022    1    1    2    0    0 -0.35358473268E+03  0.49939963542E+03  0.15410087293E+04  0.16650891015E+04  0.15294330000E+03 0. -1.
<mgrwt>
<rscale>  0 0.63072483E+03</rscale>
<asrwt>0</asrwt>
<pdfrwt beam="1">  1        1 0.26133655E+00 0.63072483E+03</pdfrwt>
<pdfrwt beam="2">  1       -1 0.16952737E+00 0.63072483E+03</pdfrwt>
<totfact> 0.12813334E+00</totfact>
</mgrwt>
</event>
<event>
 4    1  0.2293715E-008  0.2133233E+03  0.7818608E-02  0.1138961E+00
          1   -1    0    0  501    0  0.00000000000E+00  0.00000000000E+00  0.15838109493E+04  0.15838109493E+04  0.50400000000E-02 0. -1.
         -1   -1    0    0    0  501 -0.00000000000E+00 -0.00000000000E+00 -0.94997011908E+02  0.94997012041E+02  0.50400000000E-02 0.  1.
    8880022    1    1    2    0    0  0.36119409609E+02 -0.14425868606E+03  0.43344715388E+02  0.21768233190E+03  0.15294330000E+03 0.  1.
    8880022    1    1    2    0    0 -0.36119409609E+02  0.14425868606E+03  0.14454692220E+04  0.14611256295E+04  0.15294330000E+03 0.  0.
<mgrwt>
<rscale>  0 0.21332331E+03</rscale>
<asrwt>0</asrwt>
<pdfrwt beam="1">  1        1 0.24366324E+00 0.21332331E+03</pdfrwt>
<pdfrwt beam="2">  1       -1 0.14614924E-01 0.21332331E+03</pdfrwt>
<totfact> 0.21495612E+02</totfact>
</mgrwt>
</event>
<event>
 4    1  0.2293715E-008  0.5103680E+03  0.7818608E-02  0.1011108E+00
         -1   -1    0    0    0  501 -0.00000000000E+00  0.00000000000E+00  0.74892479331E+03  0.74892479332E+03  0.50400000000E-02 0.  1.
          1   -1    0    0  501    0  0.00000000000E+00 -0.00000000000E+00 -0.14779335086E+04  0.14779335086E+04  0.50400000000E-02 0. -1.
    8880022    1    1    2    0    0 -0.47078792846E+03 -0.12426832078E+03  0.60913953522E+03  0.79468642590E+03  0.15294330000E+03 0.  0.
    8880022    1    1    2    0    0  0.47078792846E+03  0.12426832078E+03 -0.13381482505E+04  0.14321718760E+04  0.15294330000E+03 0.  0.
<mgrwt>
<rscale>  0 0.51036805E+03</rscale>
<asrwt>0</asrwt>
<pdfrwt beam="1">  1        1 0.22737439E+00 0.51036805E+03</pdfrwt>
<pdfrwt beam="2">  1       -1 0.11521920E+00 0.51036805E+03</pdfrwt>
<totfact> 0.50650156E+00</totfact>
</mgrwt>
</event>
<event>
 4    1  0.2293715E-008  0.7208558E+03  0.7818608E-02  0.9682216E-01
          1   -1    0    0  501    0  0.00000000000E+00  0.00000000000E+00  0.22773855256E+04  0.22773855256E+04  0.50400000000E-02 0. -1.
         -1   -1    0    0    0  501 -0.00000000000E+00 -0.00000000000E+00 -0.25255319006E+03  0.25255319011E+03  0.50400000000E-02 0.  1.
    8880022    1    1    2    0    0 -0.66158027535E+03 -0.24197711538E+03  0.61937224572E+03  0.95039729423E+03  0.15294330000E+03 0.  0.
    8880022    1    1    2    0    0  0.66158027535E+03  0.24197711538E+03  0.14054600899E+04  0.15795414215E+04  0.15294330000E+03 0.  0.
<mgrwt>
<rscale>  0 0.72085577E+03</rscale>
<asrwt>0</asrwt>
<pdfrwt beam="1">  1        1 0.35036699E+00 0.72085577E+03</pdfrwt>
<pdfrwt beam="2">  1       -1 0.38854338E-01 0.72085577E+03</pdfrwt>
<totfact> 0.13043680E+01</totfact>
</mgrwt>
</event>
<event>
 4    1  0.2293715E-008  0.3727587E+03  0.7818608E-02  0.1053643E+00
         -1   -1    0    0    0  501 -0.00000000000E+00  0.00000000000E+00  0.76094387929E+03  0.76094387930E+03  0.50400000000E-02 0.  1.
          1   -1    0    0  501    0  0.00000000000E+00 -0.00000000000E+00 -0.91258792187E+03  0.91258792188E+03  0.50400000000E-02 0. -1.
    8880022    1    1    2    0    0  0.38834725390E+02  0.33771184553E+03 -0.82420546037E+03  0.90457930577E+03  0.15294330000E+03 0.  0.
    8880022    1    1    2    0    0 -0.38834725390E+02 -0.33771184553E+03  0.67256141779E+03  0.76895249542E+03  0.15294330000E+03 0.  0.
<mgrwt>
<rscale>  0 0.37275874E+03</rscale>
<asrwt>0</asrwt>
<pdfrwt beam="1">  1        1 0.14039814E+00 0.37275874E+03</pdfrwt>
<pdfrwt beam="2">  1       -1 0.11706829E+00 0.37275874E+03</pdfrwt>
<totfact> 0.12917377E+01</totfact>
</mgrwt>
</event>
<event>
 4    1  0.2293715E-008  0.3263690E+03  0.7818608E-02  0.1072755E+00
         -1   -1    0    0    0  501 -0.00000000000E+00  0.00000000000E+00  0.36703019187E+03  0.36703019190E+03  0.50400000000E-02 0.  1.
          1   -1    0    0  501    0  0.00000000000E+00 -0.00000000000E+00 -0.13348023312E+04  0.13348023312E+04  0.50400000000E-02 0. -1.
    8880022    1    1    2    0    0 -0.27357741964E+03  0.90997125369E+02 -0.12366369128E+04  0.12789791197E+04  0.15294330000E+03 0.  0.
    8880022    1    1    2    0    0  0.27357741964E+03 -0.90997125369E+02  0.26886477349E+03  0.42285340344E+03  0.15294330000E+03 0.  0.
<mgrwt>
<rscale>  0 0.32636902E+03</rscale>
<asrwt>0</asrwt>
<pdfrwt beam="1">  1        1 0.20535420E+00 0.32636902E+03</pdfrwt>
<pdfrwt beam="2">  1       -1 0.56466184E-01 0.32636902E+03</pdfrwt>
<totfact> 0.30160676E+01</totfact>
</mgrwt>
</event>
<event>
 4    1  0.2293715E-008  0.1009048E+04  0.7818608E-02  0.9298676E-01
         -1   -1    0    0    0  501 -0.00000000000E+00  0.00000000000E+00  0.83684393213E+03  0.83684393215E+03  0.50400000000E-02 0.  1.
          1   -1    0    0  501    0  0.00000000000E+00 -0.00000000000E+00 -0.25312538557E+04  0.25312538557E+04  0.50400000000E-02 0. -1.
    8880022    1    1    2    0    0 -0.68838595289E+03 -0.72174197759E+03 -0.20608115999E+04  0.22945855411E+04  0.15294330000E+03 0.  0.
    8880022    1    1    2    0    0  0.68838595289E+03  0.72174197759E+03  0.36640167634E+03  0.10735122467E+04  0.15294330000E+03 0.  0.
<mgrwt>
<rscale>  0 0.10090482E+04</rscale>
<asrwt>0</asrwt>
<pdfrwt beam="1">  1        1 0.38942367E+00 0.10090482E+04</pdfrwt>
<pdfrwt beam="2">  1       -1 0.12874522E+00 0.10090482E+04</pdfrwt>
<totfact> 0.68136677E-01</totfact>
</mgrwt>
</event>
<event>
 4    1  0.2293715E-008  0.5061655E+03  0.7818608E-02  0.1012182E+00
          1   -1    0    0  501    0  0.00000000000E+00  0.00000000000E+00  0.35009879292E+03  0.35009879296E+03  0.50400000000E-02 0. -1.
         -1   -1    0    0    0  501 -0.00000000000E+00 -0.00000000000E+00 -0.18006980453E+04  0.18006980454E+04  0.50400000000E-02 0.  1.
    8880022    1    1    2    0    0  0.27401011612E+03 -0.39715279098E+03 -0.15538451386E+04  0.16342087537E+04  0.15294330000E+03 0.  0.
    8880022    1    1    2    0    0 -0.27401011612E+03  0.39715279098E+03  0.10324588612E+03  0.51658808459E+03  0.15294330000E+03 0.  0.
<mgrwt>
<rscale>  0 0.50616552E+03</rscale>
<asrwt>0</asrwt>
<pdfrwt beam="1">  1        1 0.53861354E-01 0.50616552E+03</pdfrwt>
<pdfrwt beam="2">  1       -1 0.27703046E+00 0.50616552E+03</pdfrwt>
<totfact> 0.36396135E+00</totfact>
</mgrwt>
</event>
<event>
 4    1  0.2293715E-008  0.6882062E+03  0.7818608E-02  0.9737616E-01
         -1   -1    0    0    0  501 -0.00000000000E+00  0.00000000000E+00  0.50735946883E+03  0.50735946885E+03  0.50400000000E-02 0.  1.
          1   -1    0    0  501    0  0.00000000000E+00 -0.00000000000E+00 -0.16027957457E+04  0.16027957457E+04  0.50400000000E-02 0. -1.
    8880022    1    1    2    0    0 -0.16748483502E+03 -0.64975762768E+03 -0.12295062154E+04  0.14090114732E+04  0.15294330000E+03 0.  0.
    8880022    1    1    2    0    0  0.16748483502E+03  0.64975762768E+03  0.13406993855E+03  0.70114374142E+03  0.15294330000E+03 0.  1.
<mgrwt>
<rscale>  0 0.68820622E+03</rscale>
<asrwt>0</asrwt>
<pdfrwt beam="1">  1        1 0.24658396E+00 0.68820622E+03</pdfrwt>
<pdfrwt beam="2">  1       -1 0.78055303E-01 0.68820622E+03</pdfrwt>
<totfact> 0.95923035E+00</totfact>
</mgrwt>
</event>
<event>
 4    1  0.2293715E-008  0.7415071E+03  0.7818608E-02  0.9648769E-01
          1   -1    0    0  501    0  0.00000000000E+00  0.00000000000E+00  0.45696385146E+03  0.45696385149E+03  0.50400000000E-02 0. -1.
         -1   -1    0    0    0  501 -0.00000000000E+00 -0.00000000000E+00 -0.15329409022E+04  0.15329409023E+04  0.50400000000E-02 0.  1.
    8880022    1    1    2    0    0 -0.24273559215E+03 -0.68375472255E+03 -0.76558278168E+02  0.74544879856E+03  0.15294330000E+03 0.  0.
    8880022    1    1    2    0    0  0.24273559215E+03  0.68375472255E+03 -0.99941877261E+03  0.12444559552E+04  0.15294330000E+03 0.  0.
<mgrwt>
<rscale>  0 0.74150707E+03</rscale>
<asrwt>0</asrwt>
<pdfrwt beam="1">  1        1 0.70302131E-01 0.74150707E+03</pdfrwt>
<pdfrwt beam="2">  1       -1 0.23583706E+00 0.74150707E+03</pdfrwt>
<totfact> 0.45056066E+00</totfact>
</mgrwt>
</event>
<event>
 4    1  0.2293715E-008  0.2145778E+03  0.7818608E-02  0.1137991E+00
         -1   -1    0    0    0  501 -0.00000000000E+00  0.00000000000E+00  0.23439073299E+03  0.23439073305E+03  0.50400000000E-02 0.  1.
          1   -1    0    0  501    0  0.00000000000E+00 -0.00000000000E+00 -0.41117701808E+03  0.41117701811E+03  0.50400000000E-02 0. -1.
    8880022    1    1    2    0    0 -0.12867721461E+03 -0.78065183405E+02 -0.32165898626E+03  0.38666284393E+03  0.15294330000E+03 0. -1.
    8880022    1    1    2    0    0  0.12867721461E+03  0.78065183405E+02  0.14487270118E+03  0.25890490722E+03  0.15294330000E+03 0.  0.
<mgrwt>
<rscale>  0 0.21457784E+03</rscale>
<asrwt>0</asrwt>
<pdfrwt beam="1">  1        1 0.63258003E-01 0.21457784E+03</pdfrwt>
<pdfrwt beam="2">  1       -1 0.36060113E-01 0.21457784E+03</pdfrwt>
<totfact> 0.43776545E+02</totfact>
</mgrwt>
</event>
<event>
 4    1  0.2293715E-008  0.3101547E+03  0.7818608E-02  0.1080272E+00
          1   -1    0    0  501    0  0.00000000000E+00  0.00000000000E+00  0.18639805167E+04  0.18639805167E+04  0.50400000000E-02 0. -1.
         -1   -1    0    0    0  501 -0.00000000000E+00 -0.00000000000E+00 -0.10894981336E+03  0.10894981348E+03  0.50400000000E-02 0.  1.
    8880022    1    1    2    0    0  0.26693281953E+03  0.39384748806E+02  0.16185828955E+03  0.34984860653E+03  0.15294330000E+03 0.  0.
    8880022    1    1    2    0    0 -0.26693281953E+03 -0.39384748806E+02  0.15931724138E+04  0.16230817236E+04  0.15294330000E+03 0.  0.
<mgrwt>
<rscale>  0 0.31015471E+03</rscale>
<asrwt>0</asrwt>
<pdfrwt beam="1">  1        1 0.28676623E+00 0.31015471E+03</pdfrwt>
<pdfrwt beam="2">  1       -1 0.16761510E-01 0.31015471E+03</pdfrwt>
<totfact> 0.11074788E+02</totfact>
</mgrwt>
</event>
<event>
 4    1  0.2293715E-008  0.4624622E+03  0.7818608E-02  0.1024070E+00
         -1   -1    0    0    0  501 -0.00000000000E+00  0.00000000000E+00  0.26850281252E+03  0.26850281257E+03  0.50400000000E-02 0.  1.
          1   -1    0    0  501    0  0.00000000000E+00 -0.00000000000E+00 -0.15407862459E+04  0.15407862459E+04  0.50400000000E-02 0. -1.
    8880022    1    1    2    0    0 -0.36563878855E+03  0.23830221289E+03 -0.12648760338E+04  0.13467675012E+04  0.15294330000E+03 0.  0.
    8880022    1    1    2    0    0  0.36563878855E+03 -0.23830221289E+03 -0.74073995591E+01  0.46252155728E+03  0.15294330000E+03 0.  0.
<mgrwt>
<rscale>  0 0.46246224E+03</rscale>
<asrwt>0</asrwt>
<pdfrwt beam="1">  1        1 0.23704403E+00 0.46246224E+03</pdfrwt>
<pdfrwt beam="2">  1       -1 0.41308126E-01 0.46246224E+03</pdfrwt>
<totfact> 0.37875679E+01</totfact>
</mgrwt>
</event>
<event>
 4    1  0.2293715E-008  0.1058494E+04  0.7818608E-02  0.9246618E-01
         -1   -1    0    0    0  501 -0.00000000000E+00  0.00000000000E+00  0.25195890425E+04  0.25195890425E+04  0.50400000000E-02 0.  1.
          1   -1    0    0  501    0  0.00000000000E+00 -0.00000000000E+00 -0.58702153195E+03  0.58702153197E+03  0.50400000000E-02 0. -1.
    8880022    1    1    2    0    0  0.58818620150E+03 -0.86663461413E+03  0.20139899093E+03  0.10774839992E+04  0.15294330000E+03 0.  0.
    8880022    1    1    2    0    0 -0.58818620150E+03  0.86663461413E+03  0.17311685197E+04  0.20291265753E+04  0.15294330000E+03 0.  0.
<mgrwt>
<rscale>  0 0.10584943E+04</rscale>
<asrwt>0</asrwt>
<pdfrwt beam="1">  1        1 0.90311006E-01 0.10584943E+04</pdfrwt>
<pdfrwt beam="2">  1       -1 0.38762908E+00 0.10584943E+04</pdfrwt>
<totfact> 0.31179846E-01</totfact>
</mgrwt>
</event>
<event>
 4    1  0.2293715E-008  0.3989845E+03  0.7818608E-02  0.1044132E+00
          1   -1    0    0  501    0  0.00000000000E+00  0.00000000000E+00  0.16486682152E+04  0.16486682152E+04  0.50400000000E-02 0. -1.
         -1   -1    0    0    0  501 -0.00000000000E+00 -0.00000000000E+00 -0.16466477976E+03  0.16466477984E+03  0.50400000000E-02 0.  1.
    8880022    1    1    2    0    0 -0.13193354108E+03  0.34407925433E+03  0.15889361827E+03  0.42945992533E+03  0.15294330000E+03 0.  0.
    8880022    1    1    2    0    0  0.13193354108E+03 -0.34407925433E+03  0.13251098172E+04  0.13838730697E+04  0.15294330000E+03 0.  0.
<mgrwt>
<rscale>  0 0.39898452E+03</rscale>
<asrwt>0</asrwt>
<pdfrwt beam="1">  1        1 0.25364125E+00 0.39898452E+03</pdfrwt>
<pdfrwt beam="2">  1       -1 0.25333044E-01 0.39898452E+03</pdfrwt>
<totfact> 0.76230923E+01</totfact>
</mgrwt>
</event>
<event>
 4    1  0.2293715E-008  0.7403131E+03  0.7818608E-02  0.9650671E-01
          1   -1    0    0  501    0  0.00000000000E+00  0.00000000000E+00  0.10113173080E+04  0.10113173081E+04  0.50400000000E-02 0. -1.
         -1   -1    0    0    0  501 -0.00000000000E+00 -0.00000000000E+00 -0.70120303944E+03  0.70120303946E+03  0.50400000000E-02 0.  1.
    8880022    1    1    2    0    0  0.58734616300E+01  0.72431856546E+03 -0.25303151663E+03  0.78236083954E+03  0.15294330000E+03 0.  0.
    8880022    1    1    2    0    0 -0.58734616300E+01 -0.72431856546E+03  0.56314578524E+03  0.93015950798E+03  0.15294330000E+03 0.  0.
<mgrwt>
<rscale>  0 0.74031313E+03</rscale>
<asrwt>0</asrwt>
<pdfrwt beam="1">  1        1 0.15558728E+00 0.74031313E+03</pdfrwt>
<pdfrwt beam="2">  1       -1 0.10787739E+00 0.74031313E+03</pdfrwt>
<totfact> 0.12239013E+01</totfact>
</mgrwt>
</event>
<event>
 4    1  0.2293715E-008  0.4773057E+03  0.7818608E-02  0.1019878E+00
          1   -1    0    0  501    0  0.00000000000E+00  0.00000000000E+00  0.10168129291E+04  0.10168129291E+04  0.50400000000E-02 0. -1.
         -1   -1    0    0    0  501 -0.00000000000E+00 -0.00000000000E+00 -0.49833118435E+03  0.49833118438E+03  0.50400000000E-02 0.  1.
    8880022    1    1    2    0    0  0.45120245322E+03 -0.29076435224E+02  0.82127146629E+03  0.94989871420E+03  0.15294330000E+03 0.  0.
    8880022    1    1    2    0    0 -0.45120245322E+03  0.29076435224E+02 -0.30278972157E+03  0.56524539926E+03  0.15294330000E+03 0.  0.
<mgrwt>
<rscale>  0 0.47730572E+03</rscale>
<asrwt>0</asrwt>
<pdfrwt beam="1">  1        1 0.15643276E+00 0.47730572E+03</pdfrwt>
<pdfrwt beam="2">  1       -1 0.76666336E-01 0.47730572E+03</pdfrwt>
<totfact> 0.26796671E+01</totfact>
</mgrwt>
</event>
<event>
 4    1  0.2293715E-008  0.2773659E+03  0.7818608E-02  0.1097136E+00
          1   -1    0    0  501    0  0.00000000000E+00  0.00000000000E+00  0.49815880189E+03  0.49815880191E+03  0.50400000000E-02 0. -1.
         -1   -1    0    0    0  501 -0.00000000000E+00 -0.00000000000E+00 -0.11110769103E+04  0.11110769103E+04  0.50400000000E-02 0.  1.
    8880022    1    1    2    0    0 -0.23132944879E+03  0.51836036937E+01 -0.10530675150E+04  0.10889825654E+04  0.15294330000E+03 0.  0.
    8880022    1    1    2    0    0  0.23132944879E+03 -0.51836036937E+01  0.44014940659E+03  0.52025314680E+03  0.15294330000E+03 0. -1.
<mgrwt>
<rscale>  0 0.27736589E+03</rscale>
<asrwt>0</asrwt>
<pdfrwt beam="1">  1        1 0.76639816E-01 0.27736589E+03</pdfrwt>
<pdfrwt beam="2">  1       -1 0.17093491E+00 0.27736589E+03</pdfrwt>
<totfact> 0.12189602E+01</totfact>
</mgrwt>
</event>
<event>
 4    1  0.2293715E-008  0.6089139E+03  0.7818608E-02  0.9887083E-01
          1   -1    0    0  501    0  0.00000000000E+00  0.00000000000E+00  0.63932942418E+03  0.63932942420E+03  0.50400000000E-02 0. -1.
         -1   -1    0    0    0  501 -0.00000000000E+00 -0.00000000000E+00 -0.73815696114E+03  0.73815696116E+03  0.50400000000E-02 0.  1.
    8880022    1    1    2    0    0 -0.19347959189E+03 -0.55673161577E+03 -0.36827535224E+03  0.71161986521E+03  0.15294330000E+03 0.  0.
    8880022    1    1    2    0    0  0.19347959189E+03  0.55673161577E+03  0.26944781528E+03  0.66586652015E+03  0.15294330000E+03 0.  0.
<mgrwt>
<rscale>  0 0.60891387E+03</rscale>
<asrwt>0</asrwt>
<pdfrwt beam="1">  1        1 0.98358373E-01 0.60891387E+03</pdfrwt>
<pdfrwt beam="2">  1       -1 0.11356261E+00 0.60891387E+03</pdfrwt>
<totfact> 0.23039256E+01</totfact>
</mgrwt>
</event>
<event>
 4    1  0.2293715E-008  0.2833794E+03  0.7818608E-02  0.1093857E+00
         -1   -1    0    0    0  501 -0.00000000000E+00  0.00000000000E+00  0.10322041484E+03  0.10322041496E+03  0.50400000000E-02 0.  1.
          1   -1    0    0  501    0  0.00000000000E+00 -0.00000000000E+00 -0.32634904001E+04  0.32634904001E+04  0.50400000000E-02 0. -1.
    8880022    1    1    2    0    0  0.23470313956E+03 -0.42739315674E+02 -0.11106643961E+03  0.30436757358E+03  0.15294330000E+03 0.  0.
    8880022    1    1    2    0    0 -0.23470313956E+03  0.42739315674E+02 -0.30492035457E+04  0.30623432415E+04  0.15294330000E+03 0. -1.
<mgrwt>
<rscale>  0 0.28337937E+03</rscale>
<asrwt>0</asrwt>
<pdfrwt beam="1">  1        1 0.50207537E+00 0.28337937E+03</pdfrwt>
<pdfrwt beam="2">  1       -1 0.15880066E-01 0.28337937E+03</pdfrwt>
<totfact> 0.13770428E+01</totfact>
</mgrwt>
</event>
<event>
 4    1  0.2293715E-008  0.8008141E+03  0.7818608E-02  0.9558839E-01
          1   -1    0    0  501    0  0.00000000000E+00  0.00000000000E+00  0.65909466356E+03  0.65909466358E+03  0.50400000000E-02 0. -1.
         -1   -1    0    0    0  501 -0.00000000000E+00 -0.00000000000E+00 -0.15153631987E+04  0.15153631987E+04  0.50400000000E-02 0.  1.
    8880022    1    1    2    0    0  0.46881428554E+03  0.63097131095E+03  0.22230268001E+03  0.83109672368E+03  0.15294330000E+03 0.  0.
    8880022    1    1    2    0    0 -0.46881428554E+03 -0.63097131095E+03 -0.10785712152E+04  0.13433611386E+04  0.15294330000E+03 0.  0.
<mgrwt>
<rscale>  0 0.80081414E+03</rscale>
<asrwt>0</asrwt>
<pdfrwt beam="1">  1        1 0.10139918E+00 0.80081414E+03</pdfrwt>
<pdfrwt beam="2">  1       -1 0.23313280E+00 0.80081414E+03</pdfrwt>
<totfact> 0.27758007E+00</totfact>
</mgrwt>
</event>
<event>
 4    1  0.2293715E-008  0.1108547E+04  0.7818608E-02  0.9196901E-01
          1   -1    0    0  501    0  0.00000000000E+00  0.00000000000E+00  0.10035942105E+04  0.10035942106E+04  0.50400000000E-02 0. -1.
         -1   -1    0    0    0  501 -0.00000000000E+00 -0.00000000000E+00 -0.23181949429E+04  0.23181949429E+04  0.50400000000E-02 0.  1.
    8880022    1    1    2    0    0 -0.65033338730E+03 -0.88461900610E+03 -0.17981283585E+04  0.21123781733E+04  0.15294330000E+03 0.  0.
    8880022    1    1    2    0    0  0.65033338730E+03  0.88461900610E+03  0.48352762613E+03  0.12094109801E+04  0.15294330000E+03 0.  0.
<mgrwt>
<rscale>  0 0.11085468E+04</rscale>
<asrwt>0</asrwt>
<pdfrwt beam="1">  1        1 0.15439911E+00 0.11085468E+04</pdfrwt>
<pdfrwt beam="2">  1       -1 0.35664538E+00 0.11085468E+04</pdfrwt>
<totfact> 0.21169451E-01</totfact>
</mgrwt>
</event>
<event>
 4    1  0.2293715E-008  0.3931506E+03  0.7818608E-02  0.1046178E+00
         -1   -1    0    0    0  501 -0.00000000000E+00  0.00000000000E+00  0.35843409303E+03  0.35843409307E+03  0.50400000000E-02 0.  1.
          1   -1    0    0  501    0  0.00000000000E+00 -0.00000000000E+00 -0.10052522284E+04  0.10052522284E+04  0.50400000000E-02 0. -1.
    8880022    1    1    2    0    0  0.32150282471E+03  0.16676837712E+03 -0.83865129786E+03  0.92623075436E+03  0.15294330000E+03 0.  0.
    8880022    1    1    2    0    0 -0.32150282471E+03 -0.16676837712E+03  0.19183316254E+03  0.43745556708E+03  0.15294330000E+03 0.  0.
<mgrwt>
<rscale>  0 0.39315062E+03</rscale>
<asrwt>0</asrwt>
<pdfrwt beam="1">  1        1 0.15465419E+00 0.39315062E+03</pdfrwt>
<pdfrwt beam="2">  1       -1 0.55143707E-01 0.39315062E+03</pdfrwt>
<totfact> 0.53503525E+01</totfact>
</mgrwt>
</event>
<event>
 4    1  0.2293715E-008  0.8763535E+03  0.7818608E-02  0.9455633E-01
          1   -1    0    0  501    0  0.00000000000E+00  0.00000000000E+00  0.20964891540E+04  0.20964891540E+04  0.50400000000E-02 0. -1.
         -1   -1    0    0    0  501 -0.00000000000E+00 -0.00000000000E+00 -0.60908029632E+03  0.60908029634E+03  0.50400000000E-02 0.  1.
    8880022    1    1    2    0    0 -0.83611369125E+03 -0.21334857934E+03  0.15977404840E+04  0.18222980075E+04  0.15294330000E+03 0.  0.
    8880022    1    1    2    0    0  0.83611369125E+03  0.21334857934E+03 -0.11033162627E+03  0.88327144286E+03  0.15294330000E+03 0.  0.
<mgrwt>
<rscale>  0 0.87635345E+03</rscale>
<asrwt>0</asrwt>
<pdfrwt beam="1">  1        1 0.32253679E+00 0.87635345E+03</pdfrwt>
<pdfrwt beam="2">  1       -1 0.93704661E-01 0.87635345E+03</pdfrwt>
<totfact> 0.29182333E+00</totfact>
</mgrwt>
</event>
<event>
 4    1  0.2293715E-008  0.6583967E+03  0.7818608E-02  0.9791150E-01
         -1   -1    0    0    0  501 -0.00000000000E+00  0.00000000000E+00  0.10023985983E+04  0.10023985983E+04  0.50400000000E-02 0.  1.
          1   -1    0    0  501    0  0.00000000000E+00 -0.00000000000E+00 -0.31997099053E+04  0.31997099053E+04  0.50400000000E-02 0. -1.
    8880022    1    1    2    0    0 -0.60831518441E+03  0.20011785632E+03  0.85526545740E+03  0.10793355251E+04  0.15294330000E+03 0.  0.
    8880022    1    1    2    0    0  0.60831518441E+03 -0.20011785632E+03 -0.30525767644E+04  0.31227729785E+04  0.15294330000E+03 0.  0.
<mgrwt>
<rscale>  0 0.65839667E+03</rscale>
<asrwt>0</asrwt>
<pdfrwt beam="1">  1        1 0.49226306E+00 0.65839667E+03</pdfrwt>
<pdfrwt beam="2">  1       -1 0.15421517E+00 0.65839667E+03</pdfrwt>
<totfact> 0.15471428E-01</totfact>
</mgrwt>
</event>
<event>
 4    1  0.2293715E-008  0.1093333E+04  0.7818608E-02  0.9211715E-01
         -1   -1    0    0    0  501 -0.00000000000E+00  0.00000000000E+00  0.14827128162E+04  0.14827128162E+04  0.50400000000E-02 0.  1.
          1   -1    0    0  501    0  0.00000000000E+00 -0.00000000000E+00 -0.11554804917E+04  0.11554804917E+04  0.50400000000E-02 0. -1.
    8880022    1    1    2    0    0 -0.96039020618E+03 -0.49963520272E+03  0.88884808611E+03  0.14090519001E+04  0.15294330000E+03 0.  0.
    8880022    1    1    2    0    0  0.96039020618E+03  0.49963520272E+03 -0.56161576161E+03  0.12291414079E+04  0.15294330000E+03 0.  0.
<mgrwt>
<rscale>  0 0.10933327E+04</rscale>
<asrwt>0</asrwt>
<pdfrwt beam="1">  1        1 0.17776623E+00 0.10933327E+04</pdfrwt>
<pdfrwt beam="2">  1       -1 0.22810966E+00 0.10933327E+04</pdfrwt>
<totfact> 0.11128429E+00</totfact>
</mgrwt>
</event>
<event>
 4    1  0.2293715E-008  0.6016692E+03  0.7818608E-02  0.9901949E-01
         -1   -1    0    0    0  501 -0.00000000000E+00  0.00000000000E+00  0.85586617687E+03  0.85586617688E+03  0.50400000000E-02 0.  1.
          1   -1    0    0  501    0  0.00000000000E+00 -0.00000000000E+00 -0.11826700292E+04  0.11826700292E+04  0.50400000000E-02 0. -1.
    8880022    1    1    2    0    0 -0.31596213526E+03  0.48865331835E+03 -0.98031845876E+03  0.11502304422E+04  0.15294330000E+03 0. -1.
    8880022    1    1    2    0    0  0.31596213526E+03 -0.48865331835E+03  0.65351460642E+03  0.88830576395E+03  0.15294330000E+03 0.  0.
<mgrwt>
<rscale>  0 0.60166917E+03</rscale>
<asrwt>0</asrwt>
<pdfrwt beam="1">  1        1 0.18194924E+00 0.60166917E+03</pdfrwt>
<pdfrwt beam="2">  1       -1 0.13167172E+00 0.60166917E+03</pdfrwt>
<totfact> 0.57526430E+00</totfact>
</mgrwt>
</event>
<event>
 4    1  0.2293715E-008  0.1139959E+04  0.7818608E-02  0.9167097E-01
         -1   -1    0    0    0  501 -0.00000000000E+00  0.00000000000E+00  0.51567018156E+03  0.51567018159E+03  0.50400000000E-02 0.  1.
          1   -1    0    0  501    0  0.00000000000E+00 -0.00000000000E+00 -0.27815577166E+04  0.27815577166E+04  0.50400000000E-02 0. -1.
    8880022    1    1    2    0    0  0.10173245035E+04  0.49108706606E+03 -0.62743464265E+03  0.13012230922E+04  0.15294330000E+03 0.  0.
    8880022    1    1    2    0    0 -0.10173245035E+04 -0.49108706606E+03 -0.16384528924E+04  0.19960048060E+04  0.15294330000E+03 0.  0.
<mgrwt>
<rscale>  0 0.11399593E+04</rscale>
<asrwt>0</asrwt>
<pdfrwt beam="1">  1        1 0.42793195E+00 0.11399593E+04</pdfrwt>
<pdfrwt beam="2">  1       -1 0.79333876E-01 0.11399593E+04</pdfrwt>
<totfact> 0.13683436E+00</totfact>
</mgrwt>
</event>
<event>
 4    1  0.2293715E-008  0.7627659E+03  0.7818608E-02  0.9615533E-01
          1   -1    0    0  501    0  0.00000000000E+00  0.00000000000E+00  0.23094111775E+04  0.23094111775E+04  0.50400000000E-02 0. -1.
         -1   -1    0    0    0  501 -0.00000000000E+00 -0.00000000000E+00 -0.44336711446E+03  0.44336711449E+03  0.50400000000E-02 0.  1.
    8880022    1    1    2    0    0  0.54733010795E+03 -0.50877296312E+03  0.18374451430E+04  0.19894764341E+04  0.15294330000E+03 0.  0.
    8880022    1    1    2    0    0 -0.54733010795E+03  0.50877296312E+03  0.28598920002E+02  0.76330185792E+03  0.15294330000E+03 0.  0.
<mgrwt>
<rscale>  0 0.76276591E+03</rscale>
<asrwt>0</asrwt>
<pdfrwt beam="1">  1        1 0.35529402E+00 0.76276591E+03</pdfrwt>
<pdfrwt beam="2">  1       -1 0.68210326E-01 0.76276591E+03</pdfrwt>
<totfact> 0.42047378E+00</totfact>
</mgrwt>
</event>
<event>
 4    1  0.2293715E-008  0.9386690E+03  0.7818608E-02  0.9378494E-01
          1   -1    0    0  501    0  0.00000000000E+00  0.00000000000E+00  0.24482500048E+04  0.24482500048E+04  0.50400000000E-02 0. -1.
         -1   -1    0    0    0  501 -0.00000000000E+00 -0.00000000000E+00 -0.62416662893E+03  0.62416662895E+03  0.50400000000E-02 0.  1.
    8880022    1    1    2    0    0  0.62360214325E+02 -0.92402327252E+03  0.19116494817E+04  0.21296720870E+04  0.15294330000E+03 0.  0.
    8880022    1    1    2    0    0 -0.62360214325E+02  0.92402327252E+03 -0.87566105809E+02  0.94274454673E+03  0.15294330000E+03 0.  0.
<mgrwt>
<rscale>  0 0.93866898E+03</rscale>
<asrwt>0</asrwt>
<pdfrwt beam="1">  1        1 0.37665384E+00 0.93866898E+03</pdfrwt>
<pdfrwt beam="2">  1       -1 0.96025636E-01 0.93866898E+03</pdfrwt>
<totfact> 0.15804804E+00</totfact>
</mgrwt>
</event>
<event>
 4    1  0.2293715E-008  0.4421573E+03  0.7818608E-02  0.1030087E+00
         -1   -1    0    0    0  501 -0.00000000000E+00  0.00000000000E+00  0.12152505844E+03  0.12152505854E+03  0.50400000000E-02 0.  1.
          1   -1    0    0  501    0  0.00000000000E+00 -0.00000000000E+00 -0.21206246988E+04  0.21206246988E+04  0.50400000000E-02 0. -1.
    8880022    1    1    2    0    0  0.33255449858E+03 -0.24803010636E+03 -0.44876014573E+03  0.62999107105E+03  0.15294330000E+03 0.  0.
    8880022    1    1    2    0    0 -0.33255449858E+03  0.24803010636E+03 -0.15503394946E+04  0.16121586863E+04  0.15294330000E+03 0.  0.
<mgrwt>
<rscale>  0 0.44215730E+03</rscale>
<asrwt>0</asrwt>
<pdfrwt beam="1">  1        1 0.32624993E+00 0.44215730E+03</pdfrwt>
<pdfrwt beam="2">  1       -1 0.18696164E-01 0.44215730E+03</pdfrwt>
<totfact> 0.61164870E+01</totfact>
</mgrwt>
</event>
<event>
 4    1  0.2293715E-008  0.8091631E+03  0.7818608E-02  0.9546848E-01
         -1   -1    0    0    0  501 -0.00000000000E+00  0.00000000000E+00  0.16821535192E+04  0.16821535193E+04  0.50400000000E-02 0.  1.
          1   -1    0    0  501    0  0.00000000000E+00 -0.00000000000E+00 -0.50040661700E+03  0.50040661702E+03  0.50400000000E-02 0. -1.
    8880022    1    1    2    0    0 -0.57492008976E+03 -0.54847080039E+03  0.11052498127E+04  0.13697890823E+04  0.15294330000E+03 0.  0.
    8880022    1    1    2    0    0  0.57492008976E+03  0.54847080039E+03  0.76497089581E+02  0.81277105400E+03  0.15294330000E+03 0.  0.
<mgrwt>
<rscale>  0 0.80916314E+03</rscale>
<asrwt>0</asrwt>
<pdfrwt beam="1">  1        1 0.76985633E-01 0.80916314E+03</pdfrwt>
<pdfrwt beam="2">  1       -1 0.25879285E+00 0.80916314E+03</pdfrwt>
<totfact> 0.27996758E+00</totfact>
</mgrwt>
</event>
<event>
 4    1  0.2293715E-008  0.2807058E+03  0.7818608E-02  0.1095304E+00
          1   -1    0    0  501    0  0.00000000000E+00  0.00000000000E+00  0.59764287625E+03  0.59764287627E+03  0.50400000000E-02 0. -1.
         -1   -1    0    0    0  501 -0.00000000000E+00 -0.00000000000E+00 -0.58184918543E+03  0.58184918545E+03  0.50400000000E-02 0.  1.
    8880022    1    1    2    0    0  0.76791731906E+02  0.22250196915E+03 -0.51074609634E+03  0.58280127343E+03  0.15294330000E+03 0.  1.
    8880022    1    1    2    0    0 -0.76791731906E+02 -0.22250196915E+03  0.52653978716E+03  0.59669078830E+03  0.15294330000E+03 0.  0.
<mgrwt>
<rscale>  0 0.28070581E+03</rscale>
<asrwt>0</asrwt>
<pdfrwt beam="1">  1        1 0.91945057E-01 0.28070581E+03</pdfrwt>
<pdfrwt beam="2">  1       -1 0.89515260E-01 0.28070581E+03</pdfrwt>
<totfact> 0.46042809E+01</totfact>
</mgrwt>
</event>
<event>
 4    1  0.2293715E-008  0.2874721E+03  0.7818608E-02  0.1091676E+00
          1   -1    0    0  501    0  0.00000000000E+00  0.00000000000E+00  0.15383470733E+04  0.15383470733E+04  0.50400000000E-02 0. -1.
         -1   -1    0    0    0  501 -0.00000000000E+00 -0.00000000000E+00 -0.25289352129E+03  0.25289352134E+03  0.50400000000E-02 0.  1.
    8880022    1    1    2    0    0  0.15584107052E+02  0.24291085221E+03  0.14375503478E+04  0.14660120060E+04  0.15294330000E+03 0.  0.
    8880022    1    1    2    0    0 -0.15584107052E+02 -0.24291085221E+03 -0.15209679579E+03  0.32522858856E+03  0.15294330000E+03 0.  0.
<mgrwt>
<rscale>  0 0.28747208E+03</rscale>
<asrwt>0</asrwt>
<pdfrwt beam="1">  1        1 0.23666878E+00 0.28747208E+03</pdfrwt>
<pdfrwt beam="2">  1       -1 0.38906696E-01 0.28747208E+03</pdfrwt>
<totfact> 0.44166241E+01</totfact>
</mgrwt>
</event>
<event>
 4    1  0.2293715E-008  0.4982065E+03  0.7818608E-02  0.1014248E+00
         -1   -1    0    0    0  501 -0.00000000000E+00  0.00000000000E+00  0.15337689583E+04  0.15337689583E+04  0.50400000000E-02 0.  1.
          1   -1    0    0  501    0  0.00000000000E+00 -0.00000000000E+00 -0.48441980250E+03  0.48441980252E+03  0.50400000000E-02 0. -1.
    8880022    1    1    2    0    0  0.33096430849E+02 -0.47299333745E+03  0.13481415927E+04  0.14372527537E+04  0.15294330000E+03 0.  0.
    8880022    1    1    2    0    0 -0.33096430849E+02  0.47299333745E+03 -0.29879243691E+03  0.58093600713E+03  0.15294330000E+03 0.  0.
<mgrwt>
<rscale>  0 0.49820651E+03</rscale>
<asrwt>0</asrwt>
<pdfrwt beam="1">  1        1 0.74526124E-01 0.49820651E+03</pdfrwt>
<pdfrwt beam="2">  1       -1 0.23596445E+00 0.49820651E+03</pdfrwt>
<totfact> 0.43439377E+00</totfact>
</mgrwt>
</event>
<event>
 4    1  0.2293715E-008  0.2335716E+03  0.7818608E-02  0.1124151E+00
          1   -1    0    0  501    0  0.00000000000E+00  0.00000000000E+00  0.19063846947E+04  0.19063846948E+04  0.50400000000E-02 0. -1.
         -1   -1    0    0    0  501 -0.00000000000E+00 -0.00000000000E+00 -0.76445720177E+02  0.76445720344E+02  0.50400000000E-02 0.  1.
    8880022    1    1    2    0    0  0.12544798335E+03  0.12420475617E+03  0.13077859136E+03  0.26769144730E+03  0.15294330000E+03 0.  0.
    8880022    1    1    2    0    0 -0.12544798335E+03 -0.12420475617E+03  0.16991603832E+04  0.17151389678E+04  0.15294330000E+03 0. -1.
<mgrwt>
<rscale>  0 0.23357155E+03</rscale>
<asrwt>0</asrwt>
<pdfrwt beam="1">  1        1 0.29328993E+00 0.23357155E+03</pdfrwt>
<pdfrwt beam="2">  1       -1 0.11760881E-01 0.23357155E+03</pdfrwt>
<totfact> 0.18581150E+02</totfact>
</mgrwt>
</event>
<event>
 4    1  0.2293715E-008  0.4097437E+03  0.7818608E-02  0.1040457E+00
         -1   -1    0    0    0  501 -0.00000000000E+00  0.00000000000E+00  0.46922705150E+03  0.46922705152E+03  0.50400000000E-02 0.  1.
          1   -1    0    0  501    0  0.00000000000E+00 -0.00000000000E+00 -0.37424749162E+03  0.37424749166E+03  0.50400000000E-02 0. -1.
    8880022    1    1    2    0    0 -0.23996729796E+03  0.29481176997E+03 -0.40919604330E+02  0.41178192146E+03  0.15294330000E+03 0.  0.
    8880022    1    1    2    0    0  0.23996729796E+03 -0.29481176997E+03  0.13589916421E+03  0.43169262172E+03  0.15294330000E+03 0.  0.
<mgrwt>
<rscale>  0 0.40974375E+03</rscale>
<asrwt>0</asrwt>
<pdfrwt beam="1">  1        1 0.57576537E-01 0.40974375E+03</pdfrwt>
<pdfrwt beam="2">  1       -1 0.72188777E-01 0.40974375E+03</pdfrwt>
<totfact> 0.13221660E+02</totfact>
</mgrwt>
</event>
<event>
 4    1  0.2293715E-008  0.3925213E+03  0.7818608E-02  0.1046400E+00
         -1   -1    0    0    0  501 -0.00000000000E+00  0.00000000000E+00  0.20270867106E+03  0.20270867112E+03  0.50400000000E-02 0.  1.
          1   -1    0    0  501    0  0.00000000000E+00 -0.00000000000E+00 -0.13071647181E+04  0.13071647181E+04  0.50400000000E-02 0. -1.
    8880022    1    1    2    0    0 -0.70950486073E+02 -0.35446766333E+03 -0.10406287557E+04  0.11121965456E+04  0.15294330000E+03 0.  0.
    8880022    1    1    2    0    0  0.70950486073E+02  0.35446766333E+03 -0.63827291322E+02  0.39767684362E+03  0.15294330000E+03 0.  0.
<mgrwt>
<rscale>  0 0.39252127E+03</rscale>
<asrwt>0</asrwt>
<pdfrwt beam="1">  1        1 0.20110226E+00 0.39252127E+03</pdfrwt>
<pdfrwt beam="2">  1       -1 0.31185950E-01 0.39252127E+03</pdfrwt>
<totfact> 0.91004069E+01</totfact>
</mgrwt>
</event>
<event>
 4    1  0.2293715E-008  0.9043327E+03  0.7818608E-02  0.9420182E-01
         -1   -1    0    0    0  501 -0.00000000000E+00  0.00000000000E+00  0.45149524200E+03  0.45149524203E+03  0.50400000000E-02 0.  1.
          1   -1    0    0  501    0  0.00000000000E+00 -0.00000000000E+00 -0.31704643020E+04  0.31704643020E+04  0.50400000000E-02 0. -1.
    8880022    1    1    2    0    0 -0.88893735085E+03 -0.64932903418E+02 -0.25451975148E+04  0.27010827344E+04  0.15294330000E+03 0.  0.
    8880022    1    1    2    0    0  0.88893735085E+03  0.64932903418E+02 -0.17377154526E+03  0.92087680970E+03  0.15294330000E+03 0.  0.
<mgrwt>
<rscale>  0 0.90433265E+03</rscale>
<asrwt>0</asrwt>
<pdfrwt beam="1">  1        1 0.48776373E+00 0.90433265E+03</pdfrwt>
<pdfrwt beam="2">  1       -1 0.69460808E-01 0.90433265E+03</pdfrwt>
<totfact> 0.98389889E-01</totfact>
</mgrwt>
</event>
<event>
 4    1  0.2293715E-008  0.5356750E+03  0.7818608E-02  0.1004865E+00
         -1   -1    0    0    0  501 -0.00000000000E+00  0.00000000000E+00  0.47298748162E+03  0.47298748165E+03  0.50400000000E-02 0.  1.
          1   -1    0    0  501    0  0.00000000000E+00 -0.00000000000E+00 -0.11789890061E+04  0.11789890061E+04  0.50400000000E-02 0. -1.
    8880022    1    1    2    0    0  0.46652961314E+03 -0.21425724866E+03  0.22248921331E+03  0.58004237051E+03  0.15294330000E+03 0.  0.
    8880022    1    1    2    0    0 -0.46652961314E+03  0.21425724866E+03 -0.92849073774E+03  0.10719341172E+04  0.15294330000E+03 0.  0.
<mgrwt>
<rscale>  0 0.53567500E+03</rscale>
<asrwt>0</asrwt>
<pdfrwt beam="1">  1        1 0.18138292E+00 0.53567500E+03</pdfrwt>
<pdfrwt beam="2">  1       -1 0.72767305E-01 0.53567500E+03</pdfrwt>
<totfact> 0.22417313E+01</totfact>
</mgrwt>
</event>
<event>
 4    1  0.2293715E-008  0.6662817E+03  0.7818608E-02  0.9776698E-01
         -1   -1    0    0    0  501 -0.00000000000E+00  0.00000000000E+00  0.10205007592E+04  0.10205007592E+04  0.50400000000E-02 0.  1.
          1   -1    0    0  501    0  0.00000000000E+00 -0.00000000000E+00 -0.47731663749E+03  0.47731663751E+03  0.50400000000E-02 0. -1.
    8880022    1    1    2    0    0  0.16485141343E+03 -0.62718707055E+03  0.49454520871E+03  0.82976275311E+03  0.15294330000E+03 0.  0.
    8880022    1    1    2    0    0 -0.16485141343E+03  0.62718707055E+03  0.48638912990E+02  0.66805464361E+03  0.15294330000E+03 0.  0.
<mgrwt>
<rscale>  0 0.66628167E+03</rscale>
<asrwt>0</asrwt>
<pdfrwt beam="1">  1        1 0.73433329E-01 0.66628167E+03</pdfrwt>
<pdfrwt beam="2">  1       -1 0.15700012E+00 0.66628167E+03</pdfrwt>
<totfact> 0.15111129E+01</totfact>
</mgrwt>
</event>
<event>
 4    1  0.2293715E-008  0.7402027E+03  0.7818608E-02  0.9650847E-01
          1   -1    0    0  501    0  0.00000000000E+00  0.00000000000E+00  0.20096035458E+04  0.20096035458E+04  0.50400000000E-02 0. -1.
         -1   -1    0    0    0  501 -0.00000000000E+00 -0.00000000000E+00 -0.51710962064E+03  0.51710962067E+03  0.50400000000E-02 0.  1.
    8880022    1    1    2    0    0 -0.53836665576E+02  0.72222569821E+03  0.16148999991E+04  0.17764577129E+04  0.15294330000E+03 0.  0.
    8880022    1    1    2    0    0  0.53836665576E+02 -0.72222569821E+03 -0.12240607389E+03  0.75025545360E+03  0.15294330000E+03 0.  0.
<mgrwt>
<rscale>  0 0.74020267E+03</rscale>
<asrwt>0</asrwt>
<pdfrwt beam="1">  1        1 0.30916977E+00 0.74020267E+03</pdfrwt>
<pdfrwt beam="2">  1       -1 0.79555328E-01 0.74020267E+03</pdfrwt>
<totfact> 0.48748558E+00</totfact>
</mgrwt>
</event>
<event>
 4    1  0.2293715E-008  0.7278605E+03  0.7818608E-02  0.9670739E-01
          1   -1    0    0  501    0  0.00000000000E+00  0.00000000000E+00  0.13866932423E+04  0.13866932423E+04  0.50400000000E-02 0. -1.
         -1   -1    0    0    0  501 -0.00000000000E+00 -0.00000000000E+00 -0.10244389785E+04  0.10244389785E+04  0.50400000000E-02 0.  1.
    8880022    1    1    2    0    0 -0.54404385844E+03 -0.45869978925E+03 -0.77353195864E+03  0.10621358485E+04  0.15294330000E+03 0.  0.
    8880022    1    1    2    0    0  0.54404385844E+03  0.45869978925E+03  0.11357862224E+04  0.13489963724E+04  0.15294330000E+03 0.  0.
<mgrwt>
<rscale>  0 0.72786047E+03</rscale>
<asrwt>0</asrwt>
<pdfrwt beam="1">  1        1 0.21333742E+00 0.72786047E+03</pdfrwt>
<pdfrwt beam="2">  1       -1 0.15760600E+00 0.72786047E+03</pdfrwt>
<totfact> 0.25091851E+00</totfact>
</mgrwt>
</event>
<event>
 4    1  0.2293715E-008  0.4985758E+03  0.7818608E-02  0.1014151E+00
         -1   -1    0    0    0  501 -0.00000000000E+00  0.00000000000E+00  0.10423678034E+04  0.10423678034E+04  0.50400000000E-02 0.  1.
          1   -1    0    0  501    0  0.00000000000E+00 -0.00000000000E+00 -0.32948502397E+03  0.32948502401E+03  0.50400000000E-02 0. -1.
    8880022    1    1    2    0    0  0.21964810052E+03  0.42064342101E+03 -0.40593904355E+01  0.49859232582E+03  0.15294330000E+03 0.  0.
    8880022    1    1    2    0    0 -0.21964810052E+03 -0.42064342101E+03  0.71694216985E+03  0.87326050158E+03  0.15294330000E+03 0.  0.
<mgrwt>
<rscale>  0 0.49857580E+03</rscale>
<asrwt>0</asrwt>
<pdfrwt beam="1">  1        1 0.50690004E-01 0.49857580E+03</pdfrwt>
<pdfrwt beam="2">  1       -1 0.16036428E+00 0.49857580E+03</pdfrwt>
<totfact> 0.23784652E+01</totfact>
</mgrwt>
</event>
<event>
 4    1  0.2293715E-008  0.5872162E+03  0.7818608E-02  0.9932289E-01
          1   -1    0    0  501    0  0.00000000000E+00  0.00000000000E+00  0.14047332964E+04  0.14047332965E+04  0.50400000000E-02 0. -1.
         -1   -1    0    0    0  501 -0.00000000000E+00 -0.00000000000E+00 -0.35024278133E+03  0.35024278137E+03  0.50400000000E-02 0.  1.
    8880022    1    1    2    0    0  0.55322678139E+03  0.12398121778E+03  0.10071736479E+04  0.11658566053E+04  0.15294330000E+03 0.  0.
    8880022    1    1    2    0    0 -0.55322678139E+03 -0.12398121778E+03  0.47316867216E+02  0.58911947256E+03  0.15294330000E+03 0.  0.
<mgrwt>
<rscale>  0 0.58721620E+03</rscale>
<asrwt>0</asrwt>
<pdfrwt beam="1">  1        1 0.21611282E+00 0.58721620E+03</pdfrwt>
<pdfrwt beam="2">  1       -1 0.53883504E-01 0.58721620E+03</pdfrwt>
<totfact> 0.27964625E+01</totfact>
</mgrwt>
</event>
<event>
 4    1  0.2293715E-008  0.5540565E+03  0.7818608E-02  0.1000559E+00
         -1   -1    0    0    0  501 -0.00000000000E+00  0.00000000000E+00  0.49732582003E+03  0.49732582006E+03  0.50400000000E-02 0.  1.
          1   -1    0    0  501    0  0.00000000000E+00 -0.00000000000E+00 -0.20952171420E+04  0.20952171420E+04  0.50400000000E-02 0. -1.
    8880022    1    1    2    0    0  0.41120582629E+03  0.33837362439E+03  0.28976527733E+03  0.62525395658E+03  0.15294330000E+03 0.  1.
    8880022    1    1    2    0    0 -0.41120582629E+03 -0.33837362439E+03 -0.18876565993E+04  0.19672890055E+04  0.15294330000E+03 0.  0.
<mgrwt>
<rscale>  0 0.55405649E+03</rscale>
<asrwt>0</asrwt>
<pdfrwt beam="1">  1        1 0.32234110E+00 0.55405649E+03</pdfrwt>
<pdfrwt beam="2">  1       -1 0.76511665E-01 0.55405649E+03</pdfrwt>
<totfact> 0.48240252E+00</totfact>
</mgrwt>
</event>
<event>
 4    1  0.2293715E-008  0.2514350E+03  0.7818608E-02  0.1112401E+00
         -1   -1    0    0    0  501 -0.00000000000E+00  0.00000000000E+00  0.67188823498E+03  0.67188823500E+03  0.50400000000E-02 0.  1.
          1   -1    0    0  501    0  0.00000000000E+00 -0.00000000000E+00 -0.15334224024E+03  0.15334224032E+03  0.50400000000E-02 0. -1.
    8880022    1    1    2    0    0 -0.17906485287E+03 -0.88111716400E+02  0.51575571222E+03  0.57378001342E+03  0.15294330000E+03 0.  0.
    8880022    1    1    2    0    0  0.17906485287E+03  0.88111716400E+02  0.27902825259E+01  0.25145046191E+03  0.15294330000E+03 0.  0.
<mgrwt>
<rscale>  0 0.25143498E+03</rscale>
<asrwt>0</asrwt>
<pdfrwt beam="1">  1        1 0.23591114E-01 0.25143498E+03</pdfrwt>
<pdfrwt beam="2">  1       -1 0.10336742E+00 0.25143498E+03</pdfrwt>
<totfact> 0.19426989E+02</totfact>
</mgrwt>
</event>
<event>
 4    1  0.2293715E-008  0.3981045E+03  0.7818608E-02  0.1044438E+00
         -1   -1    0    0    0  501 -0.00000000000E+00  0.00000000000E+00  0.42059230407E+03  0.42059230410E+03  0.50400000000E-02 0.  1.
          1   -1    0    0  501    0  0.00000000000E+00 -0.00000000000E+00 -0.58868517678E+03  0.58868517680E+03  0.50400000000E-02 0. -1.
    8880022    1    1    2    0    0  0.85126773239E+02 -0.35755972667E+03  0.21869358323E+03  0.45421807761E+03  0.15294330000E+03 0.  0.
    8880022    1    1    2    0    0 -0.85126773239E+02  0.35755972667E+03 -0.38678645595E+03  0.55505940329E+03  0.15294330000E+03 0.  0.
<mgrwt>
<rscale>  0 0.39810448E+03</rscale>
<asrwt>0</asrwt>
<pdfrwt beam="1">  1        1 0.90566950E-01 0.39810448E+03</pdfrwt>
<pdfrwt beam="2">  1       -1 0.64706508E-01 0.39810448E+03</pdfrwt>
<totfact> 0.89899277E+01</totfact>
</mgrwt>
</event>
<event>
 4    1  0.2293715E-008  0.5384736E+03  0.7818608E-02  0.1004198E+00
         -1   -1    0    0    0  501 -0.00000000000E+00  0.00000000000E+00  0.47672199961E+03  0.47672199964E+03  0.50400000000E-02 0.  1.
          1   -1    0    0  501    0  0.00000000000E+00 -0.00000000000E+00 -0.67739034352E+03  0.67739034354E+03  0.50400000000E-02 0. -1.
    8880022    1    1    2    0    0  0.50761034782E+03  0.94307396578E+02  0.84059376992E+02  0.54499521295E+03  0.15294330000E+03 0.  0.
    8880022    1    1    2    0    0 -0.50761034782E+03 -0.94307396578E+02 -0.28472772090E+03  0.60911713022E+03  0.15294330000E+03 0.  0.
<mgrwt>
<rscale>  0 0.53847359E+03</rscale>
<asrwt>0</asrwt>
<pdfrwt beam="1">  1        1 0.10421390E+00 0.53847359E+03</pdfrwt>
<pdfrwt beam="2">  1       -1 0.73341846E-01 0.53847359E+03</pdfrwt>
<totfact> 0.56004997E+01</totfact>
</mgrwt>
</event>
<event>
 4    1  0.2293715E-008  0.4347947E+03  0.7818608E-02  0.1032356E+00
          1   -1    0    0  501    0  0.00000000000E+00  0.00000000000E+00  0.51169907843E+03  0.51169907846E+03  0.50400000000E-02 0. -1.
         -1   -1    0    0    0  501 -0.00000000000E+00 -0.00000000000E+00 -0.59273424330E+03  0.59273424332E+03  0.50400000000E-02 0.  1.
    8880022    1    1    2    0    0  0.11960029195E+03  0.38903801897E+03 -0.37944755956E+03  0.57708484083E+03  0.15294330000E+03 0.  0.
    8880022    1    1    2    0    0 -0.11960029195E+03 -0.38903801897E+03  0.29841239469E+03  0.52734848095E+03  0.15294330000E+03 0.  0.
<mgrwt>
<rscale>  0 0.43479474E+03</rscale>
<asrwt>0</asrwt>
<pdfrwt beam="1">  1        1 0.78722935E-01 0.43479474E+03</pdfrwt>
<pdfrwt beam="2">  1       -1 0.91189884E-01 0.43479474E+03</pdfrwt>
<totfact> 0.53221599E+01</totfact>
</mgrwt>
</event>
<event>
 4    1  0.2293715E-008  0.1834153E+03  0.7818608E-02  0.1164538E+00
         -1   -1    0    0    0  501 -0.00000000000E+00  0.00000000000E+00  0.31940426735E+03  0.31940426739E+03  0.50400000000E-02 0.  1.
          1   -1    0    0  501    0  0.00000000000E+00 -0.00000000000E+00 -0.59520925886E+03  0.59520925888E+03  0.50400000000E-02 0. -1.
    8880022    1    1    2    0    0 -0.68151733640E+01  0.10101027707E+03 -0.55277976111E+03  0.58241449155E+03  0.15294330000E+03 0.  0.
    8880022    1    1    2    0    0  0.68151733640E+01 -0.10101027707E+03  0.27697476960E+03  0.33219903472E+03  0.15294330000E+03 0.  1.
<mgrwt>
<rscale>  0 0.18341531E+03</rscale>
<asrwt>0</asrwt>
<pdfrwt beam="1">  1        1 0.91570655E-01 0.18341531E+03</pdfrwt>
<pdfrwt beam="2">  1       -1 0.49139118E-01 0.18341531E+03</pdfrwt>
<totfact> 0.15512071E+02</totfact>
</mgrwt>
</event>
<event>
 4    1  0.2293715E-008  0.2975269E+03  0.7818608E-02  0.1086483E+00
          1   -1    0    0  501    0  0.00000000000E+00  0.00000000000E+00  0.74342685062E+03  0.74342685063E+03  0.50400000000E-02 0. -1.
         -1   -1    0    0    0  501 -0.00000000000E+00 -0.00000000000E+00 -0.33310827699E+03  0.33310827703E+03  0.50400000000E-02 0.  1.
    8880022    1    1    2    0    0  0.18379350228E+03 -0.17706087654E+03 -0.22630803984E+03  0.37381491061E+03  0.15294330000E+03 0.  0.
    8880022    1    1    2    0    0 -0.18379350228E+03  0.17706087654E+03  0.63662661346E+03  0.70272021706E+03  0.15294330000E+03 0.  0.
<mgrwt>
<rscale>  0 0.29752690E+03</rscale>
<asrwt>0</asrwt>
<pdfrwt beam="1">  1        1 0.11437336E+00 0.29752690E+03</pdfrwt>
<pdfrwt beam="2">  1       -1 0.51247428E-01 0.29752690E+03</pdfrwt>
<totfact> 0.10194907E+02</totfact>
</mgrwt>
</event>
<event>
 4    1  0.2293715E-008  0.5562547E+03  0.7818608E-02  0.1000056E+00
          1   -1    0    0  501    0  0.00000000000E+00  0.00000000000E+00  0.65051677891E+03  0.65051677893E+03  0.50400000000E-02 0. -1.
         -1   -1    0    0    0  501 -0.00000000000E+00 -0.00000000000E+00 -0.11953943095E+04  0.11953943095E+04  0.50400000000E-02 0.  1.
    8880022    1    1    2    0    0  0.13454577184E+03 -0.51761479560E+03  0.44372748770E+03  0.71155700945E+03  0.15294330000E+03 0.  0.
    8880022    1    1    2    0    0 -0.13454577184E+03  0.51761479560E+03 -0.98860501832E+03  0.11343540790E+04  0.15294330000E+03 0.  0.
<mgrwt>
<rscale>  0 0.55625470E+03</rscale>
<asrwt>0</asrwt>
<pdfrwt beam="1">  1        1 0.10007950E+00 0.55625470E+03</pdfrwt>
<pdfrwt beam="2">  1       -1 0.18390682E+00 0.55625470E+03</pdfrwt>
<totfact> 0.63388676E+00</totfact>
</mgrwt>
</event>
<event>
 4    1  0.2293715E-008  0.4185035E+03  0.7818608E-02  0.1037554E+00
          1   -1    0    0  501    0  0.00000000000E+00  0.00000000000E+00  0.21850581099E+04  0.21850581099E+04  0.50400000000E-02 0. -1.
         -1   -1    0    0    0  501 -0.00000000000E+00 -0.00000000000E+00 -0.28448923927E+03  0.28448923932E+03  0.50400000000E-02 0.  1.
    8880022    1    1    2    0    0 -0.36831752184E+03  0.12686886153E+03 -0.96179160442E+02  0.42941307484E+03  0.15294330000E+03 0.  0.
    8880022    1    1    2    0    0  0.36831752184E+03 -0.12686886153E+03  0.19967480310E+04  0.20401342743E+04  0.15294330000E+03 0.  0.
<mgrwt>
<rscale>  0 0.41850347E+03</rscale>
<asrwt>0</asrwt>
<pdfrwt beam="1">  1        1 0.33616278E+00 0.41850347E+03</pdfrwt>
<pdfrwt beam="2">  1       -1 0.43767577E-01 0.41850347E+03</pdfrwt>
<totfact> 0.12909327E+01</totfact>
</mgrwt>
</event>
<event>
 4    1  0.2293715E-008  0.4556998E+03  0.7818608E-02  0.1026036E+00
          1   -1    0    0  501    0  0.00000000000E+00  0.00000000000E+00  0.56854608317E+03  0.56854608319E+03  0.50400000000E-02 0. -1.
         -1   -1    0    0    0  501 -0.00000000000E+00 -0.00000000000E+00 -0.61004514698E+03  0.61004514700E+03  0.50400000000E-02 0.  1.
    8880022    1    1    2    0    0  0.28506884917E+03  0.32094612758E+03  0.35254555901E+03  0.57615162047E+03  0.15294330000E+03 0.  0.
    8880022    1    1    2    0    0 -0.28506884917E+03 -0.32094612758E+03 -0.39404462282E+03  0.60243960972E+03  0.15294330000E+03 0.  0.
<mgrwt>
<rscale>  0 0.45569981E+03</rscale>
<asrwt>0</asrwt>
<pdfrwt beam="1">  1        1 0.87468628E-01 0.45569981E+03</pdfrwt>
<pdfrwt beam="2">  1       -1 0.93853100E-01 0.45569981E+03</pdfrwt>
<totfact> 0.43075167E+01</totfact>
</mgrwt>
</event>
<event>
 4    1  0.2293715E-008  0.2905656E+03  0.7818608E-02  0.1090054E+00
         -1   -1    0    0    0  501 -0.00000000000E+00  0.00000000000E+00  0.39464281059E+03  0.39464281062E+03  0.50400000000E-02 0.  1.
          1   -1    0    0  501    0  0.00000000000E+00 -0.00000000000E+00 -0.18878391533E+04  0.18878391533E+04  0.50400000000E-02 0. -1.
    8880022    1    1    2    0    0  0.14631320636E+03  0.19907068470E+03  0.32803443738E+03  0.43821791038E+03  0.15294330000E+03 0.  0.
    8880022    1    1    2    0    0 -0.14631320636E+03 -0.19907068470E+03 -0.18212307801E+04  0.18442640536E+04  0.15294330000E+03 0. -1.
<mgrwt>
<rscale>  0 0.29056556E+03</rscale>
<asrwt>0</asrwt>
<pdfrwt beam="1">  1        1 0.29043679E+00 0.29056556E+03</pdfrwt>
<pdfrwt beam="2">  1       -1 0.60714280E-01 0.29056556E+03</pdfrwt>
<totfact> 0.11426906E+01</totfact>
</mgrwt>
</event>
<event>
 4    1  0.2293715E-008  0.1597385E+03  0.7818608E-02  0.1188992E+00
          1   -1    0    0  501    0  0.00000000000E+00  0.00000000000E+00  0.28934384575E+03  0.28934384580E+03  0.50400000000E-02 0. -1.
         -1   -1    0    0    0  501 -0.00000000000E+00 -0.00000000000E+00 -0.22568727052E+03  0.22568727058E+03  0.50400000000E-02 0.  1.
    8880022    1    1    2    0    0  0.23549544746E+02  0.39625052654E+02 -0.16917429856E+03  0.23267213448E+03  0.15294330000E+03 0.  0.
    8880022    1    1    2    0    0 -0.23549544746E+02 -0.39625052654E+02  0.23283087379E+03  0.28235898190E+03  0.15294330000E+03 0. -1.
<mgrwt>
<rscale>  0 0.15973847E+03</rscale>
<asrwt>0</asrwt>
<pdfrwt beam="1">  1        1 0.44514438E-01 0.15973847E+03</pdfrwt>
<pdfrwt beam="2">  1       -1 0.34721119E-01 0.15973847E+03</pdfrwt>
<totfact> 0.72845372E+02</totfact>
</mgrwt>
</event>
<event>
 4    1  0.2293715E-008  0.5657188E+03  0.7818608E-02  0.9979197E-01
          1   -1    0    0  501    0  0.00000000000E+00  0.00000000000E+00  0.15069685151E+04  0.15069685151E+04  0.50400000000E-02 0. -1.
         -1   -1    0    0    0  501 -0.00000000000E+00 -0.00000000000E+00 -0.32903930325E+03  0.32903930329E+03  0.50400000000E-02 0.  1.
    8880022    1    1    2    0    0  0.47122279185E+03 -0.27312127881E+03  0.11355969940E+04  0.12687073493E+04  0.15294330000E+03 0.  0.
    8880022    1    1    2    0    0 -0.47122279185E+03  0.27312127881E+03  0.42332217853E+02  0.56730046905E+03  0.15294330000E+03 0.  1.
<mgrwt>
<rscale>  0 0.56571884E+03</rscale>
<asrwt>0</asrwt>
<pdfrwt beam="1">  1        1 0.23184131E+00 0.56571884E+03</pdfrwt>
<pdfrwt beam="2">  1       -1 0.50621431E-01 0.56571884E+03</pdfrwt>
<totfact> 0.26904029E+01</totfact>
</mgrwt>
</event>
<event>
 4    1  0.2293715E-008  0.3311100E+03  0.7818608E-02  0.1070647E+00
         -1   -1    0    0    0  501 -0.00000000000E+00  0.00000000000E+00  0.26706958661E+03  0.26706958665E+03  0.50400000000E-02 0.  1.
          1   -1    0    0  501    0  0.00000000000E+00 -0.00000000000E+00 -0.15458357126E+04  0.15458357126E+04  0.50400000000E-02 0. -1.
    8880022    1    1    2    0    0  0.14120383558E+03 -0.25749501643E+03 -0.14162100760E+04  0.14544018836E+04  0.15294330000E+03 0. -1.
    8880022    1    1    2    0    0 -0.14120383558E+03  0.25749501643E+03  0.13744394997E+03  0.35850341569E+03  0.15294330000E+03 0.  0.
<mgrwt>
<rscale>  0 0.33111004E+03</rscale>
<asrwt>0</asrwt>
<pdfrwt beam="1">  1        1 0.23782087E+00 0.33111004E+03</pdfrwt>
<pdfrwt beam="2">  1       -1 0.41087630E-01 0.33111004E+03</pdfrwt>
<totfact> 0.39109511E+01</totfact>
</mgrwt>
</event>
<event>
 4    1  0.2293715E-008  0.2245571E+03  0.7818608E-02  0.1130530E+00
         -1   -1    0    0    0  501 -0.00000000000E+00  0.00000000000E+00  0.10729140308E+04  0.10729140308E+04  0.50400000000E-02 0.  1.
          1   -1    0    0  501    0  0.00000000000E+00 -0.00000000000E+00 -0.98099948278E+02  0.98099948407E+02  0.50400000000E-02 0. -1.
    8880022    1    1    2    0    0 -0.11735653828E+03 -0.11515943000E+03  0.90999012091E+03  0.93728753569E+03  0.15294330000E+03 0.  1.
    8880022    1    1    2    0    0  0.11735653828E+03  0.11515943000E+03  0.64823961626E+02  0.23372644354E+03  0.15294330000E+03 0.  0.
<mgrwt>
<rscale>  0 0.22455713E+03</rscale>
<asrwt>0</asrwt>
<pdfrwt beam="1">  1        1 0.15092300E-01 0.22455713E+03</pdfrwt>
<pdfrwt beam="2">  1       -1 0.16506369E+00 0.22455713E+03</pdfrwt>
<totfact> 0.10908435E+02</totfact>
</mgrwt>
</event>
<event>
 4    1  0.2293715E-008  0.3585203E+03  0.7818608E-02  0.1059171E+00
         -1   -1    0    0    0  501 -0.00000000000E+00  0.00000000000E+00  0.34400226531E+03  0.34400226535E+03  0.50400000000E-02 0.  1.
          1   -1    0    0  501    0  0.00000000000E+00 -0.00000000000E+00 -0.12442505969E+04  0.12442505969E+04  0.50400000000E-02 0. -1.
    8880022    1    1    2    0    0  0.29368783283E+03 -0.13745048521E+03 -0.11143945998E+04  0.11706460422E+04  0.15294330000E+03 0. -1.
    8880022    1    1    2    0    0 -0.29368783283E+03  0.13745048521E+03  0.21414626815E+03  0.41760682012E+03  0.15294330000E+03 0.  0.
<mgrwt>
<rscale>  0 0.35852034E+03</rscale>
<asrwt>0</asrwt>
<pdfrwt beam="1">  1        1 0.19142317E+00 0.35852034E+03</pdfrwt>
<pdfrwt beam="2">  1       -1 0.52923426E-01 0.35852034E+03</pdfrwt>
<totfact> 0.39076130E+01</totfact>
</mgrwt>
</event>
<event>
 4    1  0.2293715E-008  0.4520046E+03  0.7818608E-02  0.1027126E+00
         -1   -1    0    0    0  501 -0.00000000000E+00  0.00000000000E+00  0.31835427429E+03  0.31835427433E+03  0.50400000000E-02 0.  1.
          1   -1    0    0  501    0  0.00000000000E+00 -0.00000000000E+00 -0.10880517688E+04  0.10880517688E+04  0.50400000000E-02 0. -1.
    8880022    1    1    2    0    0  0.29259862428E+03 -0.30871113111E+03  0.65515242573E+02  0.45672794684E+03  0.15294330000E+03 0.  0.
    8880022    1    1    2    0    0 -0.29259862428E+03  0.30871113111E+03 -0.83521273704E+03  0.94967809627E+03  0.15294330000E+03 0.  0.
<mgrwt>
<rscale>  0 0.45200461E+03</rscale>
<asrwt>0</asrwt>
<pdfrwt beam="1">  1        1 0.16739258E+00 0.45200461E+03</pdfrwt>
<pdfrwt beam="2">  1       -1 0.48977581E-01 0.45200461E+03</pdfrwt>
<totfact> 0.57439166E+01</totfact>
</mgrwt>
</event>
<event>
 4    1  0.2293715E-008  0.9966359E+03  0.7818608E-02  0.9312242E-01
          1   -1    0    0  501    0  0.00000000000E+00  0.00000000000E+00  0.39319720145E+04  0.39319720145E+04  0.50400000000E-02 0. -1.
         -1   -1    0    0    0  501 -0.00000000000E+00 -0.00000000000E+00 -0.38910889554E+03  0.38910889558E+03  0.50400000000E-02 0.  1.
    8880022    1    1    2    0    0  0.84118793969E+03 -0.51214668531E+03  0.49181387651E+03  0.11113792869E+04  0.15294330000E+03 0.  0.
    8880022    1    1    2    0    0 -0.84118793969E+03  0.51214668531E+03  0.30510492424E+04  0.32097016232E+04  0.15294330000E+03 0.  0.
<mgrwt>
<rscale>  0 0.99663586E+03</rscale>
<asrwt>0</asrwt>
<pdfrwt beam="1">  1        1 0.60491874E+00 0.99663586E+03</pdfrwt>
<pdfrwt beam="2">  1       -1 0.59862910E-01 0.99663586E+03</pdfrwt>
<totfact> 0.32776278E-01</totfact>
</mgrwt>
</event>
<event>
 4    1  0.2293715E-008  0.1005238E+04  0.7818608E-02  0.9302819E-01
         -1   -1    0    0    0  501 -0.00000000000E+00  0.00000000000E+00  0.11961440072E+04  0.11961440072E+04  0.50400000000E-02 0.  1.
          1   -1    0    0  501    0  0.00000000000E+00 -0.00000000000E+00 -0.23546556887E+04  0.23546556888E+04  0.50400000000E-02 0. -1.
    8880022    1    1    2    0    0  0.47968718284E+03 -0.87006399360E+03 -0.20009302680E+04  0.22392464663E+04  0.15294330000E+03 0.  0.
    8880022    1    1    2    0    0 -0.47968718284E+03  0.87006399360E+03  0.84241858649E+03  0.13115532297E+04  0.15294330000E+03 0.  0.
<mgrwt>
<rscale>  0 0.10052377E+04</rscale>
<asrwt>0</asrwt>
<pdfrwt beam="1">  1        1 0.36225472E+00 0.10052377E+04</pdfrwt>
<pdfrwt beam="2">  1       -1 0.18402216E+00 0.10052377E+04</pdfrwt>
<totfact> 0.33785163E-01</totfact>
</mgrwt>
</event>
<event>
 4    1  0.2293715E-008  0.4913561E+03  0.7818608E-02  0.1016060E+00
          1   -1    0    0  501    0  0.00000000000E+00  0.00000000000E+00  0.95179430576E+03  0.95179430577E+03  0.50400000000E-02 0. -1.
         -1   -1    0    0    0  501 -0.00000000000E+00 -0.00000000000E+00 -0.26602178187E+03  0.26602178192E+03  0.50400000000E-02 0.  1.
    8880022    1    1    2    0    0 -0.32790149539E+03  0.33244518791E+03  0.21161864974E+03  0.53498906491E+03  0.15294330000E+03 0.  0.
    8880022    1    1    2    0    0  0.32790149539E+03 -0.33244518791E+03  0.47415387415E+03  0.68282702277E+03  0.15294330000E+03 0.  0.
<mgrwt>
<rscale>  0 0.49135613E+03</rscale>
<asrwt>0</asrwt>
<pdfrwt beam="1">  1        1 0.14642989E+00 0.49135613E+03</pdfrwt>
<pdfrwt beam="2">  1       -1 0.40926428E-01 0.49135613E+03</pdfrwt>
<totfact> 0.10083493E+02</totfact>
</mgrwt>
</event>
<event>
 4    1  0.2293715E-008  0.2981602E+03  0.7818608E-02  0.1086164E+00
         -1   -1    0    0    0  501 -0.00000000000E+00  0.00000000000E+00  0.34808755347E+03  0.34808755351E+03  0.50400000000E-02 0.  1.
          1   -1    0    0  501    0  0.00000000000E+00 -0.00000000000E+00 -0.60740274548E+03  0.60740274550E+03  0.50400000000E-02 0. -1.
    8880022    1    1    2    0    0 -0.18476169433E+03  0.17711845987E+03  0.23403512991E+03  0.37904079934E+03  0.15294330000E+03 0.  0.
    8880022    1    1    2    0    0  0.18476169433E+03 -0.17711845987E+03 -0.49335032192E+03  0.57644949967E+03  0.15294330000E+03 0. -1.
<mgrwt>
<rscale>  0 0.29816017E+03</rscale>
<asrwt>0</asrwt>
<pdfrwt beam="1">  1        1 0.93446576E-01 0.29816017E+03</pdfrwt>
<pdfrwt beam="2">  1       -1 0.53551931E-01 0.29816017E+03</pdfrwt>
<totfact> 0.12583111E+02</totfact>
</mgrwt>
</event>
<event>
 4    1  0.2293715E-008  0.3294981E+03  0.7818608E-02  0.1071359E+00
         -1   -1    0    0    0  501 -0.00000000000E+00  0.00000000000E+00  0.40355357752E+03  0.40355357755E+03  0.50400000000E-02 0.  1.
          1   -1    0    0  501    0  0.00000000000E+00 -0.00000000000E+00 -0.38537594919E+03  0.38537594923E+03  0.50400000000E-02 0. -1.
    8880022    1    1    2    0    0  0.87476968708E+02 -0.27843336180E+03 -0.20765013382E+03  0.38947090791E+03  0.15294330000E+03 0.  0.
    8880022    1    1    2    0    0 -0.87476968708E+02  0.27843336180E+03  0.22582776214E+03  0.39945861887E+03  0.15294330000E+03 0.  1.
<mgrwt>
<rscale>  0 0.32949812E+03</rscale>
<asrwt>0</asrwt>
<pdfrwt beam="1">  1        1 0.59288608E-01 0.32949812E+03</pdfrwt>
<pdfrwt beam="2">  1       -1 0.62085166E-01 0.32949812E+03</pdfrwt>
<totfact> 0.17341066E+02</totfact>
</mgrwt>
</event>
<event>
 4    1  0.2293715E-008  0.4258749E+03  0.7818608E-02  0.1035171E+00
          1   -1    0    0  501    0  0.00000000000E+00  0.00000000000E+00  0.12020395065E+04  0.12020395065E+04  0.50400000000E-02 0. -1.
         -1   -1    0    0    0  501 -0.00000000000E+00 -0.00000000000E+00 -0.43338649119E+03  0.43338649122E+03  0.50400000000E-02 0.  1.
    8880022    1    1    2    0    0  0.33480412127E+03  0.21420555366E+03 -0.27587080860E+03  0.50741913137E+03  0.15294330000E+03 0.  0.
    8880022    1    1    2    0    0 -0.33480412127E+03 -0.21420555366E+03  0.10445238239E+04  0.11280068663E+04  0.15294330000E+03 0. -1.
<mgrwt>
<rscale>  0 0.42587495E+03</rscale>
<asrwt>0</asrwt>
<pdfrwt beam="1">  1        1 0.18492915E+00 0.42587495E+03</pdfrwt>
<pdfrwt beam="2">  1       -1 0.66674845E-01 0.42587495E+03</pdfrwt>
<totfact> 0.26318798E+01</totfact>
</mgrwt>
</event>
<event>
 4    1  0.2293715E-008  0.1975632E+03  0.7818608E-02  0.1151811E+00
          1   -1    0    0  501    0  0.00000000000E+00  0.00000000000E+00  0.20195848474E+03  0.20195848480E+03  0.50400000000E-02 0. -1.
         -1   -1    0    0    0  501 -0.00000000000E+00 -0.00000000000E+00 -0.71872151876E+03  0.71872151878E+03  0.50400000000E-02 0.  1.
    8880022    1    1    2    0    0  0.19580112624E+01 -0.12504299102E+03 -0.65199261586E+03  0.68126764752E+03  0.15294330000E+03 0.  1.
    8880022    1    1    2    0    0 -0.19580112624E+01  0.12504299102E+03  0.13522958184E+03  0.23941235605E+03  0.15294330000E+03 0.  0.
<mgrwt>
<rscale>  0 0.19756325E+03</rscale>
<asrwt>0</asrwt>
<pdfrwt beam="1">  1        1 0.31070536E-01 0.19756325E+03</pdfrwt>
<pdfrwt beam="2">  1       -1 0.11057254E+00 0.19756325E+03</pdfrwt>
<totfact> 0.11837080E+02</totfact>
</mgrwt>
</event>
<event>
 4    1  0.2293715E-008  0.5120050E+03  0.7818608E-02  0.1010692E+00
          1   -1    0    0  501    0  0.00000000000E+00  0.00000000000E+00  0.32412127847E+03  0.32412127850E+03  0.50400000000E-02 0. -1.
         -1   -1    0    0    0  501 -0.00000000000E+00 -0.00000000000E+00 -0.19621813068E+04  0.19621813068E+04  0.50400000000E-02 0.  1.
    8880022    1    1    2    0    0  0.80818197421E+02  0.48189816509E+03  0.57407026079E+02  0.51521320073E+03  0.15294330000E+03 0.  0.
    8880022    1    1    2    0    0 -0.80818197421E+02 -0.48189816509E+03 -0.16954670544E+04  0.17710893846E+04  0.15294330000E+03 0.  0.
<mgrwt>
<rscale>  0 0.51200496E+03</rscale>
<asrwt>0</asrwt>
<pdfrwt beam="1">  1        1 0.49864813E-01 0.51200496E+03</pdfrwt>
<pdfrwt beam="2">  1       -1 0.30187404E+00 0.51200496E+03</pdfrwt>
<totfact> 0.27950029E+00</totfact>
</mgrwt>
</event>
<event>
 4    1  0.2293715E-008  0.3505159E+03  0.7818608E-02  0.1062403E+00
          1   -1    0    0  501    0  0.00000000000E+00  0.00000000000E+00  0.15760398610E+04  0.15760398610E+04  0.50400000000E-02 0. -1.
         -1   -1    0    0    0  501 -0.00000000000E+00 -0.00000000000E+00 -0.21659406026E+03  0.21659406032E+03  0.50400000000E-02 0.  1.
    8880022    1    1    2    0    0  0.31225139759E+03  0.44371261314E+02  0.13968232658E+04  0.14401307695E+04  0.15294330000E+03 0.  0.
    8880022    1    1    2    0    0 -0.31225139759E+03 -0.44371261314E+02 -0.37377465148E+02  0.35250315182E+03  0.15294330000E+03 0.  0.
<mgrwt>
<rscale>  0 0.35051590E+03</rscale>
<asrwt>0</asrwt>
<pdfrwt beam="1">  1        1 0.24246768E+00 0.35051590E+03</pdfrwt>
<pdfrwt beam="2">  1       -1 0.33322163E-01 0.35051590E+03</pdfrwt>
<totfact> 0.53819853E+01</totfact>
</mgrwt>
</event>
<event>
 4    1  0.2293715E-008  0.4722453E+03  0.7818608E-02  0.1021288E+00
          1   -1    0    0  501    0  0.00000000000E+00  0.00000000000E+00  0.30083139150E+03  0.30083139154E+03  0.50400000000E-02 0. -1.
         -1   -1    0    0    0  501 -0.00000000000E+00 -0.00000000000E+00 -0.93212242404E+03  0.93212242405E+03  0.50400000000E-02 0.  1.
    8880022    1    1    2    0    0  0.24559592145E+03 -0.37323807046E+03 -0.36738368480E+02  0.47367222275E+03  0.15294330000E+03 0.  0.
    8880022    1    1    2    0    0 -0.24559592145E+03  0.37323807046E+03 -0.59455266406E+03  0.75928159284E+03  0.15294330000E+03 0.  0.
<mgrwt>
<rscale>  0 0.47224535E+03</rscale>
<asrwt>0</asrwt>
<pdfrwt beam="1">  1        1 0.46281753E-01 0.47224535E+03</pdfrwt>
<pdfrwt beam="2">  1       -1 0.14340345E+00 0.47224535E+03</pdfrwt>
<totfact> 0.36205966E+01</totfact>
</mgrwt>
</event>
<event>
 4    1  0.2293715E-008  0.3218182E+03  0.7818608E-02  0.1074816E+00
          1   -1    0    0  501    0  0.00000000000E+00  0.00000000000E+00  0.27817604067E+03  0.27817604072E+03  0.50400000000E-02 0. -1.
         -1   -1    0    0    0  501 -0.00000000000E+00 -0.00000000000E+00 -0.16634456580E+04  0.16634456580E+04  0.50400000000E-02 0.  1.
    8880022    1    1    2    0    0 -0.13374285840E+03 -0.24957597834E+03  0.16266170541E+03  0.36059091026E+03  0.15294330000E+03 0.  0.
    8880022    1    1    2    0    0  0.13374285840E+03  0.24957597834E+03 -0.15479313228E+04  0.15810307885E+04  0.15294330000E+03 0.  0.
<mgrwt>
<rscale>  0 0.32181823E+03</rscale>
<asrwt>0</asrwt>
<pdfrwt beam="1">  1        1 0.42796315E-01 0.32181823E+03</pdfrwt>
<pdfrwt beam="2">  1       -1 0.25591471E+00 0.32181823E+03</pdfrwt>
<totfact> 0.69787242E+00</totfact>
</mgrwt>
</event>
<event>
 4    1  0.2293715E-008  0.9220013E+03  0.7818608E-02  0.9398489E-01
         -1   -1    0    0    0  501 -0.00000000000E+00  0.00000000000E+00  0.12050397620E+04  0.12050397621E+04  0.50400000000E-02 0.  1.
          1   -1    0    0  501    0  0.00000000000E+00 -0.00000000000E+00 -0.93823274056E+03  0.93823274058E+03  0.50400000000E-02 0. -1.
    8880022    1    1    2    0    0 -0.60035424424E+03  0.68283931512E+03 -0.40039134124E+03  0.10051863648E+04  0.15294330000E+03 0.  0.
    8880022    1    1    2    0    0  0.60035424424E+03 -0.68283931512E+03  0.66719836272E+03  0.11380861378E+04  0.15294330000E+03 0.  0.
<mgrwt>
<rscale>  0 0.92200130E+03</rscale>
<asrwt>0</asrwt>
<pdfrwt beam="1">  1        1 0.14434350E+00 0.92200130E+03</pdfrwt>
<pdfrwt beam="2">  1       -1 0.18539073E+00 0.92200130E+03</pdfrwt>
<totfact> 0.32693335E+00</totfact>
</mgrwt>
</event>
<event>
 4    1  0.2293715E-008  0.1751893E+03  0.7818608E-02  0.1172542E+00
          1   -1    0    0  501    0  0.00000000000E+00  0.00000000000E+00  0.12595446778E+04  0.12595446778E+04  0.50400000000E-02 0. -1.
         -1   -1    0    0    0  501 -0.00000000000E+00 -0.00000000000E+00 -0.39236842738E+02  0.39236843062E+02  0.50400000000E-02 0.  1.
    8880022    1    1    2    0    0 -0.55058209726E+02 -0.65331821919E+02  0.10099260205E+04  0.10250082309E+04  0.15294330000E+03 0.  0.
    8880022    1    1    2    0    0  0.55058209726E+02  0.65331821919E+02  0.21038181454E+03  0.27377329000E+03  0.15294330000E+03 0.  1.
<mgrwt>
<rscale>  0 0.17518934E+03</rscale>
<asrwt>0</asrwt>
<pdfrwt beam="1">  1        1 0.19377607E+00 0.17518934E+03</pdfrwt>
<pdfrwt beam="2">  1       -1 0.60364384E-02 0.17518934E+03</pdfrwt>
<totfact> 0.13810037E+03</totfact>
</mgrwt>
</event>
<event>
 4    1  0.2293715E-008  0.7459861E+03  0.7818608E-02  0.9641669E-01
         -1   -1    0    0    0  501 -0.00000000000E+00  0.00000000000E+00  0.68772092696E+03  0.68772092698E+03  0.50400000000E-02 0.  1.
          1   -1    0    0  501    0  0.00000000000E+00 -0.00000000000E+00 -0.15475202382E+04  0.15475202382E+04  0.50400000000E-02 0. -1.
    8880022    1    1    2    0    0 -0.34719158741E+03  0.64230962137E+03 -0.12018728720E+04  0.14145648453E+04  0.15294330000E+03 0.  0.
    8880022    1    1    2    0    0  0.34719158741E+03 -0.64230962137E+03  0.34207356075E+03  0.82067631991E+03  0.15294330000E+03 0.  0.
<mgrwt>
<rscale>  0 0.74598613E+03</rscale>
<asrwt>0</asrwt>
<pdfrwt beam="1">  1        1 0.23808004E+00 0.74598613E+03</pdfrwt>
<pdfrwt beam="2">  1       -1 0.10580322E+00 0.74598613E+03</pdfrwt>
<totfact> 0.52902581E+00</totfact>
</mgrwt>
</event>
<event>
 4    1  0.2293715E-008  0.5538151E+03  0.7818608E-02  0.1000615E+00
         -1   -1    0    0    0  501 -0.00000000000E+00  0.00000000000E+00  0.35553498337E+03  0.35553498340E+03  0.50400000000E-02 0.  1.
          1   -1    0    0  501    0  0.00000000000E+00 -0.00000000000E+00 -0.17686518078E+04  0.17686518078E+04  0.50400000000E-02 0. -1.
    8880022    1    1    2    0    0  0.30040341566E+03  0.43940567926E+03  0.53592860801E+02  0.55640220241E+03  0.15294330000E+03 0.  0.
    8880022    1    1    2    0    0 -0.30040341566E+03 -0.43940567926E+03 -0.14667096852E+04  0.15677845888E+04  0.15294330000E+03 0.  0.
<mgrwt>
<rscale>  0 0.55381515E+03</rscale>
<asrwt>0</asrwt>
<pdfrwt beam="1">  1        1 0.27210027E+00 0.55381515E+03</pdfrwt>
<pdfrwt beam="2">  1       -1 0.54697691E-01 0.55381515E+03</pdfrwt>
<totfact> 0.15530976E+01</totfact>
</mgrwt>
</event>
<event>
 4    1  0.2293715E-008  0.6541439E+03  0.7818608E-02  0.9799034E-01
         -1   -1    0    0    0  501 -0.00000000000E+00  0.00000000000E+00  0.37210398271E+03  0.37210398275E+03  0.50400000000E-02 0.  1.
          1   -1    0    0  501    0  0.00000000000E+00 -0.00000000000E+00 -0.15980229627E+04  0.15980229627E+04  0.50400000000E-02 0. -1.
    8880022    1    1    2    0    0  0.34873929327E+03 -0.53187730933E+03 -0.91353163015E+02  0.66049195321E+03  0.15294330000E+03 0.  0.
    8880022    1    1    2    0    0 -0.34873929327E+03  0.53187730933E+03 -0.11345658170E+04  0.13096349922E+04  0.15294330000E+03 0.  0.
<mgrwt>
<rscale>  0 0.65414388E+03</rscale>
<asrwt>0</asrwt>
<pdfrwt beam="1">  1        1 0.24584968E+00 0.65414388E+03</pdfrwt>
<pdfrwt beam="2">  1       -1 0.57246767E-01 0.65414388E+03</pdfrwt>
<totfact> 0.18181081E+01</totfact>
</mgrwt>
</event>
<event>
 4    1  0.2293715E-008  0.1213222E+04  0.7818608E-02  0.9101361E-01
          1   -1    0    0  501    0  0.00000000000E+00  0.00000000000E+00  0.30951625436E+04  0.30951625436E+04  0.50400000000E-02 0. -1.
         -1   -1    0    0    0  501 -0.00000000000E+00 -0.00000000000E+00 -0.79976280876E+03  0.79976280878E+03  0.50400000000E-02 0.  1.
    8880022    1    1    2    0    0 -0.10281608485E+04  0.62562072307E+03  0.23876463729E+04  0.26782014253E+04  0.15294330000E+03 0.  0.
    8880022    1    1    2    0    0  0.10281608485E+04 -0.62562072307E+03 -0.92246638042E+02  0.12167239271E+04  0.15294330000E+03 0.  0.
<mgrwt>
<rscale>  0 0.12132220E+04</rscale>
<asrwt>0</asrwt>
<pdfrwt beam="1">  1        1 0.47617886E+00 0.12132220E+04</pdfrwt>
<pdfrwt beam="2">  1       -1 0.12304043E+00 0.12132220E+04</pdfrwt>
<totfact> 0.29429847E-01</totfact>
</mgrwt>
</event>
<event>
 4    1  0.2293715E-008  0.1605839E+04  0.7818608E-02  0.8816969E-01
         -1   -1    0    0    0  501 -0.00000000000E+00  0.00000000000E+00  0.16412817703E+04  0.16412817703E+04  0.50400000000E-02 0.  1.
          1   -1    0    0  501    0  0.00000000000E+00 -0.00000000000E+00 -0.18595846175E+04  0.18595846175E+04  0.50400000000E-02 0. -1.
    8880022    1    1    2    0    0 -0.14415814112E+04  0.69077580698E+03  0.58021812285E+03  0.17074463106E+04  0.15294330000E+03 0.  0.
    8880022    1    1    2    0    0  0.14415814112E+04 -0.69077580698E+03 -0.79852097003E+03  0.17934200772E+04  0.15294330000E+03 0.  0.
<mgrwt>
<rscale>  0 0.16058393E+04</rscale>
<asrwt>0</asrwt>
<pdfrwt beam="1">  1        1 0.28608994E+00 0.16058393E+04</pdfrwt>
<pdfrwt beam="2">  1       -1 0.25250489E+00 0.16058393E+04</pdfrwt>
<totfact> 0.23236947E-01</totfact>
</mgrwt>
</event>
<event>
 4    1  0.2293715E-008  0.4468583E+03  0.7818608E-02  0.1028663E+00
          1   -1    0    0  501    0  0.00000000000E+00  0.00000000000E+00  0.30171443005E+04  0.30171443005E+04  0.50400000000E-02 0. -1.
         -1   -1    0    0    0  501 -0.00000000000E+00 -0.00000000000E+00 -0.44540866625E+03  0.44540866628E+03  0.50400000000E-02 0.  1.
    8880022    1    1    2    0    0  0.39270349712E+03  0.14857543306E+03 -0.31161504983E+03  0.54478095438E+03  0.15294330000E+03 0.  0.
    8880022    1    1    2    0    0 -0.39270349712E+03 -0.14857543306E+03  0.28833506840E+04  0.29177720124E+04  0.15294330000E+03 0.  0.
<mgrwt>
<rscale>  0 0.44685831E+03</rscale>
<asrwt>0</asrwt>
<pdfrwt beam="1">  1        1 0.46417603E+00 0.44685831E+03</pdfrwt>
<pdfrwt beam="2">  1       -1 0.68524412E-01 0.44685831E+03</pdfrwt>
<totfact> 0.14702949E+00</totfact>
</mgrwt>
</event>
<event>
 4    1  0.2293715E-008  0.4935997E+03  0.7818608E-02  0.1015463E+00
         -1   -1    0    0    0  501 -0.00000000000E+00  0.00000000000E+00  0.48009386846E+03  0.48009386849E+03  0.50400000000E-02 0.  1.
          1   -1    0    0  501    0  0.00000000000E+00 -0.00000000000E+00 -0.19554966653E+04  0.19554966654E+04  0.50400000000E-02 0. -1.
    8880022    1    1    2    0    0  0.45333342700E+01 -0.46928504266E+03 -0.17856300243E+04  0.18525968906E+04  0.15294330000E+03 0.  0.
    8880022    1    1    2    0    0 -0.45333342700E+01  0.46928504266E+03  0.31022722743E+03  0.58299364323E+03  0.15294330000E+03 0.  0.
<mgrwt>
<rscale>  0 0.49359969E+03</rscale>
<asrwt>0</asrwt>
<pdfrwt beam="1">  1        1 0.30084564E+00 0.49359969E+03</pdfrwt>
<pdfrwt beam="2">  1       -1 0.73860596E-01 0.49359969E+03</pdfrwt>
<totfact> 0.65211781E+00</totfact>
</mgrwt>
</event>
<event>
 4    1  0.2293715E-008  0.3845430E+03  0.7818608E-02  0.1049267E+00
          1   -1    0    0  501    0  0.00000000000E+00  0.00000000000E+00  0.56603879373E+03  0.56603879375E+03  0.50400000000E-02 0. -1.
         -1   -1    0    0    0  501 -0.00000000000E+00 -0.00000000000E+00 -0.42537862538E+03  0.42537862541E+03  0.50400000000E-02 0.  1.
    8880022    1    1    2    0    0  0.29435699681E+03  0.19451386999E+03 -0.23759205967E+03  0.45202137894E+03  0.15294330000E+03 0.  0.
    8880022    1    1    2    0    0 -0.29435699681E+03 -0.19451386999E+03  0.37825222801E+03  0.53939604022E+03  0.15294330000E+03 0.  0.
<mgrwt>
<rscale>  0 0.38454303E+03</rscale>
<asrwt>0</asrwt>
<pdfrwt beam="1">  1        1 0.87082891E-01 0.38454303E+03</pdfrwt>
<pdfrwt beam="2">  1       -1 0.65442866E-01 0.38454303E+03</pdfrwt>
<totfact> 0.93025109E+01</totfact>
</mgrwt>
</event>
<event>
 4    1  0.2293715E-008  0.5136206E+03  0.7818608E-02  0.1010284E+00
          1   -1    0    0  501    0  0.00000000000E+00  0.00000000000E+00  0.15595431735E+04  0.15595431735E+04  0.50400000000E-02 0. -1.
         -1   -1    0    0    0  501 -0.00000000000E+00 -0.00000000000E+00 -0.26180220334E+03  0.26180220338E+03  0.50400000000E-02 0.  1.
    8880022    1    1    2    0    0  0.47669558128E+03 -0.11478577709E+03  0.10713230183E+03  0.52467459911E+03  0.15294330000E+03 0.  0.
    8880022    1    1    2    0    0 -0.47669558128E+03  0.11478577709E+03  0.11906086683E+04  0.12966707778E+04  0.15294330000E+03 0.  0.
<mgrwt>
<rscale>  0 0.51362058E+03</rscale>
<asrwt>0</asrwt>
<pdfrwt beam="1">  1        1 0.23992971E+00 0.51362058E+03</pdfrwt>
<pdfrwt beam="2">  1       -1 0.40277264E-01 0.51362058E+03</pdfrwt>
<totfact> 0.38152509E+01</totfact>
</mgrwt>
</event>
<event>
 4    1  0.2293715E-008  0.4063734E+03  0.7818608E-02  0.1041595E+00
          1   -1    0    0  501    0  0.00000000000E+00  0.00000000000E+00  0.85104650528E+03  0.85104650530E+03  0.50400000000E-02 0. -1.
         -1   -1    0    0    0  501 -0.00000000000E+00 -0.00000000000E+00 -0.10182832158E+04  0.10182832158E+04  0.50400000000E-02 0.  1.
    8880022    1    1    2    0    0  0.32429680597E+02  0.37509466241E+03 -0.92452659452E+03  0.10098954238E+04  0.15294330000E+03 0.  0.
    8880022    1    1    2    0    0 -0.32429680597E+02 -0.37509466241E+03  0.75728988402E+03  0.85943429732E+03  0.15294330000E+03 0.  0.
<mgrwt>
<rscale>  0 0.40637340E+03</rscale>
<asrwt>0</asrwt>
<pdfrwt beam="1">  1        1 0.13093023E+00 0.40637340E+03</pdfrwt>
<pdfrwt beam="2">  1       -1 0.15665896E+00 0.40637340E+03</pdfrwt>
<totfact> 0.68556815E+00</totfact>
</mgrwt>
</event>
<event>
 4    1  0.2293715E-008  0.2050356E+03  0.7818608E-02  0.1145559E+00
          1   -1    0    0  501    0  0.00000000000E+00  0.00000000000E+00  0.89094390837E+03  0.89094390838E+03  0.50400000000E-02 0. -1.
         -1   -1    0    0    0  501 -0.00000000000E+00 -0.00000000000E+00 -0.31052096721E+03  0.31052096725E+03  0.50400000000E-02 0.  1.
    8880022    1    1    2    0    0  0.34613271798E+02 -0.13209798722E+03  0.84342184793E+03  0.86798618848E+03  0.15294330000E+03 0.  0.
    8880022    1    1    2    0    0 -0.34613271798E+02  0.13209798722E+03 -0.26299890677E+03  0.33347868715E+03  0.15294330000E+03 0.  0.
<mgrwt>
<rscale>  0 0.20503563E+03</rscale>
<asrwt>0</asrwt>
<pdfrwt beam="1">  1        1 0.13706829E+00 0.20503563E+03</pdfrwt>
<pdfrwt beam="2">  1       -1 0.47772456E-01 0.20503563E+03</pdfrwt>
<totfact> 0.89529356E+01</totfact>
</mgrwt>
</event>
<event>
 4    1  0.2293715E-008  0.1938043E+03  0.7818608E-02  0.1155074E+00
          1   -1    0    0  501    0  0.00000000000E+00  0.00000000000E+00  0.23029753800E+03  0.23029753806E+03  0.50400000000E-02 0. -1.
         -1   -1    0    0    0  501 -0.00000000000E+00 -0.00000000000E+00 -0.58007882200E+03  0.58007882202E+03  0.50400000000E-02 0.  1.
    8880022    1    1    2    0    0 -0.11748381478E+03  0.19131743259E+02 -0.51842757896E+03  0.55346840739E+03  0.15294330000E+03 0.  0.
    8880022    1    1    2    0    0  0.11748381478E+03 -0.19131743259E+02  0.16864629496E+03  0.25690795269E+03  0.15294330000E+03 0. -1.
<mgrwt>
<rscale>  0 0.19380434E+03</rscale>
<asrwt>0</asrwt>
<pdfrwt beam="1">  1        1 0.35430391E-01 0.19380434E+03</pdfrwt>
<pdfrwt beam="2">  1       -1 0.89242895E-01 0.19380434E+03</pdfrwt>
<totfact> 0.16147143E+02</totfact>
</mgrwt>
</event>
<event>
 4    1  0.2293715E-008  0.5065680E+03  0.7818608E-02  0.1012079E+00
          1   -1    0    0  501    0  0.00000000000E+00  0.00000000000E+00  0.16465279963E+03  0.16465279971E+03  0.50400000000E-02 0. -1.
         -1   -1    0    0    0  501 -0.00000000000E+00 -0.00000000000E+00 -0.28944040964E+04  0.28944040964E+04  0.50400000000E-02 0.  1.
    8880022    1    1    2    0    0 -0.18628303344E+03  0.44555369304E+03 -0.24039960879E+04  0.24567882094E+04  0.15294330000E+03 0.  0.
    8880022    1    1    2    0    0  0.18628303344E+03 -0.44555369304E+03 -0.32575520886E+03  0.60226868675E+03  0.15294330000E+03 0.  0.
<mgrwt>
<rscale>  0 0.50656798E+03</rscale>
<asrwt>0</asrwt>
<pdfrwt beam="1">  1        1 0.25331202E-01 0.50656798E+03</pdfrwt>
<pdfrwt beam="2">  1       -1 0.44529290E+00 0.50656798E+03</pdfrwt>
<totfact> 0.75236205E-01</totfact>
</mgrwt>
</event>
<event>
 4    1  0.2293715E-008  0.8714603E+03  0.7818608E-02  0.9461978E-01
         -1   -1    0    0    0  501 -0.00000000000E+00  0.00000000000E+00  0.27163325465E+04  0.27163325465E+04  0.50400000000E-02 0.  1.
          1   -1    0    0  501    0  0.00000000000E+00 -0.00000000000E+00 -0.35528311604E+03  0.35528311607E+03  0.50400000000E-02 0. -1.
    8880022    1    1    2    0    0  0.68667154815E+03 -0.51432835847E+03  0.18894410559E+04  0.20807283898E+04  0.15294330000E+03 0.  0.
    8880022    1    1    2    0    0 -0.68667154815E+03  0.51432835847E+03  0.47160837453E+03  0.99088727275E+03  0.15294330000E+03 0.  0.
<mgrwt>
<rscale>  0 0.87146034E+03</rscale>
<asrwt>0</asrwt>
<pdfrwt beam="1">  1        1 0.54658940E-01 0.87146034E+03</pdfrwt>
<pdfrwt beam="2">  1       -1 0.41789732E+00 0.87146034E+03</pdfrwt>
<totfact> 0.39683562E-01</totfact>
</mgrwt>
</event>
<event>
 4    1  0.2293715E-008  0.4889247E+03  0.7818608E-02  0.1016711E+00
         -1   -1    0    0    0  501 -0.00000000000E+00  0.00000000000E+00  0.79570433998E+03  0.79570433999E+03  0.50400000000E-02 0.  1.
          1   -1    0    0  501    0  0.00000000000E+00 -0.00000000000E+00 -0.70147392106E+03  0.70147392108E+03  0.50400000000E-02 0. -1.
    8880022    1    1    2    0    0 -0.35727350427E+03 -0.29666706502E+03  0.61314315067E+03  0.78421418027E+03  0.15294330000E+03 0.  0.
    8880022    1    1    2    0    0  0.35727350427E+03  0.29666706502E+03 -0.51891273175E+03  0.71296408080E+03  0.15294330000E+03 0.  0.
<mgrwt>
<rscale>  0 0.48892469E+03</rscale>
<asrwt>0</asrwt>
<pdfrwt beam="1">  1        1 0.10791906E+00 0.48892469E+03</pdfrwt>
<pdfrwt beam="2">  1       -1 0.12241605E+00 0.48892469E+03</pdfrwt>
<totfact> 0.17090992E+01</totfact>
</mgrwt>
</event>
<event>
 4    1  0.2293715E-008  0.4272727E+03  0.7818608E-02  0.1034725E+00
         -1   -1    0    0    0  501 -0.00000000000E+00  0.00000000000E+00  0.24314545978E+03  0.24314545983E+03  0.50400000000E-02 0.  1.
          1   -1    0    0  501    0  0.00000000000E+00 -0.00000000000E+00 -0.27113574956E+04  0.27113574956E+04  0.50400000000E-02 0. -1.
    8880022    1    1    2    0    0 -0.38636547277E+03  0.99458881010E+02 -0.24902719509E+04  0.25266611150E+04  0.15294330000E+03 0.  0.
    8880022    1    1    2    0    0  0.38636547277E+03 -0.99458881010E+02  0.22059915093E+02  0.42784184043E+03  0.15294330000E+03 0.  0.
<mgrwt>
<rscale>  0 0.42727275E+03</rscale>
<asrwt>0</asrwt>
<pdfrwt beam="1">  1        1 0.41713190E+00 0.42727275E+03</pdfrwt>
<pdfrwt beam="2">  1       -1 0.37406996E-01 0.42727275E+03</pdfrwt>
<totfact> 0.75726869E+00</totfact>
</mgrwt>
</event>
<event>
 4    1  0.2293715E-008  0.7285879E+03  0.7818608E-02  0.9669555E-01
         -1   -1    0    0    0  501 -0.00000000000E+00  0.00000000000E+00  0.81198999774E+03  0.81198999776E+03  0.50400000000E-02 0.  1.
          1   -1    0    0  501    0  0.00000000000E+00 -0.00000000000E+00 -0.85280329338E+03  0.85280329340E+03  0.50400000000E-02 0. -1.
    8880022    1    1    2    0    0  0.71029696378E+03 -0.54101103866E+02  0.38174330357E+03  0.82253772499E+03  0.15294330000E+03 0.  0.
    8880022    1    1    2    0    0 -0.71029696378E+03  0.54101103866E+02 -0.42255659921E+03  0.84225556617E+03  0.15294330000E+03 0.  0.
<mgrwt>
<rscale>  0 0.72858792E+03</rscale>
<asrwt>0</asrwt>
<pdfrwt beam="1">  1        1 0.13120051E+00 0.72858792E+03</pdfrwt>
<pdfrwt beam="2">  1       -1 0.12492154E+00 0.72858792E+03</pdfrwt>
<totfact> 0.11540043E+01</totfact>
</mgrwt>
</event>
<event>
 4    1  0.2293715E-008  0.5677923E+03  0.7818608E-02  0.9974576E-01
         -1   -1    0    0    0  501 -0.00000000000E+00  0.00000000000E+00  0.41084067049E+03  0.41084067052E+03  0.50400000000E-02 0.  1.
          1   -1    0    0  501    0  0.00000000000E+00 -0.00000000000E+00 -0.15952477543E+04  0.15952477543E+04  0.50400000000E-02 0. -1.
    8880022    1    1    2    0    0 -0.52313231431E+03  0.15915103518E+03  0.12277723245E+03  0.58091511609E+03  0.15294330000E+03 0.  0.
    8880022    1    1    2    0    0  0.52313231431E+03 -0.15915103518E+03 -0.13071843162E+04  0.14251733087E+04  0.15294330000E+03 0.  0.
<mgrwt>
<rscale>  0 0.56779232E+03</rscale>
<asrwt>0</asrwt>
<pdfrwt beam="1">  1        1 0.24542273E+00 0.56779232E+03</pdfrwt>
<pdfrwt beam="2">  1       -1 0.63206258E-01 0.56779232E+03</pdfrwt>
<totfact> 0.15256717E+01</totfact>
</mgrwt>
</event>
<event>
 4    1  0.2293715E-008  0.2013951E+03  0.7818608E-02  0.1148567E+00
          1   -1    0    0  501    0  0.00000000000E+00  0.00000000000E+00  0.85282842341E+03  0.85282842342E+03  0.50400000000E-02 0. -1.
         -1   -1    0    0    0  501 -0.00000000000E+00 -0.00000000000E+00 -0.11768309108E+03  0.11768309119E+03  0.50400000000E-02 0.  1.
    8880022    1    1    2    0    0  0.66865231915E+02  0.11268270666E+03 -0.70086056634E+01  0.20151705930E+03  0.15294330000E+03 0.  0.
    8880022    1    1    2    0    0 -0.66865231915E+02 -0.11268270666E+03  0.74215393799E+03  0.76899445532E+03  0.15294330000E+03 0. -1.
<mgrwt>
<rscale>  0 0.20139515E+03</rscale>
<asrwt>0</asrwt>
<pdfrwt beam="1">  1        1 0.13120438E+00 0.20139515E+03</pdfrwt>
<pdfrwt beam="2">  1       -1 0.18105090E-01 0.20139515E+03</pdfrwt>
<totfact> 0.49995562E+02</totfact>
</mgrwt>
</event>
<event>
 4    1  0.2293715E-008  0.5922732E+03  0.7818608E-02  0.9921568E-01
         -1   -1    0    0    0  501 -0.00000000000E+00  0.00000000000E+00  0.28563733722E+03  0.28563733727E+03  0.50400000000E-02 0.  1.
          1   -1    0    0  501    0  0.00000000000E+00 -0.00000000000E+00 -0.26055518308E+04  0.26055518308E+04  0.50400000000E-02 0. -1.
    8880022    1    1    2    0    0  0.30806372439E+03  0.48217486332E+03 -0.22110399964E+04  0.22889922183E+04  0.15294330000E+03 0.  0.
    8880022    1    1    2    0    0 -0.30806372439E+03 -0.48217486332E+03 -0.10887449721E+03  0.60219694973E+03  0.15294330000E+03 0.  0.
<mgrwt>
<rscale>  0 0.59227317E+03</rscale>
<asrwt>0</asrwt>
<pdfrwt beam="1">  1        1 0.40085411E+00 0.59227317E+03</pdfrwt>
<pdfrwt beam="2">  1       -1 0.43944208E-01 0.59227317E+03</pdfrwt>
<totfact> 0.63975458E+00</totfact>
</mgrwt>
</event>
<event>
 4    1  0.2293715E-008  0.2286124E+03  0.7818608E-02  0.1127620E+00
         -1   -1    0    0    0  501 -0.00000000000E+00  0.00000000000E+00  0.16186898559E+03  0.16186898567E+03  0.50400000000E-02 0.  1.
          1   -1    0    0  501    0  0.00000000000E+00 -0.00000000000E+00 -0.10793965460E+04  0.10793965460E+04  0.50400000000E-02 0. -1.
    8880022    1    1    2    0    0 -0.11728471903E+03  0.12294831170E+03 -0.97834624954E+03  0.10047014630E+04  0.15294330000E+03 0.  0.
    8880022    1    1    2    0    0  0.11728471903E+03 -0.12294831170E+03  0.60818689100E+02  0.23656406876E+03  0.15294330000E+03 0.  0.
<mgrwt>
<rscale>  0 0.22861244E+03</rscale>
<asrwt>0</asrwt>
<pdfrwt beam="1">  1        1 0.16606100E+00 0.22861244E+03</pdfrwt>
<pdfrwt beam="2">  1       -1 0.24902922E-01 0.22861244E+03</pdfrwt>
<totfact> 0.19914337E+02</totfact>
</mgrwt>
</event>
<event>
 4    1  0.2293715E-008  0.5706934E+03  0.7818608E-02  0.9968145E-01
         -1   -1    0    0    0  501 -0.00000000000E+00  0.00000000000E+00  0.34519085914E+03  0.34519085918E+03  0.50400000000E-02 0.  1.
          1   -1    0    0  501    0  0.00000000000E+00 -0.00000000000E+00 -0.17957525230E+04  0.17957525230E+04  0.50400000000E-02 0. -1.
    8880022    1    1    2    0    0 -0.19717148152E+03  0.51324726074E+03  0.12170843520E+02  0.57082320050E+03  0.15294330000E+03 0.  0.
    8880022    1    1    2    0    0  0.19717148152E+03 -0.51324726074E+03 -0.14627325074E+04  0.15701201817E+04  0.15294330000E+03 0.  0.
<mgrwt>
<rscale>  0 0.57069344E+03</rscale>
<asrwt>0</asrwt>
<pdfrwt beam="1">  1        1 0.27626961E+00 0.57069344E+03</pdfrwt>
<pdfrwt beam="2">  1       -1 0.53106287E-01 0.57069344E+03</pdfrwt>
<totfact> 0.15713090E+01</totfact>
</mgrwt>
</event>
<event>
 4    1  0.2293715E-008  0.9212317E+03  0.7818608E-02  0.9399423E-01
          1   -1    0    0  501    0  0.00000000000E+00  0.00000000000E+00  0.14701469590E+04  0.14701469591E+04  0.50400000000E-02 0. -1.
         -1   -1    0    0    0  501 -0.00000000000E+00 -0.00000000000E+00 -0.97313678144E+03  0.97313678146E+03  0.50400000000E-02 0.  1.
    8880022    1    1    2    0    0  0.65326209613E+03 -0.63128815545E+03 -0.53066627082E+03  0.10631436617E+04  0.15294330000E+03 0.  0.
    8880022    1    1    2    0    0 -0.65326209613E+03  0.63128815545E+03  0.10276764484E+04  0.13801400788E+04  0.15294330000E+03 0.  0.
<mgrwt>
<rscale>  0 0.92123165E+03</rscale>
<asrwt>0</asrwt>
<pdfrwt beam="1">  1        1 0.22617646E+00 0.92123165E+03</pdfrwt>
<pdfrwt beam="2">  1       -1 0.14971335E+00 0.92123165E+03</pdfrwt>
<totfact> 0.24462009E+00</totfact>
</mgrwt>
</event>
<event>
 4    1  0.2293715E-008  0.3393634E+03  0.7818608E-02  0.1067067E+00
          1   -1    0    0  501    0  0.00000000000E+00  0.00000000000E+00  0.10071350972E+04  0.10071350972E+04  0.50400000000E-02 0. -1.
         -1   -1    0    0    0  501 -0.00000000000E+00 -0.00000000000E+00 -0.14642181270E+03  0.14642181279E+03  0.50400000000E-02 0.  1.
    8880022    1    1    2    0    0  0.25648436045E+03  0.16121921954E+03  0.16042300152E+03  0.37537055869E+03  0.15294330000E+03 0.  0.
    8880022    1    1    2    0    0 -0.25648436045E+03 -0.16121921954E+03  0.70029028295E+03  0.77818635128E+03  0.15294330000E+03 0.  0.
<mgrwt>
<rscale>  0 0.33936340E+03</rscale>
<asrwt>0</asrwt>
<pdfrwt beam="1">  1        1 0.15494385E+00 0.33936340E+03</pdfrwt>
<pdfrwt beam="2">  1       -1 0.22526434E-01 0.33936340E+03</pdfrwt>
<totfact> 0.26146952E+02</totfact>
</mgrwt>
</event>
<event>
 4    1  0.2293715E-008  0.3434859E+03  0.7818608E-02  0.1065321E+00
         -1   -1    0    0    0  501 -0.00000000000E+00  0.00000000000E+00  0.11783086247E+04  0.11783086248E+04  0.50400000000E-02 0.  1.
          1   -1    0    0  501    0  0.00000000000E+00 -0.00000000000E+00 -0.21906565845E+03  0.21906565851E+03  0.50400000000E-02 0. -1.
    8880022    1    1    2    0    0  0.19725589366E+03  0.23596826425E+03 -0.35196767315E+02  0.34528448381E+03  0.15294330000E+03 0. -1.
    8880022    1    1    2    0    0 -0.19725589366E+03 -0.23596826425E+03  0.99443973361E+03  0.10520897995E+04  0.15294330000E+03 0.  0.
<mgrwt>
<rscale>  0 0.34348590E+03</rscale>
<asrwt>0</asrwt>
<pdfrwt beam="1">  1        1 0.33702410E-01 0.34348590E+03</pdfrwt>
<pdfrwt beam="2">  1       -1 0.18127825E+00 0.34348590E+03</pdfrwt>
<totfact> 0.29066432E+01</totfact>
</mgrwt>
</event>
<event>
 4    1  0.2293715E-008  0.8890401E+03  0.7818608E-02  0.9439386E-01
          1   -1    0    0  501    0  0.00000000000E+00  0.00000000000E+00  0.25271938368E+04  0.25271938368E+04  0.50400000000E-02 0. -1.
         -1   -1    0    0    0  501 -0.00000000000E+00 -0.00000000000E+00 -0.33714959039E+03  0.33714959043E+03  0.50400000000E-02 0.  1.
    8880022    1    1    2    0    0 -0.81852551592E+03  0.31147487788E+03  0.14802621187E+04  0.17267218110E+04  0.15294330000E+03 0.  0.
    8880022    1    1    2    0    0  0.81852551592E+03 -0.31147487788E+03  0.70978212775E+03  0.11376216162E+04  0.15294330000E+03 0.  0.
<mgrwt>
<rscale>  0 0.88904009E+03</rscale>
<asrwt>0</asrwt>
<pdfrwt beam="1">  1        1 0.38879904E+00 0.88904009E+03</pdfrwt>
<pdfrwt beam="2">  1       -1 0.51869169E-01 0.88904009E+03</pdfrwt>
<totfact> 0.50231540E+00</totfact>
</mgrwt>
</event>
<event>
 4    1  0.2293715E-008  0.2663961E+03  0.7818608E-02  0.1103360E+00
          1   -1    0    0  501    0  0.00000000000E+00  0.00000000000E+00  0.99036193114E+03  0.99036193115E+03  0.50400000000E-02 0. -1.
         -1   -1    0    0    0  501 -0.00000000000E+00 -0.00000000000E+00 -0.42567551344E+03  0.42567551347E+03  0.50400000000E-02 0.  1.
    8880022    1    1    2    0    0 -0.93908869562E+02 -0.19686627766E+03  0.92802432953E+03  0.96550298616E+03  0.15294330000E+03 0.  0.
    8880022    1    1    2    0    0  0.93908869562E+02  0.19686627766E+03 -0.36333791183E+03  0.45053445845E+03  0.15294330000E+03 0.  0.
<mgrwt>
<rscale>  0 0.26639606E+03</rscale>
<asrwt>0</asrwt>
<pdfrwt beam="1">  1        1 0.15236337E+00 0.26639606E+03</pdfrwt>
<pdfrwt beam="2">  1       -1 0.65488541E-01 0.26639606E+03</pdfrwt>
<totfact> 0.40543935E+01</totfact>
</mgrwt>
</event>
<event>
 4    1  0.2293715E-008  0.7925240E+03  0.7818608E-02  0.9570902E-01
         -1   -1    0    0    0  501 -0.00000000000E+00  0.00000000000E+00  0.61983658563E+03  0.61983658565E+03  0.50400000000E-02 0.  1.
          1   -1    0    0  501    0  0.00000000000E+00 -0.00000000000E+00 -0.11896043323E+04  0.11896043323E+04  0.50400000000E-02 0. -1.
    8880022    1    1    2    0    0 -0.41399445839E+03 -0.65826374847E+03  0.63387021665E+02  0.79505480419E+03  0.15294330000E+03 0.  0.
    8880022    1    1    2    0    0  0.41399445839E+03  0.65826374847E+03 -0.63315476830E+03  0.10143861137E+04  0.15294330000E+03 0.  0.
<mgrwt>
<rscale>  0 0.79252396E+03</rscale>
<asrwt>0</asrwt>
<pdfrwt beam="1">  1        1 0.18301605E+00 0.79252396E+03</pdfrwt>
<pdfrwt beam="2">  1       -1 0.95359475E-01 0.79252396E+03</pdfrwt>
<totfact> 0.11866471E+01</totfact>
</mgrwt>
</event>
<event>
 4    1  0.2293715E-008  0.8111208E+03  0.7818608E-02  0.9544058E-01
          1   -1    0    0  501    0  0.00000000000E+00  0.00000000000E+00  0.80269257595E+03  0.80269257596E+03  0.50400000000E-02 0. -1.
         -1   -1    0    0    0  501 -0.00000000000E+00 -0.00000000000E+00 -0.10601408382E+04  0.10601408382E+04  0.50400000000E-02 0.  1.
    8880022    1    1    2    0    0 -0.79579109036E+03 -0.35239891316E+02 -0.57235603030E+03  0.99272775113E+03  0.15294330000E+03 0.  0.
    8880022    1    1    2    0    0  0.79579109036E+03  0.35239891316E+02  0.31490776806E+03  0.87010566303E+03  0.15294330000E+03 0.  0.
<mgrwt>
<rscale>  0 0.81112081E+03</rscale>
<asrwt>0</asrwt>
<pdfrwt beam="1">  1        1 0.12349117E+00 0.81112081E+03</pdfrwt>
<pdfrwt beam="2">  1       -1 0.16309859E+00 0.81112081E+03</pdfrwt>
<totfact> 0.62442237E+00</totfact>
</mgrwt>
</event>
<event>
 4    1  0.2293715E-008  0.8531511E+03  0.7818608E-02  0.9486117E-01
          1   -1    0    0  501    0  0.00000000000E+00  0.00000000000E+00  0.16501644665E+04  0.16501644665E+04  0.50400000000E-02 0. -1.
         -1   -1    0    0    0  501 -0.00000000000E+00 -0.00000000000E+00 -0.48931272143E+03  0.48931272146E+03  0.50400000000E-02 0.  1.
    8880022    1    1    2    0    0  0.72410150751E+03  0.42444325579E+03  0.24459388483E+03  0.88752064319E+03  0.15294330000E+03 0.  0.
    8880022    1    1    2    0    0 -0.72410150751E+03 -0.42444325579E+03  0.91625786026E+03  0.12519565448E+04  0.15294330000E+03 0.  0.
<mgrwt>
<rscale>  0 0.85315106E+03</rscale>
<asrwt>0</asrwt>
<pdfrwt beam="1">  1        1 0.25387146E+00 0.85315106E+03</pdfrwt>
<pdfrwt beam="2">  1       -1 0.75278880E-01 0.85315106E+03</pdfrwt>
<totfact> 0.93793071E+00</totfact>
</mgrwt>
</event>
<event>
 4    1  0.2293715E-008  0.4843835E+03  0.7818608E-02  0.1017937E+00
         -1   -1    0    0    0  501 -0.00000000000E+00  0.00000000000E+00  0.30281386399E+04  0.30281386399E+04  0.50400000000E-02 0.  1.
          1   -1    0    0  501    0  0.00000000000E+00 -0.00000000000E+00 -0.52174830738E+03  0.52174830741E+03  0.50400000000E-02 0. -1.
    8880022    1    1    2    0    0  0.28463384092E+03  0.36085907025E+03  0.28910503995E+04  0.29313477714E+04  0.15294330000E+03 0.  0.
    8880022    1    1    2    0    0 -0.28463384092E+03 -0.36085907025E+03 -0.38466006693E+03  0.61853917587E+03  0.15294330000E+03 0.  0.
<mgrwt>
<rscale>  0 0.48438347E+03</rscale>
<asrwt>0</asrwt>
<pdfrwt beam="1">  1        1 0.80268971E-01 0.48438347E+03</pdfrwt>
<pdfrwt beam="2">  1       -1 0.46586748E+00 0.48438347E+03</pdfrwt>
<totfact> 0.12203544E-01</totfact>
</mgrwt>
</event>
<event>
 4    1  0.3127935E-008  0.5511551E+03  0.7818608E-02  0.1001227E+00
          1   -1    0    0  501    0  0.00000000000E+00  0.00000000000E+00  0.11651580727E+04  0.11651580727E+04  0.50400000000E-02 0. -1.
         -1   -1    0    0    0  501 -0.00000000000E+00 -0.00000000000E+00 -0.17771361928E+04  0.17771361928E+04  0.50400000000E-02 0.  1.
    8880022    1    1    2    0    0  0.20338155593E+03 -0.48889282371E+03  0.10529686974E+04  0.11884927349E+04  0.15294330000E+03 0.  0.
    8880022    1    1    2    0    0 -0.20338155593E+03  0.48889282371E+03 -0.16649468175E+04  0.17538015305E+04  0.15294330000E+03 0.  0.
<mgrwt>
<rscale>  0 0.55115506E+03</rscale>
<asrwt>0</asrwt>
<pdfrwt beam="1">  1        1 0.17925509E+00 0.55115506E+03</pdfrwt>
<pdfrwt beam="2">  1       -1 0.27340557E+00 0.55115506E+03</pdfrwt>
<totfact> 0.62039658E-01</totfact>
</mgrwt>
</event>
<event>
 4    1  0.2293715E-008  0.3646525E+03  0.7818608E-02  0.1056757E+00
          1   -1    0    0  501    0  0.00000000000E+00  0.00000000000E+00  0.12529408364E+04  0.12529408364E+04  0.50400000000E-02 0. -1.
         -1   -1    0    0    0  501 -0.00000000000E+00 -0.00000000000E+00 -0.32959458499E+03  0.32959458503E+03  0.50400000000E-02 0.  1.
    8880022    1    1    2    0    0 -0.18876026268E+03 -0.27193636096E+03 -0.18986554169E+03  0.41112090450E+03  0.15294330000E+03 0.  0.
    8880022    1    1    2    0    0  0.18876026268E+03  0.27193636096E+03  0.11132117931E+04  0.11714145169E+04  0.15294330000E+03 0.  0.
<mgrwt>
<rscale>  0 0.36465254E+03</rscale>
<asrwt>0</asrwt>
<pdfrwt beam="1">  1        1 0.19276012E+00 0.36465254E+03</pdfrwt>
<pdfrwt beam="2">  1       -1 0.50706860E-01 0.36465254E+03</pdfrwt>
<totfact> 0.41700957E+01</totfact>
</mgrwt>
</event>
<event>
 4    1  0.2293715E-008  0.6023440E+03  0.7818608E-02  0.9900555E-01
          1   -1    0    0  501    0  0.00000000000E+00  0.00000000000E+00  0.18910498596E+04  0.18910498596E+04  0.50400000000E-02 0. -1.
         -1   -1    0    0    0  501 -0.00000000000E+00 -0.00000000000E+00 -0.24908831774E+03  0.24908831779E+03  0.50400000000E-02 0.  1.
    8880022    1    1    2    0    0 -0.57221603260E+03 -0.10952377245E+03  0.13338866486E+04  0.14635818696E+04  0.15294330000E+03 0.  0.
    8880022    1    1    2    0    0  0.57221603260E+03  0.10952377245E+03  0.30807489320E+03  0.67655630774E+03  0.15294330000E+03 0.  1.
<mgrwt>
<rscale>  0 0.60234400E+03</rscale>
<asrwt>0</asrwt>
<pdfrwt beam="1">  1        1 0.29093075E+00 0.60234400E+03</pdfrwt>
<pdfrwt beam="2">  1       -1 0.38321280E-01 0.60234400E+03</pdfrwt>
<totfact> 0.24696510E+01</totfact>
</mgrwt>
</event>
<event>
 4    1  0.2293715E-008  0.5431547E+03  0.7818608E-02  0.1003091E+00
         -1   -1    0    0    0  501 -0.00000000000E+00  0.00000000000E+00  0.85285017071E+03  0.85285017072E+03  0.50400000000E-02 0.  1.
          1   -1    0    0  501    0  0.00000000000E+00 -0.00000000000E+00 -0.62505458490E+03  0.62505458492E+03  0.50400000000E-02 0. -1.
    8880022    1    1    2    0    0  0.25008094229E+03 -0.45725807404E+03  0.60771370728E+03  0.81506627154E+03  0.15294330000E+03 0.  0.
    8880022    1    1    2    0    0 -0.25008094229E+03  0.45725807404E+03 -0.37991812148E+03  0.66283848411E+03  0.15294330000E+03 0.  0.
<mgrwt>
<rscale>  0 0.54315474E+03</rscale>
<asrwt>0</asrwt>
<pdfrwt beam="1">  1        1 0.96162244E-01 0.54315474E+03</pdfrwt>
<pdfrwt beam="2">  1       -1 0.13120772E+00 0.54315474E+03</pdfrwt>
<totfact> 0.16893625E+01</totfact>
</mgrwt>
</event>
<event>
 4    1  0.2293715E-008  0.2567633E+03  0.7818608E-02  0.1109104E+00
          1   -1    0    0  501    0  0.00000000000E+00  0.00000000000E+00  0.72358958251E+02  0.72358958426E+02  0.50400000000E-02 0. -1.
         -1   -1    0    0    0  501 -0.00000000000E+00 -0.00000000000E+00 -0.10762223457E+04  0.10762223457E+04  0.50400000000E-02 0.  1.
    8880022    1    1    2    0    0 -0.97010726546E+02  0.18200185388E+03 -0.72686954956E+03  0.77088698976E+03  0.15294330000E+03 0.  0.
    8880022    1    1    2    0    0  0.97010726546E+02 -0.18200185388E+03 -0.27699383791E+03  0.37769431441E+03  0.15294330000E+03 0.  1.
<mgrwt>
<rscale>  0 0.25676333E+03</rscale>
<asrwt>0</asrwt>
<pdfrwt beam="1">  1        1 0.11132148E-01 0.25676333E+03</pdfrwt>
<pdfrwt beam="2">  1       -1 0.16557266E+00 0.25676333E+03</pdfrwt>
<totfact> 0.16132317E+02</totfact>
</mgrwt>
</event>
<event>
 4    1  0.2293715E-008  0.5584408E+03  0.7818608E-02  0.9995589E-01
         -1   -1    0    0    0  501 -0.00000000000E+00  0.00000000000E+00  0.62093402835E+03  0.62093402837E+03  0.50400000000E-02 0.  1.
          1   -1    0    0  501    0  0.00000000000E+00 -0.00000000000E+00 -0.21745764645E+04  0.21745764645E+04  0.50400000000E-02 0. -1.
    8880022    1    1    2    0    0  0.53506565547E+03  0.46574540909E+02 -0.20025827777E+04  0.20789886671E+04  0.15294330000E+03 0.  0.
    8880022    1    1    2    0    0 -0.53506565547E+03 -0.46574540909E+02  0.44894034153E+03  0.71652182576E+03  0.15294330000E+03 0.  0.
<mgrwt>
<rscale>  0 0.55844077E+03</rscale>
<asrwt>0</asrwt>
<pdfrwt beam="1">  1        1 0.33455022E+00 0.55844077E+03</pdfrwt>
<pdfrwt beam="2">  1       -1 0.95528313E-01 0.55844077E+03</pdfrwt>
<totfact> 0.26454196E+00</totfact>
</mgrwt>
</event>
<event>
 4    1  0.2293715E-008  0.2078711E+03  0.7818608E-02  0.1143263E+00
         -1   -1    0    0    0  501 -0.00000000000E+00  0.00000000000E+00  0.49726546503E+02  0.49726546758E+02  0.50400000000E-02 0.  1.
          1   -1    0    0  501    0  0.00000000000E+00 -0.00000000000E+00 -0.12744941379E+04  0.12744941379E+04  0.50400000000E-02 0. -1.
    8880022    1    1    2    0    0 -0.74970025710E+02 -0.11915626809E+03 -0.98587056742E+03  0.10075470955E+04  0.15294330000E+03 0.  0.
    8880022    1    1    2    0    0  0.74970025710E+02  0.11915626809E+03 -0.23889702398E+03  0.31667358914E+03  0.15294330000E+03 0.  0.
<mgrwt>
<rscale>  0 0.20787105E+03</rscale>
<asrwt>0</asrwt>
<pdfrwt beam="1">  1        1 0.19607600E+00 0.20787105E+03</pdfrwt>
<pdfrwt beam="2">  1       -1 0.76502389E-02 0.20787105E+03</pdfrwt>
<totfact> 0.94193166E+02</totfact>
</mgrwt>
</event>
<event>
 4    1  0.2293715E-008  0.3320072E+03  0.7818608E-02  0.1070252E+00
          1   -1    0    0  501    0  0.00000000000E+00  0.00000000000E+00  0.13525938653E+04  0.13525938653E+04  0.50400000000E-02 0. -1.
         -1   -1    0    0    0  501 -0.00000000000E+00 -0.00000000000E+00 -0.28902319001E+03  0.28902319006E+03  0.50400000000E-02 0.  1.
    8880022    1    1    2    0    0 -0.36905183329E+02 -0.29236128964E+03 -0.16374284991E+03  0.37018980287E+03  0.15294330000E+03 0.  0.
    8880022    1    1    2    0    0  0.36905183329E+02  0.29236128964E+03  0.12273135252E+04  0.12714272525E+04  0.15294330000E+03 0.  0.
<mgrwt>
<rscale>  0 0.33200718E+03</rscale>
<asrwt>0</asrwt>
<pdfrwt beam="1">  1        1 0.20809136E+00 0.33200718E+03</pdfrwt>
<pdfrwt beam="2">  1       -1 0.44465106E-01 0.33200718E+03</pdfrwt>
<totfact> 0.45722602E+01</totfact>
</mgrwt>
</event>
<event>
 4    1  0.2399098E-008  0.6290993E+03  0.7818608E-02  0.9846808E-01
          1   -1    0    0  501    0  0.00000000000E+00  0.00000000000E+00  0.91116114501E+03  0.91116114502E+03  0.50400000000E-02 0. -1.
         -1   -1    0    0    0  501 -0.00000000000E+00 -0.00000000000E+00 -0.21067301410E+04  0.21067301410E+04  0.50400000000E-02 0.  1.
    8880022    1    1    2    0    0 -0.58871844975E+03  0.16057672251E+03  0.74663932414E+03  0.97633817413E+03  0.15294330000E+03 0.  0.
    8880022    1    1    2    0    0  0.58871844975E+03 -0.16057672251E+03 -0.19422083201E+04  0.20415531119E+04  0.15294330000E+03 0.  0.
<mgrwt>
<rscale>  0 0.62909932E+03</rscale>
<asrwt>0</asrwt>
<pdfrwt beam="1">  1        1 0.14017864E+00 0.62909932E+03</pdfrwt>
<pdfrwt beam="2">  1       -1 0.32411233E+00 0.62909932E+03</pdfrwt>
<totfact> 0.44991207E-01</totfact>
</mgrwt>
</event>
<event>
 4    1  0.2293715E-008  0.2480352E+03  0.7818608E-02  0.1114553E+00
         -1   -1    0    0    0  501 -0.00000000000E+00  0.00000000000E+00  0.28094642391E+03  0.28094642395E+03  0.50400000000E-02 0.  1.
          1   -1    0    0  501    0  0.00000000000E+00 -0.00000000000E+00 -0.10009629519E+04  0.10009629519E+04  0.50400000000E-02 0. -1.
    8880022    1    1    2    0    0 -0.16684411244E+03  0.10145377037E+03 -0.92653072967E+03  0.95915622889E+03  0.15294330000E+03 0. -1.
    8880022    1    1    2    0    0  0.16684411244E+03 -0.10145377037E+03  0.20651420167E+03  0.32275314698E+03  0.15294330000E+03 0.  0.
<mgrwt>
<rscale>  0 0.24803524E+03</rscale>
<asrwt>0</asrwt>
<pdfrwt beam="1">  1        1 0.15399430E+00 0.24803524E+03</pdfrwt>
<pdfrwt beam="2">  1       -1 0.43222527E-01 0.24803524E+03</pdfrwt>
<totfact> 0.87396444E+01</totfact>
</mgrwt>
</event>
<event>
 4    1  0.2293715E-008  0.1234758E+04  0.7818608E-02  0.9082965E-01
         -1   -1    0    0    0  501 -0.00000000000E+00  0.00000000000E+00  0.17278011568E+04  0.17278011568E+04  0.50400000000E-02 0.  1.
          1   -1    0    0  501    0  0.00000000000E+00 -0.00000000000E+00 -0.11079351201E+04  0.11079351201E+04  0.50400000000E-02 0. -1.
    8880022    1    1    2    0    0 -0.11927087761E+04 -0.28050376272E+03 -0.32976731216E+03  0.12780354919E+04  0.15294330000E+03 0.  0.
    8880022    1    1    2    0    0  0.11927087761E+04  0.28050376272E+03  0.94963334882E+03  0.15577007850E+04  0.15294330000E+03 0.  0.
<mgrwt>
<rscale>  0 0.12347584E+04</rscale>
<asrwt>0</asrwt>
<pdfrwt beam="1">  1        1 0.17045156E+00 0.12347584E+04</pdfrwt>
<pdfrwt beam="2">  1       -1 0.26581556E+00 0.12347584E+04</pdfrwt>
<totfact> 0.67282803E-01</totfact>
</mgrwt>
</event>
<event>
 4    1  0.2293715E-008  0.1651031E+04  0.7818608E-02  0.8789797E-01
          1   -1    0    0  501    0  0.00000000000E+00  0.00000000000E+00  0.17295048994E+04  0.17295048994E+04  0.50400000000E-02 0. -1.
         -1   -1    0    0    0  501 -0.00000000000E+00 -0.00000000000E+00 -0.22134503909E+04  0.22134503909E+04  0.50400000000E-02 0.  1.
    8880022    1    1    2    0    0 -0.12242589170E+04  0.10971330678E+04 -0.12998620088E+04  0.21013195281E+04  0.15294330000E+03 0.  0.
    8880022    1    1    2    0    0  0.12242589170E+04 -0.10971330678E+04  0.81591651728E+03  0.18416357622E+04  0.15294330000E+03 0.  0.
<mgrwt>
<rscale>  0 0.16510307E+04</rscale>
<asrwt>0</asrwt>
<pdfrwt beam="1">  1        1 0.26607768E+00 0.16510307E+04</pdfrwt>
<pdfrwt beam="2">  1       -1 0.34053083E+00 0.16510307E+04</pdfrwt>
<totfact> 0.75738825E-02</totfact>
</mgrwt>
</event>
<event>
 4    1  0.2293715E-008  0.4227076E+03  0.7818608E-02  0.1036189E+00
          1   -1    0    0  501    0  0.00000000000E+00  0.00000000000E+00  0.38600458661E+03  0.38600458664E+03  0.50400000000E-02 0. -1.
         -1   -1    0    0    0  501 -0.00000000000E+00 -0.00000000000E+00 -0.86533743820E+03  0.86533743822E+03  0.50400000000E-02 0.  1.
    8880022    1    1    2    0    0 -0.39177407642E+03  0.42463772596E+02 -0.66634629736E+03  0.78911288163E+03  0.15294330000E+03 0.  0.
    8880022    1    1    2    0    0  0.39177407642E+03 -0.42463772596E+02  0.18701344576E+03  0.46222914323E+03  0.15294330000E+03 0.  0.
<mgrwt>
<rscale>  0 0.42270764E+03</rscale>
<asrwt>0</asrwt>
<pdfrwt beam="1">  1        1 0.59385321E-01 0.42270764E+03</pdfrwt>
<pdfrwt beam="2">  1       -1 0.13312884E+00 0.42270764E+03</pdfrwt>
<totfact> 0.31985615E+01</totfact>
</mgrwt>
</event>
<event>
 4    1  0.2293715E-008  0.8465424E+03  0.7818608E-02  0.9494989E-01
         -1   -1    0    0    0  501 -0.00000000000E+00  0.00000000000E+00  0.11099771590E+04  0.11099771591E+04  0.50400000000E-02 0.  1.
          1   -1    0    0  501    0  0.00000000000E+00 -0.00000000000E+00 -0.13040463727E+04  0.13040463727E+04  0.50400000000E-02 0. -1.
    8880022    1    1    2    0    0 -0.24524288756E+03  0.79567477234E+03 -0.95469516887E+03  0.12759611811E+04  0.15294330000E+03 0.  0.
    8880022    1    1    2    0    0  0.24524288756E+03 -0.79567477234E+03  0.76062595521E+03  0.11380623507E+04  0.15294330000E+03 0.  0.
<mgrwt>
<rscale>  0 0.84654242E+03</rscale>
<asrwt>0</asrwt>
<pdfrwt beam="1">  1        1 0.20062252E+00 0.84654242E+03</pdfrwt>
<pdfrwt beam="2">  1       -1 0.17076572E+00 0.84654242E+03</pdfrwt>
<totfact> 0.22421375E+00</totfact>
</mgrwt>
</event>
<event>
 4    1  0.2293715E-008  0.4265554E+03  0.7818608E-02  0.1034954E+00
          1   -1    0    0  501    0  0.00000000000E+00  0.00000000000E+00  0.86997758551E+03  0.86997758553E+03  0.50400000000E-02 0. -1.
         -1   -1    0    0    0  501 -0.00000000000E+00 -0.00000000000E+00 -0.26671187772E+03  0.26671187777E+03  0.50400000000E-02 0.  1.
    8880022    1    1    2    0    0 -0.22112919269E+03  0.33114913434E+03  0.56568239037E+03  0.70848153740E+03  0.15294330000E+03 0.  0.
    8880022    1    1    2    0    0  0.22112919269E+03 -0.33114913434E+03  0.37583317419E+02  0.42820792590E+03  0.15294330000E+03 0.  0.
<mgrwt>
<rscale>  0 0.42655541E+03</rscale>
<asrwt>0</asrwt>
<pdfrwt beam="1">  1        1 0.13384271E+00 0.42655541E+03</pdfrwt>
<pdfrwt beam="2">  1       -1 0.41032596E-01 0.42655541E+03</pdfrwt>
<totfact> 0.11758286E+02</totfact>
</mgrwt>
</event>
<event>
 4    1  0.2293715E-008  0.3686921E+03  0.7818608E-02  0.1055194E+00
          1   -1    0    0  501    0  0.00000000000E+00  0.00000000000E+00  0.67304440781E+03  0.67304440783E+03  0.50400000000E-02 0. -1.
         -1   -1    0    0    0  501 -0.00000000000E+00 -0.00000000000E+00 -0.51241662358E+03  0.51241662361E+03  0.50400000000E-02 0.  1.
    8880022    1    1    2    0    0  0.33388451821E+03 -0.32608936026E+02  0.54167406327E+03  0.65524396834E+03  0.15294330000E+03 0.  0.
    8880022    1    1    2    0    0 -0.33388451821E+03  0.32608936026E+02 -0.38104627905E+03  0.53021706309E+03  0.15294330000E+03 0.  1.
<mgrwt>
<rscale>  0 0.36869210E+03</rscale>
<asrwt>0</asrwt>
<pdfrwt beam="1">  1        1 0.10354529E+00 0.36869210E+03</pdfrwt>
<pdfrwt beam="2">  1       -1 0.78833327E-01 0.36869210E+03</pdfrwt>
<totfact> 0.49930543E+01</totfact>
</mgrwt>
</event>
<event>
 4    1  0.2293715E-008  0.3367548E+03  0.7818608E-02  0.1068187E+00
          1   -1    0    0  501    0  0.00000000000E+00  0.00000000000E+00  0.29977198578E+04  0.29977198578E+04  0.50400000000E-02 0. -1.
         -1   -1    0    0    0  501 -0.00000000000E+00 -0.00000000000E+00 -0.72494284712E+02  0.72494284887E+02  0.50400000000E-02 0.  1.
    8880022    1    1    2    0    0 -0.21331708090E+03  0.21096909649E+03  0.25241318804E+04  0.25464967189E+04  0.15294330000E+03 0.  0.
    8880022    1    1    2    0    0  0.21331708090E+03 -0.21096909649E+03  0.40109369276E+03  0.52371742387E+03  0.15294330000E+03 0.  0.
<mgrwt>
<rscale>  0 0.33675479E+03</rscale>
<asrwt>0</asrwt>
<pdfrwt beam="1">  1        1 0.46118756E+00 0.33675479E+03</pdfrwt>
<pdfrwt beam="2">  1       -1 0.11152970E-01 0.33675479E+03</pdfrwt>
<totfact> 0.36589219E+01</totfact>
</mgrwt>
</event>
<event>
 4    1  0.2293715E-008  0.3691531E+03  0.7818608E-02  0.1055017E+00
          1   -1    0    0  501    0  0.00000000000E+00  0.00000000000E+00  0.67378399792E+03  0.67378399794E+03  0.50400000000E-02 0. -1.
         -1   -1    0    0    0  501 -0.00000000000E+00 -0.00000000000E+00 -0.44894073788E+03  0.44894073791E+03  0.50400000000E-02 0.  1.
    8880022    1    1    2    0    0 -0.21724094553E+02 -0.33527667750E+03 -0.30370317774E+03  0.47802684019E+03  0.15294330000E+03 0.  0.
    8880022    1    1    2    0    0  0.21724094553E+02  0.33527667750E+03  0.52854643778E+03  0.64469789566E+03  0.15294330000E+03 0.  0.
<mgrwt>
<rscale>  0 0.36915314E+03</rscale>
<asrwt>0</asrwt>
<pdfrwt beam="1">  1        1 0.10365908E+00 0.36915314E+03</pdfrwt>
<pdfrwt beam="2">  1       -1 0.69067806E-01 0.36915314E+03</pdfrwt>
<totfact> 0.65341570E+01</totfact>
</mgrwt>
</event>
<event>
 4    1  0.2293715E-008  0.6293664E+03  0.7818608E-02  0.9846286E-01
          1   -1    0    0  501    0  0.00000000000E+00  0.00000000000E+00  0.75385244940E+03  0.75385244941E+03  0.50400000000E-02 0. -1.
         -1   -1    0    0    0  501 -0.00000000000E+00 -0.00000000000E+00 -0.74351067790E+03  0.74351067792E+03  0.50400000000E-02 0.  1.
    8880022    1    1    2    0    0  0.41881542602E+03 -0.44418915174E+03  0.41063749528E+03  0.75148198191E+03  0.15294330000E+03 0.  0.
    8880022    1    1    2    0    0 -0.41881542602E+03  0.44418915174E+03 -0.40029572379E+03  0.74588114542E+03  0.15294330000E+03 0.  0.
<mgrwt>
<rscale>  0 0.62936636E+03</rscale>
<asrwt>0</asrwt>
<pdfrwt beam="1">  1        1 0.11597730E+00 0.62936636E+03</pdfrwt>
<pdfrwt beam="2">  1       -1 0.11438626E+00 0.62936636E+03</pdfrwt>
<totfact> 0.17636992E+01</totfact>
</mgrwt>
</event>
<event>
 4    1  0.2293715E-008  0.6300808E+03  0.7818608E-02  0.9844891E-01
          1   -1    0    0  501    0  0.00000000000E+00  0.00000000000E+00  0.16493765672E+04  0.16493765672E+04  0.50400000000E-02 0. -1.
         -1   -1    0    0    0  501 -0.00000000000E+00 -0.00000000000E+00 -0.26956901697E+03  0.26956901702E+03  0.50400000000E-02 0.  1.
    8880022    1    1    2    0    0 -0.36500696185E+03  0.49028572059E+03  0.37590504802E+03  0.73369368823E+03  0.15294330000E+03 0.  0.
    8880022    1    1    2    0    0  0.36500696185E+03 -0.49028572059E+03  0.10039025022E+04  0.11852518960E+04  0.15294330000E+03 0.  0.
<mgrwt>
<rscale>  0 0.63008081E+03</rscale>
<asrwt>0</asrwt>
<pdfrwt beam="1">  1        1 0.25375024E+00 0.63008081E+03</pdfrwt>
<pdfrwt beam="2">  1       -1 0.41472157E-01 0.63008081E+03</pdfrwt>
<totfact> 0.30897535E+01</totfact>
</mgrwt>
</event>
<event>
 4    1  0.2293715E-008  0.1648672E+03  0.7818608E-02  0.1183309E+00
         -1   -1    0    0    0  501 -0.00000000000E+00  0.00000000000E+00  0.32431764084E+02  0.32431764475E+02  0.50400000000E-02 0.  1.
          1   -1    0    0  501    0  0.00000000000E+00 -0.00000000000E+00 -0.13950354607E+04  0.13950354607E+04  0.50400000000E-02 0. -1.
    8880022    1    1    2    0    0 -0.51150575211E+02  0.34251385926E+02 -0.11322684683E+04  0.11442084933E+04  0.15294330000E+03 0.  0.
    8880022    1    1    2    0    0  0.51150575211E+02 -0.34251385926E+02 -0.23033522835E+03  0.28325873193E+03  0.15294330000E+03 0.  1.
<mgrwt>
<rscale>  0 0.16486719E+03</rscale>
<asrwt>0</asrwt>
<pdfrwt beam="1">  1        1 0.21462079E+00 0.16486719E+03</pdfrwt>
<pdfrwt beam="2">  1       -1 0.49895033E-02 0.16486719E+03</pdfrwt>
<totfact> 0.14889253E+03</totfact>
</mgrwt>
</event>
<event>
 4    1  0.2293715E-008  0.3136399E+03  0.7818608E-02  0.1078614E+00
         -1   -1    0    0    0  501 -0.00000000000E+00  0.00000000000E+00  0.41912240785E+03  0.41912240789E+03  0.50400000000E-02 0.  1.
          1   -1    0    0  501    0  0.00000000000E+00 -0.00000000000E+00 -0.11340682769E+04  0.11340682769E+04  0.50400000000E-02 0. -1.
    8880022    1    1    2    0    0 -0.24523918759E+03 -0.12180329975E+03  0.33410774634E+03  0.45825532418E+03  0.15294330000E+03 0.  1.
    8880022    1    1    2    0    0  0.24523918759E+03  0.12180329975E+03 -0.10490536154E+04  0.10949353606E+04  0.15294330000E+03 0.  0.
<mgrwt>
<rscale>  0 0.31363985E+03</rscale>
<asrwt>0</asrwt>
<pdfrwt beam="1">  1        1 0.17447204E+00 0.31363985E+03</pdfrwt>
<pdfrwt beam="2">  1       -1 0.64480371E-01 0.31363985E+03</pdfrwt>
<totfact> 0.32333994E+01</totfact>
</mgrwt>
</event>
<event>
 4    1  0.2293715E-008  0.1327674E+04  0.7818608E-02  0.9007903E-01
          1   -1    0    0  501    0  0.00000000000E+00  0.00000000000E+00  0.18870619995E+04  0.18870619995E+04  0.50400000000E-02 0. -1.
         -1   -1    0    0    0  501 -0.00000000000E+00 -0.00000000000E+00 -0.11249863859E+04  0.11249863859E+04  0.50400000000E-02 0.  1.
    8880022    1    1    2    0    0 -0.11832793302E+04  0.58238770739E+03 -0.23931433333E+03  0.13490694638E+04  0.15294330000E+03 0.  0.
    8880022    1    1    2    0    0  0.11832793302E+04 -0.58238770739E+03  0.10013899469E+04  0.16629789216E+04  0.15294330000E+03 0.  0.
<mgrwt>
<rscale>  0 0.13276736E+04</rscale>
<asrwt>0</asrwt>
<pdfrwt beam="1">  1        1 0.29031723E+00 0.13276736E+04</pdfrwt>
<pdfrwt beam="2">  1       -1 0.17307483E+00 0.13276736E+04</pdfrwt>
<totfact> 0.80234046E-01</totfact>
</mgrwt>
</event>
<event>
 4    1  0.2293715E-008  0.3157430E+03  0.7818608E-02  0.1077625E+00
         -1   -1    0    0    0  501 -0.00000000000E+00  0.00000000000E+00  0.61706212562E+03  0.61706212564E+03  0.50400000000E-02 0.  1.
          1   -1    0    0  501    0  0.00000000000E+00 -0.00000000000E+00 -0.51036513937E+03  0.51036513939E+03  0.50400000000E-02 0. -1.
    8880022    1    1    2    0    0 -0.27608238602E+03  0.89733415634E+01  0.51937257955E+03  0.60781702356E+03  0.15294330000E+03 0.  0.
    8880022    1    1    2    0    0  0.27608238602E+03 -0.89733415634E+01 -0.41267559329E+03  0.51961024147E+03  0.15294330000E+03 0.  0.
<mgrwt>
<rscale>  0 0.31574302E+03</rscale>
<asrwt>0</asrwt>
<pdfrwt beam="1">  1        1 0.78517713E-01 0.31574302E+03</pdfrwt>
<pdfrwt beam="2">  1       -1 0.94932635E-01 0.31574302E+03</pdfrwt>
<totfact> 0.49904218E+01</totfact>
</mgrwt>
</event>
<event>
 4    1  0.2293715E-008  0.9418012E+03  0.7818608E-02  0.9374785E-01
         -1   -1    0    0    0  501 -0.00000000000E+00  0.00000000000E+00  0.31238131382E+04  0.31238131382E+04  0.50400000000E-02 0.  1.
          1   -1    0    0  501    0  0.00000000000E+00 -0.00000000000E+00 -0.55118181606E+03  0.55118181608E+03  0.50400000000E-02 0. -1.
    8880022    1    1    2    0    0  0.78823835264E+03 -0.49221763228E+03  0.25657790510E+04  0.27331688001E+04  0.15294330000E+03 0.  0.
    8880022    1    1    2    0    0 -0.78823835264E+03  0.49221763228E+03  0.68522711302E+01  0.94182615421E+03  0.15294330000E+03 0.  0.
<mgrwt>
<rscale>  0 0.94180123E+03</rscale>
<asrwt>0</asrwt>
<pdfrwt beam="1">  1        1 0.84797202E-01 0.94180123E+03</pdfrwt>
<pdfrwt beam="2">  1       -1 0.48058664E+00 0.94180123E+03</pdfrwt>
<totfact> 0.80007992E-02</totfact>
</mgrwt>
</event>
<event>
 4    1  0.2293715E-008  0.2660063E+03  0.7818608E-02  0.1103587E+00
          1   -1    0    0  501    0  0.00000000000E+00  0.00000000000E+00  0.66260980111E+03  0.66260980113E+03  0.50400000000E-02 0. -1.
         -1   -1    0    0    0  501 -0.00000000000E+00 -0.00000000000E+00 -0.63915594151E+03  0.63915594153E+03  0.50400000000E-02 0.  1.
    8880022    1    1    2    0    0 -0.21708466366E+02 -0.21655583627E+03  0.60575234570E+03  0.66158540271E+03  0.15294330000E+03 0. -1.
    8880022    1    1    2    0    0  0.21708466366E+02  0.21655583627E+03 -0.58229848609E+03  0.64018033995E+03  0.15294330000E+03 0.  0.
<mgrwt>
<rscale>  0 0.26600628E+03</rscale>
<asrwt>0</asrwt>
<pdfrwt beam="1">  1        1 0.10193997E+00 0.26600628E+03</pdfrwt>
<pdfrwt beam="2">  1       -1 0.98331683E-01 0.26600628E+03</pdfrwt>
<totfact> 0.32531943E+01</totfact>
</mgrwt>
</event>
<event>
 4    1  0.2293715E-008  0.6725365E+03  0.7818608E-02  0.9765387E-01
          1   -1    0    0  501    0  0.00000000000E+00  0.00000000000E+00  0.35010759610E+04  0.35010759610E+04  0.50400000000E-02 0. -1.
         -1   -1    0    0    0  501 -0.00000000000E+00 -0.00000000000E+00 -0.15552349881E+03  0.15552349889E+03  0.50400000000E-02 0.  1.
    8880022    1    1    2    0    0  0.60547032896E+03  0.24963835237E+03  0.24250928649E+04  0.25166208857E+04  0.15294330000E+03 0.  0.
    8880022    1    1    2    0    0 -0.60547032896E+03 -0.24963835237E+03  0.92045959725E+03  0.11399785741E+04  0.15294330000E+03 0.  0.
<mgrwt>
<rscale>  0 0.67253645E+03</rscale>
<asrwt>0</asrwt>
<pdfrwt beam="1">  1        1 0.53862709E+00 0.67253645E+03</pdfrwt>
<pdfrwt beam="2">  1       -1 0.23926691E-01 0.67253645E+03</pdfrwt>
<totfact> 0.41321551E+00</totfact>
</mgrwt>
</event>
<event>
 4    1  0.2293715E-008  0.7474986E+03  0.7818608E-02  0.9639283E-01
          1   -1    0    0  501    0  0.00000000000E+00  0.00000000000E+00  0.62498936929E+03  0.62498936931E+03  0.50400000000E-02 0. -1.
         -1   -1    0    0    0  501 -0.00000000000E+00 -0.00000000000E+00 -0.11523479274E+04  0.11523479274E+04  0.50400000000E-02 0.  1.
    8880022    1    1    2    0    0 -0.41694618156E+03 -0.60126393085E+03 -0.68443716088E+03  0.10135128579E+04  0.15294330000E+03 0.  0.
    8880022    1    1    2    0    0  0.41694618156E+03  0.60126393085E+03  0.15707860280E+03  0.76382443881E+03  0.15294330000E+03 0.  0.
<mgrwt>
<rscale>  0 0.74749855E+03</rscale>
<asrwt>0</asrwt>
<pdfrwt beam="1">  1        1 0.96152211E-01 0.74749855E+03</pdfrwt>
<pdfrwt beam="2">  1       -1 0.17728430E+00 0.74749855E+03</pdfrwt>
<totfact> 0.72599078E+00</totfact>
</mgrwt>
</event>
<event>
 4    1  0.2293715E-008  0.5973605E+03  0.7818608E-02  0.9910897E-01
          1   -1    0    0  501    0  0.00000000000E+00  0.00000000000E+00  0.10631516536E+04  0.10631516536E+04  0.50400000000E-02 0. -1.
         -1   -1    0    0    0  501 -0.00000000000E+00 -0.00000000000E+00 -0.11574773387E+04  0.11574773387E+04  0.50400000000E-02 0.  1.
    8880022    1    1    2    0    0  0.51745475374E+03 -0.25629771617E+03 -0.98274484199E+03  0.11500552243E+04  0.15294330000E+03 0.  0.
    8880022    1    1    2    0    0 -0.51745475374E+03  0.25629771617E+03  0.88841915683E+03  0.10705737680E+04  0.15294330000E+03 0.  0.
<mgrwt>
<rscale>  0 0.59736052E+03</rscale>
<asrwt>0</asrwt>
<pdfrwt beam="1">  1        1 0.16356179E+00 0.59736052E+03</pdfrwt>
<pdfrwt beam="2">  1       -1 0.17807344E+00 0.59736052E+03</pdfrwt>
<totfact> 0.31130954E+00</totfact>
</mgrwt>
</event>
<event>
 4    1  0.2293715E-008  0.4771354E+03  0.7818608E-02  0.1019925E+00
          1   -1    0    0  501    0  0.00000000000E+00  0.00000000000E+00  0.10509626944E+04  0.10509626944E+04  0.50400000000E-02 0. -1.
         -1   -1    0    0    0  501 -0.00000000000E+00 -0.00000000000E+00 -0.59104746725E+03  0.59104746727E+03  0.50400000000E-02 0.  1.
    8880022    1    1    2    0    0 -0.28125050404E+03  0.35378615833E+03 -0.42350280078E+03  0.63797552236E+03  0.15294330000E+03 0.  0.
    8880022    1    1    2    0    0  0.28125050404E+03 -0.35378615833E+03  0.88341802789E+03  0.10040346393E+04  0.15294330000E+03 0.  0.
<mgrwt>
<rscale>  0 0.47713535E+03</rscale>
<asrwt>0</asrwt>
<pdfrwt beam="1">  1        1 0.16168657E+00 0.47713535E+03</pdfrwt>
<pdfrwt beam="2">  1       -1 0.90930381E-01 0.47713535E+03</pdfrwt>
<totfact> 0.17553823E+01</totfact>
</mgrwt>
</event>
<event>
 4    1  0.2293715E-008  0.4521731E+03  0.7818608E-02  0.1027076E+00
         -1   -1    0    0    0  501 -0.00000000000E+00  0.00000000000E+00  0.91487757472E+03  0.91487757473E+03  0.50400000000E-02 0.  1.
          1   -1    0    0  501    0  0.00000000000E+00 -0.00000000000E+00 -0.10463349483E+04  0.10463349483E+04  0.50400000000E-02 0. -1.
    8880022    1    1    2    0    0 -0.40025874461E+03 -0.14443599332E+03  0.80387203488E+03  0.92231812314E+03  0.15294330000E+03 0.  1.
    8880022    1    1    2    0    0  0.40025874461E+03  0.14443599332E+03 -0.93532940847E+03  0.10388943999E+04  0.15294330000E+03 0.  0.
<mgrwt>
<rscale>  0 0.45217306E+03</rscale>
<asrwt>0</asrwt>
<pdfrwt beam="1">  1        1 0.16097461E+00 0.45217306E+03</pdfrwt>
<pdfrwt beam="2">  1       -1 0.14075040E+00 0.45217306E+03</pdfrwt>
<totfact> 0.63234280E+00</totfact>
</mgrwt>
</event>
<event>
 4    1  0.2293715E-008  0.2612973E+03  0.7818608E-02  0.1106366E+00
          1   -1    0    0  501    0  0.00000000000E+00  0.00000000000E+00  0.16974070759E+04  0.16974070759E+04  0.50400000000E-02 0. -1.
         -1   -1    0    0    0  501 -0.00000000000E+00 -0.00000000000E+00 -0.36554120854E+03  0.36554120858E+03  0.50400000000E-02 0.  1.
    8880022    1    1    2    0    0 -0.82489968268E+02 -0.19514107902E+03  0.16390022453E+04  0.16597001683E+04  0.15294330000E+03 0. -1.
    8880022    1    1    2    0    0  0.82489968268E+02  0.19514107902E+03 -0.30713637790E+03  0.40324811621E+03  0.15294330000E+03 0.  0.
<mgrwt>
<rscale>  0 0.26129732E+03</rscale>
<asrwt>0</asrwt>
<pdfrwt beam="1">  1        1 0.26113955E+00 0.26129732E+03</pdfrwt>
<pdfrwt beam="2">  1       -1 0.56237109E-01 0.26129732E+03</pdfrwt>
<totfact> 0.17835052E+01</totfact>
</mgrwt>
</event>
<event>
 4    1  0.2293715E-008  0.3489843E+03  0.7818608E-02  0.1063033E+00
          1   -1    0    0  501    0  0.00000000000E+00  0.00000000000E+00  0.48687637950E+03  0.48687637953E+03  0.50400000000E-02 0. -1.
         -1   -1    0    0    0  501 -0.00000000000E+00 -0.00000000000E+00 -0.36652702184E+03  0.36652702188E+03  0.50400000000E-02 0.  1.
    8880022    1    1    2    0    0  0.10820170597E+03 -0.29443293994E+03  0.30061819648E+03  0.46060972457E+03  0.15294330000E+03 0.  0.
    8880022    1    1    2    0    0 -0.10820170597E+03  0.29443293994E+03 -0.18026883883E+03  0.39279367684E+03  0.15294330000E+03 0.  0.
<mgrwt>
<rscale>  0 0.34898427E+03</rscale>
<asrwt>0</asrwt>
<pdfrwt beam="1">  1        1 0.74904058E-01 0.34898427E+03</pdfrwt>
<pdfrwt beam="2">  1       -1 0.56388773E-01 0.34898427E+03</pdfrwt>
<totfact> 0.15336008E+02</totfact>
</mgrwt>
</event>
<event>
 4    1  0.2293715E-008  0.7683512E+03  0.7818608E-02  0.9606992E-01
          1   -1    0    0  501    0  0.00000000000E+00  0.00000000000E+00  0.27241458932E+04  0.27241458932E+04  0.50400000000E-02 0. -1.
         -1   -1    0    0    0  501 -0.00000000000E+00 -0.00000000000E+00 -0.32222213972E+03  0.32222213976E+03  0.50400000000E-02 0.  1.
    8880022    1    1    2    0    0 -0.47225207163E+03  0.58647245747E+03  0.20725581294E+04  0.22103983386E+04  0.15294330000E+03 0.  0.
    8880022    1    1    2    0    0  0.47225207163E+03 -0.58647245747E+03  0.32936562406E+03  0.83596969434E+03  0.15294330000E+03 0.  0.
<mgrwt>
<rscale>  0 0.76835123E+03</rscale>
<asrwt>0</asrwt>
<pdfrwt beam="1">  1        1 0.41909937E+00 0.76835123E+03</pdfrwt>
<pdfrwt beam="2">  1       -1 0.49572636E-01 0.76835123E+03</pdfrwt>
<totfact> 0.40830596E+00</totfact>
</mgrwt>
</event>
<event>
 4    1  0.2293715E-008  0.5026793E+03  0.7818608E-02  0.1013082E+00
          1   -1    0    0  501    0  0.00000000000E+00  0.00000000000E+00  0.63329243488E+03  0.63329243490E+03  0.50400000000E-02 0. -1.
         -1   -1    0    0    0  501 -0.00000000000E+00 -0.00000000000E+00 -0.72754095024E+03  0.72754095026E+03  0.50400000000E-02 0.  1.
    8880022    1    1    2    0    0  0.44726951055E+03  0.17101126030E+03 -0.50435774578E+03  0.71208374153E+03  0.15294330000E+03 0.  0.
    8880022    1    1    2    0    0 -0.44726951055E+03 -0.17101126030E+03  0.41010923042E+03  0.64874964362E+03  0.15294330000E+03 0.  0.
<mgrwt>
<rscale>  0 0.50267934E+03</rscale>
<asrwt>0</asrwt>
<pdfrwt beam="1">  1        1 0.97429606E-01 0.50267934E+03</pdfrwt>
<pdfrwt beam="2">  1       -1 0.11192938E+00 0.50267934E+03</pdfrwt>
<totfact> 0.24550272E+01</totfact>
</mgrwt>
</event>
<event>
 4    1  0.2293715E-008  0.3611945E+03  0.7818608E-02  0.1058112E+00
         -1   -1    0    0    0  501 -0.00000000000E+00  0.00000000000E+00  0.17275044157E+03  0.17275044164E+03  0.50400000000E-02 0.  1.
          1   -1    0    0  501    0  0.00000000000E+00 -0.00000000000E+00 -0.27846560377E+04  0.27846560377E+04  0.50400000000E-02 0. -1.
    8880022    1    1    2    0    0  0.70775958844E+02  0.31946919084E+03 -0.43588012675E+02  0.36381501908E+03  0.15294330000E+03 0.  0.
    8880022    1    1    2    0    0 -0.70775958844E+02 -0.31946919084E+03 -0.25683175835E+04  0.25935914603E+04  0.15294330000E+03 0.  0.
<mgrwt>
<rscale>  0 0.36119448E+03</rscale>
<asrwt>0</asrwt>
<pdfrwt beam="1">  1        1 0.42840859E+00 0.36119448E+03</pdfrwt>
<pdfrwt beam="2">  1       -1 0.26576993E-01 0.36119448E+03</pdfrwt>
<totfact> 0.12470466E+01</totfact>
</mgrwt>
</event>
<event>
 4    1  0.2293715E-008  0.2787917E+03  0.7818608E-02  0.1096351E+00
          1   -1    0    0  501    0  0.00000000000E+00  0.00000000000E+00  0.56807357669E+03  0.56807357672E+03  0.50400000000E-02 0. -1.
         -1   -1    0    0    0  501 -0.00000000000E+00 -0.00000000000E+00 -0.44591958888E+03  0.44591958891E+03  0.50400000000E-02 0.  1.
    8880022    1    1    2    0    0 -0.23268012853E+03 -0.13896328360E+02  0.48318614053E+03  0.55784733536E+03  0.15294330000E+03 0.  0.
    8880022    1    1    2    0    0  0.23268012853E+03  0.13896328360E+02 -0.36103215272E+03  0.45614583026E+03  0.15294330000E+03 0.  0.
<mgrwt>
<rscale>  0 0.27879168E+03</rscale>
<asrwt>0</asrwt>
<pdfrwt beam="1">  1        1 0.87395935E-01 0.27879168E+03</pdfrwt>
<pdfrwt beam="2">  1       -1 0.68603014E-01 0.27879168E+03</pdfrwt>
<totfact> 0.85730343E+01</totfact>
</mgrwt>
</event>
<event>
 4    1  0.2293715E-008  0.6496864E+03  0.7818608E-02  0.9807368E-01
         -1   -1    0    0    0  501 -0.00000000000E+00  0.00000000000E+00  0.92309774256E+03  0.92309774258E+03  0.50400000000E-02 0.  1.
          1   -1    0    0  501    0  0.00000000000E+00 -0.00000000000E+00 -0.74223809114E+03  0.74223809116E+03  0.50400000000E-02 0. -1.
    8880022    1    1    2    0    0  0.58356883584E+03 -0.24113925638E+03 -0.42552142262E+03  0.77663431630E+03  0.15294330000E+03 0.  0.
    8880022    1    1    2    0    0 -0.58356883584E+03  0.24113925638E+03  0.60638107404E+03  0.88870151744E+03  0.15294330000E+03 0.  0.
<mgrwt>
<rscale>  0 0.64968637E+03</rscale>
<asrwt>0</asrwt>
<pdfrwt beam="1">  1        1 0.11419048E+00 0.64968637E+03</pdfrwt>
<pdfrwt beam="2">  1       -1 0.14201504E+00 0.64968637E+03</pdfrwt>
<totfact> 0.10505197E+01</totfact>
</mgrwt>
</event>
<event>
 4    1  0.2293715E-008  0.7063129E+03  0.7818608E-02  0.9706497E-01
          1   -1    0    0  501    0  0.00000000000E+00  0.00000000000E+00  0.24099776965E+04  0.24099776965E+04  0.50400000000E-02 0. -1.
         -1   -1    0    0    0  501 -0.00000000000E+00 -0.00000000000E+00 -0.59082330620E+03  0.59082330622E+03  0.50400000000E-02 0.  1.
    8880022    1    1    2    0    0  0.66154755581E+03 -0.19452803668E+03 -0.29974244317E+03  0.76728320124E+03  0.15294330000E+03 0.  0.
    8880022    1    1    2    0    0 -0.66154755581E+03  0.19452803668E+03  0.21188968335E+04  0.22335178015E+04  0.15294330000E+03 0.  0.
<mgrwt>
<rscale>  0 0.70631295E+03</rscale>
<asrwt>0</asrwt>
<pdfrwt beam="1">  1        1 0.37076580E+00 0.70631295E+03</pdfrwt>
<pdfrwt beam="2">  1       -1 0.90895894E-01 0.70631295E+03</pdfrwt>
<totfact> 0.19811059E+00</totfact>
</mgrwt>
</event>
<event>
 4    1  0.2293715E-008  0.2286262E+03  0.7818608E-02  0.1127610E+00
          1   -1    0    0  501    0  0.00000000000E+00  0.00000000000E+00  0.35315907494E+03  0.35315907497E+03  0.50400000000E-02 0. -1.
         -1   -1    0    0    0  501 -0.00000000000E+00 -0.00000000000E+00 -0.17135186219E+03  0.17135186226E+03  0.50400000000E-02 0.  1.
    8880022    1    1    2    0    0  0.15831537057E+03 -0.61762041296E+02  0.18770403237E+03  0.29580865959E+03  0.15294330000E+03 0.  0.
    8880022    1    1    2    0    0 -0.15831537057E+03  0.61762041296E+02 -0.58968196259E+01  0.22870227765E+03  0.15294330000E+03 0.  0.
<mgrwt>
<rscale>  0 0.22862624E+03</rscale>
<asrwt>0</asrwt>
<pdfrwt beam="1">  1        1 0.54332164E-01 0.22862624E+03</pdfrwt>
<pdfrwt beam="2">  1       -1 0.26361826E-01 0.22862624E+03</pdfrwt>
<totfact> 0.90705982E+02</totfact>
</mgrwt>
</event>
<event>
 4    1  0.2293715E-008  0.2247107E+03  0.7818608E-02  0.1130419E+00
          1   -1    0    0  501    0  0.00000000000E+00  0.00000000000E+00  0.42881249072E+03  0.42881249075E+03  0.50400000000E-02 0. -1.
         -1   -1    0    0    0  501 -0.00000000000E+00 -0.00000000000E+00 -0.99064730315E+03  0.99064730316E+03  0.50400000000E-02 0.  1.
    8880022    1    1    2    0    0 -0.15503003090E+03 -0.55398141181E+02 -0.94713153943E+03  0.97342337681E+03  0.15294330000E+03 0.  0.
    8880022    1    1    2    0    0  0.15503003090E+03  0.55398141181E+02  0.38529672700E+03  0.44603641710E+03  0.15294330000E+03 0. -1.
<mgrwt>
<rscale>  0 0.22471074E+03</rscale>
<asrwt>0</asrwt>
<pdfrwt beam="1">  1        1 0.65971153E-01 0.22471074E+03</pdfrwt>
<pdfrwt beam="2">  1       -1 0.15240728E+00 0.22471074E+03</pdfrwt>
<totfact> 0.20664639E+01</totfact>
</mgrwt>
</event>
<event>
 4    1  0.2293715E-008  0.2219920E+03  0.7818608E-02  0.1132407E+00
          1   -1    0    0  501    0  0.00000000000E+00  0.00000000000E+00  0.11958968603E+04  0.11958968603E+04  0.50400000000E-02 0. -1.
         -1   -1    0    0    0  501 -0.00000000000E+00 -0.00000000000E+00 -0.12513019920E+03  0.12513019930E+03  0.50400000000E-02 0.  1.
    8880022    1    1    2    0    0 -0.40862277586E+02 -0.15562473369E+03 -0.55444101170E+01  0.22206120094E+03  0.15294330000E+03 0.  0.
    8880022    1    1    2    0    0  0.40862277586E+02  0.15562473369E+03  0.10763110712E+04  0.10989658586E+04  0.15294330000E+03 0.  0.
<mgrwt>
<rscale>  0 0.22199197E+03</rscale>
<asrwt>0</asrwt>
<pdfrwt beam="1">  1        1 0.18398414E+00 0.22199197E+03</pdfrwt>
<pdfrwt beam="2">  1       -1 0.19250799E-01 0.22199197E+03</pdfrwt>
<totfact> 0.25145002E+02</totfact>
</mgrwt>
</event>
<event>
 4    1  0.2293715E-008  0.4352065E+03  0.7818608E-02  0.1032228E+00
          1   -1    0    0  501    0  0.00000000000E+00  0.00000000000E+00  0.54012317755E+03  0.54012317757E+03  0.50400000000E-02 0. -1.
         -1   -1    0    0    0  501 -0.00000000000E+00 -0.00000000000E+00 -0.50093577131E+03  0.50093577133E+03  0.50400000000E-02 0.  1.
    8880022    1    1    2    0    0  0.32886536444E+03  0.24054226342E+03 -0.26549842603E+03  0.50979807342E+03  0.15294330000E+03 0.  0.
    8880022    1    1    2    0    0 -0.32886536444E+03 -0.24054226342E+03  0.30468583227E+03  0.53126087548E+03  0.15294330000E+03 0. -1.
<mgrwt>
<rscale>  0 0.43520646E+03</rscale>
<asrwt>0</asrwt>
<pdfrwt beam="1">  1        1 0.83095873E-01 0.43520646E+03</pdfrwt>
<pdfrwt beam="2">  1       -1 0.77067042E-01 0.43520646E+03</pdfrwt>
<totfact> 0.70729813E+01</totfact>
</mgrwt>
</event>
<event>
 4    1  0.2293715E-008  0.1015950E+04  0.7818608E-02  0.9291222E-01
          1   -1    0    0  501    0  0.00000000000E+00  0.00000000000E+00  0.23954246163E+04  0.23954246163E+04  0.50400000000E-02 0. -1.
         -1   -1    0    0    0  501 -0.00000000000E+00 -0.00000000000E+00 -0.15395461447E+04  0.15395461447E+04  0.50400000000E-02 0.  1.
    8880022    1    1    2    0    0 -0.80303134024E+03  0.60324448133E+03  0.20975467080E+04  0.23306344808E+04  0.15294330000E+03 0.  0.
    8880022    1    1    2    0    0  0.80303134024E+03 -0.60324448133E+03 -0.12416682364E+04  0.16043362802E+04  0.15294330000E+03 0.  0.
<mgrwt>
<rscale>  0 0.10159502E+04</rscale>
<asrwt>0</asrwt>
<pdfrwt beam="1">  1        1 0.36852686E+00 0.10159502E+04</pdfrwt>
<pdfrwt beam="2">  1       -1 0.23685325E+00 0.10159502E+04</pdfrwt>
<totfact> 0.13853705E-01</totfact>
</mgrwt>
</event>
<event>
 4    1  0.2293715E-008  0.2050310E+03  0.7818608E-02  0.1145562E+00
         -1   -1    0    0    0  501 -0.00000000000E+00  0.00000000000E+00  0.11806638387E+03  0.11806638398E+03  0.50400000000E-02 0.  1.
          1   -1    0    0  501    0  0.00000000000E+00 -0.00000000000E+00 -0.12821860635E+04  0.12821860635E+04  0.50400000000E-02 0. -1.
    8880022    1    1    2    0    0  0.12029057491E+03  0.64623696655E+02 -0.11770885154E+04  0.11948117302E+04  0.15294330000E+03 0.  0.
    8880022    1    1    2    0    0 -0.12029057491E+03 -0.64623696655E+02  0.12968835794E+02  0.20544071724E+03  0.15294330000E+03 0.  1.
<mgrwt>
<rscale>  0 0.20503097E+03</rscale>
<asrwt>0</asrwt>
<pdfrwt beam="1">  1        1 0.19725939E+00 0.20503097E+03</pdfrwt>
<pdfrwt beam="2">  1       -1 0.18164060E-01 0.20503097E+03</pdfrwt>
<totfact> 0.24169477E+02</totfact>
</mgrwt>
</event>
<event>
 4    1  0.2293715E-008  0.2683148E+03  0.7818608E-02  0.1102248E+00
         -1   -1    0    0    0  501 -0.00000000000E+00  0.00000000000E+00  0.56702070722E+02  0.56702070946E+02  0.50400000000E-02 0.  1.
          1   -1    0    0  501    0  0.00000000000E+00 -0.00000000000E+00 -0.16567744353E+04  0.16567744354E+04  0.50400000000E-02 0. -1.
    8880022    1    1    2    0    0  0.86272969321E+02 -0.20287478153E+03 -0.38591145430E+03  0.47002181416E+03  0.15294330000E+03 0.  0.
    8880022    1    1    2    0    0 -0.86272969321E+02  0.20287478153E+03 -0.12141609103E+04  0.12434546921E+04  0.15294330000E+03 0.  1.
<mgrwt>
<rscale>  0 0.26831484E+03</rscale>
<asrwt>0</asrwt>
<pdfrwt beam="1">  1        1 0.25488834E+00 0.26831484E+03</pdfrwt>
<pdfrwt beam="2">  1       -1 0.87233968E-02 0.26831484E+03</pdfrwt>
<totfact> 0.42599525E+02</totfact>
</mgrwt>
</event>
<event>
 4    1  0.2293715E-008  0.5574120E+03  0.7818608E-02  0.9997928E-01
         -1   -1    0    0    0  501 -0.00000000000E+00  0.00000000000E+00  0.24894487440E+03  0.24894487445E+03  0.50400000000E-02 0.  1.
          1   -1    0    0  501    0  0.00000000000E+00 -0.00000000000E+00 -0.20557716291E+04  0.20557716291E+04  0.50400000000E-02 0. -1.
    8880022    1    1    2    0    0 -0.26368210779E+03 -0.46667789408E+03 -0.16257130607E+04  0.17186189571E+04  0.15294330000E+03 0.  0.
    8880022    1    1    2    0    0  0.26368210779E+03  0.46667789408E+03 -0.18111369391E+03  0.58609754642E+03  0.15294330000E+03 0.  0.
<mgrwt>
<rscale>  0 0.55741202E+03</rscale>
<asrwt>0</asrwt>
<pdfrwt beam="1">  1        1 0.31627255E+00 0.55741202E+03</pdfrwt>
<pdfrwt beam="2">  1       -1 0.38299213E-01 0.55741202E+03</pdfrwt>
<totfact> 0.19376254E+01</totfact>
</mgrwt>
</event>
<event>
 4    1  0.2293715E-008  0.4672465E+03  0.7818608E-02  0.1022700E+00
         -1   -1    0    0    0  501 -0.00000000000E+00  0.00000000000E+00  0.52245320092E+03  0.52245320095E+03  0.50400000000E-02 0.  1.
          1   -1    0    0  501    0  0.00000000000E+00 -0.00000000000E+00 -0.14396097379E+04  0.14396097379E+04  0.50400000000E-02 0. -1.
    8880022    1    1    2    0    0  0.11760470400E+03  0.42555467733E+03  0.36789720060E+03  0.59469963261E+03  0.15294330000E+03 0.  0.
    8880022    1    1    2    0    0 -0.11760470400E+03 -0.42555467733E+03 -0.12850537376E+04  0.13673633062E+04  0.15294330000E+03 0.  0.
<mgrwt>
<rscale>  0 0.46724651E+03</rscale>
<asrwt>0</asrwt>
<pdfrwt beam="1">  1        1 0.22147842E+00 0.46724651E+03</pdfrwt>
<pdfrwt beam="2">  1       -1 0.80377416E-01 0.46724651E+03</pdfrwt>
<totfact> 0.12155443E+01</totfact>
</mgrwt>
</event>
<event>
 4    1  0.2293715E-008  0.7573764E+03  0.7818608E-02  0.9623849E-01
          1   -1    0    0  501    0  0.00000000000E+00  0.00000000000E+00  0.34223179643E+03  0.34223179647E+03  0.50400000000E-02 0. -1.
         -1   -1    0    0    0  501 -0.00000000000E+00 -0.00000000000E+00 -0.18826125700E+04  0.18826125700E+04  0.50400000000E-02 0.  1.
    8880022    1    1    2    0    0 -0.67967832925E+03  0.29709372367E+03 -0.40176516951E+03  0.85734136512E+03  0.15294330000E+03 0. -1.
    8880022    1    1    2    0    0  0.67967832925E+03 -0.29709372367E+03 -0.11386156041E+04  0.13675030014E+04  0.15294330000E+03 0.  0.
<mgrwt>
<rscale>  0 0.75737637E+03</rscale>
<asrwt>0</asrwt>
<pdfrwt beam="1">  1        1 0.52651047E-01 0.75737637E+03</pdfrwt>
<pdfrwt beam="2">  1       -1 0.28963270E+00 0.75737637E+03</pdfrwt>
<totfact> 0.29754178E+00</totfact>
</mgrwt>
</event>
<event>
 4    1  0.2293715E-008  0.7344488E+03  0.7818608E-02  0.9660069E-01
          1   -1    0    0  501    0  0.00000000000E+00  0.00000000000E+00  0.10248461242E+04  0.10248461242E+04  0.50400000000E-02 0. -1.
         -1   -1    0    0    0  501 -0.00000000000E+00 -0.00000000000E+00 -0.90125360916E+03  0.90125360918E+03  0.50400000000E-02 0.  1.
    8880022    1    1    2    0    0  0.43255752393E+03 -0.57351314488E+03 -0.55934773931E+03  0.92319276716E+03  0.15294330000E+03 0.  0.
    8880022    1    1    2    0    0 -0.43255752393E+03  0.57351314488E+03  0.68294025431E+03  0.10029069662E+04  0.15294330000E+03 0.  0.
<mgrwt>
<rscale>  0 0.73444877E+03</rscale>
<asrwt>0</asrwt>
<pdfrwt beam="1">  1        1 0.15766863E+00 0.73444877E+03</pdfrwt>
<pdfrwt beam="2">  1       -1 0.13865440E+00 0.73444877E+03</pdfrwt>
<totfact> 0.64550041E+00</totfact>
</mgrwt>
</event>
<event>
 4    1  0.2293715E-008  0.3068118E+03  0.7818608E-02  0.1081884E+00
         -1   -1    0    0    0  501 -0.00000000000E+00  0.00000000000E+00  0.35582931314E+03  0.35582931317E+03  0.50400000000E-02 0.  1.
          1   -1    0    0  501    0  0.00000000000E+00 -0.00000000000E+00 -0.98376859662E+03  0.98376859663E+03  0.50400000000E-02 0. -1.
    8880022    1    1    2    0    0 -0.10570494437E+03 -0.24406615803E+03 -0.88667260783E+03  0.93825465160E+03  0.15294330000E+03 0.  0.
    8880022    1    1    2    0    0  0.10570494437E+03  0.24406615803E+03  0.25873332435E+03  0.40134325820E+03  0.15294330000E+03 0.  1.
<mgrwt>
<rscale>  0 0.30681180E+03</rscale>
<asrwt>0</asrwt>
<pdfrwt beam="1">  1        1 0.15134901E+00 0.30681180E+03</pdfrwt>
<pdfrwt beam="2">  1       -1 0.54742972E-01 0.30681180E+03</pdfrwt>
<totfact> 0.57359623E+01</totfact>
</mgrwt>
</event>
<event>
 4    1  0.2293715E-008  0.5263613E+03  0.7818608E-02  0.1007118E+00
         -1   -1    0    0    0  501 -0.00000000000E+00  0.00000000000E+00  0.57318822786E+03  0.57318822788E+03  0.50400000000E-02 0.  1.
          1   -1    0    0  501    0  0.00000000000E+00 -0.00000000000E+00 -0.14021174706E+04  0.14021174706E+04  0.50400000000E-02 0. -1.
    8880022    1    1    2    0    0 -0.49572569507E+03 -0.88998027718E+02  0.38502450297E+03  0.65215039262E+03  0.15294330000E+03 0.  0.
    8880022    1    1    2    0    0  0.49572569507E+03  0.88998027718E+02 -0.12139537457E+04  0.13231553058E+04  0.15294330000E+03 0.  0.
<mgrwt>
<rscale>  0 0.52636135E+03</rscale>
<asrwt>0</asrwt>
<pdfrwt beam="1">  1        1 0.21571038E+00 0.52636135E+03</pdfrwt>
<pdfrwt beam="2">  1       -1 0.88182804E-01 0.52636135E+03</pdfrwt>
<totfact> 0.10436774E+01</totfact>
</mgrwt>
</event>
<event>
 4    1  0.2293715E-008  0.1632350E+03  0.7818608E-02  0.1185092E+00
         -1   -1    0    0    0  501 -0.00000000000E+00  0.00000000000E+00  0.76321427675E+03  0.76321427676E+03  0.50400000000E-02 0.  1.
          1   -1    0    0  501    0  0.00000000000E+00 -0.00000000000E+00 -0.65987423467E+03  0.65987423469E+03  0.50400000000E-02 0. -1.
    8880022    1    1    2    0    0  0.31601333893E+02 -0.47490702762E+02 -0.64079536523E+03  0.66125967991E+03  0.15294330000E+03 0. -1.
    8880022    1    1    2    0    0 -0.31601333893E+02  0.47490702762E+02  0.74413540731E+03  0.76182883155E+03  0.15294330000E+03 0.  0.
<mgrwt>
<rscale>  0 0.16323500E+03</rscale>
<asrwt>0</asrwt>
<pdfrwt beam="1">  1        1 0.10151911E+00 0.16323500E+03</pdfrwt>
<pdfrwt beam="2">  1       -1 0.11741758E+00 0.16323500E+03</pdfrwt>
<totfact> 0.22742011E+01</totfact>
</mgrwt>
</event>
<event>
 4    1  0.2293715E-008  0.1199922E+04  0.7818608E-02  0.9112925E-01
         -1   -1    0    0    0  501 -0.00000000000E+00  0.00000000000E+00  0.84556452467E+03  0.84556452469E+03  0.50400000000E-02 0.  1.
          1   -1    0    0  501    0  0.00000000000E+00 -0.00000000000E+00 -0.34519234952E+04  0.34519234952E+04  0.50400000000E-02 0. -1.
    8880022    1    1    2    0    0  0.10958266034E+04 -0.46431242503E+03 -0.28327388539E+04  0.30763977376E+04  0.15294330000E+03 0.  0.
    8880022    1    1    2    0    0 -0.10958266034E+04  0.46431242503E+03  0.22637988334E+03  0.12210902823E+04  0.15294330000E+03 0.  0.
<mgrwt>
<rscale>  0 0.11999223E+04</rscale>
<asrwt>0</asrwt>
<pdfrwt beam="1">  1        1 0.53106515E+00 0.11999223E+04</pdfrwt>
<pdfrwt beam="2">  1       -1 0.13008685E+00 0.11999223E+04</pdfrwt>
<totfact> 0.13816824E-01</totfact>
</mgrwt>
</event>
<event>
 4    1  0.2293715E-008  0.3263612E+03  0.7818608E-02  0.1072758E+00
         -1   -1    0    0    0  501 -0.00000000000E+00  0.00000000000E+00  0.16060190816E+03  0.16060190824E+03  0.50400000000E-02 0.  1.
          1   -1    0    0  501    0  0.00000000000E+00 -0.00000000000E+00 -0.27159423950E+04  0.27159423950E+04  0.50400000000E-02 0. -1.
    8880022    1    1    2    0    0  0.25846099028E+03  0.12774148944E+03 -0.27273796116E+02  0.32749883143E+03  0.15294330000E+03 0.  0.
    8880022    1    1    2    0    0 -0.25846099028E+03 -0.12774148944E+03 -0.25280666907E+04  0.25490454718E+04  0.15294330000E+03 0.  0.
<mgrwt>
<rscale>  0 0.32636119E+03</rscale>
<asrwt>0</asrwt>
<pdfrwt beam="1">  1        1 0.41783726E+00 0.32636119E+03</pdfrwt>
<pdfrwt beam="2">  1       -1 0.24707988E-01 0.32636119E+03</pdfrwt>
<totfact> 0.15911945E+01</totfact>
</mgrwt>
</event>
<event>
 4    1  0.2293715E-008  0.1006650E+04  0.7818608E-02  0.9301281E-01
          1   -1    0    0  501    0  0.00000000000E+00  0.00000000000E+00  0.10366530848E+04  0.10366530848E+04  0.50400000000E-02 0. -1.
         -1   -1    0    0    0  501 -0.00000000000E+00 -0.00000000000E+00 -0.99781496316E+03  0.99781496317E+03  0.50400000000E-02 0.  1.
    8880022    1    1    2    0    0 -0.99283956935E+03  0.64982098761E+02  0.16450832502E+03  0.10200037871E+04  0.15294330000E+03 0.  0.
    8880022    1    1    2    0    0  0.99283956935E+03 -0.64982098761E+02 -0.12567020338E+03  0.10144642609E+04  0.15294330000E+03 0.  0.
<mgrwt>
<rscale>  0 0.10066503E+04</rscale>
<asrwt>0</asrwt>
<pdfrwt beam="1">  1        1 0.15948509E+00 0.10066503E+04</pdfrwt>
<pdfrwt beam="2">  1       -1 0.15350999E+00 0.10066503E+04</pdfrwt>
<totfact> 0.46524522E+00</totfact>
</mgrwt>
</event>
<event>
 4    1  0.2293715E-008  0.4701039E+03  0.7818608E-02  0.1021891E+00
          1   -1    0    0  501    0  0.00000000000E+00  0.00000000000E+00  0.12820902949E+04  0.12820902949E+04  0.50400000000E-02 0. -1.
         -1   -1    0    0    0  501 -0.00000000000E+00 -0.00000000000E+00 -0.19235747794E+03  0.19235747801E+03  0.50400000000E-02 0.  1.
    8880022    1    1    2    0    0  0.42849325051E+03  0.11831992062E+03  0.78249106544E+03  0.91284718867E+03  0.15294330000E+03 0. -1.
    8880022    1    1    2    0    0 -0.42849325051E+03 -0.11831992062E+03  0.30724175151E+03  0.56160058425E+03  0.15294330000E+03 0.  0.
<mgrwt>
<rscale>  0 0.47010395E+03</rscale>
<asrwt>0</asrwt>
<pdfrwt beam="1">  1        1 0.19724466E+00 0.47010395E+03</pdfrwt>
<pdfrwt beam="2">  1       -1 0.29593459E-01 0.47010395E+03</pdfrwt>
<totfact> 0.10246998E+02</totfact>
</mgrwt>
</event>
<event>
 4    1  0.2293715E-008  0.1102458E+04  0.7818608E-02  0.9202799E-01
         -1   -1    0    0    0  501 -0.00000000000E+00  0.00000000000E+00  0.15789710747E+04  0.15789710747E+04  0.50400000000E-02 0.  1.
          1   -1    0    0  501    0  0.00000000000E+00 -0.00000000000E+00 -0.12975855993E+04  0.12975855993E+04  0.50400000000E-02 0. -1.
    8880022    1    1    2    0    0 -0.59782702627E+03  0.91357808833E+03 -0.77663404869E+03  0.13485452070E+04  0.15294330000E+03 0.  0.
    8880022    1    1    2    0    0  0.59782702627E+03 -0.91357808833E+03  0.10580195241E+04  0.15280114670E+04  0.15294330000E+03 0.  0.
<mgrwt>
<rscale>  0 0.11024580E+04</rscale>
<asrwt>0</asrwt>
<pdfrwt beam="1">  1        1 0.19962855E+00 0.11024580E+04</pdfrwt>
<pdfrwt beam="2">  1       -1 0.24291863E+00 0.11024580E+04</pdfrwt>
<totfact> 0.70009410E-01</totfact>
</mgrwt>
</event>
<event>
 4    1  0.2293715E-008  0.4370055E+03  0.7818608E-02  0.1031670E+00
         -1   -1    0    0    0  501 -0.00000000000E+00  0.00000000000E+00  0.24385442439E+03  0.24385442444E+03  0.50400000000E-02 0.  1.
          1   -1    0    0  501    0  0.00000000000E+00 -0.00000000000E+00 -0.32868163632E+04  0.32868163632E+04  0.50400000000E-02 0. -1.
    8880022    1    1    2    0    0 -0.21031334605E+03 -0.35121285174E+03 -0.30622161852E+04  0.30932413078E+04  0.15294330000E+03 0. -1.
    8880022    1    1    2    0    0  0.21031334605E+03  0.35121285174E+03  0.19254246397E+02  0.43742947978E+03  0.15294330000E+03 0.  0.
<mgrwt>
<rscale>  0 0.43700552E+03</rscale>
<asrwt>0</asrwt>
<pdfrwt beam="1">  1        1 0.50566402E+00 0.43700552E+03</pdfrwt>
<pdfrwt beam="2">  1       -1 0.37516068E-01 0.43700552E+03</pdfrwt>
<totfact> 0.29336538E+00</totfact>
</mgrwt>
</event>
<event>
 4    1  0.2293715E-008  0.5353289E+03  0.7818608E-02  0.1004948E+00
         -1   -1    0    0    0  501 -0.00000000000E+00  0.00000000000E+00  0.12574301463E+04  0.12574301463E+04  0.50400000000E-02 0.  1.
          1   -1    0    0  501    0  0.00000000000E+00 -0.00000000000E+00 -0.42221346900E+03  0.42221346903E+03  0.50400000000E-02 0. -1.
    8880022    1    1    2    0    0  0.26414513893E+03 -0.43978714331E+03 -0.15211606036E+03  0.55652163900E+03  0.15294330000E+03 0.  0.
    8880022    1    1    2    0    0 -0.26414513893E+03  0.43978714331E+03  0.98733273763E+03  0.11231219763E+04  0.15294330000E+03 0.  0.
<mgrwt>
<rscale>  0 0.53532891E+03</rscale>
<asrwt>0</asrwt>
<pdfrwt beam="1">  1        1 0.64955918E-01 0.53532891E+03</pdfrwt>
<pdfrwt beam="2">  1       -1 0.19345079E+00 0.53532891E+03</pdfrwt>
<totfact> 0.99277863E+00</totfact>
</mgrwt>
</event>
<event>
 4    1  0.2293715E-008  0.2274634E+03  0.7818608E-02  0.1128438E+00
          1   -1    0    0  501    0  0.00000000000E+00  0.00000000000E+00  0.54949844149E+03  0.54949844152E+03  0.50400000000E-02 0. -1.
         -1   -1    0    0    0  501 -0.00000000000E+00 -0.00000000000E+00 -0.31407909156E+03  0.31407909160E+03  0.50400000000E-02 0.  1.
    8880022    1    1    2    0    0  0.66170026744E+02  0.15482074489E+03 -0.24360485089E+03  0.33329103180E+03  0.15294330000E+03 0.  0.
    8880022    1    1    2    0    0 -0.66170026744E+02 -0.15482074489E+03  0.47902420082E+03  0.53028650131E+03  0.15294330000E+03 0.  0.
<mgrwt>
<rscale>  0 0.22746338E+03</rscale>
<asrwt>0</asrwt>
<pdfrwt beam="1">  1        1 0.84538221E-01 0.22746338E+03</pdfrwt>
<pdfrwt beam="2">  1       -1 0.48319861E-01 0.22746338E+03</pdfrwt>
<totfact> 0.17692328E+02</totfact>
</mgrwt>
</event>
<event>
 4    1  0.2293715E-008  0.1650078E+03  0.7818608E-02  0.1183156E+00
         -1   -1    0    0    0  501 -0.00000000000E+00  0.00000000000E+00  0.16192695038E+03  0.16192695046E+03  0.50400000000E-02 0.  1.
          1   -1    0    0  501    0  0.00000000000E+00 -0.00000000000E+00 -0.13545204380E+04  0.13545204380E+04  0.50400000000E-02 0. -1.
    8880022    1    1    2    0    0  0.43322672356E+02  0.44261463189E+02 -0.13058993762E+04  0.13162829350E+04  0.15294330000E+03 0.  0.
    8880022    1    1    2    0    0 -0.43322672356E+02 -0.44261463189E+02  0.11330588856E+03  0.20016445354E+03  0.15294330000E+03 0.  1.
<mgrwt>
<rscale>  0 0.16500783E+03</rscale>
<asrwt>0</asrwt>
<pdfrwt beam="1">  1        1 0.20838775E+00 0.16500783E+03</pdfrwt>
<pdfrwt beam="2">  1       -1 0.24911839E-01 0.16500783E+03</pdfrwt>
<totfact> 0.13069432E+02</totfact>
</mgrwt>
</event>
<event>
 4    1  0.2293715E-008  0.8621649E+03  0.7818608E-02  0.9474154E-01
         -1   -1    0    0    0  501 -0.00000000000E+00  0.00000000000E+00  0.84459677095E+03  0.84459677096E+03  0.50400000000E-02 0.  1.
          1   -1    0    0  501    0  0.00000000000E+00 -0.00000000000E+00 -0.29693652254E+04  0.29693652254E+04  0.50400000000E-02 0. -1.
    8880022    1    1    2    0    0 -0.20474134646E+03 -0.82341822659E+03 -0.26619846602E+04  0.27981226884E+04  0.15294330000E+03 0.  0.
    8880022    1    1    2    0    0  0.20474134646E+03  0.82341822659E+03  0.53721620581E+03  0.10158393080E+04  0.15294330000E+03 0.  0.
<mgrwt>
<rscale>  0 0.86216486E+03</rscale>
<asrwt>0</asrwt>
<pdfrwt beam="1">  1        1 0.45682542E+00 0.86216486E+03</pdfrwt>
<pdfrwt beam="2">  1       -1 0.12993797E+00 0.86216486E+03</pdfrwt>
<totfact> 0.33730210E-01</totfact>
</mgrwt>
</event>
<event>
 4    1  0.2293715E-008  0.2615092E+03  0.7818608E-02  0.1106240E+00
         -1   -1    0    0    0  501 -0.00000000000E+00  0.00000000000E+00  0.56745529817E+03  0.56745529820E+03  0.50400000000E-02 0.  1.
          1   -1    0    0  501    0  0.00000000000E+00 -0.00000000000E+00 -0.40868654076E+03  0.40868654079E+03  0.50400000000E-02 0. -1.
    8880022    1    1    2    0    0  0.40404238865E+02  0.20823765452E+03 -0.33045439340E+03  0.42141094244E+03  0.15294330000E+03 0. -1.
    8880022    1    1    2    0    0 -0.40404238865E+02 -0.20823765452E+03  0.48922315081E+03  0.55473089655E+03  0.15294330000E+03 0.  0.
<mgrwt>
<rscale>  0 0.26150923E+03</rscale>
<asrwt>0</asrwt>
<pdfrwt beam="1">  1        1 0.62874853E-01 0.26150923E+03</pdfrwt>
<pdfrwt beam="2">  1       -1 0.87300814E-01 0.26150923E+03</pdfrwt>
<totfact> 0.81046181E+01</totfact>
</mgrwt>
</event>
<event>
 4    1  0.2293715E-008  0.2365015E+03  0.7818608E-02  0.1122146E+00
          1   -1    0    0  501    0  0.00000000000E+00  0.00000000000E+00  0.80631774087E+03  0.80631774088E+03  0.50400000000E-02 0. -1.
         -1   -1    0    0    0  501 -0.00000000000E+00 -0.00000000000E+00 -0.27617862673E+03  0.27617862678E+03  0.50400000000E-02 0.  1.
    8880022    1    1    2    0    0  0.44654963680E+02  0.17477768191E+03  0.73343780327E+03  0.77062569913E+03  0.15294330000E+03 0. -1.
    8880022    1    1    2    0    0 -0.44654963680E+02 -0.17477768191E+03 -0.20329868914E+03  0.31187066854E+03  0.15294330000E+03 0.  0.
<mgrwt>
<rscale>  0 0.23650149E+03</rscale>
<asrwt>0</asrwt>
<pdfrwt beam="1">  1        1 0.12404888E+00 0.23650149E+03</pdfrwt>
<pdfrwt beam="2">  1       -1 0.42489020E-01 0.23650149E+03</pdfrwt>
<totfact> 0.12851323E+02</totfact>
</mgrwt>
</event>
<event>
 4    1  0.2293715E-008  0.4519014E+03  0.7818608E-02  0.1027157E+00
          1   -1    0    0  501    0  0.00000000000E+00  0.00000000000E+00  0.23997096187E+03  0.23997096193E+03  0.50400000000E-02 0. -1.
         -1   -1    0    0    0  501 -0.00000000000E+00 -0.00000000000E+00 -0.97241612923E+03  0.97241612924E+03  0.50400000000E-02 0.  1.
    8880022    1    1    2    0    0 -0.24845440265E+03 -0.34509941779E+03 -0.58042614211E+03  0.73560135795E+03  0.15294330000E+03 0.  0.
    8880022    1    1    2    0    0  0.24845440265E+03  0.34509941779E+03 -0.15201902524E+03  0.47678573322E+03  0.15294330000E+03 0.  0.
<mgrwt>
<rscale>  0 0.45190137E+03</rscale>
<asrwt>0</asrwt>
<pdfrwt beam="1">  1        1 0.36918610E-01 0.45190137E+03</pdfrwt>
<pdfrwt beam="2">  1       -1 0.14960248E+00 0.45190137E+03</pdfrwt>
<totfact> 0.43377698E+01</totfact>
</mgrwt>
</event>
<event>
 4    1  0.2293715E-008  0.9388866E+03  0.7818608E-02  0.9378236E-01
         -1   -1    0    0    0  501 -0.00000000000E+00  0.00000000000E+00  0.17040983483E+04  0.17040983483E+04  0.50400000000E-02 0.  1.
          1   -1    0    0  501    0  0.00000000000E+00 -0.00000000000E+00 -0.73565495184E+03  0.73565495186E+03  0.50400000000E-02 0. -1.
    8880022    1    1    2    0    0 -0.20231583331E+03 -0.90398271186E+03  0.11488413645E+04  0.14836928838E+04  0.15294330000E+03 0.  0.
    8880022    1    1    2    0    0  0.20231583331E+03  0.90398271186E+03 -0.18039796806E+03  0.95606041631E+03  0.15294330000E+03 0.  0.
<mgrwt>
<rscale>  0 0.93888662E+03</rscale>
<asrwt>0</asrwt>
<pdfrwt beam="1">  1        1 0.11317769E+00 0.93888662E+03</pdfrwt>
<pdfrwt beam="2">  1       -1 0.26216897E+00 0.93888662E+03</pdfrwt>
<totfact> 0.14923344E+00</totfact>
</mgrwt>
</event>
<event>
 4    1  0.2293715E-008  0.5241843E+03  0.7818608E-02  0.1007652E+00
         -1   -1    0    0    0  501 -0.00000000000E+00  0.00000000000E+00  0.38968090416E+03  0.38968090420E+03  0.50400000000E-02 0.  1.
          1   -1    0    0  501    0  0.00000000000E+00 -0.00000000000E+00 -0.12323846492E+04  0.12323846492E+04  0.50400000000E-02 0. -1.
    8880022    1    1    2    0    0 -0.30592615042E+03  0.39722379314E+03  0.10914439866E+03  0.53542665616E+03  0.15294330000E+03 0.  0.
    8880022    1    1    2    0    0  0.30592615042E+03 -0.39722379314E+03 -0.95184814373E+03  0.10866388973E+04  0.15294330000E+03 0.  0.
<mgrwt>
<rscale>  0 0.52418432E+03</rscale>
<asrwt>0</asrwt>
<pdfrwt beam="1">  1        1 0.18959764E+00 0.52418432E+03</pdfrwt>
<pdfrwt beam="2">  1       -1 0.59950909E-01 0.52418432E+03</pdfrwt>
<totfact> 0.30328397E+01</totfact>
</mgrwt>
</event>
<event>
 4    1  0.2293715E-008  0.7279008E+03  0.7818608E-02  0.9670673E-01
          1   -1    0    0  501    0  0.00000000000E+00  0.00000000000E+00  0.15639388244E+04  0.15639388244E+04  0.50400000000E-02 0. -1.
         -1   -1    0    0    0  501 -0.00000000000E+00 -0.00000000000E+00 -0.42522229829E+03  0.42522229832E+03  0.50400000000E-02 0.  1.
    8880022    1    1    2    0    0 -0.71164507671E+03  0.30426294076E+01  0.12094178646E+03  0.73787976089E+03  0.15294330000E+03 0.  0.
    8880022    1    1    2    0    0  0.71164507671E+03 -0.30426294076E+01  0.10177747396E+04  0.12512813618E+04  0.15294330000E+03 0. -1.
<mgrwt>
<rscale>  0 0.72790084E+03</rscale>
<asrwt>0</asrwt>
<pdfrwt beam="1">  1        1 0.24060597E+00 0.72790084E+03</pdfrwt>
<pdfrwt beam="2">  1       -1 0.65418817E-01 0.72790084E+03</pdfrwt>
<totfact> 0.14563130E+01</totfact>
</mgrwt>
</event>
<event>
 4    1  0.2293715E-008  0.6012744E+03  0.7818608E-02  0.9902766E-01
          1   -1    0    0  501    0  0.00000000000E+00  0.00000000000E+00  0.47409902657E+03  0.47409902660E+03  0.50400000000E-02 0. -1.
         -1   -1    0    0    0  501 -0.00000000000E+00 -0.00000000000E+00 -0.93820488006E+03  0.93820488008E+03  0.50400000000E-02 0.  1.
    8880022    1    1    2    0    0  0.47730010952E+03 -0.33215036092E+03 -0.53758863049E+03  0.80655591589E+03  0.15294330000E+03 0.  0.
    8880022    1    1    2    0    0 -0.47730010952E+03  0.33215036092E+03  0.73482777001E+02  0.60574799078E+03  0.15294330000E+03 0.  0.
<mgrwt>
<rscale>  0 0.60127440E+03</rscale>
<asrwt>0</asrwt>
<pdfrwt beam="1">  1        1 0.72938312E-01 0.60127440E+03</pdfrwt>
<pdfrwt beam="2">  1       -1 0.14433921E+00 0.60127440E+03</pdfrwt>
<totfact> 0.19269963E+01</totfact>
</mgrwt>
</event>
<event>
 4    1  0.2293715E-008  0.6561736E+03  0.7818608E-02  0.9795263E-01
          1   -1    0    0  501    0  0.00000000000E+00  0.00000000000E+00  0.76256161666E+03  0.76256161667E+03  0.50400000000E-02 0. -1.
         -1   -1    0    0    0  501 -0.00000000000E+00 -0.00000000000E+00 -0.10199616985E+04  0.10199616985E+04  0.50400000000E-02 0.  1.
    8880022    1    1    2    0    0  0.46313412349E+02 -0.63641744675E+03  0.46679495806E+03  0.80527093861E+03  0.15294330000E+03 0.  0.
    8880022    1    1    2    0    0 -0.46313412349E+02  0.63641744675E+03 -0.72419503992E+03  0.97725237659E+03  0.15294330000E+03 0.  0.
<mgrwt>
<rscale>  0 0.65617357E+03</rscale>
<asrwt>0</asrwt>
<pdfrwt beam="1">  1        1 0.11731717E+00 0.65617357E+03</pdfrwt>
<pdfrwt beam="2">  1       -1 0.15691719E+00 0.65617357E+03</pdfrwt>
<totfact> 0.77089678E+00</totfact>
</mgrwt>
</event>
<event>
 4    1  0.2293715E-008  0.2162350E+03  0.7818608E-02  0.1136722E+00
         -1   -1    0    0    0  501 -0.00000000000E+00  0.00000000000E+00  0.21888660422E+02  0.21888661003E+02  0.50400000000E-02 0.  1.
          1   -1    0    0  501    0  0.00000000000E+00 -0.00000000000E+00 -0.33361750121E+04  0.33361750121E+04  0.50400000000E-02 0. -1.
    8880022    1    1    2    0    0  0.15258047927E+03  0.92267200422E+01 -0.26641412278E+04  0.26729021811E+04  0.15294330000E+03 0. -1.
    8880022    1    1    2    0    0 -0.15258047927E+03 -0.92267200422E+01 -0.65014512383E+03  0.68516149197E+03  0.15294330000E+03 0.  0.
<mgrwt>
<rscale>  0 0.21623503E+03</rscale>
<asrwt>0</asrwt>
<pdfrwt beam="1">  1        1 0.51325729E+00 0.21623503E+03</pdfrwt>
<pdfrwt beam="2">  1       -1 0.33674889E-02 0.21623503E+03</pdfrwt>
<totfact> 0.13438773E+02</totfact>
</mgrwt>
</event>
<event>
 4    1  0.2293715E-008  0.7986507E+03  0.7818608E-02  0.9561972E-01
         -1   -1    0    0    0  501 -0.00000000000E+00  0.00000000000E+00  0.48246737848E+03  0.48246737851E+03  0.50400000000E-02 0.  1.
          1   -1    0    0  501    0  0.00000000000E+00 -0.00000000000E+00 -0.16230330180E+04  0.16230330181E+04  0.50400000000E-02 0. -1.
    8880022    1    1    2    0    0  0.52083793751E+03 -0.58581497826E+03 -0.10236364890E+04  0.12983353421E+04  0.15294330000E+03 0.  0.
    8880022    1    1    2    0    0 -0.52083793751E+03  0.58581497826E+03 -0.11692915058E+03  0.80716505448E+03  0.15294330000E+03 0.  0.
<mgrwt>
<rscale>  0 0.79865074E+03</rscale>
<asrwt>0</asrwt>
<pdfrwt beam="1">  1        1 0.24969738E+00 0.79865074E+03</pdfrwt>
<pdfrwt beam="2">  1       -1 0.74225752E-01 0.79865074E+03</pdfrwt>
<totfact> 0.10152889E+01</totfact>
</mgrwt>
</event>
<event>
 4    1  0.2293715E-008  0.2783590E+03  0.7818608E-02  0.1096589E+00
          1   -1    0    0  501    0  0.00000000000E+00  0.00000000000E+00  0.13799916915E+04  0.13799916915E+04  0.50400000000E-02 0. -1.
         -1   -1    0    0    0  501 -0.00000000000E+00 -0.00000000000E+00 -0.49915141948E+03  0.49915141950E+03  0.50400000000E-02 0.  1.
    8880022    1    1    2    0    0 -0.20690656964E+03  0.10621553507E+03 -0.44473065744E+03  0.52466091825E+03  0.15294330000E+03 0.  0.
    8880022    1    1    2    0    0  0.20690656964E+03 -0.10621553507E+03  0.13255709295E+04  0.13544821928E+04  0.15294330000E+03 0.  0.
<mgrwt>
<rscale>  0 0.27835898E+03</rscale>
<asrwt>0</asrwt>
<pdfrwt beam="1">  1        1 0.21230641E+00 0.27835898E+03</pdfrwt>
<pdfrwt beam="2">  1       -1 0.76792527E-01 0.27835898E+03</pdfrwt>
<totfact> 0.15531853E+01</totfact>
</mgrwt>
</event>
<event>
 4    1  0.2293715E-008  0.3572013E+03  0.7818608E-02  0.1059698E+00
          1   -1    0    0  501    0  0.00000000000E+00  0.00000000000E+00  0.18359452431E+04  0.18359452431E+04  0.50400000000E-02 0. -1.
         -1   -1    0    0    0  501 -0.00000000000E+00 -0.00000000000E+00 -0.28730989320E+03  0.28730989324E+03  0.50400000000E-02 0.  1.
    8880022    1    1    2    0    0 -0.32257054317E+03 -0.12220974022E+02  0.16986723649E+04  0.17358227340E+04  0.15294330000E+03 0.  0.
    8880022    1    1    2    0    0  0.32257054317E+03  0.12220974022E+02 -0.15003701499E+03  0.38743240238E+03  0.15294330000E+03 0.  0.
<mgrwt>
<rscale>  0 0.35720129E+03</rscale>
<asrwt>0</asrwt>
<pdfrwt beam="1">  1        1 0.28245312E+00 0.35720129E+03</pdfrwt>
<pdfrwt beam="2">  1       -1 0.44201521E-01 0.35720129E+03</pdfrwt>
<totfact> 0.21895937E+01</totfact>
</mgrwt>
</event>
<event>
 4    1  0.2293715E-008  0.1907760E+03  0.7818608E-02  0.1157763E+00
         -1   -1    0    0    0  501 -0.00000000000E+00  0.00000000000E+00  0.77958193393E+03  0.77958193395E+03  0.50400000000E-02 0.  1.
          1   -1    0    0  501    0  0.00000000000E+00 -0.00000000000E+00 -0.51918884327E+03  0.51918884330E+03  0.50400000000E-02 0. -1.
    8880022    1    1    2    0    0 -0.52115412962E+01 -0.11391524133E+03 -0.48930456542E+03  0.52518040055E+03  0.15294330000E+03 0. -1.
    8880022    1    1    2    0    0  0.52115412962E+01  0.11391524133E+03  0.74969765608E+03  0.77359037670E+03  0.15294330000E+03 0.  0.
<mgrwt>
<rscale>  0 0.19077603E+03</rscale>
<asrwt>0</asrwt>
<pdfrwt beam="1">  1        1 0.79875206E-01 0.19077603E+03</pdfrwt>
<pdfrwt beam="2">  1       -1 0.11993568E+00 0.19077603E+03</pdfrwt>
<totfact> 0.29643156E+01</totfact>
</mgrwt>
</event>
<event>
 4    1  0.2293715E-008  0.3292123E+03  0.7818608E-02  0.1071486E+00
         -1   -1    0    0    0  501 -0.00000000000E+00  0.00000000000E+00  0.35143062139E+03  0.35143062142E+03  0.50400000000E-02 0.  1.
          1   -1    0    0  501    0  0.00000000000E+00 -0.00000000000E+00 -0.35870021596E+03  0.35870021599E+03  0.50400000000E-02 0. -1.
    8880022    1    1    2    0    0  0.10207087824E+03  0.27307626195E+03  0.12932884620E+03  0.35370427266E+03  0.15294330000E+03 0.  0.
    8880022    1    1    2    0    0 -0.10207087824E+03 -0.27307626195E+03 -0.13659844077E+03  0.35642656475E+03  0.15294330000E+03 0.  0.
<mgrwt>
<rscale>  0 0.32921234E+03</rscale>
<asrwt>0</asrwt>
<pdfrwt beam="1">  1        1 0.55184649E-01 0.32921234E+03</pdfrwt>
<pdfrwt beam="2">  1       -1 0.54066249E-01 0.32921234E+03</pdfrwt>
<totfact> 0.24814532E+02</totfact>
</mgrwt>
</event>
<event>
 4    1  0.2293715E-008  0.4769168E+03  0.7818608E-02  0.1019986E+00
         -1   -1    0    0    0  501 -0.00000000000E+00  0.00000000000E+00  0.12934114433E+03  0.12934114443E+03  0.50400000000E-02 0.  1.
          1   -1    0    0  501    0  0.00000000000E+00 -0.00000000000E+00 -0.22345381374E+04  0.22345381374E+04  0.50400000000E-02 0. -1.
    8880022    1    1    2    0    0  0.45101108578E+03 -0.25436275756E+02 -0.15981186623E+04  0.16677628475E+04  0.15294330000E+03 0.  0.
    8880022    1    1    2    0    0 -0.45101108578E+03  0.25436275756E+02 -0.50707833074E+03  0.69611643433E+03  0.15294330000E+03 0.  0.
<mgrwt>
<rscale>  0 0.47691682E+03</rscale>
<asrwt>0</asrwt>
<pdfrwt beam="1">  1        1 0.34377507E+00 0.47691682E+03</pdfrwt>
<pdfrwt beam="2">  1       -1 0.19898639E-01 0.47691682E+03</pdfrwt>
<totfact> 0.46078824E+01</totfact>
</mgrwt>
</event>
<event>
 4    1  0.2293715E-008  0.5627923E+03  0.7818608E-02  0.9985756E-01
         -1   -1    0    0    0  501 -0.00000000000E+00  0.00000000000E+00  0.73509695849E+03  0.73509695850E+03  0.50400000000E-02 0.  1.
          1   -1    0    0  501    0  0.00000000000E+00 -0.00000000000E+00 -0.47320063328E+03  0.47320063330E+03  0.50400000000E-02 0. -1.
    8880022    1    1    2    0    0 -0.39302907984E+03  0.37265488033E+03  0.31163275259E+03  0.64331185512E+03  0.15294330000E+03 0.  1.
    8880022    1    1    2    0    0  0.39302907984E+03 -0.37265488033E+03 -0.49736427375E+02  0.56498573669E+03  0.15294330000E+03 0.  0.
<mgrwt>
<rscale>  0 0.56279230E+03</rscale>
<asrwt>0</asrwt>
<pdfrwt beam="1">  1        1 0.72800097E-01 0.56279230E+03</pdfrwt>
<pdfrwt beam="2">  1       -1 0.11309184E+00 0.56279230E+03</pdfrwt>
<totfact> 0.35648182E+01</totfact>
</mgrwt>
</event>
<event>
 4    1  0.2293715E-008  0.6501654E+03  0.7818608E-02  0.9806469E-01
         -1   -1    0    0    0  501 -0.00000000000E+00  0.00000000000E+00  0.10070921584E+04  0.10070921584E+04  0.50400000000E-02 0.  1.
          1   -1    0    0  501    0  0.00000000000E+00 -0.00000000000E+00 -0.64885331808E+03  0.64885331810E+03  0.50400000000E-02 0. -1.
    8880022    1    1    2    0    0 -0.13925665606E+03  0.61638546388E+03  0.67112450359E+03  0.93441062102E+03  0.15294330000E+03 0.  0.
    8880022    1    1    2    0    0  0.13925665606E+03 -0.61638546388E+03 -0.31288566330E+03  0.72153485546E+03  0.15294330000E+03 0.  0.
<mgrwt>
<rscale>  0 0.65016545E+03</rscale>
<asrwt>0</asrwt>
<pdfrwt beam="1">  1        1 0.99823587E-01 0.65016545E+03</pdfrwt>
<pdfrwt beam="2">  1       -1 0.15493726E+00 0.65016545E+03</pdfrwt>
<totfact> 0.10194158E+01</totfact>
</mgrwt>
</event>
<event>
 4    1  0.2293715E-008  0.8933561E+03  0.7818608E-02  0.9433925E-01
          1   -1    0    0  501    0  0.00000000000E+00  0.00000000000E+00  0.29508106586E+04  0.29508106586E+04  0.50400000000E-02 0. -1.
         -1   -1    0    0    0  501 -0.00000000000E+00 -0.00000000000E+00 -0.43188345481E+03  0.43188345484E+03  0.50400000000E-02 0.  1.
    8880022    1    1    2    0    0 -0.45069930768E+03  0.75601828359E+03  0.22544416097E+03  0.92136324747E+03  0.15294330000E+03 0.  0.
    8880022    1    1    2    0    0  0.45069930768E+03 -0.75601828359E+03  0.22934830428E+04  0.24613308660E+04  0.15294330000E+03 0.  0.
<mgrwt>
<rscale>  0 0.89335612E+03</rscale>
<asrwt>0</asrwt>
<pdfrwt beam="1">  1        1 0.45397085E+00 0.89335612E+03</pdfrwt>
<pdfrwt beam="2">  1       -1 0.66443611E-01 0.89335612E+03</pdfrwt>
<totfact> 0.15577504E+00</totfact>
</mgrwt>
</event>
<event>
 4    1  0.2293715E-008  0.4780828E+03  0.7818608E-02  0.1019663E+00
          1   -1    0    0  501    0  0.00000000000E+00  0.00000000000E+00  0.39442670613E+03  0.39442670616E+03  0.50400000000E-02 0. -1.
         -1   -1    0    0    0  501 -0.00000000000E+00 -0.00000000000E+00 -0.19188278231E+04  0.19188278232E+04  0.50400000000E-02 0.  1.
    8880022    1    1    2    0    0 -0.17815662017E+03  0.41645135342E+03  0.20412127186E+03  0.51983522169E+03  0.15294330000E+03 0.  0.
    8880022    1    1    2    0    0  0.17815662017E+03 -0.41645135342E+03 -0.17285223889E+04  0.17934193076E+04  0.15294330000E+03 0.  0.
<mgrwt>
<rscale>  0 0.47808280E+03</rscale>
<asrwt>0</asrwt>
<pdfrwt beam="1">  1        1 0.60681033E-01 0.47808280E+03</pdfrwt>
<pdfrwt beam="2">  1       -1 0.29520428E+00 0.47808280E+03</pdfrwt>
<totfact> 0.24076914E+00</totfact>
</mgrwt>
</event>
<event>
 4    1  0.2293715E-008  0.1436002E+04  0.7818608E-02  0.8928163E-01
         -1   -1    0    0    0  501 -0.00000000000E+00  0.00000000000E+00  0.66485305454E+03  0.66485305456E+03  0.50400000000E-02 0.  1.
          1   -1    0    0  501    0  0.00000000000E+00 -0.00000000000E+00 -0.41073465052E+04  0.41073465052E+04  0.50400000000E-02 0. -1.
    8880022    1    1    2    0    0 -0.25341631126E+03  0.14051657125E+04 -0.29019864319E+04  0.32378430182E+04  0.15294330000E+03 0.  0.
    8880022    1    1    2    0    0  0.25341631126E+03 -0.14051657125E+04 -0.54050701870E+03  0.15343565415E+04  0.15294330000E+03 0.  0.
<mgrwt>
<rscale>  0 0.14360021E+04</rscale>
<asrwt>0</asrwt>
<pdfrwt beam="1">  1        1 0.63189945E+00 0.14360021E+04</pdfrwt>
<pdfrwt beam="2">  1       -1 0.10228509E+00 0.14360021E+04</pdfrwt>
<totfact> 0.68204367E-02</totfact>
</mgrwt>
</event>
<event>
 4    1  0.2293715E-008  0.2086233E+03  0.7818608E-02  0.1142661E+00
          1   -1    0    0  501    0  0.00000000000E+00  0.00000000000E+00  0.20119074373E+03  0.20119074380E+03  0.50400000000E-02 0. -1.
         -1   -1    0    0    0  501 -0.00000000000E+00 -0.00000000000E+00 -0.25932373785E+03  0.25932373790E+03  0.50400000000E-02 0.  1.
    8880022    1    1    2    0    0 -0.13255250731E+03  0.50615005621E+02  0.64688001671E+02  0.21842215218E+03  0.15294330000E+03 0.  0.
    8880022    1    1    2    0    0  0.13255250731E+03 -0.50615005621E+02 -0.12282099579E+03  0.24209232951E+03  0.15294330000E+03 0. -1.
<mgrwt>
<rscale>  0 0.20862334E+03</rscale>
<asrwt>0</asrwt>
<pdfrwt beam="1">  1        1 0.30952422E-01 0.20862334E+03</pdfrwt>
<pdfrwt beam="2">  1       -1 0.39895959E-01 0.20862334E+03</pdfrwt>
<totfact> 0.90191898E+02</totfact>
</mgrwt>
</event>
<event>
 4    1  0.2293715E-008  0.2445387E+03  0.7818608E-02  0.1116806E+00
         -1   -1    0    0    0  501 -0.00000000000E+00  0.00000000000E+00  0.10481938763E+04  0.10481938763E+04  0.50400000000E-02 0.  1.
          1   -1    0    0  501    0  0.00000000000E+00 -0.00000000000E+00 -0.14915757481E+03  0.14915757489E+03  0.50400000000E-02 0. -1.
    8880022    1    1    2    0    0 -0.12693188275E+03 -0.14246335879E+03 -0.20936030165E+02  0.24543325331E+03  0.15294330000E+03 0.  0.
    8880022    1    1    2    0    0  0.12693188275E+03  0.14246335879E+03  0.91997233167E+03  0.95191819791E+03  0.15294330000E+03 0.  1.
<mgrwt>
<rscale>  0 0.24453868E+03</rscale>
<asrwt>0</asrwt>
<pdfrwt beam="1">  1        1 0.22947319E-01 0.24453868E+03</pdfrwt>
<pdfrwt beam="2">  1       -1 0.16126060E+00 0.24453868E+03</pdfrwt>
<totfact> 0.67298716E+01</totfact>
</mgrwt>
</event>
<event>
 4    1  0.2293715E-008  0.5397998E+03  0.7818608E-02  0.1003883E+00
         -1   -1    0    0    0  501 -0.00000000000E+00  0.00000000000E+00  0.69613649043E+03  0.69613649045E+03  0.50400000000E-02 0.  1.
          1   -1    0    0  501    0  0.00000000000E+00 -0.00000000000E+00 -0.10442551671E+04  0.10442551671E+04  0.50400000000E-02 0. -1.
    8880022    1    1    2    0    0  0.46696971298E+03  0.22345359431E+03 -0.84764153748E+03  0.10049278834E+04  0.15294330000E+03 0.  0.
    8880022    1    1    2    0    0 -0.46696971298E+03 -0.22345359431E+03  0.49952286082E+03  0.73546377420E+03  0.15294330000E+03 0.  0.
<mgrwt>
<rscale>  0 0.53979985E+03</rscale>
<asrwt>0</asrwt>
<pdfrwt beam="1">  1        1 0.16065464E+00 0.53979985E+03</pdfrwt>
<pdfrwt beam="2">  1       -1 0.10709792E+00 0.53979985E+03</pdfrwt>
<totfact> 0.12131278E+01</totfact>
</mgrwt>
</event>
<event>
 4    1  0.2293715E-008  0.8623740E+03  0.7818608E-02  0.9473878E-01
         -1   -1    0    0    0  501 -0.00000000000E+00  0.00000000000E+00  0.12207672903E+04  0.12207672903E+04  0.50400000000E-02 0.  1.
          1   -1    0    0  501    0  0.00000000000E+00 -0.00000000000E+00 -0.11867367980E+04  0.11867367980E+04  0.50400000000E-02 0. -1.
    8880022    1    1    2    0    0 -0.63752581985E+03 -0.56023043975E+03 -0.82273554611E+03  0.11918820195E+04  0.15294330000E+03 0.  0.
    8880022    1    1    2    0    0  0.63752581985E+03  0.56023043975E+03  0.85676603836E+03  0.12156220688E+04  0.15294330000E+03 0.  0.
<mgrwt>
<rscale>  0 0.86237403E+03</rscale>
<asrwt>0</asrwt>
<pdfrwt beam="1">  1        1 0.18257489E+00 0.86237403E+03</pdfrwt>
<pdfrwt beam="2">  1       -1 0.18781035E+00 0.86237403E+03</pdfrwt>
<totfact> 0.20500133E+00</totfact>
</mgrwt>
</event>
<event>
 4    1  0.2293715E-008  0.4960866E+03  0.7818608E-02  0.1014805E+00
          1   -1    0    0  501    0  0.00000000000E+00  0.00000000000E+00  0.57413947836E+03  0.57413947838E+03  0.50400000000E-02 0. -1.
         -1   -1    0    0    0  501 -0.00000000000E+00 -0.00000000000E+00 -0.87017820490E+03  0.87017820492E+03  0.50400000000E-02 0.  1.
    8880022    1    1    2    0    0  0.14692171000E+03 -0.44846881560E+03 -0.66243054400E+03  0.82759660830E+03  0.15294330000E+03 0.  0.
    8880022    1    1    2    0    0 -0.14692171000E+03  0.44846881560E+03  0.36639181746E+03  0.61672107500E+03  0.15294330000E+03 0.  0.
<mgrwt>
<rscale>  0 0.49608661E+03</rscale>
<asrwt>0</asrwt>
<pdfrwt beam="1">  1        1 0.88329151E-01 0.49608661E+03</pdfrwt>
<pdfrwt beam="2">  1       -1 0.13387357E+00 0.49608661E+03</pdfrwt>
<totfact> 0.18265321E+01</totfact>
</mgrwt>
</event>
<event>
 4    1  0.2293715E-008  0.1638647E+03  0.7818608E-02  0.1184401E+00
         -1   -1    0    0    0  501 -0.00000000000E+00  0.00000000000E+00  0.54422580837E+03  0.54422580839E+03  0.50400000000E-02 0.  1.
          1   -1    0    0  501    0  0.00000000000E+00 -0.00000000000E+00 -0.48641917519E+03  0.48641917522E+03  0.50400000000E-02 0. -1.
    8880022    1    1    2    0    0 -0.28970359319E+02 -0.51192778539E+02 -0.45958506365E+03  0.48792424211E+03  0.15294330000E+03 0. -1.
    8880022    1    1    2    0    0  0.28970359319E+02  0.51192778539E+02  0.51739169682E+03  0.54272074150E+03  0.15294330000E+03 0.  0.
<mgrwt>
<rscale>  0 0.16386469E+03</rscale>
<asrwt>0</asrwt>
<pdfrwt beam="1">  1        1 0.74833719E-01 0.16386469E+03</pdfrwt>
<pdfrwt beam="2">  1       -1 0.83727048E-01 0.16386469E+03</pdfrwt>
<totfact> 0.72387624E+01</totfact>
</mgrwt>
</event>
<event>
 4    1  0.2293715E-008  0.7120701E+03  0.7818608E-02  0.9696811E-01
          1   -1    0    0  501    0  0.00000000000E+00  0.00000000000E+00  0.94308593716E+03  0.94308593717E+03  0.50400000000E-02 0. -1.
         -1   -1    0    0    0  501 -0.00000000000E+00 -0.00000000000E+00 -0.95873810900E+03  0.95873810901E+03  0.50400000000E-02 0.  1.
    8880022    1    1    2    0    0  0.50215306561E+03 -0.48113866806E+03 -0.63802887619E+03  0.95609864506E+03  0.15294330000E+03 0.  0.
    8880022    1    1    2    0    0 -0.50215306561E+03  0.48113866806E+03  0.62237670435E+03  0.94572540113E+03  0.15294330000E+03 0.  0.
<mgrwt>
<rscale>  0 0.71207006E+03</rscale>
<asrwt>0</asrwt>
<pdfrwt beam="1">  1        1 0.14509014E+00 0.71207006E+03</pdfrwt>
<pdfrwt beam="2">  1       -1 0.14749817E+00 0.71207006E+03</pdfrwt>
<totfact> 0.63776863E+00</totfact>
</mgrwt>
</event>
<event>
 4    1  0.2293715E-008  0.4760460E+03  0.7818608E-02  0.1020228E+00
         -1   -1    0    0    0  501 -0.00000000000E+00  0.00000000000E+00  0.20044496487E+03  0.20044496493E+03  0.50400000000E-02 0.  1.
          1   -1    0    0  501    0  0.00000000000E+00 -0.00000000000E+00 -0.16642286287E+04  0.16642286288E+04  0.50400000000E-02 0. -1.
    8880022    1    1    2    0    0  0.18530696065E+02  0.45042732572E+03 -0.20394217372E+03  0.51789209850E+03  0.15294330000E+03 0.  0.
    8880022    1    1    2    0    0 -0.18530696065E+02 -0.45042732572E+03 -0.12598414901E+04  0.13467814952E+04  0.15294330000E+03 0.  0.
<mgrwt>
<rscale>  0 0.47604602E+03</rscale>
<asrwt>0</asrwt>
<pdfrwt beam="1">  1        1 0.25603516E+00 0.47604602E+03</pdfrwt>
<pdfrwt beam="2">  1       -1 0.30837688E-01 0.47604602E+03</pdfrwt>
<totfact> 0.52425292E+01</totfact>
</mgrwt>
</event>
<event>
 4    1  0.2328434E-008  0.9851686E+03  0.7818608E-02  0.9324963E-01
          1   -1    0    0  501    0  0.00000000000E+00  0.00000000000E+00  0.14841044612E+04  0.14841044612E+04  0.50400000000E-02 0. -1.
         -1   -1    0    0    0  501 -0.00000000000E+00 -0.00000000000E+00 -0.14510478660E+04  0.14510478660E+04  0.50400000000E-02 0.  1.
    8880022    1    1    2    0    0 -0.41973185964E+03  0.87806074986E+03 -0.10711754800E+04  0.14553261066E+04  0.15294330000E+03 0.  0.
    8880022    1    1    2    0    0  0.41973185964E+03 -0.87806074986E+03  0.11042320752E+04  0.14798262206E+04  0.15294330000E+03 0.  0.
<mgrwt>
<rscale>  0 0.98516860E+03</rscale>
<asrwt>0</asrwt>
<pdfrwt beam="1">  1        1 0.22832376E+00 0.98516860E+03</pdfrwt>
<pdfrwt beam="2">  1       -1 0.22323813E+00 0.98516860E+03</pdfrwt>
<totfact> 0.71028677E-01</totfact>
</mgrwt>
</event>
<event>
 4    1  0.2293715E-008  0.5941533E+03  0.7818608E-02  0.9917611E-01
         -1   -1    0    0    0  501 -0.00000000000E+00  0.00000000000E+00  0.34313814354E+03  0.34313814358E+03  0.50400000000E-02 0.  1.
          1   -1    0    0  501    0  0.00000000000E+00 -0.00000000000E+00 -0.19040499178E+04  0.19040499179E+04  0.50400000000E-02 0. -1.
    8880022    1    1    2    0    0 -0.57341107373E+03 -0.28743731082E+02 -0.18661026658E+02  0.59444625366E+03  0.15294330000E+03 0.  0.
    8880022    1    1    2    0    0  0.57341107373E+03  0.28743731082E+02 -0.15422507476E+04  0.16527418078E+04  0.15294330000E+03 0.  0.
<mgrwt>
<rscale>  0 0.59415328E+03</rscale>
<asrwt>0</asrwt>
<pdfrwt beam="1">  1        1 0.29293075E+00 0.59415328E+03</pdfrwt>
<pdfrwt beam="2">  1       -1 0.52790485E-01 0.59415328E+03</pdfrwt>
<totfact> 0.13404350E+01</totfact>
</mgrwt>
</event>
<event>
 4    1  0.2293715E-008  0.6192048E+03  0.7818608E-02  0.9866344E-01
          1   -1    0    0  501    0  0.00000000000E+00  0.00000000000E+00  0.19413532940E+04  0.19413532940E+04  0.50400000000E-02 0. -1.
         -1   -1    0    0    0  501 -0.00000000000E+00 -0.00000000000E+00 -0.21857830165E+03  0.21857830170E+03  0.50400000000E-02 0.  1.
    8880022    1    1    2    0    0  0.12167463695E+03 -0.58755271536E+03  0.52600632514E+03  0.81246367162E+03  0.15294330000E+03 0.  0.
    8880022    1    1    2    0    0 -0.12167463695E+03  0.58755271536E+03  0.11967686672E+04  0.13474679241E+04  0.15294330000E+03 0.  0.
<mgrwt>
<rscale>  0 0.61920478E+03</rscale>
<asrwt>0</asrwt>
<pdfrwt beam="1">  1        1 0.29866974E+00 0.61920478E+03</pdfrwt>
<pdfrwt beam="2">  1       -1 0.33627431E-01 0.61920478E+03</pdfrwt>
<totfact> 0.28778344E+01</totfact>
</mgrwt>
</event>
<event>
 4    1  0.2293715E-008  0.5808550E+03  0.7818608E-02  0.9945942E-01
         -1   -1    0    0    0  501 -0.00000000000E+00  0.00000000000E+00  0.63610863583E+03  0.63610863585E+03  0.50400000000E-02 0.  1.
          1   -1    0    0  501    0  0.00000000000E+00 -0.00000000000E+00 -0.18431428125E+04  0.18431428126E+04  0.50400000000E-02 0. -1.
    8880022    1    1    2    0    0  0.53294204582E+03 -0.17312888272E+03 -0.16496835415E+04  0.17489563386E+04  0.15294330000E+03 0.  0.
    8880022    1    1    2    0    0 -0.53294204582E+03  0.17312888272E+03  0.44264936479E+03  0.73029510980E+03  0.15294330000E+03 0.  0.
<mgrwt>
<rscale>  0 0.58085496E+03</rscale>
<asrwt>0</asrwt>
<pdfrwt beam="1">  1        1 0.28356043E+00 0.58085496E+03</pdfrwt>
<pdfrwt beam="2">  1       -1 0.97862868E-01 0.58085496E+03</pdfrwt>
<totfact> 0.41370281E+00</totfact>
</mgrwt>
</event>
<event>
 4    1  0.2293715E-008  0.3773850E+03  0.7818608E-02  0.1051905E+00
         -1   -1    0    0    0  501 -0.00000000000E+00  0.00000000000E+00  0.23057831698E+03  0.23057831704E+03  0.50400000000E-02 0.  1.
          1   -1    0    0  501    0  0.00000000000E+00 -0.00000000000E+00 -0.76970359669E+03  0.76970359670E+03  0.50400000000E-02 0. -1.
    8880022    1    1    2    0    0  0.34359724750E+03  0.31124611585E+02 -0.47276756540E+02  0.38033479286E+03  0.15294330000E+03 0.  0.
    8880022    1    1    2    0    0 -0.34359724750E+03 -0.31124611585E+02 -0.49184852316E+03  0.61994712088E+03  0.15294330000E+03 0.  0.
<mgrwt>
<rscale>  0 0.37738503E+03</rscale>
<asrwt>0</asrwt>
<pdfrwt beam="1">  1        1 0.11841594E+00 0.37738503E+03</pdfrwt>
<pdfrwt beam="2">  1       -1 0.35473588E-01 0.37738503E+03</pdfrwt>
<totfact> 0.18612684E+02</totfact>
</mgrwt>
</event>
<event>
 4    1  0.2293715E-008  0.1259491E+04  0.7818608E-02  0.9062320E-01
         -1   -1    0    0    0  501 -0.00000000000E+00  0.00000000000E+00  0.14627308246E+04  0.14627308247E+04  0.50400000000E-02 0.  1.
          1   -1    0    0  501    0  0.00000000000E+00 -0.00000000000E+00 -0.12172411988E+04  0.12172411988E+04  0.50400000000E-02 0. -1.
    8880022    1    1    2    0    0 -0.40253522520E+03  0.11835929069E+04  0.56526136160E+03  0.13805212192E+04  0.15294330000E+03 0.  0.
    8880022    1    1    2    0    0  0.40253522520E+03 -0.11835929069E+04 -0.31977173576E+03  0.12994508043E+04  0.15294330000E+03 0.  0.
<mgrwt>
<rscale>  0 0.12594913E+04</rscale>
<asrwt>0</asrwt>
<pdfrwt beam="1">  1        1 0.18726788E+00 0.12594913E+04</pdfrwt>
<pdfrwt beam="2">  1       -1 0.22503551E+00 0.12594913E+04</pdfrwt>
<totfact> 0.10291318E+00</totfact>
</mgrwt>
</event>
<event>
 4    1  0.2293715E-008  0.3010297E+03  0.7818608E-02  0.1084727E+00
          1   -1    0    0  501    0  0.00000000000E+00  0.00000000000E+00  0.23980088338E+03  0.23980088344E+03  0.50400000000E-02 0. -1.
         -1   -1    0    0    0  501 -0.00000000000E+00 -0.00000000000E+00 -0.45861104281E+03  0.45861104284E+03  0.50400000000E-02 0.  1.
    8880022    1    1    2    0    0  0.67575591366E+02 -0.25032128411E+03  0.37098128934E+02  0.30330698972E+03  0.15294330000E+03 0.  0.
    8880022    1    1    2    0    0 -0.67575591366E+02  0.25032128411E+03 -0.25590828836E+03  0.39510493656E+03  0.15294330000E+03 0.  0.
<mgrwt>
<rscale>  0 0.30102966E+03</rscale>
<asrwt>0</asrwt>
<pdfrwt beam="1">  1        1 0.36892444E-01 0.30102966E+03</pdfrwt>
<pdfrwt beam="2">  1       -1 0.70555545E-01 0.30102966E+03</pdfrwt>
<totfact> 0.24677747E+02</totfact>
</mgrwt>
</event>
<event>
 4    1  0.2293715E-008  0.3050219E+03  0.7818608E-02  0.1082757E+00
         -1   -1    0    0    0  501 -0.00000000000E+00  0.00000000000E+00  0.43675573415E+03  0.43675573418E+03  0.50400000000E-02 0.  1.
          1   -1    0    0  501    0  0.00000000000E+00 -0.00000000000E+00 -0.68959449661E+03  0.68959449663E+03  0.50400000000E-02 0. -1.
    8880022    1    1    2    0    0 -0.15787711888E+02  0.26343396601E+03  0.34175891963E+03  0.45808025329E+03  0.15294330000E+03 0.  1.
    8880022    1    1    2    0    0  0.15787711888E+02 -0.26343396601E+03 -0.59459768208E+03  0.66826997752E+03  0.15294330000E+03 0.  0.
<mgrwt>
<rscale>  0 0.30502190E+03</rscale>
<asrwt>0</asrwt>
<pdfrwt beam="1">  1        1 0.10609146E+00 0.30502190E+03</pdfrwt>
<pdfrwt beam="2">  1       -1 0.67193190E-01 0.30502190E+03</pdfrwt>
<totfact> 0.67537437E+01</totfact>
</mgrwt>
</event>
<event>
 4    1  0.2293715E-008  0.1074926E+04  0.7818608E-02  0.9229981E-01
         -1   -1    0    0    0  501 -0.00000000000E+00  0.00000000000E+00  0.12767475575E+04  0.12767475575E+04  0.50400000000E-02 0.  1.
          1   -1    0    0  501    0  0.00000000000E+00 -0.00000000000E+00 -0.10057350858E+04  0.10057350858E+04  0.50400000000E-02 0. -1.
    8880022    1    1    2    0    0 -0.89216240520E+03  0.57975920842E+03  0.49667471564E+03  0.11841249610E+04  0.15294330000E+03 0.  0.
    8880022    1    1    2    0    0  0.89216240520E+03 -0.57975920842E+03 -0.22566224397E+03  0.10983576823E+04  0.15294330000E+03 0.  0.
<mgrwt>
<rscale>  0 0.10749261E+04</rscale>
<asrwt>0</asrwt>
<pdfrwt beam="1">  1        1 0.15472848E+00 0.10749261E+04</pdfrwt>
<pdfrwt beam="2">  1       -1 0.19642270E+00 0.10749261E+04</pdfrwt>
<totfact> 0.23739706E+00</totfact>
</mgrwt>
</event>
<event>
 4    1  0.2293715E-008  0.2900346E+03  0.7818608E-02  0.1090331E+00
         -1   -1    0    0    0  501 -0.00000000000E+00  0.00000000000E+00  0.29852851937E+03  0.29852851942E+03  0.50400000000E-02 0.  1.
          1   -1    0    0  501    0  0.00000000000E+00 -0.00000000000E+00 -0.91267981716E+03  0.91267981717E+03  0.50400000000E-02 0. -1.
    8880022    1    1    2    0    0 -0.45645578837E+01  0.24638913299E+03 -0.81058668625E+03  0.86091281149E+03  0.15294330000E+03 0.  0.
    8880022    1    1    2    0    0  0.45645578837E+01 -0.24638913299E+03  0.19643538847E+03  0.35029552510E+03  0.15294330000E+03 0.  0.
<mgrwt>
<rscale>  0 0.29003464E+03</rscale>
<asrwt>0</asrwt>
<pdfrwt beam="1">  1        1 0.14041228E+00 0.29003464E+03</pdfrwt>
<pdfrwt beam="2">  1       -1 0.45927465E-01 0.29003464E+03</pdfrwt>
<totfact> 0.90568370E+01</totfact>
</mgrwt>
</event>
<event>
 4    1  0.2293715E-008  0.1155660E+04  0.7818608E-02  0.9152578E-01
          1   -1    0    0  501    0  0.00000000000E+00  0.00000000000E+00  0.10620123687E+04  0.10620123688E+04  0.50400000000E-02 0. -1.
         -1   -1    0    0    0  501 -0.00000000000E+00 -0.00000000000E+00 -0.20769446249E+04  0.20769446249E+04  0.50400000000E-02 0.  1.
    8880022    1    1    2    0    0  0.80967358111E+03  0.81030063326E+03  0.47832605103E+03  0.12507381374E+04  0.15294330000E+03 0.  0.
    8880022    1    1    2    0    0 -0.80967358111E+03 -0.81030063326E+03 -0.14932583072E+04  0.18882188563E+04  0.15294330000E+03 0.  0.
<mgrwt>
<rscale>  0 0.11556600E+04</rscale>
<asrwt>0</asrwt>
<pdfrwt beam="1">  1        1 0.16338652E+00 0.11556600E+04</pdfrwt>
<pdfrwt beam="2">  1       -1 0.31952994E+00 0.11556600E+04</pdfrwt>
<totfact> 0.33151046E-01</totfact>
</mgrwt>
</event>
<event>
 4    1  0.2293715E-008  0.5280143E+03  0.7818608E-02  0.1006715E+00
          1   -1    0    0  501    0  0.00000000000E+00  0.00000000000E+00  0.12429619399E+04  0.12429619399E+04  0.50400000000E-02 0. -1.
         -1   -1    0    0    0  501 -0.00000000000E+00 -0.00000000000E+00 -0.70687011734E+03  0.70687011736E+03  0.50400000000E-02 0.  1.
    8880022    1    1    2    0    0 -0.14957481596E+03 -0.48273679967E+03 -0.53747463539E+03  0.75344414526E+03  0.15294330000E+03 0.  1.
    8880022    1    1    2    0    0  0.14957481596E+03  0.48273679967E+03  0.10735664579E+04  0.11963879120E+04  0.15294330000E+03 0.  0.
<mgrwt>
<rscale>  0 0.52801430E+03</rscale>
<asrwt>0</asrwt>
<pdfrwt beam="1">  1        1 0.19122491E+00 0.52801430E+03</pdfrwt>
<pdfrwt beam="2">  1       -1 0.10874925E+00 0.52801430E+03</pdfrwt>
<totfact> 0.84051707E+00</totfact>
</mgrwt>
</event>
<event>
 4    1  0.2293715E-008  0.4966433E+03  0.7818608E-02  0.1014659E+00
          1   -1    0    0  501    0  0.00000000000E+00  0.00000000000E+00  0.10380242342E+04  0.10380242342E+04  0.50400000000E-02 0. -1.
         -1   -1    0    0    0  501 -0.00000000000E+00 -0.00000000000E+00 -0.54212656208E+03  0.54212656210E+03  0.50400000000E-02 0.  1.
    8880022    1    1    2    0    0 -0.42652182824E+03 -0.20332753316E+03 -0.34418109048E+03  0.60424765764E+03  0.15294330000E+03 0.  1.
    8880022    1    1    2    0    0  0.42652182824E+03  0.20332753316E+03  0.84007876263E+03  0.97590313871E+03  0.15294330000E+03 0.  0.
<mgrwt>
<rscale>  0 0.49664334E+03</rscale>
<asrwt>0</asrwt>
<pdfrwt beam="1">  1        1 0.15969604E+00 0.49664334E+03</pdfrwt>
<pdfrwt beam="2">  1       -1 0.83404087E-01 0.49664334E+03</pdfrwt>
<totfact> 0.21551306E+01</totfact>
</mgrwt>
</event>
<event>
 4    1  0.2293715E-008  0.9031480E+03  0.7818608E-02  0.9421655E-01
          1   -1    0    0  501    0  0.00000000000E+00  0.00000000000E+00  0.14444149195E+04  0.14444149195E+04  0.50400000000E-02 0. -1.
         -1   -1    0    0    0  501 -0.00000000000E+00 -0.00000000000E+00 -0.93682658001E+03  0.93682658002E+03  0.50400000000E-02 0.  1.
    8880022    1    1    2    0    0  0.88709631158E+03 -0.73107711161E+02 -0.49658897387E+03  0.10306681646E+04  0.15294330000E+03 0.  0.
    8880022    1    1    2    0    0 -0.88709631158E+03  0.73107711161E+02  0.10041773134E+04  0.13505733350E+04  0.15294330000E+03 0.  0.
<mgrwt>
<rscale>  0 0.90314797E+03</rscale>
<asrwt>0</asrwt>
<pdfrwt beam="1">  1        1 0.22221768E+00 0.90314797E+03</pdfrwt>
<pdfrwt beam="2">  1       -1 0.14412717E+00 0.90314797E+03</pdfrwt>
<totfact> 0.28283118E+00</totfact>
</mgrwt>
</event>
<event>
 4    1  0.2293715E-008  0.2249272E+03  0.7818608E-02  0.1130262E+00
         -1   -1    0    0    0  501 -0.00000000000E+00  0.00000000000E+00  0.59164843606E+02  0.59164843820E+02  0.50400000000E-02 0.  1.
          1   -1    0    0  501    0  0.00000000000E+00 -0.00000000000E+00 -0.26792752691E+04  0.26792752691E+04  0.50400000000E-02 0. -1.
    8880022    1    1    2    0    0 -0.15427399987E+03 -0.58310592418E+02 -0.18026687660E+03  0.28825057162E+03  0.15294330000E+03 0.  1.
    8880022    1    1    2    0    0  0.15427399987E+03  0.58310592418E+02 -0.24398435489E+04  0.24501895413E+04  0.15294330000E+03 0.  0.
<mgrwt>
<rscale>  0 0.22492720E+03</rscale>
<asrwt>0</asrwt>
<pdfrwt beam="1">  1        1 0.41219610E+00 0.22492720E+03</pdfrwt>
<pdfrwt beam="2">  1       -1 0.91022857E-02 0.22492720E+03</pdfrwt>
<totfact> 0.86345800E+01</totfact>
</mgrwt>
</event>
<event>
 4    1  0.2293715E-008  0.3834975E+03  0.7818608E-02  0.1049649E+00
          1   -1    0    0  501    0  0.00000000000E+00  0.00000000000E+00  0.12358968373E+04  0.12358968373E+04  0.50400000000E-02 0. -1.
         -1   -1    0    0    0  501 -0.00000000000E+00 -0.00000000000E+00 -0.35889068632E+03  0.35889068636E+03  0.50400000000E-02 0.  1.
    8880022    1    1    2    0    0  0.16334357853E+03  0.31144430607E+03 -0.21342465023E+03  0.43888542328E+03  0.15294330000E+03 0.  0.
    8880022    1    1    2    0    0 -0.16334357853E+03 -0.31144430607E+03  0.10904308012E+04  0.11559021003E+04  0.15294330000E+03 0.  0.
<mgrwt>
<rscale>  0 0.38349750E+03</rscale>
<asrwt>0</asrwt>
<pdfrwt beam="1">  1        1 0.19013798E+00 0.38349750E+03</pdfrwt>
<pdfrwt beam="2">  1       -1 0.55213952E-01 0.38349750E+03</pdfrwt>
<totfact> 0.36335874E+01</totfact>
</mgrwt>
</event>
<event>
 4    1  0.2293715E-008  0.5958200E+03  0.7818608E-02  0.9914116E-01
          1   -1    0    0  501    0  0.00000000000E+00  0.00000000000E+00  0.61262996907E+03  0.61262996909E+03  0.50400000000E-02 0. -1.
         -1   -1    0    0    0  501 -0.00000000000E+00 -0.00000000000E+00 -0.67366492586E+03  0.67366492588E+03  0.50400000000E-02 0.  1.
    8880022    1    1    2    0    0  0.36733752377E+03 -0.44347828920E+03  0.20997376773E+03  0.63173608850E+03  0.15294330000E+03 0.  0.
    8880022    1    1    2    0    0 -0.36733752377E+03  0.44347828920E+03 -0.27100872452E+03  0.65455880648E+03  0.15294330000E+03 0.  0.
<mgrwt>
<rscale>  0 0.59582003E+03</rscale>
<asrwt>0</asrwt>
<pdfrwt beam="1">  1        1 0.94250765E-01 0.59582003E+03</pdfrwt>
<pdfrwt beam="2">  1       -1 0.10364076E+00 0.59582003E+03</pdfrwt>
<totfact> 0.30394331E+01</totfact>
</mgrwt>
</event>
<event>
 4    1  0.2293715E-008  0.2892259E+03  0.7818608E-02  0.1090754E+00
         -1   -1    0    0    0  501 -0.00000000000E+00  0.00000000000E+00  0.89727699539E+02  0.89727699680E+02  0.50400000000E-02 0.  1.
          1   -1    0    0  501    0  0.00000000000E+00 -0.00000000000E+00 -0.13809317141E+04  0.13809317141E+04  0.50400000000E-02 0. -1.
    8880022    1    1    2    0    0  0.17712060621E+03 -0.16996553597E+03 -0.10647322762E+04  0.11033161222E+04  0.15294330000E+03 0. -1.
    8880022    1    1    2    0    0 -0.17712060621E+03  0.16996553597E+03 -0.22647173835E+03  0.36734329155E+03  0.15294330000E+03 0.  0.
<mgrwt>
<rscale>  0 0.28922594E+03</rscale>
<asrwt>0</asrwt>
<pdfrwt beam="1">  1        1 0.21245102E+00 0.28922594E+03</pdfrwt>
<pdfrwt beam="2">  1       -1 0.13804262E-01 0.28922594E+03</pdfrwt>
<totfact> 0.31617328E+02</totfact>
</mgrwt>
</event>
<event>
 4    1  0.2293715E-008  0.4398608E+03  0.7818608E-02  0.1030790E+00
          1   -1    0    0  501    0  0.00000000000E+00  0.00000000000E+00  0.15489733183E+04  0.15489733183E+04  0.50400000000E-02 0. -1.
         -1   -1    0    0    0  501 -0.00000000000E+00 -0.00000000000E+00 -0.36563401579E+03  0.36563401583E+03  0.50400000000E-02 0.  1.
    8880022    1    1    2    0    0 -0.39568684013E+03  0.11626622784E+03  0.13684332572E+04  0.14373890022E+04  0.15294330000E+03 0.  0.
    8880022    1    1    2    0    0  0.39568684013E+03 -0.11626622784E+03 -0.18509395475E+03  0.47721833188E+03  0.15294330000E+03 0.  0.
<mgrwt>
<rscale>  0 0.43986085E+03</rscale>
<asrwt>0</asrwt>
<pdfrwt beam="1">  1        1 0.23830358E+00 0.43986085E+03</pdfrwt>
<pdfrwt beam="2">  1       -1 0.56251388E-01 0.43986085E+03</pdfrwt>
<totfact> 0.21136654E+01</totfact>
</mgrwt>
</event>
<event>
 4    1  0.2293715E-008  0.2120407E+03  0.7818608E-02  0.1139960E+00
         -1   -1    0    0    0  501 -0.00000000000E+00  0.00000000000E+00  0.14004139145E+03  0.14004139154E+03  0.50400000000E-02 0.  1.
          1   -1    0    0  501    0  0.00000000000E+00 -0.00000000000E+00 -0.39649170309E+03  0.39649170313E+03  0.50400000000E-02 0. -1.
    8880022    1    1    2    0    0  0.69947726741E+01  0.14669933002E+03 -0.24523838733E+03  0.32419614419E+03  0.15294330000E+03 0.  0.
    8880022    1    1    2    0    0 -0.69947726741E+01 -0.14669933002E+03 -0.11211924317E+02  0.21233695047E+03  0.15294330000E+03 0.  0.
<mgrwt>
<rscale>  0 0.21204073E+03</rscale>
<asrwt>0</asrwt>
<pdfrwt beam="1">  1        1 0.60998723E-01 0.21204073E+03</pdfrwt>
<pdfrwt beam="2">  1       -1 0.21544830E-01 0.21204073E+03</pdfrwt>
<totfact> 0.10921955E+03</totfact>
</mgrwt>
</event>
<event>
 4    1  0.2293715E-008  0.2199403E+03  0.7818608E-02  0.1133928E+00
         -1   -1    0    0    0  501 -0.00000000000E+00  0.00000000000E+00  0.24660126823E+03  0.24660126828E+03  0.50400000000E-02 0.  1.
          1   -1    0    0  501    0  0.00000000000E+00 -0.00000000000E+00 -0.42089591260E+03  0.42089591263E+03  0.50400000000E-02 0. -1.
    8880022    1    1    2    0    0 -0.13652353625E+03 -0.79645575407E+02  0.15672729107E+03  0.27006886235E+03  0.15294330000E+03 0.  0.
    8880022    1    1    2    0    0  0.13652353625E+03  0.79645575407E+02 -0.33102193544E+03  0.39742831855E+03  0.15294330000E+03 0.  0.
<mgrwt>
<rscale>  0 0.21994033E+03</rscale>
<asrwt>0</asrwt>
<pdfrwt beam="1">  1        1 0.64753217E-01 0.21994033E+03</pdfrwt>
<pdfrwt beam="2">  1       -1 0.37938657E-01 0.21994033E+03</pdfrwt>
<totfact> 0.38854915E+02</totfact>
</mgrwt>
</event>
<event>
 4    1  0.2293715E-008  0.1581358E+03  0.7818608E-02  0.1190818E+00
          1   -1    0    0  501    0  0.00000000000E+00  0.00000000000E+00  0.29396579981E+04  0.29396579981E+04  0.50400000000E-02 0. -1.
         -1   -1    0    0    0  501 -0.00000000000E+00 -0.00000000000E+00 -0.66256264544E+02  0.66256264736E+02  0.50400000000E-02 0.  1.
    8880022    1    1    2    0    0 -0.38245142367E+02  0.12352495603E+02  0.28398611989E+04  0.28442606345E+04  0.15294330000E+03 0.  0.
    8880022    1    1    2    0    0  0.38245142367E+02 -0.12352495603E+02  0.33540534632E+02  0.16165362829E+03  0.15294330000E+03 0.  1.
<mgrwt>
<rscale>  0 0.15813579E+03</rscale>
<asrwt>0</asrwt>
<pdfrwt beam="1">  1        1 0.45225516E+00 0.15813579E+03</pdfrwt>
<pdfrwt beam="2">  1       -1 0.10193270E-01 0.15813579E+03</pdfrwt>
<totfact> 0.49950526E+01</totfact>
</mgrwt>
</event>
<event>
 4    1  0.2293715E-008  0.5477248E+03  0.7818608E-02  0.1002022E+00
         -1   -1    0    0    0  501 -0.00000000000E+00  0.00000000000E+00  0.12722383487E+04  0.12722383487E+04  0.50400000000E-02 0.  1.
          1   -1    0    0  501    0  0.00000000000E+00 -0.00000000000E+00 -0.43769673407E+03  0.43769673410E+03  0.50400000000E-02 0. -1.
    8880022    1    1    2    0    0  0.44459159324E+03 -0.28097893681E+03 -0.16338699711E+03  0.57157485210E+03  0.15294330000E+03 0.  0.
    8880022    1    1    2    0    0 -0.44459159324E+03  0.28097893681E+03  0.99792861171E+03  0.11383602307E+04  0.15294330000E+03 0.  1.
<mgrwt>
<rscale>  0 0.54772484E+03</rscale>
<asrwt>0</asrwt>
<pdfrwt beam="1">  1        1 0.67337958E-01 0.54772484E+03</pdfrwt>
<pdfrwt beam="2">  1       -1 0.19572898E+00 0.54772484E+03</pdfrwt>
<totfact> 0.91096455E+00</totfact>
</mgrwt>
</event>
<event>
 4    1  0.2293715E-008  0.1698081E+03  0.7818608E-02  0.1178048E+00
          1   -1    0    0  501    0  0.00000000000E+00  0.00000000000E+00  0.28410209688E+04  0.28410209688E+04  0.50400000000E-02 0. -1.
         -1   -1    0    0    0  501 -0.00000000000E+00 -0.00000000000E+00 -0.59076450691E+02  0.59076450906E+02  0.50400000000E-02 0.  1.
    8880022    1    1    2    0    0  0.60278501791E+02  0.42539666195E+02  0.27105948194E+04  0.27159085126E+04  0.15294330000E+03 0. -1.
    8880022    1    1    2    0    0 -0.60278501791E+02 -0.42539666195E+02  0.71349698734E+02  0.18418890711E+03  0.15294330000E+03 0.  0.
<mgrwt>
<rscale>  0 0.16980805E+03</rscale>
<asrwt>0</asrwt>
<pdfrwt beam="1">  1        1 0.43708029E+00 0.16980805E+03</pdfrwt>
<pdfrwt beam="2">  1       -1 0.90886818E-02 0.16980805E+03</pdfrwt>
<totfact> 0.69026659E+01</totfact>
</mgrwt>
</event>
<event>
 4    1  0.2293715E-008  0.8677006E+03  0.7818608E-02  0.9466883E-01
         -1   -1    0    0    0  501 -0.00000000000E+00  0.00000000000E+00  0.13327623557E+04  0.13327623557E+04  0.50400000000E-02 0.  1.
          1   -1    0    0  501    0  0.00000000000E+00 -0.00000000000E+00 -0.58006271773E+03  0.58006271775E+03  0.50400000000E-02 0. -1.
    8880022    1    1    2    0    0 -0.22295651838E+03  0.82450170154E+03  0.53087791725E+03  0.10172195835E+04  0.15294330000E+03 0.  1.
    8880022    1    1    2    0    0  0.22295651838E+03 -0.82450170154E+03  0.22182172072E+03  0.89560549000E+03  0.15294330000E+03 0. -1.
<mgrwt>
<rscale>  0 0.86770059E+03</rscale>
<asrwt>0</asrwt>
<pdfrwt beam="1">  1        1 0.89240419E-01 0.86770059E+03</pdfrwt>
<pdfrwt beam="2">  1       -1 0.20504036E+00 0.86770059E+03</pdfrwt>
<totfact> 0.50966890E+00</totfact>
</mgrwt>
</event>
<event>
 4    1  0.2293715E-008  0.4801049E+03  0.7818608E-02  0.1019106E+00
         -1   -1    0    0    0  501 -0.00000000000E+00  0.00000000000E+00  0.10868543623E+04  0.10868543623E+04  0.50400000000E-02 0.  1.
          1   -1    0    0  501    0  0.00000000000E+00 -0.00000000000E+00 -0.30850483465E+03  0.30850483469E+03  0.50400000000E-02 0. -1.
    8880022    1    1    2    0    0  0.87899495112E+02 -0.44652298856E+03 -0.87325649633E+00  0.48010573434E+03  0.15294330000E+03 0.  0.
    8880022    1    1    2    0    0 -0.87899495112E+02  0.44652298856E+03  0.77922278417E+03  0.91525346267E+03  0.15294330000E+03 0.  0.
<mgrwt>
<rscale>  0 0.48010494E+03</rscale>
<asrwt>0</asrwt>
<pdfrwt beam="1">  1        1 0.47462283E-01 0.48010494E+03</pdfrwt>
<pdfrwt beam="2">  1       -1 0.16720836E+00 0.48010494E+03</pdfrwt>
<totfact> 0.23109822E+01</totfact>
</mgrwt>
</event>
<event>
 4    1  0.2293715E-008  0.2491637E+03  0.7818608E-02  0.1113834E+00
          1   -1    0    0  501    0  0.00000000000E+00  0.00000000000E+00  0.21073548725E+04  0.21073548725E+04  0.50400000000E-02 0. -1.
         -1   -1    0    0    0  501 -0.00000000000E+00 -0.00000000000E+00 -0.16664554175E+03  0.16664554182E+03  0.50400000000E-02 0.  1.
    8880022    1    1    2    0    0  0.10618829912E+03  0.16557460589E+03 -0.61261058261E+02  0.25658424593E+03  0.15294330000E+03 0.  1.
    8880022    1    1    2    0    0 -0.10618829912E+03 -0.16557460589E+03  0.20019703890E+04  0.20174161684E+04  0.15294330000E+03 0.  0.
<mgrwt>
<rscale>  0 0.24916372E+03</rscale>
<asrwt>0</asrwt>
<pdfrwt beam="1">  1        1 0.32420843E+00 0.24916372E+03</pdfrwt>
<pdfrwt beam="2">  1       -1 0.25637777E-01 0.24916372E+03</pdfrwt>
<totfact> 0.39044178E+01</totfact>
</mgrwt>
</event>
<event>
 4    1  0.2293715E-008  0.3159270E+03  0.7818608E-02  0.1077539E+00
         -1   -1    0    0    0  501 -0.00000000000E+00  0.00000000000E+00  0.68842316183E+02  0.68842316367E+02  0.50400000000E-02 0.  1.
          1   -1    0    0  501    0  0.00000000000E+00 -0.00000000000E+00 -0.16817027174E+04  0.16817027174E+04  0.50400000000E-02 0. -1.
    8880022    1    1    2    0    0 -0.26745771442E+03 -0.69889747418E+02 -0.48142468002E+03  0.57582947246E+03  0.15294330000E+03 0.  0.
    8880022    1    1    2    0    0  0.26745771442E+03  0.69889747418E+02 -0.11314357212E+04  0.11747155614E+04  0.15294330000E+03 0.  0.
<mgrwt>
<rscale>  0 0.31592698E+03</rscale>
<asrwt>0</asrwt>
<pdfrwt beam="1">  1        1 0.25872346E+00 0.31592698E+03</pdfrwt>
<pdfrwt beam="2">  1       -1 0.10591127E-01 0.31592698E+03</pdfrwt>
<totfact> 0.30145891E+02</totfact>
</mgrwt>
</event>
<event>
 4    1  0.2293715E-008  0.5291054E+03  0.7818608E-02  0.1006449E+00
         -1   -1    0    0    0  501 -0.00000000000E+00  0.00000000000E+00  0.13830727193E+04  0.13830727193E+04  0.50400000000E-02 0.  1.
          1   -1    0    0  501    0  0.00000000000E+00 -0.00000000000E+00 -0.24681434596E+03  0.24681434601E+03  0.50400000000E-02 0. -1.
    8880022    1    1    2    0    0  0.28653114703E+03 -0.41768507063E+03  0.91378034182E+03  0.10559105467E+04  0.15294330000E+03 0.  0.
    8880022    1    1    2    0    0 -0.28653114703E+03  0.41768507063E+03  0.22247803153E+03  0.57397651866E+03  0.15294330000E+03 0.  0.
<mgrwt>
<rscale>  0 0.52910544E+03</rscale>
<asrwt>0</asrwt>
<pdfrwt beam="1">  1        1 0.37971438E-01 0.52910544E+03</pdfrwt>
<pdfrwt beam="2">  1       -1 0.21278041E+00 0.52910544E+03</pdfrwt>
<totfact> 0.14745810E+01</totfact>
</mgrwt>
</event>
<event>
 4    1  0.2293715E-008  0.1249697E+04  0.7818608E-02  0.9070435E-01
          1   -1    0    0  501    0  0.00000000000E+00  0.00000000000E+00  0.17204642864E+04  0.17204642865E+04  0.50400000000E-02 0. -1.
         -1   -1    0    0    0  501 -0.00000000000E+00 -0.00000000000E+00 -0.11076185025E+04  0.11076185025E+04  0.50400000000E-02 0.  1.
    8880022    1    1    2    0    0  0.11839797330E+04  0.36951750211E+03  0.90710492068E+03  0.15442092419E+04  0.15294330000E+03 0.  0.
    8880022    1    1    2    0    0 -0.11839797330E+04 -0.36951750211E+03 -0.29425913677E+03  0.12838735471E+04  0.15294330000E+03 0.  0.
<mgrwt>
<rscale>  0 0.12496971E+04</rscale>
<asrwt>0</asrwt>
<pdfrwt beam="1">  1        1 0.26468681E+00 0.12496971E+04</pdfrwt>
<pdfrwt beam="2">  1       -1 0.17040285E+00 0.12496971E+04</pdfrwt>
<totfact> 0.10994642E+00</totfact>
</mgrwt>
</event>
<event>
 4    1  0.2293715E-008  0.4253692E+03  0.7818608E-02  0.1035333E+00
          1   -1    0    0  501    0  0.00000000000E+00  0.00000000000E+00  0.74584598495E+03  0.74584598496E+03  0.50400000000E-02 0. -1.
         -1   -1    0    0    0  501 -0.00000000000E+00 -0.00000000000E+00 -0.10733308144E+04  0.10733308145E+04  0.50400000000E-02 0.  1.
    8880022    1    1    2    0    0 -0.33442138862E+03  0.21379814424E+03 -0.96396244994E+03  0.10536425246E+04  0.15294330000E+03 0.  0.
    8880022    1    1    2    0    0  0.33442138862E+03 -0.21379814424E+03  0.63647762044E+03  0.76553427486E+03  0.15294330000E+03 0.  0.
<mgrwt>
<rscale>  0 0.42536921E+03</rscale>
<asrwt>0</asrwt>
<pdfrwt beam="1">  1        1 0.11474554E+00 0.42536921E+03</pdfrwt>
<pdfrwt beam="2">  1       -1 0.16512782E+00 0.42536921E+03</pdfrwt>
<totfact> 0.72556887E+00</totfact>
</mgrwt>
</event>
<event>
 4    1  0.2293715E-008  0.1250617E+04  0.7818608E-02  0.9069670E-01
          1   -1    0    0  501    0  0.00000000000E+00  0.00000000000E+00  0.20766455120E+04  0.20766455120E+04  0.50400000000E-02 0. -1.
         -1   -1    0    0    0  501 -0.00000000000E+00 -0.00000000000E+00 -0.15896843558E+04  0.15896843558E+04  0.50400000000E-02 0.  1.
    8880022    1    1    2    0    0  0.14795436286E+03  0.12323798924E+04  0.15732792185E+04  0.20097885075E+04  0.15294330000E+03 0.  0.
    8880022    1    1    2    0    0 -0.14795436286E+03 -0.12323798924E+04 -0.10863180623E+04  0.16565413602E+04  0.15294330000E+03 0.  0.
<mgrwt>
<rscale>  0 0.12506168E+04</rscale>
<asrwt>0</asrwt>
<pdfrwt beam="1">  1        1 0.31948392E+00 0.12506168E+04</pdfrwt>
<pdfrwt beam="2">  1       -1 0.24456683E+00 0.12506168E+04</pdfrwt>
<totfact> 0.19511863E-01</totfact>
</mgrwt>
</event>
<event>
 4    1  0.2293715E-008  0.9219034E+03  0.7818608E-02  0.9398608E-01
          1   -1    0    0  501    0  0.00000000000E+00  0.00000000000E+00  0.83663818784E+03  0.83663818786E+03  0.50400000000E-02 0. -1.
         -1   -1    0    0    0  501 -0.00000000000E+00 -0.00000000000E+00 -0.13675618891E+04  0.13675618891E+04  0.50400000000E-02 0.  1.
    8880022    1    1    2    0    0  0.48095483626E+03  0.77148996246E+03  0.29344036666E+03  0.96747776124E+03  0.15294330000E+03 0.  0.
    8880022    1    1    2    0    0 -0.48095483626E+03 -0.77148996246E+03 -0.82436406789E+03  0.12367223157E+04  0.15294330000E+03 0.  0.
<mgrwt>
<rscale>  0 0.92190345E+03</rscale>
<asrwt>0</asrwt>
<pdfrwt beam="1">  1        1 0.12871357E+00 0.92190345E+03</pdfrwt>
<pdfrwt beam="2">  1       -1 0.21039414E+00 0.92190345E+03</pdfrwt>
<totfact> 0.26656349E+00</totfact>
</mgrwt>
</event>
<event>
 4    1  0.2293715E-008  0.3714968E+03  0.7818608E-02  0.1054122E+00
         -1   -1    0    0    0  501 -0.00000000000E+00  0.00000000000E+00  0.99007892971E+02  0.99007893100E+02  0.50400000000E-02 0.  1.
          1   -1    0    0  501    0  0.00000000000E+00 -0.00000000000E+00 -0.41129418593E+04  0.41129418593E+04  0.50400000000E-02 0. -1.
    8880022    1    1    2    0    0 -0.31298551085E+03 -0.12906705460E+03 -0.29465616463E+03  0.47416467915E+03  0.15294330000E+03 0.  0.
    8880022    1    1    2    0    0  0.31298551085E+03  0.12906705460E+03 -0.37192778017E+04  0.37377850732E+04  0.15294330000E+03 0.  0.
<mgrwt>
<rscale>  0 0.37149682E+03</rscale>
<asrwt>0</asrwt>
<pdfrwt beam="1">  1        1 0.63276016E+00 0.37149682E+03</pdfrwt>
<pdfrwt beam="2">  1       -1 0.15231987E-01 0.37149682E+03</pdfrwt>
<totfact> 0.30068153E+00</totfact>
</mgrwt>
</event>
<event>
 4    1  0.2293715E-008  0.6380084E+03  0.7818608E-02  0.9829545E-01
         -1   -1    0    0    0  501 -0.00000000000E+00  0.00000000000E+00  0.97877924775E+03  0.97877924776E+03  0.50400000000E-02 0.  1.
          1   -1    0    0  501    0  0.00000000000E+00 -0.00000000000E+00 -0.84368026792E+03  0.84368026793E+03  0.50400000000E-02 0. -1.
    8880022    1    1    2    0    0  0.25245038981E+03  0.56562514412E+03 -0.58132321233E+03  0.86312880452E+03  0.15294330000E+03 0.  0.
    8880022    1    1    2    0    0 -0.25245038981E+03 -0.56562514412E+03  0.71642219216E+03  0.95933071118E+03  0.15294330000E+03 0.  1.
<mgrwt>
<rscale>  0 0.63800835E+03</rscale>
<asrwt>0</asrwt>
<pdfrwt beam="1">  1        1 0.12979696E+00 0.63800835E+03</pdfrwt>
<pdfrwt beam="2">  1       -1 0.15058142E+00 0.63800835E+03</pdfrwt>
<totfact> 0.73606857E+00</totfact>
</mgrwt>
</event>
<event>
 4    1  0.2293715E-008  0.2961930E+03  0.7818608E-02  0.1087159E+00
         -1   -1    0    0    0  501 -0.00000000000E+00  0.00000000000E+00  0.49316806237E+03  0.49316806239E+03  0.50400000000E-02 0.  1.
          1   -1    0    0  501    0  0.00000000000E+00 -0.00000000000E+00 -0.20741805764E+03  0.20741805770E+03  0.50400000000E-02 0. -1.
    8880022    1    1    2    0    0 -0.35476212658E+02  0.25115753019E+03  0.27503984831E+03  0.40419950248E+03  0.15294330000E+03 0.  0.
    8880022    1    1    2    0    0  0.35476212658E+02 -0.25115753019E+03  0.10710156416E+02  0.29638661761E+03  0.15294330000E+03 0.  0.
<mgrwt>
<rscale>  0 0.29619304E+03</rscale>
<asrwt>0</asrwt>
<pdfrwt beam="1">  1        1 0.31910471E-01 0.29619304E+03</pdfrwt>
<pdfrwt beam="2">  1       -1 0.75872009E-01 0.29619304E+03</pdfrwt>
<totfact> 0.25595325E+02</totfact>
</mgrwt>
</event>
<event>
 4    1  0.2293715E-008  0.1818119E+03  0.7818608E-02  0.1166061E+00
         -1   -1    0    0    0  501 -0.00000000000E+00  0.00000000000E+00  0.15692744489E+03  0.15692744497E+03  0.50400000000E-02 0.  1.
          1   -1    0    0  501    0  0.00000000000E+00 -0.00000000000E+00 -0.25175512653E+03  0.25175512658E+03  0.50400000000E-02 0. -1.
    8880022    1    1    2    0    0  0.91367770756E+02 -0.36274430215E+02  0.35162505976E+02  0.18518088093E+03  0.15294330000E+03 0.  1.
    8880022    1    1    2    0    0 -0.91367770756E+02  0.36274430215E+02 -0.12999018761E+03  0.22350169062E+03  0.15294330000E+03 0. -1.
<mgrwt>
<rscale>  0 0.18181187E+03</rscale>
<asrwt>0</asrwt>
<pdfrwt beam="1">  1        1 0.38731558E-01 0.18181187E+03</pdfrwt>
<pdfrwt beam="2">  1       -1 0.24142684E-01 0.18181187E+03</pdfrwt>
<totfact> 0.15995492E+03</totfact>
</mgrwt>
</event>
<event>
 4    1  0.2293715E-008  0.1190889E+04  0.7818608E-02  0.9120869E-01
          1   -1    0    0  501    0  0.00000000000E+00  0.00000000000E+00  0.82110870225E+03  0.82110870227E+03  0.50400000000E-02 0. -1.
         -1   -1    0    0    0  501 -0.00000000000E+00 -0.00000000000E+00 -0.26719569113E+04  0.26719569113E+04  0.50400000000E-02 0.  1.
    8880022    1    1    2    0    0 -0.49666042515E+03 -0.10715195286E+04 -0.19639623983E+04  0.22968164126E+04  0.15294330000E+03 0.  0.
    8880022    1    1    2    0    0  0.49666042515E+03  0.10715195286E+04  0.11311418927E+03  0.11962492010E+04  0.15294330000E+03 0.  0.
<mgrwt>
<rscale>  0 0.11908893E+04</rscale>
<asrwt>0</asrwt>
<pdfrwt beam="1">  1        1 0.12632442E+00 0.11908893E+04</pdfrwt>
<pdfrwt beam="2">  1       -1 0.41107029E+00 0.11908893E+04</pdfrwt>
<totfact> 0.12669855E-01</totfact>
</mgrwt>
</event>
<event>
 4    1  0.2293715E-008  0.5667380E+03  0.7818608E-02  0.9976923E-01
          1   -1    0    0  501    0  0.00000000000E+00  0.00000000000E+00  0.34423788859E+03  0.34423788863E+03  0.50400000000E-02 0. -1.
         -1   -1    0    0    0  501 -0.00000000000E+00 -0.00000000000E+00 -0.12239928308E+04  0.12239928308E+04  0.50400000000E-02 0.  1.
    8880022    1    1    2    0    0 -0.15903218655E+03 -0.52202400174E+03 -0.82216721818E+03  0.99857442508E+03  0.15294330000E+03 0.  0.
    8880022    1    1    2    0    0  0.15903218655E+03  0.52202400174E+03 -0.57587724049E+02  0.56965629438E+03  0.15294330000E+03 0.  0.
<mgrwt>
<rscale>  0 0.56673799E+03</rscale>
<asrwt>0</asrwt>
<pdfrwt beam="1">  1        1 0.52959676E-01 0.56673799E+03</pdfrwt>
<pdfrwt beam="2">  1       -1 0.18830659E+00 0.56673799E+03</pdfrwt>
<totfact> 0.14006401E+01</totfact>
</mgrwt>
</event>
<event>
 4    1  0.2293715E-008  0.3566295E+03  0.7818608E-02  0.1059926E+00
          1   -1    0    0  501    0  0.00000000000E+00  0.00000000000E+00  0.37325462454E+03  0.37325462457E+03  0.50400000000E-02 0. -1.
         -1   -1    0    0    0  501 -0.00000000000E+00 -0.00000000000E+00 -0.46981141146E+03  0.46981141149E+03  0.50400000000E-02 0.  1.
    8880022    1    1    2    0    0  0.32158489026E+03  0.19393888872E+02 -0.26921952184E+03  0.44683751915E+03  0.15294330000E+03 0.  0.
    8880022    1    1    2    0    0 -0.32158489026E+03 -0.19393888872E+02  0.17266273491E+03  0.39622851691E+03  0.15294330000E+03 0.  0.
<mgrwt>
<rscale>  0 0.35662952E+03</rscale>
<asrwt>0</asrwt>
<pdfrwt beam="1">  1        1 0.57423789E-01 0.35662952E+03</pdfrwt>
<pdfrwt beam="2">  1       -1 0.72278678E-01 0.35662952E+03</pdfrwt>
<totfact> 0.13308150E+02</totfact>
</mgrwt>
</event>
<event>
 4    1  0.2293715E-008  0.3547896E+03  0.7818608E-02  0.1060666E+00
         -1   -1    0    0    0  501 -0.00000000000E+00  0.00000000000E+00  0.16691963168E+03  0.16691963176E+03  0.50400000000E-02 0.  1.
          1   -1    0    0  501    0  0.00000000000E+00 -0.00000000000E+00 -0.13390256188E+04  0.13390256188E+04  0.50400000000E-02 0. -1.
    8880022    1    1    2    0    0 -0.16163882959E+03 -0.27632755114E+03 -0.10837116237E+04  0.11403098540E+04  0.15294330000E+03 0. -1.
    8880022    1    1    2    0    0  0.16163882959E+03  0.27632755114E+03 -0.88394363454E+02  0.36563539661E+03  0.15294330000E+03 0.  0.
<mgrwt>
<rscale>  0 0.35478963E+03</rscale>
<asrwt>0</asrwt>
<pdfrwt beam="1">  1        1 0.20600393E+00 0.35478963E+03</pdfrwt>
<pdfrwt beam="2">  1       -1 0.25679944E-01 0.35478963E+03</pdfrwt>
<totfact> 0.12134216E+02</totfact>
</mgrwt>
</event>
<event>
 4    1  0.2293715E-008  0.2305370E+03  0.7818608E-02  0.1126262E+00
          1   -1    0    0  501    0  0.00000000000E+00  0.00000000000E+00  0.18872006352E+04  0.18872006352E+04  0.50400000000E-02 0. -1.
         -1   -1    0    0    0  501 -0.00000000000E+00 -0.00000000000E+00 -0.58696378773E+02  0.58696378990E+02  0.50400000000E-02 0.  1.
    8880022    1    1    2    0    0 -0.13883283415E+03  0.10237718697E+03  0.21250777989E+03  0.31353923802E+03  0.15294330000E+03 0.  1.
    8880022    1    1    2    0    0  0.13883283415E+03 -0.10237718697E+03  0.16159964765E+04  0.16323577762E+04  0.15294330000E+03 0.  0.
<mgrwt>
<rscale>  0 0.23053698E+03</rscale>
<asrwt>0</asrwt>
<pdfrwt beam="1">  1        1 0.29033857E+00 0.23053698E+03</pdfrwt>
<pdfrwt beam="2">  1       -1 0.90302117E-02 0.23053698E+03</pdfrwt>
<totfact> 0.28810522E+02</totfact>
</mgrwt>
</event>
<event>
 4    1  0.2293715E-008  0.5084598E+03  0.7818608E-02  0.1011594E+00
         -1   -1    0    0    0  501 -0.00000000000E+00  0.00000000000E+00  0.68326998661E+03  0.68326998663E+03  0.50400000000E-02 0.  1.
          1   -1    0    0  501    0  0.00000000000E+00 -0.00000000000E+00 -0.71776692115E+03  0.71776692116E+03  0.50400000000E-02 0. -1.
    8880022    1    1    2    0    0 -0.96887793001E+02  0.47513418632E+03  0.46445463466E+03  0.68865775252E+03  0.15294330000E+03 0.  0.
    8880022    1    1    2    0    0  0.96887793001E+02 -0.47513418632E+03 -0.49895156919E+03  0.71237915527E+03  0.15294330000E+03 0.  0.
<mgrwt>
<rscale>  0 0.50845982E+03</rscale>
<asrwt>0</asrwt>
<pdfrwt beam="1">  1        1 0.11042568E+00 0.50845982E+03</pdfrwt>
<pdfrwt beam="2">  1       -1 0.10511846E+00 0.50845982E+03</pdfrwt>
<totfact> 0.23598153E+01</totfact>
</mgrwt>
</event>
<event>
 4    1  0.2293715E-008  0.4152617E+03  0.7818608E-02  0.1038620E+00
         -1   -1    0    0    0  501 -0.00000000000E+00  0.00000000000E+00  0.15169686373E+04  0.15169686373E+04  0.50400000000E-02 0.  1.
          1   -1    0    0  501    0  0.00000000000E+00 -0.00000000000E+00 -0.15762511578E+03  0.15762511586E+03  0.50400000000E-02 0. -1.
    8880022    1    1    2    0    0 -0.21859543297E+03 -0.31822423186E+03  0.23754790798E+03  0.47840494004E+03  0.15294330000E+03 0.  0.
    8880022    1    1    2    0    0  0.21859543297E+03  0.31822423186E+03  0.11217956135E+04  0.11961888131E+04  0.15294330000E+03 0.  0.
<mgrwt>
<rscale>  0 0.41526170E+03</rscale>
<asrwt>0</asrwt>
<pdfrwt beam="1">  1        1 0.24250017E-01 0.41526170E+03</pdfrwt>
<pdfrwt beam="2">  1       -1 0.23337979E+00 0.41526170E+03</pdfrwt>
<totfact> 0.19622605E+01</totfact>
</mgrwt>
</event>
<event>
 4    1  0.2293715E-008  0.4067644E+03  0.7818608E-02  0.1041462E+00
          1   -1    0    0  501    0  0.00000000000E+00  0.00000000000E+00  0.15169929211E+04  0.15169929211E+04  0.50400000000E-02 0. -1.
         -1   -1    0    0    0  501 -0.00000000000E+00 -0.00000000000E+00 -0.26744561956E+03  0.26744561961E+03  0.50400000000E-02 0.  1.
    8880022    1    1    2    0    0  0.92452907501E+01 -0.37680256607E+03 -0.61818803693E+02  0.41143513062E+03  0.15294330000E+03 0.  0.
    8880022    1    1    2    0    0 -0.92452907501E+01  0.37680256607E+03  0.13113661052E+04  0.13730034101E+04  0.15294330000E+03 0.  0.
<mgrwt>
<rscale>  0 0.40676443E+03</rscale>
<asrwt>0</asrwt>
<pdfrwt beam="1">  1        1 0.23338353E+00 0.40676443E+03</pdfrwt>
<pdfrwt beam="2">  1       -1 0.41145479E-01 0.40676443E+03</pdfrwt>
<totfact> 0.40032428E+01</totfact>
</mgrwt>
</event>
<event>
 4    1  0.2293715E-008  0.6452179E+03  0.7818608E-02  0.9815794E-01
          1   -1    0    0  501    0  0.00000000000E+00  0.00000000000E+00  0.92531911675E+03  0.92531911677E+03  0.50400000000E-02 0. -1.
         -1   -1    0    0    0  501 -0.00000000000E+00 -0.00000000000E+00 -0.48024586848E+03  0.48024586850E+03  0.50400000000E-02 0.  1.
    8880022    1    1    2    0    0 -0.15140956490E+02  0.62664602761E+03  0.45892314317E+02  0.64684793423E+03  0.15294330000E+03 0.  0.
    8880022    1    1    2    0    0  0.15140956490E+02 -0.62664602761E+03  0.39918093396E+03  0.75871705104E+03  0.15294330000E+03 0.  0.
<mgrwt>
<rscale>  0 0.64521791E+03</rscale>
<asrwt>0</asrwt>
<pdfrwt beam="1">  1        1 0.14235679E+00 0.64521791E+03</pdfrwt>
<pdfrwt beam="2">  1       -1 0.73883981E-01 0.64521791E+03</pdfrwt>
<totfact> 0.33239668E+01</totfact>
</mgrwt>
</event>
<event>
 4    1  0.2293715E-008  0.4078714E+03  0.7818608E-02  0.1041088E+00
          1   -1    0    0  501    0  0.00000000000E+00  0.00000000000E+00  0.38963098445E+03  0.38963098448E+03  0.50400000000E-02 0. -1.
         -1   -1    0    0    0  501 -0.00000000000E+00 -0.00000000000E+00 -0.56834876658E+03  0.56834876660E+03  0.50400000000E-02 0.  1.
    8880022    1    1    2    0    0 -0.61993666031E+02 -0.37299362863E+03 -0.32825956775E+03  0.52355845754E+03  0.15294330000E+03 0.  1.
    8880022    1    1    2    0    0  0.61993666031E+02  0.37299362863E+03  0.14954178562E+03  0.43442129355E+03  0.15294330000E+03 0.  1.
<mgrwt>
<rscale>  0 0.40787144E+03</rscale>
<asrwt>0</asrwt>
<pdfrwt beam="1">  1        1 0.59943229E-01 0.40787144E+03</pdfrwt>
<pdfrwt beam="2">  1       -1 0.87438271E-01 0.40787144E+03</pdfrwt>
<totfact> 0.84011860E+01</totfact>
</mgrwt>
</event>
<event>
 4    1  0.2293715E-008  0.4868628E+03  0.7818608E-02  0.1017266E+00
         -1   -1    0    0    0  501 -0.00000000000E+00  0.00000000000E+00  0.44437978253E+03  0.44437978256E+03  0.50400000000E-02 0.  1.
          1   -1    0    0  501    0  0.00000000000E+00 -0.00000000000E+00 -0.67296546943E+03  0.67296546945E+03  0.50400000000E-02 0. -1.
    8880022    1    1    2    0    0  0.23087360972E+03 -0.40042619975E+03 -0.36870545762E+03  0.61072017537E+03  0.15294330000E+03 0.  0.
    8880022    1    1    2    0    0 -0.23087360972E+03  0.40042619975E+03  0.14011977072E+03  0.50662507663E+03  0.15294330000E+03 0.  0.
<mgrwt>
<rscale>  0 0.48686283E+03</rscale>
<asrwt>0</asrwt>
<pdfrwt beam="1">  1        1 0.10353315E+00 0.48686283E+03</pdfrwt>
<pdfrwt beam="2">  1       -1 0.68366121E-01 0.48686283E+03</pdfrwt>
<totfact> 0.65673617E+01</totfact>
</mgrwt>
</event>
<event>
 4    1  0.2293715E-008  0.4124094E+03  0.7818608E-02  0.1039565E+00
         -1   -1    0    0    0  501 -0.00000000000E+00  0.00000000000E+00  0.45673864617E+03  0.45673864620E+03  0.50400000000E-02 0.  1.
          1   -1    0    0  501    0  0.00000000000E+00 -0.00000000000E+00 -0.99409689631E+03  0.99409689632E+03  0.50400000000E-02 0. -1.
    8880022    1    1    2    0    0  0.36819266969E+03  0.10547059067E+03  0.30500026351E+03  0.51293927639E+03  0.15294330000E+03 0.  0.
    8880022    1    1    2    0    0 -0.36819266969E+03 -0.10547059067E+03 -0.84235851364E+03  0.93789626613E+03  0.15294330000E+03 0.  0.
<mgrwt>
<rscale>  0 0.41240943E+03</rscale>
<asrwt>0</asrwt>
<pdfrwt beam="1">  1        1 0.15293798E+00 0.41240943E+03</pdfrwt>
<pdfrwt beam="2">  1       -1 0.70267484E-01 0.41240943E+03</pdfrwt>
<totfact> 0.33762099E+01</totfact>
</mgrwt>
</event>
<event>
 4    1  0.2293715E-008  0.2681148E+03  0.7818608E-02  0.1102363E+00
          1   -1    0    0  501    0  0.00000000000E+00  0.00000000000E+00  0.12866645092E+04  0.12866645092E+04  0.50400000000E-02 0. -1.
         -1   -1    0    0    0  501 -0.00000000000E+00 -0.00000000000E+00 -0.36582722190E+03  0.36582722194E+03  0.50400000000E-02 0.  1.
    8880022    1    1    2    0    0 -0.20584710564E+03  0.78235951538E+02 -0.30012192741E+03  0.40244095137E+03  0.15294330000E+03 0.  0.
    8880022    1    1    2    0    0  0.20584710564E+03 -0.78235951538E+02  0.12209592147E+04  0.12500507798E+04  0.15294330000E+03 0.  0.
<mgrwt>
<rscale>  0 0.26811480E+03</rscale>
<asrwt>0</asrwt>
<pdfrwt beam="1">  1        1 0.19794839E+00 0.26811480E+03</pdfrwt>
<pdfrwt beam="2">  1       -1 0.56281110E-01 0.26811480E+03</pdfrwt>
<totfact> 0.33344665E+01</totfact>
</mgrwt>
</event>
<event>
 4    1  0.2293715E-008  0.4660834E+03  0.7818608E-02  0.1023032E+00
          1   -1    0    0  501    0  0.00000000000E+00  0.00000000000E+00  0.74686143218E+03  0.74686143219E+03  0.50400000000E-02 0. -1.
         -1   -1    0    0    0  501 -0.00000000000E+00 -0.00000000000E+00 -0.46007667556E+03  0.46007667559E+03  0.50400000000E-02 0.  1.
    8880022    1    1    2    0    0 -0.42952656213E+03  0.96690170955E+02 -0.22258878836E+03  0.51650699749E+03  0.15294330000E+03 0.  0.
    8880022    1    1    2    0    0  0.42952656213E+03 -0.96690170955E+02  0.50937354497E+03  0.69043111030E+03  0.15294330000E+03 0.  0.
<mgrwt>
<rscale>  0 0.46608337E+03</rscale>
<asrwt>0</asrwt>
<pdfrwt beam="1">  1        1 0.11490176E+00 0.46608337E+03</pdfrwt>
<pdfrwt beam="2">  1       -1 0.70781028E-01 0.46608337E+03</pdfrwt>
<totfact> 0.52512131E+01</totfact>
</mgrwt>
</event>
<event>
 4    1  0.2293715E-008  0.9522215E+03  0.7818608E-02  0.9362558E-01
         -1   -1    0    0    0  501 -0.00000000000E+00  0.00000000000E+00  0.74633888371E+03  0.74633888373E+03  0.50400000000E-02 0.  1.
          1   -1    0    0  501    0  0.00000000000E+00 -0.00000000000E+00 -0.18115046351E+04  0.18115046351E+04  0.50400000000E-02 0. -1.
    8880022    1    1    2    0    0  0.68051209492E+03  0.64825725498E+03  0.20137001604E+03  0.97328090310E+03  0.15294330000E+03 0.  0.
    8880022    1    1    2    0    0 -0.68051209492E+03 -0.64825725498E+03 -0.12665357674E+04  0.15845626157E+04  0.15294330000E+03 0.  0.
<mgrwt>
<rscale>  0 0.95222153E+03</rscale>
<asrwt>0</asrwt>
<pdfrwt beam="1">  1        1 0.27869302E+00 0.95222153E+03</pdfrwt>
<pdfrwt beam="2">  1       -1 0.11482137E+00 0.95222153E+03</pdfrwt>
<totfact> 0.27994245E+00</totfact>
</mgrwt>
</event>
<event>
 4    1  0.2293715E-008  0.1546546E+04  0.7818608E-02  0.8854077E-01
         -1   -1    0    0    0  501 -0.00000000000E+00  0.00000000000E+00  0.16722467106E+04  0.16722467107E+04  0.50400000000E-02 0.  1.
          1   -1    0    0  501    0  0.00000000000E+00 -0.00000000000E+00 -0.15938576507E+04  0.15938576507E+04  0.50400000000E-02 0. -1.
    8880022    1    1    2    0    0  0.12336056754E+04  0.92012507088E+03 -0.48394608196E+03  0.16204963967E+04  0.15294330000E+03 0.  0.
    8880022    1    1    2    0    0 -0.12336056754E+04 -0.92012507088E+03  0.56233514190E+03  0.16456079647E+04  0.15294330000E+03 0.  0.
<mgrwt>
<rscale>  0 0.15465461E+04</rscale>
<asrwt>0</asrwt>
<pdfrwt beam="1">  1        1 0.24520887E+00 0.15465461E+04</pdfrwt>
<pdfrwt beam="2">  1       -1 0.25726872E+00 0.15465461E+04</pdfrwt>
<totfact> 0.33112764E-01</totfact>
</mgrwt>
</event>
<event>
 4    1  0.2293715E-008  0.5770391E+03  0.7818608E-02  0.9954222E-01
         -1   -1    0    0    0  501 -0.00000000000E+00  0.00000000000E+00  0.77903790010E+03  0.77903790011E+03  0.50400000000E-02 0.  1.
          1   -1    0    0  501    0  0.00000000000E+00 -0.00000000000E+00 -0.11051824704E+04  0.11051824704E+04  0.50400000000E-02 0. -1.
    8880022    1    1    2    0    0  0.52612817355E+03  0.18102940825E+03  0.57470346870E+03  0.81440667458E+03  0.15294330000E+03 0.  0.
    8880022    1    1    2    0    0 -0.52612817355E+03 -0.18102940825E+03 -0.90084803900E+03  0.10698136959E+04  0.15294330000E+03 0.  0.
<mgrwt>
<rscale>  0 0.57703913E+03</rscale>
<asrwt>0</asrwt>
<pdfrwt beam="1">  1        1 0.17002807E+00 0.57703913E+03</pdfrwt>
<pdfrwt beam="2">  1       -1 0.11985198E+00 0.57703913E+03</pdfrwt>
<totfact> 0.83098029E+00</totfact>
</mgrwt>
</event>
<event>
 4    1  0.2293715E-008  0.3709153E+03  0.7818608E-02  0.1054344E+00
          1   -1    0    0  501    0  0.00000000000E+00  0.00000000000E+00  0.21850488225E+03  0.21850488231E+03  0.50400000000E-02 0. -1.
         -1   -1    0    0    0  501 -0.00000000000E+00 -0.00000000000E+00 -0.75659815365E+03  0.75659815367E+03  0.50400000000E-02 0.  1.
    8880022    1    1    2    0    0  0.27902653270E+03 -0.19060623335E+03 -0.69323804182E+02  0.37733802483E+03  0.15294330000E+03 0. -1.
    8880022    1    1    2    0    0 -0.27902653270E+03  0.19060623335E+03 -0.46876946722E+03  0.59776501115E+03  0.15294330000E+03 0.  1.
<mgrwt>
<rscale>  0 0.37091535E+03</rscale>
<asrwt>0</asrwt>
<pdfrwt beam="1">  1        1 0.33616136E-01 0.37091535E+03</pdfrwt>
<pdfrwt beam="2">  1       -1 0.11639971E+00 0.37091535E+03</pdfrwt>
<totfact> 0.92687714E+01</totfact>
</mgrwt>
</event>
<event>
 4    1  0.2293715E-008  0.3267597E+03  0.7818608E-02  0.1072580E+00
         -1   -1    0    0    0  501 -0.00000000000E+00  0.00000000000E+00  0.36822607931E+03  0.36822607934E+03  0.50400000000E-02 0.  1.
          1   -1    0    0  501    0  0.00000000000E+00 -0.00000000000E+00 -0.72679612622E+03  0.72679612624E+03  0.50400000000E-02 0. -1.
    8880022    1    1    2    0    0 -0.10310038072E+03  0.26972308533E+03  0.24518251648E+03  0.40851725871E+03  0.15294330000E+03 0.  1.
    8880022    1    1    2    0    0  0.10310038072E+03 -0.26972308533E+03 -0.60375256339E+03  0.68650494687E+03  0.15294330000E+03 0.  0.
<mgrwt>
<rscale>  0 0.32675967E+03</rscale>
<asrwt>0</asrwt>
<pdfrwt beam="1">  1        1 0.11181479E+00 0.32675967E+03</pdfrwt>
<pdfrwt beam="2">  1       -1 0.56650166E-01 0.32675967E+03</pdfrwt>
<totfact> 0.86807684E+01</totfact>
</mgrwt>
</event>
<event>
 4    1  0.2293715E-008  0.9346448E+03  0.7818608E-02  0.9383281E-01
         -1   -1    0    0    0  501 -0.00000000000E+00  0.00000000000E+00  0.75580575603E+03  0.75580575605E+03  0.50400000000E-02 0.  1.
          1   -1    0    0  501    0  0.00000000000E+00 -0.00000000000E+00 -0.22468597448E+04  0.22468597448E+04  0.50400000000E-02 0. -1.
    8880022    1    1    2    0    0  0.82954401216E+03 -0.40252444862E+03 -0.17917230917E+04  0.20208494477E+04  0.15294330000E+03 0.  0.
    8880022    1    1    2    0    0 -0.82954401216E+03  0.40252444862E+03  0.30066910291E+03  0.98181605320E+03  0.15294330000E+03 0.  0.
<mgrwt>
<rscale>  0 0.93464477E+03</rscale>
<asrwt>0</asrwt>
<pdfrwt beam="1">  1        1 0.34567073E+00 0.93464477E+03</pdfrwt>
<pdfrwt beam="2">  1       -1 0.11627781E+00 0.93464477E+03</pdfrwt>
<totfact> 0.13865884E+00</totfact>
</mgrwt>
</event>
<event>
 4    1  0.2293715E-008  0.3617939E+03  0.7818608E-02  0.1057876E+00
         -1   -1    0    0    0  501 -0.00000000000E+00  0.00000000000E+00  0.50049922794E+03  0.50049922796E+03  0.50400000000E-02 0.  1.
          1   -1    0    0  501    0  0.00000000000E+00 -0.00000000000E+00 -0.60549434067E+03  0.60549434069E+03  0.50400000000E-02 0. -1.
    8880022    1    1    2    0    0 -0.18923189651E+03  0.26775826935E+03  0.36430000184E+03  0.51342900758E+03  0.15294330000E+03 0.  1.
    8880022    1    1    2    0    0  0.18923189651E+03 -0.26775826935E+03 -0.46929511457E+03  0.59256456108E+03  0.15294330000E+03 0.  0.
<mgrwt>
<rscale>  0 0.36179394E+03</rscale>
<asrwt>0</asrwt>
<pdfrwt beam="1">  1        1 0.93152975E-01 0.36179394E+03</pdfrwt>
<pdfrwt beam="2">  1       -1 0.76999881E-01 0.36179394E+03</pdfrwt>
<totfact> 0.61099353E+01</totfact>
</mgrwt>
</event>
<event>
 4    1  0.2293715E-008  0.3806718E+03  0.7818608E-02  0.1050686E+00
          1   -1    0    0  501    0  0.00000000000E+00  0.00000000000E+00  0.38761597657E+03  0.38761597660E+03  0.50400000000E-02 0. -1.
         -1   -1    0    0    0  501 -0.00000000000E+00 -0.00000000000E+00 -0.85533205087E+03  0.85533205089E+03  0.50400000000E-02 0.  1.
    8880022    1    1    2    0    0 -0.63956092769E+02  0.34267908261E+03 -0.70013587335E+03  0.79693238711E+03  0.15294330000E+03 0.  1.
    8880022    1    1    2    0    0  0.63956092769E+02 -0.34267908261E+03  0.23241979905E+03  0.44601564038E+03  0.15294330000E+03 0.  0.
<mgrwt>
<rscale>  0 0.38067176E+03</rscale>
<asrwt>0</asrwt>
<pdfrwt beam="1">  1        1 0.59633227E-01 0.38067176E+03</pdfrwt>
<pdfrwt beam="2">  1       -1 0.13158955E+00 0.38067176E+03</pdfrwt>
<totfact> 0.32992881E+01</totfact>
</mgrwt>
</event>
<event>
 4    1  0.2293715E-008  0.4132535E+03  0.7818608E-02  0.1039285E+00
          1   -1    0    0  501    0  0.00000000000E+00  0.00000000000E+00  0.26606789355E+04  0.26606789355E+04  0.50400000000E-02 0. -1.
         -1   -1    0    0    0  501 -0.00000000000E+00 -0.00000000000E+00 -0.13588768053E+03  0.13588768062E+03  0.50400000000E-02 0.  1.
    8880022    1    1    2    0    0  0.25311597983E+03 -0.28865052076E+03  0.24668582999E+03  0.48128201100E+03  0.15294330000E+03 0.  0.
    8880022    1    1    2    0    0 -0.25311597983E+03  0.28865052076E+03  0.22781054250E+04  0.23152846051E+04  0.15294330000E+03 0.  0.
<mgrwt>
<rscale>  0 0.41325352E+03</rscale>
<asrwt>0</asrwt>
<pdfrwt beam="1">  1        1 0.40933524E+00 0.41325352E+03</pdfrwt>
<pdfrwt beam="2">  1       -1 0.20905796E-01 0.41325352E+03</pdfrwt>
<totfact> 0.22288189E+01</totfact>
</mgrwt>
</event>
<event>
 4    1  0.2293715E-008  0.6236479E+03  0.7818608E-02  0.9857523E-01
         -1   -1    0    0    0  501 -0.00000000000E+00  0.00000000000E+00  0.89379490893E+03  0.89379490895E+03  0.50400000000E-02 0.  1.
          1   -1    0    0  501    0  0.00000000000E+00 -0.00000000000E+00 -0.49054984726E+03  0.49054984729E+03  0.50400000000E-02 0. -1.
    8880022    1    1    2    0    0  0.42644909081E+03  0.42858626910E+03  0.43422751365E+03  0.75992776218E+03  0.15294330000E+03 0.  0.
    8880022    1    1    2    0    0 -0.42644909081E+03 -0.42858626910E+03 -0.30982451977E+02  0.62441699405E+03  0.15294330000E+03 0.  0.
<mgrwt>
<rscale>  0 0.62364787E+03</rscale>
<asrwt>0</asrwt>
<pdfrwt beam="1">  1        1 0.75469207E-01 0.62364787E+03</pdfrwt>
<pdfrwt beam="2">  1       -1 0.13750691E+00 0.62364787E+03</pdfrwt>
<totfact> 0.20810253E+01</totfact>
</mgrwt>
</event>
<event>
 4    1  0.2293715E-008  0.1279890E+04  0.7818608E-02  0.9045666E-01
          1   -1    0    0  501    0  0.00000000000E+00  0.00000000000E+00  0.14804609525E+04  0.14804609525E+04  0.50400000000E-02 0. -1.
         -1   -1    0    0    0  501 -0.00000000000E+00 -0.00000000000E+00 -0.14037376233E+04  0.14037376233E+04  0.50400000000E-02 0.  1.
    8880022    1    1    2    0    0  0.71754750403E+02  0.12686913142E+04 -0.62524387356E+03  0.14244465414E+04  0.15294330000E+03 0.  0.
    8880022    1    1    2    0    0 -0.71754750403E+02 -0.12686913142E+04  0.70196720273E+03  0.14597520343E+04  0.15294330000E+03 0.  0.
<mgrwt>
<rscale>  0 0.12798899E+04</rscale>
<asrwt>0</asrwt>
<pdfrwt beam="1">  1        1 0.22776322E+00 0.12798899E+04</pdfrwt>
<pdfrwt beam="2">  1       -1 0.21595964E+00 0.12798899E+04</pdfrwt>
<totfact> 0.76719758E-01</totfact>
</mgrwt>
</event>
<event>
 4    1  0.2293715E-008  0.5407097E+03  0.7818608E-02  0.1003667E+00
          1   -1    0    0  501    0  0.00000000000E+00  0.00000000000E+00  0.11540404732E+04  0.11540404732E+04  0.50400000000E-02 0. -1.
         -1   -1    0    0    0  501 -0.00000000000E+00 -0.00000000000E+00 -0.82810428609E+03  0.82810428610E+03  0.50400000000E-02 0.  1.
    8880022    1    1    2    0    0 -0.23182662524E+03 -0.46393079659E+03 -0.66270276314E+03  0.85530227025E+03  0.15294330000E+03 0.  0.
    8880022    1    1    2    0    0  0.23182662524E+03  0.46393079659E+03  0.98863895025E+03  0.11268424891E+04  0.15294330000E+03 0.  0.
<mgrwt>
<rscale>  0 0.54070974E+03</rscale>
<asrwt>0</asrwt>
<pdfrwt beam="1">  1        1 0.17754469E+00 0.54070974E+03</pdfrwt>
<pdfrwt beam="2">  1       -1 0.12740066E+00 0.54070974E+03</pdfrwt>
<totfact> 0.66360300E+00</totfact>
</mgrwt>
</event>
<event>
 4    1  0.2293715E-008  0.3215284E+03  0.7818608E-02  0.1074948E+00
         -1   -1    0    0    0  501 -0.00000000000E+00  0.00000000000E+00  0.26760723919E+03  0.26760723924E+03  0.50400000000E-02 0.  1.
          1   -1    0    0  501    0  0.00000000000E+00 -0.00000000000E+00 -0.11880154304E+04  0.11880154304E+04  0.50400000000E-02 0. -1.
    8880022    1    1    2    0    0  0.27923147535E+03  0.44929366964E+02 -0.10580840702E+04  0.11058582267E+04  0.15294330000E+03 0.  0.
    8880022    1    1    2    0    0 -0.27923147535E+03 -0.44929366964E+02  0.13767587907E+03  0.34976444292E+03  0.15294330000E+03 0.  0.
<mgrwt>
<rscale>  0 0.32152841E+03</rscale>
<asrwt>0</asrwt>
<pdfrwt beam="1">  1        1 0.18277160E+00 0.32152841E+03</pdfrwt>
<pdfrwt beam="2">  1       -1 0.41170345E-01 0.32152841E+03</pdfrwt>
<totfact> 0.68550628E+01</totfact>
</mgrwt>
</event>
<event>
 4    1  0.2293715E-008  0.2528066E+03  0.7818608E-02  0.1111544E+00
          1   -1    0    0  501    0  0.00000000000E+00  0.00000000000E+00  0.53061178947E+03  0.53061178949E+03  0.50400000000E-02 0. -1.
         -1   -1    0    0    0  501 -0.00000000000E+00 -0.00000000000E+00 -0.51440061752E+03  0.51440061754E+03  0.50400000000E-02 0.  1.
    8880022    1    1    2    0    0 -0.17034517396E+03 -0.10724759072E+03  0.46536500005E+03  0.52959962263E+03  0.15294330000E+03 0.  0.
    8880022    1    1    2    0    0  0.17034517396E+03  0.10724759072E+03 -0.44915382810E+03  0.51541278440E+03  0.15294330000E+03 0.  0.
<mgrwt>
<rscale>  0 0.25280660E+03</rscale>
<asrwt>0</asrwt>
<pdfrwt beam="1">  1        1 0.81632583E-01 0.25280660E+03</pdfrwt>
<pdfrwt beam="2">  1       -1 0.79138556E-01 0.25280660E+03</pdfrwt>
<totfact> 0.70761419E+01</totfact>
</mgrwt>
</event>
<event>
 4    1  0.2293715E-008  0.5160204E+03  0.7818608E-02  0.1009680E+00
         -1   -1    0    0    0  501 -0.00000000000E+00  0.00000000000E+00  0.21356879430E+03  0.21356879436E+03  0.50400000000E-02 0.  1.
          1   -1    0    0  501    0  0.00000000000E+00 -0.00000000000E+00 -0.16192850296E+04  0.16192850296E+04  0.50400000000E-02 0. -1.
    8880022    1    1    2    0    0 -0.28431297224E+03 -0.40255629063E+03 -0.26332467658E+03  0.57932458227E+03  0.15294330000E+03 0.  0.
    8880022    1    1    2    0    0  0.28431297224E+03  0.40255629063E+03 -0.11423915587E+04  0.12535292417E+04  0.15294330000E+03 0.  0.
<mgrwt>
<rscale>  0 0.51602043E+03</rscale>
<asrwt>0</asrwt>
<pdfrwt beam="1">  1        1 0.24912077E+00 0.51602043E+03</pdfrwt>
<pdfrwt beam="2">  1       -1 0.32856739E-01 0.51602043E+03</pdfrwt>
<totfact> 0.49953327E+01</totfact>
</mgrwt>
</event>
<event>
 4    1  0.2293715E-008  0.3472239E+03  0.7818608E-02  0.1063760E+00
         -1   -1    0    0    0  501 -0.00000000000E+00  0.00000000000E+00  0.84635877333E+03  0.84635877334E+03  0.50400000000E-02 0.  1.
          1   -1    0    0  501    0  0.00000000000E+00 -0.00000000000E+00 -0.27407407629E+04  0.27407407630E+04  0.50400000000E-02 0. -1.
    8880022    1    1    2    0    0 -0.30259954885E+03 -0.74875127447E+02  0.79912674729E+03  0.87130246351E+03  0.15294330000E+03 0.  0.
    8880022    1    1    2    0    0  0.30259954885E+03  0.74875127447E+02 -0.26935087369E+04  0.27157970728E+04  0.15294330000E+03 0.  0.
<mgrwt>
<rscale>  0 0.34722388E+03</rscale>
<asrwt>0</asrwt>
<pdfrwt beam="1">  1        1 0.42165242E+00 0.34722388E+03</pdfrwt>
<pdfrwt beam="2">  1       -1 0.13020904E+00 0.34722388E+03</pdfrwt>
<totfact> 0.57620816E-01</totfact>
</mgrwt>
</event>
<event>
 4    1  0.2293715E-008  0.7759018E+03  0.7818608E-02  0.9595569E-01
         -1   -1    0    0    0  501 -0.00000000000E+00  0.00000000000E+00  0.92592795699E+03  0.92592795701E+03  0.50400000000E-02 0.  1.
          1   -1    0    0  501    0  0.00000000000E+00 -0.00000000000E+00 -0.83569972969E+03  0.83569972970E+03  0.50400000000E-02 0. -1.
    8880022    1    1    2    0    0  0.73121487427E+03 -0.20965862229E+03  0.46011528172E+03  0.90206965127E+03  0.15294330000E+03 0.  0.
    8880022    1    1    2    0    0 -0.73121487427E+03  0.20965862229E+03 -0.36988705442E+03  0.85955803544E+03  0.15294330000E+03 0.  0.
<mgrwt>
<rscale>  0 0.77590179E+03</rscale>
<asrwt>0</asrwt>
<pdfrwt beam="1">  1        1 0.12856919E+00 0.77590179E+03</pdfrwt>
<pdfrwt beam="2">  1       -1 0.14245046E+00 0.77590179E+03</pdfrwt>
<totfact> 0.84845283E+00</totfact>
</mgrwt>
</event>
<event>
 4    1  0.2293715E-008  0.3762709E+03  0.7818608E-02  0.1052321E+00
         -1   -1    0    0    0  501 -0.00000000000E+00  0.00000000000E+00  0.50058901277E+03  0.50058901279E+03  0.50400000000E-02 0.  1.
          1   -1    0    0  501    0  0.00000000000E+00 -0.00000000000E+00 -0.39196870052E+03  0.39196870055E+03  0.50400000000E-02 0. -1.
    8880022    1    1    2    0    0  0.25101315603E+03  0.23490536593E+03 -0.18118239189E+03  0.41762045877E+03  0.15294330000E+03 0. -1.
    8880022    1    1    2    0    0 -0.25101315603E+03 -0.23490536593E+03  0.28980270414E+03  0.47493725457E+03  0.15294330000E+03 0.  0.
<mgrwt>
<rscale>  0 0.37627090E+03</rscale>
<asrwt>0</asrwt>
<pdfrwt beam="1">  1        1 0.60302877E-01 0.37627090E+03</pdfrwt>
<pdfrwt beam="2">  1       -1 0.77013694E-01 0.37627090E+03</pdfrwt>
<totfact> 0.10941278E+02</totfact>
</mgrwt>
</event>
<event>
 4    1  0.2293715E-008  0.4430758E+03  0.7818608E-02  0.1029807E+00
         -1   -1    0    0    0  501 -0.00000000000E+00  0.00000000000E+00  0.35833735972E+03  0.35833735975E+03  0.50400000000E-02 0.  1.
          1   -1    0    0  501    0  0.00000000000E+00 -0.00000000000E+00 -0.99308296218E+03  0.99308296220E+03  0.50400000000E-02 0. -1.
    8880022    1    1    2    0    0 -0.21255569831E+03  0.35741370243E+03 -0.76981172856E+03  0.88821519352E+03  0.15294330000E+03 0.  0.
    8880022    1    1    2    0    0  0.21255569831E+03 -0.35741370243E+03  0.13506612609E+03  0.46320512842E+03  0.15294330000E+03 0.  0.
<mgrwt>
<rscale>  0 0.44307576E+03</rscale>
<asrwt>0</asrwt>
<pdfrwt beam="1">  1        1 0.15278199E+00 0.44307576E+03</pdfrwt>
<pdfrwt beam="2">  1       -1 0.55128825E-01 0.44307576E+03</pdfrwt>
<totfact> 0.54207405E+01</totfact>
</mgrwt>
</event>
<event>
 4    1  0.2293715E-008  0.3374833E+03  0.7818608E-02  0.1067873E+00
         -1   -1    0    0    0  501 -0.00000000000E+00  0.00000000000E+00  0.63747556167E+03  0.63747556169E+03  0.50400000000E-02 0.  1.
          1   -1    0    0  501    0  0.00000000000E+00 -0.00000000000E+00 -0.73909419948E+03  0.73909419950E+03  0.50400000000E-02 0. -1.
    8880022    1    1    2    0    0 -0.15946226845E+03 -0.25509820125E+03 -0.65015650897E+03  0.73252880251E+03  0.15294330000E+03 0.  0.
    8880022    1    1    2    0    0  0.15946226845E+03  0.25509820125E+03  0.54853787116E+03  0.64404095868E+03  0.15294330000E+03 0.  0.
<mgrwt>
<rscale>  0 0.33748327E+03</rscale>
<asrwt>0</asrwt>
<pdfrwt beam="1">  1        1 0.11370680E+00 0.33748327E+03</pdfrwt>
<pdfrwt beam="2">  1       -1 0.98073163E-01 0.33748327E+03</pdfrwt>
<totfact> 0.27340105E+01</totfact>
</mgrwt>
</event>
<event>
 4    1  0.2293715E-008  0.1038099E+04  0.7818608E-02  0.9267718E-01
          1   -1    0    0  501    0  0.00000000000E+00  0.00000000000E+00  0.19853968664E+04  0.19853968664E+04  0.50400000000E-02 0. -1.
         -1   -1    0    0    0  501 -0.00000000000E+00 -0.00000000000E+00 -0.84194200463E+03  0.84194200464E+03  0.50400000000E-02 0.  1.
    8880022    1    1    2    0    0  0.19023150723E+03  0.10089944044E+04 -0.27093623022E+03  0.10728726991E+04  0.15294330000E+03 0.  0.
    8880022    1    1    2    0    0 -0.19023150723E+03 -0.10089944044E+04  0.14143910920E+04  0.17544661720E+04  0.15294330000E+03 0.  0.
<mgrwt>
<rscale>  0 0.10380989E+04</rscale>
<asrwt>0</asrwt>
<pdfrwt beam="1">  1        1 0.30544566E+00 0.10380989E+04</pdfrwt>
<pdfrwt beam="2">  1       -1 0.12952954E+00 0.10380989E+04</pdfrwt>
<totfact> 0.15683798E+00</totfact>
</mgrwt>
</event>
<event>
 4    1  0.2293715E-008  0.9687442E+03  0.7818608E-02  0.9343506E-01
          1   -1    0    0  501    0  0.00000000000E+00  0.00000000000E+00  0.50285155436E+03  0.50285155439E+03  0.50400000000E-02 0. -1.
         -1   -1    0    0    0  501 -0.00000000000E+00 -0.00000000000E+00 -0.18891421389E+04  0.18891421389E+04  0.50400000000E-02 0.  1.
    8880022    1    1    2    0    0  0.74755659862E+03  0.59685234420E+03 -0.82469536831E+03  0.12722372784E+04  0.15294330000E+03 0.  0.
    8880022    1    1    2    0    0 -0.74755659862E+03 -0.59685234420E+03 -0.56159521625E+03  0.11197564150E+04  0.15294330000E+03 0.  0.
<mgrwt>
<rscale>  0 0.96874416E+03</rscale>
<asrwt>0</asrwt>
<pdfrwt beam="1">  1        1 0.77361778E-01 0.96874416E+03</pdfrwt>
<pdfrwt beam="2">  1       -1 0.29063725E+00 0.96874416E+03</pdfrwt>
<totfact> 0.16989486E+00</totfact>
</mgrwt>
</event>
<event>
 4    1  0.2293715E-008  0.6263628E+03  0.7818608E-02  0.9852172E-01
          1   -1    0    0  501    0  0.00000000000E+00  0.00000000000E+00  0.19428277503E+04  0.19428277503E+04  0.50400000000E-02 0. -1.
         -1   -1    0    0    0  501 -0.00000000000E+00 -0.00000000000E+00 -0.55256071964E+03  0.55256071966E+03  0.50400000000E-02 0.  1.
    8880022    1    1    2    0    0  0.59769050281E+03 -0.10818864301E+03 -0.29875646301E+03  0.69396382963E+03  0.15294330000E+03 0.  1.
    8880022    1    1    2    0    0 -0.59769050281E+03  0.10818864301E+03  0.16890234937E+04  0.18014246403E+04  0.15294330000E+03 0.  0.
<mgrwt>
<rscale>  0 0.62636281E+03</rscale>
<asrwt>0</asrwt>
<pdfrwt beam="1">  1        1 0.29889658E+00 0.62636281E+03</pdfrwt>
<pdfrwt beam="2">  1       -1 0.85009341E-01 0.62636281E+03</pdfrwt>
<totfact> 0.47928528E+00</totfact>
</mgrwt>
</event>
<event>
 4    1  0.2293715E-008  0.6820058E+03  0.7818608E-02  0.9748509E-01
         -1   -1    0    0    0  501 -0.00000000000E+00  0.00000000000E+00  0.33690709471E+03  0.33690709475E+03  0.50400000000E-02 0.  1.
          1   -1    0    0  501    0  0.00000000000E+00 -0.00000000000E+00 -0.30329909565E+04  0.30329909565E+04  0.50400000000E-02 0. -1.
    8880022    1    1    2    0    0 -0.59746204825E+03  0.29116889598E+03 -0.10436260166E+03  0.68994451279E+03  0.15294330000E+03 0.  0.
    8880022    1    1    2    0    0  0.59746204825E+03 -0.29116889598E+03 -0.25917212601E+04  0.26799535385E+04  0.15294330000E+03 0.  0.
<mgrwt>
<rscale>  0 0.68200578E+03</rscale>
<asrwt>0</asrwt>
<pdfrwt beam="1">  1        1 0.46661398E+00 0.68200578E+03</pdfrwt>
<pdfrwt beam="2">  1       -1 0.51831863E-01 0.68200578E+03</pdfrwt>
<totfact> 0.23100146E+00</totfact>
</mgrwt>
</event>
<event>
 4    1  0.2293715E-008  0.6992044E+03  0.7818608E-02  0.9718594E-01
          1   -1    0    0  501    0  0.00000000000E+00  0.00000000000E+00  0.31114652130E+04  0.31114652130E+04  0.50400000000E-02 0. -1.
         -1   -1    0    0    0  501 -0.00000000000E+00 -0.00000000000E+00 -0.33916833320E+03  0.33916833324E+03  0.50400000000E-02 0.  1.
    8880022    1    1    2    0    0 -0.64237418136E+03  0.22989235181E+03  0.26501553338E+04  0.27408411170E+04  0.15294330000E+03 0.  0.
    8880022    1    1    2    0    0  0.64237418136E+03 -0.22989235181E+03  0.12214154595E+03  0.70979242921E+03  0.15294330000E+03 0.  1.
<mgrwt>
<rscale>  0 0.69920436E+03</rscale>
<asrwt>0</asrwt>
<pdfrwt beam="1">  1        1 0.47868696E+00 0.69920436E+03</pdfrwt>
<pdfrwt beam="2">  1       -1 0.52179744E-01 0.69920436E+03</pdfrwt>
<totfact> 0.19937611E+00</totfact>
</mgrwt>
</event>
<event>
 4    1  0.2293715E-008  0.1808886E+03  0.7818608E-02  0.1166946E+00
          1   -1    0    0  501    0  0.00000000000E+00  0.00000000000E+00  0.35214358456E+03  0.35214358460E+03  0.50400000000E-02 0. -1.
         -1   -1    0    0    0  501 -0.00000000000E+00 -0.00000000000E+00 -0.12924000409E+04  0.12924000409E+04  0.50400000000E-02 0.  1.
    8880022    1    1    2    0    0 -0.37636398632E+02  0.88952465778E+02  0.32203318887E+03  0.36935899531E+03  0.15294330000E+03 0.  0.
    8880022    1    1    2    0    0  0.37636398632E+02 -0.88952465778E+02 -0.12622896452E+04  0.12751846302E+04  0.15294330000E+03 0.  1.
<mgrwt>
<rscale>  0 0.18088862E+03</rscale>
<asrwt>0</asrwt>
<pdfrwt beam="1">  1        1 0.54175937E-01 0.18088862E+03</pdfrwt>
<pdfrwt beam="2">  1       -1 0.19883077E+00 0.18088862E+03</pdfrwt>
<totfact> 0.12763189E+01</totfact>
</mgrwt>
</event>
<event>
 4    1  0.2293715E-008  0.9363044E+03  0.7818608E-02  0.9381303E-01
         -1   -1    0    0    0  501 -0.00000000000E+00  0.00000000000E+00  0.12318486154E+04  0.12318486154E+04  0.50400000000E-02 0.  1.
          1   -1    0    0  501    0  0.00000000000E+00 -0.00000000000E+00 -0.11802464786E+04  0.11802464786E+04  0.50400000000E-02 0. -1.
    8880022    1    1    2    0    0 -0.88394554634E+03  0.26816874476E+03 -0.73412223441E+03  0.11897904490E+04  0.15294330000E+03 0.  0.
    8880022    1    1    2    0    0  0.88394554634E+03 -0.26816874476E+03  0.78572437119E+03  0.12223046449E+04  0.15294330000E+03 0.  0.
<mgrwt>
<rscale>  0 0.93630436E+03</rscale>
<asrwt>0</asrwt>
<pdfrwt beam="1">  1        1 0.18157638E+00 0.93630436E+03</pdfrwt>
<pdfrwt beam="2">  1       -1 0.18951517E+00 0.93630436E+03</pdfrwt>
<totfact> 0.19940698E+00</totfact>
</mgrwt>
</event>
<event>
 4    1  0.2293715E-008  0.1196053E+04  0.7818608E-02  0.9116319E-01
          1   -1    0    0  501    0  0.00000000000E+00  0.00000000000E+00  0.29431170379E+04  0.29431170380E+04  0.50400000000E-02 0. -1.
         -1   -1    0    0    0  501 -0.00000000000E+00 -0.00000000000E+00 -0.53936623359E+03  0.53936623361E+03  0.50400000000E-02 0.  1.
    8880022    1    1    2    0    0  0.11738026113E+04  0.17128223109E+03  0.17492590599E+04  0.21190679755E+04  0.15294330000E+03 0.  0.
    8880022    1    1    2    0    0 -0.11738026113E+04 -0.17128223109E+03  0.65449174448E+03  0.13634152961E+04  0.15294330000E+03 0.  0.
<mgrwt>
<rscale>  0 0.11960526E+04</rscale>
<asrwt>0</asrwt>
<pdfrwt beam="1">  1        1 0.45278724E+00 0.11960526E+04</pdfrwt>
<pdfrwt beam="2">  1       -1 0.82979421E-01 0.11960526E+04</pdfrwt>
<totfact> 0.94588575E-01</totfact>
</mgrwt>
</event>
<event>
 4    1  0.2293715E-008  0.7146961E+03  0.7818608E-02  0.9692425E-01
         -1   -1    0    0    0  501 -0.00000000000E+00  0.00000000000E+00  0.96091571960E+03  0.96091571962E+03  0.50400000000E-02 0.  1.
          1   -1    0    0  501    0  0.00000000000E+00 -0.00000000000E+00 -0.69445474882E+03  0.69445474884E+03  0.50400000000E-02 0. -1.
    8880022    1    1    2    0    0 -0.63138917540E+03 -0.29790353285E+03  0.53408641557E+03  0.89221004142E+03  0.15294330000E+03 0.  0.
    8880022    1    1    2    0    0  0.63138917540E+03  0.29790353285E+03 -0.26762544479E+03  0.76316042704E+03  0.15294330000E+03 0.  0.
<mgrwt>
<rscale>  0 0.71469606E+03</rscale>
<asrwt>0</asrwt>
<pdfrwt beam="1">  1        1 0.10683919E+00 0.71469606E+03</pdfrwt>
<pdfrwt beam="2">  1       -1 0.14783319E+00 0.71469606E+03</pdfrwt>
<totfact> 0.10359151E+01</totfact>
</mgrwt>
</event>
<event>
 4    1  0.2293715E-008  0.3792631E+03  0.7818608E-02  0.1051206E+00
         -1   -1    0    0    0  501 -0.00000000000E+00  0.00000000000E+00  0.10825788332E+04  0.10825788332E+04  0.50400000000E-02 0.  1.
          1   -1    0    0  501    0  0.00000000000E+00 -0.00000000000E+00 -0.13603229621E+04  0.13603229621E+04  0.50400000000E-02 0. -1.
    8880022    1    1    2    0    0 -0.13987504775E+03 -0.31762218400E+03 -0.12991384439E+04  0.13533666282E+04  0.15294330000E+03 0.  0.
    8880022    1    1    2    0    0  0.13987504775E+03  0.31762218400E+03  0.10213943150E+04  0.10895351671E+04  0.15294330000E+03 0.  0.
<mgrwt>
<rscale>  0 0.37926315E+03</rscale>
<asrwt>0</asrwt>
<pdfrwt beam="1">  1        1 0.20928045E+00 0.37926315E+03</pdfrwt>
<pdfrwt beam="2">  1       -1 0.16655059E+00 0.37926315E+03</pdfrwt>
<totfact> 0.24607329E+00</totfact>
</mgrwt>
</event>
<event>
 4    1  0.2293715E-008  0.1861911E+03  0.7818608E-02  0.1161942E+00
          1   -1    0    0  501    0  0.00000000000E+00  0.00000000000E+00  0.22282309354E+04  0.22282309354E+04  0.50400000000E-02 0. -1.
         -1   -1    0    0    0  501 -0.00000000000E+00 -0.00000000000E+00 -0.31649471843E+02  0.31649472244E+02  0.50400000000E-02 0.  1.
    8880022    1    1    2    0    0 -0.59732816871E+02 -0.87792247679E+02  0.19039810596E+04  0.19130632547E+04  0.15294330000E+03 0. -1.
    8880022    1    1    2    0    0  0.59732816871E+02  0.87792247679E+02  0.29260040392E+03  0.34681715291E+03  0.15294330000E+03 0.  0.
<mgrwt>
<rscale>  0 0.18619114E+03</rscale>
<asrwt>0</asrwt>
<pdfrwt beam="1">  1        1 0.34280482E+00 0.18619114E+03</pdfrwt>
<pdfrwt beam="2">  1       -1 0.48691486E-02 0.18619114E+03</pdfrwt>
<totfact> 0.44608151E+02</totfact>
</mgrwt>
</event>
<event>
 4    1  0.2293715E-008  0.6160537E+03  0.7818608E-02  0.9872648E-01
         -1   -1    0    0    0  501 -0.00000000000E+00  0.00000000000E+00  0.28793042154E+03  0.28793042158E+03  0.50400000000E-02 0.  1.
          1   -1    0    0  501    0  0.00000000000E+00 -0.00000000000E+00 -0.26600987617E+04  0.26600987617E+04  0.50400000000E-02 0. -1.
    8880022    1    1    2    0    0 -0.51959421055E+03 -0.29351716154E+03 -0.13912829153E+03  0.63156852540E+03  0.15294330000E+03 0.  0.
    8880022    1    1    2    0    0  0.51959421055E+03  0.29351716154E+03 -0.22330400486E+04  0.23164606578E+04  0.15294330000E+03 0.  0.
<mgrwt>
<rscale>  0 0.61605367E+03</rscale>
<asrwt>0</asrwt>
<pdfrwt beam="1">  1        1 0.40924595E+00 0.61605367E+03</pdfrwt>
<pdfrwt beam="2">  1       -1 0.44296990E-01 0.61605367E+03</pdfrwt>
<totfact> 0.57527428E+00</totfact>
</mgrwt>
</event>
<event>
 4    1  0.2293715E-008  0.7516613E+03  0.7818608E-02  0.9632748E-01
          1   -1    0    0  501    0  0.00000000000E+00  0.00000000000E+00  0.18304347951E+04  0.18304347951E+04  0.50400000000E-02 0. -1.
         -1   -1    0    0    0  501 -0.00000000000E+00 -0.00000000000E+00 -0.33778223156E+03  0.33778223160E+03  0.50400000000E-02 0.  1.
    8880022    1    1    2    0    0  0.32655792264E+03 -0.65951721932E+03  0.42804215074E+03  0.86499408972E+03  0.15294330000E+03 0.  0.
    8880022    1    1    2    0    0 -0.32655792264E+03  0.65951721932E+03  0.10646104128E+04  0.13032229370E+04  0.15294330000E+03 0.  0.
<mgrwt>
<rscale>  0 0.75166129E+03</rscale>
<asrwt>0</asrwt>
<pdfrwt beam="1">  1        1 0.28160535E+00 0.75166129E+03</pdfrwt>
<pdfrwt beam="2">  1       -1 0.51966497E-01 0.75166129E+03</pdfrwt>
<totfact> 0.15067975E+01</totfact>
</mgrwt>
</event>
<event>
 4    1  0.2293715E-008  0.6987810E+03  0.7818608E-02  0.9719319E-01
         -1   -1    0    0    0  501 -0.00000000000E+00  0.00000000000E+00  0.89299518030E+03  0.89299518031E+03  0.50400000000E-02 0.  1.
          1   -1    0    0  501    0  0.00000000000E+00 -0.00000000000E+00 -0.87536334953E+03  0.87536334954E+03  0.50400000000E-02 0. -1.
    8880022    1    1    2    0    0 -0.63035112689E+03  0.25992429343E+03  0.55050733042E+03  0.88958032540E+03  0.15294330000E+03 0.  1.
    8880022    1    1    2    0    0  0.63035112689E+03 -0.25992429343E+03 -0.53287549965E+03  0.87877820445E+03  0.15294330000E+03 0.  0.
<mgrwt>
<rscale>  0 0.69878096E+03</rscale>
<asrwt>0</asrwt>
<pdfrwt beam="1">  1        1 0.13467128E+00 0.69878096E+03</pdfrwt>
<pdfrwt beam="2">  1       -1 0.13738387E+00 0.69878096E+03</pdfrwt>
<totfact> 0.87328001E+00</totfact>
</mgrwt>
</event>
<event>
 4    1  0.2293715E-008  0.5959475E+03  0.7818608E-02  0.9913849E-01
         -1   -1    0    0    0  501 -0.00000000000E+00  0.00000000000E+00  0.95996778046E+03  0.95996778047E+03  0.50400000000E-02 0.  1.
          1   -1    0    0  501    0  0.00000000000E+00 -0.00000000000E+00 -0.12180848705E+04  0.12180848705E+04  0.50400000000E-02 0. -1.
    8880022    1    1    2    0    0 -0.49952641589E+02 -0.57381750665E+03 -0.10377752202E+04  0.11967166992E+04  0.15294330000E+03 0.  0.
    8880022    1    1    2    0    0  0.49952641589E+02  0.57381750665E+03  0.77965813019E+03  0.98133595181E+03  0.15294330000E+03 0.  0.
<mgrwt>
<rscale>  0 0.59594752E+03</rscale>
<asrwt>0</asrwt>
<pdfrwt beam="1">  1        1 0.18739767E+00 0.59594752E+03</pdfrwt>
<pdfrwt beam="2">  1       -1 0.14768735E+00 0.59594752E+03</pdfrwt>
<totfact> 0.40364187E+00</totfact>
</mgrwt>
</event>
<event>
 4    1  0.2293715E-008  0.7470268E+03  0.7818608E-02  0.9640026E-01
         -1   -1    0    0    0  501 -0.00000000000E+00  0.00000000000E+00  0.67927989404E+03  0.67927989406E+03  0.50400000000E-02 0.  1.
          1   -1    0    0  501    0  0.00000000000E+00 -0.00000000000E+00 -0.93167966965E+03  0.93167966966E+03  0.50400000000E-02 0. -1.
    8880022    1    1    2    0    0 -0.64892991389E+03 -0.33696794133E+03  0.15075699042E+03  0.76208710119E+03  0.15294330000E+03 0.  0.
    8880022    1    1    2    0    0  0.64892991389E+03  0.33696794133E+03 -0.40315676604E+03  0.84887246253E+03  0.15294330000E+03 0.  0.
<mgrwt>
<rscale>  0 0.74702683E+03</rscale>
<asrwt>0</asrwt>
<pdfrwt beam="1">  1        1 0.14333533E+00 0.74702683E+03</pdfrwt>
<pdfrwt beam="2">  1       -1 0.10450460E+00 0.74702683E+03</pdfrwt>
<totfact> 0.15207024E+01</totfact>
</mgrwt>
</event>
<event>
 4    1  0.2293715E-008  0.2825276E+03  0.7818608E-02  0.1094316E+00
          1   -1    0    0  501    0  0.00000000000E+00  0.00000000000E+00  0.13468274522E+04  0.13468274522E+04  0.50400000000E-02 0. -1.
         -1   -1    0    0    0  501 -0.00000000000E+00 -0.00000000000E+00 -0.20657759554E+03  0.20657759560E+03  0.50400000000E-02 0.  1.
    8880022    1    1    2    0    0 -0.20999166654E+03 -0.11105709167E+03 -0.85764676557E+02  0.29525820968E+03  0.15294330000E+03 0.  0.
    8880022    1    1    2    0    0  0.20999166654E+03  0.11105709167E+03  0.12260145332E+04  0.12581468381E+04  0.15294330000E+03 0.  0.
<mgrwt>
<rscale>  0 0.28252758E+03</rscale>
<asrwt>0</asrwt>
<pdfrwt beam="1">  1        1 0.20720423E+00 0.28252758E+03</pdfrwt>
<pdfrwt beam="2">  1       -1 0.31781168E-01 0.28252758E+03</pdfrwt>
<totfact> 0.84653605E+01</totfact>
</mgrwt>
</event>
<event>
 4    1  0.2293715E-008  0.2740436E+03  0.7818608E-02  0.1098987E+00
          1   -1    0    0  501    0  0.00000000000E+00  0.00000000000E+00  0.29782941407E+04  0.29782941407E+04  0.50400000000E-02 0. -1.
         -1   -1    0    0    0  501 -0.00000000000E+00 -0.00000000000E+00 -0.45918449451E+02  0.45918449728E+02  0.50400000000E-02 0.  1.
    8880022    1    1    2    0    0 -0.13580974146E+03  0.18238409564E+03  0.45086937829E+03  0.52762021712E+03  0.15294330000E+03 0.  0.
    8880022    1    1    2    0    0  0.13580974146E+03 -0.18238409564E+03  0.24815063129E+04  0.24965923733E+04  0.15294330000E+03 0.  0.
<mgrwt>
<rscale>  0 0.27404360E+03</rscale>
<asrwt>0</asrwt>
<pdfrwt beam="1">  1        1 0.45819917E+00 0.27404360E+03</pdfrwt>
<pdfrwt beam="2">  1       -1 0.70643758E-02 0.27404360E+03</pdfrwt>
<totfact> 0.78055824E+01</totfact>
</mgrwt>
</event>
<event>
 4    1  0.2293715E-008  0.6486720E+03  0.7818608E-02  0.9809274E-01
          1   -1    0    0  501    0  0.00000000000E+00  0.00000000000E+00  0.26075739965E+04  0.26075739965E+04  0.50400000000E-02 0. -1.
         -1   -1    0    0    0  501 -0.00000000000E+00 -0.00000000000E+00 -0.28415446372E+03  0.28415446376E+03  0.50400000000E-02 0.  1.
    8880022    1    1    2    0    0 -0.63034110711E+03  0.73326723403E+01  0.21126254348E+03  0.68220758915E+03  0.15294330000E+03 0.  0.
    8880022    1    1    2    0    0  0.63034110711E+03 -0.73326723403E+01  0.21121569893E+04  0.22095208711E+04  0.15294330000E+03 0.  0.
<mgrwt>
<rscale>  0 0.64867198E+03</rscale>
<asrwt>0</asrwt>
<pdfrwt beam="1">  1        1 0.40116524E+00 0.64867198E+03</pdfrwt>
<pdfrwt beam="2">  1       -1 0.43716070E-01 0.64867198E+03</pdfrwt>
<totfact> 0.63612622E+00</totfact>
</mgrwt>
</event>
<event>
 4    1  0.2293715E-008  0.1054250E+04  0.7818608E-02  0.9250967E-01
         -1   -1    0    0    0  501 -0.00000000000E+00  0.00000000000E+00  0.45126128619E+03  0.45126128622E+03  0.50400000000E-02 0.  1.
          1   -1    0    0  501    0  0.00000000000E+00 -0.00000000000E+00 -0.38406676514E+04  0.38406676514E+04  0.50400000000E-02 0. -1.
    8880022    1    1    2    0    0  0.81594919332E+03  0.64982961278E+03 -0.40942826197E+03  0.11309618766E+04  0.15294330000E+03 0.  0.
    8880022    1    1    2    0    0 -0.81594919332E+03 -0.64982961278E+03 -0.29799781032E+04  0.31609670609E+04  0.15294330000E+03 0. -1.
<mgrwt>
<rscale>  0 0.10542501E+04</rscale>
<asrwt>0</asrwt>
<pdfrwt beam="1">  1        1 0.59087192E+00 0.10542501E+04</pdfrwt>
<pdfrwt beam="2">  1       -1 0.69424816E-01 0.10542501E+04</pdfrwt>
<totfact> 0.28716731E-01</totfact>
</mgrwt>
</event>
<event>
 4    1  0.2293715E-008  0.3860065E+03  0.7818608E-02  0.1048736E+00
         -1   -1    0    0    0  501 -0.00000000000E+00  0.00000000000E+00  0.26580187045E+03  0.26580187050E+03  0.50400000000E-02 0.  1.
          1   -1    0    0  501    0  0.00000000000E+00 -0.00000000000E+00 -0.64338202309E+03  0.64338202311E+03  0.50400000000E-02 0. -1.
    8880022    1    1    2    0    0 -0.34454446058E+03  0.83057291857E+02 -0.25699425417E+02  0.38686110237E+03  0.15294330000E+03 0.  0.
    8880022    1    1    2    0    0  0.34454446058E+03 -0.83057291857E+02 -0.35188072721E+03  0.52232279124E+03  0.15294330000E+03 0.  1.
<mgrwt>
<rscale>  0 0.38600654E+03</rscale>
<asrwt>0</asrwt>
<pdfrwt beam="1">  1        1 0.98981849E-01 0.38600654E+03</pdfrwt>
<pdfrwt beam="2">  1       -1 0.40892596E-01 0.38600654E+03</pdfrwt>
<totfact> 0.18842652E+02</totfact>
</mgrwt>
</event>
<event>
 4    1  0.2293715E-008  0.4024509E+03  0.7818608E-02  0.1042934E+00
         -1   -1    0    0    0  501 -0.00000000000E+00  0.00000000000E+00  0.35387000992E+03  0.35387000996E+03  0.50400000000E-02 0.  1.
          1   -1    0    0  501    0  0.00000000000E+00 -0.00000000000E+00 -0.10090667293E+04  0.10090667293E+04  0.50400000000E-02 0. -1.
    8880022    1    1    2    0    0 -0.32857444794E+03  0.17496827024E+03 -0.83133736234E+03  0.92362791559E+03  0.15294330000E+03 0. -1.
    8880022    1    1    2    0    0  0.32857444794E+03 -0.17496827024E+03  0.17614064297E+03  0.43930882366E+03  0.15294330000E+03 0.  0.
<mgrwt>
<rscale>  0 0.40245089E+03</rscale>
<asrwt>0</asrwt>
<pdfrwt beam="1">  1        1 0.15524103E+00 0.40245089E+03</pdfrwt>
<pdfrwt beam="2">  1       -1 0.54441541E-01 0.40245089E+03</pdfrwt>
<totfact> 0.54368347E+01</totfact>
</mgrwt>
</event>
<event>
 4    1  0.2293715E-008  0.9733119E+03  0.7818608E-02  0.9338310E-01
         -1   -1    0    0    0  501 -0.00000000000E+00  0.00000000000E+00  0.15047706824E+04  0.15047706824E+04  0.50400000000E-02 0.  1.
          1   -1    0    0  501    0  0.00000000000E+00 -0.00000000000E+00 -0.15478697684E+04  0.15478697684E+04  0.50400000000E-02 0. -1.
    8880022    1    1    2    0    0  0.21113654438E+03  0.93774505516E+03 -0.11971891447E+04  0.15429186401E+04  0.15294330000E+03 0.  0.
    8880022    1    1    2    0    0 -0.21113654438E+03 -0.93774505516E+03  0.11540900587E+04  0.15097218106E+04  0.15294330000E+03 0.  0.
<mgrwt>
<rscale>  0 0.97331191E+03</rscale>
<asrwt>0</asrwt>
<pdfrwt beam="1">  1        1 0.23813381E+00 0.97331191E+03</pdfrwt>
<pdfrwt beam="2">  1       -1 0.23150318E+00 0.97331191E+03</pdfrwt>
<totfact> 0.56719998E-01</totfact>
</mgrwt>
</event>
<event>
 4    1  0.2293715E-008  0.7085938E+03  0.7818608E-02  0.9702648E-01
          1   -1    0    0  501    0  0.00000000000E+00  0.00000000000E+00  0.99742720841E+03  0.99742720842E+03  0.50400000000E-02 0. -1.
         -1   -1    0    0    0  501 -0.00000000000E+00 -0.00000000000E+00 -0.12802020363E+04  0.12802020363E+04  0.50400000000E-02 0.  1.
    8880022    1    1    2    0    0 -0.19143678821E+03 -0.66488000208E+03  0.74570503723E+03  0.10286793070E+04  0.15294330000E+03 0. -1.
    8880022    1    1    2    0    0  0.19143678821E+03  0.66488000208E+03 -0.10284798651E+04  0.12489499378E+04  0.15294330000E+03 0.  0.
<mgrwt>
<rscale>  0 0.70859376E+03</rscale>
<asrwt>0</asrwt>
<pdfrwt beam="1">  1        1 0.15345034E+00 0.70859376E+03</pdfrwt>
<pdfrwt beam="2">  1       -1 0.19695416E+00 0.70859376E+03</pdfrwt>
<totfact> 0.25213374E+00</totfact>
</mgrwt>
</event>
<event>
 4    1  0.2293715E-008  0.5655246E+03  0.7818608E-02  0.9979631E-01
          1   -1    0    0  501    0  0.00000000000E+00  0.00000000000E+00  0.10612376588E+04  0.10612376588E+04  0.50400000000E-02 0. -1.
         -1   -1    0    0    0  501 -0.00000000000E+00 -0.00000000000E+00 -0.11583914883E+04  0.11583914883E+04  0.50400000000E-02 0.  1.
    8880022    1    1    2    0    0 -0.86055116571E+02 -0.53760668057E+03  0.90602059861E+03  0.10680315558E+04  0.15294330000E+03 0.  0.
    8880022    1    1    2    0    0  0.86055116571E+02  0.53760668057E+03 -0.10031744281E+04  0.11515975913E+04  0.15294330000E+03 0.  0.
<mgrwt>
<rscale>  0 0.56552461E+03</rscale>
<asrwt>0</asrwt>
<pdfrwt beam="1">  1        1 0.16326733E+00 0.56552461E+03</pdfrwt>
<pdfrwt beam="2">  1       -1 0.17821407E+00 0.56552461E+03</pdfrwt>
<totfact> 0.31385682E+00</totfact>
</mgrwt>
</event>
<event>
 4    1  0.2293715E-008  0.4042401E+03  0.7818608E-02  0.1042321E+00
          1   -1    0    0  501    0  0.00000000000E+00  0.00000000000E+00  0.29581140056E+03  0.29581140060E+03  0.50400000000E-02 0. -1.
         -1   -1    0    0    0  501 -0.00000000000E+00 -0.00000000000E+00 -0.98050956652E+03  0.98050956653E+03  0.50400000000E-02 0.  1.
    8880022    1    1    2    0    0 -0.32844718112E+03 -0.17927869699E+03 -0.76402119284E+03  0.86437170135E+03  0.15294330000E+03 0.  0.
    8880022    1    1    2    0    0  0.32844718112E+03  0.17927869699E+03  0.79323026874E+02  0.41194926579E+03  0.15294330000E+03 0.  0.
<mgrwt>
<rscale>  0 0.40424010E+03</rscale>
<asrwt>0</asrwt>
<pdfrwt beam="1">  1        1 0.45509447E-01 0.40424010E+03</pdfrwt>
<pdfrwt beam="2">  1       -1 0.15084762E+00 0.40424010E+03</pdfrwt>
<totfact> 0.32715766E+01</totfact>
</mgrwt>
</event>
<event>
 4    1  0.2293715E-008  0.2832641E+03  0.7818608E-02  0.1093919E+00
         -1   -1    0    0    0  501 -0.00000000000E+00  0.00000000000E+00  0.83600013270E+03  0.83600013272E+03  0.50400000000E-02 0.  1.
          1   -1    0    0  501    0  0.00000000000E+00 -0.00000000000E+00 -0.37412757036E+03  0.37412757039E+03  0.50400000000E-02 0. -1.
    8880022    1    1    2    0    0  0.12094589338E+03 -0.20547253351E+03  0.75264693300E+03  0.80418650195E+03  0.15294330000E+03 0.  0.
    8880022    1    1    2    0    0 -0.12094589338E+03  0.20547253351E+03 -0.29077437066E+03  0.40594120116E+03  0.15294330000E+03 0.  0.
<mgrwt>
<rscale>  0 0.28326405E+03</rscale>
<asrwt>0</asrwt>
<pdfrwt beam="1">  1        1 0.57558089E-01 0.28326405E+03</pdfrwt>
<pdfrwt beam="2">  1       -1 0.12861540E+00 0.28326405E+03</pdfrwt>
<totfact> 0.37290241E+01</totfact>
</mgrwt>
</event>
<event>
 4    1  0.2293715E-008  0.6618721E+03  0.7818608E-02  0.9784754E-01
          1   -1    0    0  501    0  0.00000000000E+00  0.00000000000E+00  0.20908259734E+04  0.20908259734E+04  0.50400000000E-02 0. -1.
         -1   -1    0    0    0  501 -0.00000000000E+00 -0.00000000000E+00 -0.33635050523E+03  0.33635050527E+03  0.50400000000E-02 0.  1.
    8880022    1    1    2    0    0 -0.17544896025E+03 -0.61959722062E+03  0.16224555138E+04  0.17522661329E+04  0.15294330000E+03 0.  0.
    8880022    1    1    2    0    0  0.17544896025E+03  0.61959722062E+03  0.13201995443E+03  0.67491034577E+03  0.15294330000E+03 0.  0.
<mgrwt>
<rscale>  0 0.66187212E+03</rscale>
<asrwt>0</asrwt>
<pdfrwt beam="1">  1        1 0.32166554E+00 0.66187212E+03</pdfrwt>
<pdfrwt beam="2">  1       -1 0.51746231E-01 0.66187212E+03</pdfrwt>
<totfact> 0.10328631E+01</totfact>
</mgrwt>
</event>
<event>
 4    1  0.2293715E-008  0.1068588E+04  0.7818608E-02  0.9236361E-01
          1   -1    0    0  501    0  0.00000000000E+00  0.00000000000E+00  0.96678217778E+03  0.96678217779E+03  0.50400000000E-02 0. -1.
         -1   -1    0    0    0  501 -0.00000000000E+00 -0.00000000000E+00 -0.17757421841E+04  0.17757421841E+04  0.50400000000E-02 0.  1.
    8880022    1    1    2    0    0 -0.82584683091E+03  0.66065489299E+03  0.38903191195E+03  0.11372006671E+04  0.15294330000E+03 0.  0.
    8880022    1    1    2    0    0  0.82584683091E+03 -0.66065489299E+03 -0.11979919183E+04  0.16053236948E+04  0.15294330000E+03 0.  0.
<mgrwt>
<rscale>  0 0.10685876E+04</rscale>
<asrwt>0</asrwt>
<pdfrwt beam="1">  1        1 0.14873572E+00 0.10685876E+04</pdfrwt>
<pdfrwt beam="2">  1       -1 0.27319110E+00 0.10685876E+04</pdfrwt>
<totfact> 0.79233457E-01</totfact>
</mgrwt>
</event>
<event>
 4    1  0.2293715E-008  0.6479862E+03  0.7818608E-02  0.9810565E-01
         -1   -1    0    0    0  501 -0.00000000000E+00  0.00000000000E+00  0.10871960247E+04  0.10871960247E+04  0.50400000000E-02 0.  1.
          1   -1    0    0  501    0  0.00000000000E+00 -0.00000000000E+00 -0.39946803170E+03  0.39946803173E+03  0.50400000000E-02 0. -1.
    8880022    1    1    2    0    0 -0.36770984565E+03  0.51115944207E+03  0.20844530466E+03  0.68068759637E+03  0.15294330000E+03 0.  0.
    8880022    1    1    2    0    0  0.36770984565E+03 -0.51115944207E+03  0.47928268833E+03  0.80597646005E+03  0.15294330000E+03 0.  0.
<mgrwt>
<rscale>  0 0.64798623E+03</rscale>
<asrwt>0</asrwt>
<pdfrwt beam="1">  1        1 0.61456621E-01 0.64798623E+03</pdfrwt>
<pdfrwt beam="2">  1       -1 0.16726092E+00 0.64798623E+03</pdfrwt>
<totfact> 0.16113118E+01</totfact>
</mgrwt>
</event>
