<event>
 4    5  0.7214169E-008  0.1306993E+04  0.7818608E-02  0.9059544E-01
         -1   -1    0    0    0  501 -0.00000000000E+00  0.00000000000E+00  0.54554571307E+03  0.54554571310E+03  0.50400000000E-02 0.  1.
          1   -1    0    0  501    0  0.00000000000E+00 -0.00000000000E+00 -0.33409389487E+04  0.33409389487E+04  0.50400000000E-02 0. -1.
    8880023    1    1    2    0    0  0.10510337316E+04 -0.41200527476E+03 -0.65531152480E+03  0.14620751185E+04  0.65864270000E+03 0.  0.
    8880022    1    1    2    0    0 -0.10510337316E+04  0.41200527476E+03 -0.21400817108E+04  0.24244095433E+04  0.15294330000E+03 0.  0.
<mgrwt>
<rscale>  0 0.12628634E+04</rscale>
<asrwt>0</asrwt>
<pdfrwt beam="1">  1        1 0.51399059E+00 0.13069929E+04</pdfrwt>
<pdfrwt beam="2">  1       -1 0.83930112E-01 0.13069929E+04</pdfrwt>
<totfact> 0.46192812E-01</totfact>
</mgrwt>
</event>
<event>
 4    5  0.7214169E-008  0.8653135E+03  0.7818608E-02  0.9584181E-01
          1   -1    0    0  501    0  0.00000000000E+00  0.00000000000E+00  0.26735774735E+04  0.26735774735E+04  0.50400000000E-02 0. -1.
         -1   -1    0    0    0  501 -0.00000000000E+00 -0.00000000000E+00 -0.44284269945E+03  0.44284269947E+03  0.50400000000E-02 0.  1.
    8880023    1    1    2    0    0  0.45604627295E+03 -0.32707645500E+03  0.58094394189E+02  0.86726142275E+03  0.65864270000E+03 0.  1.
    8880022    1    1    2    0    0 -0.45604627295E+03  0.32707645500E+03  0.21726403799E+04  0.22491587502E+04  0.15294330000E+03 0.  0.
<mgrwt>
<rscale>  0 0.78352109E+03</rscale>
<asrwt>0</asrwt>
<pdfrwt beam="1">  1        1 0.41131961E+00 0.86531348E+03</pdfrwt>
<pdfrwt beam="2">  1       -1 0.68129646E-01 0.86531348E+03</pdfrwt>
<totfact> 0.23325636E+00</totfact>
</mgrwt>
</event>
<event>
 4    5  0.7214169E-008  0.8958145E+03  0.7818608E-02  0.9532784E-01
          1   -1    0    0  501    0  0.00000000000E+00  0.00000000000E+00  0.15435498212E+04  0.15435498212E+04  0.50400000000E-02 0. -1.
         -1   -1    0    0    0  501 -0.00000000000E+00 -0.00000000000E+00 -0.86672462431E+03  0.86672462433E+03  0.50400000000E-02 0.  1.
    8880023    1    1    2    0    0  0.17297904920E+03 -0.58202379680E+03 -0.53701825843E+03  0.10444483078E+04  0.65864270000E+03 0.  0.
    8880022    1    1    2    0    0 -0.17297904920E+03  0.58202379680E+03  0.12138434553E+04  0.13658261378E+04  0.15294330000E+03 0.  0.
<mgrwt>
<rscale>  0 0.81909325E+03</rscale>
<asrwt>0</asrwt>
<pdfrwt beam="1">  1        1 0.23746920E+00 0.89581452E+03</pdfrwt>
<pdfrwt beam="2">  1       -1 0.13334225E+00 0.89581452E+03</pdfrwt>
<totfact> 0.29613921E+00</totfact>
</mgrwt>
</event>
<event>
 4    5  0.7214169E-008  0.9800511E+03  0.7818608E-02  0.9408135E-01
         -1   -1    0    0    0  501 -0.00000000000E+00  0.00000000000E+00  0.93196482077E+03  0.93196482078E+03  0.50400000000E-02 0.  1.
          1   -1    0    0  501    0  0.00000000000E+00 -0.00000000000E+00 -0.12016651089E+04  0.12016651089E+04  0.50400000000E-02 0. -1.
    8880023    1    1    2    0    0 -0.27426776466E+03 -0.67191311149E+03  0.46931131598E+03  0.10866247529E+04  0.65864270000E+03 0.  1.
    8880022    1    1    2    0    0  0.27426776466E+03  0.67191311149E+03 -0.73901160414E+03  0.10470051768E+04  0.15294330000E+03 0.  0.
<mgrwt>
<rscale>  0 0.91409209E+03</rscale>
<asrwt>0</asrwt>
<pdfrwt beam="1">  1        1 0.18487156E+00 0.98005114E+03</pdfrwt>
<pdfrwt beam="2">  1       -1 0.14337920E+00 0.98005114E+03</pdfrwt>
<totfact> 0.42189681E+00</totfact>
</mgrwt>
</event>
<event>
 4    5  0.7214169E-008  0.1171620E+04  0.7818608E-02  0.9185215E-01
         -1   -1    0    0    0  501 -0.00000000000E+00  0.00000000000E+00  0.12861032229E+04  0.12861032229E+04  0.50400000000E-02 0.  1.
          1   -1    0    0  501    0  0.00000000000E+00 -0.00000000000E+00 -0.11402142960E+04  0.11402142960E+04  0.50400000000E-02 0. -1.
    8880023    1    1    2    0    0 -0.49372691852E+03 -0.83373726793E+03  0.63233897404E+03  0.13313703040E+04  0.65864270000E+03 0.  0.
    8880022    1    1    2    0    0  0.49372691852E+03  0.83373726793E+03 -0.48645004713E+03  0.10949472149E+04  0.15294330000E+03 0.  0.
<mgrwt>
<rscale>  0 0.11207342E+04</rscale>
<asrwt>0</asrwt>
<pdfrwt beam="1">  1        1 0.17541758E+00 0.11716204E+04</pdfrwt>
<pdfrwt beam="2">  1       -1 0.19786203E+00 0.11716204E+04</pdfrwt>
<totfact> 0.18116277E+00</totfact>
</mgrwt>
</event>
<event>
 4    5  0.7214169E-008  0.1024420E+04  0.7818608E-02  0.9350283E-01
          1   -1    0    0  501    0  0.00000000000E+00  0.00000000000E+00  0.13102730657E+04  0.13102730657E+04  0.50400000000E-02 0. -1.
         -1   -1    0    0    0  501 -0.00000000000E+00 -0.00000000000E+00 -0.69024498077E+03  0.69024498079E+03  0.50400000000E-02 0.  1.
    8880023    1    1    2    0    0 -0.69199800237E+03 -0.36981813051E+03  0.63308113158E+02  0.10263745946E+04  0.65864270000E+03 0.  0.
    8880022    1    1    2    0    0  0.69199800237E+03  0.36981813051E+03  0.55671997179E+03  0.97414345193E+03  0.15294330000E+03 0.  0.
<mgrwt>
<rscale>  0 0.96282595E+03</rscale>
<asrwt>0</asrwt>
<pdfrwt beam="1">  1        1 0.20158047E+00 0.10244203E+04</pdfrwt>
<pdfrwt beam="2">  1       -1 0.10619154E+00 0.10244203E+04</pdfrwt>
<totfact> 0.73850536E+00</totfact>
</mgrwt>
</event>
<event>
 4    5  0.7214169E-008  0.7249323E+03  0.7818608E-02  0.9906237E-01
         -1   -1    0    0    0  501 -0.00000000000E+00  0.00000000000E+00  0.23699975348E+03  0.23699975353E+03  0.50400000000E-02 0.  1.
          1   -1    0    0  501    0  0.00000000000E+00 -0.00000000000E+00 -0.12113052648E+04  0.12113052648E+04  0.50400000000E-02 0. -1.
    8880023    1    1    2    0    0  0.17773219963E+03  0.24520994315E+03 -0.58207294441E+03  0.92969660098E+03  0.65864270000E+03 0.  1.
    8880022    1    1    2    0    0 -0.17773219963E+03 -0.24520994315E+03 -0.39223256695E+03  0.51860841739E+03  0.15294330000E+03 0. -1.
<mgrwt>
<rscale>  0 0.59959973E+03</rscale>
<asrwt>0</asrwt>
<pdfrwt beam="1">  1        1 0.18635465E+00 0.72493231E+03</pdfrwt>
<pdfrwt beam="2">  1       -1 0.36461501E-01 0.72493231E+03</pdfrwt>
<totfact> 0.77440563E+01</totfact>
</mgrwt>
</event>
<event>
 4    5  0.7214169E-008  0.1603077E+04  0.7818608E-02  0.8840082E-01
          1   -1    0    0  501    0  0.00000000000E+00  0.00000000000E+00  0.21164240477E+04  0.21164240477E+04  0.50400000000E-02 0. -1.
         -1   -1    0    0    0  501 -0.00000000000E+00 -0.00000000000E+00 -0.31270641459E+04  0.31270641459E+04  0.50400000000E-02 0.  1.
    8880023    1    1    2    0    0  0.62724181102E+03  0.13200812485E+04 -0.26153701614E+04  0.30675752769E+04  0.65864270000E+03 0.  1.
    8880022    1    1    2    0    0 -0.62724181102E+03 -0.13200812485E+04  0.16047300633E+04  0.21759129167E+04  0.15294330000E+03 0.  0.
<mgrwt>
<rscale>  0 0.15685865E+04</rscale>
<asrwt>0</asrwt>
<pdfrwt beam="1">  1        1 0.32560370E+00 0.16030774E+04</pdfrwt>
<pdfrwt beam="2">  1       -1 0.48108680E+00 0.16030774E+04</pdfrwt>
<totfact> 0.45624312E-03</totfact>
</mgrwt>
</event>
<event>
 4    5  0.7214169E-008  0.6721182E+03  0.7818608E-02  0.1014188E+00
         -1   -1    0    0    0  501 -0.00000000000E+00  0.00000000000E+00  0.38035603515E+03  0.38035603519E+03  0.50400000000E-02 0.  1.
          1   -1    0    0  501    0  0.00000000000E+00 -0.00000000000E+00 -0.55767218411E+03  0.55767218413E+03  0.50400000000E-02 0. -1.
    8880023    1    1    2    0    0  0.55547799011E+02 -0.12184852780E+03 -0.59395874708E+01  0.67214440909E+03  0.65864270000E+03 0.  0.
    8880022    1    1    2    0    0 -0.55547799011E+02  0.12184852780E+03 -0.17137656148E+03  0.26588381023E+03  0.15294330000E+03 0.  0.
<mgrwt>
<rscale>  0 0.49843655E+03</rscale>
<asrwt>0</asrwt>
<pdfrwt beam="1">  1        1 0.85795721E-01 0.67211817E+03</pdfrwt>
<pdfrwt beam="2">  1       -1 0.58516313E-01 0.67211817E+03</pdfrwt>
<totfact> 0.11510933E+02</totfact>
</mgrwt>
</event>
<event>
 4    5  0.7214169E-008  0.1354307E+04  0.7818608E-02  0.9020026E-01
         -1   -1    0    0    0  501 -0.00000000000E+00  0.00000000000E+00  0.11262448048E+04  0.11262448048E+04  0.50400000000E-02 0.  1.
          1   -1    0    0  501    0  0.00000000000E+00 -0.00000000000E+00 -0.14999297016E+04  0.14999297016E+04  0.50400000000E-02 0. -1.
    8880023    1    1    2    0    0 -0.45832668443E+03  0.10909965978E+04  0.62496936588E+02  0.13557481328E+04  0.65864270000E+03 0. -1.
    8880022    1    1    2    0    0  0.45832668443E+03 -0.10909965978E+04 -0.43618183337E+03  0.12704263737E+04  0.15294330000E+03 0.  0.
<mgrwt>
<rscale>  0 0.13120978E+04</rscale>
<asrwt>0</asrwt>
<pdfrwt beam="1">  1        1 0.23075841E+00 0.13543069E+04</pdfrwt>
<pdfrwt beam="2">  1       -1 0.17326843E+00 0.13543069E+04</pdfrwt>
<totfact> 0.14680378E+00</totfact>
</mgrwt>
</event>
<event>
 4    5  0.7214169E-008  0.9596853E+03  0.7818608E-02  0.9436314E-01
         -1   -1    0    0    0  501 -0.00000000000E+00  0.00000000000E+00  0.98487717684E+03  0.98487717685E+03  0.50400000000E-02 0.  1.
          1   -1    0    0  501    0  0.00000000000E+00 -0.00000000000E+00 -0.19361674416E+04  0.19361674416E+04  0.50400000000E-02 0. -1.
    8880023    1    1    2    0    0 -0.43600721830E+02  0.69662378905E+03  0.65573691156E+03  0.11623195902E+04  0.65864270000E+03 0.  0.
    8880022    1    1    2    0    0  0.43600721830E+02 -0.69662378905E+03 -0.16070271763E+04  0.17587250282E+04  0.15294330000E+03 0.  0.
<mgrwt>
<rscale>  0 0.89146509E+03</rscale>
<asrwt>0</asrwt>
<pdfrwt beam="1">  1        1 0.29787191E+00 0.95968533E+03</pdfrwt>
<pdfrwt beam="2">  1       -1 0.15151957E+00 0.95968533E+03</pdfrwt>
<totfact> 0.11365923E+00</totfact>
</mgrwt>
</event>
<event>
 4    5  0.7214169E-008  0.1054570E+04  0.7818608E-02  0.9313408E-01
          1   -1    0    0  501    0  0.00000000000E+00  0.00000000000E+00  0.31403737757E+04  0.31403737757E+04  0.50400000000E-02 0. -1.
         -1   -1    0    0    0  501 -0.00000000000E+00 -0.00000000000E+00 -0.58381282204E+03  0.58381282206E+03  0.50400000000E-02 0.  1.
    8880023    1    1    2    0    0 -0.80454730603E+03 -0.17610093678E+03  0.22014449434E+02  0.10547998625E+04  0.65864270000E+03 0.  0.
    8880022    1    1    2    0    0  0.80454730603E+03  0.17610093678E+03  0.25345465042E+04  0.26693867353E+04  0.15294330000E+03 0.  0.
<mgrwt>
<rscale>  0 0.99557846E+03</rscale>
<asrwt>0</asrwt>
<pdfrwt beam="1">  1        1 0.48313442E+00 0.10545701E+04</pdfrwt>
<pdfrwt beam="2">  1       -1 0.89817358E-01 0.10545701E+04</pdfrwt>
<totfact> 0.58383051E-01</totfact>
</mgrwt>
</event>
<event>
 4    5  0.7214169E-008  0.7837458E+03  0.7818608E-02  0.9747111E-01
          1   -1    0    0  501    0  0.00000000000E+00  0.00000000000E+00  0.18619806715E+04  0.18619806715E+04  0.50400000000E-02 0. -1.
         -1   -1    0    0    0  501 -0.00000000000E+00 -0.00000000000E+00 -0.11664535483E+04  0.11664535483E+04  0.50400000000E-02 0.  1.
    8880023    1    1    2    0    0  0.15787102529E+03  0.39436528354E+03 -0.10018767988E+04  0.12720120140E+04  0.65864270000E+03 0.  1.
    8880022    1    1    2    0    0 -0.15787102529E+03 -0.39436528354E+03  0.16974039220E+04  0.17564222058E+04  0.15294330000E+03 0.  0.
<mgrwt>
<rscale>  0 0.68279808E+03</rscale>
<asrwt>0</asrwt>
<pdfrwt beam="1">  1        1 0.28645856E+00 0.78374578E+03</pdfrwt>
<pdfrwt beam="2">  1       -1 0.17945439E+00 0.78374578E+03</pdfrwt>
<totfact> 0.81584666E-01</totfact>
</mgrwt>
</event>
<event>
 4    5  0.7214169E-008  0.7575517E+03  0.7818608E-02  0.9811488E-01
         -1   -1    0    0    0  501 -0.00000000000E+00  0.00000000000E+00  0.91259009551E+03  0.91259009552E+03  0.50400000000E-02 0.  1.
          1   -1    0    0  501    0  0.00000000000E+00 -0.00000000000E+00 -0.39834104967E+03  0.39834104970E+03  0.50400000000E-02 0. -1.
    8880023    1    1    2    0    0 -0.19962141255E+03 -0.31658431833E+03  0.49743883824E+03  0.90627255449E+03  0.65864270000E+03 0.  0.
    8880022    1    1    2    0    0  0.19962141255E+03  0.31658431833E+03  0.16810207597E+02  0.40465859074E+03  0.15294330000E+03 0.  0.
<mgrwt>
<rscale>  0 0.64749680E+03</rscale>
<asrwt>0</asrwt>
<pdfrwt beam="1">  1        1 0.61283239E-01 0.75755168E+03</pdfrwt>
<pdfrwt beam="2">  1       -1 0.14039847E+00 0.75755168E+03</pdfrwt>
<totfact> 0.25691129E+01</totfact>
</mgrwt>
</event>
<event>
 4    5  0.7214169E-008  0.8599059E+03  0.7818608E-02  0.9593731E-01
         -1   -1    0    0    0  501 -0.00000000000E+00  0.00000000000E+00  0.59724629876E+03  0.59724629879E+03  0.50400000000E-02 0.  1.
          1   -1    0    0  501    0  0.00000000000E+00 -0.00000000000E+00 -0.10695839904E+04  0.10695839904E+04  0.50400000000E-02 0. -1.
    8880023    1    1    2    0    0 -0.12098049125E+03 -0.53943641953E+03  0.88701189339E+02  0.86446864445E+03  0.65864270000E+03 0.  1.
    8880022    1    1    2    0    0  0.12098049125E+03  0.53943641953E+03 -0.56103888098E+03  0.80236164475E+03  0.15294330000E+03 0. -1.
<mgrwt>
<rscale>  0 0.77712505E+03</rscale>
<asrwt>0</asrwt>
<pdfrwt beam="1">  1        1 0.16455138E+00 0.85990589E+03</pdfrwt>
<pdfrwt beam="2">  1       -1 0.91884046E-01 0.85990589E+03</pdfrwt>
<totfact> 0.15694974E+01</totfact>
</mgrwt>
</event>
<event>
 4    5  0.7214169E-008  0.8609606E+03  0.7818608E-02  0.9591857E-01
         -1   -1    0    0    0  501 -0.00000000000E+00  0.00000000000E+00  0.26904521032E+03  0.26904521037E+03  0.50400000000E-02 0.  1.
          1   -1    0    0  501    0  0.00000000000E+00 -0.00000000000E+00 -0.26250764454E+04  0.26250764454E+04  0.50400000000E-02 0. -1.
    8880023    1    1    2    0    0  0.19440743078E+03  0.51927711211E+03 -0.60829299789E+03  0.10541696001E+04  0.65864270000E+03 0.  1.
    8880022    1    1    2    0    0 -0.19440743078E+03 -0.51927711211E+03 -0.17477382372E+04  0.18399520557E+04  0.15294330000E+03 0.  0.
<mgrwt>
<rscale>  0 0.77837492E+03</rscale>
<asrwt>0</asrwt>
<pdfrwt beam="1">  1        1 0.40385790E+00 0.86096061E+03</pdfrwt>
<pdfrwt beam="2">  1       -1 0.41391573E-01 0.86096061E+03</pdfrwt>
<totfact> 0.65902973E+00</totfact>
</mgrwt>
</event>
<event>
 4    5  0.7214169E-008  0.1371309E+04  0.7818608E-02  0.9006304E-01
          1   -1    0    0  501    0  0.00000000000E+00  0.00000000000E+00  0.21813954643E+04  0.21813954643E+04  0.50400000000E-02 0. -1.
         -1   -1    0    0    0  501 -0.00000000000E+00 -0.00000000000E+00 -0.12470997513E+04  0.12470997513E+04  0.50400000000E-02 0.  1.
    8880023    1    1    2    0    0  0.96002883775E+03 -0.72458368124E+03  0.15492667051E+04  0.20689887410E+04  0.65864270000E+03 0.  0.
    8880022    1    1    2    0    0 -0.96002883775E+03  0.72458368124E+03 -0.61497099206E+03  0.13595064746E+04  0.15294330000E+03 0.  0.
<mgrwt>
<rscale>  0 0.13297457E+04</rscale>
<asrwt>0</asrwt>
<pdfrwt beam="1">  1        1 0.33559930E+00 0.13713085E+04</pdfrwt>
<pdfrwt beam="2">  1       -1 0.19186150E+00 0.13713085E+04</pdfrwt>
<totfact> 0.36943913E-01</totfact>
</mgrwt>
</event>
<event>
 4    5  0.7214169E-008  0.6919419E+03  0.7818608E-02  0.1003243E+00
          1   -1    0    0  501    0  0.00000000000E+00  0.00000000000E+00  0.78129505424E+03  0.78129505425E+03  0.50400000000E-02 0. -1.
         -1   -1    0    0    0  501 -0.00000000000E+00 -0.00000000000E+00 -0.11213691733E+04  0.11213691733E+04  0.50400000000E-02 0.  1.
    8880023    1    1    2    0    0  0.20948686836E+03  0.32995133670E+02 -0.98672095545E+03  0.12051563704E+04  0.65864270000E+03 0.  1.
    8880022    1    1    2    0    0 -0.20948686836E+03 -0.32995133670E+02  0.64664683637E+03  0.69750785721E+03  0.15294330000E+03 0.  0.
<mgrwt>
<rscale>  0 0.54250847E+03</rscale>
<asrwt>0</asrwt>
<pdfrwt beam="1">  1        1 0.12019924E+00 0.69194193E+03</pdfrwt>
<pdfrwt beam="2">  1       -1 0.17251834E+00 0.69194193E+03</pdfrwt>
<totfact> 0.56543812E+00</totfact>
</mgrwt>
</event>
<event>
 4    5  0.7214169E-008  0.1225011E+04  0.7818608E-02  0.9133185E-01
         -1   -1    0    0    0  501 -0.00000000000E+00  0.00000000000E+00  0.37601711606E+03  0.37601711610E+03  0.50400000000E-02 0.  1.
          1   -1    0    0  501    0  0.00000000000E+00 -0.00000000000E+00 -0.35643830238E+04  0.35643830238E+04  0.50400000000E-02 0. -1.
    8880023    1    1    2    0    0  0.99680196611E+03  0.27060673078E+03 -0.13256183762E+04  0.18049699299E+04  0.65864270000E+03 0. -1.
    8880022    1    1    2    0    0 -0.99680196611E+03 -0.27060673078E+03 -0.18627475316E+04  0.21354302100E+04  0.15294330000E+03 0.  0.
<mgrwt>
<rscale>  0 0.11770502E+04</rscale>
<asrwt>0</asrwt>
<pdfrwt beam="1">  1        1 0.54836660E+00 0.12250112E+04</pdfrwt>
<pdfrwt beam="2">  1       -1 0.57848790E-01 0.12250112E+04</pdfrwt>
<totfact> 0.67636469E-01</totfact>
</mgrwt>
</event>
<event>
 4    5  0.7214169E-008  0.6637958E+03  0.7818608E-02  0.1020566E+00
         -1   -1    0    0    0  501 -0.00000000000E+00  0.00000000000E+00  0.11424181005E+04  0.11424181005E+04  0.50400000000E-02 0.  1.
          1   -1    0    0  501    0  0.00000000000E+00 -0.00000000000E+00 -0.15451112378E+04  0.15451112378E+04  0.50400000000E-02 0. -1.
    8880023    1    1    2    0    0  0.63787636137E+02  0.52400662555E+02  0.10403379398E+04  0.12340696606E+04  0.65864270000E+03 0.  1.
    8880022    1    1    2    0    0 -0.63787636137E+02 -0.52400662555E+02 -0.14430310771E+04  0.14534596776E+04  0.15294330000E+03 0.  0.
<mgrwt>
<rscale>  0 0.47483001E+03</rscale>
<asrwt>0</asrwt>
<pdfrwt beam="1">  1        1 0.23770942E+00 0.66379583E+03</pdfrwt>
<pdfrwt beam="2">  1       -1 0.17575663E+00 0.66379583E+03</pdfrwt>
<totfact> 0.14544304E+00</totfact>
</mgrwt>
</event>
<event>
 4    5  0.7214169E-008  0.7966945E+03  0.7818608E-02  0.9717989E-01
          1   -1    0    0  501    0  0.00000000000E+00  0.00000000000E+00  0.26513446592E+04  0.26513446592E+04  0.50400000000E-02 0. -1.
         -1   -1    0    0    0  501 -0.00000000000E+00 -0.00000000000E+00 -0.39289813159E+03  0.39289813162E+03  0.50400000000E-02 0.  1.
    8880023    1    1    2    0    0 -0.44822853191E+03  0.17817441978E+01  0.63989107750E+02  0.79926016015E+03  0.65864270000E+03 0.  1.
    8880022    1    1    2    0    0  0.44822853191E+03 -0.17817441978E+01  0.21944574199E+04  0.22449826307E+04  0.15294330000E+03 0.  0.
<mgrwt>
<rscale>  0 0.69955751E+03</rscale>
<asrwt>0</asrwt>
<pdfrwt beam="1">  1        1 0.40789917E+00 0.79669454E+03</pdfrwt>
<pdfrwt beam="2">  1       -1 0.60445868E-01 0.79669454E+03</pdfrwt>
<totfact> 0.31106248E+00</totfact>
</mgrwt>
</event>
<event>
 4    5  0.7214169E-008  0.1198300E+04  0.7818608E-02  0.9158777E-01
         -1   -1    0    0    0  501 -0.00000000000E+00  0.00000000000E+00  0.76232465667E+03  0.76232465669E+03  0.50400000000E-02 0.  1.
          1   -1    0    0  501    0  0.00000000000E+00 -0.00000000000E+00 -0.19426198812E+04  0.19426198812E+04  0.50400000000E-02 0. -1.
    8880023    1    1    2    0    0 -0.53690544256E+03  0.84489318239E+03 -0.67285410340E+02  0.12001872673E+04  0.65864270000E+03 0.  1.
    8880022    1    1    2    0    0  0.53690544256E+03 -0.84489318239E+03 -0.11130098142E+04  0.15047572706E+04  0.15294330000E+03 0.  0.
<mgrwt>
<rscale>  0 0.11489238E+04</rscale>
<asrwt>0</asrwt>
<pdfrwt beam="1">  1        1 0.29886460E+00 0.11982997E+04</pdfrwt>
<pdfrwt beam="2">  1       -1 0.11728072E+00 0.11982997E+04</pdfrwt>
<totfact> 0.21012672E+00</totfact>
</mgrwt>
</event>
<event>
 4    5  0.7214169E-008  0.8297266E+03  0.7818608E-02  0.9649865E-01
          1   -1    0    0  501    0  0.00000000000E+00  0.00000000000E+00  0.19027920894E+04  0.19027920894E+04  0.50400000000E-02 0. -1.
         -1   -1    0    0    0  501 -0.00000000000E+00 -0.00000000000E+00 -0.35039554625E+03  0.35039554629E+03  0.50400000000E-02 0.  1.
    8880023    1    1    2    0    0  0.41821592184E+03  0.28236755805E+03  0.27972465546E+03  0.87560955012E+03  0.65864270000E+03 0.  1.
    8880022    1    1    2    0    0 -0.41821592184E+03 -0.28236755805E+03  0.12726718877E+04  0.13775780856E+04  0.15294330000E+03 0.  0.
<mgrwt>
<rscale>  0 0.74081924E+03</rscale>
<asrwt>0</asrwt>
<pdfrwt beam="1">  1        1 0.29273725E+00 0.82972658E+03</pdfrwt>
<pdfrwt beam="2">  1       -1 0.53907006E-01 0.82972658E+03</pdfrwt>
<totfact> 0.12425543E+01</totfact>
</mgrwt>
</event>
<event>
 4    5  0.7214169E-008  0.1645962E+04  0.7818608E-02  0.8812900E-01
          1   -1    0    0  501    0  0.00000000000E+00  0.00000000000E+00  0.36459684383E+04  0.36459684383E+04  0.50400000000E-02 0. -1.
         -1   -1    0    0    0  501 -0.00000000000E+00 -0.00000000000E+00 -0.82143811964E+03  0.82143811966E+03  0.50400000000E-02 0.  1.
    8880023    1    1    2    0    0 -0.13823014169E+04 -0.60384187648E+03  0.55303412118E+03  0.17363868130E+04  0.65864270000E+03 0.  1.
    8880022    1    1    2    0    0  0.13823014169E+04  0.60384187648E+03  0.22714961975E+04  0.27310197449E+04  0.15294330000E+03 0.  0.
<mgrwt>
<rscale>  0 0.16125084E+04</rscale>
<asrwt>0</asrwt>
<pdfrwt beam="1">  1        1 0.56091822E+00 0.16459625E+04</pdfrwt>
<pdfrwt beam="2">  1       -1 0.12637509E+00 0.16459625E+04</pdfrwt>
<totfact> 0.98081250E-02</totfact>
</mgrwt>
</event>
<event>
 4    5  0.7214169E-008  0.1411649E+04  0.7818608E-02  0.8974683E-01
         -1   -1    0    0    0  501 -0.00000000000E+00  0.00000000000E+00  0.81906057812E+03  0.81906057813E+03  0.50400000000E-02 0.  1.
          1   -1    0    0  501    0  0.00000000000E+00 -0.00000000000E+00 -0.29110394485E+04  0.29110394485E+04  0.50400000000E-02 0. -1.
    8880023    1    1    2    0    0  0.15923904632E+03 -0.12383806583E+04 -0.20275144316E+04  0.24705401647E+04  0.65864270000E+03 0.  0.
    8880022    1    1    2    0    0 -0.15923904632E+03  0.12383806583E+04 -0.64464438736E+02  0.12595598619E+04  0.15294330000E+03 0.  0.
<mgrwt>
<rscale>  0 0.13715367E+04</rscale>
<asrwt>0</asrwt>
<pdfrwt beam="1">  1        1 0.44785222E+00 0.14116494E+04</pdfrwt>
<pdfrwt beam="2">  1       -1 0.12600932E+00 0.14116494E+04</pdfrwt>
<totfact> 0.36708525E-01</totfact>
</mgrwt>
</event>
<event>
 4    5  0.7214169E-008  0.1335385E+04  0.7818608E-02  0.9035590E-01
          1   -1    0    0  501    0  0.00000000000E+00  0.00000000000E+00  0.23474757197E+04  0.23474757197E+04  0.50400000000E-02 0. -1.
         -1   -1    0    0    0  501 -0.00000000000E+00 -0.00000000000E+00 -0.11814646699E+04  0.11814646699E+04  0.50400000000E-02 0.  1.
    8880023    1    1    2    0    0 -0.48127917036E+02  0.11606574079E+04 -0.55567588755E+03  0.14463843933E+04  0.65864270000E+03 0.  0.
    8880022    1    1    2    0    0  0.48127917036E+02 -0.11606574079E+04  0.17216869373E+04  0.20825559964E+04  0.15294330000E+03 0.  0.
<mgrwt>
<rscale>  0 0.12924300E+04</rscale>
<asrwt>0</asrwt>
<pdfrwt beam="1">  1        1 0.36115010E+00 0.13353846E+04</pdfrwt>
<pdfrwt beam="2">  1       -1 0.18176380E+00 0.13353846E+04</pdfrwt>
<totfact> 0.33716583E-01</totfact>
</mgrwt>
</event>
<event>
 4    5  0.7373190E-008  0.1357310E+04  0.7818608E-02  0.9017585E-01
         -1   -1    0    0    0  501 -0.00000000000E+00  0.00000000000E+00  0.14551880232E+04  0.14551880232E+04  0.50400000000E-02 0.  1.
          1   -1    0    0  501    0  0.00000000000E+00 -0.00000000000E+00 -0.26305029180E+04  0.26305029180E+04  0.50400000000E-02 0. -1.
    8880023    1    1    2    0    0  0.11688417478E+04  0.20564220524E+03  0.94301945289E+03  0.16527479066E+04  0.65864270000E+03 0.  1.
    8880022    1    1    2    0    0 -0.11688417478E+04 -0.20564220524E+03 -0.21183343477E+04  0.24329430346E+04  0.15294330000E+03 0.  0.
<mgrwt>
<rscale>  0 0.13152165E+04</rscale>
<asrwt>0</asrwt>
<pdfrwt beam="1">  1        1 0.40469276E+00 0.13573098E+04</pdfrwt>
<pdfrwt beam="2">  1       -1 0.22387508E+00 0.13573098E+04</pdfrwt>
<totfact> 0.10972074E-01</totfact>
</mgrwt>
</event>
<event>
 4    5  0.7214169E-008  0.1173438E+04  0.7818608E-02  0.9183385E-01
         -1   -1    0    0    0  501 -0.00000000000E+00  0.00000000000E+00  0.73794076403E+03  0.73794076405E+03  0.50400000000E-02 0.  1.
          1   -1    0    0  501    0  0.00000000000E+00 -0.00000000000E+00 -0.38307957043E+04  0.38307957043E+04  0.50400000000E-02 0. -1.
    8880023    1    1    2    0    0 -0.12415502045E+03  0.96318797545E+03  0.14736324206E+03  0.11826545043E+04  0.65864270000E+03 0.  0.
    8880022    1    1    2    0    0  0.12415502045E+03 -0.96318797545E+03 -0.32402181823E+04  0.33860819641E+04  0.15294330000E+03 0.  0.
<mgrwt>
<rscale>  0 0.11226576E+04</rscale>
<asrwt>0</asrwt>
<pdfrwt beam="1">  1        1 0.58935318E+00 0.11734376E+04</pdfrwt>
<pdfrwt beam="2">  1       -1 0.11352935E+00 0.11734376E+04</pdfrwt>
<totfact> 0.96439168E-02</totfact>
</mgrwt>
</event>
<event>
 4    5  0.7214169E-008  0.1305351E+04  0.7818608E-02  0.9060953E-01
         -1   -1    0    0    0  501 -0.00000000000E+00  0.00000000000E+00  0.72673228112E+03  0.72673228114E+03  0.50400000000E-02 0.  1.
          1   -1    0    0  501    0  0.00000000000E+00 -0.00000000000E+00 -0.25281045206E+04  0.25281045206E+04  0.50400000000E-02 0. -1.
    8880023    1    1    2    0    0 -0.53206119786E+03 -0.99349940752E+03 -0.16554428229E+04  0.21081819982E+04  0.65864270000E+03 0.  0.
    8880022    1    1    2    0    0  0.53206119786E+03  0.99349940752E+03 -0.14592941655E+03  0.11466548036E+04  0.15294330000E+03 0.  0.
<mgrwt>
<rscale>  0 0.12611511E+04</rscale>
<asrwt>0</asrwt>
<pdfrwt beam="1">  1        1 0.38893915E+00 0.13053507E+04</pdfrwt>
<pdfrwt beam="2">  1       -1 0.11180497E+00 0.13053507E+04</pdfrwt>
<totfact> 0.92845461E-01</totfact>
</mgrwt>
</event>
<event>
 4    5  0.7214169E-008  0.8364607E+03  0.7818608E-02  0.9636890E-01
         -1   -1    0    0    0  501 -0.00000000000E+00  0.00000000000E+00  0.74507148931E+03  0.74507148933E+03  0.50400000000E-02 0.  1.
          1   -1    0    0  501    0  0.00000000000E+00 -0.00000000000E+00 -0.14175823241E+04  0.14175823241E+04  0.50400000000E-02 0. -1.
    8880023    1    1    2    0    0  0.21541183497E+03  0.46845923903E+03  0.42663723709E+03  0.93898128608E+03  0.65864270000E+03 0.  0.
    8880022    1    1    2    0    0 -0.21541183497E+03 -0.46845923903E+03 -0.10991480719E+04  0.12236725274E+04  0.15294330000E+03 0.  0.
<mgrwt>
<rscale>  0 0.74901920E+03</rscale>
<asrwt>0</asrwt>
<pdfrwt beam="1">  1        1 0.21808959E+00 0.83646071E+03</pdfrwt>
<pdfrwt beam="2">  1       -1 0.11462638E+00 0.83646071E+03</pdfrwt>
<totfact> 0.53038740E+00</totfact>
</mgrwt>
</event>
<event>
 4    5  0.7214169E-008  0.8924049E+03  0.7818608E-02  0.9538336E-01
         -1   -1    0    0    0  501 -0.00000000000E+00  0.00000000000E+00  0.62119189541E+03  0.62119189543E+03  0.50400000000E-02 0.  1.
          1   -1    0    0  501    0  0.00000000000E+00 -0.00000000000E+00 -0.15854736838E+04  0.15854736838E+04  0.50400000000E-02 0. -1.
    8880023    1    1    2    0    0 -0.57106392861E+03 -0.19095081843E+03  0.17462647337E+03  0.90932988353E+03  0.65864270000E+03 0.  1.
    8880022    1    1    2    0    0  0.57106392861E+03  0.19095081843E+03 -0.11389082618E+04  0.12973356957E+04  0.15294330000E+03 0.  0.
<mgrwt>
<rscale>  0 0.81515527E+03</rscale>
<asrwt>0</asrwt>
<pdfrwt beam="1">  1        1 0.24391903E+00 0.89240486E+03</pdfrwt>
<pdfrwt beam="2">  1       -1 0.95567985E-01 0.89240486E+03</pdfrwt>
<totfact> 0.61549020E+00</totfact>
</mgrwt>
</event>
<event>
 4    5  0.7214169E-008  0.1218152E+04  0.7818608E-02  0.9139677E-01
         -1   -1    0    0    0  501 -0.00000000000E+00  0.00000000000E+00  0.17891991796E+04  0.17891991796E+04  0.50400000000E-02 0.  1.
          1   -1    0    0  501    0  0.00000000000E+00 -0.00000000000E+00 -0.10350230870E+04  0.10350230870E+04  0.50400000000E-02 0. -1.
    8880023    1    1    2    0    0  0.75813318741E+03 -0.68943241412E+03  0.11874818814E+04  0.17011779473E+04  0.65864270000E+03 0.  0.
    8880022    1    1    2    0    0 -0.75813318741E+03  0.68943241412E+03 -0.43330578877E+03  0.11230443193E+04  0.15294330000E+03 0.  0.
<mgrwt>
<rscale>  0 0.11698360E+04</rscale>
<asrwt>0</asrwt>
<pdfrwt beam="1">  1        1 0.15923432E+00 0.12181515E+04</pdfrwt>
<pdfrwt beam="2">  1       -1 0.27526141E+00 0.12181515E+04</pdfrwt>
<totfact> 0.66602749E-01</totfact>
</mgrwt>
</event>
<event>
 4    5  0.7214169E-008  0.1515001E+04  0.7818608E-02  0.8899115E-01
         -1   -1    0    0    0  501 -0.00000000000E+00  0.00000000000E+00  0.19560145496E+04  0.19560145496E+04  0.50400000000E-02 0.  1.
          1   -1    0    0  501    0  0.00000000000E+00 -0.00000000000E+00 -0.10701498799E+04  0.10701498799E+04  0.50400000000E-02 0. -1.
    8880023    1    1    2    0    0  0.69679772848E+03  0.11729836415E+04  0.55957409663E+03  0.16150390316E+04  0.65864270000E+03 0. -1.
    8880022    1    1    2    0    0 -0.69679772848E+03 -0.11729836415E+04  0.32629057303E+03  0.14111253979E+04  0.15294330000E+03 0.  1.
<mgrwt>
<rscale>  0 0.14781486E+04</rscale>
<asrwt>0</asrwt>
<pdfrwt beam="1">  1        1 0.16463844E+00 0.15150010E+04</pdfrwt>
<pdfrwt beam="2">  1       -1 0.30092532E+00 0.15150010E+04</pdfrwt>
<totfact> 0.41285460E-01</totfact>
</mgrwt>
</event>
<event>
 4    5  0.7214169E-008  0.8123815E+03  0.7818608E-02  0.9684638E-01
          1   -1    0    0  501    0  0.00000000000E+00  0.00000000000E+00  0.44960748244E+03  0.44960748247E+03  0.50400000000E-02 0. -1.
         -1   -1    0    0    0  501 -0.00000000000E+00 -0.00000000000E+00 -0.12856854429E+04  0.12856854429E+04  0.50400000000E-02 0.  1.
    8880023    1    1    2    0    0 -0.47548063376E+03  0.84641713890E+01 -0.92153503608E+03  0.12284911494E+04  0.65864270000E+03 0.  1.
    8880022    1    1    2    0    0  0.47548063376E+03 -0.84641713890E+01  0.85457075641E+02  0.50680177592E+03  0.15294330000E+03 0.  0.
<mgrwt>
<rscale>  0 0.71938876E+03</rscale>
<asrwt>0</asrwt>
<pdfrwt beam="1">  1        1 0.69170382E-01 0.81238149E+03</pdfrwt>
<pdfrwt beam="2">  1       -1 0.19779776E+00 0.81238149E+03</pdfrwt>
<totfact> 0.81887352E+00</totfact>
</mgrwt>
</event>
<event>
 4    5  0.7214169E-008  0.1049973E+04  0.7818608E-02  0.9318914E-01
         -1   -1    0    0    0  501 -0.00000000000E+00  0.00000000000E+00  0.19390917750E+04  0.19390917750E+04  0.50400000000E-02 0.  1.
          1   -1    0    0  501    0  0.00000000000E+00 -0.00000000000E+00 -0.11707181338E+04  0.11707181338E+04  0.50400000000E-02 0. -1.
    8880023    1    1    2    0    0  0.53951412569E+03 -0.61445736382E+03  0.16127892640E+04  0.19244564843E+04  0.65864270000E+03 0.  1.
    8880022    1    1    2    0    0 -0.53951412569E+03  0.61445736382E+03 -0.84441562287E+03  0.11853534245E+04  0.15294330000E+03 0.  0.
<mgrwt>
<rscale>  0 0.99060122E+03</rscale>
<asrwt>0</asrwt>
<pdfrwt beam="1">  1        1 0.18011048E+00 0.10499731E+04</pdfrwt>
<pdfrwt beam="2">  1       -1 0.29832181E+00 0.10499731E+04</pdfrwt>
<totfact> 0.38261778E-01</totfact>
</mgrwt>
</event>
<event>
 4    5  0.7214169E-008  0.9441114E+03  0.7818608E-02  0.9458638E-01
          1   -1    0    0  501    0  0.00000000000E+00  0.00000000000E+00  0.14360900466E+04  0.14360900466E+04  0.50400000000E-02 0. -1.
         -1   -1    0    0    0  501 -0.00000000000E+00 -0.00000000000E+00 -0.10293750088E+04  0.10293750088E+04  0.50400000000E-02 0.  1.
    8880023    1    1    2    0    0 -0.65480917607E+03 -0.16959106312E+03 -0.68895964712E+03  0.11687650694E+04  0.65864270000E+03 0.  1.
    8880022    1    1    2    0    0  0.65480917607E+03  0.16959106312E+03  0.10956746849E+04  0.12966999861E+04  0.15294330000E+03 0.  0.
<mgrwt>
<rscale>  0 0.87403220E+03</rscale>
<asrwt>0</asrwt>
<pdfrwt beam="1">  1        1 0.22093693E+00 0.94411143E+03</pdfrwt>
<pdfrwt beam="2">  1       -1 0.15836539E+00 0.94411143E+03</pdfrwt>
<totfact> 0.22081201E+00</totfact>
</mgrwt>
</event>
<event>
 4    5  0.7214169E-008  0.7444390E+03  0.7818608E-02  0.9847200E-01
          1   -1    0    0  501    0  0.00000000000E+00  0.00000000000E+00  0.37601539008E+04  0.37601539008E+04  0.50400000000E-02 0. -1.
         -1   -1    0    0    0  501 -0.00000000000E+00 -0.00000000000E+00 -0.36727589826E+03  0.36727589830E+03  0.50400000000E-02 0.  1.
    8880023    1    1    2    0    0  0.23134012532E+03  0.25857499019E+03  0.31890576138E+02  0.74512179826E+03  0.65864270000E+03 0.  1.
    8880022    1    1    2    0    0 -0.23134012532E+03 -0.25857499019E+03  0.33609874264E+04  0.33823080009E+04  0.15294330000E+03 0.  0.
<mgrwt>
<rscale>  0 0.62889876E+03</rscale>
<asrwt>0</asrwt>
<pdfrwt beam="1">  1        1 0.57848523E+00 0.74443904E+03</pdfrwt>
<pdfrwt beam="2">  1       -1 0.56503983E-01 0.74443904E+03</pdfrwt>
<totfact> 0.53878311E-01</totfact>
</mgrwt>
</event>
<event>
 4    5  0.7214169E-008  0.9210804E+03  0.7818608E-02  0.9493004E-01
          1   -1    0    0  501    0  0.00000000000E+00  0.00000000000E+00  0.57170096591E+03  0.57170096593E+03  0.50400000000E-02 0. -1.
         -1   -1    0    0    0  501 -0.00000000000E+00 -0.00000000000E+00 -0.19882267089E+04  0.19882267089E+04  0.50400000000E-02 0.  1.
    8880023    1    1    2    0    0  0.44691456003E+03 -0.46351507893E+03 -0.16234472648E+04  0.18665396005E+04  0.65864270000E+03 0.  1.
    8880022    1    1    2    0    0 -0.44691456003E+03  0.46351507893E+03  0.20692152185E+03  0.69338807430E+03  0.15294330000E+03 0.  0.
<mgrwt>
<rscale>  0 0.84801543E+03</rscale>
<asrwt>0</asrwt>
<pdfrwt beam="1">  1        1 0.87953996E-01 0.92108038E+03</pdfrwt>
<pdfrwt beam="2">  1       -1 0.30588103E+00 0.92108038E+03</pdfrwt>
<totfact> 0.11397783E+00</totfact>
</mgrwt>
</event>
<event>
 4    5  0.7214169E-008  0.1001132E+04  0.7818608E-02  0.9380078E-01
         -1   -1    0    0    0  501 -0.00000000000E+00  0.00000000000E+00  0.60066683299E+03  0.60066683301E+03  0.50400000000E-02 0.  1.
          1   -1    0    0  501    0  0.00000000000E+00 -0.00000000000E+00 -0.15313906951E+04  0.15313906951E+04  0.50400000000E-02 0. -1.
    8880023    1    1    2    0    0  0.49900295080E+03  0.56520069859E+03 -0.11002488695E+03  0.10071600948E+04  0.65864270000E+03 0.  0.
    8880022    1    1    2    0    0 -0.49900295080E+03 -0.56520069859E+03 -0.82069897513E+03  0.11248974333E+04  0.15294330000E+03 0.  0.
<mgrwt>
<rscale>  0 0.93733502E+03</rscale>
<asrwt>0</asrwt>
<pdfrwt beam="1">  1        1 0.23559857E+00 0.10011323E+04</pdfrwt>
<pdfrwt beam="2">  1       -1 0.92410283E-01 0.10011323E+04</pdfrwt>
<totfact> 0.71293451E+00</totfact>
</mgrwt>
</event>
<event>
 4    5  0.7601952E-008  0.7478234E+03  0.7818608E-02  0.9837717E-01
          1   -1    0    0  501    0  0.00000000000E+00  0.00000000000E+00  0.14820244094E+04  0.14820244094E+04  0.50400000000E-02 0. -1.
         -1   -1    0    0    0  501 -0.00000000000E+00 -0.00000000000E+00 -0.18995195473E+04  0.18995195473E+04  0.50400000000E-02 0.  1.
    8880023    1    1    2    0    0  0.17558251700E+03 -0.30757191146E+03 -0.17984421069E+04  0.19477253192E+04  0.65864270000E+03 0.  0.
    8880022    1    1    2    0    0 -0.17558251700E+03  0.30757191146E+03  0.13809469690E+04  0.14338186375E+04  0.15294330000E+03 0. -1.
<mgrwt>
<rscale>  0 0.63377115E+03</rscale>
<asrwt>0</asrwt>
<pdfrwt beam="1">  1        1 0.22800376E+00 0.74782345E+03</pdfrwt>
<pdfrwt beam="2">  1       -1 0.29223378E+00 0.74782345E+03</pdfrwt>
<totfact> 0.26735056E-01</totfact>
</mgrwt>
</event>
<event>
 4    5  0.7214169E-008  0.1447389E+04  0.7818608E-02  0.8947709E-01
          1   -1    0    0  501    0  0.00000000000E+00  0.00000000000E+00  0.10462003187E+04  0.10462003187E+04  0.50400000000E-02 0. -1.
         -1   -1    0    0    0  501 -0.00000000000E+00 -0.00000000000E+00 -0.18815793428E+04  0.18815793428E+04  0.50400000000E-02 0.  1.
    8880023    1    1    2    0    0 -0.98682361065E+03 -0.82903710095E+03 -0.74209779741E+03  0.16265431751E+04  0.65864270000E+03 0.  1.
    8880022    1    1    2    0    0  0.98682361065E+03  0.82903710095E+03 -0.93281226658E+02  0.13012364864E+04  0.15294330000E+03 0. -1.
<mgrwt>
<rscale>  0 0.14084720E+04</rscale>
<asrwt>0</asrwt>
<pdfrwt beam="1">  1        1 0.16095390E+00 0.14473885E+04</pdfrwt>
<pdfrwt beam="2">  1       -1 0.28947374E+00 0.14473885E+04</pdfrwt>
<totfact> 0.51472105E-01</totfact>
</mgrwt>
</event>
<event>
 4    5  0.7214169E-008  0.8682419E+03  0.7818608E-02  0.9579068E-01
         -1   -1    0    0    0  501 -0.00000000000E+00  0.00000000000E+00  0.80915941074E+03  0.80915941075E+03  0.50400000000E-02 0.  1.
          1   -1    0    0  501    0  0.00000000000E+00 -0.00000000000E+00 -0.89293589748E+03  0.89293589750E+03  0.50400000000E-02 0. -1.
    8880023    1    1    2    0    0 -0.53953499881E+03 -0.17010495524E+03  0.38681394918E+03  0.95050983597E+03  0.65864270000E+03 0.  0.
    8880022    1    1    2    0    0  0.53953499881E+03  0.17010495524E+03 -0.47059043593E+03  0.75158547228E+03  0.15294330000E+03 0.  0.
<mgrwt>
<rscale>  0 0.78697255E+03</rscale>
<asrwt>0</asrwt>
<pdfrwt beam="1">  1        1 0.13737475E+00 0.86824185E+03</pdfrwt>
<pdfrwt beam="2">  1       -1 0.12448606E+00 0.86824185E+03</pdfrwt>
<totfact> 0.10597756E+01</totfact>
</mgrwt>
</event>
<event>
 4    5  0.7214169E-008  0.8734579E+03  0.7818608E-02  0.9570059E-01
          1   -1    0    0  501    0  0.00000000000E+00  0.00000000000E+00  0.14867194012E+04  0.14867194012E+04  0.50400000000E-02 0. -1.
         -1   -1    0    0    0  501 -0.00000000000E+00 -0.00000000000E+00 -0.12891159788E+04  0.12891159788E+04  0.50400000000E-02 0.  1.
    8880023    1    1    2    0    0 -0.55885141713E+03  0.12962897104E+03 -0.10669239289E+04  0.13788602006E+04  0.65864270000E+03 0.  1.
    8880022    1    1    2    0    0  0.55885141713E+03 -0.12962897104E+03  0.12645273513E+04  0.13969751794E+04  0.15294330000E+03 0.  0.
<mgrwt>
<rscale>  0 0.79310003E+03</rscale>
<asrwt>0</asrwt>
<pdfrwt beam="1">  1        1 0.22872606E+00 0.87345795E+03</pdfrwt>
<pdfrwt beam="2">  1       -1 0.19832554E+00 0.87345795E+03</pdfrwt>
<totfact> 0.10616043E+00</totfact>
</mgrwt>
</event>
<event>
 4    5  0.7214169E-008  0.1538579E+04  0.7818608E-02  0.8882864E-01
         -1   -1    0    0    0  501 -0.00000000000E+00  0.00000000000E+00  0.91158047829E+03  0.91158047830E+03  0.50400000000E-02 0.  1.
          1   -1    0    0  501    0  0.00000000000E+00 -0.00000000000E+00 -0.28275791080E+04  0.28275791080E+04  0.50400000000E-02 0. -1.
    8880023    1    1    2    0    0 -0.11604311100E+04 -0.76603866685E+03 -0.24178172311E+03  0.15574608207E+04  0.65864270000E+03 0.  0.
    8880022    1    1    2    0    0  0.11604311100E+04  0.76603866685E+03 -0.16742169066E+04  0.21816987655E+04  0.15294330000E+03 0.  0.
<mgrwt>
<rscale>  0 0.15023924E+04</rscale>
<asrwt>0</asrwt>
<pdfrwt beam="1">  1        1 0.43501217E+00 0.15385792E+04</pdfrwt>
<pdfrwt beam="2">  1       -1 0.14024315E+00 0.15385792E+04</pdfrwt>
<totfact> 0.31501223E-01</totfact>
</mgrwt>
</event>
<event>
 4    5  0.7214169E-008  0.7010575E+03  0.7818608E-02  0.9992842E-01
          1   -1    0    0  501    0  0.00000000000E+00  0.00000000000E+00  0.31783554835E+04  0.31783554835E+04  0.50400000000E-02 0. -1.
         -1   -1    0    0    0  501 -0.00000000000E+00 -0.00000000000E+00 -0.56541770005E+03  0.56541770008E+03  0.50400000000E-02 0.  1.
    8880023    1    1    2    0    0 -0.89188960735E+02  0.22297259579E+03 -0.33859321686E+03  0.77854159937E+03  0.65864270000E+03 0.  1.
    8880022    1    1    2    0    0  0.89188960735E+02 -0.22297259579E+03  0.29515310003E+04  0.29652315842E+04  0.15294330000E+03 0.  0.
<mgrwt>
<rscale>  0 0.55965211E+03</rscale>
<asrwt>0</asrwt>
<pdfrwt beam="1">  1        1 0.48897778E+00 0.70105753E+03</pdfrwt>
<pdfrwt beam="2">  1       -1 0.86987337E-01 0.70105753E+03</pdfrwt>
<totfact> 0.63124549E-01</totfact>
</mgrwt>
</event>
<event>
 4    5  0.7214169E-008  0.9712884E+03  0.7818608E-02  0.9420125E-01
         -1   -1    0    0    0  501 -0.00000000000E+00  0.00000000000E+00  0.12335029243E+04  0.12335029243E+04  0.50400000000E-02 0.  1.
          1   -1    0    0  501    0  0.00000000000E+00 -0.00000000000E+00 -0.84867419338E+03  0.84867419339E+03  0.50400000000E-02 0. -1.
    8880023    1    1    2    0    0  0.49570733895E+03 -0.51367800304E+03  0.78571115732E+03  0.12492970366E+04  0.65864270000E+03 0.  0.
    8880022    1    1    2    0    0 -0.49570733895E+03  0.51367800304E+03 -0.40088242638E+03  0.83288008110E+03  0.15294330000E+03 0.  0.
<mgrwt>
<rscale>  0 0.90437855E+03</rscale>
<asrwt>0</asrwt>
<pdfrwt beam="1">  1        1 0.13056526E+00 0.97128835E+03</pdfrwt>
<pdfrwt beam="2">  1       -1 0.18976968E+00 0.97128835E+03</pdfrwt>
<totfact> 0.35861535E+00</totfact>
</mgrwt>
</event>
<event>
 4    5  0.7214169E-008  0.8729081E+03  0.7818608E-02  0.9571002E-01
         -1   -1    0    0    0  501 -0.00000000000E+00  0.00000000000E+00  0.74845659145E+03  0.74845659146E+03  0.50400000000E-02 0.  1.
          1   -1    0    0  501    0  0.00000000000E+00 -0.00000000000E+00 -0.10468778427E+04  0.10468778427E+04  0.50400000000E-02 0. -1.
    8880023    1    1    2    0    0 -0.31997595052E+03  0.47515658749E+03  0.32828651610E+03  0.93259886042E+03  0.65864270000E+03 0.  1.
    8880022    1    1    2    0    0  0.31997595052E+03 -0.47515658749E+03 -0.62670776732E+03  0.86273557373E+03  0.15294330000E+03 0.  0.
<mgrwt>
<rscale>  0 0.79245534E+03</rscale>
<asrwt>0</asrwt>
<pdfrwt beam="1">  1        1 0.16105813E+00 0.87290813E+03</pdfrwt>
<pdfrwt beam="2">  1       -1 0.11514717E+00 0.87290813E+03</pdfrwt>
<totfact> 0.96831735E+00</totfact>
</mgrwt>
</event>
<event>
 4    5  0.7214169E-008  0.1048857E+04  0.7818608E-02  0.9320257E-01
          1   -1    0    0  501    0  0.00000000000E+00  0.00000000000E+00  0.16471677514E+04  0.16471677514E+04  0.50400000000E-02 0. -1.
         -1   -1    0    0    0  501 -0.00000000000E+00 -0.00000000000E+00 -0.70032964894E+03  0.70032964895E+03  0.50400000000E-02 0.  1.
    8880023    1    1    2    0    0 -0.81114096718E+03 -0.91331296302E+02 -0.50002562603E+02  0.10500483498E+04  0.65864270000E+03 0.  0.
    8880022    1    1    2    0    0  0.81114096718E+03  0.91331296302E+02  0.99684066505E+03  0.12974490506E+04  0.15294330000E+03 0.  0.
<mgrwt>
<rscale>  0 0.98939206E+03</rscale>
<asrwt>0</asrwt>
<pdfrwt beam="1">  1        1 0.25341042E+00 0.10488571E+04</pdfrwt>
<pdfrwt beam="2">  1       -1 0.10774302E+00 0.10488571E+04</pdfrwt>
<totfact> 0.41544476E+00</totfact>
</mgrwt>
</event>
<event>
 4    5  0.7214169E-008  0.9749822E+03  0.7818608E-02  0.9415046E-01
         -1   -1    0    0    0  501 -0.00000000000E+00  0.00000000000E+00  0.66221064425E+03  0.66221064427E+03  0.50400000000E-02 0.  1.
          1   -1    0    0  501    0  0.00000000000E+00 -0.00000000000E+00 -0.13963937759E+04  0.13963937759E+04  0.50400000000E-02 0. -1.
    8880023    1    1    2    0    0  0.22608160371E+03  0.68239805745E+03  0.59619143696E+02  0.97680328056E+03  0.65864270000E+03 0.  1.
    8880022    1    1    2    0    0 -0.22608160371E+03 -0.68239805745E+03 -0.79380227538E+03  0.10818011397E+04  0.15294330000E+03 0.  0.
<mgrwt>
<rscale>  0 0.90847708E+03</rscale>
<asrwt>0</asrwt>
<pdfrwt beam="1">  1        1 0.21482981E+00 0.97498216E+03</pdfrwt>
<pdfrwt beam="2">  1       -1 0.10187856E+00 0.97498216E+03</pdfrwt>
<totfact> 0.71108986E+00</totfact>
</mgrwt>
</event>
<event>
 4    5  0.7214169E-008  0.8258507E+03  0.7818608E-02  0.9657460E-01
          1   -1    0    0  501    0  0.00000000000E+00  0.00000000000E+00  0.12165274416E+04  0.12165274416E+04  0.50400000000E-02 0. -1.
         -1   -1    0    0    0  501 -0.00000000000E+00 -0.00000000000E+00 -0.45901906702E+03  0.45901906705E+03  0.50400000000E-02 0.  1.
    8880023    1    1    2    0    0 -0.21168873139E+03  0.45100678299E+03  0.93037557101E+02  0.83107486461E+03  0.65864270000E+03 0.  0.
    8880022    1    1    2    0    0  0.21168873139E+03 -0.45100678299E+03  0.66447081748E+03  0.84447164405E+03  0.15294330000E+03 0.  0.
<mgrwt>
<rscale>  0 0.73607076E+03</rscale>
<asrwt>0</asrwt>
<pdfrwt beam="1">  1        1 0.18715806E+00 0.82585074E+03</pdfrwt>
<pdfrwt beam="2">  1       -1 0.70618320E-01 0.82585074E+03</pdfrwt>
<totfact> 0.21514437E+01</totfact>
</mgrwt>
</event>
<event>
 4    5  0.7214169E-008  0.7968093E+03  0.7818608E-02  0.9717738E-01
          1   -1    0    0  501    0  0.00000000000E+00  0.00000000000E+00  0.28429216234E+04  0.28429216234E+04  0.50400000000E-02 0. -1.
         -1   -1    0    0    0  501 -0.00000000000E+00 -0.00000000000E+00 -0.29843979829E+03  0.29843979833E+03  0.50400000000E-02 0.  1.
    8880023    1    1    2    0    0 -0.29246503641E+03 -0.33993983226E+03  0.30641932075E+03  0.85369660505E+03  0.65864270000E+03 0.  1.
    8880022    1    1    2    0    0  0.29246503641E+03  0.33993983226E+03  0.22380625044E+04  0.22876648167E+04  0.15294330000E+03 0.  0.
<mgrwt>
<rscale>  0 0.69970438E+03</rscale>
<asrwt>0</asrwt>
<pdfrwt beam="1">  1        1 0.43737256E+00 0.79680932E+03</pdfrwt>
<pdfrwt beam="2">  1       -1 0.45913814E-01 0.79680932E+03</pdfrwt>
<totfact> 0.38736123E+00</totfact>
</mgrwt>
</event>
<event>
 4    5  0.7214169E-008  0.1556877E+04  0.7818608E-02  0.8870483E-01
         -1   -1    0    0    0  501 -0.00000000000E+00  0.00000000000E+00  0.51584793114E+03  0.51584793116E+03  0.50400000000E-02 0.  1.
          1   -1    0    0  501    0  0.00000000000E+00 -0.00000000000E+00 -0.45214788816E+04  0.45214788816E+04  0.50400000000E-02 0. -1.
    8880023    1    1    2    0    0 -0.10982723815E+04  0.88535504163E+03 -0.15238024911E+04  0.21784948960E+04  0.65864270000E+03 0.  0.
    8880022    1    1    2    0    0  0.10982723815E+04 -0.88535504163E+03 -0.24818284593E+04  0.28588319168E+04  0.15294330000E+03 0.  1.
<mgrwt>
<rscale>  0 0.15211893E+04</rscale>
<asrwt>0</asrwt>
<pdfrwt beam="1">  1        1 0.69561211E+00 0.15568770E+04</pdfrwt>
<pdfrwt beam="2">  1       -1 0.79361223E-01 0.15568770E+04</pdfrwt>
<totfact> 0.47352816E-02</totfact>
</mgrwt>
</event>
<event>
 4    5  0.7214169E-008  0.7796331E+03  0.7818608E-02  0.9756700E-01
          1   -1    0    0  501    0  0.00000000000E+00  0.00000000000E+00  0.13551924222E+04  0.13551924223E+04  0.50400000000E-02 0. -1.
         -1   -1    0    0    0  501 -0.00000000000E+00 -0.00000000000E+00 -0.10083557949E+04  0.10083557949E+04  0.50400000000E-02 0.  1.
    8880023    1    1    2    0    0 -0.41622093771E+03  0.27887622420E+02 -0.81004663130E+03  0.11242790310E+04  0.65864270000E+03 0.  1.
    8880022    1    1    2    0    0  0.41622093771E+03 -0.27887622420E+02  0.11568832587E+04  0.12392691861E+04  0.15294330000E+03 0.  0.
<mgrwt>
<rscale>  0 0.67738979E+03</rscale>
<asrwt>0</asrwt>
<pdfrwt beam="1">  1        1 0.20849114E+00 0.77963312E+03</pdfrwt>
<pdfrwt beam="2">  1       -1 0.15513166E+00 0.77963312E+03</pdfrwt>
<totfact> 0.27313040E+00</totfact>
</mgrwt>
</event>
<event>
 4    5  0.7214169E-008  0.1020769E+04  0.7818608E-02  0.9354876E-01
          1   -1    0    0  501    0  0.00000000000E+00  0.00000000000E+00  0.10821355032E+04  0.10821355032E+04  0.50400000000E-02 0. -1.
         -1   -1    0    0    0  501 -0.00000000000E+00 -0.00000000000E+00 -0.99250545411E+03  0.99250545412E+03  0.50400000000E-02 0.  1.
    8880023    1    1    2    0    0 -0.62517383137E+03  0.46617329280E+03 -0.44842624702E+03  0.11149242861E+04  0.65864270000E+03 0.  0.
    8880022    1    1    2    0    0  0.62517383137E+03 -0.46617329280E+03  0.53805629614E+03  0.95971667131E+03  0.15294330000E+03 0.  0.
<mgrwt>
<rscale>  0 0.95884148E+03</rscale>
<asrwt>0</asrwt>
<pdfrwt beam="1">  1        1 0.16648238E+00 0.10207693E+04</pdfrwt>
<pdfrwt beam="2">  1       -1 0.15269315E+00 0.10207693E+04</pdfrwt>
<totfact> 0.43505434E+00</totfact>
</mgrwt>
</event>
<event>
 4    5  0.7214169E-008  0.1926625E+04  0.7818608E-02  0.8655548E-01
         -1   -1    0    0    0  501 -0.00000000000E+00  0.00000000000E+00  0.14042441338E+04  0.14042441338E+04  0.50400000000E-02 0.  1.
          1   -1    0    0  501    0  0.00000000000E+00 -0.00000000000E+00 -0.39802562586E+04  0.39802562586E+04  0.50400000000E-02 0. -1.
    8880023    1    1    2    0    0 -0.33811284976E+03  0.17786940511E+04  0.33247694103E+03  0.19551020303E+04  0.65864270000E+03 0.  0.
    8880022    1    1    2    0    0  0.33811284976E+03 -0.17786940511E+04 -0.29084890659E+04  0.34293983621E+04  0.15294330000E+03 0.  0.
<mgrwt>
<rscale>  0 0.18986118E+04</rscale>
<asrwt>0</asrwt>
<pdfrwt beam="1">  1        1 0.61234711E+00 0.19266248E+04</pdfrwt>
<pdfrwt beam="2">  1       -1 0.21603756E+00 0.19266248E+04</pdfrwt>
<totfact> 0.10534399E-02</totfact>
</mgrwt>
</event>
<event>
 4    5  0.7214169E-008  0.7395356E+03  0.7818608E-02  0.9861302E-01
         -1   -1    0    0    0  501 -0.00000000000E+00  0.00000000000E+00  0.84915406058E+03  0.84915406060E+03  0.50400000000E-02 0.  1.
          1   -1    0    0  501    0  0.00000000000E+00 -0.00000000000E+00 -0.70515257664E+03  0.70515257666E+03  0.50400000000E-02 0. -1.
    8880023    1    1    2    0    0 -0.30875026718E+03 -0.13332630320E+03  0.61068377373E+03  0.95908680961E+03  0.65864270000E+03 0.  1.
    8880022    1    1    2    0    0  0.30875026718E+03  0.13332630320E+03 -0.46668228979E+03  0.59521982764E+03  0.15294330000E+03 0.  0.
<mgrwt>
<rscale>  0 0.62173970E+03</rscale>
<asrwt>0</asrwt>
<pdfrwt beam="1">  1        1 0.10848501E+00 0.73953555E+03</pdfrwt>
<pdfrwt beam="2">  1       -1 0.13063909E+00 0.73953555E+03</pdfrwt>
<totfact> 0.13901438E+01</totfact>
</mgrwt>
</event>
<event>
 4    5  0.7214169E-008  0.1132784E+04  0.7818608E-02  0.9225404E-01
         -1   -1    0    0    0  501 -0.00000000000E+00  0.00000000000E+00  0.11111792182E+04  0.11111792182E+04  0.50400000000E-02 0.  1.
          1   -1    0    0  501    0  0.00000000000E+00 -0.00000000000E+00 -0.10512956564E+04  0.10512956564E+04  0.50400000000E-02 0. -1.
    8880023    1    1    2    0    0 -0.67395636711E+03  0.62862750522E+03  0.34765171251E+03  0.11849310716E+04  0.65864270000E+03 0.  0.
    8880022    1    1    2    0    0  0.67395636711E+03 -0.62862750522E+03 -0.28776815073E+03  0.97754380294E+03  0.15294330000E+03 0.  0.
<mgrwt>
<rscale>  0 0.10795023E+04</rscale>
<asrwt>0</asrwt>
<pdfrwt beam="1">  1        1 0.16173779E+00 0.11327842E+04</pdfrwt>
<pdfrwt beam="2">  1       -1 0.17095065E+00 0.11327842E+04</pdfrwt>
<totfact> 0.33034717E+00</totfact>
</mgrwt>
</event>
<event>
 4    5  0.7214169E-008  0.7478129E+03  0.7818608E-02  0.9837746E-01
          1   -1    0    0  501    0  0.00000000000E+00  0.00000000000E+00  0.17265176373E+04  0.17265176373E+04  0.50400000000E-02 0. -1.
         -1   -1    0    0    0  501 -0.00000000000E+00 -0.00000000000E+00 -0.24725064678E+03  0.24725064684E+03  0.50400000000E-02 0.  1.
    8880023    1    1    2    0    0 -0.13941044654E+03 -0.32554374330E+03  0.44569499257E+03  0.87055627852E+03  0.65864270000E+03 0.  1.
    8880022    1    1    2    0    0  0.13941044654E+03  0.32554374330E+03  0.10335719980E+04  0.11032120057E+04  0.15294330000E+03 0.  0.
<mgrwt>
<rscale>  0 0.63375612E+03</rscale>
<asrwt>0</asrwt>
<pdfrwt beam="1">  1        1 0.26561810E+00 0.74781295E+03</pdfrwt>
<pdfrwt beam="2">  1       -1 0.38038561E-01 0.74781295E+03</pdfrwt>
<totfact> 0.31565261E+01</totfact>
</mgrwt>
</event>
<event>
 4    5  0.7214169E-008  0.1057554E+04  0.7818608E-02  0.9309855E-01
         -1   -1    0    0    0  501 -0.00000000000E+00  0.00000000000E+00  0.79012081104E+03  0.79012081106E+03  0.50400000000E-02 0.  1.
          1   -1    0    0  501    0  0.00000000000E+00 -0.00000000000E+00 -0.12861067847E+04  0.12861067847E+04  0.50400000000E-02 0. -1.
    8880023    1    1    2    0    0 -0.17598976660E+03  0.80847843398E+03  0.73648254005E+02  0.10601151106E+04  0.65864270000E+03 0.  1.
    8880022    1    1    2    0    0  0.17598976660E+03 -0.80847843398E+03 -0.56963422765E+03  0.10161124852E+04  0.15294330000E+03 0.  0.
<mgrwt>
<rscale>  0 0.99880593E+03</rscale>
<asrwt>0</asrwt>
<pdfrwt beam="1">  1        1 0.19786258E+00 0.10575538E+04</pdfrwt>
<pdfrwt beam="2">  1       -1 0.12155705E+00 0.10575538E+04</pdfrwt>
<totfact> 0.55357336E+00</totfact>
</mgrwt>
</event>
<event>
 4    5  0.7214169E-008  0.7111218E+03  0.7818608E-02  0.9953859E-01
         -1   -1    0    0    0  501 -0.00000000000E+00  0.00000000000E+00  0.46404614588E+03  0.46404614591E+03  0.50400000000E-02 0.  1.
          1   -1    0    0  501    0  0.00000000000E+00 -0.00000000000E+00 -0.73500613414E+03  0.73500613415E+03  0.50400000000E-02 0. -1.
    8880023    1    1    2    0    0  0.18229378403E+03 -0.19660345535E+03  0.98178917510E+02  0.71786715237E+03  0.65864270000E+03 0.  1.
    8880022    1    1    2    0    0 -0.18229378403E+03  0.19660345535E+03 -0.36913890576E+03  0.48118512769E+03  0.15294330000E+03 0.  0.
<mgrwt>
<rscale>  0 0.57720579E+03</rscale>
<asrwt>0</asrwt>
<pdfrwt beam="1">  1        1 0.11307787E+00 0.71112175E+03</pdfrwt>
<pdfrwt beam="2">  1       -1 0.71391715E-01 0.71112175E+03</pdfrwt>
<totfact> 0.51378796E+01</totfact>
</mgrwt>
</event>
<event>
 4    5  0.8234430E-008  0.9165717E+03  0.7818608E-02  0.9499936E-01
         -1   -1    0    0    0  501 -0.00000000000E+00  0.00000000000E+00  0.79972676011E+03  0.79972676012E+03  0.50400000000E-02 0.  1.
          1   -1    0    0  501    0  0.00000000000E+00 -0.00000000000E+00 -0.30508176382E+04  0.30508176382E+04  0.50400000000E-02 0. -1.
    8880023    1    1    2    0    0 -0.63109275627E+03 -0.89529116886E+02  0.48503243408E+03  0.10369957561E+04  0.65864270000E+03 0.  1.
    8880022    1    1    2    0    0  0.63109275627E+03  0.89529116886E+02 -0.27361233122E+04  0.28135486422E+04  0.15294330000E+03 0.  0.
<mgrwt>
<rscale>  0 0.84288561E+03</rscale>
<asrwt>0</asrwt>
<pdfrwt beam="1">  1        1 0.46935655E+00 0.91657173E+03</pdfrwt>
<pdfrwt beam="2">  1       -1 0.12303489E+00 0.91657173E+03</pdfrwt>
<totfact> 0.33391866E-01</totfact>
</mgrwt>
</event>
<event>
 4    5  0.7214169E-008  0.7318576E+03  0.7818608E-02  0.9884333E-01
         -1   -1    0    0    0  501 -0.00000000000E+00  0.00000000000E+00  0.50208465967E+04  0.50208465967E+04  0.50400000000E-02 0.  1.
          1   -1    0    0  501    0  0.00000000000E+00 -0.00000000000E+00 -0.12669301256E+04  0.12669301256E+04  0.50400000000E-02 0. -1.
    8880023    1    1    2    0    0 -0.36939902019E+02  0.31692392299E+03  0.49688035075E+04  0.50224121528E+04  0.65864270000E+03 0.  1.
    8880022    1    1    2    0    0  0.36939902019E+02 -0.31692392299E+03 -0.12148870365E+04  0.12653645695E+04  0.15294330000E+03 0.  0.
<mgrwt>
<rscale>  0 0.61026599E+03</rscale>
<asrwt>0</asrwt>
<pdfrwt beam="1">  1        1 0.19491233E+00 0.73185759E+03</pdfrwt>
<pdfrwt beam="2">  1       -1 0.77243793E+00 0.73185759E+03</pdfrwt>
<totfact> 0.10891292E-03</totfact>
</mgrwt>
</event>
<event>
 4    5  0.7214169E-008  0.9735446E+03  0.7818608E-02  0.9417018E-01
          1   -1    0    0  501    0  0.00000000000E+00  0.00000000000E+00  0.15541208039E+04  0.15541208039E+04  0.50400000000E-02 0. -1.
         -1   -1    0    0    0  501 -0.00000000000E+00 -0.00000000000E+00 -0.95608927875E+03  0.95608927876E+03  0.50400000000E-02 0.  1.
    8880023    1    1    2    0    0  0.61746048336E+03 -0.36430957333E+03 -0.57226490971E+03  0.11292812966E+04  0.65864270000E+03 0.  0.
    8880022    1    1    2    0    0 -0.61746048336E+03  0.36430957333E+03  0.11702964349E+04  0.13809287861E+04  0.15294330000E+03 0.  0.
<mgrwt>
<rscale>  0 0.90688272E+03</rscale>
<asrwt>0</asrwt>
<pdfrwt beam="1">  1        1 0.23909551E+00 0.97354462E+03</pdfrwt>
<pdfrwt beam="2">  1       -1 0.14709066E+00 0.97354462E+03</pdfrwt>
<totfact> 0.22285000E+00</totfact>
</mgrwt>
</event>
<event>
 4    5  0.7214169E-008  0.8982943E+03  0.7818608E-02  0.9528775E-01
         -1   -1    0    0    0  501 -0.00000000000E+00  0.00000000000E+00  0.11167143909E+04  0.11167143909E+04  0.50400000000E-02 0.  1.
          1   -1    0    0  501    0  0.00000000000E+00 -0.00000000000E+00 -0.70639913396E+03  0.70639913397E+03  0.50400000000E-02 0. -1.
    8880023    1    1    2    0    0 -0.34989410435E+03 -0.50069602389E+03  0.69136889143E+03  0.11335446806E+04  0.65864270000E+03 0.  0.
    8880022    1    1    2    0    0  0.34989410435E+03  0.50069602389E+03 -0.28105363446E+03  0.68956884432E+03  0.15294330000E+03 0.  0.
<mgrwt>
<rscale>  0 0.82195169E+03</rscale>
<asrwt>0</asrwt>
<pdfrwt beam="1">  1        1 0.10867679E+00 0.89829427E+03</pdfrwt>
<pdfrwt beam="2">  1       -1 0.17180221E+00 0.89829427E+03</pdfrwt>
<totfact> 0.65038382E+00</totfact>
</mgrwt>
</event>
<event>
 4    5  0.7214169E-008  0.1431523E+04  0.7818608E-02  0.8959568E-01
         -1   -1    0    0    0  501 -0.00000000000E+00  0.00000000000E+00  0.10805587225E+04  0.10805587225E+04  0.50400000000E-02 0.  1.
          1   -1    0    0  501    0  0.00000000000E+00 -0.00000000000E+00 -0.19590951536E+04  0.19590951536E+04  0.50400000000E-02 0. -1.
    8880023    1    1    2    0    0  0.25652303099E+03 -0.12448469303E+04  0.90046805754E+02  0.14343523203E+04  0.65864270000E+03 0.  1.
    8880022    1    1    2    0    0 -0.25652303099E+03  0.12448469303E+04 -0.96858323681E+03  0.16053015558E+04  0.15294330000E+03 0.  0.
<mgrwt>
<rscale>  0 0.13920852E+04</rscale>
<asrwt>0</asrwt>
<pdfrwt beam="1">  1        1 0.30139925E+00 0.14315230E+04</pdfrwt>
<pdfrwt beam="2">  1       -1 0.16623980E+00 0.14315230E+04</pdfrwt>
<totfact> 0.79607258E-01</totfact>
</mgrwt>
</event>
<event>
 4    5  0.7214169E-008  0.8128972E+03  0.7818608E-02  0.9683573E-01
          1   -1    0    0  501    0  0.00000000000E+00  0.00000000000E+00  0.17868594570E+04  0.17868594570E+04  0.50400000000E-02 0. -1.
         -1   -1    0    0    0  501 -0.00000000000E+00 -0.00000000000E+00 -0.47315637311E+03  0.47315637314E+03  0.50400000000E-02 0.  1.
    8880023    1    1    2    0    0 -0.54795177567E+01  0.47640491823E+03 -0.42943376372E+02  0.81403071875E+03  0.65864270000E+03 0.  0.
    8880022    1    1    2    0    0  0.54795177567E+01 -0.47640491823E+03  0.13566464602E+04  0.14459851114E+04  0.15294330000E+03 0.  0.
<mgrwt>
<rscale>  0 0.72003300E+03</rscale>
<asrwt>0</asrwt>
<pdfrwt beam="1">  1        1 0.27490145E+00 0.81289721E+03</pdfrwt>
<pdfrwt beam="2">  1       -1 0.72793288E-01 0.81289721E+03</pdfrwt>
<totfact> 0.81806490E+00</totfact>
</mgrwt>
</event>
<event>
 4    5  0.7214169E-008  0.8940933E+03  0.7818608E-02  0.9535581E-01
         -1   -1    0    0    0  501 -0.00000000000E+00  0.00000000000E+00  0.13817627961E+04  0.13817627961E+04  0.50400000000E-02 0.  1.
          1   -1    0    0  501    0  0.00000000000E+00 -0.00000000000E+00 -0.13210328608E+04  0.13210328608E+04  0.50400000000E-02 0. -1.
    8880023    1    1    2    0    0 -0.60033769934E+03 -0.72023008637E+02  0.11445252920E+04  0.14523570558E+04  0.65864270000E+03 0.  0.
    8880022    1    1    2    0    0  0.60033769934E+03  0.72023008637E+02 -0.10837953568E+04  0.12504386012E+04  0.15294330000E+03 0.  0.
<mgrwt>
<rscale>  0 0.81710647E+03</rscale>
<asrwt>0</asrwt>
<pdfrwt beam="1">  1        1 0.20323583E+00 0.89409332E+03</pdfrwt>
<pdfrwt beam="2">  1       -1 0.21257889E+00 0.89409332E+03</pdfrwt>
<totfact> 0.11043395E+00</totfact>
</mgrwt>
</event>
<event>
 4    5  0.7214169E-008  0.9972065E+03  0.7818608E-02  0.9385222E-01
         -1   -1    0    0    0  501 -0.00000000000E+00  0.00000000000E+00  0.74751189684E+03  0.74751189686E+03  0.50400000000E-02 0.  1.
          1   -1    0    0  501    0  0.00000000000E+00 -0.00000000000E+00 -0.17760499796E+04  0.17760499796E+04  0.50400000000E-02 0. -1.
    8880023    1    1    2    0    0 -0.39996794375E+02  0.74767023409E+03  0.25541255302E+03  0.10293960856E+04  0.65864270000E+03 0.  0.
    8880022    1    1    2    0    0  0.39996794375E+02 -0.74767023409E+03 -0.12839506358E+04  0.14941657909E+04  0.15294330000E+03 0.  0.
<mgrwt>
<rscale>  0 0.93301929E+03</rscale>
<asrwt>0</asrwt>
<pdfrwt beam="1">  1        1 0.27323846E+00 0.99720646E+03</pdfrwt>
<pdfrwt beam="2">  1       -1 0.11500183E+00 0.99720646E+03</pdfrwt>
<totfact> 0.29283272E+00</totfact>
</mgrwt>
</event>
<event>
 4    5  0.7214169E-008  0.1039187E+04  0.7818608E-02  0.9331995E-01
          1   -1    0    0  501    0  0.00000000000E+00  0.00000000000E+00  0.11150262654E+04  0.11150262655E+04  0.50400000000E-02 0. -1.
         -1   -1    0    0    0  501 -0.00000000000E+00 -0.00000000000E+00 -0.12251509234E+04  0.12251509234E+04  0.50400000000E-02 0.  1.
    8880023    1    1    2    0    0  0.39889073941E+02  0.80281255487E+03  0.64804282015E+03  0.12246913242E+04  0.65864270000E+03 0. -1.
    8880022    1    1    2    0    0 -0.39889073941E+02 -0.80281255487E+03 -0.75816747809E+03  0.11154858647E+04  0.15294330000E+03 0.  0.
<mgrwt>
<rscale>  0 0.97889996E+03</rscale>
<asrwt>0</asrwt>
<pdfrwt beam="1">  1        1 0.17154250E+00 0.10391869E+04</pdfrwt>
<pdfrwt beam="2">  1       -1 0.18848476E+00 0.10391869E+04</pdfrwt>
<totfact> 0.22348412E+00</totfact>
</mgrwt>
</event>
<event>
 4    5  0.7214169E-008  0.9372957E+03  0.7818608E-02  0.9468633E-01
          1   -1    0    0  501    0  0.00000000000E+00  0.00000000000E+00  0.10701936255E+04  0.10701936255E+04  0.50400000000E-02 0. -1.
         -1   -1    0    0    0  501 -0.00000000000E+00 -0.00000000000E+00 -0.18362260034E+04  0.18362260034E+04  0.50400000000E-02 0.  1.
    8880023    1    1    2    0    0 -0.32781010933E+03  0.58073539389E+03 -0.15836912193E+04  0.18402720315E+04  0.65864270000E+03 0.  1.
    8880022    1    1    2    0    0  0.32781010933E+03 -0.58073539389E+03  0.81765884141E+03  0.10661475974E+04  0.15294330000E+03 0. -1.
<mgrwt>
<rscale>  0 0.86636391E+03</rscale>
<asrwt>0</asrwt>
<pdfrwt beam="1">  1        1 0.16464517E+00 0.93729572E+03</pdfrwt>
<pdfrwt beam="2">  1       -1 0.28249631E+00 0.93729572E+03</pdfrwt>
<totfact> 0.58562863E-01</totfact>
</mgrwt>
</event>
<event>
 4    5  0.7214169E-008  0.1080817E+04  0.7818608E-02  0.9282720E-01
         -1   -1    0    0    0  501 -0.00000000000E+00  0.00000000000E+00  0.10301719107E+04  0.10301719107E+04  0.50400000000E-02 0.  1.
          1   -1    0    0  501    0  0.00000000000E+00 -0.00000000000E+00 -0.11340504372E+04  0.11340504372E+04  0.50400000000E-02 0. -1.
    8880023    1    1    2    0    0 -0.84283254105E+03  0.15488414358E+03  0.40698208363E+03  0.11549027720E+04  0.65864270000E+03 0.  0.
    8880022    1    1    2    0    0  0.84283254105E+03 -0.15488414358E+03 -0.51086061017E+03  0.10093195759E+04  0.15294330000E+03 0.  0.
<mgrwt>
<rscale>  0 0.10238935E+04</rscale>
<asrwt>0</asrwt>
<pdfrwt beam="1">  1        1 0.17446930E+00 0.10808173E+04</pdfrwt>
<pdfrwt beam="2">  1       -1 0.15848799E+00 0.10808173E+04</pdfrwt>
<totfact> 0.35648732E+00</totfact>
</mgrwt>
</event>
<event>
 4    5  0.1415934E-007  0.1186695E+04  0.7818608E-02  0.9170165E-01
         -1   -1    0    0    0  501 -0.00000000000E+00  0.00000000000E+00  0.23064189167E+04  0.23064189167E+04  0.50400000000E-02 0.  1.
          1   -1    0    0  501    0  0.00000000000E+00 -0.00000000000E+00 -0.38876298946E+04  0.38876298946E+04  0.50400000000E-02 0. -1.
    8880023    1    1    2    0    0 -0.81431510021E+03 -0.55796555516E+03  0.20823462572E+04  0.23967500463E+04  0.65864270000E+03 0.  0.
    8880022    1    1    2    0    0  0.81431510021E+03  0.55796555516E+03 -0.36635572351E+04  0.37972987651E+04  0.15294330000E+03 0.  0.
<mgrwt>
<rscale>  0 0.11366747E+04</rscale>
<asrwt>0</asrwt>
<pdfrwt beam="1">  1        1 0.59809691E+00 0.11866949E+04</pdfrwt>
<pdfrwt beam="2">  1       -1 0.35483368E+00 0.11866949E+04</pdfrwt>
<totfact> 0.17673595E-03</totfact>
</mgrwt>
</event>
<event>
 4    5  0.7214169E-008  0.1331742E+04  0.7818608E-02  0.9038622E-01
         -1   -1    0    0    0  501 -0.00000000000E+00  0.00000000000E+00  0.79731633728E+03  0.79731633729E+03  0.50400000000E-02 0.  1.
          1   -1    0    0  501    0  0.00000000000E+00 -0.00000000000E+00 -0.36193929695E+04  0.36193929695E+04  0.50400000000E-02 0. -1.
    8880023    1    1    2    0    0 -0.25355988585E+03  0.11293512586E+04  0.32986235565E+02  0.13321505842E+04  0.65864270000E+03 0.  0.
    8880022    1    1    2    0    0  0.25355988585E+03 -0.11293512586E+04 -0.28550628678E+04  0.30845587226E+04  0.15294330000E+03 0.  0.
<mgrwt>
<rscale>  0 0.12886406E+04</rscale>
<asrwt>0</asrwt>
<pdfrwt beam="1">  1        1 0.55682968E+00 0.13317421E+04</pdfrwt>
<pdfrwt beam="2">  1       -1 0.12266405E+00 0.13317421E+04</pdfrwt>
<totfact> 0.11580250E-01</totfact>
</mgrwt>
</event>
<event>
 4    5  0.7214169E-008  0.7998641E+03  0.7818608E-02  0.9711090E-01
         -1   -1    0    0    0  501 -0.00000000000E+00  0.00000000000E+00  0.16374146477E+04  0.16374146477E+04  0.50400000000E-02 0.  1.
          1   -1    0    0  501    0  0.00000000000E+00 -0.00000000000E+00 -0.26216078775E+04  0.26216078775E+04  0.50400000000E-02 0. -1.
    8880023    1    1    2    0    0 -0.22536347916E+03 -0.39393363825E+03  0.15156263041E+04  0.17137402688E+04  0.65864270000E+03 0.  1.
    8880022    1    1    2    0    0  0.22536347916E+03  0.39393363825E+03 -0.24998195339E+04  0.25452822563E+04  0.15294330000E+03 0.  0.
<mgrwt>
<rscale>  0 0.70360325E+03</rscale>
<asrwt>0</asrwt>
<pdfrwt beam="1">  1        1 0.40332429E+00 0.79986412E+03</pdfrwt>
<pdfrwt beam="2">  1       -1 0.25190995E+00 0.79986412E+03</pdfrwt>
<totfact> 0.81265265E-02</totfact>
</mgrwt>
</event>
<event>
 4    5  0.7214169E-008  0.9365515E+03  0.7818608E-02  0.9469733E-01
         -1   -1    0    0    0  501 -0.00000000000E+00  0.00000000000E+00  0.11826473650E+04  0.11826473651E+04  0.50400000000E-02 0.  1.
          1   -1    0    0  501    0  0.00000000000E+00 -0.00000000000E+00 -0.18872607281E+04  0.18872607281E+04  0.50400000000E-02 0. -1.
    8880023    1    1    2    0    0 -0.52399152271E+03  0.41079365381E+03  0.91671272389E+03  0.13105307956E+04  0.65864270000E+03 0.  1.
    8880022    1    1    2    0    0  0.52399152271E+03 -0.41079365381E+03 -0.16213260870E+04  0.17593772976E+04  0.15294330000E+03 0.  0.
<mgrwt>
<rscale>  0 0.86552510E+03</rscale>
<asrwt>0</asrwt>
<pdfrwt beam="1">  1        1 0.29034780E+00 0.93655152E+03</pdfrwt>
<pdfrwt beam="2">  1       -1 0.18194575E+00 0.93655152E+03</pdfrwt>
<totfact> 0.73153419E-01</totfact>
</mgrwt>
</event>
<event>
 4    5  0.7214169E-008  0.8646597E+03  0.7818608E-02  0.9585328E-01
          1   -1    0    0  501    0  0.00000000000E+00  0.00000000000E+00  0.29489275353E+04  0.29489275353E+04  0.50400000000E-02 0. -1.
         -1   -1    0    0    0  501 -0.00000000000E+00 -0.00000000000E+00 -0.46977677050E+03  0.46977677052E+03  0.50400000000E-02 0.  1.
    8880023    1    1    2    0    0  0.32297522153E+03 -0.45772611445E+03 -0.79637638598E+01  0.86469637294E+03  0.65864270000E+03 0.  1.
    8880022    1    1    2    0    0 -0.32297522153E+03  0.45772611445E+03  0.24871145286E+04  0.25540079329E+04  0.15294330000E+03 0.  0.
<mgrwt>
<rscale>  0 0.78274938E+03</rscale>
<asrwt>0</asrwt>
<pdfrwt beam="1">  1        1 0.45368116E+00 0.86465970E+03</pdfrwt>
<pdfrwt beam="2">  1       -1 0.72273349E-01 0.86465970E+03</pdfrwt>
<totfact> 0.13222108E+00</totfact>
</mgrwt>
</event>
<event>
 4    5  0.7214169E-008  0.9573350E+03  0.7818608E-02  0.9439638E-01
         -1   -1    0    0    0  501 -0.00000000000E+00  0.00000000000E+00  0.11628172133E+04  0.11628172133E+04  0.50400000000E-02 0.  1.
          1   -1    0    0  501    0  0.00000000000E+00 -0.00000000000E+00 -0.76699067789E+03  0.76699067791E+03  0.50400000000E-02 0. -1.
    8880023    1    1    2    0    0 -0.60931253132E+03  0.33379386757E+03  0.66883678743E+03  0.11678325913E+04  0.65864270000E+03 0.  0.
    8880022    1    1    2    0    0  0.60931253132E+03 -0.33379386757E+03 -0.27301025207E+03  0.76197529986E+03  0.15294330000E+03 0.  0.
<mgrwt>
<rscale>  0 0.88884179E+03</rscale>
<asrwt>0</asrwt>
<pdfrwt beam="1">  1        1 0.11799857E+00 0.95733501E+03</pdfrwt>
<pdfrwt beam="2">  1       -1 0.17889496E+00 0.95733501E+03</pdfrwt>
<totfact> 0.50514924E+00</totfact>
</mgrwt>
</event>
<event>
 4    5  0.7214169E-008  0.2189805E+04  0.7818608E-02  0.8532948E-01
         -1   -1    0    0    0  501 -0.00000000000E+00  0.00000000000E+00  0.12545426110E+04  0.12545426110E+04  0.50400000000E-02 0.  1.
          1   -1    0    0  501    0  0.00000000000E+00 -0.00000000000E+00 -0.37873774640E+04  0.37873774640E+04  0.50400000000E-02 0. -1.
    8880023    1    1    2    0    0 -0.47226155894E+03  0.20343071813E+04 -0.17615557490E+04  0.28103959776E+04  0.65864270000E+03 0.  0.
    8880022    1    1    2    0    0  0.47226155894E+03 -0.20343071813E+04 -0.77127910403E+03  0.22315240974E+04  0.15294330000E+03 0.  0.
<mgrwt>
<rscale>  0 0.21654501E+04</rscale>
<asrwt>0</asrwt>
<pdfrwt beam="1">  1        1 0.58267345E+00 0.21898052E+04</pdfrwt>
<pdfrwt beam="2">  1       -1 0.19300656E+00 0.21898052E+04</pdfrwt>
<totfact> 0.21588225E-02</totfact>
</mgrwt>
</event>
<event>
 4    5  0.7214169E-008  0.9700333E+03  0.7818608E-02  0.9421858E-01
          1   -1    0    0  501    0  0.00000000000E+00  0.00000000000E+00  0.19007732487E+04  0.19007732487E+04  0.50400000000E-02 0. -1.
         -1   -1    0    0    0  501 -0.00000000000E+00 -0.00000000000E+00 -0.23672212975E+04  0.23672212975E+04  0.50400000000E-02 0.  1.
    8880023    1    1    2    0    0  0.71199826742E+03 -0.14587014764E+02 -0.21908903378E+04  0.23960310917E+04  0.65864270000E+03 0.  0.
    8880022    1    1    2    0    0 -0.71199826742E+03  0.14587014764E+02  0.17244422891E+04  0.18719634545E+04  0.15294330000E+03 0. -1.
<mgrwt>
<rscale>  0 0.90298460E+03</rscale>
<asrwt>0</asrwt>
<pdfrwt beam="1">  1        1 0.29242665E+00 0.97003326E+03</pdfrwt>
<pdfrwt beam="2">  1       -1 0.36418789E+00 0.97003326E+03</pdfrwt>
<totfact> 0.45082527E-02</totfact>
</mgrwt>
</event>
<event>
 4    5  0.7214169E-008  0.1050990E+04  0.7818608E-02  0.9317693E-01
         -1   -1    0    0    0  501 -0.00000000000E+00  0.00000000000E+00  0.74736989691E+03  0.74736989693E+03  0.50400000000E-02 0.  1.
          1   -1    0    0  501    0  0.00000000000E+00 -0.00000000000E+00 -0.15325577698E+04  0.15325577698E+04  0.50400000000E-02 0. -1.
    8880023    1    1    2    0    0  0.47557558533E+03 -0.66678092945E+03  0.11033709469E+03  0.10567655492E+04  0.65864270000E+03 0.  1.
    8880022    1    1    2    0    0 -0.47557558533E+03  0.66678092945E+03 -0.89552496761E+03  0.12231621176E+04  0.15294330000E+03 0.  0.
<mgrwt>
<rscale>  0 0.99170228E+03</rscale>
<asrwt>0</asrwt>
<pdfrwt beam="1">  1        1 0.23577812E+00 0.10509896E+04</pdfrwt>
<pdfrwt beam="2">  1       -1 0.11497998E+00 0.10509896E+04</pdfrwt>
<totfact> 0.42626109E+00</totfact>
</mgrwt>
</event>
<event>
 4    5  0.7214169E-008  0.1410445E+04  0.7818608E-02  0.8975609E-01
         -1   -1    0    0    0  501 -0.00000000000E+00  0.00000000000E+00  0.76362733020E+03  0.76362733022E+03  0.50400000000E-02 0.  1.
          1   -1    0    0  501    0  0.00000000000E+00 -0.00000000000E+00 -0.34834612482E+04  0.34834612482E+04  0.50400000000E-02 0. -1.
    8880023    1    1    2    0    0  0.69477852278E+03 -0.10357736243E+04 -0.19106025671E+03  0.14233265347E+04  0.65864270000E+03 0.  0.
    8880022    1    1    2    0    0 -0.69477852278E+03  0.10357736243E+04 -0.25287736613E+04  0.28237620437E+04  0.15294330000E+03 0.  0.
<mgrwt>
<rscale>  0 0.13702904E+04</rscale>
<asrwt>0</asrwt>
<pdfrwt beam="1">  1        1 0.53591711E+00 0.14104448E+04</pdfrwt>
<pdfrwt beam="2">  1       -1 0.11748113E+00 0.14104448E+04</pdfrwt>
<totfact> 0.16313401E-01</totfact>
</mgrwt>
</event>
<event>
 4    5  0.7214169E-008  0.1400042E+04  0.7818608E-02  0.8983650E-01
         -1   -1    0    0    0  501 -0.00000000000E+00  0.00000000000E+00  0.13629944863E+04  0.13629944864E+04  0.50400000000E-02 0.  1.
          1   -1    0    0  501    0  0.00000000000E+00 -0.00000000000E+00 -0.17982198391E+04  0.17982198391E+04  0.50400000000E-02 0. -1.
    8880023    1    1    2    0    0  0.12322321560E+04  0.88950930697E+02  0.61819237212E+03  0.15304510347E+04  0.65864270000E+03 0.  0.
    8880022    1    1    2    0    0 -0.12322321560E+04 -0.88950930697E+02 -0.10534177249E+04  0.16307632908E+04  0.15294330000E+03 0.  0.
<mgrwt>
<rscale>  0 0.13595239E+04</rscale>
<asrwt>0</asrwt>
<pdfrwt beam="1">  1        1 0.27664921E+00 0.14000423E+04</pdfrwt>
<pdfrwt beam="2">  1       -1 0.20969146E+00 0.14000423E+04</pdfrwt>
<totfact> 0.50465554E-01</totfact>
</mgrwt>
</event>
<event>
 4    5  0.7214169E-008  0.8187909E+03  0.7818608E-02  0.9671549E-01
          1   -1    0    0  501    0  0.00000000000E+00  0.00000000000E+00  0.13706340799E+04  0.13706340799E+04  0.50400000000E-02 0. -1.
         -1   -1    0    0    0  501 -0.00000000000E+00 -0.00000000000E+00 -0.62049480089E+03  0.62049480091E+03  0.50400000000E-02 0.  1.
    8880023    1    1    2    0    0  0.25207146940E+03 -0.41601475494E+03 -0.26042612607E+03  0.85920909877E+03  0.65864270000E+03 0.  1.
    8880022    1    1    2    0    0 -0.25207146940E+03  0.41601475494E+03  0.10105654050E+04  0.11319197820E+04  0.15294330000E+03 0.  0.
<mgrwt>
<rscale>  0 0.72736334E+03</rscale>
<asrwt>0</asrwt>
<pdfrwt beam="1">  1        1 0.21086678E+00 0.81879088E+03</pdfrwt>
<pdfrwt beam="2">  1       -1 0.95460740E-01 0.81879088E+03</pdfrwt>
<totfact> 0.87666478E+00</totfact>
</mgrwt>
</event>
<event>
 4    5  0.7214169E-008  0.6969223E+03  0.7818608E-02  0.1001022E+00
         -1   -1    0    0    0  501 -0.00000000000E+00  0.00000000000E+00  0.15018855341E+03  0.15018855350E+03  0.50400000000E-02 0.  1.
          1   -1    0    0  501    0  0.00000000000E+00 -0.00000000000E+00 -0.27016039748E+04  0.27016039748E+04  0.50400000000E-02 0. -1.
    8880023    1    1    2    0    0  0.21983844443E+03 -0.59678965733E+02 -0.72785883379E+03  0.10077098832E+04  0.65864270000E+03 0.  1.
    8880022    1    1    2    0    0 -0.21983844443E+03  0.59678965733E+02 -0.18235565876E+04  0.18440826451E+04  0.15294330000E+03 0.  0.
<mgrwt>
<rscale>  0 0.55204541E+03</rscale>
<asrwt>0</asrwt>
<pdfrwt beam="1">  1        1 0.41563135E+00 0.69692232E+03</pdfrwt>
<pdfrwt beam="2">  1       -1 0.23105933E-01 0.69692232E+03</pdfrwt>
<totfact> 0.16651630E+01</totfact>
</mgrwt>
</event>
<event>
 4    5  0.7214169E-008  0.8781820E+03  0.7818608E-02  0.9562005E-01
         -1   -1    0    0    0  501 -0.00000000000E+00  0.00000000000E+00  0.74061201233E+03  0.74061201234E+03  0.50400000000E-02 0.  1.
          1   -1    0    0  501    0  0.00000000000E+00 -0.00000000000E+00 -0.14288211554E+04  0.14288211555E+04  0.50400000000E-02 0. -1.
    8880023    1    1    2    0    0 -0.69175047678E+02  0.57672203101E+03  0.36975571487E+03  0.95284992691E+03  0.65864270000E+03 0.  0.
    8880022    1    1    2    0    0  0.69175047678E+02 -0.57672203101E+03 -0.10579648580E+04  0.12165832409E+04  0.15294330000E+03 0.  0.
<mgrwt>
<rscale>  0 0.79862793E+03</rscale>
<asrwt>0</asrwt>
<pdfrwt beam="1">  1        1 0.21981864E+00 0.87818204E+03</pdfrwt>
<pdfrwt beam="2">  1       -1 0.11394031E+00 0.87818204E+03</pdfrwt>
<totfact> 0.52534899E+00</totfact>
</mgrwt>
</event>
<event>
 4    5  0.7214169E-008  0.1176138E+04  0.7818608E-02  0.9180674E-01
         -1   -1    0    0    0  501 -0.00000000000E+00  0.00000000000E+00  0.16532550159E+04  0.16532550159E+04  0.50400000000E-02 0.  1.
          1   -1    0    0  501    0  0.00000000000E+00 -0.00000000000E+00 -0.13293468660E+04  0.13293468660E+04  0.50400000000E-02 0. -1.
    8880023    1    1    2    0    0 -0.81224780693E+03  0.53827937358E+03  0.11876868894E+04  0.16714967955E+04  0.65864270000E+03 0.  0.
    8880022    1    1    2    0    0  0.81224780693E+03 -0.53827937358E+03 -0.86377873951E+03  0.13111050865E+04  0.15294330000E+03 0. -1.
<mgrwt>
<rscale>  0 0.11255152E+04</rscale>
<asrwt>0</asrwt>
<pdfrwt beam="1">  1        1 0.20451490E+00 0.11761383E+04</pdfrwt>
<pdfrwt beam="2">  1       -1 0.25434692E+00 0.11761383E+04</pdfrwt>
<totfact> 0.55416662E-01</totfact>
</mgrwt>
</event>
<event>
 4    5  0.7214169E-008  0.1228388E+04  0.7818608E-02  0.9130009E-01
         -1   -1    0    0    0  501 -0.00000000000E+00  0.00000000000E+00  0.16195585601E+04  0.16195585601E+04  0.50400000000E-02 0.  1.
          1   -1    0    0  501    0  0.00000000000E+00 -0.00000000000E+00 -0.22099980743E+04  0.22099980743E+04  0.50400000000E-02 0. -1.
    8880023    1    1    2    0    0 -0.13723521229E+03  0.10277611228E+04  0.12240330652E+04  0.17341261719E+04  0.65864270000E+03 0. -1.
    8880022    1    1    2    0    0  0.13723521229E+03 -0.10277611228E+04 -0.18144725793E+04  0.20954304625E+04  0.15294330000E+03 0.  0.
<mgrwt>
<rscale>  0 0.11805993E+04</rscale>
<asrwt>0</asrwt>
<pdfrwt beam="1">  1        1 0.33999970E+00 0.12283878E+04</pdfrwt>
<pdfrwt beam="2">  1       -1 0.24916286E+00 0.12283878E+04</pdfrwt>
<totfact> 0.14835710E-01</totfact>
</mgrwt>
</event>
<event>
 4    5  0.7214169E-008  0.7519351E+03  0.7818608E-02  0.9826453E-01
          1   -1    0    0  501    0  0.00000000000E+00  0.00000000000E+00  0.18689873688E+04  0.18689873688E+04  0.50400000000E-02 0. -1.
         -1   -1    0    0    0  501 -0.00000000000E+00 -0.00000000000E+00 -0.57707877861E+03  0.57707877863E+03  0.50400000000E-02 0.  1.
    8880023    1    1    2    0    0  0.23071768156E+03  0.27993854189E+03 -0.29748366593E+03  0.80864267360E+03  0.65864270000E+03 0.  1.
    8880022    1    1    2    0    0 -0.23071768156E+03 -0.27993854189E+03  0.15893922561E+04  0.16374234738E+04  0.15294330000E+03 0.  0.
<mgrwt>
<rscale>  0 0.63962069E+03</rscale>
<asrwt>0</asrwt>
<pdfrwt beam="1">  1        1 0.28753652E+00 0.75193513E+03</pdfrwt>
<pdfrwt beam="2">  1       -1 0.88781350E-01 0.75193513E+03</pdfrwt>
<totfact> 0.47689317E+00</totfact>
</mgrwt>
</event>
<event>
 4    5  0.7214169E-008  0.7476194E+03  0.7818608E-02  0.9838283E-01
         -1   -1    0    0    0  501 -0.00000000000E+00  0.00000000000E+00  0.26434521256E+03  0.26434521260E+03  0.50400000000E-02 0.  1.
          1   -1    0    0  501    0  0.00000000000E+00 -0.00000000000E+00 -0.23324743930E+04  0.23324743930E+04  0.50400000000E-02 0. -1.
    8880023    1    1    2    0    0  0.22967283856E+02  0.35298313790E+03 -0.33127954068E+03  0.81772913126E+03  0.65864270000E+03 0.  1.
    8880022    1    1    2    0    0 -0.22967283856E+02 -0.35298313790E+03 -0.17368496398E+04  0.17790904744E+04  0.15294330000E+03 0.  0.
<mgrwt>
<rscale>  0 0.63347893E+03</rscale>
<asrwt>0</asrwt>
<pdfrwt beam="1">  1        1 0.35884220E+00 0.74761942E+03</pdfrwt>
<pdfrwt beam="2">  1       -1 0.40668496E-01 0.74761942E+03</pdfrwt>
<totfact> 0.10975249E+01</totfact>
</mgrwt>
</event>
<event>
 4    5  0.7214169E-008  0.7025612E+03  0.7818608E-02  0.9986738E-01
          1   -1    0    0  501    0  0.00000000000E+00  0.00000000000E+00  0.91896379235E+03  0.91896379236E+03  0.50400000000E-02 0. -1.
         -1   -1    0    0    0  501 -0.00000000000E+00 -0.00000000000E+00 -0.29664085301E+03  0.29664085305E+03  0.50400000000E-02 0.  1.
    8880023    1    1    2    0    0 -0.24432888358E+03  0.92440735973E+01  0.25235268910E+03  0.74650796527E+03  0.65864270000E+03 0.  0.
    8880022    1    1    2    0    0  0.24432888358E+03 -0.92440735973E+01  0.36997025023E+03  0.46909668014E+03  0.15294330000E+03 0.  0.
<mgrwt>
<rscale>  0 0.56235607E+03</rscale>
<asrwt>0</asrwt>
<pdfrwt beam="1">  1        1 0.14137905E+00 0.70256122E+03</pdfrwt>
<pdfrwt beam="2">  1       -1 0.45637054E-01 0.70256122E+03</pdfrwt>
<totfact> 0.85781335E+01</totfact>
</mgrwt>
</event>
<event>
 4    5  0.7214169E-008  0.8339410E+03  0.7818608E-02  0.9641713E-01
          1   -1    0    0  501    0  0.00000000000E+00  0.00000000000E+00  0.70962602871E+03  0.70962602873E+03  0.50400000000E-02 0. -1.
         -1   -1    0    0    0  501 -0.00000000000E+00 -0.00000000000E+00 -0.14579908989E+04  0.14579908989E+04  0.50400000000E-02 0.  1.
    8880023    1    1    2    0    0  0.45010148539E+03 -0.24301433389E+03 -0.12047645508E+04  0.14652355247E+04  0.65864270000E+03 0.  1.
    8880022    1    1    2    0    0 -0.45010148539E+03  0.24301433389E+03  0.45639968067E+03  0.70238140291E+03  0.15294330000E+03 0.  0.
<mgrwt>
<rscale>  0 0.74595823E+03</rscale>
<asrwt>0</asrwt>
<pdfrwt beam="1">  1        1 0.10917324E+00 0.83394096E+03</pdfrwt>
<pdfrwt beam="2">  1       -1 0.22430629E+00 0.83394096E+03</pdfrwt>
<totfact> 0.28252502E+00</totfact>
</mgrwt>
</event>
<event>
 4    5  0.7214169E-008  0.1794683E+04  0.7818608E-02  0.8725483E-01
         -1   -1    0    0    0  501 -0.00000000000E+00  0.00000000000E+00  0.25202215236E+04  0.25202215236E+04  0.50400000000E-02 0.  1.
          1   -1    0    0  501    0  0.00000000000E+00 -0.00000000000E+00 -0.26586928177E+04  0.26586928177E+04  0.50400000000E-02 0. -1.
    8880023    1    1    2    0    0  0.33450907130E+03 -0.16355980322E+04 -0.19909793609E+04  0.26804638150E+04  0.65864270000E+03 0.  0.
    8880022    1    1    2    0    0 -0.33450907130E+03  0.16355980322E+04  0.18525080668E+04  0.24984505263E+04  0.15294330000E+03 0.  0.
<mgrwt>
<rscale>  0 0.17643640E+04</rscale>
<asrwt>0</asrwt>
<pdfrwt beam="1">  1        1 0.40902966E+00 0.17946831E+04</pdfrwt>
<pdfrwt beam="2">  1       -1 0.38772639E+00 0.17946831E+04</pdfrwt>
<totfact> 0.82415427E-03</totfact>
</mgrwt>
</event>
<event>
 4    5  0.7214169E-008  0.6675806E+03  0.7818608E-02  0.1017460E+00
         -1   -1    0    0    0  501 -0.00000000000E+00  0.00000000000E+00  0.75204020426E+03  0.75204020427E+03  0.50400000000E-02 0.  1.
          1   -1    0    0  501    0  0.00000000000E+00 -0.00000000000E+00 -0.15604140343E+04  0.15604140343E+04  0.50400000000E-02 0. -1.
    8880023    1    1    2    0    0 -0.61217207606E+02  0.90033760844E+02  0.59640347871E+03  0.89518765646E+03  0.65864270000E+03 0.  1.
    8880022    1    1    2    0    0  0.61217207606E+02 -0.90033760844E+02 -0.14047773087E+04  0.14172665821E+04  0.15294330000E+03 0.  0.
<mgrwt>
<rscale>  0 0.48614451E+03</rscale>
<asrwt>0</asrwt>
<pdfrwt beam="1">  1        1 0.24006370E+00 0.66758058E+03</pdfrwt>
<pdfrwt beam="2">  1       -1 0.11569849E+00 0.66758058E+03</pdfrwt>
<totfact> 0.42586970E+00</totfact>
</mgrwt>
</event>
<event>
 4    5  0.7214169E-008  0.8725954E+03  0.7818608E-02  0.9571540E-01
          1   -1    0    0  501    0  0.00000000000E+00  0.00000000000E+00  0.25002741830E+04  0.25002741830E+04  0.50400000000E-02 0. -1.
         -1   -1    0    0    0  501 -0.00000000000E+00 -0.00000000000E+00 -0.33863894303E+03  0.33863894307E+03  0.50400000000E-02 0.  1.
    8880023    1    1    2    0    0 -0.47121220092E+03 -0.32491770795E+03  0.36277597044E+03  0.94500215144E+03  0.65864270000E+03 0.  0.
    8880022    1    1    2    0    0  0.47121220092E+03  0.32491770795E+03  0.17988592695E+04  0.18939109746E+04  0.15294330000E+03 0.  0.
<mgrwt>
<rscale>  0 0.79208848E+03</rscale>
<asrwt>0</asrwt>
<pdfrwt beam="1">  1        1 0.38465757E+00 0.87259536E+03</pdfrwt>
<pdfrwt beam="2">  1       -1 0.52098298E-01 0.87259536E+03</pdfrwt>
<totfact> 0.52100584E+00</totfact>
</mgrwt>
</event>
<event>
 4    5  0.7214169E-008  0.7074076E+03  0.7818608E-02  0.9967757E-01
         -1   -1    0    0    0  501 -0.00000000000E+00  0.00000000000E+00  0.11958794288E+04  0.11958794288E+04  0.50400000000E-02 0.  1.
          1   -1    0    0  501    0  0.00000000000E+00 -0.00000000000E+00 -0.74903455940E+03  0.74903455942E+03  0.50400000000E-02 0. -1.
    8880023    1    1    2    0    0 -0.24338864663E+03  0.85890941081E+02  0.10530124428E+04  0.12685663948E+04  0.65864270000E+03 0.  1.
    8880022    1    1    2    0    0  0.24338864663E+03 -0.85890941081E+02 -0.60616757340E+03  0.67634759342E+03  0.15294330000E+03 0.  0.
<mgrwt>
<rscale>  0 0.57086943E+03</rscale>
<asrwt>0</asrwt>
<pdfrwt beam="1">  1        1 0.11523609E+00 0.70740759E+03</pdfrwt>
<pdfrwt beam="2">  1       -1 0.18398145E+00 0.70740759E+03</pdfrwt>
<totfact> 0.49875296E+00</totfact>
</mgrwt>
</event>
<event>
 4    5  0.7214169E-008  0.1008512E+04  0.7818608E-02  0.9370505E-01
         -1   -1    0    0    0  501 -0.00000000000E+00  0.00000000000E+00  0.11219417532E+04  0.11219417532E+04  0.50400000000E-02 0.  1.
          1   -1    0    0  501    0  0.00000000000E+00 -0.00000000000E+00 -0.12621322116E+04  0.12621322116E+04  0.50400000000E-02 0. -1.
    8880023    1    1    2    0    0 -0.66976444143E+03  0.36701727936E+03  0.70822123830E+03  0.12323447647E+04  0.65864270000E+03 0.  1.
    8880022    1    1    2    0    0  0.66976444143E+03 -0.36701727936E+03 -0.84841169672E+03  0.11517292002E+04  0.15294330000E+03 0.  0.
<mgrwt>
<rscale>  0 0.94543252E+03</rscale>
<asrwt>0</asrwt>
<pdfrwt beam="1">  1        1 0.19417419E+00 0.10085119E+04</pdfrwt>
<pdfrwt beam="2">  1       -1 0.17260642E+00 0.10085119E+04</pdfrwt>
<totfact> 0.22747742E+00</totfact>
</mgrwt>
</event>
<event>
 4    5  0.7214169E-008  0.8511244E+03  0.7818608E-02  0.9609551E-01
         -1   -1    0    0    0  501 -0.00000000000E+00  0.00000000000E+00  0.27105325632E+04  0.27105325632E+04  0.50400000000E-02 0.  1.
          1   -1    0    0  501    0  0.00000000000E+00 -0.00000000000E+00 -0.23289360622E+03  0.23289360627E+03  0.50400000000E-02 0. -1.
    8880023    1    1    2    0    0  0.38709242442E+03 -0.37518268822E+03  0.21047935433E+04  0.22703675167E+04  0.65864270000E+03 0.  0.
    8880022    1    1    2    0    0 -0.38709242442E+03  0.37518268822E+03  0.37284541365E+03  0.67305865278E+03  0.15294330000E+03 0.  0.
<mgrwt>
<rscale>  0 0.76667271E+03</rscale>
<asrwt>0</asrwt>
<pdfrwt beam="1">  1        1 0.35829785E-01 0.85112443E+03</pdfrwt>
<pdfrwt beam="2">  1       -1 0.41700502E+00 0.85112443E+03</pdfrwt>
<totfact> 0.70002993E-01</totfact>
</mgrwt>
</event>
<event>
 4    5  0.7214169E-008  0.7236386E+03  0.7818608E-02  0.9910461E-01
          1   -1    0    0  501    0  0.00000000000E+00  0.00000000000E+00  0.70470207132E+03  0.70470207134E+03  0.50400000000E-02 0. -1.
         -1   -1    0    0    0  501 -0.00000000000E+00 -0.00000000000E+00 -0.12094311444E+04  0.12094311444E+04  0.50400000000E-02 0.  1.
    8880023    1    1    2    0    0  0.19320377066E+03  0.22916139313E+03 -0.10489132892E+04  0.12743123383E+04  0.65864270000E+03 0.  0.
    8880022    1    1    2    0    0 -0.19320377066E+03 -0.22916139313E+03  0.54418421612E+03  0.63982087742E+03  0.15294330000E+03 0.  0.
<mgrwt>
<rscale>  0 0.59756967E+03</rscale>
<asrwt>0</asrwt>
<pdfrwt beam="1">  1        1 0.10841570E+00 0.72363862E+03</pdfrwt>
<pdfrwt beam="2">  1       -1 0.18606633E+00 0.72363862E+03</pdfrwt>
<totfact> 0.52804368E+00</totfact>
</mgrwt>
</event>
<event>
 4    5  0.7214169E-008  0.1073232E+04  0.7818608E-02  0.9291461E-01
          1   -1    0    0  501    0  0.00000000000E+00  0.00000000000E+00  0.10830442015E+04  0.10830442015E+04  0.50400000000E-02 0. -1.
         -1   -1    0    0    0  501 -0.00000000000E+00 -0.00000000000E+00 -0.14821860906E+04  0.14821860906E+04  0.50400000000E-02 0.  1.
    8880023    1    1    2    0    0 -0.38302230943E+03 -0.75585141609E+03 -0.10379888421E+04  0.14930668087E+04  0.65864270000E+03 0.  1.
    8880022    1    1    2    0    0  0.38302230943E+03  0.75585141609E+03  0.63884695305E+03  0.10721634834E+04  0.15294330000E+03 0.  0.
<mgrwt>
<rscale>  0 0.10157283E+04</rscale>
<asrwt>0</asrwt>
<pdfrwt beam="1">  1        1 0.16662218E+00 0.10732323E+04</pdfrwt>
<pdfrwt beam="2">  1       -1 0.22802863E+00 0.10732323E+04</pdfrwt>
<totfact> 0.12658862E+00</totfact>
</mgrwt>
</event>
<event>
 4    5  0.7214169E-008  0.8084324E+03  0.7818608E-02  0.9692851E-01
         -1   -1    0    0    0  501 -0.00000000000E+00  0.00000000000E+00  0.10004279456E+04  0.10004279456E+04  0.50400000000E-02 0.  1.
          1   -1    0    0  501    0  0.00000000000E+00 -0.00000000000E+00 -0.15104182088E+04  0.15104182089E+04  0.50400000000E-02 0. -1.
    8880023    1    1    2    0    0 -0.60585018845E+02  0.46484647874E+03  0.78396054551E+03  0.11261248317E+04  0.65864270000E+03 0.  1.
    8880022    1    1    2    0    0  0.60585018845E+02 -0.46484647874E+03 -0.12939508088E+04  0.13847213228E+04  0.15294330000E+03 0.  0.
<mgrwt>
<rscale>  0 0.71444013E+03</rscale>
<asrwt>0</asrwt>
<pdfrwt beam="1">  1        1 0.23237203E+00 0.80843243E+03</pdfrwt>
<pdfrwt beam="2">  1       -1 0.15391199E+00 0.80843243E+03</pdfrwt>
<totfact> 0.21681599E+00</totfact>
</mgrwt>
</event>
<event>
 4    5  0.7214169E-008  0.7593535E+03  0.7818608E-02  0.9806784E-01
          1   -1    0    0  501    0  0.00000000000E+00  0.00000000000E+00  0.47164822588E+03  0.47164822591E+03  0.50400000000E-02 0. -1.
         -1   -1    0    0    0  501 -0.00000000000E+00 -0.00000000000E+00 -0.10975261999E+04  0.10975261999E+04  0.50400000000E-02 0.  1.
    8880023    1    1    2    0    0  0.21489287946E+03  0.31085132257E+03 -0.82003979926E+03  0.11176238066E+04  0.65864270000E+03 0.  1.
    8880022    1    1    2    0    0 -0.21489287946E+03 -0.31085132257E+03  0.19416182521E+03  0.45155061928E+03  0.15294330000E+03 0.  0.
<mgrwt>
<rscale>  0 0.64999735E+03</rscale>
<asrwt>0</asrwt>
<pdfrwt beam="1">  1        1 0.72561266E-01 0.75935348E+03</pdfrwt>
<pdfrwt beam="2">  1       -1 0.16885018E+00 0.75935348E+03</pdfrwt>
<totfact> 0.12388541E+01</totfact>
</mgrwt>
</event>
<event>
 4    5  0.7214169E-008  0.6850212E+03  0.7818608E-02  0.1006615E+00
          1   -1    0    0  501    0  0.00000000000E+00  0.00000000000E+00  0.11384744594E+04  0.11384744595E+04  0.50400000000E-02 0. -1.
         -1   -1    0    0    0  501 -0.00000000000E+00 -0.00000000000E+00 -0.25985304708E+03  0.25985304713E+03  0.50400000000E-02 0.  1.
    8880023    1    1    2    0    0  0.18756592875E+03 -0.16211387760E+02  0.25801109906E+03  0.73199980890E+03  0.65864270000E+03 0.  1.
    8880022    1    1    2    0    0 -0.18756592875E+03  0.16211387760E+02  0.62061031330E+03  0.66632769769E+03  0.15294330000E+03 0.  0.
<mgrwt>
<rscale>  0 0.52842440E+03</rscale>
<asrwt>0</asrwt>
<pdfrwt beam="1">  1        1 0.17514992E+00 0.68502116E+03</pdfrwt>
<pdfrwt beam="2">  1       -1 0.39977392E-01 0.68502116E+03</pdfrwt>
<totfact> 0.74404338E+01</totfact>
</mgrwt>
</event>
<event>
 4    5  0.1002848E-007  0.6942489E+03  0.7818608E-02  0.1002195E+00
         -1   -1    0    0    0  501 -0.00000000000E+00  0.00000000000E+00  0.21956522697E+04  0.21956522698E+04  0.50400000000E-02 0.  1.
          1   -1    0    0  501    0  0.00000000000E+00 -0.00000000000E+00 -0.11214709418E+04  0.11214709418E+04  0.50400000000E-02 0. -1.
    8880023    1    1    2    0    0  0.82708081602E+02 -0.20329945687E+03  0.21235701519E+04  0.22341736039E+04  0.65864270000E+03 0.  1.
    8880022    1    1    2    0    0 -0.82708081602E+02  0.20329945687E+03 -0.10493888240E+04  0.10829496077E+04  0.15294330000E+03 0.  0.
<mgrwt>
<rscale>  0 0.54698122E+03</rscale>
<asrwt>0</asrwt>
<pdfrwt beam="1">  1        1 0.17253399E+00 0.69424888E+03</pdfrwt>
<pdfrwt beam="2">  1       -1 0.33779266E+00 0.69424888E+03</pdfrwt>
<totfact> 0.24869952E-01</totfact>
</mgrwt>
</event>
<event>
 4    5  0.7214169E-008  0.7724347E+03  0.7818608E-02  0.9773918E-01
         -1   -1    0    0    0  501 -0.00000000000E+00  0.00000000000E+00  0.13061816726E+04  0.13061816726E+04  0.50400000000E-02 0.  1.
          1   -1    0    0  501    0  0.00000000000E+00 -0.00000000000E+00 -0.11156916644E+04  0.11156916644E+04  0.50400000000E-02 0. -1.
    8880023    1    1    2    0    0  0.35287519418E+03  0.19576595349E+03  0.11410630193E+04  0.13779260617E+04  0.65864270000E+03 0.  1.
    8880022    1    1    2    0    0 -0.35287519418E+03 -0.19576595349E+03 -0.95057301111E+03  0.10439472753E+04  0.15294330000E+03 0.  0.
<mgrwt>
<rscale>  0 0.66781251E+03</rscale>
<asrwt>0</asrwt>
<pdfrwt beam="1">  1        1 0.17164487E+00 0.77243473E+03</pdfrwt>
<pdfrwt beam="2">  1       -1 0.20095103E+00 0.77243473E+03</pdfrwt>
<totfact> 0.19036527E+00</totfact>
</mgrwt>
</event>
<event>
 4    5  0.1249388E-007  0.7598614E+03  0.7818608E-02  0.9805466E-01
          1   -1    0    0  501    0  0.00000000000E+00  0.00000000000E+00  0.15574784697E+04  0.15574784697E+04  0.50400000000E-02 0. -1.
         -1   -1    0    0    0  501 -0.00000000000E+00 -0.00000000000E+00 -0.15838610519E+04  0.15838610519E+04  0.50400000000E-02 0.  1.
    8880023    1    1    2    0    0 -0.35479515312E+03 -0.13303974588E+03 -0.14625550510E+04  0.16481676669E+04  0.65864270000E+03 0.  1.
    8880022    1    1    2    0    0  0.35479515312E+03  0.13303974588E+03  0.14361724688E+04  0.14931718547E+04  0.15294330000E+03 0.  0.
<mgrwt>
<rscale>  0 0.65070010E+03</rscale>
<asrwt>0</asrwt>
<pdfrwt beam="1">  1        1 0.23961207E+00 0.75986142E+03</pdfrwt>
<pdfrwt beam="2">  1       -1 0.24367093E+00 0.75986142E+03</pdfrwt>
<totfact> 0.48497852E-01</totfact>
</mgrwt>
</event>
<event>
 4    5  0.7214169E-008  0.7306411E+03  0.7818608E-02  0.9888099E-01
          1   -1    0    0  501    0  0.00000000000E+00  0.00000000000E+00  0.70561717129E+03  0.70561717130E+03  0.50400000000E-02 0. -1.
         -1   -1    0    0    0  501 -0.00000000000E+00 -0.00000000000E+00 -0.15029421276E+04  0.15029421276E+04  0.50400000000E-02 0.  1.
    8880023    1    1    2    0    0 -0.19750818738E+03  0.24701550988E+03 -0.13607981533E+04  0.15445413450E+04  0.65864270000E+03 0.  1.
    8880022    1    1    2    0    0  0.19750818738E+03 -0.24701550988E+03  0.56347319705E+03  0.66401795383E+03  0.15294330000E+03 0.  0.
<mgrwt>
<rscale>  0 0.60841551E+03</rscale>
<asrwt>0</asrwt>
<pdfrwt beam="1">  1        1 0.10855649E+00 0.73064106E+03</pdfrwt>
<pdfrwt beam="2">  1       -1 0.23122186E+00 0.73064106E+03</pdfrwt>
<totfact> 0.26084026E+00</totfact>
</mgrwt>
</event>
<event>
 4    5  0.7214169E-008  0.9707707E+03  0.7818608E-02  0.9420839E-01
         -1   -1    0    0    0  501 -0.00000000000E+00  0.00000000000E+00  0.73027378732E+03  0.73027378734E+03  0.50400000000E-02 0.  1.
          1   -1    0    0  501    0  0.00000000000E+00 -0.00000000000E+00 -0.30891943045E+04  0.30891943045E+04  0.50400000000E-02 0. -1.
    8880023    1    1    2    0    0 -0.57358519480E+03  0.42377530153E+03  0.33624588706E+03  0.10273543618E+04  0.65864270000E+03 0.  1.
    8880022    1    1    2    0    0  0.57358519480E+03 -0.42377530153E+03 -0.26951664042E+04  0.27921137300E+04  0.15294330000E+03 0.  0.
<mgrwt>
<rscale>  0 0.90380368E+03</rscale>
<asrwt>0</asrwt>
<pdfrwt beam="1">  1        1 0.47526066E+00 0.97077067E+03</pdfrwt>
<pdfrwt beam="2">  1       -1 0.11234982E+00 0.97077067E+03</pdfrwt>
<totfact> 0.38628013E-01</totfact>
</mgrwt>
</event>
<event>
 4    5  0.7214169E-008  0.1411370E+04  0.7818608E-02  0.8974898E-01
         -1   -1    0    0    0  501 -0.00000000000E+00  0.00000000000E+00  0.28115330416E+04  0.28115330416E+04  0.50400000000E-02 0.  1.
          1   -1    0    0  501    0  0.00000000000E+00 -0.00000000000E+00 -0.11712650061E+04  0.11712650061E+04  0.50400000000E-02 0. -1.
    8880023    1    1    2    0    0  0.10788728574E+04 -0.62784507743E+03  0.21939495882E+04  0.26087125341E+04  0.65864270000E+03 0.  0.
    8880022    1    1    2    0    0 -0.10788728574E+04  0.62784507743E+03 -0.55368155267E+03  0.13740855136E+04  0.15294330000E+03 0.  0.
<mgrwt>
<rscale>  0 0.13712481E+04</rscale>
<asrwt>0</asrwt>
<pdfrwt beam="1">  1        1 0.18019462E+00 0.14113704E+04</pdfrwt>
<pdfrwt beam="2">  1       -1 0.43254354E+00 0.14113704E+04</pdfrwt>
<totfact> 0.46037383E-02</totfact>
</mgrwt>
</event>
<event>
 4    5  0.7214169E-008  0.7226823E+03  0.7818608E-02  0.9913612E-01
          1   -1    0    0  501    0  0.00000000000E+00  0.00000000000E+00  0.25584965939E+03  0.25584965944E+03  0.50400000000E-02 0. -1.
         -1   -1    0    0    0  501 -0.00000000000E+00 -0.00000000000E+00 -0.16178815765E+04  0.16178815765E+04  0.50400000000E-02 0.  1.
    8880023    1    1    2    0    0  0.20238055560E+03  0.21794858326E+03 -0.13590817138E+04  0.15392767085E+04  0.65864270000E+03 0.  1.
    8880022    1    1    2    0    0 -0.20238055560E+03 -0.21794858326E+03 -0.29502033013E+01  0.33445452747E+03  0.15294330000E+03 0.  0.
<mgrwt>
<rscale>  0 0.59606085E+03</rscale>
<asrwt>0</asrwt>
<pdfrwt beam="1">  1        1 0.39361487E-01 0.72268228E+03</pdfrwt>
<pdfrwt beam="2">  1       -1 0.24890485E+00 0.72268228E+03</pdfrwt>
<totfact> 0.79521032E+00</totfact>
</mgrwt>
</event>
<event>
 4    5  0.7214169E-008  0.1278620E+04  0.7818608E-02  0.9084246E-01
         -1   -1    0    0    0  501 -0.00000000000E+00  0.00000000000E+00  0.10048189125E+04  0.10048189125E+04  0.50400000000E-02 0.  1.
          1   -1    0    0  501    0  0.00000000000E+00 -0.00000000000E+00 -0.25294112271E+04  0.25294112271E+04  0.50400000000E-02 0. -1.
    8880023    1    1    2    0    0 -0.10500164297E+04 -0.31388790460E+03  0.37793591383E+03  0.13333063716E+04  0.65864270000E+03 0.  0.
    8880022    1    1    2    0    0  0.10500164297E+04  0.31388790460E+03 -0.19025282284E+04  0.22009237679E+04  0.15294330000E+03 0.  0.
<mgrwt>
<rscale>  0 0.12332438E+04</rscale>
<asrwt>0</asrwt>
<pdfrwt beam="1">  1        1 0.38914019E+00 0.12786205E+04</pdfrwt>
<pdfrwt beam="2">  1       -1 0.15458753E+00 0.12786205E+04</pdfrwt>
<totfact> 0.40551217E-01</totfact>
</mgrwt>
</event>
<event>
 4    5  0.7214169E-008  0.9924370E+03  0.7818608E-02  0.9391520E-01
          1   -1    0    0  501    0  0.00000000000E+00  0.00000000000E+00  0.11739415752E+04  0.11739415752E+04  0.50400000000E-02 0. -1.
         -1   -1    0    0    0  501 -0.00000000000E+00 -0.00000000000E+00 -0.75150787716E+03  0.75150787718E+03  0.50400000000E-02 0.  1.
    8880023    1    1    2    0    0  0.64445768328E+03  0.36850404842E+03 -0.11095225270E+03  0.99861982150E+03  0.65864270000E+03 0.  1.
    8880022    1    1    2    0    0 -0.64445768328E+03 -0.36850404842E+03  0.53338595073E+03  0.92682963089E+03  0.15294330000E+03 0.  0.
<mgrwt>
<rscale>  0 0.92776855E+03</rscale>
<asrwt>0</asrwt>
<pdfrwt beam="1">  1        1 0.18060640E+00 0.99243697E+03</pdfrwt>
<pdfrwt beam="2">  1       -1 0.11561660E+00 0.99243697E+03</pdfrwt>
<totfact> 0.75980727E+00</totfact>
</mgrwt>
</event>
<event>
 4    5  0.7214169E-008  0.6589803E+03  0.7818608E-02  0.1025226E+00
          1   -1    0    0  501    0  0.00000000000E+00  0.00000000000E+00  0.13972591164E+04  0.13972591164E+04  0.50400000000E-02 0. -1.
         -1   -1    0    0    0  501 -0.00000000000E+00 -0.00000000000E+00 -0.49692491587E+03  0.49692491589E+03  0.50400000000E-02 0.  1.
    8880023    1    1    2    0    0  0.12781396837E+02  0.16775839203E+02 -0.27113911090E+03  0.71258081409E+03  0.65864270000E+03 0.  1.
    8880022    1    1    2    0    0 -0.12781396837E+02 -0.16775839203E+02  0.11714733114E+04  0.11816032182E+04  0.15294330000E+03 0.  0.
<mgrwt>
<rscale>  0 0.45846850E+03</rscale>
<asrwt>0</asrwt>
<pdfrwt beam="1">  1        1 0.21496294E+00 0.65898027E+03</pdfrwt>
<pdfrwt beam="2">  1       -1 0.76449988E-01 0.65898027E+03</pdfrwt>
<totfact> 0.13910592E+01</totfact>
</mgrwt>
</event>
<event>
 4    5  0.7214169E-008  0.7899818E+03  0.7818608E-02  0.9732891E-01
          1   -1    0    0  501    0  0.00000000000E+00  0.00000000000E+00  0.15349996232E+04  0.15349996232E+04  0.50400000000E-02 0. -1.
         -1   -1    0    0    0  501 -0.00000000000E+00 -0.00000000000E+00 -0.10157753978E+04  0.10157753978E+04  0.50400000000E-02 0.  1.
    8880023    1    1    2    0    0  0.33929931045E+03  0.27411133768E+03 -0.81723703932E+03  0.11366387431E+04  0.65864270000E+03 0.  1.
    8880022    1    1    2    0    0 -0.33929931045E+03 -0.27411133768E+03  0.13364612648E+04  0.14141362780E+04  0.15294330000E+03 0.  0.
<mgrwt>
<rscale>  0 0.69091777E+03</rscale>
<asrwt>0</asrwt>
<pdfrwt beam="1">  1        1 0.23615379E+00 0.78998181E+03</pdfrwt>
<pdfrwt beam="2">  1       -1 0.15627314E+00 0.78998181E+03</pdfrwt>
<totfact> 0.20073348E+00</totfact>
</mgrwt>
</event>
<event>
 4    5  0.7214169E-008  0.7902330E+03  0.7818608E-02  0.9732326E-01
         -1   -1    0    0    0  501 -0.00000000000E+00  0.00000000000E+00  0.55970907762E+03  0.55970907764E+03  0.50400000000E-02 0.  1.
          1   -1    0    0  501    0  0.00000000000E+00 -0.00000000000E+00 -0.86786294499E+03  0.86786294500E+03  0.50400000000E-02 0. -1.
    8880023    1    1    2    0    0  0.30853698846E+03 -0.30897083323E+03  0.11747239384E+03  0.79891677827E+03  0.65864270000E+03 0.  1.
    8880022    1    1    2    0    0 -0.30853698846E+03  0.30897083323E+03 -0.42562626120E+03  0.62865524437E+03  0.15294330000E+03 0.  0.
<mgrwt>
<rscale>  0 0.69124295E+03</rscale>
<asrwt>0</asrwt>
<pdfrwt beam="1">  1        1 0.13351738E+00 0.79023304E+03</pdfrwt>
<pdfrwt beam="2">  1       -1 0.86109089E-01 0.79023304E+03</pdfrwt>
<totfact> 0.26323740E+01</totfact>
</mgrwt>
</event>
<event>
 4    5  0.7214169E-008  0.1332987E+04  0.7818608E-02  0.9037585E-01
         -1   -1    0    0    0  501 -0.00000000000E+00  0.00000000000E+00  0.53383706717E+03  0.53383706719E+03  0.50400000000E-02 0.  1.
          1   -1    0    0  501    0  0.00000000000E+00 -0.00000000000E+00 -0.39681722306E+04  0.39681722306E+04  0.50400000000E-02 0. -1.
    8880023    1    1    2    0    0  0.11467880603E+04 -0.16709449828E+03 -0.65160084946E+03  0.14837241320E+04  0.65864270000E+03 0.  0.
    8880022    1    1    2    0    0 -0.11467880603E+04  0.16709449828E+03 -0.27827343139E+04  0.30182851657E+04  0.15294330000E+03 0.  0.
<mgrwt>
<rscale>  0 0.12899355E+04</rscale>
<asrwt>0</asrwt>
<pdfrwt beam="1">  1        1 0.61048801E+00 0.13329867E+04</pdfrwt>
<pdfrwt beam="2">  1       -1 0.82128782E-01 0.13329867E+04</pdfrwt>
<totfact> 0.15013106E-01</totfact>
</mgrwt>
</event>
<event>
 4    5  0.7214169E-008  0.6882848E+03  0.7818608E-02  0.1004979E+00
          1   -1    0    0  501    0  0.00000000000E+00  0.00000000000E+00  0.84183308531E+03  0.84183308532E+03  0.50400000000E-02 0. -1.
         -1   -1    0    0    0  501 -0.00000000000E+00 -0.00000000000E+00 -0.92994775391E+03  0.92994775393E+03  0.50400000000E-02 0.  1.
    8880023    1    1    2    0    0  0.12663390384E+03  0.15456283684E+03 -0.77721764553E+03  0.10381730544E+04  0.65864270000E+03 0.  1.
    8880022    1    1    2    0    0 -0.12663390384E+03 -0.15456283684E+03  0.68910297693E+03  0.73360778483E+03  0.15294330000E+03 0.  0.
<mgrwt>
<rscale>  0 0.53520061E+03</rscale>
<asrwt>0</asrwt>
<pdfrwt beam="1">  1        1 0.12951278E+00 0.68828484E+03</pdfrwt>
<pdfrwt beam="2">  1       -1 0.14306889E+00 0.68828484E+03</pdfrwt>
<totfact> 0.83929079E+00</totfact>
</mgrwt>
</event>
<event>
 4    5  0.7214169E-008  0.7108104E+03  0.7818608E-02  0.9955004E-01
          1   -1    0    0  501    0  0.00000000000E+00  0.00000000000E+00  0.15807099322E+04  0.15807099322E+04  0.50400000000E-02 0. -1.
         -1   -1    0    0    0  501 -0.00000000000E+00 -0.00000000000E+00 -0.16416191659E+03  0.16416191667E+03  0.50400000000E-02 0.  1.
    8880023    1    1    2    0    0  0.53717024929E+02 -0.26183135415E+03  0.98054178035E+03  0.12110795044E+04  0.65864270000E+03 0. -1.
    8880022    1    1    2    0    0 -0.53717024929E+02  0.26183135415E+03  0.43600623526E+03  0.53379234444E+03  0.15294330000E+03 0.  1.
<mgrwt>
<rscale>  0 0.57668035E+03</rscale>
<asrwt>0</asrwt>
<pdfrwt beam="1">  1        1 0.24318615E+00 0.71081037E+03</pdfrwt>
<pdfrwt beam="2">  1       -1 0.25255679E-01 0.71081037E+03</pdfrwt>
<totfact> 0.81466983E+01</totfact>
</mgrwt>
</event>
<event>
 4    5  0.7214169E-008  0.7812712E+03  0.7818608E-02  0.9752859E-01
          1   -1    0    0  501    0  0.00000000000E+00  0.00000000000E+00  0.90586850806E+03  0.90586850807E+03  0.50400000000E-02 0. -1.
         -1   -1    0    0    0  501 -0.00000000000E+00 -0.00000000000E+00 -0.10811876077E+04  0.10811876077E+04  0.50400000000E-02 0.  1.
    8880023    1    1    2    0    0 -0.38394742486E+03 -0.17075955551E+03 -0.86468209020E+03  0.11653582171E+04  0.65864270000E+03 0.  1.
    8880022    1    1    2    0    0  0.38394742486E+03  0.17075955551E+03  0.68936299057E+03  0.82169789865E+03  0.15294330000E+03 0.  0.
<mgrwt>
<rscale>  0 0.67954919E+03</rscale>
<asrwt>0</asrwt>
<pdfrwt beam="1">  1        1 0.13936439E+00 0.78127118E+03</pdfrwt>
<pdfrwt beam="2">  1       -1 0.16633655E+00 0.78127118E+03</pdfrwt>
<totfact> 0.48615527E+00</totfact>
</mgrwt>
</event>
<event>
 4    5  0.7214169E-008  0.9256490E+03  0.7818608E-02  0.9486051E-01
         -1   -1    0    0    0  501 -0.00000000000E+00  0.00000000000E+00  0.10847014269E+04  0.10847014269E+04  0.50400000000E-02 0.  1.
          1   -1    0    0  501    0  0.00000000000E+00 -0.00000000000E+00 -0.11471255793E+04  0.11471255793E+04  0.50400000000E-02 0. -1.
    8880023    1    1    2    0    0 -0.23955972016E+03 -0.60467095858E+03  0.74184517437E+03  0.11862378752E+04  0.65864270000E+03 0.  0.
    8880022    1    1    2    0    0  0.23955972016E+03  0.60467095858E+03 -0.80426932682E+03  0.10455891309E+04  0.15294330000E+03 0.  0.
<mgrwt>
<rscale>  0 0.85320065E+03</rscale>
<asrwt>0</asrwt>
<pdfrwt beam="1">  1        1 0.17648086E+00 0.92564898E+03</pdfrwt>
<pdfrwt beam="2">  1       -1 0.16687714E+00 0.92564898E+03</pdfrwt>
<totfact> 0.30738452E+00</totfact>
</mgrwt>
</event>
<event>
 4    5  0.7214169E-008  0.1120609E+04  0.7818608E-02  0.9238450E-01
         -1   -1    0    0    0  501 -0.00000000000E+00  0.00000000000E+00  0.12123605943E+04  0.12123605943E+04  0.50400000000E-02 0.  1.
          1   -1    0    0  501    0  0.00000000000E+00 -0.00000000000E+00 -0.15758225268E+04  0.15758225268E+04  0.50400000000E-02 0. -1.
    8880023    1    1    2    0    0 -0.74204835546E+03  0.52088246390E+03 -0.11297772977E+04  0.15912766107E+04  0.65864270000E+03 0.  0.
    8880022    1    1    2    0    0  0.74204835546E+03 -0.52088246390E+03  0.76631536513E+03  0.11969065105E+04  0.15294330000E+03 0.  0.
<mgrwt>
<rscale>  0 0.10665222E+04</rscale>
<asrwt>0</asrwt>
<pdfrwt beam="1">  1        1 0.24243424E+00 0.11206090E+04</pdfrwt>
<pdfrwt beam="2">  1       -1 0.18651701E+00 0.11206090E+04</pdfrwt>
<totfact> 0.10734494E+00</totfact>
</mgrwt>
</event>
<event>
 4    5  0.7214169E-008  0.9000682E+03  0.7818608E-02  0.9525922E-01
         -1   -1    0    0    0  501 -0.00000000000E+00  0.00000000000E+00  0.90126351116E+03  0.90126351117E+03  0.50400000000E-02 0.  1.
          1   -1    0    0  501    0  0.00000000000E+00 -0.00000000000E+00 -0.17438582210E+04  0.17438582210E+04  0.50400000000E-02 0. -1.
    8880023    1    1    2    0    0  0.50501459506E+03  0.34824247810E+03  0.59206142255E+03  0.10773390827E+04  0.65864270000E+03 0.  1.
    8880022    1    1    2    0    0 -0.50501459506E+03 -0.34824247810E+03 -0.14346561324E+04  0.15677826495E+04  0.15294330000E+03 0.  0.
<mgrwt>
<rscale>  0 0.82399373E+03</rscale>
<asrwt>0</asrwt>
<pdfrwt beam="1">  1        1 0.26828588E+00 0.90006820E+03</pdfrwt>
<pdfrwt beam="2">  1       -1 0.13865593E+00 0.90006820E+03</pdfrwt>
<totfact> 0.19565591E+00</totfact>
</mgrwt>
</event>
<event>
 4    5  0.7214169E-008  0.7395441E+03  0.7818608E-02  0.9861277E-01
          1   -1    0    0  501    0  0.00000000000E+00  0.00000000000E+00  0.94583584415E+03  0.94583584416E+03  0.50400000000E-02 0. -1.
         -1   -1    0    0    0  501 -0.00000000000E+00 -0.00000000000E+00 -0.11505739674E+04  0.11505739674E+04  0.50400000000E-02 0.  1.
    8880023    1    1    2    0    0 -0.72557891930E+02  0.32840622802E+03 -0.98580212937E+03  0.12323681848E+04  0.65864270000E+03 0.  1.
    8880022    1    1    2    0    0  0.72557891930E+02 -0.32840622802E+03  0.78106400609E+03  0.86404162684E+03  0.15294330000E+03 0.  0.
<mgrwt>
<rscale>  0 0.62175232E+03</rscale>
<asrwt>0</asrwt>
<pdfrwt beam="1">  1        1 0.14551321E+00 0.73954412E+03</pdfrwt>
<pdfrwt beam="2">  1       -1 0.17701138E+00 0.73954412E+03</pdfrwt>
<totfact> 0.37995181E+00</totfact>
</mgrwt>
</event>
<event>
 4    5  0.7214169E-008  0.9749406E+03  0.7818608E-02  0.9415103E-01
          1   -1    0    0  501    0  0.00000000000E+00  0.00000000000E+00  0.25502985862E+04  0.25502985862E+04  0.50400000000E-02 0. -1.
         -1   -1    0    0    0  501 -0.00000000000E+00 -0.00000000000E+00 -0.75367492988E+03  0.75367492990E+03  0.50400000000E-02 0.  1.
    8880023    1    1    2    0    0 -0.68628907275E+03  0.21379018068E+03 -0.34935582056E+03  0.10356440645E+04  0.65864270000E+03 0.  1.
    8880022    1    1    2    0    0  0.68628907275E+03 -0.21379018068E+03  0.21459794769E+04  0.22683294516E+04  0.15294330000E+03 0.  0.
<mgrwt>
<rscale>  0 0.90843098E+03</rscale>
<asrwt>0</asrwt>
<pdfrwt beam="1">  1        1 0.39235363E+00 0.97494058E+03</pdfrwt>
<pdfrwt beam="2">  1       -1 0.11594999E+00 0.97494058E+03</pdfrwt>
<totfact> 0.86095308E-01</totfact>
</mgrwt>
</event>
<event>
 4    5  0.7214169E-008  0.1060012E+04  0.7818608E-02  0.9306941E-01
         -1   -1    0    0    0  501 -0.00000000000E+00  0.00000000000E+00  0.41054744948E+03  0.41054744951E+03  0.50400000000E-02 0.  1.
          1   -1    0    0  501    0  0.00000000000E+00 -0.00000000000E+00 -0.38001584144E+04  0.38001584145E+04  0.50400000000E-02 0. -1.
    8880023    1    1    2    0    0  0.19679318863E+03 -0.80690030801E+03 -0.44892336253E+03  0.11511550972E+04  0.65864270000E+03 0.  1.
    8880022    1    1    2    0    0 -0.19679318863E+03  0.80690030801E+03 -0.29406876024E+04  0.30595507667E+04  0.15294330000E+03 0.  0.
<mgrwt>
<rscale>  0 0.10014635E+04</rscale>
<asrwt>0</asrwt>
<pdfrwt beam="1">  1        1 0.58463973E+00 0.10600122E+04</pdfrwt>
<pdfrwt beam="2">  1       -1 0.63161149E-01 0.10600122E+04</pdfrwt>
<totfact> 0.37563965E-01</totfact>
</mgrwt>
</event>
<event>
 4    5  0.7214169E-008  0.7363474E+03  0.7818608E-02  0.9870717E-01
          1   -1    0    0  501    0  0.00000000000E+00  0.00000000000E+00  0.25129213073E+04  0.25129213073E+04  0.50400000000E-02 0. -1.
         -1   -1    0    0    0  501 -0.00000000000E+00 -0.00000000000E+00 -0.15385445168E+03  0.15385445176E+03  0.50400000000E-02 0.  1.
    8880023    1    1    2    0    0 -0.32229846106E+03 -0.67237967662E+02  0.89806719586E+03  0.11613492743E+04  0.65864270000E+03 0.  0.
    8880022    1    1    2    0    0  0.32229846106E+03  0.67237967662E+02  0.14609996598E+04  0.15054264848E+04  0.15294330000E+03 0.  0.
<mgrwt>
<rscale>  0 0.61701668E+03</rscale>
<asrwt>0</asrwt>
<pdfrwt beam="1">  1        1 0.38660329E+00 0.73634737E+03</pdfrwt>
<pdfrwt beam="2">  1       -1 0.23669915E-01 0.73634737E+03</pdfrwt>
<totfact> 0.21421527E+01</totfact>
</mgrwt>
</event>
<event>
 4    5  0.7433353E-008  0.9588816E+03  0.7818608E-02  0.9437449E-01
         -1   -1    0    0    0  501 -0.00000000000E+00  0.00000000000E+00  0.18876962973E+04  0.18876962973E+04  0.50400000000E-02 0.  1.
          1   -1    0    0  501    0  0.00000000000E+00 -0.00000000000E+00 -0.17425846356E+04  0.17425846356E+04  0.50400000000E-02 0. -1.
    8880023    1    1    2    0    0  0.32927242548E+03 -0.61418512464E+03  0.16818512717E+04  0.19359952489E+04  0.65864270000E+03 0.  0.
    8880022    1    1    2    0    0 -0.32927242548E+03  0.61418512464E+03 -0.15367396099E+04  0.16942856841E+04  0.15294330000E+03 0.  0.
<mgrwt>
<rscale>  0 0.89056829E+03</rscale>
<asrwt>0</asrwt>
<pdfrwt beam="1">  1        1 0.26808995E+00 0.95888159E+03</pdfrwt>
<pdfrwt beam="2">  1       -1 0.29041481E+00 0.95888159E+03</pdfrwt>
<totfact> 0.17434910E-01</totfact>
</mgrwt>
</event>
<event>
 4    5  0.7214169E-008  0.9931463E+03  0.7818608E-02  0.9390580E-01
          1   -1    0    0  501    0  0.00000000000E+00  0.00000000000E+00  0.37497455504E+04  0.37497455504E+04  0.50400000000E-02 0. -1.
         -1   -1    0    0    0  501 -0.00000000000E+00 -0.00000000000E+00 -0.54519381469E+03  0.54519381471E+03  0.50400000000E-02 0.  1.
    8880023    1    1    2    0    0 -0.53623692506E+03 -0.51476144184E+03 -0.88045540942E+01  0.99318533429E+03  0.65864270000E+03 0.  0.
    8880022    1    1    2    0    0  0.53623692506E+03  0.51476144184E+03  0.32133562898E+04  0.33017540308E+04  0.15294330000E+03 0.  0.
<mgrwt>
<rscale>  0 0.92854999E+03</rscale>
<asrwt>0</asrwt>
<pdfrwt beam="1">  1        1 0.57688395E+00 0.99314631E+03</pdfrwt>
<pdfrwt beam="2">  1       -1 0.83875969E-01 0.99314631E+03</pdfrwt>
<totfact> 0.23185480E-01</totfact>
</mgrwt>
</event>
<event>
 4    5  0.7214169E-008  0.9160076E+03  0.7818608E-02  0.9500808E-01
         -1   -1    0    0    0  501 -0.00000000000E+00  0.00000000000E+00  0.14983909497E+04  0.14983909497E+04  0.50400000000E-02 0.  1.
          1   -1    0    0  501    0  0.00000000000E+00 -0.00000000000E+00 -0.12597112587E+04  0.12597112587E+04  0.50400000000E-02 0. -1.
    8880023    1    1    2    0    0 -0.37450081595E+02 -0.63549754558E+03  0.12522187440E+04  0.15514901315E+04  0.65864270000E+03 0.  1.
    8880022    1    1    2    0    0  0.37450081595E+02  0.63549754558E+03 -0.10135390530E+04  0.12066120769E+04  0.15294330000E+03 0.  0.
<mgrwt>
<rscale>  0 0.84224281E+03</rscale>
<asrwt>0</asrwt>
<pdfrwt beam="1">  1        1 0.19380173E+00 0.91600756E+03</pdfrwt>
<pdfrwt beam="2">  1       -1 0.23052168E+00 0.91600756E+03</pdfrwt>
<totfact> 0.92453368E-01</totfact>
</mgrwt>
</event>
<event>
 4    5  0.7214169E-008  0.9116989E+03  0.7818608E-02  0.9507506E-01
         -1   -1    0    0    0  501 -0.00000000000E+00  0.00000000000E+00  0.97596704706E+03  0.97596704708E+03  0.50400000000E-02 0.  1.
          1   -1    0    0  501    0  0.00000000000E+00 -0.00000000000E+00 -0.85880094029E+03  0.85880094031E+03  0.50400000000E-02 0. -1.
    8880023    1    1    2    0    0 -0.46323921684E+03 -0.42754436786E+03  0.54078765551E+03  0.10600218173E+04  0.65864270000E+03 0.  1.
    8880022    1    1    2    0    0  0.46323921684E+03  0.42754436786E+03 -0.42362154874E+03  0.77474617010E+03  0.15294330000E+03 0.  0.
<mgrwt>
<rscale>  0 0.83732684E+03</rscale>
<asrwt>0</asrwt>
<pdfrwt beam="1">  1        1 0.13212322E+00 0.91169894E+03</pdfrwt>
<pdfrwt beam="2">  1       -1 0.15014878E+00 0.91169894E+03</pdfrwt>
<totfact> 0.69348483E+00</totfact>
</mgrwt>
</event>
<event>
 4    5  0.7214169E-008  0.7763471E+03  0.7818608E-02  0.9764489E-01
         -1   -1    0    0    0  501 -0.00000000000E+00  0.00000000000E+00  0.25796865374E+04  0.25796865374E+04  0.50400000000E-02 0.  1.
          1   -1    0    0  501    0  0.00000000000E+00 -0.00000000000E+00 -0.11680805588E+04  0.11680805589E+04  0.50400000000E-02 0. -1.
    8880023    1    1    2    0    0  0.11554196193E+03  0.39440420060E+03  0.24769164118E+04  0.25957329862E+04  0.65864270000E+03 0.  1.
    8880022    1    1    2    0    0 -0.11554196193E+03 -0.39440420060E+03 -0.10653104333E+04  0.11520341100E+04  0.15294330000E+03 0.  0.
<mgrwt>
<rscale>  0 0.67303602E+03</rscale>
<asrwt>0</asrwt>
<pdfrwt beam="1">  1        1 0.17970470E+00 0.77634710E+03</pdfrwt>
<pdfrwt beam="2">  1       -1 0.39687485E+00 0.77634710E+03</pdfrwt>
<totfact> 0.91367450E-02</totfact>
</mgrwt>
</event>
<event>
 4    5  0.7214169E-008  0.7780067E+03  0.7818608E-02  0.9760540E-01
         -1   -1    0    0    0  501 -0.00000000000E+00  0.00000000000E+00  0.10589290659E+04  0.10589290659E+04  0.50400000000E-02 0.  1.
          1   -1    0    0  501    0  0.00000000000E+00 -0.00000000000E+00 -0.43062496142E+03  0.43062496145E+03  0.50400000000E-02 0. -1.
    8880023    1    1    2    0    0 -0.37963699544E+01  0.41408911386E+03  0.74836543373E+02  0.78159767216E+03  0.65864270000E+03 0.  0.
    8880022    1    1    2    0    0  0.37963699544E+01 -0.41408911386E+03  0.55346756106E+03  0.70795635515E+03  0.15294330000E+03 0.  0.
<mgrwt>
<rscale>  0 0.67523859E+03</rscale>
<asrwt>0</asrwt>
<pdfrwt beam="1">  1        1 0.66249995E-01 0.77800669E+03</pdfrwt>
<pdfrwt beam="2">  1       -1 0.16291216E+00 0.77800669E+03</pdfrwt>
<totfact> 0.15466658E+01</totfact>
</mgrwt>
</event>
<event>
 4    5  0.7214169E-008  0.9272254E+03  0.7818608E-02  0.9483668E-01
          1   -1    0    0  501    0  0.00000000000E+00  0.00000000000E+00  0.18756070151E+04  0.18756070151E+04  0.50400000000E-02 0. -1.
         -1   -1    0    0    0  501 -0.00000000000E+00 -0.00000000000E+00 -0.35560430108E+03  0.35560430112E+03  0.50400000000E-02 0.  1.
    8880023    1    1    2    0    0 -0.22638724196E+03  0.61211561278E+03  0.64743993051E+03  0.11308958292E+04  0.65864270000E+03 0.  1.
    8880022    1    1    2    0    0  0.22638724196E+03 -0.61211561278E+03  0.87256278353E+03  0.11003154870E+04  0.15294330000E+03 0. -1.
<mgrwt>
<rscale>  0 0.85498691E+03</rscale>
<asrwt>0</asrwt>
<pdfrwt beam="1">  1        1 0.28855492E+00 0.92722538E+03</pdfrwt>
<pdfrwt beam="2">  1       -1 0.54708355E-01 0.92722538E+03</pdfrwt>
<totfact> 0.12439697E+01</totfact>
</mgrwt>
</event>
<event>
 4    5  0.7214169E-008  0.7543599E+03  0.7818608E-02  0.9819934E-01
         -1   -1    0    0    0  501 -0.00000000000E+00  0.00000000000E+00  0.39622008633E+03  0.39622008636E+03  0.50400000000E-02 0.  1.
          1   -1    0    0  501    0  0.00000000000E+00 -0.00000000000E+00 -0.11985067432E+04  0.11985067433E+04  0.50400000000E-02 0. -1.
    8880023    1    1    2    0    0  0.32406971964E+03 -0.17386053471E+03 -0.65530638121E+02  0.75720085810E+03  0.65864270000E+03 0.  1.
    8880022    1    1    2    0    0 -0.32406971964E+03  0.17386053471E+03 -0.73675601880E+03  0.83752597152E+03  0.15294330000E+03 0.  0.
<mgrwt>
<rscale>  0 0.64303653E+03</rscale>
<asrwt>0</asrwt>
<pdfrwt beam="1">  1        1 0.18438565E+00 0.75435991E+03</pdfrwt>
<pdfrwt beam="2">  1       -1 0.60956937E-01 0.75435991E+03</pdfrwt>
<totfact> 0.30066578E+01</totfact>
</mgrwt>
</event>
<event>
 4    5  0.7214169E-008  0.1001154E+04  0.7818608E-02  0.9380050E-01
          1   -1    0    0  501    0  0.00000000000E+00  0.00000000000E+00  0.20613104860E+04  0.20613104860E+04  0.50400000000E-02 0. -1.
         -1   -1    0    0    0  501 -0.00000000000E+00 -0.00000000000E+00 -0.73215984173E+03  0.73215984174E+03  0.50400000000E-02 0.  1.
    8880023    1    1    2    0    0  0.12248331377E+02  0.75388910202E+03 -0.25435935096E+03  0.10329606408E+04  0.65864270000E+03 0.  0.
    8880022    1    1    2    0    0 -0.12248331377E+02 -0.75388910202E+03  0.15835099952E+04  0.17605096869E+04  0.15294330000E+03 0.  0.
<mgrwt>
<rscale>  0 0.93735862E+03</rscale>
<asrwt>0</asrwt>
<pdfrwt beam="1">  1        1 0.31712469E+00 0.10011538E+04</pdfrwt>
<pdfrwt beam="2">  1       -1 0.11263998E+00 0.10011538E+04</pdfrwt>
<totfact> 0.19758910E+00</totfact>
</mgrwt>
</event>
<event>
 4    5  0.7214169E-008  0.8829493E+03  0.7818608E-02  0.9553977E-01
         -1   -1    0    0    0  501 -0.00000000000E+00  0.00000000000E+00  0.32440265352E+03  0.32440265356E+03  0.50400000000E-02 0.  1.
          1   -1    0    0  501    0  0.00000000000E+00 -0.00000000000E+00 -0.19233573546E+04  0.19233573547E+04  0.50400000000E-02 0. -1.
    8880023    1    1    2    0    0  0.48152865282E+03  0.33751938716E+03 -0.56424573272E+03  0.10478418933E+04  0.65864270000E+03 0.  1.
    8880022    1    1    2    0    0 -0.48152865282E+03 -0.33751938716E+03 -0.10347089684E+04  0.11999181149E+04  0.15294330000E+03 0.  0.
<mgrwt>
<rscale>  0 0.80418636E+03</rscale>
<asrwt>0</asrwt>
<pdfrwt beam="1">  1        1 0.29590113E+00 0.88294925E+03</pdfrwt>
<pdfrwt beam="2">  1       -1 0.49908102E-01 0.88294925E+03</pdfrwt>
<totfact> 0.13853087E+01</totfact>
</mgrwt>
</event>
<event>
 4    5  0.7214169E-008  0.1172424E+04  0.7818608E-02  0.9184405E-01
          1   -1    0    0  501    0  0.00000000000E+00  0.00000000000E+00  0.16293094586E+04  0.16293094586E+04  0.50400000000E-02 0. -1.
         -1   -1    0    0    0  501 -0.00000000000E+00 -0.00000000000E+00 -0.10859511243E+04  0.10859511243E+04  0.50400000000E-02 0.  1.
    8880023    1    1    2    0    0 -0.35738916195E+03  0.90168833887E+03 -0.50705181397E+03  0.12773725462E+04  0.65864270000E+03 0.  0.
    8880022    1    1    2    0    0  0.35738916195E+03 -0.90168833887E+03  0.10504101483E+04  0.14378880367E+04  0.15294330000E+03 0.  0.
<mgrwt>
<rscale>  0 0.11215853E+04</rscale>
<asrwt>0</asrwt>
<pdfrwt beam="1">  1        1 0.25066299E+00 0.11724244E+04</pdfrwt>
<pdfrwt beam="2">  1       -1 0.16706940E+00 0.11724244E+04</pdfrwt>
<totfact> 0.13558111E+00</totfact>
</mgrwt>
</event>
<event>
 4    5  0.7214169E-008  0.6725620E+03  0.7818608E-02  0.1013889E+00
          1   -1    0    0  501    0  0.00000000000E+00  0.00000000000E+00  0.31233587439E+04  0.31233587439E+04  0.50400000000E-02 0. -1.
         -1   -1    0    0    0  501 -0.00000000000E+00 -0.00000000000E+00 -0.16058113172E+03  0.16058113180E+03  0.50400000000E-02 0.  1.
    8880023    1    1    2    0    0  0.26498898149E+02  0.13351869611E+03  0.56769991627E+03  0.88012660170E+03  0.65864270000E+03 0.  1.
    8880022    1    1    2    0    0 -0.26498898149E+02 -0.13351869611E+03  0.23950776959E+04  0.24038132740E+04  0.15294330000E+03 0.  0.
<mgrwt>
<rscale>  0 0.49957801E+03</rscale>
<asrwt>0</asrwt>
<pdfrwt beam="1">  1        1 0.48051670E+00 0.67256200E+03</pdfrwt>
<pdfrwt beam="2">  1       -1 0.24704791E-01 0.67256200E+03</pdfrwt>
<totfact> 0.75024935E+00</totfact>
</mgrwt>
</event>
<event>
 4    5  0.7214169E-008  0.7249971E+03  0.7818608E-02  0.9906027E-01
         -1   -1    0    0    0  501 -0.00000000000E+00  0.00000000000E+00  0.12887461904E+04  0.12887461904E+04  0.50400000000E-02 0.  1.
          1   -1    0    0  501    0  0.00000000000E+00 -0.00000000000E+00 -0.11812570807E+04  0.11812570807E+04  0.50400000000E-02 0. -1.
    8880023    1    1    2    0    0  0.24503147815E+03  0.17824172131E+03  0.11578841524E+04  0.13661319311E+04  0.65864270000E+03 0.  1.
    8880022    1    1    2    0    0 -0.24503147815E+03 -0.17824172131E+03 -0.10503950427E+04  0.11038713400E+04  0.15294330000E+03 0.  0.
<mgrwt>
<rscale>  0 0.59970101E+03</rscale>
<asrwt>0</asrwt>
<pdfrwt beam="1">  1        1 0.18173186E+00 0.72499706E+03</pdfrwt>
<pdfrwt beam="2">  1       -1 0.19826865E+00 0.72499706E+03</pdfrwt>
<totfact> 0.17929285E+00</totfact>
</mgrwt>
</event>
<event>
 4    5  0.7214169E-008  0.1463743E+04  0.7818608E-02  0.8935672E-01
         -1   -1    0    0    0  501 -0.00000000000E+00  0.00000000000E+00  0.24656614395E+04  0.24656614395E+04  0.50400000000E-02 0.  1.
          1   -1    0    0  501    0  0.00000000000E+00 -0.00000000000E+00 -0.17712532947E+04  0.17712532947E+04  0.50400000000E-02 0. -1.
    8880023    1    1    2    0    0 -0.12062976961E+04  0.50356551281E+03 -0.12256287742E+04  0.19091119547E+04  0.65864270000E+03 0.  0.
    8880022    1    1    2    0    0  0.12062976961E+04 -0.50356551281E+03  0.19200369189E+04  0.23278027795E+04  0.15294330000E+03 0.  0.
<mgrwt>
<rscale>  0 0.14253480E+04</rscale>
<asrwt>0</asrwt>
<pdfrwt beam="1">  1        1 0.27250051E+00 0.14637427E+04</pdfrwt>
<pdfrwt beam="2">  1       -1 0.37933253E+00 0.14637427E+04</pdfrwt>
<totfact> 0.40030113E-02</totfact>
</mgrwt>
</event>
<event>
 4    5  0.7214169E-008  0.7393601E+03  0.7818608E-02  0.9861815E-01
         -1   -1    0    0    0  501 -0.00000000000E+00  0.00000000000E+00  0.14915215990E+04  0.14915215990E+04  0.50400000000E-02 0.  1.
          1   -1    0    0  501    0  0.00000000000E+00 -0.00000000000E+00 -0.62954744846E+03  0.62954744848E+03  0.50400000000E-02 0. -1.
    8880023    1    1    2    0    0  0.21455211646E+03  0.25847737197E+03  0.13319991189E+04  0.15234418340E+04  0.65864270000E+03 0.  0.
    8880022    1    1    2    0    0 -0.21455211646E+03 -0.25847737197E+03 -0.47002496833E+03  0.59762721354E+03  0.15294330000E+03 0.  0.
<mgrwt>
<rscale>  0 0.62148124E+03</rscale>
<asrwt>0</asrwt>
<pdfrwt beam="1">  1        1 0.96853455E-01 0.73936011E+03</pdfrwt>
<pdfrwt beam="2">  1       -1 0.22946486E+00 0.73936011E+03</pdfrwt>
<totfact> 0.31688681E+00</totfact>
</mgrwt>
</event>
<event>
 4    5  0.7214169E-008  0.1203542E+04  0.7818608E-02  0.9153687E-01
          1   -1    0    0  501    0  0.00000000000E+00  0.00000000000E+00  0.11530663298E+04  0.11530663298E+04  0.50400000000E-02 0. -1.
         -1   -1    0    0    0  501 -0.00000000000E+00 -0.00000000000E+00 -0.21317528998E+04  0.21317528998E+04  0.50400000000E-02 0.  1.
    8880023    1    1    2    0    0 -0.61289076974E+03 -0.79941715217E+03 -0.16663967434E+04  0.20555756351E+04  0.65864270000E+03 0.  0.
    8880022    1    1    2    0    0  0.61289076974E+03  0.79941715217E+03  0.68771017349E+03  0.12292435945E+04  0.15294330000E+03 0.  0.
<mgrwt>
<rscale>  0 0.11544510E+04</rscale>
<asrwt>0</asrwt>
<pdfrwt beam="1">  1        1 0.17739482E+00 0.12035419E+04</pdfrwt>
<pdfrwt beam="2">  1       -1 0.32796199E+00 0.12035419E+04</pdfrwt>
<totfact> 0.24773554E-01</totfact>
</mgrwt>
</event>
<event>
 4    5  0.7214169E-008  0.8856356E+03  0.7818608E-02  0.9549496E-01
          1   -1    0    0  501    0  0.00000000000E+00  0.00000000000E+00  0.65454438961E+03  0.65454438963E+03  0.50400000000E-02 0. -1.
         -1   -1    0    0    0  501 -0.00000000000E+00 -0.00000000000E+00 -0.20230381296E+04  0.20230381297E+04  0.50400000000E-02 0.  1.
    8880023    1    1    2    0    0  0.15817910693E+03  0.57054327255E+03 -0.17468268381E+04  0.19585082242E+04  0.65864270000E+03 0.  1.
    8880022    1    1    2    0    0 -0.15817910693E+03 -0.57054327255E+03  0.37833309807E+03  0.71907429507E+03  0.15294330000E+03 0.  0.
<mgrwt>
<rscale>  0 0.80731008E+03</rscale>
<asrwt>0</asrwt>
<pdfrwt beam="1">  1        1 0.10069914E+00 0.88563563E+03</pdfrwt>
<pdfrwt beam="2">  1       -1 0.31123663E+00 0.88563563E+03</pdfrwt>
<totfact> 0.86946149E-01</totfact>
</mgrwt>
</event>
<event>
 4    5  0.7214169E-008  0.1381643E+04  0.7818608E-02  0.8998080E-01
         -1   -1    0    0    0  501 -0.00000000000E+00  0.00000000000E+00  0.13592010053E+04  0.13592010053E+04  0.50400000000E-02 0.  1.
          1   -1    0    0  501    0  0.00000000000E+00 -0.00000000000E+00 -0.17275597431E+04  0.17275597431E+04  0.50400000000E-02 0. -1.
    8880023    1    1    2    0    0 -0.12138601709E+04 -0.40859450246E+02  0.61908710699E+03  0.15140029926E+04  0.65864270000E+03 0.  0.
    8880022    1    1    2    0    0  0.12138601709E+04  0.40859450246E+02 -0.98744584478E+03  0.15727577558E+04  0.15294330000E+03 0.  0.
<mgrwt>
<rscale>  0 0.13404620E+04</rscale>
<asrwt>0</asrwt>
<pdfrwt beam="1">  1        1 0.26577842E+00 0.13816426E+04</pdfrwt>
<pdfrwt beam="2">  1       -1 0.20910785E+00 0.13816426E+04</pdfrwt>
<totfact> 0.57025279E-01</totfact>
</mgrwt>
</event>
<event>
 4    5  0.7214169E-008  0.9316747E+03  0.7818608E-02  0.9476985E-01
          1   -1    0    0  501    0  0.00000000000E+00  0.00000000000E+00  0.24434418392E+04  0.24434418392E+04  0.50400000000E-02 0. -1.
         -1   -1    0    0    0  501 -0.00000000000E+00 -0.00000000000E+00 -0.31527393405E+03  0.31527393409E+03  0.50400000000E-02 0.  1.
    8880023    1    1    2    0    0 -0.65777499705E+03 -0.39237493867E+02  0.65866506202E+03  0.11409896572E+04  0.65864270000E+03 0.  1.
    8880022    1    1    2    0    0  0.65777499705E+03  0.39237493867E+02  0.14695028431E+04  0.16177261160E+04  0.15294330000E+03 0.  0.
<mgrwt>
<rscale>  0 0.86002065E+03</rscale>
<asrwt>0</asrwt>
<pdfrwt beam="1">  1        1 0.37591414E+00 0.93167469E+03</pdfrwt>
<pdfrwt beam="2">  1       -1 0.48503681E-01 0.93167469E+03</pdfrwt>
<totfact> 0.64734053E+00</totfact>
</mgrwt>
</event>
<event>
 4    5  0.7214169E-008  0.8405834E+03  0.7818608E-02  0.9629081E-01
         -1   -1    0    0    0  501 -0.00000000000E+00  0.00000000000E+00  0.51096475618E+03  0.51096475620E+03  0.50400000000E-02 0.  1.
          1   -1    0    0  501    0  0.00000000000E+00 -0.00000000000E+00 -0.15019595971E+04  0.15019595971E+04  0.50400000000E-02 0. -1.
    8880023    1    1    2    0    0  0.48703099574E+03 -0.18860290707E+03  0.45961743353E+02  0.84183901993E+03  0.65864270000E+03 0.  0.
    8880022    1    1    2    0    0 -0.48703099574E+03  0.18860290707E+03 -0.10369565843E+04  0.11710853334E+04  0.15294330000E+03 0.  0.
<mgrwt>
<rscale>  0 0.75400939E+03</rscale>
<asrwt>0</asrwt>
<pdfrwt beam="1">  1        1 0.23107071E+00 0.84058340E+03</pdfrwt>
<pdfrwt beam="2">  1       -1 0.78609963E-01 0.84058340E+03</pdfrwt>
<totfact> 0.10823765E+01</totfact>
</mgrwt>
</event>
<event>
 4    5  0.7214169E-008  0.1219140E+04  0.7818608E-02  0.9138738E-01
          1   -1    0    0  501    0  0.00000000000E+00  0.00000000000E+00  0.24340137688E+04  0.24340137688E+04  0.50400000000E-02 0. -1.
         -1   -1    0    0    0  501 -0.00000000000E+00 -0.00000000000E+00 -0.94853378906E+03  0.94853378908E+03  0.50400000000E-02 0.  1.
    8880023    1    1    2    0    0 -0.16838792336E+03 -0.10119970723E+04 -0.35511483522E+03  0.12698068040E+04  0.65864270000E+03 0.  1.
    8880022    1    1    2    0    0  0.16838792336E+03  0.10119970723E+04  0.18405948149E+04  0.21127407538E+04  0.15294330000E+03 0.  0.
<mgrwt>
<rscale>  0 0.11708761E+04</rscale>
<asrwt>0</asrwt>
<pdfrwt beam="1">  1        1 0.37446364E+00 0.12191402E+04</pdfrwt>
<pdfrwt beam="2">  1       -1 0.14592828E+00 0.12191402E+04</pdfrwt>
<totfact> 0.55620095E-01</totfact>
</mgrwt>
</event>
<event>
 4    5  0.7214169E-008  0.7304603E+03  0.7818608E-02  0.9888661E-01
          1   -1    0    0  501    0  0.00000000000E+00  0.00000000000E+00  0.23643111595E+04  0.23643111595E+04  0.50400000000E-02 0. -1.
         -1   -1    0    0    0  501 -0.00000000000E+00 -0.00000000000E+00 -0.45783042901E+03  0.45783042904E+03  0.50400000000E-02 0.  1.
    8880023    1    1    2    0    0  0.31045288241E+03 -0.58147179650E+02 -0.14173124232E+03  0.74408335421E+03  0.65864270000E+03 0.  1.
    8880022    1    1    2    0    0 -0.31045288241E+03  0.58147179650E+02  0.20482119728E+04  0.20780582343E+04  0.15294330000E+03 0.  0.
<mgrwt>
<rscale>  0 0.60813980E+03</rscale>
<asrwt>0</asrwt>
<pdfrwt beam="1">  1        1 0.36374018E+00 0.73046033E+03</pdfrwt>
<pdfrwt beam="2">  1       -1 0.70435450E-01 0.73046033E+03</pdfrwt>
<totfact> 0.36373236E+00</totfact>
</mgrwt>
</event>
<event>
 4    5  0.7214169E-008  0.1118863E+04  0.7818608E-02  0.9240340E-01
         -1   -1    0    0    0  501 -0.00000000000E+00  0.00000000000E+00  0.15499627167E+04  0.15499627168E+04  0.50400000000E-02 0.  1.
          1   -1    0    0  501    0  0.00000000000E+00 -0.00000000000E+00 -0.15942450500E+04  0.15942450500E+04  0.50400000000E-02 0. -1.
    8880023    1    1    2    0    0 -0.35124436154E+03 -0.83346945500E+03  0.11723136403E+04  0.16205472568E+04  0.65864270000E+03 0.  1.
    8880022    1    1    2    0    0  0.35124436154E+03  0.83346945500E+03 -0.12165959735E+04  0.15236605100E+04  0.15294330000E+03 0.  0.
<mgrwt>
<rscale>  0 0.10646583E+04</rscale>
<asrwt>0</asrwt>
<pdfrwt beam="1">  1        1 0.24526847E+00 0.11188629E+04</pdfrwt>
<pdfrwt beam="2">  1       -1 0.23845580E+00 0.11188629E+04</pdfrwt>
<totfact> 0.46369813E-01</totfact>
</mgrwt>
</event>
<event>
 4    5  0.7214169E-008  0.7012550E+03  0.7818608E-02  0.9992034E-01
         -1   -1    0    0    0  501 -0.00000000000E+00  0.00000000000E+00  0.11267965097E+03  0.11267965109E+03  0.50400000000E-02 0.  1.
          1   -1    0    0  501    0  0.00000000000E+00 -0.00000000000E+00 -0.28950295305E+04  0.28950295305E+04  0.50400000000E-02 0. -1.
    8880023    1    1    2    0    0 -0.56190716052E+02 -0.23407479167E+03 -0.11225527263E+04  0.13235872598E+04  0.65864270000E+03 0.  1.
    8880022    1    1    2    0    0  0.56190716052E+02  0.23407479167E+03 -0.16597971532E+04  0.16841219218E+04  0.15294330000E+03 0.  0.
<mgrwt>
<rscale>  0 0.56000906E+03</rscale>
<asrwt>0</asrwt>
<pdfrwt beam="1">  1        1 0.44538910E+00 0.70125503E+03</pdfrwt>
<pdfrwt beam="2">  1       -1 0.17335333E-01 0.70125503E+03</pdfrwt>
<totfact> 0.19658688E+01</totfact>
</mgrwt>
</event>
<event>
 4    5  0.7214169E-008  0.1212031E+04  0.7818608E-02  0.9145516E-01
         -1   -1    0    0    0  501 -0.00000000000E+00  0.00000000000E+00  0.68419413526E+03  0.68419413528E+03  0.50400000000E-02 0.  1.
          1   -1    0    0  501    0  0.00000000000E+00 -0.00000000000E+00 -0.28115003851E+04  0.28115003851E+04  0.50400000000E-02 0. -1.
    8880023    1    1    2    0    0 -0.26768420066E+03  0.98160734236E+03 -0.92500072864E+02  0.12155551306E+04  0.65864270000E+03 0.  0.
    8880022    1    1    2    0    0  0.26768420066E+03 -0.98160734236E+03 -0.20348061770E+04  0.22801393898E+04  0.15294330000E+03 0.  0.
<mgrwt>
<rscale>  0 0.11633935E+04</rscale>
<asrwt>0</asrwt>
<pdfrwt beam="1">  1        1 0.43253852E+00 0.12120305E+04</pdfrwt>
<pdfrwt beam="2">  1       -1 0.10526064E+00 0.12120305E+04</pdfrwt>
<totfact> 0.68637918E-01</totfact>
</mgrwt>
</event>
<event>
 4    5  0.7214169E-008  0.1074973E+04  0.7818608E-02  0.9289445E-01
          1   -1    0    0  501    0  0.00000000000E+00  0.00000000000E+00  0.16622604061E+04  0.16622604061E+04  0.50400000000E-02 0. -1.
         -1   -1    0    0    0  501 -0.00000000000E+00 -0.00000000000E+00 -0.71181050561E+03  0.71181050563E+03  0.50400000000E-02 0.  1.
    8880023    1    1    2    0    0 -0.66099460489E+03  0.53370755899E+03 -0.20125011022E+02  0.10751617779E+04  0.65864270000E+03 0.  0.
    8880022    1    1    2    0    0  0.66099460489E+03 -0.53370755899E+03  0.97057491149E+03  0.12989091339E+04  0.15294330000E+03 0.  0.
<mgrwt>
<rscale>  0 0.10176038E+04</rscale>
<asrwt>0</asrwt>
<pdfrwt beam="1">  1        1 0.25573237E+00 0.10749734E+04</pdfrwt>
<pdfrwt beam="2">  1       -1 0.10950931E+00 0.10749734E+04</pdfrwt>
<totfact> 0.38922907E+00</totfact>
</mgrwt>
</event>
<event>
 4    5  0.7214169E-008  0.9079587E+03  0.7818608E-02  0.9513374E-01
         -1   -1    0    0    0  501 -0.00000000000E+00  0.00000000000E+00  0.13751988626E+04  0.13751988626E+04  0.50400000000E-02 0.  1.
          1   -1    0    0  501    0  0.00000000000E+00 -0.00000000000E+00 -0.81031016167E+03  0.81031016168E+03  0.50400000000E-02 0. -1.
    8880023    1    1    2    0    0 -0.44748159996E+03 -0.43627859933E+03  0.10437942502E+04  0.13834360995E+04  0.65864270000E+03 0.  0.
    8880022    1    1    2    0    0  0.44748159996E+03  0.43627859933E+03 -0.47890554923E+03  0.80207292476E+03  0.15294330000E+03 0.  0.
<mgrwt>
<rscale>  0 0.83304937E+03</rscale>
<asrwt>0</asrwt>
<pdfrwt beam="1">  1        1 0.12466310E+00 0.90795870E+03</pdfrwt>
<pdfrwt beam="2">  1       -1 0.21156906E+00 0.90795870E+03</pdfrwt>
<totfact> 0.27622207E+00</totfact>
</mgrwt>
</event>
<event>
 4    5  0.7214169E-008  0.8672222E+03  0.7818608E-02  0.9580843E-01
          1   -1    0    0  501    0  0.00000000000E+00  0.00000000000E+00  0.19532508694E+04  0.19532508694E+04  0.50400000000E-02 0. -1.
         -1   -1    0    0    0  501 -0.00000000000E+00 -0.00000000000E+00 -0.43610942947E+03  0.43610942950E+03  0.50400000000E-02 0.  1.
    8880023    1    1    2    0    0 -0.31326399122E+02 -0.56327866696E+03  0.12077501290E+03  0.87559180555E+03  0.65864270000E+03 0.  0.
    8880022    1    1    2    0    0  0.31326399122E+02  0.56327866696E+03  0.13963664271E+04  0.15137684934E+04  0.15294330000E+03 0.  0.
<mgrwt>
<rscale>  0 0.78577175E+03</rscale>
<asrwt>0</asrwt>
<pdfrwt beam="1">  1        1 0.30050014E+00 0.86722224E+03</pdfrwt>
<pdfrwt beam="2">  1       -1 0.67093758E-01 0.86722224E+03</pdfrwt>
<totfact> 0.74186004E+00</totfact>
</mgrwt>
</event>
<event>
 4    5  0.7214169E-008  0.1120083E+04  0.7818608E-02  0.9239019E-01
          1   -1    0    0  501    0  0.00000000000E+00  0.00000000000E+00  0.27503863667E+04  0.27503863667E+04  0.50400000000E-02 0. -1.
         -1   -1    0    0    0  501 -0.00000000000E+00 -0.00000000000E+00 -0.38274913709E+03  0.38274913712E+03  0.50400000000E-02 0.  1.
    8880023    1    1    2    0    0 -0.44896028654E+03 -0.78689919031E+03  0.11229060570E+04  0.15860340141E+04  0.65864270000E+03 0.  0.
    8880022    1    1    2    0    0  0.44896028654E+03  0.78689919031E+03  0.12447311726E+04  0.15471014898E+04  0.15294330000E+03 0.  0.
<mgrwt>
<rscale>  0 0.10659608E+04</rscale>
<asrwt>0</asrwt>
<pdfrwt beam="1">  1        1 0.42313635E+00 0.11200830E+04</pdfrwt>
<pdfrwt beam="2">  1       -1 0.58884485E-01 0.11200830E+04</pdfrwt>
<totfact> 0.26598277E+00</totfact>
</mgrwt>
</event>
<event>
 4    5  0.7214169E-008  0.9467489E+03  0.7818608E-02  0.9454807E-01
         -1   -1    0    0    0  501 -0.00000000000E+00  0.00000000000E+00  0.10540610346E+04  0.10540610346E+04  0.50400000000E-02 0.  1.
          1   -1    0    0  501    0  0.00000000000E+00 -0.00000000000E+00 -0.75684831656E+03  0.75684831658E+03  0.50400000000E-02 0. -1.
    8880023    1    1    2    0    0 -0.45451005297E+03 -0.50590893472E+03  0.51865245531E+03  0.10795062826E+04  0.65864270000E+03 0.  0.
    8880022    1    1    2    0    0  0.45451005297E+03  0.50590893472E+03 -0.22143973728E+03  0.73140306859E+03  0.15294330000E+03 0.  0.
<mgrwt>
<rscale>  0 0.87699300E+03</rscale>
<asrwt>0</asrwt>
<pdfrwt beam="1">  1        1 0.11643820E+00 0.94674888E+03</pdfrwt>
<pdfrwt beam="2">  1       -1 0.16216324E+00 0.94674888E+03</pdfrwt>
<totfact> 0.68523259E+00</totfact>
</mgrwt>
</event>
<event>
 4    5  0.7214169E-008  0.2388932E+04  0.7818608E-02  0.8452058E-01
          1   -1    0    0  501    0  0.00000000000E+00  0.00000000000E+00  0.40566038025E+04  0.40566038025E+04  0.50400000000E-02 0. -1.
         -1   -1    0    0    0  501 -0.00000000000E+00 -0.00000000000E+00 -0.18382286769E+04  0.18382286769E+04  0.50400000000E-02 0.  1.
    8880023    1    1    2    0    0 -0.22932718313E+04 -0.11870089585E+03 -0.38531913462E+03  0.24198071487E+04  0.65864270000E+03 0.  0.
    8880022    1    1    2    0    0  0.22932718313E+04  0.11870089585E+03  0.26036942602E+04  0.34750253307E+04  0.15294330000E+03 0.  0.
<mgrwt>
<rscale>  0 0.23667492E+04</rscale>
<asrwt>0</asrwt>
<pdfrwt beam="1">  1        1 0.62409289E+00 0.23889319E+04</pdfrwt>
<pdfrwt beam="2">  1       -1 0.28280441E+00 0.23889319E+04</pdfrwt>
<totfact> 0.30962749E-03</totfact>
</mgrwt>
</event>
<event>
 4    5  0.8938960E-008  0.9948670E+03  0.7818608E-02  0.9388304E-01
          1   -1    0    0  501    0  0.00000000000E+00  0.00000000000E+00  0.20653728542E+04  0.20653728542E+04  0.50400000000E-02 0. -1.
         -1   -1    0    0    0  501 -0.00000000000E+00 -0.00000000000E+00 -0.12815897367E+04  0.12815897368E+04  0.50400000000E-02 0.  1.
    8880023    1    1    2    0    0 -0.19325383812E+03 -0.72014098089E+03 -0.99814925058E+03  0.14092771945E+04  0.65864270000E+03 0.  0.
    8880022    1    1    2    0    0  0.19325383812E+03  0.72014098089E+03  0.17819323680E+04  0.19376853964E+04  0.15294330000E+03 0.  0.
<mgrwt>
<rscale>  0 0.93044479E+03</rscale>
<asrwt>0</asrwt>
<pdfrwt beam="1">  1        1 0.31774966E+00 0.99486697E+03</pdfrwt>
<pdfrwt beam="2">  1       -1 0.19716765E+00 0.99486697E+03</pdfrwt>
<totfact> 0.42971386E-01</totfact>
</mgrwt>
</event>
<event>
 4    5  0.7214169E-008  0.8481632E+03  0.7818608E-02  0.9614976E-01
          1   -1    0    0  501    0  0.00000000000E+00  0.00000000000E+00  0.19165175988E+04  0.19165175988E+04  0.50400000000E-02 0. -1.
         -1   -1    0    0    0  501 -0.00000000000E+00 -0.00000000000E+00 -0.10951565467E+04  0.10951565468E+04  0.50400000000E-02 0.  1.
    8880023    1    1    2    0    0 -0.12160975126E+03 -0.52036689954E+03 -0.87976824618E+03  0.12220364213E+04  0.65864270000E+03 0.  0.
    8880022    1    1    2    0    0  0.12160975126E+03  0.52036689954E+03  0.17011292983E+04  0.17896377243E+04  0.15294330000E+03 0. -1.
<mgrwt>
<rscale>  0 0.76312866E+03</rscale>
<asrwt>0</asrwt>
<pdfrwt beam="1">  1        1 0.29484886E+00 0.84816322E+03</pdfrwt>
<pdfrwt beam="2">  1       -1 0.16848562E+00 0.84816322E+03</pdfrwt>
<totfact> 0.88921183E-01</totfact>
</mgrwt>
</event>
<event>
 4    5  0.7214169E-008  0.1561682E+04  0.7818608E-02  0.8867265E-01
          1   -1    0    0  501    0  0.00000000000E+00  0.00000000000E+00  0.21974170234E+04  0.21974170234E+04  0.50400000000E-02 0. -1.
         -1   -1    0    0    0  501 -0.00000000000E+00 -0.00000000000E+00 -0.13634266064E+04  0.13634266064E+04  0.50400000000E-02 0.  1.
    8880023    1    1    2    0    0  0.13483507310E+04  0.43242518491E+03 -0.46891269199E+03  0.16305614228E+04  0.65864270000E+03 0.  1.
    8880022    1    1    2    0    0 -0.13483507310E+04 -0.43242518491E+03  0.13029031091E+04  0.19302822071E+04  0.15294330000E+03 0.  0.
<mgrwt>
<rscale>  0 0.15261232E+04</rscale>
<asrwt>0</asrwt>
<pdfrwt beam="1">  1        1 0.33806416E+00 0.15616822E+04</pdfrwt>
<pdfrwt beam="2">  1       -1 0.20975794E+00 0.15616822E+04</pdfrwt>
<totfact> 0.26476559E-01</totfact>
</mgrwt>
</event>
<event>
 4    5  0.7214169E-008  0.1061078E+04  0.7818608E-02  0.9305681E-01
         -1   -1    0    0    0  501 -0.00000000000E+00  0.00000000000E+00  0.50143860226E+03  0.50143860229E+03  0.50400000000E-02 0.  1.
          1   -1    0    0  501    0  0.00000000000E+00 -0.00000000000E+00 -0.20387982747E+04  0.20387982747E+04  0.50400000000E-02 0. -1.
    8880023    1    1    2    0    0  0.53378465534E+03 -0.63808388325E+03 -0.42552274029E+03  0.11432221609E+04  0.65864270000E+03 0.  1.
    8880022    1    1    2    0    0 -0.53378465534E+03  0.63808388325E+03 -0.11118369321E+04  0.13970147161E+04  0.15294330000E+03 0. -1.
<mgrwt>
<rscale>  0 0.10026155E+04</rscale>
<asrwt>0</asrwt>
<pdfrwt beam="1">  1        1 0.31366127E+00 0.10610784E+04</pdfrwt>
<pdfrwt beam="2">  1       -1 0.77144402E-01 0.10610784E+04</pdfrwt>
<totfact> 0.47453245E+00</totfact>
</mgrwt>
</event>
<event>
 4    5  0.7214169E-008  0.1135458E+04  0.7818608E-02  0.9222568E-01
         -1   -1    0    0    0  501 -0.00000000000E+00  0.00000000000E+00  0.11177923960E+04  0.11177923960E+04  0.50400000000E-02 0.  1.
          1   -1    0    0  501    0  0.00000000000E+00 -0.00000000000E+00 -0.15919869653E+04  0.15919869653E+04  0.50400000000E-02 0. -1.
    8880023    1    1    2    0    0  0.13934772923E+03  0.91435050546E+03  0.59983637874E+03  0.12841606301E+04  0.65864270000E+03 0.  0.
    8880022    1    1    2    0    0 -0.13934772923E+03 -0.91435050546E+03 -0.10740309480E+04  0.14256187312E+04  0.15294330000E+03 0.  0.
<mgrwt>
<rscale>  0 0.10823492E+04</rscale>
<asrwt>0</asrwt>
<pdfrwt beam="1">  1        1 0.24492107E+00 0.11354580E+04</pdfrwt>
<pdfrwt beam="2">  1       -1 0.17196806E+00 0.11354580E+04</pdfrwt>
<totfact> 0.13293928E+00</totfact>
</mgrwt>
</event>
<event>
 4    5  0.7214169E-008  0.7173329E+03  0.7818608E-02  0.9931716E-01
          1   -1    0    0  501    0  0.00000000000E+00  0.00000000000E+00  0.88878222419E+03  0.88878222421E+03  0.50400000000E-02 0. -1.
         -1   -1    0    0    0  501 -0.00000000000E+00 -0.00000000000E+00 -0.68191454355E+03  0.68191454357E+03  0.50400000000E-02 0.  1.
    8880023    1    1    2    0    0  0.24362828869E+03 -0.14629284461E+03 -0.44441455502E+03  0.84384290150E+03  0.65864270000E+03 0.  1.
    8880022    1    1    2    0    0 -0.24362828869E+03  0.14629284461E+03  0.65128223566E+03  0.72685386628E+03  0.15294330000E+03 0.  0.
<mgrwt>
<rscale>  0 0.58748522E+03</rscale>
<asrwt>0</asrwt>
<pdfrwt beam="1">  1        1 0.13673573E+00 0.71733294E+03</pdfrwt>
<pdfrwt beam="2">  1       -1 0.10490993E+00 0.71733294E+03</pdfrwt>
<totfact> 0.16386775E+01</totfact>
</mgrwt>
</event>
<event>
 4    5  0.7214169E-008  0.6604214E+03  0.7818608E-02  0.1023729E+00
         -1   -1    0    0    0  501 -0.00000000000E+00  0.00000000000E+00  0.16412608534E+04  0.16412608534E+04  0.50400000000E-02 0.  1.
          1   -1    0    0  501    0  0.00000000000E+00 -0.00000000000E+00 -0.49040041572E+03  0.49040041575E+03  0.50400000000E-02 0. -1.
    8880023    1    1    2    0    0 -0.43830263535E+02  0.20617736379E+02  0.15590045288E+04  0.16931188707E+04  0.65864270000E+03 0.  1.
    8880022    1    1    2    0    0  0.43830263535E+02 -0.20617736379E+02 -0.40814409119E+03  0.43854239845E+03  0.15294330000E+03 0.  0.
<mgrwt>
<rscale>  0 0.46364688E+03</rscale>
<asrwt>0</asrwt>
<pdfrwt beam="1">  1        1 0.75446217E-01 0.66042137E+03</pdfrwt>
<pdfrwt beam="2">  1       -1 0.25250167E+00 0.66042137E+03</pdfrwt>
<totfact> 0.32360535E+00</totfact>
</mgrwt>
</event>
<event>
 4    5  0.7214169E-008  0.1008934E+04  0.7818608E-02  0.9369961E-01
          1   -1    0    0  501    0  0.00000000000E+00  0.00000000000E+00  0.17306948279E+04  0.17306948279E+04  0.50400000000E-02 0. -1.
         -1   -1    0    0    0  501 -0.00000000000E+00 -0.00000000000E+00 -0.97373255653E+03  0.97373255655E+03  0.50400000000E-02 0.  1.
    8880023    1    1    2    0    0 -0.69453120518E+03 -0.31900545121E+03 -0.57491601014E+03  0.11612392940E+04  0.65864270000E+03 0.  1.
    8880022    1    1    2    0    0  0.69453120518E+03  0.31900545121E+03  0.13318782815E+04  0.15431880905E+04  0.15294330000E+03 0.  0.
<mgrwt>
<rscale>  0 0.94589534E+03</rscale>
<asrwt>0</asrwt>
<pdfrwt beam="1">  1        1 0.26626074E+00 0.10089342E+04</pdfrwt>
<pdfrwt beam="2">  1       -1 0.14980501E+00 0.10089342E+04</pdfrwt>
<totfact> 0.16004865E+00</totfact>
</mgrwt>
</event>
<event>
 4    5  0.7214169E-008  0.9946213E+03  0.7818608E-02  0.9388629E-01
          1   -1    0    0  501    0  0.00000000000E+00  0.00000000000E+00  0.10049007556E+04  0.10049007556E+04  0.50400000000E-02 0. -1.
         -1   -1    0    0    0  501 -0.00000000000E+00 -0.00000000000E+00 -0.97561453358E+03  0.97561453360E+03  0.50400000000E-02 0.  1.
    8880023    1    1    2    0    0 -0.74125191339E+03  0.77504105524E+02 -0.43892557179E+03  0.10871647296E+04  0.65864270000E+03 0.  0.
    8880022    1    1    2    0    0  0.74125191339E+03 -0.77504105524E+02  0.46821179383E+03  0.89335055962E+03  0.15294330000E+03 0.  0.
<mgrwt>
<rscale>  0 0.93017431E+03</rscale>
<asrwt>0</asrwt>
<pdfrwt beam="1">  1        1 0.15460012E+00 0.99462128E+03</pdfrwt>
<pdfrwt beam="2">  1       -1 0.15009454E+00 0.99462128E+03</pdfrwt>
<totfact> 0.52408642E+00</totfact>
</mgrwt>
</event>
<event>
 4    5  0.7214169E-008  0.8972620E+03  0.7818608E-02  0.9530441E-01
         -1   -1    0    0    0  501 -0.00000000000E+00  0.00000000000E+00  0.12757952586E+04  0.12757952586E+04  0.50400000000E-02 0.  1.
          1   -1    0    0  501    0  0.00000000000E+00 -0.00000000000E+00 -0.68872658573E+03  0.68872658575E+03  0.50400000000E-02 0. -1.
    8880023    1    1    2    0    0 -0.59708113206E+03  0.12150283445E+03  0.89287737563E+03  0.12658234597E+04  0.65864270000E+03 0.  0.
    8880022    1    1    2    0    0  0.59708113206E+03 -0.12150283445E+03 -0.30580870273E+03  0.69869838466E+03  0.15294330000E+03 0. -1.
<mgrwt>
<rscale>  0 0.82076229E+03</rscale>
<asrwt>0</asrwt>
<pdfrwt beam="1">  1        1 0.10595794E+00 0.89726196E+03</pdfrwt>
<pdfrwt beam="2">  1       -1 0.19627619E+00 0.89726196E+03</pdfrwt>
<totfact> 0.45316684E+00</totfact>
</mgrwt>
</event>
<event>
 4    5  0.7214169E-008  0.1407473E+04  0.7818608E-02  0.8977898E-01
         -1   -1    0    0    0  501 -0.00000000000E+00  0.00000000000E+00  0.64246882626E+03  0.64246882628E+03  0.50400000000E-02 0.  1.
          1   -1    0    0  501    0  0.00000000000E+00 -0.00000000000E+00 -0.30064987743E+04  0.30064987743E+04  0.50400000000E-02 0. -1.
    8880023    1    1    2    0    0  0.82057314161E+03  0.93478815497E+03 -0.71763456326E+03  0.15798666868E+04  0.65864270000E+03 0.  1.
    8880022    1    1    2    0    0 -0.82057314161E+03 -0.93478815497E+03 -0.16463953848E+04  0.20691009138E+04  0.15294330000E+03 0.  0.
<mgrwt>
<rscale>  0 0.13672150E+04</rscale>
<asrwt>0</asrwt>
<pdfrwt beam="1">  1        1 0.46253826E+00 0.14074727E+04</pdfrwt>
<pdfrwt beam="2">  1       -1 0.98841360E-01 0.14074727E+04</pdfrwt>
<totfact> 0.56119466E-01</totfact>
</mgrwt>
</event>
<event>
 4    5  0.7214169E-008  0.1227377E+04  0.7818608E-02  0.9130958E-01
         -1   -1    0    0    0  501 -0.00000000000E+00  0.00000000000E+00  0.22366560368E+04  0.22366560368E+04  0.50400000000E-02 0.  1.
          1   -1    0    0  501    0  0.00000000000E+00 -0.00000000000E+00 -0.18596141028E+04  0.18596141028E+04  0.50400000000E-02 0. -1.
    8880023    1    1    2    0    0  0.19662360271E+03 -0.10168501969E+04  0.18917135845E+04  0.22550023628E+04  0.65864270000E+03 0.  1.
    8880022    1    1    2    0    0 -0.19662360271E+03  0.10168501969E+04 -0.15146716505E+04  0.18412677768E+04  0.15294330000E+03 0.  0.
<mgrwt>
<rscale>  0 0.11795375E+04</rscale>
<asrwt>0</asrwt>
<pdfrwt beam="1">  1        1 0.28609448E+00 0.12273774E+04</pdfrwt>
<pdfrwt beam="2">  1       -1 0.34410093E+00 0.12273774E+04</pdfrwt>
<totfact> 0.62075904E-02</totfact>
</mgrwt>
</event>
<event>
 4    5  0.7214169E-008  0.8672367E+03  0.7818608E-02  0.9580818E-01
          1   -1    0    0  501    0  0.00000000000E+00  0.00000000000E+00  0.14478895835E+04  0.14478895835E+04  0.50400000000E-02 0. -1.
         -1   -1    0    0    0  501 -0.00000000000E+00 -0.00000000000E+00 -0.58657041539E+03  0.58657041541E+03  0.50400000000E-02 0.  1.
    8880023    1    1    2    0    0 -0.44250612471E+03  0.34996797171E+03 -0.13661731516E+03  0.87793151709E+03  0.65864270000E+03 0.  1.
    8880022    1    1    2    0    0  0.44250612471E+03 -0.34996797171E+03  0.99793648325E+03  0.11565284818E+04  0.15294330000E+03 0.  0.
<mgrwt>
<rscale>  0 0.78578877E+03</rscale>
<asrwt>0</asrwt>
<pdfrwt beam="1">  1        1 0.22275224E+00 0.86723668E+03</pdfrwt>
<pdfrwt beam="2">  1       -1 0.90241602E-01 0.86723668E+03</pdfrwt>
<totfact> 0.87224469E+00</totfact>
</mgrwt>
</event>
<event>
 4    5  0.7214169E-008  0.8663448E+03  0.7818608E-02  0.9582375E-01
          1   -1    0    0  501    0  0.00000000000E+00  0.00000000000E+00  0.15729530895E+04  0.15729530895E+04  0.50400000000E-02 0. -1.
         -1   -1    0    0    0  501 -0.00000000000E+00 -0.00000000000E+00 -0.47881414891E+03  0.47881414894E+03  0.50400000000E-02 0.  1.
    8880023    1    1    2    0    0 -0.29602478135E+03  0.47865691959E+03  0.64894992485E+02  0.86877194025E+03  0.65864270000E+03 0.  1.
    8880022    1    1    2    0    0  0.29602478135E+03 -0.47865691959E+03  0.10292439481E+04  0.11829952982E+04  0.15294330000E+03 0.  0.
<mgrwt>
<rscale>  0 0.78473760E+03</rscale>
<asrwt>0</asrwt>
<pdfrwt beam="1">  1        1 0.24199278E+00 0.86634481E+03</pdfrwt>
<pdfrwt beam="2">  1       -1 0.73663715E-01 0.86634481E+03</pdfrwt>
<totfact> 0.11054746E+01</totfact>
</mgrwt>
</event>
<event>
 4    5  0.7214169E-008  0.9913097E+03  0.7818608E-02  0.9393016E-01
          1   -1    0    0  501    0  0.00000000000E+00  0.00000000000E+00  0.23672124484E+04  0.23672124484E+04  0.50400000000E-02 0. -1.
         -1   -1    0    0    0  501 -0.00000000000E+00 -0.00000000000E+00 -0.44414720000E+03  0.44414720003E+03  0.50400000000E-02 0.  1.
    8880023    1    1    2    0    0  0.73829419207E+03 -0.61696564700E+02  0.32490047479E+03  0.10431947589E+04  0.65864270000E+03 0.  0.
    8880022    1    1    2    0    0 -0.73829419207E+03  0.61696564700E+02  0.15981647736E+04  0.17681648896E+04  0.15294330000E+03 0.  0.
<mgrwt>
<rscale>  0 0.92652632E+03</rscale>
<asrwt>0</asrwt>
<pdfrwt beam="1">  1        1 0.36418653E+00 0.99130973E+03</pdfrwt>
<pdfrwt beam="2">  1       -1 0.68330339E-01 0.99130973E+03</pdfrwt>
<totfact> 0.36931612E+00</totfact>
</mgrwt>
</event>
<event>
 4    5  0.7214169E-008  0.9316585E+03  0.7818608E-02  0.9477010E-01
         -1   -1    0    0    0  501 -0.00000000000E+00  0.00000000000E+00  0.11091445610E+04  0.11091445611E+04  0.50400000000E-02 0.  1.
          1   -1    0    0  501    0  0.00000000000E+00 -0.00000000000E+00 -0.66466993911E+03  0.66466993913E+03  0.50400000000E-02 0. -1.
    8880023    1    1    2    0    0  0.16829628049E+03 -0.63706656119E+03  0.56083767521E+03  0.10874403642E+04  0.65864270000E+03 0.  1.
    8880022    1    1    2    0    0 -0.16829628049E+03  0.63706656119E+03 -0.11636305328E+03  0.68637413602E+03  0.15294330000E+03 0.  0.
<mgrwt>
<rscale>  0 0.86000240E+03</rscale>
<asrwt>0</asrwt>
<pdfrwt beam="1">  1        1 0.10225691E+00 0.93165855E+03</pdfrwt>
<pdfrwt beam="2">  1       -1 0.17063762E+00 0.93165855E+03</pdfrwt>
<totfact> 0.72439317E+00</totfact>
</mgrwt>
</event>
<event>
 4    5  0.7214169E-008  0.6946320E+03  0.7818608E-02  0.1002024E+00
          1   -1    0    0  501    0  0.00000000000E+00  0.00000000000E+00  0.15607640828E+03  0.15607640836E+03  0.50400000000E-02 0. -1.
         -1   -1    0    0    0  501 -0.00000000000E+00 -0.00000000000E+00 -0.30222519289E+04  0.30222519289E+04  0.50400000000E-02 0.  1.
    8880023    1    1    2    0    0 -0.41590206422E+02  0.21673414693E+03 -0.28219741290E+04  0.29062091506E+04  0.65864270000E+03 0.  0.
    8880022    1    1    2    0    0  0.41590206422E+02 -0.21673414693E+03 -0.44201391571E+02  0.27211918666E+03  0.15294330000E+03 0. -1.
<mgrwt>
<rscale>  0 0.54771459E+03</rscale>
<asrwt>0</asrwt>
<pdfrwt beam="1">  1        1 0.24011757E-01 0.69463202E+03</pdfrwt>
<pdfrwt beam="2">  1       -1 0.46496179E+00 0.69463202E+03</pdfrwt>
<totfact> 0.56607773E-01</totfact>
</mgrwt>
</event>
<event>
 4    5  0.7214169E-008  0.8189620E+03  0.7818608E-02  0.9671203E-01
         -1   -1    0    0    0  501 -0.00000000000E+00  0.00000000000E+00  0.14819294409E+04  0.14819294409E+04  0.50400000000E-02 0.  1.
          1   -1    0    0  501    0  0.00000000000E+00 -0.00000000000E+00 -0.52787846672E+03  0.52787846674E+03  0.50400000000E-02 0. -1.
    8880023    1    1    2    0    0  0.29255984746E+02 -0.48583188983E+03  0.11925176109E+04  0.14466502675E+04  0.65864270000E+03 0.  1.
    8880022    1    1    2    0    0 -0.29255984746E+02  0.48583188983E+03 -0.23846663673E+03  0.56315764016E+03  0.15294330000E+03 0.  0.
<mgrwt>
<rscale>  0 0.72757530E+03</rscale>
<asrwt>0</asrwt>
<pdfrwt beam="1">  1        1 0.81212073E-01 0.81896199E+03</pdfrwt>
<pdfrwt beam="2">  1       -1 0.22798914E+00 0.81896199E+03</pdfrwt>
<totfact> 0.41162235E+00</totfact>
</mgrwt>
</event>
<event>
 4    5  0.7214169E-008  0.1078135E+04  0.7818608E-02  0.9285800E-01
         -1   -1    0    0    0  501 -0.00000000000E+00  0.00000000000E+00  0.67024897593E+03  0.67024897595E+03  0.50400000000E-02 0.  1.
          1   -1    0    0  501    0  0.00000000000E+00 -0.00000000000E+00 -0.22311523636E+04  0.22311523636E+04  0.50400000000E-02 0. -1.
    8880023    1    1    2    0    0 -0.73695066522E+03 -0.43065974002E+03  0.42019441925E+02  0.10789531660E+04  0.65864270000E+03 0.  0.
    8880022    1    1    2    0    0  0.73695066522E+03  0.43065974002E+03 -0.16029228296E+04  0.18224481735E+04  0.15294330000E+03 0.  0.
<mgrwt>
<rscale>  0 0.10210072E+04</rscale>
<asrwt>0</asrwt>
<pdfrwt beam="1">  1        1 0.34325421E+00 0.10781346E+04</pdfrwt>
<pdfrwt beam="2">  1       -1 0.10311523E+00 0.10781346E+04</pdfrwt>
<totfact> 0.18478463E+00</totfact>
</mgrwt>
</event>
<event>
 4    5  0.7214169E-008  0.7363419E+03  0.7818608E-02  0.9870734E-01
         -1   -1    0    0    0  501 -0.00000000000E+00  0.00000000000E+00  0.32659575322E+03  0.32659575326E+03  0.50400000000E-02 0.  1.
          1   -1    0    0  501    0  0.00000000000E+00 -0.00000000000E+00 -0.12020570065E+04  0.12020570065E+04  0.50400000000E-02 0. -1.
    8880023    1    1    2    0    0  0.28014035492E+03  0.17294663683E+03 -0.20193991572E+03  0.76353067618E+03  0.65864270000E+03 0.  1.
    8880022    1    1    2    0    0 -0.28014035492E+03 -0.17294663683E+03 -0.67352133755E+03  0.76512208359E+03  0.15294330000E+03 0. -1.
<mgrwt>
<rscale>  0 0.61700850E+03</rscale>
<asrwt>0</asrwt>
<pdfrwt beam="1">  1        1 0.18493185E+00 0.73634188E+03</pdfrwt>
<pdfrwt beam="2">  1       -1 0.50245501E-01 0.73634188E+03</pdfrwt>
<totfact> 0.43530663E+01</totfact>
</mgrwt>
</event>
<event>
 4    5  0.7214169E-008  0.7684981E+03  0.7818608E-02  0.9783584E-01
          1   -1    0    0  501    0  0.00000000000E+00  0.00000000000E+00  0.19577251604E+04  0.19577251604E+04  0.50400000000E-02 0. -1.
         -1   -1    0    0    0  501 -0.00000000000E+00 -0.00000000000E+00 -0.25065037171E+03  0.25065037176E+03  0.50400000000E-02 0.  1.
    8880023    1    1    2    0    0  0.30420044710E+03 -0.25345840875E+03  0.47075929937E+03  0.90122339139E+03  0.65864270000E+03 0.  1.
    8880022    1    1    2    0    0 -0.30420044710E+03  0.25345840875E+03  0.12363154894E+04  0.13071521408E+04  0.15294330000E+03 0.  0.
<mgrwt>
<rscale>  0 0.66251027E+03</rscale>
<asrwt>0</asrwt>
<pdfrwt beam="1">  1        1 0.30118848E+00 0.76849807E+03</pdfrwt>
<pdfrwt beam="2">  1       -1 0.38561596E-01 0.76849807E+03</pdfrwt>
<totfact> 0.21502266E+01</totfact>
</mgrwt>
</event>
<event>
 4    5  0.7214169E-008  0.8563264E+03  0.7818608E-02  0.9600132E-01
          1   -1    0    0  501    0  0.00000000000E+00  0.00000000000E+00  0.11258736709E+04  0.11258736709E+04  0.50400000000E-02 0. -1.
         -1   -1    0    0    0  501 -0.00000000000E+00 -0.00000000000E+00 -0.52227269506E+03  0.52227269508E+03  0.50400000000E-02 0.  1.
    8880023    1    1    2    0    0 -0.54133635048E+03 -0.80247656635E+02  0.65427507308E+03  0.10776691553E+04  0.65864270000E+03 0.  0.
    8880022    1    1    2    0    0  0.54133635048E+03  0.80247656635E+02 -0.50674097271E+02  0.57047721067E+03  0.15294330000E+03 0.  0.
<mgrwt>
<rscale>  0 0.77287461E+03</rscale>
<asrwt>0</asrwt>
<pdfrwt beam="1">  1        1 0.17321133E+00 0.85632642E+03</pdfrwt>
<pdfrwt beam="2">  1       -1 0.80349647E-01 0.85632642E+03</pdfrwt>
<totfact> 0.19071591E+01</totfact>
</mgrwt>
</event>
<event>
 4    5  0.7214169E-008  0.1204370E+04  0.7818608E-02  0.9152886E-01
         -1   -1    0    0    0  501 -0.00000000000E+00  0.00000000000E+00  0.12317008407E+04  0.12317008408E+04  0.50400000000E-02 0.  1.
          1   -1    0    0  501    0  0.00000000000E+00 -0.00000000000E+00 -0.15659857203E+04  0.15659857203E+04  0.50400000000E-02 0. -1.
    8880023    1    1    2    0    0  0.96955789724E+03  0.27686557494E+03  0.66000769084E+03  0.13733599022E+04  0.65864270000E+03 0.  1.
    8880022    1    1    2    0    0 -0.96955789724E+03 -0.27686557494E+03 -0.99429257044E+03  0.14243266589E+04  0.15294330000E+03 0.  0.
<mgrwt>
<rscale>  0 0.11553239E+04</rscale>
<asrwt>0</asrwt>
<pdfrwt beam="1">  1        1 0.24092088E+00 0.12043701E+04</pdfrwt>
<pdfrwt beam="2">  1       -1 0.18949244E+00 0.12043701E+04</pdfrwt>
<totfact> 0.10276682E+00</totfact>
</mgrwt>
</event>
<event>
 4    5  0.7214169E-008  0.6616227E+03  0.7818608E-02  0.1022552E+00
          1   -1    0    0  501    0  0.00000000000E+00  0.00000000000E+00  0.69464527588E+03  0.69464527590E+03  0.50400000000E-02 0. -1.
         -1   -1    0    0    0  501 -0.00000000000E+00 -0.00000000000E+00 -0.38754031854E+03  0.38754031857E+03  0.50400000000E-02 0.  1.
    8880023    1    1    2    0    0 -0.18353079142E+02 -0.59979766438E+02 -0.74996147571E+02  0.66585962207E+03  0.65864270000E+03 0.  1.
    8880022    1    1    2    0    0  0.18353079142E+02  0.59979766438E+02  0.38210110491E+03  0.41632597239E+03  0.15294330000E+03 0.  0.
<mgrwt>
<rscale>  0 0.46776738E+03</rscale>
<asrwt>0</asrwt>
<pdfrwt beam="1">  1        1 0.10686850E+00 0.66162271E+03</pdfrwt>
<pdfrwt beam="2">  1       -1 0.59621587E-01 0.66162271E+03</pdfrwt>
<totfact> 0.80749921E+01</totfact>
</mgrwt>
</event>
<event>
 4    5  0.7214169E-008  0.9697720E+03  0.7818608E-02  0.9422220E-01
          1   -1    0    0  501    0  0.00000000000E+00  0.00000000000E+00  0.12947326388E+04  0.12947326388E+04  0.50400000000E-02 0. -1.
         -1   -1    0    0    0  501 -0.00000000000E+00 -0.00000000000E+00 -0.12004130028E+04  0.12004130029E+04  0.50400000000E-02 0.  1.
    8880023    1    1    2    0    0  0.70570342998E+03  0.92899220014E+02 -0.85907859937E+03  0.12955592778E+04  0.65864270000E+03 0.  0.
    8880022    1    1    2    0    0 -0.70570342998E+03 -0.92899220014E+02  0.95339823530E+03  0.11995863638E+04  0.15294330000E+03 0.  0.
<mgrwt>
<rscale>  0 0.90269440E+03</rscale>
<asrwt>0</asrwt>
<pdfrwt beam="1">  1        1 0.19918964E+00 0.96977204E+03</pdfrwt>
<pdfrwt beam="2">  1       -1 0.18467892E+00 0.96977204E+03</pdfrwt>
<totfact> 0.17743281E+00</totfact>
</mgrwt>
</event>
<event>
 4    5  0.7214169E-008  0.7946452E+03  0.7818608E-02  0.9722496E-01
          1   -1    0    0  501    0  0.00000000000E+00  0.00000000000E+00  0.26771984950E+04  0.26771984950E+04  0.50400000000E-02 0. -1.
         -1   -1    0    0    0  501 -0.00000000000E+00 -0.00000000000E+00 -0.61997010918E+03  0.61997010920E+03  0.50400000000E-02 0.  1.
    8880023    1    1    2    0    0  0.44410353694E+03 -0.20561833029E+02 -0.33266576771E+03  0.86146820009E+03  0.65864270000E+03 0.  0.
    8880022    1    1    2    0    0 -0.44410353694E+03  0.20561833029E+02  0.23898941536E+04  0.24357004041E+04  0.15294330000E+03 0.  0.
<mgrwt>
<rscale>  0 0.69693036E+03</rscale>
<asrwt>0</asrwt>
<pdfrwt beam="1">  1        1 0.41187669E+00 0.79464517E+03</pdfrwt>
<pdfrwt beam="2">  1       -1 0.95380016E-01 0.79464517E+03</pdfrwt>
<totfact> 0.11461827E+00</totfact>
</mgrwt>
</event>
<event>
 4    5  0.7214169E-008  0.1116554E+04  0.7818608E-02  0.9242845E-01
         -1   -1    0    0    0  501 -0.00000000000E+00  0.00000000000E+00  0.40623251158E+03  0.40623251161E+03  0.50400000000E-02 0.  1.
          1   -1    0    0  501    0  0.00000000000E+00 -0.00000000000E+00 -0.27495684075E+04  0.27495684075E+04  0.50400000000E-02 0. -1.
    8880023    1    1    2    0    0  0.53140335203E+02  0.90003317368E+03 -0.84426069012E+03  0.13998106758E+04  0.65864270000E+03 0.  0.
    8880022    1    1    2    0    0 -0.53140335203E+02 -0.90003317368E+03 -0.14990752058E+04  0.17559902433E+04  0.15294330000E+03 0.  0.
<mgrwt>
<rscale>  0 0.10621934E+04</rscale>
<asrwt>0</asrwt>
<pdfrwt beam="1">  1        1 0.42301051E+00 0.11165544E+04</pdfrwt>
<pdfrwt beam="2">  1       -1 0.62497311E-01 0.11165544E+04</pdfrwt>
<totfact> 0.23667393E+00</totfact>
</mgrwt>
</event>
<event>
 4    5  0.7214169E-008  0.1896624E+04  0.7818608E-02  0.8670890E-01
         -1   -1    0    0    0  501 -0.00000000000E+00  0.00000000000E+00  0.20624594854E+04  0.20624594854E+04  0.50400000000E-02 0.  1.
          1   -1    0    0  501    0  0.00000000000E+00 -0.00000000000E+00 -0.20717631435E+04  0.20717631435E+04  0.50400000000E-02 0. -1.
    8880023    1    1    2    0    0 -0.25651609605E+03  0.17599915364E+04  0.93514294860E+03  0.21146331257E+04  0.65864270000E+03 0.  0.
    8880022    1    1    2    0    0  0.25651609605E+03 -0.17599915364E+04 -0.94444660667E+03  0.20195895033E+04  0.15294330000E+03 0.  0.
<mgrwt>
<rscale>  0 0.18681191E+04</rscale>
<asrwt>0</asrwt>
<pdfrwt beam="1">  1        1 0.31873279E+00 0.18966236E+04</pdfrwt>
<pdfrwt beam="2">  1       -1 0.31730146E+00 0.18966236E+04</pdfrwt>
<totfact> 0.61098457E-02</totfact>
</mgrwt>
</event>
<event>
 4    5  0.7214169E-008  0.8618447E+03  0.7818608E-02  0.9590290E-01
          1   -1    0    0  501    0  0.00000000000E+00  0.00000000000E+00  0.19078004011E+04  0.19078004011E+04  0.50400000000E-02 0. -1.
         -1   -1    0    0    0  501 -0.00000000000E+00 -0.00000000000E+00 -0.64396292944E+03  0.64396292946E+03  0.50400000000E-02 0.  1.
    8880023    1    1    2    0    0 -0.17864538484E+03  0.52635724266E+03 -0.27807959675E+03  0.90559626149E+03  0.65864270000E+03 0.  0.
    8880022    1    1    2    0    0  0.17864538484E+03 -0.52635724266E+03  0.15419170684E+04  0.16461670690E+04  0.15294330000E+03 0.  0.
<mgrwt>
<rscale>  0 0.77942171E+03</rscale>
<asrwt>0</asrwt>
<pdfrwt beam="1">  1        1 0.29350775E+00 0.86184472E+03</pdfrwt>
<pdfrwt beam="2">  1       -1 0.99071222E-01 0.86184472E+03</pdfrwt>
<totfact> 0.34529999E+00</totfact>
</mgrwt>
</event>
<event>
 4    5  0.7214169E-008  0.6818628E+03  0.7818608E-02  0.1008289E+00
         -1   -1    0    0    0  501 -0.00000000000E+00  0.00000000000E+00  0.38389759608E+03  0.38389759611E+03  0.50400000000E-02 0.  1.
          1   -1    0    0  501    0  0.00000000000E+00 -0.00000000000E+00 -0.11927412442E+04  0.11927412442E+04  0.50400000000E-02 0. -1.
    8880023    1    1    2    0    0  0.73315596181E+02  0.16047288218E+03  0.52814629999E+02  0.68390519370E+03  0.65864270000E+03 0.  1.
    8880022    1    1    2    0    0 -0.73315596181E+02 -0.16047288218E+03 -0.86165827809E+03  0.89273364660E+03  0.15294330000E+03 0.  0.
<mgrwt>
<rscale>  0 0.52160366E+03</rscale>
<asrwt>0</asrwt>
<pdfrwt beam="1">  1        1 0.18349865E+00 0.68186284E+03</pdfrwt>
<pdfrwt beam="2">  1       -1 0.59061169E-01 0.68186284E+03</pdfrwt>
<totfact> 0.32587533E+01</totfact>
</mgrwt>
</event>
<event>
 4    5  0.7214169E-008  0.6646038E+03  0.7818608E-02  0.1019868E+00
          1   -1    0    0  501    0  0.00000000000E+00  0.00000000000E+00  0.11320267373E+04  0.11320267373E+04  0.50400000000E-02 0. -1.
         -1   -1    0    0    0  501 -0.00000000000E+00 -0.00000000000E+00 -0.29400677794E+03  0.29400677798E+03  0.50400000000E-02 0.  1.
    8880023    1    1    2    0    0 -0.67449632420E+02  0.57780670662E+02  0.10606468484E+03  0.67301410271E+03  0.65864270000E+03 0.  1.
    8880022    1    1    2    0    0  0.67449632420E+02 -0.57780670662E+02  0.73195527449E+03  0.75301941255E+03  0.15294330000E+03 0.  0.
<mgrwt>
<rscale>  0 0.47734236E+03</rscale>
<asrwt>0</asrwt>
<pdfrwt beam="1">  1        1 0.17415796E+00 0.66460384E+03</pdfrwt>
<pdfrwt beam="2">  1       -1 0.45231812E-01 0.66460384E+03</pdfrwt>
<totfact> 0.60097343E+01</totfact>
</mgrwt>
</event>
<event>
 4    5  0.7214169E-008  0.1637079E+04  0.7818608E-02  0.8818452E-01
         -1   -1    0    0    0  501 -0.00000000000E+00  0.00000000000E+00  0.27598605590E+04  0.27598605590E+04  0.50400000000E-02 0.  1.
          1   -1    0    0  501    0  0.00000000000E+00 -0.00000000000E+00 -0.91469392461E+03  0.91469392463E+03  0.50400000000E-02 0. -1.
    8880023    1    1    2    0    0  0.10171671101E+04 -0.11007222952E+04  0.12282438859E+04  0.20466098188E+04  0.65864270000E+03 0.  0.
    8880022    1    1    2    0    0 -0.10171671101E+04  0.11007222952E+04  0.61692274856E+03  0.16279446648E+04  0.15294330000E+03 0.  0.
<mgrwt>
<rscale>  0 0.16034160E+04</rscale>
<asrwt>0</asrwt>
<pdfrwt beam="1">  1        1 0.14072214E+00 0.16370793E+04</pdfrwt>
<pdfrwt beam="2">  1       -1 0.42459394E+00 0.16370793E+04</pdfrwt>
<totfact> 0.80568384E-02</totfact>
</mgrwt>
</event>
<event>
 4    5  0.7214169E-008  0.6592916E+03  0.7818608E-02  0.1024894E+00
          1   -1    0    0  501    0  0.00000000000E+00  0.00000000000E+00  0.86380918924E+03  0.86380918926E+03  0.50400000000E-02 0. -1.
         -1   -1    0    0    0  501 -0.00000000000E+00 -0.00000000000E+00 -0.89687640162E+03  0.89687640164E+03  0.50400000000E-02 0.  1.
    8880023    1    1    2    0    0  0.73507926317E+01 -0.28304403827E+02 -0.76642648279E+03  0.10109772170E+04  0.65864270000E+03 0.  1.
    8880022    1    1    2    0    0 -0.73507926317E+01  0.28304403827E+02  0.73335927041E+03  0.74970837393E+03  0.15294330000E+03 0.  0.
<mgrwt>
<rscale>  0 0.45961057E+03</rscale>
<asrwt>0</asrwt>
<pdfrwt beam="1">  1        1 0.13289372E+00 0.65929157E+03</pdfrwt>
<pdfrwt beam="2">  1       -1 0.13798098E+00 0.65929157E+03</pdfrwt>
<totfact> 0.88811934E+00</totfact>
</mgrwt>
</event>
<event>
 4    5  0.7214169E-008  0.1165539E+04  0.7818608E-02  0.9191371E-01
         -1   -1    0    0    0  501 -0.00000000000E+00  0.00000000000E+00  0.99461375308E+03  0.99461375310E+03  0.50400000000E-02 0.  1.
          1   -1    0    0  501    0  0.00000000000E+00 -0.00000000000E+00 -0.21502713187E+04  0.21502713187E+04  0.50400000000E-02 0. -1.
    8880023    1    1    2    0    0 -0.57372657297E+03  0.77169283478E+03 -0.16755727725E+04  0.20410845975E+04  0.65864270000E+03 0. -1.
    8880022    1    1    2    0    0  0.57372657297E+03 -0.77169283478E+03  0.51991520690E+03  0.11038004743E+04  0.15294330000E+03 0.  0.
<mgrwt>
<rscale>  0 0.11142943E+04</rscale>
<asrwt>0</asrwt>
<pdfrwt beam="1">  1        1 0.33081097E+00 0.11655395E+04</pdfrwt>
<pdfrwt beam="2">  1       -1 0.15301750E+00 0.11655395E+04</pdfrwt>
<totfact> 0.76952691E-01</totfact>
</mgrwt>
</event>
<event>
 4    5  0.7214169E-008  0.8154953E+03  0.7818608E-02  0.9678242E-01
          1   -1    0    0  501    0  0.00000000000E+00  0.00000000000E+00  0.81697078833E+03  0.81697078835E+03  0.50400000000E-02 0. -1.
         -1   -1    0    0    0  501 -0.00000000000E+00 -0.00000000000E+00 -0.96833342796E+03  0.96833342798E+03  0.50400000000E-02 0.  1.
    8880023    1    1    2    0    0 -0.48073219733E+03 -0.10903757595E+02 -0.67463151715E+03  0.10583762222E+04  0.65864270000E+03 0.  1.
    8880022    1    1    2    0    0  0.48073219733E+03  0.10903757595E+02  0.52326887752E+03  0.72692799415E+03  0.15294330000E+03 0.  0.
<mgrwt>
<rscale>  0 0.72327153E+03</rscale>
<asrwt>0</asrwt>
<pdfrwt beam="1">  1        1 0.12568781E+00 0.81549528E+03</pdfrwt>
<pdfrwt beam="2">  1       -1 0.14897437E+00 0.81549528E+03</pdfrwt>
<totfact> 0.77762070E+00</totfact>
</mgrwt>
</event>
<event>
 4    5  0.7214169E-008  0.6603879E+03  0.7818608E-02  0.1023763E+00
          1   -1    0    0  501    0  0.00000000000E+00  0.00000000000E+00  0.30621026201E+04  0.30621026201E+04  0.50400000000E-02 0. -1.
         -1   -1    0    0    0  501 -0.00000000000E+00 -0.00000000000E+00 -0.46703034230E+03  0.46703034233E+03  0.50400000000E-02 0.  1.
    8880023    1    1    2    0    0  0.22933933851E+02  0.42142097394E+02 -0.23016792059E+03  0.69934926870E+03  0.65864270000E+03 0.  1.
    8880022    1    1    2    0    0 -0.22933933851E+02 -0.42142097394E+02  0.28252401984E+04  0.28297836937E+04  0.15294330000E+03 0.  0.
<mgrwt>
<rscale>  0 0.46352950E+03</rscale>
<asrwt>0</asrwt>
<pdfrwt beam="1">  1        1 0.47109271E+00 0.66038786E+03</pdfrwt>
<pdfrwt beam="2">  1       -1 0.71850822E-01 0.66038786E+03</pdfrwt>
<totfact> 0.11605036E+00</totfact>
</mgrwt>
</event>
<event>
 4    5  0.7214169E-008  0.1057158E+04  0.7818608E-02  0.9310325E-01
         -1   -1    0    0    0  501 -0.00000000000E+00  0.00000000000E+00  0.57685936332E+03  0.57685936334E+03  0.50400000000E-02 0.  1.
          1   -1    0    0  501    0  0.00000000000E+00 -0.00000000000E+00 -0.22526867468E+04  0.22526867468E+04  0.50400000000E-02 0. -1.
    8880023    1    1    2    0    0  0.72436799209E+03 -0.39882915054E+03 -0.12385648277E+03  0.10643891741E+04  0.65864270000E+03 0.  1.
    8880022    1    1    2    0    0 -0.72436799209E+03  0.39882915054E+03 -0.15519709007E+04  0.17651569360E+04  0.15294330000E+03 0.  0.
<mgrwt>
<rscale>  0 0.99837838E+03</rscale>
<asrwt>0</asrwt>
<pdfrwt beam="1">  1        1 0.34656719E+00 0.10571584E+04</pdfrwt>
<pdfrwt beam="2">  1       -1 0.88747596E-01 0.10571584E+04</pdfrwt>
<totfact> 0.25152415E+00</totfact>
</mgrwt>
</event>
<event>
 4    5  0.7214169E-008  0.6681971E+03  0.7818608E-02  0.1016990E+00
         -1   -1    0    0    0  501 -0.00000000000E+00  0.00000000000E+00  0.45917995710E+03  0.45917995713E+03  0.50400000000E-02 0.  1.
          1   -1    0    0  501    0  0.00000000000E+00 -0.00000000000E+00 -0.22769769094E+04  0.22769769094E+04  0.50400000000E-02 0. -1.
    8880023    1    1    2    0    0  0.10802258707E+03 -0.31754434913E+02  0.20927895652E+03  0.70020362135E+03  0.65864270000E+03 0.  1.
    8880022    1    1    2    0    0 -0.10802258707E+03  0.31754434913E+02 -0.20270759088E+04  0.20359532452E+04  0.15294330000E+03 0.  0.
<mgrwt>
<rscale>  0 0.48788789E+03</rscale>
<asrwt>0</asrwt>
<pdfrwt beam="1">  1        1 0.35030413E+00 0.66819715E+03</pdfrwt>
<pdfrwt beam="2">  1       -1 0.70643072E-01 0.66819715E+03</pdfrwt>
<totfact> 0.41922903E+00</totfact>
</mgrwt>
</event>
<event>
 4    5  0.7214169E-008  0.1152407E+04  0.7818608E-02  0.9204835E-01
         -1   -1    0    0    0  501 -0.00000000000E+00  0.00000000000E+00  0.94023635198E+03  0.94023635199E+03  0.50400000000E-02 0.  1.
          1   -1    0    0  501    0  0.00000000000E+00 -0.00000000000E+00 -0.17914261620E+04  0.17914261620E+04  0.50400000000E-02 0. -1.
    8880023    1    1    2    0    0 -0.75204763586E+02 -0.94264291722E+03  0.34147347321E+03  0.12019341767E+04  0.65864270000E+03 0.  0.
    8880022    1    1    2    0    0  0.75204763586E+02  0.94264291722E+03 -0.11926632832E+04  0.15297283373E+04  0.15294330000E+03 0.  0.
<mgrwt>
<rscale>  0 0.11003667E+04</rscale>
<asrwt>0</asrwt>
<pdfrwt beam="1">  1        1 0.27560402E+00 0.11524069E+04</pdfrwt>
<pdfrwt beam="2">  1       -1 0.14465175E+00 0.11524069E+04</pdfrwt>
<totfact> 0.15684751E+00</totfact>
</mgrwt>
</event>
<event>
 4    5  0.7214169E-008  0.7158291E+03  0.7818608E-02  0.9936960E-01
          1   -1    0    0  501    0  0.00000000000E+00  0.00000000000E+00  0.12945981655E+04  0.12945981655E+04  0.50400000000E-02 0. -1.
         -1   -1    0    0    0  501 -0.00000000000E+00 -0.00000000000E+00 -0.59252047936E+03  0.59252047939E+03  0.50400000000E-02 0.  1.
    8880023    1    1    2    0    0  0.27829266729E+03  0.33975689495E+02 -0.34341025344E+03  0.79394078153E+03  0.65864270000E+03 0.  1.
    8880022    1    1    2    0    0 -0.27829266729E+03 -0.33975689495E+02  0.10454879396E+04  0.10931778634E+04  0.15294330000E+03 0.  0.
<mgrwt>
<rscale>  0 0.58503012E+03</rscale>
<asrwt>0</asrwt>
<pdfrwt beam="1">  1        1 0.19916894E+00 0.71582914E+03</pdfrwt>
<pdfrwt beam="2">  1       -1 0.91156999E-01 0.71582914E+03</pdfrwt>
<totfact> 0.11149556E+01</totfact>
</mgrwt>
</event>
<event>
 4    5  0.7214169E-008  0.1293444E+04  0.7818608E-02  0.9071242E-01
         -1   -1    0    0    0  501 -0.00000000000E+00  0.00000000000E+00  0.15923632500E+04  0.15923632500E+04  0.50400000000E-02 0.  1.
          1   -1    0    0  501    0  0.00000000000E+00 -0.00000000000E+00 -0.14215211298E+04  0.14215211298E+04  0.50400000000E-02 0. -1.
    8880023    1    1    2    0    0 -0.22800716496E+03 -0.10895873441E+04  0.98540712785E+03  0.16260458977E+04  0.65864270000E+03 0.  1.
    8880022    1    1    2    0    0  0.22800716496E+03  0.10895873441E+04 -0.81456500766E+03  0.13878384821E+04  0.15294330000E+03 0.  0.
<mgrwt>
<rscale>  0 0.12487288E+04</rscale>
<asrwt>0</asrwt>
<pdfrwt beam="1">  1        1 0.21869556E+00 0.12934443E+04</pdfrwt>
<pdfrwt beam="2">  1       -1 0.24497896E+00 0.12934443E+04</pdfrwt>
<totfact> 0.54071564E-01</totfact>
</mgrwt>
</event>
<event>
 4    5  0.7214169E-008  0.1158699E+04  0.7818608E-02  0.9198354E-01
          1   -1    0    0  501    0  0.00000000000E+00  0.00000000000E+00  0.22391311450E+04  0.22391311450E+04  0.50400000000E-02 0. -1.
         -1   -1    0    0    0  501 -0.00000000000E+00 -0.00000000000E+00 -0.63343941800E+03  0.63343941802E+03  0.50400000000E-02 0.  1.
    8880023    1    1    2    0    0  0.94262730668E+03  0.14222196755E+03  0.21326338724E+03  0.11781616213E+04  0.65864270000E+03 0.  0.
    8880022    1    1    2    0    0 -0.94262730668E+03 -0.14222196755E+03  0.13924283397E+04  0.16944089417E+04  0.15294330000E+03 0.  0.
<mgrwt>
<rscale>  0 0.11070433E+04</rscale>
<asrwt>0</asrwt>
<pdfrwt beam="1">  1        1 0.34448171E+00 0.11586991E+04</pdfrwt>
<pdfrwt beam="2">  1       -1 0.97452219E-01 0.11586991E+04</pdfrwt>
<totfact> 0.20564991E+00</totfact>
</mgrwt>
</event>
<event>
 4    5  0.7214169E-008  0.8525271E+03  0.7818608E-02  0.9606997E-01
         -1   -1    0    0    0  501 -0.00000000000E+00  0.00000000000E+00  0.47940499352E+03  0.47940499354E+03  0.50400000000E-02 0.  1.
          1   -1    0    0  501    0  0.00000000000E+00 -0.00000000000E+00 -0.14533827187E+04  0.14533827187E+04  0.50400000000E-02 0. -1.
    8880023    1    1    2    0    0  0.54087775340E+03 -0.21060057170E+02 -0.53688023797E+02  0.85421594477E+03  0.65864270000E+03 0.  1.
    8880022    1    1    2    0    0 -0.54087775340E+03  0.21060057170E+02 -0.92028970139E+03  0.10785717675E+04  0.15294330000E+03 0.  0.
<mgrwt>
<rscale>  0 0.76834797E+03</rscale>
<asrwt>0</asrwt>
<pdfrwt beam="1">  1        1 0.22359734E+00 0.85252711E+03</pdfrwt>
<pdfrwt beam="2">  1       -1 0.73754615E-01 0.85252711E+03</pdfrwt>
<totfact> 0.13343609E+01</totfact>
</mgrwt>
</event>
<event>
 4    5  0.7214169E-008  0.7327093E+03  0.7818608E-02  0.9881717E-01
          1   -1    0    0  501    0  0.00000000000E+00  0.00000000000E+00  0.40696803644E+03  0.40696803647E+03  0.50400000000E-02 0. -1.
         -1   -1    0    0    0  501 -0.00000000000E+00 -0.00000000000E+00 -0.11967606190E+04  0.11967606190E+04  0.50400000000E-02 0.  1.
    8880023    1    1    2    0    0  0.21758393786E+03  0.23602947922E+03 -0.96149240063E+03  0.12088550483E+04  0.65864270000E+03 0.  0.
    8880022    1    1    2    0    0 -0.21758393786E+03 -0.23602947922E+03  0.17169981810E+03  0.39487360715E+03  0.15294330000E+03 0.  0.
<mgrwt>
<rscale>  0 0.61155595E+03</rscale>
<asrwt>0</asrwt>
<pdfrwt beam="1">  1        1 0.62610468E-01 0.73270928E+03</pdfrwt>
<pdfrwt beam="2">  1       -1 0.18411702E+00 0.73270928E+03</pdfrwt>
<totfact> 0.11764601E+01</totfact>
</mgrwt>
</event>
<event>
 4    5  0.7214169E-008  0.7595544E+03  0.7818608E-02  0.9806263E-01
          1   -1    0    0  501    0  0.00000000000E+00  0.00000000000E+00  0.53872630868E+03  0.53872630870E+03  0.50400000000E-02 0. -1.
         -1   -1    0    0    0  501 -0.00000000000E+00 -0.00000000000E+00 -0.14729001932E+04  0.14729001932E+04  0.50400000000E-02 0.  1.
    8880023    1    1    2    0    0 -0.31405373411E+03  0.21090961602E+03 -0.12722397541E+04  0.14817276444E+04  0.65864270000E+03 0.  0.
    8880022    1    1    2    0    0  0.31405373411E+03 -0.21090961602E+03  0.33806586955E+03  0.52989885753E+03  0.15294330000E+03 0.  0.
<mgrwt>
<rscale>  0 0.65027539E+03</rscale>
<asrwt>0</asrwt>
<pdfrwt beam="1">  1        1 0.82880972E-01 0.75955436E+03</pdfrwt>
<pdfrwt beam="2">  1       -1 0.22660003E+00 0.75955436E+03</pdfrwt>
<totfact> 0.41205219E+00</totfact>
</mgrwt>
</event>
<event>
 4    5  0.7214169E-008  0.1440055E+04  0.7818608E-02  0.8953168E-01
         -1   -1    0    0    0  501 -0.00000000000E+00  0.00000000000E+00  0.12818658613E+04  0.12818658613E+04  0.50400000000E-02 0.  1.
          1   -1    0    0  501    0  0.00000000000E+00 -0.00000000000E+00 -0.29832267891E+04  0.29832267891E+04  0.50400000000E-02 0. -1.
    8880023    1    1    2    0    0 -0.74406419746E+03 -0.10422652393E+04  0.65256217829E+03  0.15810110568E+04  0.65864270000E+03 0.  1.
    8880022    1    1    2    0    0  0.74406419746E+03  0.10422652393E+04 -0.23539231061E+04  0.26840815937E+04  0.15294330000E+03 0.  0.
<mgrwt>
<rscale>  0 0.14008994E+04</rscale>
<asrwt>0</asrwt>
<pdfrwt beam="1">  1        1 0.45895797E+00 0.14400551E+04</pdfrwt>
<pdfrwt beam="2">  1       -1 0.19721013E+00 0.14400551E+04</pdfrwt>
<totfact> 0.92439438E-02</totfact>
</mgrwt>
</event>
<event>
 4    5  0.7214169E-008  0.7428139E+03  0.7818608E-02  0.9851825E-01
         -1   -1    0    0    0  501 -0.00000000000E+00  0.00000000000E+00  0.84962643855E+03  0.84962643856E+03  0.50400000000E-02 0.  1.
          1   -1    0    0  501    0  0.00000000000E+00 -0.00000000000E+00 -0.10842317143E+04  0.10842317143E+04  0.50400000000E-02 0. -1.
    8880023    1    1    2    0    0  0.34163051248E+03 -0.35368676227E+02  0.64087180403E+03  0.98106535245E+03  0.65864270000E+03 0.  1.
    8880022    1    1    2    0    0 -0.34163051248E+03  0.35368676227E+02 -0.87547707980E+03  0.95279280045E+03  0.15294330000E+03 0.  0.
<mgrwt>
<rscale>  0 0.62653964E+03</rscale>
<asrwt>0</asrwt>
<pdfrwt beam="1">  1        1 0.16680488E+00 0.74281394E+03</pdfrwt>
<pdfrwt beam="2">  1       -1 0.13071176E+00 0.74281394E+03</pdfrwt>
<totfact> 0.67565613E+00</totfact>
</mgrwt>
</event>
<event>
 4    5  0.7214169E-008  0.7275668E+03  0.7818608E-02  0.9897768E-01
          1   -1    0    0  501    0  0.00000000000E+00  0.00000000000E+00  0.68307568402E+03  0.68307568403E+03  0.50400000000E-02 0. -1.
         -1   -1    0    0    0  501 -0.00000000000E+00 -0.00000000000E+00 -0.12614974846E+04  0.12614974846E+04  0.50400000000E-02 0.  1.
    8880023    1    1    2    0    0 -0.30698739786E+03  0.36082944389E+02 -0.11002665966E+04  0.13190678645E+04  0.65864270000E+03 0.  1.
    8880022    1    1    2    0    0  0.30698739786E+03 -0.36082944389E+02  0.52184479603E+03  0.62550530412E+03  0.15294330000E+03 0.  0.
<mgrwt>
<rscale>  0 0.60369602E+03</rscale>
<asrwt>0</asrwt>
<pdfrwt beam="1">  1        1 0.10508857E+00 0.72756680E+03</pdfrwt>
<pdfrwt beam="2">  1       -1 0.19407654E+00 0.72756680E+03</pdfrwt>
<totfact> 0.48640426E+00</totfact>
</mgrwt>
</event>
<event>
 4    5  0.7214169E-008  0.1151966E+04  0.7818608E-02  0.9205291E-01
          1   -1    0    0  501    0  0.00000000000E+00  0.00000000000E+00  0.17843160829E+04  0.17843160829E+04  0.50400000000E-02 0. -1.
         -1   -1    0    0    0  501 -0.00000000000E+00 -0.00000000000E+00 -0.11333654134E+04  0.11333654134E+04  0.50400000000E-02 0.  1.
    8880023    1    1    2    0    0 -0.34797453639E+03 -0.87870855723E+03 -0.63428674420E+03  0.13150455835E+04  0.65864270000E+03 0.  1.
    8880022    1    1    2    0    0  0.34797453639E+03  0.87870855723E+03  0.12852374136E+04  0.16026359128E+04  0.15294330000E+03 0.  0.
<mgrwt>
<rscale>  0 0.10998984E+04</rscale>
<asrwt>0</asrwt>
<pdfrwt beam="1">  1        1 0.27451017E+00 0.11519658E+04</pdfrwt>
<pdfrwt beam="2">  1       -1 0.17436391E+00 0.11519658E+04</pdfrwt>
<totfact> 0.94225197E-01</totfact>
</mgrwt>
</event>
<event>
 4    5  0.7214169E-008  0.8623691E+03  0.7818608E-02  0.9589363E-01
          1   -1    0    0  501    0  0.00000000000E+00  0.00000000000E+00  0.13178464822E+04  0.13178464822E+04  0.50400000000E-02 0. -1.
         -1   -1    0    0    0  501 -0.00000000000E+00 -0.00000000000E+00 -0.94711697674E+03  0.94711697675E+03  0.50400000000E-02 0.  1.
    8880023    1    1    2    0    0  0.16039187344E+03  0.53305229966E+03 -0.65840083454E+03  0.10849756552E+04  0.65864270000E+03 0.  1.
    8880022    1    1    2    0    0 -0.16039187344E+03 -0.53305229966E+03  0.10291303400E+04  0.11799878037E+04  0.15294330000E+03 0.  0.
<mgrwt>
<rscale>  0 0.78004224E+03</rscale>
<asrwt>0</asrwt>
<pdfrwt beam="1">  1        1 0.20274561E+00 0.86236913E+03</pdfrwt>
<pdfrwt beam="2">  1       -1 0.14571030E+00 0.86236913E+03</pdfrwt>
<totfact> 0.33894667E+00</totfact>
</mgrwt>
</event>
<event>
 4    5  0.7214169E-008  0.7815889E+03  0.7818608E-02  0.9752118E-01
         -1   -1    0    0    0  501 -0.00000000000E+00  0.00000000000E+00  0.14151910771E+04  0.14151910772E+04  0.50400000000E-02 0.  1.
          1   -1    0    0  501    0  0.00000000000E+00 -0.00000000000E+00 -0.10849268318E+04  0.10849268318E+04  0.50400000000E-02 0. -1.
    8880023    1    1    2    0    0 -0.38177683097E+03 -0.17696758140E+03  0.12516901064E+04  0.14756725254E+04  0.65864270000E+03 0.  1.
    8880022    1    1    2    0    0  0.38177683097E+03  0.17696758140E+03 -0.92142586105E+03  0.10244453836E+04  0.15294330000E+03 0.  0.
<mgrwt>
<rscale>  0 0.67996727E+03</rscale>
<asrwt>0</asrwt>
<pdfrwt beam="1">  1        1 0.16691182E+00 0.78158895E+03</pdfrwt>
<pdfrwt beam="2">  1       -1 0.21772170E+00 0.78158895E+03</pdfrwt>
<totfact> 0.15445617E+00</totfact>
</mgrwt>
</event>
<event>
 4    5  0.7214169E-008  0.9627706E+03  0.7818608E-02  0.9431973E-01
          1   -1    0    0  501    0  0.00000000000E+00  0.00000000000E+00  0.19115461851E+04  0.19115461851E+04  0.50400000000E-02 0. -1.
         -1   -1    0    0    0  501 -0.00000000000E+00 -0.00000000000E+00 -0.50460060752E+03  0.50460060755E+03  0.50400000000E-02 0.  1.
    8880023    1    1    2    0    0 -0.20598930906E+03 -0.67133112310E+03  0.15866035248E+03  0.97575631487E+03  0.65864270000E+03 0.  1.
    8880022    1    1    2    0    0  0.20598930906E+03  0.67133112310E+03  0.12482852251E+04  0.14403904778E+04  0.15294330000E+03 0.  0.
<mgrwt>
<rscale>  0 0.89490479E+03</rscale>
<asrwt>0</asrwt>
<pdfrwt beam="1">  1        1 0.29408402E+00 0.96277063E+03</pdfrwt>
<pdfrwt beam="2">  1       -1 0.77630864E-01 0.96277063E+03</pdfrwt>
<totfact> 0.57752767E+00</totfact>
</mgrwt>
</event>
<event>
 4    5  0.7214169E-008  0.7209436E+03  0.7818608E-02  0.9919406E-01
          1   -1    0    0  501    0  0.00000000000E+00  0.00000000000E+00  0.46061303700E+03  0.46061303703E+03  0.50400000000E-02 0. -1.
         -1   -1    0    0    0  501 -0.00000000000E+00 -0.00000000000E+00 -0.81196566607E+03  0.81196566609E+03  0.50400000000E-02 0.  1.
    8880023    1    1    2    0    0  0.28966817847E+03  0.45187201372E+02 -0.53181494829E+03  0.89587213500E+03  0.65864270000E+03 0.  0.
    8880022    1    1    2    0    0 -0.28966817847E+03 -0.45187201372E+02  0.18046231921E+03  0.37670656811E+03  0.15294330000E+03 0.  0.
<mgrwt>
<rscale>  0 0.59329948E+03</rscale>
<asrwt>0</asrwt>
<pdfrwt beam="1">  1        1 0.70863544E-01 0.72094365E+03</pdfrwt>
<pdfrwt beam="2">  1       -1 0.12491779E+00 0.72094365E+03</pdfrwt>
<totfact> 0.28554693E+01</totfact>
</mgrwt>
</event>
<event>
 4    5  0.7214169E-008  0.1012503E+04  0.7818608E-02  0.9365379E-01
         -1   -1    0    0    0  501 -0.00000000000E+00  0.00000000000E+00  0.11181181065E+04  0.11181181065E+04  0.50400000000E-02 0.  1.
          1   -1    0    0  501    0  0.00000000000E+00 -0.00000000000E+00 -0.17429173464E+04  0.17429173464E+04  0.50400000000E-02 0. -1.
    8880023    1    1    2    0    0 -0.73449195952E+03 -0.22775921484E+03  0.76249903723E+03  0.12675045115E+04  0.65864270000E+03 0.  0.
    8880022    1    1    2    0    0  0.73449195952E+03  0.22775921484E+03 -0.13872982771E+04  0.15935309414E+04  0.15294330000E+03 0.  0.
<mgrwt>
<rscale>  0 0.94980434E+03</rscale>
<asrwt>0</asrwt>
<pdfrwt beam="1">  1        1 0.26814113E+00 0.10125033E+04</pdfrwt>
<pdfrwt beam="2">  1       -1 0.17201817E+00 0.10125033E+04</pdfrwt>
<totfact> 0.10664174E+00</totfact>
</mgrwt>
</event>
<event>
 4    5  0.7214169E-008  0.7136575E+03  0.7818608E-02  0.9944662E-01
          1   -1    0    0  501    0  0.00000000000E+00  0.00000000000E+00  0.13272533346E+04  0.13272533346E+04  0.50400000000E-02 0. -1.
         -1   -1    0    0    0  501 -0.00000000000E+00 -0.00000000000E+00 -0.24299479133E+03  0.24299479138E+03  0.50400000000E-02 0.  1.
    8880023    1    1    2    0    0 -0.86021021960E+01 -0.27463223088E+03  0.40220596391E+03  0.81919271363E+03  0.65864270000E+03 0.  0.
    8880022    1    1    2    0    0  0.86021021960E+01  0.27463223088E+03  0.68205257937E+03  0.75105541236E+03  0.15294330000E+03 0.  0.
<mgrwt>
<rscale>  0 0.58144765E+03</rscale>
<asrwt>0</asrwt>
<pdfrwt beam="1">  1        1 0.20419282E+00 0.71365753E+03</pdfrwt>
<pdfrwt beam="2">  1       -1 0.37383815E-01 0.71365753E+03</pdfrwt>
<totfact> 0.61309405E+01</totfact>
</mgrwt>
</event>
<event>
 4    5  0.7214169E-008  0.7575355E+03  0.7818608E-02  0.9811530E-01
         -1   -1    0    0    0  501 -0.00000000000E+00  0.00000000000E+00  0.14764714119E+04  0.14764714120E+04  0.50400000000E-02 0.  1.
          1   -1    0    0  501    0  0.00000000000E+00 -0.00000000000E+00 -0.13921079335E+04  0.13921079335E+04  0.50400000000E-02 0. -1.
    8880023    1    1    2    0    0  0.10949835300E+03 -0.35785460963E+03  0.13455727079E+04  0.15441586478E+04  0.65864270000E+03 0.  1.
    8880022    1    1    2    0    0 -0.10949835300E+03  0.35785460963E+03 -0.12612092294E+04  0.13244206976E+04  0.15294330000E+03 0.  0.
<mgrwt>
<rscale>  0 0.64747428E+03</rscale>
<asrwt>0</asrwt>
<pdfrwt beam="1">  1        1 0.21417045E+00 0.75753549E+03</pdfrwt>
<pdfrwt beam="2">  1       -1 0.22714945E+00 0.75753549E+03</pdfrwt>
<totfact> 0.80810531E-01</totfact>
</mgrwt>
</event>
<event>
 4    5  0.7214169E-008  0.1070213E+04  0.7818608E-02  0.9294969E-01
         -1   -1    0    0    0  501 -0.00000000000E+00  0.00000000000E+00  0.11283211045E+04  0.11283211045E+04  0.50400000000E-02 0.  1.
          1   -1    0    0  501    0  0.00000000000E+00 -0.00000000000E+00 -0.15707646213E+04  0.15707646213E+04  0.50400000000E-02 0. -1.
    8880023    1    1    2    0    0  0.59754700858E+03 -0.59538422995E+03  0.69401430937E+03  0.12755433652E+04  0.65864270000E+03 0.  1.
    8880022    1    1    2    0    0 -0.59754700858E+03  0.59538422995E+03 -0.11364578261E+04  0.14235423606E+04  0.15294330000E+03 0.  0.
<mgrwt>
<rscale>  0 0.10124737E+04</rscale>
<asrwt>0</asrwt>
<pdfrwt beam="1">  1        1 0.24165610E+00 0.10702126E+04</pdfrwt>
<pdfrwt beam="2">  1       -1 0.17358786E+00 0.10702126E+04</pdfrwt>
<totfact> 0.13492942E+00</totfact>
</mgrwt>
</event>
<event>
 4    5  0.7214169E-008  0.7774896E+03  0.7818608E-02  0.9761767E-01
          1   -1    0    0  501    0  0.00000000000E+00  0.00000000000E+00  0.11052883225E+04  0.11052883225E+04  0.50400000000E-02 0. -1.
         -1   -1    0    0    0  501 -0.00000000000E+00 -0.00000000000E+00 -0.81709331010E+03  0.81709331012E+03  0.50400000000E-02 0.  1.
    8880023    1    1    2    0    0 -0.22452697304E+03 -0.34679595755E+03 -0.56572154012E+03  0.96152528048E+03  0.65864270000E+03 0.  1.
    8880022    1    1    2    0    0  0.22452697304E+03  0.34679595755E+03  0.85391655254E+03  0.96085635217E+03  0.15294330000E+03 0.  0.
<mgrwt>
<rscale>  0 0.67455308E+03</rscale>
<asrwt>0</asrwt>
<pdfrwt beam="1">  1        1 0.17004436E+00 0.77748955E+03</pdfrwt>
<pdfrwt beam="2">  1       -1 0.12570666E+00 0.77748955E+03</pdfrwt>
<totfact> 0.71486125E+00</totfact>
</mgrwt>
</event>
<event>
 4    5  0.7214169E-008  0.1352975E+04  0.7818608E-02  0.9021112E-01
          1   -1    0    0  501    0  0.00000000000E+00  0.00000000000E+00  0.10660058787E+04  0.10660058788E+04  0.50400000000E-02 0. -1.
         -1   -1    0    0    0  501 -0.00000000000E+00 -0.00000000000E+00 -0.15903045378E+04  0.15903045378E+04  0.50400000000E-02 0.  1.
    8880023    1    1    2    0    0 -0.11196393893E+04 -0.37833573400E+03  0.34801032539E+01  0.13529791599E+04  0.65864270000E+03 0.  1.
    8880022    1    1    2    0    0  0.11196393893E+04  0.37833573400E+03 -0.52777876233E+03  0.13033312567E+04  0.15294330000E+03 0.  0.
<mgrwt>
<rscale>  0 0.13107141E+04</rscale>
<asrwt>0</asrwt>
<pdfrwt beam="1">  1        1 0.16400090E+00 0.13529747E+04</pdfrwt>
<pdfrwt beam="2">  1       -1 0.24466224E+00 0.13529747E+04</pdfrwt>
<totfact> 0.98089428E-01</totfact>
</mgrwt>
</event>
<event>
 4    5  0.7214169E-008  0.1031163E+04  0.7818608E-02  0.9341876E-01
          1   -1    0    0  501    0  0.00000000000E+00  0.00000000000E+00  0.93927274448E+03  0.93927274449E+03  0.50400000000E-02 0. -1.
         -1   -1    0    0    0  501 -0.00000000000E+00 -0.00000000000E+00 -0.10540091786E+04  0.10540091786E+04  0.50400000000E-02 0.  1.
    8880023    1    1    2    0    0  0.14983437454E+03  0.77912544797E+03 -0.44149676081E+03  0.11217024559E+04  0.65864270000E+03 0.  0.
    8880022    1    1    2    0    0 -0.14983437454E+03 -0.77912544797E+03  0.32676032673E+03  0.87157946718E+03  0.15294330000E+03 0.  0.
<mgrwt>
<rscale>  0 0.97017374E+03</rscale>
<asrwt>0</asrwt>
<pdfrwt beam="1">  1        1 0.14450350E+00 0.10311629E+04</pdfrwt>
<pdfrwt beam="2">  1       -1 0.16215526E+00 0.10311629E+04</pdfrwt>
<totfact> 0.47549521E+00</totfact>
</mgrwt>
</event>
<event>
 4    5  0.7214169E-008  0.7151161E+03  0.7818608E-02  0.9939472E-01
          1   -1    0    0  501    0  0.00000000000E+00  0.00000000000E+00  0.13536603319E+04  0.13536603319E+04  0.50400000000E-02 0. -1.
         -1   -1    0    0    0  501 -0.00000000000E+00 -0.00000000000E+00 -0.44716825781E+03  0.44716825784E+03  0.50400000000E-02 0.  1.
    8880023    1    1    2    0    0  0.20171137053E+03 -0.19207628026E+03 -0.12103771461E+03  0.72528691499E+03  0.65864270000E+03 0.  0.
    8880022    1    1    2    0    0 -0.20171137053E+03  0.19207628026E+03  0.10275297887E+04  0.10755416748E+04  0.15294330000E+03 0.  0.
<mgrwt>
<rscale>  0 0.58385869E+03</rscale>
<asrwt>0</asrwt>
<pdfrwt beam="1">  1        1 0.20825543E+00 0.71511606E+03</pdfrwt>
<pdfrwt beam="2">  1       -1 0.68795118E-01 0.71511606E+03</pdfrwt>
<totfact> 0.18387773E+01</totfact>
</mgrwt>
</event>
<event>
 4    5  0.7214169E-008  0.8448393E+03  0.7818608E-02  0.9621122E-01
         -1   -1    0    0    0  501 -0.00000000000E+00  0.00000000000E+00  0.56559471655E+03  0.56559471657E+03  0.50400000000E-02 0.  1.
          1   -1    0    0  501    0  0.00000000000E+00 -0.00000000000E+00 -0.12061228624E+04  0.12061228624E+04  0.50400000000E-02 0. -1.
    8880023    1    1    2    0    0  0.52372310715E+03  0.75214816693E+02  0.97926285404E+02  0.85049569384E+03  0.65864270000E+03 0.  0.
    8880022    1    1    2    0    0 -0.52372310715E+03 -0.75214816693E+02 -0.73845443126E+03  0.92122188515E+03  0.15294330000E+03 0.  0.
<mgrwt>
<rscale>  0 0.75913820E+03</rscale>
<asrwt>0</asrwt>
<pdfrwt beam="1">  1        1 0.18555736E+00 0.84483926E+03</pdfrwt>
<pdfrwt beam="2">  1       -1 0.87014572E-01 0.84483926E+03</pdfrwt>
<totfact> 0.14043325E+01</totfact>
</mgrwt>
</event>
<event>
 4    5  0.7214169E-008  0.1594429E+04  0.7818608E-02  0.8845682E-01
          1   -1    0    0  501    0  0.00000000000E+00  0.00000000000E+00  0.23068378851E+04  0.23068378851E+04  0.50400000000E-02 0. -1.
         -1   -1    0    0    0  501 -0.00000000000E+00 -0.00000000000E+00 -0.19400326438E+04  0.19400326439E+04  0.50400000000E-02 0.  1.
    8880023    1    1    2    0    0 -0.11093308340E+04  0.93689888946E+03  0.16562078679E+04  0.22989626218E+04  0.65864270000E+03 0.  0.
    8880022    1    1    2    0    0  0.11093308340E+04 -0.93689888946E+03 -0.12894026266E+04  0.19479079072E+04  0.15294330000E+03 0.  0.
<mgrwt>
<rscale>  0 0.15597209E+04</rscale>
<asrwt>0</asrwt>
<pdfrwt beam="1">  1        1 0.35489813E+00 0.15944293E+04</pdfrwt>
<pdfrwt beam="2">  1       -1 0.29846656E+00 0.15944293E+04</pdfrwt>
<totfact> 0.57944823E-02</totfact>
</mgrwt>
</event>
<event>
 4    5  0.7471114E-008  0.1459656E+04  0.7818608E-02  0.8938662E-01
          1   -1    0    0  501    0  0.00000000000E+00  0.00000000000E+00  0.21444911902E+04  0.21444911902E+04  0.50400000000E-02 0. -1.
         -1   -1    0    0    0  501 -0.00000000000E+00 -0.00000000000E+00 -0.18180804215E+04  0.18180804215E+04  0.50400000000E-02 0.  1.
    8880023    1    1    2    0    0 -0.70546561362E+03  0.10950363897E+04 -0.12430565832E+04  0.19172340238E+04  0.65864270000E+03 0.  0.
    8880022    1    1    2    0    0  0.70546561362E+03 -0.10950363897E+04  0.15694673519E+04  0.20453375879E+04  0.15294330000E+03 0.  0.
<mgrwt>
<rscale>  0 0.14211327E+04</rscale>
<asrwt>0</asrwt>
<pdfrwt beam="1">  1        1 0.32992172E+00 0.14596563E+04</pdfrwt>
<pdfrwt beam="2">  1       -1 0.27970468E+00 0.14596563E+04</pdfrwt>
<totfact> 0.10073752E-01</totfact>
</mgrwt>
</event>
<event>
 4    5  0.7214169E-008  0.6823700E+03  0.7818608E-02  0.1008014E+00
          1   -1    0    0  501    0  0.00000000000E+00  0.00000000000E+00  0.30129938228E+04  0.30129938228E+04  0.50400000000E-02 0. -1.
         -1   -1    0    0    0  501 -0.00000000000E+00 -0.00000000000E+00 -0.63802266504E+03  0.63802266506E+03  0.50400000000E-02 0.  1.
    8880023    1    1    2    0    0 -0.57175295328E+02 -0.16896612018E+03 -0.44928814363E+03  0.81699975914E+03  0.65864270000E+03 0.  1.
    8880022    1    1    2    0    0  0.57175295328E+02  0.16896612018E+03  0.28242593014E+04  0.28340167287E+04  0.15294330000E+03 0.  0.
<mgrwt>
<rscale>  0 0.52271788E+03</rscale>
<asrwt>0</asrwt>
<pdfrwt beam="1">  1        1 0.46353752E+00 0.68236997E+03</pdfrwt>
<pdfrwt beam="2">  1       -1 0.98157332E-01 0.68236997E+03</pdfrwt>
<totfact> 0.63965250E-01</totfact>
</mgrwt>
</event>
<event>
 4    5  0.7214169E-008  0.9719043E+03  0.7818608E-02  0.9419275E-01
         -1   -1    0    0    0  501 -0.00000000000E+00  0.00000000000E+00  0.21053434789E+04  0.21053434790E+04  0.50400000000E-02 0.  1.
          1   -1    0    0  501    0  0.00000000000E+00 -0.00000000000E+00 -0.82297020152E+03  0.82297020153E+03  0.50400000000E-02 0. -1.
    8880023    1    1    2    0    0 -0.37082773525E+03 -0.61096195541E+03  0.17911111265E+04  0.20378118151E+04  0.65864270000E+03 0.  0.
    8880022    1    1    2    0    0  0.37082773525E+03  0.61096195541E+03 -0.50873784904E+03  0.89050186538E+03  0.15294330000E+03 0.  0.
<mgrwt>
<rscale>  0 0.90506237E+03</rscale>
<asrwt>0</asrwt>
<pdfrwt beam="1">  1        1 0.12661080E+00 0.97190428E+03</pdfrwt>
<pdfrwt beam="2">  1       -1 0.32389899E+00 0.97190428E+03</pdfrwt>
<totfact> 0.49795180E-01</totfact>
</mgrwt>
</event>
<event>
 4    5  0.7214169E-008  0.1716210E+04  0.7818608E-02  0.8770359E-01
          1   -1    0    0  501    0  0.00000000000E+00  0.00000000000E+00  0.18679991098E+04  0.18679991098E+04  0.50400000000E-02 0. -1.
         -1   -1    0    0    0  501 -0.00000000000E+00 -0.00000000000E+00 -0.18255129774E+04  0.18255129774E+04  0.50400000000E-02 0.  1.
    8880023    1    1    2    0    0  0.47924027378E+03  0.15105948872E+04 -0.79852243870E+03  0.18928857453E+04  0.65864270000E+03 0.  0.
    8880022    1    1    2    0    0 -0.47924027378E+03 -0.15105948872E+04  0.84100857107E+03  0.18006263419E+04  0.15294330000E+03 0.  0.
<mgrwt>
<rscale>  0 0.16843188E+04</rscale>
<asrwt>0</asrwt>
<pdfrwt beam="1">  1        1 0.28738448E+00 0.17162105E+04</pdfrwt>
<pdfrwt beam="2">  1       -1 0.28084815E+00 0.17162105E+04</pdfrwt>
<totfact> 0.14816874E-01</totfact>
</mgrwt>
</event>
<event>
 4    5  0.7214169E-008  0.1183796E+04  0.7818608E-02  0.9173037E-01
          1   -1    0    0  501    0  0.00000000000E+00  0.00000000000E+00  0.12156725823E+04  0.12156725823E+04  0.50400000000E-02 0. -1.
         -1   -1    0    0    0  501 -0.00000000000E+00 -0.00000000000E+00 -0.13234860614E+04  0.13234860614E+04  0.50400000000E-02 0.  1.
    8880023    1    1    2    0    0 -0.15900985196E+03 -0.97071052137E+03 -0.70546668142E+03  0.13780625872E+04  0.65864270000E+03 0.  0.
    8880022    1    1    2    0    0  0.15900985196E+03  0.97071052137E+03  0.59765320234E+03  0.11610960566E+04  0.15294330000E+03 0.  0.
<mgrwt>
<rscale>  0 0.11336119E+04</rscale>
<asrwt>0</asrwt>
<pdfrwt beam="1">  1        1 0.18702655E+00 0.11837961E+04</pdfrwt>
<pdfrwt beam="2">  1       -1 0.20361324E+00 0.11837961E+04</pdfrwt>
<totfact> 0.14525572E+00</totfact>
</mgrwt>
</event>
<event>
 4    5  0.7214169E-008  0.2101092E+04  0.7818608E-02  0.8572059E-01
         -1   -1    0    0    0  501 -0.00000000000E+00  0.00000000000E+00  0.16145511520E+04  0.16145511520E+04  0.50400000000E-02 0.  1.
          1   -1    0    0  501    0  0.00000000000E+00 -0.00000000000E+00 -0.47491810194E+04  0.47491810194E+04  0.50400000000E-02 0. -1.
    8880023    1    1    2    0    0 -0.99583435323E+03 -0.17288994444E+04  0.54904154912E+03  0.21716436579E+04  0.65864270000E+03 0.  0.
    8880022    1    1    2    0    0  0.99583435323E+03  0.17288994444E+04 -0.36836714165E+04  0.41920885136E+04  0.15294330000E+03 0.  0.
<mgrwt>
<rscale>  0 0.20756205E+04</rscale>
<asrwt>0</asrwt>
<pdfrwt beam="1">  1        1 0.73064322E+00 0.21010925E+04</pdfrwt>
<pdfrwt beam="2">  1       -1 0.24839249E+00 0.21010925E+04</pdfrwt>
<totfact> 0.10945449E-03</totfact>
</mgrwt>
</event>
<event>
 4    5  0.7214169E-008  0.1563920E+04  0.7818608E-02  0.8865770E-01
          1   -1    0    0  501    0  0.00000000000E+00  0.00000000000E+00  0.26911931981E+04  0.26911931981E+04  0.50400000000E-02 0. -1.
         -1   -1    0    0    0  501 -0.00000000000E+00 -0.00000000000E+00 -0.17150590326E+04  0.17150590326E+04  0.50400000000E-02 0.  1.
    8880023    1    1    2    0    0 -0.80504787916E+03 -0.11678761357E+04  0.20800196816E+04  0.26023698504E+04  0.65864270000E+03 0.  0.
    8880022    1    1    2    0    0  0.80504787916E+03  0.11678761357E+04 -0.11038855161E+04  0.18038823803E+04  0.15294330000E+03 0.  0.
<mgrwt>
<rscale>  0 0.15284209E+04</rscale>
<asrwt>0</asrwt>
<pdfrwt beam="1">  1        1 0.41402972E+00 0.15639204E+04</pdfrwt>
<pdfrwt beam="2">  1       -1 0.26385524E+00 0.15639204E+04</pdfrwt>
<totfact> 0.52760631E-02</totfact>
</mgrwt>
</event>
<event>
 4    5  0.7214169E-008  0.8712128E+03  0.7818608E-02  0.9573921E-01
         -1   -1    0    0    0  501 -0.00000000000E+00  0.00000000000E+00  0.30608908694E+03  0.30608908698E+03  0.50400000000E-02 0.  1.
          1   -1    0    0  501    0  0.00000000000E+00 -0.00000000000E+00 -0.23538393747E+04  0.23538393748E+04  0.50400000000E-02 0. -1.
    8880023    1    1    2    0    0  0.54247870760E+03  0.17583646023E+03 -0.50254220257E+03  0.10057636306E+04  0.65864270000E+03 0. -1.
    8880022    1    1    2    0    0 -0.54247870760E+03 -0.17583646023E+03 -0.15452080852E+04  0.16541648312E+04  0.15294330000E+03 0.  0.
<mgrwt>
<rscale>  0 0.79046578E+03</rscale>
<asrwt>0</asrwt>
<pdfrwt beam="1">  1        1 0.36212912E+00 0.87121284E+03</pdfrwt>
<pdfrwt beam="2">  1       -1 0.47090630E-01 0.87121284E+03</pdfrwt>
<totfact> 0.79430267E+00</totfact>
</mgrwt>
</event>
<event>
 4    5  0.7214169E-008  0.1009162E+04  0.7818608E-02  0.9369668E-01
          1   -1    0    0  501    0  0.00000000000E+00  0.00000000000E+00  0.22603150938E+04  0.22603150938E+04  0.50400000000E-02 0. -1.
         -1   -1    0    0    0  501 -0.00000000000E+00 -0.00000000000E+00 -0.54652438733E+03  0.54652438735E+03  0.50400000000E-02 0.  1.
    8880023    1    1    2    0    0  0.44621405742E+03  0.62087839964E+03  0.99446717712E+02  0.10140497168E+04  0.65864270000E+03 0.  0.
    8880022    1    1    2    0    0 -0.44621405742E+03 -0.62087839964E+03  0.16143439887E+04  0.17927897643E+04  0.15294330000E+03 0.  0.
<mgrwt>
<rscale>  0 0.94614452E+03</rscale>
<asrwt>0</asrwt>
<pdfrwt beam="1">  1        1 0.34774078E+00 0.10091616E+04</pdfrwt>
<pdfrwt beam="2">  1       -1 0.84080677E-01 0.10091616E+04</pdfrwt>
<totfact> 0.28153584E+00</totfact>
</mgrwt>
</event>
<event>
 4    5  0.7250839E-008  0.6712915E+03  0.7818608E-02  0.1014753E+00
         -1   -1    0    0    0  501 -0.00000000000E+00  0.00000000000E+00  0.11160983728E+04  0.11160983728E+04  0.50400000000E-02 0.  1.
          1   -1    0    0  501    0  0.00000000000E+00 -0.00000000000E+00 -0.12894332537E+04  0.12894332537E+04  0.50400000000E-02 0. -1.
    8880023    1    1    2    0    0 -0.12730629396E+03 -0.24802452585E+02  0.10059233573E+04  0.12093444758E+04  0.65864270000E+03 0.  1.
    8880022    1    1    2    0    0  0.12730629396E+03  0.24802452585E+02 -0.11792582382E+04  0.11961871508E+04  0.15294330000E+03 0.  0.
<mgrwt>
<rscale>  0 0.49628382E+03</rscale>
<asrwt>0</asrwt>
<pdfrwt beam="1">  1        1 0.19837435E+00 0.67129149E+03</pdfrwt>
<pdfrwt beam="2">  1       -1 0.17170744E+00 0.67129149E+03</pdfrwt>
<totfact> 0.23330594E+00</totfact>
</mgrwt>
</event>
<event>
 4    5  0.7214169E-008  0.6994126E+03  0.7818608E-02  0.9999647E-01
         -1   -1    0    0    0  501 -0.00000000000E+00  0.00000000000E+00  0.18621544183E+04  0.18621544183E+04  0.50400000000E-02 0.  1.
          1   -1    0    0  501    0  0.00000000000E+00 -0.00000000000E+00 -0.19565350377E+03  0.19565350383E+03  0.50400000000E-02 0. -1.
    8880023    1    1    2    0    0  0.11597982840E+02 -0.23501759724E+03  0.16313683969E+04  0.17749762920E+04  0.65864270000E+03 0.  0.
    8880022    1    1    2    0    0 -0.11597982840E+02  0.23501759724E+03  0.35132517588E+02  0.28283163017E+03  0.15294330000E+03 0.  0.
<mgrwt>
<rscale>  0 0.55665731E+03</rscale>
<asrwt>0</asrwt>
<pdfrwt beam="1">  1        1 0.30100539E-01 0.69941260E+03</pdfrwt>
<pdfrwt beam="2">  1       -1 0.28648529E+00 0.69941260E+03</pdfrwt>
<totfact> 0.64879052E+00</totfact>
</mgrwt>
</event>
<event>
 4    5  0.7214169E-008  0.1431065E+04  0.7818608E-02  0.8959912E-01
         -1   -1    0    0    0  501 -0.00000000000E+00  0.00000000000E+00  0.12329851833E+04  0.12329851833E+04  0.50400000000E-02 0.  1.
          1   -1    0    0  501    0  0.00000000000E+00 -0.00000000000E+00 -0.20436010499E+04  0.20436010499E+04  0.50400000000E-02 0. -1.
    8880023    1    1    2    0    0 -0.89266620924E+03  0.90403820934E+03  0.42999636896E+03  0.14942707682E+04  0.65864270000E+03 0.  0.
    8880022    1    1    2    0    0  0.89266620924E+03 -0.90403820934E+03 -0.12406122356E+04  0.17823154651E+04  0.15294330000E+03 0.  0.
<mgrwt>
<rscale>  0 0.13916123E+04</rscale>
<asrwt>0</asrwt>
<pdfrwt beam="1">  1        1 0.31440016E+00 0.14310654E+04</pdfrwt>
<pdfrwt beam="2">  1       -1 0.18969003E+00 0.14310654E+04</pdfrwt>
<totfact> 0.47136889E-01</totfact>
</mgrwt>
</event>
<event>
 4    5  0.7214169E-008  0.6689580E+03  0.7818608E-02  0.1016421E+00
          1   -1    0    0  501    0  0.00000000000E+00  0.00000000000E+00  0.80033697262E+03  0.80033697263E+03  0.50400000000E-02 0. -1.
         -1   -1    0    0    0  501 -0.00000000000E+00 -0.00000000000E+00 -0.22152566753E+04  0.22152566753E+04  0.50400000000E-02 0.  1.
    8880023    1    1    2    0    0  0.70945575178E+02 -0.93065938544E+02 -0.21521010389E+04  0.22536733640E+04  0.65864270000E+03 0.  1.
    8880022    1    1    2    0    0 -0.70945575178E+02  0.93065938544E+02  0.73718133625E+03  0.76192028394E+03  0.15294330000E+03 0.  0.
<mgrwt>
<rscale>  0 0.49000516E+03</rscale>
<asrwt>0</asrwt>
<pdfrwt beam="1">  1        1 0.12312877E+00 0.66895796E+03</pdfrwt>
<pdfrwt beam="2">  1       -1 0.34080872E+00 0.66895796E+03</pdfrwt>
<totfact> 0.42965800E-01</totfact>
</mgrwt>
</event>
<event>
 4    5  0.7214169E-008  0.6843880E+03  0.7818608E-02  0.1006943E+00
         -1   -1    0    0    0  501 -0.00000000000E+00  0.00000000000E+00  0.28642797524E+04  0.28642797524E+04  0.50400000000E-02 0.  1.
          1   -1    0    0  501    0  0.00000000000E+00 -0.00000000000E+00 -0.10343351262E+04  0.10343351262E+04  0.50400000000E-02 0. -1.
    8880023    1    1    2    0    0  0.27524683890E+02 -0.18389972759E+03  0.28085980311E+04  0.28907801412E+04  0.65864270000E+03 0.  1.
    8880022    1    1    2    0    0 -0.27524683890E+02  0.18389972759E+03 -0.97865340487E+03  0.10078347374E+04  0.15294330000E+03 0.  0.
<mgrwt>
<rscale>  0 0.52707895E+03</rscale>
<asrwt>0</asrwt>
<pdfrwt beam="1">  1        1 0.15912848E+00 0.68438799E+03</pdfrwt>
<pdfrwt beam="2">  1       -1 0.44065842E+00 0.68438799E+03</pdfrwt>
<totfact> 0.59098553E-02</totfact>
</mgrwt>
</event>
<event>
 4    5  0.7214169E-008  0.7659407E+03  0.7818608E-02  0.9789964E-01
         -1   -1    0    0    0  501 -0.00000000000E+00  0.00000000000E+00  0.10135404848E+04  0.10135404848E+04  0.50400000000E-02 0.  1.
          1   -1    0    0  501    0  0.00000000000E+00 -0.00000000000E+00 -0.41177244596E+03  0.41177244599E+03  0.50400000000E-02 0. -1.
    8880023    1    1    2    0    0  0.12020587916E+03 -0.37202879335E+03  0.64757408915E+03  0.10030041294E+04  0.65864270000E+03 0.  1.
    8880022    1    1    2    0    0 -0.12020587916E+03  0.37202879335E+03 -0.45806050297E+02  0.42230880138E+03  0.15294330000E+03 0.  0.
<mgrwt>
<rscale>  0 0.65903945E+03</rscale>
<asrwt>0</asrwt>
<pdfrwt beam="1">  1        1 0.63349607E-01 0.76594065E+03</pdfrwt>
<pdfrwt beam="2">  1       -1 0.15592930E+00 0.76594065E+03</pdfrwt>
<totfact> 0.18563315E+01</totfact>
</mgrwt>
</event>
<event>
 4    5  0.7214169E-008  0.1054502E+04  0.7818608E-02  0.9313489E-01
          1   -1    0    0  501    0  0.00000000000E+00  0.00000000000E+00  0.18560251975E+04  0.18560251975E+04  0.50400000000E-02 0. -1.
         -1   -1    0    0    0  501 -0.00000000000E+00 -0.00000000000E+00 -0.97241057301E+03  0.97241057303E+03  0.50400000000E-02 0.  1.
    8880023    1    1    2    0    0  0.69400204479E+03  0.44331110445E+03 -0.53389734256E+03  0.11819560703E+04  0.65864270000E+03 0.  0.
    8880022    1    1    2    0    0 -0.69400204479E+03 -0.44331110445E+03  0.14175119670E+04  0.16464797002E+04  0.15294330000E+03 0.  0.
<mgrwt>
<rscale>  0 0.99550441E+03</rscale>
<asrwt>0</asrwt>
<pdfrwt beam="1">  1        1 0.28554233E+00 0.10545017E+04</pdfrwt>
<pdfrwt beam="2">  1       -1 0.14960163E+00 0.10545017E+04</pdfrwt>
<totfact> 0.13130384E+00</totfact>
</mgrwt>
</event>
<event>
 4    5  0.7214169E-008  0.1297381E+04  0.7818608E-02  0.9067825E-01
          1   -1    0    0  501    0  0.00000000000E+00  0.00000000000E+00  0.38005195963E+04  0.38005195963E+04  0.50400000000E-02 0. -1.
         -1   -1    0    0    0  501 -0.00000000000E+00 -0.00000000000E+00 -0.59987478915E+03  0.59987478917E+03  0.50400000000E-02 0.  1.
    8880023    1    1    2    0    0 -0.15366190730E+03  0.11071469404E+04  0.36375730976E+03  0.13474108193E+04  0.65864270000E+03 0. -1.
    8880022    1    1    2    0    0  0.15366190730E+03 -0.11071469404E+04  0.28368874974E+04  0.30529835662E+04  0.15294330000E+03 0.  0.
<mgrwt>
<rscale>  0 0.12528372E+04</rscale>
<asrwt>0</asrwt>
<pdfrwt beam="1">  1        1 0.58469532E+00 0.12973806E+04</pdfrwt>
<pdfrwt beam="2">  1       -1 0.92288429E-01 0.12973806E+04</pdfrwt>
<totfact> 0.16196066E-01</totfact>
</mgrwt>
</event>
<event>
 4    5  0.7214169E-008  0.1098719E+04  0.7818608E-02  0.9262484E-01
          1   -1    0    0  501    0  0.00000000000E+00  0.00000000000E+00  0.22245933027E+04  0.22245933027E+04  0.50400000000E-02 0. -1.
         -1   -1    0    0    0  501 -0.00000000000E+00 -0.00000000000E+00 -0.14210960999E+04  0.14210961000E+04  0.50400000000E-02 0.  1.
    8880023    1    1    2    0    0  0.53470270044E+02  0.87778927064E+03 -0.10929037828E+04  0.15497167348E+04  0.65864270000E+03 0.  1.
    8880022    1    1    2    0    0 -0.53470270044E+02 -0.87778927064E+03  0.18964009855E+04  0.20959726678E+04  0.15294330000E+03 0.  0.
<mgrwt>
<rscale>  0 0.10431127E+04</rscale>
<asrwt>0</asrwt>
<pdfrwt beam="1">  1        1 0.34224512E+00 0.10987189E+04</pdfrwt>
<pdfrwt beam="2">  1       -1 0.21863017E+00 0.10987189E+04</pdfrwt>
<totfact> 0.23547706E-01</totfact>
</mgrwt>
</event>
<event>
 4    5  0.7214169E-008  0.7450833E+03  0.7818608E-02  0.9845380E-01
          1   -1    0    0  501    0  0.00000000000E+00  0.00000000000E+00  0.68479752294E+03  0.68479752296E+03  0.50400000000E-02 0. -1.
         -1   -1    0    0    0  501 -0.00000000000E+00 -0.00000000000E+00 -0.61790361302E+03  0.61790361304E+03  0.50400000000E-02 0.  1.
    8880023    1    1    2    0    0 -0.22642816912E+03 -0.26470593354E+03 -0.27203210283E+03  0.79319015265E+03  0.65864270000E+03 0.  0.
    8880022    1    1    2    0    0  0.22642816912E+03  0.26470593354E+03  0.33892601276E+03  0.50951098336E+03  0.15294330000E+03 0.  0.
<mgrwt>
<rscale>  0 0.62983048E+03</rscale>
<asrwt>0</asrwt>
<pdfrwt beam="1">  1        1 0.10535346E+00 0.74508332E+03</pdfrwt>
<pdfrwt beam="2">  1       -1 0.95062094E-01 0.74508332E+03</pdfrwt>
<totfact> 0.30874526E+01</totfact>
</mgrwt>
</event>
<event>
 4    5  0.7214169E-008  0.6671011E+03  0.7818608E-02  0.1017832E+00
          1   -1    0    0  501    0  0.00000000000E+00  0.00000000000E+00  0.80929487140E+03  0.80929487142E+03  0.50400000000E-02 0. -1.
         -1   -1    0    0    0  501 -0.00000000000E+00 -0.00000000000E+00 -0.31567694548E+03  0.31567694552E+03  0.50400000000E-02 0.  1.
    8880023    1    1    2    0    0  0.89907383789E+01 -0.10551231547E+03  0.80548008121E+02  0.67194632968E+03  0.65864270000E+03 0.  0.
    8880022    1    1    2    0    0 -0.89907383789E+01  0.10551231547E+03  0.41306991781E+03  0.45302548726E+03  0.15294330000E+03 0. -1.
<mgrwt>
<rscale>  0 0.48477100E+03</rscale>
<asrwt>0</asrwt>
<pdfrwt beam="1">  1        1 0.12450690E+00 0.66710111E+03</pdfrwt>
<pdfrwt beam="2">  1       -1 0.48565684E-01 0.66710111E+03</pdfrwt>
<totfact> 0.94450689E+01</totfact>
</mgrwt>
</event>
<event>
 4    5  0.7214169E-008  0.6694707E+03  0.7818608E-02  0.1016045E+00
          1   -1    0    0  501    0  0.00000000000E+00  0.00000000000E+00  0.36234801947E+04  0.36234801947E+04  0.50400000000E-02 0. -1.
         -1   -1    0    0    0  501 -0.00000000000E+00 -0.00000000000E+00 -0.29657181013E+03  0.29657181017E+03  0.50400000000E-02 0.  1.
    8880023    1    1    2    0    0 -0.11799296290E+02  0.11933815601E+03  0.87898380637E+02  0.67521637306E+03  0.65864270000E+03 0.  1.
    8880022    1    1    2    0    0  0.11799296290E+02 -0.11933815601E+03  0.32390100039E+04  0.32448356318E+04  0.15294330000E+03 0.  0.
<mgrwt>
<rscale>  0 0.49141183E+03</rscale>
<asrwt>0</asrwt>
<pdfrwt beam="1">  1        1 0.55745849E+00 0.66947071E+03</pdfrwt>
<pdfrwt beam="2">  1       -1 0.45626433E-01 0.66947071E+03</pdfrwt>
<totfact> 0.10606074E+00</totfact>
</mgrwt>
</event>
<event>
 4    5  0.7214169E-008  0.8339503E+03  0.7818608E-02  0.9641695E-01
         -1   -1    0    0    0  501 -0.00000000000E+00  0.00000000000E+00  0.68662340611E+03  0.68662340613E+03  0.50400000000E-02 0.  1.
          1   -1    0    0  501    0  0.00000000000E+00 -0.00000000000E+00 -0.10198801102E+04  0.10198801102E+04  0.50400000000E-02 0. -1.
    8880023    1    1    2    0    0  0.36018725037E+03 -0.36321903038E+03  0.29265757518E+03  0.88381082927E+03  0.65864270000E+03 0.  0.
    8880022    1    1    2    0    0 -0.36018725037E+03  0.36321903038E+03 -0.62591427931E+03  0.82269268711E+03  0.15294330000E+03 0.  0.
<mgrwt>
<rscale>  0 0.74596961E+03</rscale>
<asrwt>0</asrwt>
<pdfrwt beam="1">  1        1 0.15690463E+00 0.83395031E+03</pdfrwt>
<pdfrwt beam="2">  1       -1 0.10563437E+00 0.83395031E+03</pdfrwt>
<totfact> 0.12511600E+01</totfact>
</mgrwt>
</event>
<event>
 4    5  0.7214169E-008  0.8891074E+03  0.7818608E-02  0.9543749E-01
          1   -1    0    0  501    0  0.00000000000E+00  0.00000000000E+00  0.77092658516E+03  0.77092658517E+03  0.50400000000E-02 0. -1.
         -1   -1    0    0    0  501 -0.00000000000E+00 -0.00000000000E+00 -0.13288665336E+04  0.13288665336E+04  0.50400000000E-02 0.  1.
    8880023    1    1    2    0    0  0.49538069440E+03 -0.33361615600E+03 -0.10023049697E+04  0.13398235818E+04  0.65864270000E+03 0.  1.
    8880022    1    1    2    0    0 -0.49538069440E+03  0.33361615600E+03  0.44436502125E+03  0.75996953693E+03  0.15294330000E+03 0.  0.
<mgrwt>
<rscale>  0 0.81133828E+03</rscale>
<asrwt>0</asrwt>
<pdfrwt beam="1">  1        1 0.11860409E+00 0.88910741E+03</pdfrwt>
<pdfrwt beam="2">  1       -1 0.20444100E+00 0.88910741E+03</pdfrwt>
<totfact> 0.33507710E+00</totfact>
</mgrwt>
</event>
<event>
 4    5  0.7214169E-008  0.6931001E+03  0.7818608E-02  0.1002713E+00
          1   -1    0    0  501    0  0.00000000000E+00  0.00000000000E+00  0.41819048781E+03  0.41819048784E+03  0.50400000000E-02 0. -1.
         -1   -1    0    0    0  501 -0.00000000000E+00 -0.00000000000E+00 -0.11959789429E+04  0.11959789429E+04  0.50400000000E-02 0.  1.
    8880023    1    1    2    0    0  0.77333187930E+02 -0.20148727750E+03 -0.10347238189E+04  0.12454080185E+04  0.65864270000E+03 0.  1.
    8880022    1    1    2    0    0 -0.77333187930E+02  0.20148727750E+03  0.25693536381E+03  0.36876141222E+03  0.15294330000E+03 0.  0.
<mgrwt>
<rscale>  0 0.54476643E+03</rscale>
<asrwt>0</asrwt>
<pdfrwt beam="1">  1        1 0.64336999E-01 0.69310010E+03</pdfrwt>
<pdfrwt beam="2">  1       -1 0.18399676E+00 0.69310010E+03</pdfrwt>
<totfact> 0.11425544E+01</totfact>
</mgrwt>
</event>
<event>
 4    5  0.7214169E-008  0.1287424E+04  0.7818608E-02  0.9076497E-01
          1   -1    0    0  501    0  0.00000000000E+00  0.00000000000E+00  0.22266555612E+04  0.22266555612E+04  0.50400000000E-02 0. -1.
         -1   -1    0    0    0  501 -0.00000000000E+00 -0.00000000000E+00 -0.91990465595E+03  0.91990465596E+03  0.50400000000E-02 0.  1.
    8880023    1    1    2    0    0 -0.37525306023E+03  0.10405938764E+04 -0.16624412981E+03  0.12981131660E+04  0.65864270000E+03 0.  1.
    8880022    1    1    2    0    0  0.37525306023E+03 -0.10405938764E+04  0.14729950350E+04  0.18484470512E+04  0.15294330000E+03 0.  0.
<mgrwt>
<rscale>  0 0.12424427E+04</rscale>
<asrwt>0</asrwt>
<pdfrwt beam="1">  1        1 0.34256239E+00 0.12874240E+04</pdfrwt>
<pdfrwt beam="2">  1       -1 0.14152379E+00 0.12874240E+04</pdfrwt>
<totfact> 0.82888238E-01</totfact>
</mgrwt>
</event>
<event>
 4    5  0.1124442E-007  0.1205090E+04  0.7818608E-02  0.9152190E-01
          1   -1    0    0  501    0  0.00000000000E+00  0.00000000000E+00  0.25163224918E+04  0.25163224918E+04  0.50400000000E-02 0. -1.
         -1   -1    0    0    0  501 -0.00000000000E+00 -0.00000000000E+00 -0.24121982773E+04  0.24121982773E+04  0.50400000000E-02 0.  1.
    8880023    1    1    2    0    0  0.44399563491E+03 -0.90625629451E+03 -0.21440385073E+04  0.24595007466E+04  0.65864270000E+03 0.  0.
    8880022    1    1    2    0    0 -0.44399563491E+03  0.90625629451E+03  0.22481627218E+04  0.24690200226E+04  0.15294330000E+03 0.  0.
<mgrwt>
<rscale>  0 0.11560830E+04</rscale>
<asrwt>0</asrwt>
<pdfrwt beam="1">  1        1 0.38712654E+00 0.12050904E+04</pdfrwt>
<pdfrwt beam="2">  1       -1 0.37110743E+00 0.12050904E+04</pdfrwt>
<totfact> 0.14741106E-02</totfact>
</mgrwt>
</event>
<event>
 4    5  0.7620218E-008  0.1078995E+04  0.7818608E-02  0.9284811E-01
         -1   -1    0    0    0  501 -0.00000000000E+00  0.00000000000E+00  0.14674021342E+04  0.14674021342E+04  0.50400000000E-02 0.  1.
          1   -1    0    0  501    0  0.00000000000E+00 -0.00000000000E+00 -0.26372647449E+04  0.26372647449E+04  0.50400000000E-02 0. -1.
    8880023    1    1    2    0    0 -0.85237363897E+03 -0.62288721442E+02  0.11803532056E+04  0.15992074917E+04  0.65864270000E+03 0.  1.
    8880022    1    1    2    0    0  0.85237363897E+03  0.62288721442E+02 -0.23502158164E+04  0.25054593874E+04  0.15294330000E+03 0.  0.
<mgrwt>
<rscale>  0 0.10219334E+04</rscale>
<asrwt>0</asrwt>
<pdfrwt beam="1">  1        1 0.40573304E+00 0.10789953E+04</pdfrwt>
<pdfrwt beam="2">  1       -1 0.22575417E+00 0.10789953E+04</pdfrwt>
<totfact> 0.11039261E-01</totfact>
</mgrwt>
</event>
<event>
 4    5  0.7214169E-008  0.7672634E+03  0.7818608E-02  0.9786654E-01
         -1   -1    0    0    0  501 -0.00000000000E+00  0.00000000000E+00  0.17377497961E+04  0.17377497961E+04  0.50400000000E-02 0.  1.
          1   -1    0    0  501    0  0.00000000000E+00 -0.00000000000E+00 -0.33935827815E+03  0.33935827819E+03  0.50400000000E-02 0. -1.
    8880023    1    1    2    0    0 -0.20803533243E+03 -0.33407227331E+03  0.14610477091E+04  0.16502586457E+04  0.65864270000E+03 0. -1.
    8880022    1    1    2    0    0  0.20803533243E+03  0.33407227331E+03 -0.62656191157E+02  0.42684942853E+03  0.15294330000E+03 0.  0.
<mgrwt>
<rscale>  0 0.66083734E+03</rscale>
<asrwt>0</asrwt>
<pdfrwt beam="1">  1        1 0.52208966E-01 0.76726344E+03</pdfrwt>
<pdfrwt beam="2">  1       -1 0.26734612E+00 0.76726344E+03</pdfrwt>
<totfact> 0.41703959E+00</totfact>
</mgrwt>
</event>
<event>
 4    5  0.7214169E-008  0.1127494E+04  0.7818608E-02  0.9231045E-01
          1   -1    0    0  501    0  0.00000000000E+00  0.00000000000E+00  0.15250089899E+04  0.15250089899E+04  0.50400000000E-02 0. -1.
         -1   -1    0    0    0  501 -0.00000000000E+00 -0.00000000000E+00 -0.86474968154E+03  0.86474968155E+03  0.50400000000E-02 0.  1.
    8880023    1    1    2    0    0 -0.49751138383E+03  0.76805991559E+03 -0.17545177726E+03  0.11410640400E+04  0.65864270000E+03 0.  0.
    8880022    1    1    2    0    0  0.49751138383E+03 -0.76805991559E+03  0.83571108563E+03  0.12486946315E+04  0.15294330000E+03 0.  0.
<mgrwt>
<rscale>  0 0.10738663E+04</rscale>
<asrwt>0</asrwt>
<pdfrwt beam="1">  1        1 0.23461676E+00 0.11274945E+04</pdfrwt>
<pdfrwt beam="2">  1       -1 0.13303841E+00 0.11274945E+04</pdfrwt>
<totfact> 0.29759204E+00</totfact>
</mgrwt>
</event>
<event>
 4    5  0.7214169E-008  0.7591394E+03  0.7818608E-02  0.9807341E-01
          1   -1    0    0  501    0  0.00000000000E+00  0.00000000000E+00  0.27445676029E+04  0.27445676029E+04  0.50400000000E-02 0. -1.
         -1   -1    0    0    0  501 -0.00000000000E+00 -0.00000000000E+00 -0.59449889342E+03  0.59449889344E+03  0.50400000000E-02 0.  1.
    8880023    1    1    2    0    0 -0.68951579615E+02 -0.37111727409E+03 -0.32856667495E+03  0.82719321661E+03  0.65864270000E+03 0.  1.
    8880022    1    1    2    0    0  0.68951579615E+02  0.37111727409E+03  0.24786353845E+04  0.25118732798E+04  0.15294330000E+03 0.  0.
<mgrwt>
<rscale>  0 0.64970083E+03</rscale>
<asrwt>0</asrwt>
<pdfrwt beam="1">  1        1 0.42224117E+00 0.75913935E+03</pdfrwt>
<pdfrwt beam="2">  1       -1 0.91461369E-01 0.75913935E+03</pdfrwt>
<totfact> 0.11382516E+00</totfact>
</mgrwt>
</event>
<event>
 4    5  0.7214169E-008  0.9014175E+03  0.7818608E-02  0.9523760E-01
         -1   -1    0    0    0  501 -0.00000000000E+00  0.00000000000E+00  0.15170410006E+04  0.15170410006E+04  0.50400000000E-02 0.  1.
          1   -1    0    0  501    0  0.00000000000E+00 -0.00000000000E+00 -0.11516887794E+04  0.11516887794E+04  0.50400000000E-02 0. -1.
    8880023    1    1    2    0    0  0.26231504191E+03  0.55671729350E+03  0.12740177161E+04  0.15606648177E+04  0.65864270000E+03 0.  0.
    8880022    1    1    2    0    0 -0.26231504191E+03 -0.55671729350E+03 -0.90866549492E+03  0.11080649623E+04  0.15294330000E+03 0.  0.
<mgrwt>
<rscale>  0 0.82554542E+03</rscale>
<asrwt>0</asrwt>
<pdfrwt beam="1">  1        1 0.17718289E+00 0.90141751E+03</pdfrwt>
<pdfrwt beam="2">  1       -1 0.23339092E+00 0.90141751E+03</pdfrwt>
<totfact> 0.10632854E+00</totfact>
</mgrwt>
</event>
<event>
 4    5  0.7214169E-008  0.1366337E+04  0.7818608E-02  0.9010291E-01
          1   -1    0    0  501    0  0.00000000000E+00  0.00000000000E+00  0.15733506791E+04  0.15733506791E+04  0.50400000000E-02 0. -1.
         -1   -1    0    0    0  501 -0.00000000000E+00 -0.00000000000E+00 -0.12248045601E+04  0.12248045601E+04  0.50400000000E-02 0.  1.
    8880023    1    1    2    0    0  0.93121424826E+03 -0.75226710851E+03 -0.34095917687E+03  0.14082361823E+04  0.65864270000E+03 0.  0.
    8880022    1    1    2    0    0 -0.93121424826E+03  0.75226710851E+03  0.68950529583E+03  0.13899190569E+04  0.15294330000E+03 0.  0.
<mgrwt>
<rscale>  0 0.13245871E+04</rscale>
<asrwt>0</asrwt>
<pdfrwt beam="1">  1        1 0.24205395E+00 0.13663367E+04</pdfrwt>
<pdfrwt beam="2">  1       -1 0.18843147E+00 0.13663367E+04</pdfrwt>
<totfact> 0.10141635E+00</totfact>
</mgrwt>
</event>
<event>
 4    5  0.7214169E-008  0.1155460E+04  0.7818608E-02  0.9201683E-01
         -1   -1    0    0    0  501 -0.00000000000E+00  0.00000000000E+00  0.10041129460E+04  0.10041129460E+04  0.50400000000E-02 0.  1.
          1   -1    0    0  501    0  0.00000000000E+00 -0.00000000000E+00 -0.31324761143E+04  0.31324761143E+04  0.50400000000E-02 0. -1.
    8880023    1    1    2    0    0 -0.11386897997E+03 -0.94250290560E+03  0.55812049347E+03  0.12831938915E+04  0.65864270000E+03 0.  0.
    8880022    1    1    2    0    0  0.11386897997E+03  0.94250290560E+03 -0.26864836618E+04  0.28533951689E+04  0.15294330000E+03 0.  0.
<mgrwt>
<rscale>  0 0.11036072E+04</rscale>
<asrwt>0</asrwt>
<pdfrwt beam="1">  1        1 0.48191940E+00 0.11554601E+04</pdfrwt>
<pdfrwt beam="2">  1       -1 0.15447892E+00 0.11554601E+04</pdfrwt>
<totfact> 0.15406703E-01</totfact>
</mgrwt>
</event>
<event>
 4    5  0.7214169E-008  0.1497896E+04  0.7818608E-02  0.8911123E-01
         -1   -1    0    0    0  501 -0.00000000000E+00  0.00000000000E+00  0.17258173548E+04  0.17258173548E+04  0.50400000000E-02 0.  1.
          1   -1    0    0  501    0  0.00000000000E+00 -0.00000000000E+00 -0.11898738963E+04  0.11898738963E+04  0.50400000000E-02 0. -1.
    8880023    1    1    2    0    0 -0.54158928190E+03  0.12314877338E+04  0.42577170524E+03  0.15572323975E+04  0.65864270000E+03 0.  0.
    8880022    1    1    2    0    0  0.54158928190E+03 -0.12314877338E+04  0.11017175331E+03  0.13584588536E+04  0.15294330000E+03 0.  0.
<mgrwt>
<rscale>  0 0.14605436E+04</rscale>
<asrwt>0</asrwt>
<pdfrwt beam="1">  1        1 0.18305752E+00 0.14978956E+04</pdfrwt>
<pdfrwt beam="2">  1       -1 0.26551036E+00 0.14978956E+04</pdfrwt>
<totfact> 0.56994681E-01</totfact>
</mgrwt>
</event>
<event>
 4    5  0.7214169E-008  0.7858831E+03  0.7818608E-02  0.9742195E-01
          1   -1    0    0  501    0  0.00000000000E+00  0.00000000000E+00  0.14807611931E+04  0.14807611931E+04  0.50400000000E-02 0. -1.
         -1   -1    0    0    0  501 -0.00000000000E+00 -0.00000000000E+00 -0.77534548454E+03  0.77534548456E+03  0.50400000000E-02 0.  1.
    8880023    1    1    2    0    0 -0.15917274835E+03 -0.39807806856E+03 -0.52438452018E+03  0.94477057731E+03  0.65864270000E+03 0.  1.
    8880022    1    1    2    0    0  0.15917274835E+03  0.39807806856E+03  0.12298002288E+04  0.13113361004E+04  0.15294330000E+03 0.  0.
<mgrwt>
<rscale>  0 0.68559172E+03</rscale>
<asrwt>0</asrwt>
<pdfrwt beam="1">  1        1 0.22780941E+00 0.78588315E+03</pdfrwt>
<pdfrwt beam="2">  1       -1 0.11928392E+00 0.78588315E+03</pdfrwt>
<totfact> 0.43913921E+00</totfact>
</mgrwt>
</event>
<event>
 4    5  0.7214169E-008  0.1102319E+04  0.7818608E-02  0.9258478E-01
         -1   -1    0    0    0  501 -0.00000000000E+00  0.00000000000E+00  0.85898603489E+03  0.85898603490E+03  0.50400000000E-02 0.  1.
          1   -1    0    0  501    0  0.00000000000E+00 -0.00000000000E+00 -0.19892631909E+04  0.19892631910E+04  0.50400000000E-02 0. -1.
    8880023    1    1    2    0    0 -0.43593507163E+03  0.76893307459E+03  0.31568654004E+03  0.11466323115E+04  0.65864270000E+03 0.  1.
    8880022    1    1    2    0    0  0.43593507163E+03 -0.76893307459E+03 -0.14459636961E+04  0.17016169144E+04  0.15294330000E+03 0.  0.
<mgrwt>
<rscale>  0 0.10469696E+04</rscale>
<asrwt>0</asrwt>
<pdfrwt beam="1">  1        1 0.30604049E+00 0.11023192E+04</pdfrwt>
<pdfrwt beam="2">  1       -1 0.13215170E+00 0.11023192E+04</pdfrwt>
<totfact> 0.14685870E+00</totfact>
</mgrwt>
</event>
<event>
 4    5  0.7214169E-008  0.1799446E+04  0.7818608E-02  0.8722843E-01
         -1   -1    0    0    0  501 -0.00000000000E+00  0.00000000000E+00  0.16669655582E+04  0.16669655582E+04  0.50400000000E-02 0.  1.
          1   -1    0    0  501    0  0.00000000000E+00 -0.00000000000E+00 -0.22804133808E+04  0.22804133808E+04  0.50400000000E-02 0. -1.
    8880023    1    1    2    0    0 -0.15259820567E+04 -0.68961800101E+03  0.57406113533E+03  0.18887960763E+04  0.65864270000E+03 0.  0.
    8880022    1    1    2    0    0  0.15259820567E+04  0.68961800101E+03 -0.11875089579E+04  0.20585828627E+04  0.15294330000E+03 0.  0.
<mgrwt>
<rscale>  0 0.17692166E+04</rscale>
<asrwt>0</asrwt>
<pdfrwt beam="1">  1        1 0.35083283E+00 0.17994456E+04</pdfrwt>
<pdfrwt beam="2">  1       -1 0.25645624E+00 0.17994456E+04</pdfrwt>
<totfact> 0.11061591E-01</totfact>
</mgrwt>
</event>
<event>
 4    5  0.7214169E-008  0.6887732E+03  0.7818608E-02  0.1004741E+00
          1   -1    0    0  501    0  0.00000000000E+00  0.00000000000E+00  0.14714140094E+04  0.14714140095E+04  0.50400000000E-02 0. -1.
         -1   -1    0    0    0  501 -0.00000000000E+00 -0.00000000000E+00 -0.78770488184E+03  0.78770488186E+03  0.50400000000E-02 0.  1.
    8880023    1    1    2    0    0 -0.55879818070E+02  0.19358659891E+03 -0.62264950277E+03  0.92849390677E+03  0.65864270000E+03 0.  1.
    8880022    1    1    2    0    0  0.55879818070E+02 -0.19358659891E+03  0.13063586304E+04  0.13306249845E+04  0.15294330000E+03 0.  0.
<mgrwt>
<rscale>  0 0.53619305E+03</rscale>
<asrwt>0</asrwt>
<pdfrwt beam="1">  1        1 0.22637138E+00 0.68877321E+03</pdfrwt>
<pdfrwt beam="2">  1       -1 0.12118537E+00 0.68877321E+03</pdfrwt>
<totfact> 0.43603243E+00</totfact>
</mgrwt>
</event>
<event>
 4    5  0.7214169E-008  0.1277281E+04  0.7818608E-02  0.9085432E-01
         -1   -1    0    0    0  501 -0.00000000000E+00  0.00000000000E+00  0.17240273969E+04  0.17240273969E+04  0.50400000000E-02 0.  1.
          1   -1    0    0  501    0  0.00000000000E+00 -0.00000000000E+00 -0.11187321275E+04  0.11187321276E+04  0.50400000000E-02 0. -1.
    8880023    1    1    2    0    0 -0.10927822665E+04  0.58848151583E+02 -0.41068237508E+03  0.13416804413E+04  0.65864270000E+03 0.  0.
    8880022    1    1    2    0    0  0.10927822665E+04 -0.58848151583E+02  0.10159776444E+04  0.15010790832E+04  0.15294330000E+03 0.  0.
<mgrwt>
<rscale>  0 0.12318434E+04</rscale>
<asrwt>0</asrwt>
<pdfrwt beam="1">  1        1 0.17211264E+00 0.12772809E+04</pdfrwt>
<pdfrwt beam="2">  1       -1 0.26523498E+00 0.12772809E+04</pdfrwt>
<totfact> 0.66264101E-01</totfact>
</mgrwt>
</event>
<event>
 4    5  0.7214169E-008  0.1035773E+04  0.7818608E-02  0.9336183E-01
          1   -1    0    0  501    0  0.00000000000E+00  0.00000000000E+00  0.23020893735E+04  0.23020893735E+04  0.50400000000E-02 0. -1.
         -1   -1    0    0    0  501 -0.00000000000E+00 -0.00000000000E+00 -0.73804738186E+03  0.73804738188E+03  0.50400000000E-02 0.  1.
    8880023    1    1    2    0    0 -0.65530570097E+03 -0.45780890969E+03 -0.23805317993E+03  0.10627765909E+04  0.65864270000E+03 0.  1.
    8880022    1    1    2    0    0  0.65530570097E+03  0.45780890969E+03  0.18020951716E+04  0.19773601645E+04  0.15294330000E+03 0.  0.
<mgrwt>
<rscale>  0 0.97518912E+03</rscale>
<asrwt>0</asrwt>
<pdfrwt beam="1">  1        1 0.35416759E+00 0.10357725E+04</pdfrwt>
<pdfrwt beam="2">  1       -1 0.11354575E+00 0.10357725E+04</pdfrwt>
<totfact> 0.13255739E+00</totfact>
</mgrwt>
</event>
<event>
 4    5  0.7214169E-008  0.2317120E+04  0.7818608E-02  0.8480211E-01
          1   -1    0    0  501    0  0.00000000000E+00  0.00000000000E+00  0.31275946803E+04  0.31275946803E+04  0.50400000000E-02 0. -1.
         -1   -1    0    0    0  501 -0.00000000000E+00 -0.00000000000E+00 -0.18995895402E+04  0.18995895402E+04  0.50400000000E-02 0.  1.
    8880023    1    1    2    0    0  0.16759403148E+04  0.14582383812E+04 -0.28562381965E+03  0.23346576383E+04  0.65864270000E+03 0.  0.
    8880022    1    1    2    0    0 -0.16759403148E+04 -0.14582383812E+04  0.15136289597E+04  0.26925265822E+04  0.15294330000E+03 0.  0.
<mgrwt>
<rscale>  0 0.22942016E+04</rscale>
<asrwt>0</asrwt>
<pdfrwt beam="1">  1        1 0.48116841E+00 0.23171200E+04</pdfrwt>
<pdfrwt beam="2">  1       -1 0.29224454E+00 0.23171200E+04</pdfrwt>
<totfact> 0.15297157E-02</totfact>
</mgrwt>
</event>
<event>
 4    5  0.7214169E-008  0.1405012E+04  0.7818608E-02  0.8979798E-01
          1   -1    0    0  501    0  0.00000000000E+00  0.00000000000E+00  0.94580956251E+03  0.94580956252E+03  0.50400000000E-02 0. -1.
         -1   -1    0    0    0  501 -0.00000000000E+00 -0.00000000000E+00 -0.19624324446E+04  0.19624324446E+04  0.50400000000E-02 0.  1.
    8880023    1    1    2    0    0  0.10817415632E+04 -0.60834560532E+03 -0.86174595219E+03  0.16482310146E+04  0.65864270000E+03 0.  0.
    8880022    1    1    2    0    0 -0.10817415632E+04  0.60834560532E+03 -0.15487692991E+03  0.12600109926E+04  0.15294330000E+03 0.  0.
<mgrwt>
<rscale>  0 0.13646686E+04</rscale>
<asrwt>0</asrwt>
<pdfrwt beam="1">  1        1 0.14550916E+00 0.14050122E+04</pdfrwt>
<pdfrwt beam="2">  1       -1 0.30191268E+00 0.14050122E+04</pdfrwt>
<totfact> 0.51581528E-01</totfact>
</mgrwt>
</event>
<event>
 4    5  0.7214169E-008  0.6954506E+03  0.7818608E-02  0.1001662E+00
         -1   -1    0    0    0  501 -0.00000000000E+00  0.00000000000E+00  0.12871127594E+04  0.12871127594E+04  0.50400000000E-02 0.  1.
          1   -1    0    0  501    0  0.00000000000E+00 -0.00000000000E+00 -0.67546624738E+03  0.67546624740E+03  0.50400000000E-02 0. -1.
    8880023    1    1    2    0    0 -0.11842345806E+03 -0.18925445972E+03  0.11591945190E+04  0.13518074956E+04  0.65864270000E+03 0.  1.
    8880022    1    1    2    0    0  0.11842345806E+03  0.18925445972E+03 -0.54754800700E+03  0.61077151123E+03  0.15294330000E+03 0.  0.
<mgrwt>
<rscale>  0 0.54927280E+03</rscale>
<asrwt>0</asrwt>
<pdfrwt beam="1">  1        1 0.10391788E+00 0.69545063E+03</pdfrwt>
<pdfrwt beam="2">  1       -1 0.19801735E+00 0.69545063E+03</pdfrwt>
<totfact> 0.46701851E+00</totfact>
</mgrwt>
</event>
<event>
 4    5  0.7214169E-008  0.7683544E+03  0.7818608E-02  0.9783940E-01
         -1   -1    0    0    0  501 -0.00000000000E+00  0.00000000000E+00  0.24634850566E+03  0.24634850571E+03  0.50400000000E-02 0.  1.
          1   -1    0    0  501    0  0.00000000000E+00 -0.00000000000E+00 -0.20893707710E+04  0.20893707710E+04  0.50400000000E-02 0. -1.
    8880023    1    1    2    0    0  0.17707754713E+03  0.35383863168E+03 -0.47473766640E+03  0.90318563603E+03  0.65864270000E+03 0.  1.
    8880022    1    1    2    0    0 -0.17707754713E+03 -0.35383863168E+03 -0.13682845989E+04  0.14325336407E+04  0.15294330000E+03 0.  0.
<mgrwt>
<rscale>  0 0.66231581E+03</rscale>
<asrwt>0</asrwt>
<pdfrwt beam="1">  1        1 0.32144165E+00 0.76835437E+03</pdfrwt>
<pdfrwt beam="2">  1       -1 0.37899771E-01 0.76835437E+03</pdfrwt>
<totfact> 0.18113265E+01</totfact>
</mgrwt>
</event>
<event>
 4    5  0.7214169E-008  0.6664613E+03  0.7818608E-02  0.1018338E+00
         -1   -1    0    0    0  501 -0.00000000000E+00  0.00000000000E+00  0.34505303076E+03  0.34505303080E+03  0.50400000000E-02 0.  1.
          1   -1    0    0  501    0  0.00000000000E+00 -0.00000000000E+00 -0.13518063696E+04  0.13518063696E+04  0.50400000000E-02 0. -1.
    8880023    1    1    2    0    0  0.38533530410E+02 -0.94210314868E+02  0.70959572861E+01  0.66649904371E+03  0.65864270000E+03 0.  1.
    8880022    1    1    2    0    0 -0.38533530410E+02  0.94210314868E+02 -0.10138492961E+04  0.10303603567E+04  0.15294330000E+03 0.  0.
<mgrwt>
<rscale>  0 0.48291282E+03</rscale>
<asrwt>0</asrwt>
<pdfrwt beam="1">  1        1 0.20797021E+00 0.66646127E+03</pdfrwt>
<pdfrwt beam="2">  1       -1 0.53085082E-01 0.66646127E+03</pdfrwt>
<totfact> 0.30954597E+01</totfact>
</mgrwt>
</event>
<event>
 4    5  0.8864200E-008  0.1113999E+04  0.7818608E-02  0.9245627E-01
          1   -1    0    0  501    0  0.00000000000E+00  0.00000000000E+00  0.27211470770E+04  0.27211470770E+04  0.50400000000E-02 0. -1.
         -1   -1    0    0    0  501 -0.00000000000E+00 -0.00000000000E+00 -0.11792095588E+04  0.11792095588E+04  0.50400000000E-02 0.  1.
    8880023    1    1    2    0    0  0.74395320685E+03 -0.50370435486E+03 -0.81043967918E+03  0.13776092084E+04  0.65864270000E+03 0.  0.
    8880022    1    1    2    0    0 -0.74395320685E+03  0.50370435486E+03  0.23523771974E+04  0.25227474275E+04  0.15294330000E+03 0.  0.
<mgrwt>
<rscale>  0 0.10594639E+04</rscale>
<asrwt>0</asrwt>
<pdfrwt beam="1">  1        1 0.41863801E+00 0.11139994E+04</pdfrwt>
<pdfrwt beam="2">  1       -1 0.18141686E+00 0.11139994E+04</pdfrwt>
<totfact> 0.19320265E-01</totfact>
</mgrwt>
</event>
<event>
 4    5  0.7214169E-008  0.8086218E+03  0.7818608E-02  0.9692455E-01
          1   -1    0    0  501    0  0.00000000000E+00  0.00000000000E+00  0.16918181581E+04  0.16918181581E+04  0.50400000000E-02 0. -1.
         -1   -1    0    0    0  501 -0.00000000000E+00 -0.00000000000E+00 -0.76006513648E+03  0.76006513650E+03  0.50400000000E-02 0.  1.
    8880023    1    1    2    0    0 -0.14932573201E+03  0.44470304811E+03 -0.49098940656E+03  0.94601256802E+03  0.65864270000E+03 0.  1.
    8880022    1    1    2    0    0  0.14932573201E+03 -0.44470304811E+03  0.14227424282E+04  0.15058707266E+04  0.15294330000E+03 0.  0.
<mgrwt>
<rscale>  0 0.71467804E+03</rscale>
<asrwt>0</asrwt>
<pdfrwt beam="1">  1        1 0.26027972E+00 0.80862178E+03</pdfrwt>
<pdfrwt beam="2">  1       -1 0.11693310E+00 0.80862178E+03</pdfrwt>
<totfact> 0.32988167E+00</totfact>
</mgrwt>
</event>
<event>
 4    5  0.7258627E-008  0.8185378E+03  0.7818608E-02  0.9672060E-01
         -1   -1    0    0    0  501 -0.00000000000E+00  0.00000000000E+00  0.11096143212E+04  0.11096143212E+04  0.50400000000E-02 0.  1.
          1   -1    0    0  501    0  0.00000000000E+00 -0.00000000000E+00 -0.12827763438E+04  0.12827763438E+04  0.50400000000E-02 0. -1.
    8880023    1    1    2    0    0  0.23212780349E+03  0.42697851851E+03  0.89260955252E+03  0.12110970200E+04  0.65864270000E+03 0.  1.
    8880022    1    1    2    0    0 -0.23212780349E+03 -0.42697851851E+03 -0.10657715751E+04  0.11812936450E+04  0.15294330000E+03 0.  0.
<mgrwt>
<rscale>  0 0.72704978E+03</rscale>
<asrwt>0</asrwt>
<pdfrwt beam="1">  1        1 0.19735021E+00 0.81853783E+03</pdfrwt>
<pdfrwt beam="2">  1       -1 0.17070990E+00 0.81853783E+03</pdfrwt>
<totfact> 0.23343667E+00</totfact>
</mgrwt>
</event>
<event>
 4    5  0.7214169E-008  0.1222896E+04  0.7818608E-02  0.9135181E-01
          1   -1    0    0  501    0  0.00000000000E+00  0.00000000000E+00  0.18810477276E+04  0.18810477276E+04  0.50400000000E-02 0. -1.
         -1   -1    0    0    0  501 -0.00000000000E+00 -0.00000000000E+00 -0.13454987172E+04  0.13454987172E+04  0.50400000000E-02 0.  1.
    8880023    1    1    2    0    0 -0.91414860088E+02  0.10263080295E+04 -0.85278857154E+03  0.14908800763E+04  0.65864270000E+03 0.  1.
    8880022    1    1    2    0    0  0.91414860088E+02 -0.10263080295E+04  0.13883375819E+04  0.17356663684E+04  0.15294330000E+03 0.  0.
<mgrwt>
<rscale>  0 0.11748265E+04</rscale>
<asrwt>0</asrwt>
<pdfrwt beam="1">  1        1 0.28939196E+00 0.12228962E+04</pdfrwt>
<pdfrwt beam="2">  1       -1 0.20699980E+00 0.12228962E+04</pdfrwt>
<totfact> 0.47292154E-01</totfact>
</mgrwt>
</event>
<event>
 4    5  0.7214169E-008  0.1278012E+04  0.7818608E-02  0.9084784E-01
          1   -1    0    0  501    0  0.00000000000E+00  0.00000000000E+00  0.29432195688E+04  0.29432195688E+04  0.50400000000E-02 0. -1.
         -1   -1    0    0    0  501 -0.00000000000E+00 -0.00000000000E+00 -0.63691983748E+03  0.63691983750E+03  0.50400000000E-02 0.  1.
    8880023    1    1    2    0    0  0.96391901113E+03 -0.51996666004E+03  0.33717176566E+03  0.13217413489E+04  0.65864270000E+03 0.  0.
    8880022    1    1    2    0    0 -0.96391901113E+03  0.51996666004E+03  0.19691279657E+04  0.22583980574E+04  0.15294330000E+03 0.  0.
<mgrwt>
<rscale>  0 0.12326080E+04</rscale>
<asrwt>0</asrwt>
<pdfrwt beam="1">  1        1 0.45280302E+00 0.12780123E+04</pdfrwt>
<pdfrwt beam="2">  1       -1 0.97987665E-01 0.12780123E+04</pdfrwt>
<totfact> 0.64646879E-01</totfact>
</mgrwt>
</event>
<event>
 4    5  0.7214169E-008  0.1432000E+04  0.7818608E-02  0.8959209E-01
         -1   -1    0    0    0  501 -0.00000000000E+00  0.00000000000E+00  0.20984188589E+04  0.20984188589E+04  0.50400000000E-02 0.  1.
          1   -1    0    0  501    0  0.00000000000E+00 -0.00000000000E+00 -0.11431464387E+04  0.11431464387E+04  0.50400000000E-02 0. -1.
    8880023    1    1    2    0    0  0.74516296484E+03 -0.10303131075E+04  0.12796171519E+04  0.19204278704E+04  0.65864270000E+03 0.  0.
    8880022    1    1    2    0    0 -0.74516296484E+03  0.10303131075E+04 -0.32434473165E+03  0.13211374272E+04  0.15294330000E+03 0.  0.
<mgrwt>
<rscale>  0 0.13925777E+04</rscale>
<asrwt>0</asrwt>
<pdfrwt beam="1">  1        1 0.17586868E+00 0.14319997E+04</pdfrwt>
<pdfrwt beam="2">  1       -1 0.32283367E+00 0.14319997E+04</pdfrwt>
<totfact> 0.26424261E-01</totfact>
</mgrwt>
</event>
<event>
 4    5  0.7214169E-008  0.7926590E+03  0.7818608E-02  0.9726899E-01
          1   -1    0    0  501    0  0.00000000000E+00  0.00000000000E+00  0.30029005725E+04  0.30029005725E+04  0.50400000000E-02 0. -1.
         -1   -1    0    0    0  501 -0.00000000000E+00 -0.00000000000E+00 -0.18047384603E+03  0.18047384611E+03  0.50400000000E-02 0.  1.
    8880023    1    1    2    0    0  0.34284918897E+03  0.27740326031E+03  0.87441073198E+03  0.11802128917E+04  0.65864270000E+03 0.  0.
    8880022    1    1    2    0    0 -0.34284918897E+03 -0.27740326031E+03  0.19480159944E+04  0.20031615269E+04  0.15294330000E+03 0.  0.
<mgrwt>
<rscale>  0 0.69437555E+03</rscale>
<asrwt>0</asrwt>
<pdfrwt beam="1">  1        1 0.46198471E+00 0.79265903E+03</pdfrwt>
<pdfrwt beam="2">  1       -1 0.27765207E-01 0.79265903E+03</pdfrwt>
<totfact> 0.73441121E+00</totfact>
</mgrwt>
</event>
<event>
 4    5  0.7214169E-008  0.6802903E+03  0.7818608E-02  0.1009160E+00
          1   -1    0    0  501    0  0.00000000000E+00  0.00000000000E+00  0.48745967607E+03  0.48745967609E+03  0.50400000000E-02 0. -1.
         -1   -1    0    0    0  501 -0.00000000000E+00 -0.00000000000E+00 -0.72789300145E+03  0.72789300147E+03  0.50400000000E-02 0.  1.
    8880023    1    1    2    0    0 -0.16636757731E+03 -0.36146647293E+02 -0.51839796406E+03  0.85529609276E+03  0.65864270000E+03 0.  1.
    8880022    1    1    2    0    0  0.16636757731E+03  0.36146647293E+02  0.27796463867E+03  0.36005658480E+03  0.15294330000E+03 0.  0.
<mgrwt>
<rscale>  0 0.51809893E+03</rscale>
<asrwt>0</asrwt>
<pdfrwt beam="1">  1        1 0.74993797E-01 0.68029035E+03</pdfrwt>
<pdfrwt beam="2">  1       -1 0.11198354E+00 0.68029035E+03</pdfrwt>
<totfact> 0.34588598E+01</totfact>
</mgrwt>
</event>
<event>
 4    5  0.7214169E-008  0.8364230E+03  0.7818608E-02  0.9636962E-01
          1   -1    0    0  501    0  0.00000000000E+00  0.00000000000E+00  0.16143537051E+04  0.16143537051E+04  0.50400000000E-02 0. -1.
         -1   -1    0    0    0  501 -0.00000000000E+00 -0.00000000000E+00 -0.32370448004E+03  0.32370448008E+03  0.50400000000E-02 0.  1.
    8880023    1    1    2    0    0  0.43571099703E+03 -0.27558874803E+03  0.10667105002E+04  0.13555348496E+04  0.65864270000E+03 0. -1.
    8880022    1    1    2    0    0 -0.43571099703E+03  0.27558874803E+03  0.22393872484E+03  0.58252333556E+03  0.15294330000E+03 0.  0.
<mgrwt>
<rscale>  0 0.74897345E+03</rscale>
<asrwt>0</asrwt>
<pdfrwt beam="1">  1        1 0.24836211E+00 0.83642300E+03</pdfrwt>
<pdfrwt beam="2">  1       -1 0.49800689E-01 0.83642300E+03</pdfrwt>
<totfact> 0.22594450E+01</totfact>
</mgrwt>
</event>
<event>
 4    5  0.7214169E-008  0.1021287E+04  0.7818608E-02  0.9354223E-01
         -1   -1    0    0    0  501 -0.00000000000E+00  0.00000000000E+00  0.59631577166E+03  0.59631577168E+03  0.50400000000E-02 0.  1.
          1   -1    0    0  501    0  0.00000000000E+00 -0.00000000000E+00 -0.19711568552E+04  0.19711568552E+04  0.50400000000E-02 0. -1.
    8880023    1    1    2    0    0  0.49869399818E+03 -0.60043402367E+03 -0.50361573100E+02  0.10225278553E+04  0.65864270000E+03 0.  1.
    8880022    1    1    2    0    0 -0.49869399818E+03  0.60043402367E+03 -0.13244795104E+04  0.15449447716E+04  0.15294330000E+03 0.  0.
<mgrwt>
<rscale>  0 0.95940657E+03</rscale>
<asrwt>0</asrwt>
<pdfrwt beam="1">  1        1 0.30325490E+00 0.10212869E+04</pdfrwt>
<pdfrwt beam="2">  1       -1 0.91740889E-01 0.10212869E+04</pdfrwt>
<totfact> 0.36379790E+00</totfact>
</mgrwt>
</event>
<event>
 4    5  0.7214169E-008  0.1086501E+04  0.7818608E-02  0.9276236E-01
          1   -1    0    0  501    0  0.00000000000E+00  0.00000000000E+00  0.13979703797E+04  0.13979703797E+04  0.50400000000E-02 0. -1.
         -1   -1    0    0    0  501 -0.00000000000E+00 -0.00000000000E+00 -0.14572816407E+04  0.14572816407E+04  0.50400000000E-02 0.  1.
    8880023    1    1    2    0    0  0.86270476344E+03  0.49143630825E+02 -0.10643913779E+04  0.15209910641E+04  0.65864270000E+03 0.  1.
    8880022    1    1    2    0    0 -0.86270476344E+03 -0.49143630825E+02  0.10050801169E+04  0.13342609564E+04  0.15294330000E+03 0.  0.
<mgrwt>
<rscale>  0 0.10300034E+04</rscale>
<asrwt>0</asrwt>
<pdfrwt beam="1">  1        1 0.21507237E+00 0.10865012E+04</pdfrwt>
<pdfrwt beam="2">  1       -1 0.22419717E+00 0.10865012E+04</pdfrwt>
<totfact> 0.79135944E-01</totfact>
</mgrwt>
</event>
<event>
 4    5  0.7214169E-008  0.7531967E+03  0.7818608E-02  0.9823050E-01
          1   -1    0    0  501    0  0.00000000000E+00  0.00000000000E+00  0.14018229677E+04  0.14018229677E+04  0.50400000000E-02 0. -1.
         -1   -1    0    0    0  501 -0.00000000000E+00 -0.00000000000E+00 -0.38939026090E+03  0.38939026093E+03  0.50400000000E-02 0.  1.
    8880023    1    1    2    0    0  0.23156465891E+03  0.28261778211E+03  0.55138905937E+02  0.75521222662E+03  0.65864270000E+03 0.  0.
    8880022    1    1    2    0    0 -0.23156465891E+03 -0.28261778211E+03  0.95729380087E+03  0.10360010020E+04  0.15294330000E+03 0.  0.
<mgrwt>
<rscale>  0 0.64140086E+03</rscale>
<asrwt>0</asrwt>
<pdfrwt beam="1">  1        1 0.21566507E+00 0.75319666E+03</pdfrwt>
<pdfrwt beam="2">  1       -1 0.59906194E-01 0.75319666E+03</pdfrwt>
<totfact> 0.22341909E+01</totfact>
</mgrwt>
</event>
<event>
 4    5  0.7214169E-008  0.7393436E+03  0.7818608E-02  0.9861863E-01
         -1   -1    0    0    0  501 -0.00000000000E+00  0.00000000000E+00  0.33268229627E+03  0.33268229631E+03  0.50400000000E-02 0.  1.
          1   -1    0    0  501    0  0.00000000000E+00 -0.00000000000E+00 -0.23135005778E+04  0.23135005778E+04  0.50400000000E-02 0. -1.
    8880023    1    1    2    0    0 -0.36917653468E+02  0.33384999893E+03 -0.11987893370E+03  0.74899926564E+03  0.65864270000E+03 0.  1.
    8880022    1    1    2    0    0  0.36917653468E+02 -0.33384999893E+03 -0.18609393478E+04  0.18971836084E+04  0.15294330000E+03 0.  0.
<mgrwt>
<rscale>  0 0.62145690E+03</rscale>
<asrwt>0</asrwt>
<pdfrwt beam="1">  1        1 0.35592315E+00 0.73934359E+03</pdfrwt>
<pdfrwt beam="2">  1       -1 0.51181893E-01 0.73934359E+03</pdfrwt>
<totfact> 0.73766867E+00</totfact>
</mgrwt>
</event>
<event>
 4    5  0.7214169E-008  0.7032359E+03  0.7818608E-02  0.9984033E-01
         -1   -1    0    0    0  501 -0.00000000000E+00  0.00000000000E+00  0.18486307219E+03  0.18486307226E+03  0.50400000000E-02 0.  1.
          1   -1    0    0  501    0  0.00000000000E+00 -0.00000000000E+00 -0.15181724664E+04  0.15181724664E+04  0.50400000000E-02 0. -1.
    8880023    1    1    2    0    0  0.24323310909E+03  0.39600689002E+02 -0.63744249550E+03  0.94914366734E+03  0.65864270000E+03 0.  0.
    8880022    1    1    2    0    0 -0.24323310909E+03 -0.39600689002E+02 -0.69586689874E+03  0.75389187136E+03  0.15294330000E+03 0.  0.
<mgrwt>
<rscale>  0 0.56355930E+03</rscale>
<asrwt>0</asrwt>
<pdfrwt beam="1">  1        1 0.23356499E+00 0.70323592E+03</pdfrwt>
<pdfrwt beam="2">  1       -1 0.28440474E-01 0.70323592E+03</pdfrwt>
<totfact> 0.73329815E+01</totfact>
</mgrwt>
</event>
<event>
 4    5  0.7214169E-008  0.9208658E+03  0.7818608E-02  0.9493333E-01
          1   -1    0    0  501    0  0.00000000000E+00  0.00000000000E+00  0.11198336404E+04  0.11198336404E+04  0.50400000000E-02 0. -1.
         -1   -1    0    0    0  501 -0.00000000000E+00 -0.00000000000E+00 -0.77055281078E+03  0.77055281079E+03  0.50400000000E-02 0.  1.
    8880023    1    1    2    0    0  0.25580766196E+03 -0.59054727783E+03  0.68583278801E+03  0.11481987923E+04  0.65864270000E+03 0. -1.
    8880022    1    1    2    0    0 -0.25580766196E+03  0.59054727783E+03 -0.33655195841E+03  0.74218765888E+03  0.15294330000E+03 0.  0.
<mgrwt>
<rscale>  0 0.84777160E+03</rscale>
<asrwt>0</asrwt>
<pdfrwt beam="1">  1        1 0.17228210E+00 0.92086582E+03</pdfrwt>
<pdfrwt beam="2">  1       -1 0.11854659E+00 0.92086582E+03</pdfrwt>
<totfact> 0.79071926E+00</totfact>
</mgrwt>
</event>
<event>
 4    5  0.7214169E-008  0.6880558E+03  0.7818608E-02  0.1005091E+00
          1   -1    0    0  501    0  0.00000000000E+00  0.00000000000E+00  0.84794744151E+03  0.84794744152E+03  0.50400000000E-02 0. -1.
         -1   -1    0    0    0  501 -0.00000000000E+00 -0.00000000000E+00 -0.73340866456E+03  0.73340866457E+03  0.50400000000E-02 0.  1.
    8880023    1    1    2    0    0  0.95911430646E+02  0.17438922966E+03 -0.54366168370E+03  0.87692008674E+03  0.65864270000E+03 0.  1.
    8880022    1    1    2    0    0 -0.95911430646E+02 -0.17438922966E+03  0.65820046065E+03  0.70443601936E+03  0.15294330000E+03 0.  0.
<mgrwt>
<rscale>  0 0.53473335E+03</rscale>
<asrwt>0</asrwt>
<pdfrwt beam="1">  1        1 0.13045345E+00 0.68805582E+03</pdfrwt>
<pdfrwt beam="2">  1       -1 0.11283210E+00 0.68805582E+03</pdfrwt>
<totfact> 0.14990139E+01</totfact>
</mgrwt>
</event>
<event>
 4    5  0.7214169E-008  0.7099963E+03  0.7818608E-02  0.9958015E-01
          1   -1    0    0  501    0  0.00000000000E+00  0.00000000000E+00  0.23080368090E+04  0.23080368090E+04  0.50400000000E-02 0. -1.
         -1   -1    0    0    0  501 -0.00000000000E+00 -0.00000000000E+00 -0.56408471990E+03  0.56408471992E+03  0.50400000000E-02 0.  1.
    8880023    1    1    2    0    0  0.21817008074E+02 -0.26421315070E+03 -0.32486326698E+03  0.78078865216E+03  0.65864270000E+03 0.  0.
    8880022    1    1    2    0    0 -0.21817008074E+02  0.26421315070E+03  0.20688153561E+04  0.20913328767E+04  0.15294330000E+03 0.  0.
<mgrwt>
<rscale>  0 0.57530182E+03</rscale>
<asrwt>0</asrwt>
<pdfrwt beam="1">  1        1 0.35508259E+00 0.70999632E+03</pdfrwt>
<pdfrwt beam="2">  1       -1 0.86782264E-01 0.70999632E+03</pdfrwt>
<totfact> 0.25671215E+00</totfact>
</mgrwt>
</event>
<event>
 4    5  0.7214169E-008  0.1208951E+04  0.7818608E-02  0.9148470E-01
          1   -1    0    0  501    0  0.00000000000E+00  0.00000000000E+00  0.38382710373E+04  0.38382710373E+04  0.50400000000E-02 0. -1.
         -1   -1    0    0    0  501 -0.00000000000E+00 -0.00000000000E+00 -0.43903172307E+03  0.43903172310E+03  0.50400000000E-02 0.  1.
    8880023    1    1    2    0    0  0.68623109486E+03 -0.74621684624E+03  0.71648841919E+03  0.14053179563E+04  0.65864270000E+03 0.  1.
    8880022    1    1    2    0    0 -0.68623109486E+03  0.74621684624E+03  0.26827508950E+04  0.28719848041E+04  0.15294330000E+03 0.  0.
<mgrwt>
<rscale>  0 0.11601506E+04</rscale>
<asrwt>0</asrwt>
<pdfrwt beam="1">  1        1 0.59050322E+00 0.12089512E+04</pdfrwt>
<pdfrwt beam="2">  1       -1 0.67543343E-01 0.12089512E+04</pdfrwt>
<totfact> 0.29750677E-01</totfact>
</mgrwt>
</event>
<event>
 4    5  0.7214169E-008  0.1021288E+04  0.7818608E-02  0.9354221E-01
          1   -1    0    0  501    0  0.00000000000E+00  0.00000000000E+00  0.15232338389E+04  0.15232338389E+04  0.50400000000E-02 0. -1.
         -1   -1    0    0    0  501 -0.00000000000E+00 -0.00000000000E+00 -0.11702285150E+04  0.11702285150E+04  0.50400000000E-02 0.  1.
    8880023    1    1    2    0    0 -0.33596340033E+03  0.70452005939E+03 -0.79681653038E+03  0.12953558236E+04  0.65864270000E+03 0.  1.
    8880022    1    1    2    0    0  0.33596340033E+03 -0.70452005939E+03  0.11498218543E+04  0.13981065303E+04  0.15294330000E+03 0.  0.
<mgrwt>
<rscale>  0 0.95940828E+03</rscale>
<asrwt>0</asrwt>
<pdfrwt beam="1">  1        1 0.23434367E+00 0.10212885E+04</pdfrwt>
<pdfrwt beam="2">  1       -1 0.18003516E+00 0.10212885E+04</pdfrwt>
<totfact> 0.13154931E+00</totfact>
</mgrwt>
</event>
<event>
 4    5  0.7214169E-008  0.1180436E+04  0.7818608E-02  0.9176378E-01
         -1   -1    0    0    0  501 -0.00000000000E+00  0.00000000000E+00  0.63941232341E+03  0.63941232343E+03  0.50400000000E-02 0.  1.
          1   -1    0    0  501    0  0.00000000000E+00 -0.00000000000E+00 -0.35356868978E+04  0.35356868978E+04  0.50400000000E-02 0. -1.
    8880023    1    1    2    0    0 -0.62357384100E+03 -0.75549669112E+03 -0.72883582036E+02  0.11826841541E+04  0.65864270000E+03 0.  0.
    8880022    1    1    2    0    0  0.62357384100E+03  0.75549669112E+03 -0.28233909924E+04  0.29924150672E+04  0.15294330000E+03 0.  0.
<mgrwt>
<rscale>  0 0.11300606E+04</rscale>
<asrwt>0</asrwt>
<pdfrwt beam="1">  1        1 0.54395182E+00 0.11804363E+04</pdfrwt>
<pdfrwt beam="2">  1       -1 0.98371129E-01 0.11804363E+04</pdfrwt>
<totfact> 0.23361243E-01</totfact>
</mgrwt>
</event>
<event>
 4    5  0.7214169E-008  0.8893256E+03  0.7818608E-02  0.9543389E-01
         -1   -1    0    0    0  501 -0.00000000000E+00  0.00000000000E+00  0.62568570147E+03  0.62568570149E+03  0.50400000000E-02 0.  1.
          1   -1    0    0  501    0  0.00000000000E+00 -0.00000000000E+00 -0.25820854346E+04  0.25820854346E+04  0.50400000000E-02 0. -1.
    8880023    1    1    2    0    0  0.50793431787E+03  0.31478976635E+03  0.24429164153E+03  0.92226811755E+03  0.65864270000E+03 0.  0.
    8880022    1    1    2    0    0 -0.50793431787E+03 -0.31478976635E+03 -0.22006913746E+04  0.22855030185E+04  0.15294330000E+03 0.  0.
<mgrwt>
<rscale>  0 0.81159115E+03</rscale>
<asrwt>0</asrwt>
<pdfrwt beam="1">  1        1 0.39724391E+00 0.88932563E+03</pdfrwt>
<pdfrwt beam="2">  1       -1 0.96259340E-01 0.88932563E+03</pdfrwt>
<totfact> 0.12827815E+00</totfact>
</mgrwt>
</event>
<event>
 4    5  0.7214169E-008  0.8663190E+03  0.7818608E-02  0.9582420E-01
          1   -1    0    0  501    0  0.00000000000E+00  0.00000000000E+00  0.86046062923E+03  0.86046062925E+03  0.50400000000E-02 0. -1.
         -1   -1    0    0    0  501 -0.00000000000E+00 -0.00000000000E+00 -0.13251143417E+04  0.13251143417E+04  0.50400000000E-02 0.  1.
    8880023    1    1    2    0    0  0.37980587959E+03 -0.41526612079E+03 -0.10486840023E+04  0.13602377734E+04  0.65864270000E+03 0.  1.
    8880022    1    1    2    0    0 -0.37980587959E+03  0.41526612079E+03  0.58403028982E+03  0.82533719757E+03  0.15294330000E+03 0.  0.
<mgrwt>
<rscale>  0 0.78470721E+03</rscale>
<asrwt>0</asrwt>
<pdfrwt beam="1">  1        1 0.13237856E+00 0.86631903E+03</pdfrwt>
<pdfrwt beam="2">  1       -1 0.20386374E+00 0.86631903E+03</pdfrwt>
<totfact> 0.28399151E+00</totfact>
</mgrwt>
</event>
<event>
 4    5  0.7214169E-008  0.7318420E+03  0.7818608E-02  0.9884381E-01
          1   -1    0    0  501    0  0.00000000000E+00  0.00000000000E+00  0.22446430330E+04  0.22446430330E+04  0.50400000000E-02 0. -1.
         -1   -1    0    0    0  501 -0.00000000000E+00 -0.00000000000E+00 -0.17331039097E+03  0.17331039104E+03  0.50400000000E-02 0.  1.
    8880023    1    1    2    0    0  0.65675240015E+02  0.31220075687E+03  0.74138633209E+03  0.10417516256E+04  0.65864270000E+03 0.  0.
    8880022    1    1    2    0    0 -0.65675240015E+02 -0.31220075687E+03  0.13299463100E+04  0.13762017985E+04  0.15294330000E+03 0.  0.
<mgrwt>
<rscale>  0 0.61024238E+03</rscale>
<asrwt>0</asrwt>
<pdfrwt beam="1">  1        1 0.34532968E+00 0.73184203E+03</pdfrwt>
<pdfrwt beam="2">  1       -1 0.26663138E-01 0.73184203E+03</pdfrwt>
<totfact> 0.26582018E+01</totfact>
</mgrwt>
</event>
<event>
 4    5  0.7214169E-008  0.1028679E+04  0.7818608E-02  0.9344962E-01
         -1   -1    0    0    0  501 -0.00000000000E+00  0.00000000000E+00  0.16207274602E+04  0.16207274602E+04  0.50400000000E-02 0.  1.
          1   -1    0    0  501    0  0.00000000000E+00 -0.00000000000E+00 -0.11478772346E+04  0.11478772347E+04  0.50400000000E-02 0. -1.
    8880023    1    1    2    0    0  0.12678731044E+03  0.77993342745E+03  0.12709935156E+04  0.16351164779E+04  0.65864270000E+03 0.  0.
    8880022    1    1    2    0    0 -0.12678731044E+03 -0.77993342745E+03 -0.79814329009E+03  0.11334882169E+04  0.15294330000E+03 0.  0.
<mgrwt>
<rscale>  0 0.96746897E+03</rscale>
<asrwt>0</asrwt>
<pdfrwt beam="1">  1        1 0.17659650E+00 0.10286794E+04</pdfrwt>
<pdfrwt beam="2">  1       -1 0.24934268E+00 0.10286794E+04</pdfrwt>
<totfact> 0.82565559E-01</totfact>
</mgrwt>
</event>
<event>
 4    5  0.7214169E-008  0.7526390E+03  0.7818608E-02  0.9824551E-01
          1   -1    0    0  501    0  0.00000000000E+00  0.00000000000E+00  0.17085144067E+04  0.17085144067E+04  0.50400000000E-02 0. -1.
         -1   -1    0    0    0  501 -0.00000000000E+00 -0.00000000000E+00 -0.69852646359E+03  0.69852646360E+03  0.50400000000E-02 0.  1.
    8880023    1    1    2    0    0 -0.29228325564E+03 -0.21731501205E+03 -0.46189522894E+03  0.88307005655E+03  0.65864270000E+03 0.  1.
    8880022    1    1    2    0    0  0.29228325564E+03  0.21731501205E+03  0.14718831720E+04  0.15239708137E+04  0.15294330000E+03 0.  0.
<mgrwt>
<rscale>  0 0.64061481E+03</rscale>
<asrwt>0</asrwt>
<pdfrwt beam="1">  1        1 0.26284837E+00 0.75263904E+03</pdfrwt>
<pdfrwt beam="2">  1       -1 0.10746561E+00 0.75263904E+03</pdfrwt>
<totfact> 0.39652832E+00</totfact>
</mgrwt>
</event>
<event>
 4    5  0.7214169E-008  0.7263994E+03  0.7818608E-02  0.9901499E-01
         -1   -1    0    0    0  501 -0.00000000000E+00  0.00000000000E+00  0.46005959537E+03  0.46005959539E+03  0.50400000000E-02 0.  1.
          1   -1    0    0  501    0  0.00000000000E+00 -0.00000000000E+00 -0.20144058018E+04  0.20144058018E+04  0.50400000000E-02 0. -1.
    8880023    1    1    2    0    0  0.22579754389E+03 -0.20702975632E+03  0.14520183469E+03  0.74076961998E+03  0.65864270000E+03 0.  1.
    8880022    1    1    2    0    0 -0.22579754389E+03  0.20702975632E+03 -0.16995480411E+04  0.17336957772E+04  0.15294330000E+03 0.  0.
<mgrwt>
<rscale>  0 0.60188694E+03</rscale>
<asrwt>0</asrwt>
<pdfrwt beam="1">  1        1 0.30990858E+00 0.72639938E+03</pdfrwt>
<pdfrwt beam="2">  1       -1 0.70778400E-01 0.72639938E+03</pdfrwt>
<totfact> 0.61888651E+00</totfact>
</mgrwt>
</event>
<event>
 4    5  0.7214169E-008  0.7226058E+03  0.7818608E-02  0.9913865E-01
         -1   -1    0    0    0  501 -0.00000000000E+00  0.00000000000E+00  0.14653711142E+04  0.14653711142E+04  0.50400000000E-02 0.  1.
          1   -1    0    0  501    0  0.00000000000E+00 -0.00000000000E+00 -0.41185869958E+03  0.41185869961E+03  0.50400000000E-02 0. -1.
    8880023    1    1    2    0    0  0.29267730322E+03 -0.51855351360E+02  0.12824873793E+04  0.14720506328E+04  0.65864270000E+03 0.  1.
    8880022    1    1    2    0    0 -0.29267730322E+03  0.51855351360E+02 -0.22897496465E+03  0.40517918103E+03  0.15294330000E+03 0.  0.
<mgrwt>
<rscale>  0 0.59593993E+03</rscale>
<asrwt>0</asrwt>
<pdfrwt beam="1">  1        1 0.63362877E-01 0.72260583E+03</pdfrwt>
<pdfrwt beam="2">  1       -1 0.22544171E+00 0.72260583E+03</pdfrwt>
<totfact> 0.60745632E+00</totfact>
</mgrwt>
</event>
<event>
 4    5  0.7214169E-008  0.1030808E+04  0.7818608E-02  0.9342317E-01
          1   -1    0    0  501    0  0.00000000000E+00  0.00000000000E+00  0.16846469994E+04  0.16846469995E+04  0.50400000000E-02 0. -1.
         -1   -1    0    0    0  501 -0.00000000000E+00 -0.00000000000E+00 -0.11980329250E+04  0.11980329250E+04  0.50400000000E-02 0.  1.
    8880023    1    1    2    0    0  0.13207900539E+03  0.78186294298E+03 -0.83991818399E+03  0.13296718721E+04  0.65864270000E+03 0.  1.
    8880022    1    1    2    0    0 -0.13207900539E+03 -0.78186294298E+03  0.13265322584E+04  0.15530080524E+04  0.15294330000E+03 0.  0.
<mgrwt>
<rscale>  0 0.96978708E+03</rscale>
<asrwt>0</asrwt>
<pdfrwt beam="1">  1        1 0.25917646E+00 0.10308078E+04</pdfrwt>
<pdfrwt beam="2">  1       -1 0.18431276E+00 0.10308078E+04</pdfrwt>
<totfact> 0.94972262E-01</totfact>
</mgrwt>
</event>
<event>
 4    5  0.7214169E-008  0.1368883E+04  0.7818608E-02  0.9008246E-01
         -1   -1    0    0    0  501 -0.00000000000E+00  0.00000000000E+00  0.14566345359E+04  0.14566345359E+04  0.50400000000E-02 0.  1.
          1   -1    0    0  501    0  0.00000000000E+00 -0.00000000000E+00 -0.15193964052E+04  0.15193964052E+04  0.50400000000E-02 0. -1.
    8880023    1    1    2    0    0  0.97012873949E+03  0.70631557846E+03  0.70849687376E+03  0.15413661129E+04  0.65864270000E+03 0.  0.
    8880022    1    1    2    0    0 -0.97012873949E+03 -0.70631557846E+03 -0.77125874301E+03  0.14346648282E+04  0.15294330000E+03 0.  0.
<mgrwt>
<rscale>  0 0.13272296E+04</rscale>
<asrwt>0</asrwt>
<pdfrwt beam="1">  1        1 0.23375329E+00 0.13688834E+04</pdfrwt>
<pdfrwt beam="2">  1       -1 0.22409762E+00 0.13688834E+04</pdfrwt>
<totfact> 0.62912839E-01</totfact>
</mgrwt>
</event>
<event>
 4    5  0.7214169E-008  0.7231661E+03  0.7818608E-02  0.9912015E-01
         -1   -1    0    0    0  501 -0.00000000000E+00  0.00000000000E+00  0.64855989874E+03  0.64855989876E+03  0.50400000000E-02 0.  1.
          1   -1    0    0  501    0  0.00000000000E+00 -0.00000000000E+00 -0.81178037820E+03  0.81178037821E+03  0.50400000000E-02 0. -1.
    8880023    1    1    2    0    0  0.29375261517E+03 -0.53557788790E+02  0.38375198664E+03  0.81867870937E+03  0.65864270000E+03 0.  0.
    8880022    1    1    2    0    0 -0.29375261517E+03  0.53557788790E+02 -0.54697246609E+03  0.64166156760E+03  0.15294330000E+03 0.  0.
<mgrwt>
<rscale>  0 0.59682509E+03</rscale>
<asrwt>0</asrwt>
<pdfrwt beam="1">  1        1 0.12488929E+00 0.72316612E+03</pdfrwt>
<pdfrwt beam="2">  1       -1 0.99778446E-01 0.72316612E+03</pdfrwt>
<totfact> 0.21317583E+01</totfact>
</mgrwt>
</event>
<event>
 4    5  0.7214169E-008  0.8052989E+03  0.7818608E-02  0.9699454E-01
          1   -1    0    0  501    0  0.00000000000E+00  0.00000000000E+00  0.48818140073E+04  0.48818140073E+04  0.50400000000E-02 0. -1.
         -1   -1    0    0    0  501 -0.00000000000E+00 -0.00000000000E+00 -0.30889466005E+03  0.30889466009E+03  0.50400000000E-02 0.  1.
    8880023    1    1    2    0    0  0.20609139627E+02  0.46289448906E+03  0.25413434194E+03  0.84444686905E+03  0.65864270000E+03 0.  1.
    8880022    1    1    2    0    0 -0.20609139627E+02 -0.46289448906E+03  0.43187850053E+04  0.43462617983E+04  0.15294330000E+03 0.  0.
<mgrwt>
<rscale>  0 0.71049321E+03</rscale>
<asrwt>0</asrwt>
<pdfrwt beam="1">  1        1 0.75104830E+00 0.80529886E+03</pdfrwt>
<pdfrwt beam="2">  1       -1 0.47522256E-01 0.80529886E+03</pdfrwt>
<totfact> 0.61447681E-02</totfact>
</mgrwt>
</event>
<event>
 4    5  0.7214169E-008  0.8230883E+03  0.7818608E-02  0.9662933E-01
          1   -1    0    0  501    0  0.00000000000E+00  0.00000000000E+00  0.80250793824E+03  0.80250793825E+03  0.50400000000E-02 0. -1.
         -1   -1    0    0    0  501 -0.00000000000E+00 -0.00000000000E+00 -0.10693656959E+04  0.10693656960E+04  0.50400000000E-02 0.  1.
    8880023    1    1    2    0    0 -0.49319249711E+03  0.20623636010E+02 -0.78690619448E+03  0.11387254888E+04  0.65864270000E+03 0.  0.
    8880022    1    1    2    0    0  0.49319249711E+03 -0.20623636010E+02  0.52004843677E+03  0.73314814545E+03  0.15294330000E+03 0.  0.
<mgrwt>
<rscale>  0 0.73267283E+03</rscale>
<asrwt>0</asrwt>
<pdfrwt beam="1">  1        1 0.12346276E+00 0.82308832E+03</pdfrwt>
<pdfrwt beam="2">  1       -1 0.16451780E+00 0.82308832E+03</pdfrwt>
<totfact> 0.60864769E+00</totfact>
</mgrwt>
</event>
<event>
 4    5  0.7214169E-008  0.7764607E+03  0.7818608E-02  0.9764218E-01
          1   -1    0    0  501    0  0.00000000000E+00  0.00000000000E+00  0.10395991926E+04  0.10395991926E+04  0.50400000000E-02 0. -1.
         -1   -1    0    0    0  501 -0.00000000000E+00 -0.00000000000E+00 -0.54607488636E+03  0.54607488638E+03  0.50400000000E-02 0.  1.
    8880023    1    1    2    0    0 -0.21421405758E+03  0.35098908447E+03 -0.16557053853E+03  0.79391738196E+03  0.65864270000E+03 0.  1.
    8880022    1    1    2    0    0  0.21421405758E+03 -0.35098908447E+03  0.65909484476E+03  0.79175669702E+03  0.15294330000E+03 0.  0.
<mgrwt>
<rscale>  0 0.67318702E+03</rscale>
<asrwt>0</asrwt>
<pdfrwt beam="1">  1        1 0.15993834E+00 0.77646069E+03</pdfrwt>
<pdfrwt beam="2">  1       -1 0.84011522E-01 0.77646069E+03</pdfrwt>
<totfact> 0.20313408E+01</totfact>
</mgrwt>
</event>
<event>
 4    5  0.7324114E-008  0.7963800E+03  0.7818608E-02  0.9718679E-01
          1   -1    0    0  501    0  0.00000000000E+00  0.00000000000E+00  0.11394017312E+04  0.11394017312E+04  0.50400000000E-02 0. -1.
         -1   -1    0    0    0  501 -0.00000000000E+00 -0.00000000000E+00 -0.12028297286E+04  0.12028297286E+04  0.50400000000E-02 0.  1.
    8880023    1    1    2    0    0  0.38014697232E+03  0.23643011693E+03 -0.10087023950E+04  0.12851854530E+04  0.65864270000E+03 0.  1.
    8880022    1    1    2    0    0 -0.38014697232E+03 -0.23643011693E+03  0.94527439762E+03  0.10570460068E+04  0.15294330000E+03 0.  0.
<mgrwt>
<rscale>  0 0.69915489E+03</rscale>
<asrwt>0</asrwt>
<pdfrwt beam="1">  1        1 0.17529257E+00 0.79638001E+03</pdfrwt>
<pdfrwt beam="2">  1       -1 0.18505073E+00 0.79638001E+03</pdfrwt>
<totfact> 0.23473793E+00</totfact>
</mgrwt>
</event>
<event>
 4    5  0.7214169E-008  0.8598280E+03  0.7818608E-02  0.9593869E-01
         -1   -1    0    0    0  501 -0.00000000000E+00  0.00000000000E+00  0.48873578501E+03  0.48873578503E+03  0.50400000000E-02 0.  1.
          1   -1    0    0  501    0  0.00000000000E+00 -0.00000000000E+00 -0.19117930608E+04  0.19117930608E+04  0.50400000000E-02 0. -1.
    8880023    1    1    2    0    0 -0.42829338288E+03  0.34936918553E+03  0.69035205421E+01  0.85985575213E+03  0.65864270000E+03 0.  0.
    8880022    1    1    2    0    0  0.42829338288E+03 -0.34936918553E+03 -0.14299607964E+04  0.15406730937E+04  0.15294330000E+03 0.  0.
<mgrwt>
<rscale>  0 0.77703276E+03</rscale>
<asrwt>0</asrwt>
<pdfrwt beam="1">  1        1 0.29412201E+00 0.85982804E+03</pdfrwt>
<pdfrwt beam="2">  1       -1 0.75190122E-01 0.85982804E+03</pdfrwt>
<totfact> 0.62614330E+00</totfact>
</mgrwt>
</event>
<event>
 4    5  0.7214169E-008  0.8567439E+03  0.7818608E-02  0.9599382E-01
          1   -1    0    0  501    0  0.00000000000E+00  0.00000000000E+00  0.17726357970E+04  0.17726357970E+04  0.50400000000E-02 0. -1.
         -1   -1    0    0    0  501 -0.00000000000E+00 -0.00000000000E+00 -0.43168091595E+03  0.43168091598E+03  0.50400000000E-02 0.  1.
    8880023    1    1    2    0    0 -0.50757289903E+03  0.20632418034E+03  0.13019078504E+03  0.86657934547E+03  0.65864270000E+03 0.  1.
    8880022    1    1    2    0    0  0.50757289903E+03 -0.20632418034E+03  0.12107640960E+04  0.13377373675E+04  0.15294330000E+03 0.  0.
<mgrwt>
<rscale>  0 0.77337106E+03</rscale>
<asrwt>0</asrwt>
<pdfrwt beam="1">  1        1 0.27271320E+00 0.85674391E+03</pdfrwt>
<pdfrwt beam="2">  1       -1 0.66412448E-01 0.85674391E+03</pdfrwt>
<totfact> 0.10028562E+01</totfact>
</mgrwt>
</event>
<event>
 4    5  0.7214169E-008  0.8327115E+03  0.7818608E-02  0.9644080E-01
         -1   -1    0    0    0  501 -0.00000000000E+00  0.00000000000E+00  0.36720889248E+03  0.36720889251E+03  0.50400000000E-02 0.  1.
          1   -1    0    0  501    0  0.00000000000E+00 -0.00000000000E+00 -0.20032452713E+04  0.20032452713E+04  0.50400000000E-02 0. -1.
    8880023    1    1    2    0    0  0.45494788732E+03 -0.22939184581E+03 -0.22515235739E+03  0.86261346466E+03  0.65864270000E+03 0.  1.
    8880022    1    1    2    0    0 -0.45494788732E+03  0.22939184581E+03 -0.14108840214E+04  0.15078406992E+04  0.15294330000E+03 0.  0.
<mgrwt>
<rscale>  0 0.74446155E+03</rscale>
<asrwt>0</asrwt>
<pdfrwt beam="1">  1        1 0.30819158E+00 0.83271148E+03</pdfrwt>
<pdfrwt beam="2">  1       -1 0.56493677E-01 0.83271148E+03</pdfrwt>
<totfact> 0.97139506E+00</totfact>
</mgrwt>
</event>
<event>
 4    5  0.7214169E-008  0.1396169E+04  0.7818608E-02  0.8986665E-01
         -1   -1    0    0    0  501 -0.00000000000E+00  0.00000000000E+00  0.20619797474E+04  0.20619797474E+04  0.50400000000E-02 0.  1.
          1   -1    0    0  501    0  0.00000000000E+00 -0.00000000000E+00 -0.89390954356E+03  0.89390954357E+03  0.50400000000E-02 0. -1.
    8880023    1    1    2    0    0  0.12300913022E+04 -0.48514459841E+02  0.96905096065E+03  0.16995141174E+04  0.65864270000E+03 0.  0.
    8880022    1    1    2    0    0 -0.12300913022E+04  0.48514459841E+02  0.19901924319E+03  0.12563751736E+04  0.15294330000E+03 0.  0.
<mgrwt>
<rscale>  0 0.13555133E+04</rscale>
<asrwt>0</asrwt>
<pdfrwt beam="1">  1        1 0.13752455E+00 0.13961692E+04</pdfrwt>
<pdfrwt beam="2">  1       -1 0.31722765E+00 0.13961692E+04</pdfrwt>
<totfact> 0.45297062E-01</totfact>
</mgrwt>
</event>
<event>
 4    5  0.7214169E-008  0.8288761E+03  0.7818608E-02  0.9651523E-01
         -1   -1    0    0    0  501 -0.00000000000E+00  0.00000000000E+00  0.71942476679E+03  0.71942476681E+03  0.50400000000E-02 0.  1.
          1   -1    0    0  501    0  0.00000000000E+00 -0.00000000000E+00 -0.87798505773E+03  0.87798505774E+03  0.50400000000E-02 0. -1.
    8880023    1    1    2    0    0 -0.25467999162E+03  0.43400861369E+03  0.31789239268E+03  0.88774498279E+03  0.65864270000E+03 0.  1.
    8880022    1    1    2    0    0  0.25467999162E+03 -0.43400861369E+03 -0.47645268362E+03  0.70966484176E+03  0.15294330000E+03 0.  0.
<mgrwt>
<rscale>  0 0.73977913E+03</rscale>
<asrwt>0</asrwt>
<pdfrwt beam="1">  1        1 0.13507462E+00 0.82887610E+03</pdfrwt>
<pdfrwt beam="2">  1       -1 0.11068073E+00 0.82887610E+03</pdfrwt>
<totfact> 0.14557123E+01</totfact>
</mgrwt>
</event>
<event>
 4    5  0.7214169E-008  0.7901873E+03  0.7818608E-02  0.9732429E-01
          1   -1    0    0  501    0  0.00000000000E+00  0.00000000000E+00  0.82831887905E+03  0.82831887907E+03  0.50400000000E-02 0. -1.
         -1   -1    0    0    0  501 -0.00000000000E+00 -0.00000000000E+00 -0.71193905859E+03  0.71193905861E+03  0.50400000000E-02 0.  1.
    8880023    1    1    2    0    0 -0.40691723426E+03 -0.15812674186E+03  0.50358429174E+03  0.93701283192E+03  0.65864270000E+03 0. -1.
    8880022    1    1    2    0    0  0.40691723426E+03  0.15812674186E+03 -0.38720447128E+03  0.60324510576E+03  0.15294330000E+03 0.  0.
<mgrwt>
<rscale>  0 0.69118371E+03</rscale>
<asrwt>0</asrwt>
<pdfrwt beam="1">  1        1 0.12743367E+00 0.79018726E+03</pdfrwt>
<pdfrwt beam="2">  1       -1 0.10952909E+00 0.79018726E+03</pdfrwt>
<totfact> 0.16494935E+01</totfact>
</mgrwt>
</event>
<event>
 4    5  0.7214169E-008  0.6860489E+03  0.7818608E-02  0.1006090E+00
          1   -1    0    0  501    0  0.00000000000E+00  0.00000000000E+00  0.26093147610E+04  0.26093147610E+04  0.50400000000E-02 0. -1.
         -1   -1    0    0    0  501 -0.00000000000E+00 -0.00000000000E+00 -0.79322891942E+03  0.79322891943E+03  0.50400000000E-02 0.  1.
    8880023    1    1    2    0    0 -0.12066901616E+03  0.14930483470E+03 -0.63761440540E+03  0.93659771587E+03  0.65864270000E+03 0.  1.
    8880022    1    1    2    0    0  0.12066901616E+03 -0.14930483470E+03  0.24537002470E+04  0.24659459646E+04  0.15294330000E+03 0.  0.
<mgrwt>
<rscale>  0 0.53058637E+03</rscale>
<asrwt>0</asrwt>
<pdfrwt beam="1">  1        1 0.40143303E+00 0.68604894E+03</pdfrwt>
<pdfrwt beam="2">  1       -1 0.12203522E+00 0.68604894E+03</pdfrwt>
<totfact> 0.73473436E-01</totfact>
</mgrwt>
</event>
<event>
 4    5  0.7214169E-008  0.7740150E+03  0.7818608E-02  0.9770088E-01
         -1   -1    0    0    0  501 -0.00000000000E+00  0.00000000000E+00  0.50896269932E+03  0.50896269935E+03  0.50400000000E-02 0.  1.
          1   -1    0    0  501    0  0.00000000000E+00 -0.00000000000E+00 -0.94167441059E+03  0.94167441060E+03  0.50400000000E-02 0. -1.
    8880023    1    1    2    0    0 -0.29213713221E+03  0.28274532759E+03  0.80601521284E+02  0.77820038280E+03  0.65864270000E+03 0.  1.
    8880022    1    1    2    0    0  0.29213713221E+03 -0.28274532759E+03 -0.51331323255E+03  0.67243672715E+03  0.15294330000E+03 0.  0.
<mgrwt>
<rscale>  0 0.66992774E+03</rscale>
<asrwt>0</asrwt>
<pdfrwt beam="1">  1        1 0.14487299E+00 0.77401501E+03</pdfrwt>
<pdfrwt beam="2">  1       -1 0.78301954E-01 0.77401501E+03</pdfrwt>
<totfact> 0.28146901E+01</totfact>
</mgrwt>
</event>
<event>
 4    5  0.7214169E-008  0.6926914E+03  0.7818608E-02  0.1002899E+00
          1   -1    0    0  501    0  0.00000000000E+00  0.00000000000E+00  0.97529399496E+03  0.97529399497E+03  0.50400000000E-02 0. -1.
         -1   -1    0    0    0  501 -0.00000000000E+00 -0.00000000000E+00 -0.10023929110E+04  0.10023929110E+04  0.50400000000E-02 0.  1.
    8880023    1    1    2    0    0 -0.71785917807E+02 -0.20213341061E+03 -0.85990842702E+03  0.11042028087E+04  0.65864270000E+03 0.  1.
    8880022    1    1    2    0    0  0.71785917807E+02  0.20213341061E+03  0.83280951095E+03  0.87348409729E+03  0.15294330000E+03 0.  0.
<mgrwt>
<rscale>  0 0.54397250E+03</rscale>
<asrwt>0</asrwt>
<pdfrwt beam="1">  1        1 0.15004523E+00 0.69269137E+03</pdfrwt>
<pdfrwt beam="2">  1       -1 0.15421429E+00 0.69269137E+03</pdfrwt>
<totfact> 0.53540544E+00</totfact>
</mgrwt>
</event>
<event>
 4    5  0.7214169E-008  0.8321714E+03  0.7818608E-02  0.9645122E-01
         -1   -1    0    0    0  501 -0.00000000000E+00  0.00000000000E+00  0.11022695077E+04  0.11022695077E+04  0.50400000000E-02 0.  1.
          1   -1    0    0  501    0  0.00000000000E+00 -0.00000000000E+00 -0.10792129932E+04  0.10792129932E+04  0.50400000000E-02 0. -1.
    8880023    1    1    2    0    0 -0.18389083400E+03 -0.47421844082E+03  0.85585707503E+03  0.11937338512E+04  0.65864270000E+03 0.  1.
    8880022    1    1    2    0    0  0.18389083400E+03  0.47421844082E+03 -0.83280056053E+03  0.98774864975E+03  0.15294330000E+03 0.  0.
<mgrwt>
<rscale>  0 0.74380339E+03</rscale>
<asrwt>0</asrwt>
<pdfrwt beam="1">  1        1 0.16603277E+00 0.83217136E+03</pdfrwt>
<pdfrwt beam="2">  1       -1 0.16957992E+00 0.83217136E+03</pdfrwt>
<totfact> 0.33439865E+00</totfact>
</mgrwt>
</event>
<event>
 4    5  0.7214169E-008  0.8411813E+03  0.7818608E-02  0.9627957E-01
         -1   -1    0    0    0  501 -0.00000000000E+00  0.00000000000E+00  0.65830488330E+03  0.65830488332E+03  0.50400000000E-02 0.  1.
          1   -1    0    0  501    0  0.00000000000E+00 -0.00000000000E+00 -0.18597831264E+04  0.18597831264E+04  0.50400000000E-02 0. -1.
    8880023    1    1    2    0    0  0.45759873473E+03 -0.25373046775E+03  0.32147016994E+03  0.90051597916E+03  0.65864270000E+03 0.  1.
    8880022    1    1    2    0    0 -0.45759873473E+03  0.25373046775E+03 -0.15229484130E+04  0.16175720306E+04  0.15294330000E+03 0.  0.
<mgrwt>
<rscale>  0 0.75473128E+03</rscale>
<asrwt>0</asrwt>
<pdfrwt beam="1">  1        1 0.28612048E+00 0.84118129E+03</pdfrwt>
<pdfrwt beam="2">  1       -1 0.10127768E+00 0.84118129E+03</pdfrwt>
<totfact> 0.35478261E+00</totfact>
</mgrwt>
</event>
<event>
 4    5  0.7214169E-008  0.1066313E+04  0.7818608E-02  0.9299524E-01
         -1   -1    0    0    0  501 -0.00000000000E+00  0.00000000000E+00  0.10636475244E+04  0.10636475244E+04  0.50400000000E-02 0.  1.
          1   -1    0    0  501    0  0.00000000000E+00 -0.00000000000E+00 -0.22204127593E+04  0.22204127593E+04  0.50400000000E-02 0. -1.
    8880023    1    1    2    0    0 -0.77632631704E+03 -0.31706443719E+03  0.67615875226E+03  0.12626215872E+04  0.65864270000E+03 0.  1.
    8880022    1    1    2    0    0  0.77632631704E+03  0.31706443719E+03 -0.18329239872E+04  0.20214386965E+04  0.15294330000E+03 0.  0.
<mgrwt>
<rscale>  0 0.10082672E+04</rscale>
<asrwt>0</asrwt>
<pdfrwt beam="1">  1        1 0.34160196E+00 0.10663126E+04</pdfrwt>
<pdfrwt beam="2">  1       -1 0.16363808E+00 0.10663126E+04</pdfrwt>
<totfact> 0.58079096E-01</totfact>
</mgrwt>
</event>
<event>
 4    5  0.7214169E-008  0.8343626E+03  0.7818608E-02  0.9640903E-01
          1   -1    0    0  501    0  0.00000000000E+00  0.00000000000E+00  0.26197946505E+04  0.26197946505E+04  0.50400000000E-02 0. -1.
         -1   -1    0    0    0  501 -0.00000000000E+00 -0.00000000000E+00 -0.64364685875E+03  0.64364685877E+03  0.50400000000E-02 0.  1.
    8880023    1    1    2    0    0 -0.47070622328E+03  0.20195626865E+03 -0.32918011110E+03  0.89695063125E+03  0.65864270000E+03 0.  1.
    8880022    1    1    2    0    0  0.47070622328E+03 -0.20195626865E+03  0.23053279028E+04  0.23664908780E+04  0.15294330000E+03 0.  0.
<mgrwt>
<rscale>  0 0.74647099E+03</rscale>
<asrwt>0</asrwt>
<pdfrwt beam="1">  1        1 0.40304532E+00 0.83436256E+03</pdfrwt>
<pdfrwt beam="2">  1       -1 0.99022595E-01 0.83436256E+03</pdfrwt>
<totfact> 0.11448486E+00</totfact>
</mgrwt>
</event>
<event>
 4    5  0.7214169E-008  0.7034154E+03  0.7818608E-02  0.9983317E-01
          1   -1    0    0  501    0  0.00000000000E+00  0.00000000000E+00  0.70889916977E+03  0.70889916978E+03  0.50400000000E-02 0. -1.
         -1   -1    0    0    0  501 -0.00000000000E+00 -0.00000000000E+00 -0.78080787335E+03  0.78080787336E+03  0.50400000000E-02 0.  1.
    8880023    1    1    2    0    0 -0.24624897673E+03 -0.18557913512E+02 -0.57517037664E+03  0.90863310699E+03  0.65864270000E+03 0.  1.
    8880022    1    1    2    0    0  0.24624897673E+03  0.18557913512E+02  0.50326167306E+03  0.58107393615E+03  0.15294330000E+03 0.  0.
<mgrwt>
<rscale>  0 0.56387826E+03</rscale>
<asrwt>0</asrwt>
<pdfrwt beam="1">  1        1 0.10906141E+00 0.70341535E+03</pdfrwt>
<pdfrwt beam="2">  1       -1 0.12012429E+00 0.70341535E+03</pdfrwt>
<totfact> 0.17056385E+01</totfact>
</mgrwt>
</event>
<event>
 4    5  0.7214169E-008  0.1293638E+04  0.7818608E-02  0.9071074E-01
          1   -1    0    0  501    0  0.00000000000E+00  0.00000000000E+00  0.26515111278E+04  0.26515111278E+04  0.50400000000E-02 0. -1.
         -1   -1    0    0    0  501 -0.00000000000E+00 -0.00000000000E+00 -0.61956944294E+03  0.61956944297E+03  0.50400000000E-02 0.  1.
    8880023    1    1    2    0    0  0.17116236374E+03 -0.11001780956E+04  0.16221834508E+04  0.20748440306E+04  0.65864270000E+03 0.  0.
    8880022    1    1    2    0    0 -0.17116236374E+03  0.11001780956E+04  0.40975823404E+03  0.11962365402E+04  0.15294330000E+03 0.  0.
<mgrwt>
<rscale>  0 0.12489308E+04</rscale>
<asrwt>0</asrwt>
<pdfrwt beam="1">  1        1 0.40792479E+00 0.12936377E+04</pdfrwt>
<pdfrwt beam="2">  1       -1 0.95318376E-01 0.12936377E+04</pdfrwt>
<totfact> 0.11063270E+00</totfact>
</mgrwt>
</event>
<event>
 4    5  0.7214169E-008  0.7932512E+03  0.7818608E-02  0.9725583E-01
          1   -1    0    0  501    0  0.00000000000E+00  0.00000000000E+00  0.13292694486E+04  0.13292694486E+04  0.50400000000E-02 0. -1.
         -1   -1    0    0    0  501 -0.00000000000E+00 -0.00000000000E+00 -0.87194347234E+03  0.87194347236E+03  0.50400000000E-02 0.  1.
    8880023    1    1    2    0    0 -0.37284570852E+03 -0.23753603926E+03 -0.63294498712E+03  0.10148235587E+04  0.65864270000E+03 0.  0.
    8880022    1    1    2    0    0  0.37284570852E+03  0.23753603926E+03  0.10902709634E+04  0.11863893623E+04  0.15294330000E+03 0.  0.
<mgrwt>
<rscale>  0 0.69513820E+03</rscale>
<asrwt>0</asrwt>
<pdfrwt beam="1">  1        1 0.20450299E+00 0.79325122E+03</pdfrwt>
<pdfrwt beam="2">  1       -1 0.13414515E+00 0.79325122E+03</pdfrwt>
<totfact> 0.41711430E+00</totfact>
</mgrwt>
</event>
<event>
 4    5  0.7214169E-008  0.6840369E+03  0.7818608E-02  0.1007127E+00
          1   -1    0    0  501    0  0.00000000000E+00  0.00000000000E+00  0.19909435078E+04  0.19909435078E+04  0.50400000000E-02 0. -1.
         -1   -1    0    0    0  501 -0.00000000000E+00 -0.00000000000E+00 -0.23342309100E+03  0.23342309106E+03  0.50400000000E-02 0.  1.
    8880023    1    1    2    0    0 -0.17446034631E+03  0.60496279285E+02  0.29944419774E+03  0.74670827374E+03  0.65864270000E+03 0.  1.
    8880022    1    1    2    0    0  0.17446034631E+03 -0.60496279285E+02  0.14580762190E+04  0.14776583251E+04  0.15294330000E+03 0.  0.
<mgrwt>
<rscale>  0 0.52632821E+03</rscale>
<asrwt>0</asrwt>
<pdfrwt beam="1">  1        1 0.30629900E+00 0.68403685E+03</pdfrwt>
<pdfrwt beam="2">  1       -1 0.35911245E-01 0.68403685E+03</pdfrwt>
<totfact> 0.23499352E+01</totfact>
</mgrwt>
</event>
<event>
 4    5  0.7214169E-008  0.8806895E+03  0.7818608E-02  0.9557770E-01
          1   -1    0    0  501    0  0.00000000000E+00  0.00000000000E+00  0.69608520910E+03  0.69608520912E+03  0.50400000000E-02 0. -1.
         -1   -1    0    0    0  501 -0.00000000000E+00 -0.00000000000E+00 -0.13532924141E+04  0.13532924141E+04  0.50400000000E-02 0.  1.
    8880023    1    1    2    0    0  0.35668179592E+03  0.46322992884E+03 -0.10175838137E+04  0.13457677714E+04  0.65864270000E+03 0.  1.
    8880022    1    1    2    0    0 -0.35668179592E+03 -0.46322992884E+03  0.36037660864E+03  0.70360985183E+03  0.15294330000E+03 0.  0.
<mgrwt>
<rscale>  0 0.80155405E+03</rscale>
<asrwt>0</asrwt>
<pdfrwt beam="1">  1        1 0.10709003E+00 0.88068955E+03</pdfrwt>
<pdfrwt beam="2">  1       -1 0.20819883E+00 0.88068955E+03</pdfrwt>
<totfact> 0.37039899E+00</totfact>
</mgrwt>
</event>
<event>
 4    5  0.7214169E-008  0.7381236E+03  0.7818608E-02  0.9865447E-01
         -1   -1    0    0    0  501 -0.00000000000E+00  0.00000000000E+00  0.55900992376E+03  0.55900992379E+03  0.50400000000E-02 0.  1.
          1   -1    0    0  501    0  0.00000000000E+00 -0.00000000000E+00 -0.12165883236E+04  0.12165883236E+04  0.50400000000E-02 0. -1.
    8880023    1    1    2    0    0 -0.25989497559E+03  0.20849669942E+03  0.26388900524E+03  0.78387746833E+03  0.65864270000E+03 0.  1.
    8880022    1    1    2    0    0  0.25989497559E+03 -0.20849669942E+03 -0.92146740510E+03  0.99172077910E+03  0.15294330000E+03 0.  0.
<mgrwt>
<rscale>  0 0.61965497E+03</rscale>
<asrwt>0</asrwt>
<pdfrwt beam="1">  1        1 0.18716743E+00 0.73812362E+03</pdfrwt>
<pdfrwt beam="2">  1       -1 0.86001527E-01 0.73812362E+03</pdfrwt>
<totfact> 0.14350025E+01</totfact>
</mgrwt>
</event>
<event>
 4    5  0.7214169E-008  0.1548163E+04  0.7818608E-02  0.8876354E-01
          1   -1    0    0  501    0  0.00000000000E+00  0.00000000000E+00  0.24695549050E+04  0.24695549050E+04  0.50400000000E-02 0. -1.
         -1   -1    0    0    0  501 -0.00000000000E+00 -0.00000000000E+00 -0.11442976134E+04  0.11442976135E+04  0.50400000000E-02 0.  1.
    8880023    1    1    2    0    0 -0.14010661087E+04 -0.35106228556E+01  0.15452716228E+04  0.21873895766E+04  0.65864270000E+03 0.  0.
    8880022    1    1    2    0    0  0.14010661087E+04  0.35106228556E+01 -0.22001433125E+03  0.14264629418E+04  0.15294330000E+03 0.  0.
<mgrwt>
<rscale>  0 0.15122395E+04</rscale>
<asrwt>0</asrwt>
<pdfrwt beam="1">  1        1 0.37993152E+00 0.15481630E+04</pdfrwt>
<pdfrwt beam="2">  1       -1 0.17604579E+00 0.15481630E+04</pdfrwt>
<totfact> 0.29777373E-01</totfact>
</mgrwt>
</event>
<event>
 4    5  0.7214169E-008  0.6844364E+03  0.7818608E-02  0.1006918E+00
         -1   -1    0    0    0  501 -0.00000000000E+00  0.00000000000E+00  0.98295438501E+03  0.98295438502E+03  0.50400000000E-02 0.  1.
          1   -1    0    0  501    0  0.00000000000E+00 -0.00000000000E+00 -0.21254096270E+04  0.21254096270E+04  0.50400000000E-02 0. -1.
    8880023    1    1    2    0    0 -0.20140928212E+02 -0.18503333512E+03  0.85569189580E+03  0.10957471510E+04  0.65864270000E+03 0.  1.
    8880022    1    1    2    0    0  0.20140928212E+02  0.18503333512E+03 -0.19981471378E+04  0.20126168611E+04  0.15294330000E+03 0.  0.
<mgrwt>
<rscale>  0 0.52718221E+03</rscale>
<asrwt>0</asrwt>
<pdfrwt beam="1">  1        1 0.32698610E+00 0.68443641E+03</pdfrwt>
<pdfrwt beam="2">  1       -1 0.15122375E+00 0.68443641E+03</pdfrwt>
<totfact> 0.90076723E-01</totfact>
</mgrwt>
</event>
<event>
 4    5  0.7214169E-008  0.1268382E+04  0.7818608E-02  0.9093357E-01
          1   -1    0    0  501    0  0.00000000000E+00  0.00000000000E+00  0.86015016043E+03  0.86015016044E+03  0.50400000000E-02 0. -1.
         -1   -1    0    0    0  501 -0.00000000000E+00 -0.00000000000E+00 -0.20108151073E+04  0.20108151073E+04  0.50400000000E-02 0.  1.
    8880023    1    1    2    0    0  0.36546599224E+03  0.10204981116E+04 -0.12384817039E+04  0.17727461534E+04  0.65864270000E+03 0. -1.
    8880022    1    1    2    0    0 -0.36546599224E+03 -0.10204981116E+04  0.87816757039E+02  0.10982191143E+04  0.15294330000E+03 0.  0.
<mgrwt>
<rscale>  0 0.12225355E+04</rscale>
<asrwt>0</asrwt>
<pdfrwt beam="1">  1        1 0.13233079E+00 0.12683816E+04</pdfrwt>
<pdfrwt beam="2">  1       -1 0.30935617E+00 0.12683816E+04</pdfrwt>
<totfact> 0.55181767E-01</totfact>
</mgrwt>
</event>
<event>
 4    5  0.7214169E-008  0.1085492E+04  0.7818608E-02  0.9277383E-01
          1   -1    0    0  501    0  0.00000000000E+00  0.00000000000E+00  0.93082260957E+03  0.93082260958E+03  0.50400000000E-02 0. -1.
         -1   -1    0    0    0  501 -0.00000000000E+00 -0.00000000000E+00 -0.10662684098E+04  0.10662684099E+04  0.50400000000E-02 0.  1.
    8880023    1    1    2    0    0  0.71800540098E+03 -0.47848893036E+03 -0.24841446907E+03  0.11135543844E+04  0.65864270000E+03 0.  1.
    8880022    1    1    2    0    0 -0.71800540098E+03  0.47848893036E+03  0.11296866879E+03  0.88353663503E+03  0.15294330000E+03 0.  0.
<mgrwt>
<rscale>  0 0.10289195E+04</rscale>
<asrwt>0</asrwt>
<pdfrwt beam="1">  1        1 0.14320348E+00 0.10854923E+04</pdfrwt>
<pdfrwt beam="2">  1       -1 0.16404129E+00 0.10854923E+04</pdfrwt>
<totfact> 0.46481143E+00</totfact>
</mgrwt>
</event>
<event>
 4    5  0.7214169E-008  0.1076104E+04  0.7818608E-02  0.9288139E-01
          1   -1    0    0  501    0  0.00000000000E+00  0.00000000000E+00  0.11503399961E+04  0.11503399962E+04  0.50400000000E-02 0. -1.
         -1   -1    0    0    0  501 -0.00000000000E+00 -0.00000000000E+00 -0.11838065147E+04  0.11838065147E+04  0.50400000000E-02 0.  1.
    8880023    1    1    2    0    0  0.27302350572E+03  0.80600782018E+03 -0.66359852025E+03  0.12642640718E+04  0.65864270000E+03 0.  1.
    8880022    1    1    2    0    0 -0.27302350572E+03 -0.80600782018E+03  0.63013200169E+03  0.10698824391E+04  0.15294330000E+03 0.  0.
<mgrwt>
<rscale>  0 0.10188216E+04</rscale>
<asrwt>0</asrwt>
<pdfrwt beam="1">  1        1 0.17697538E+00 0.10761044E+04</pdfrwt>
<pdfrwt beam="2">  1       -1 0.18212408E+00 0.10761044E+04</pdfrwt>
<totfact> 0.23229745E+00</totfact>
</mgrwt>
</event>
<event>
 4    5  0.7214169E-008  0.6885508E+03  0.7818608E-02  0.1004849E+00
         -1   -1    0    0    0  501 -0.00000000000E+00  0.00000000000E+00  0.12191196093E+04  0.12191196093E+04  0.50400000000E-02 0.  1.
          1   -1    0    0  501    0  0.00000000000E+00 -0.00000000000E+00 -0.94567296451E+03  0.94567296453E+03  0.50400000000E-02 0. -1.
    8880023    1    1    2    0    0 -0.11755549845E+03  0.16270447947E+03  0.11015762994E+04  0.12990660462E+04  0.65864270000E+03 0.  0.
    8880022    1    1    2    0    0  0.11755549845E+03 -0.16270447947E+03 -0.82812965456E+03  0.86572652763E+03  0.15294330000E+03 0. -1.
<mgrwt>
<rscale>  0 0.53574181E+03</rscale>
<asrwt>0</asrwt>
<pdfrwt beam="1">  1        1 0.14548815E+00 0.68855083E+03</pdfrwt>
<pdfrwt beam="2">  1       -1 0.18755686E+00 0.68855083E+03</pdfrwt>
<totfact> 0.32280641E+00</totfact>
</mgrwt>
</event>
<event>
 4    5  0.7214169E-008  0.6789558E+03  0.7818608E-02  0.1009921E+00
         -1   -1    0    0    0  501 -0.00000000000E+00  0.00000000000E+00  0.18402048676E+03  0.18402048683E+03  0.50400000000E-02 0.  1.
          1   -1    0    0  501    0  0.00000000000E+00 -0.00000000000E+00 -0.16525901634E+04  0.16525901634E+04  0.50400000000E-02 0. -1.
    8880023    1    1    2    0    0 -0.14691871717E+03  0.74736986805E+02 -0.50240688115E+03  0.84462631213E+03  0.65864270000E+03 0.  0.
    8880022    1    1    2    0    0  0.14691871717E+03 -0.74736986805E+02 -0.96616279548E+03  0.99198433810E+03  0.15294330000E+03 0.  0.
<mgrwt>
<rscale>  0 0.51506205E+03</rscale>
<asrwt>0</asrwt>
<pdfrwt beam="1">  1        1 0.25424463E+00 0.67895577E+03</pdfrwt>
<pdfrwt beam="2">  1       -1 0.28310845E-01 0.67895577E+03</pdfrwt>
<totfact> 0.60097580E+01</totfact>
</mgrwt>
</event>
<event>
 4    5  0.7214169E-008  0.7409910E+03  0.7818608E-02  0.9857070E-01
         -1   -1    0    0    0  501 -0.00000000000E+00  0.00000000000E+00  0.11058306770E+04  0.11058306771E+04  0.50400000000E-02 0.  1.
          1   -1    0    0  501    0  0.00000000000E+00 -0.00000000000E+00 -0.79219570400E+03  0.79219570401E+03  0.50400000000E-02 0. -1.
    8880023    1    1    2    0    0 -0.23863808462E+03  0.24147316893E+03  0.92316173238E+03  0.11837631592E+04  0.65864270000E+03 0.  1.
    8880022    1    1    2    0    0  0.23863808462E+03 -0.24147316893E+03 -0.60952675932E+03  0.71426322185E+03  0.15294330000E+03 0.  0.
<mgrwt>
<rscale>  0 0.62387749E+03</rscale>
<asrwt>0</asrwt>
<pdfrwt beam="1">  1        1 0.12187626E+00 0.74099098E+03</pdfrwt>
<pdfrwt beam="2">  1       -1 0.17012780E+00 0.74099098E+03</pdfrwt>
<totfact> 0.57142618E+00</totfact>
</mgrwt>
</event>
<event>
 4    5  0.8731694E-008  0.7368542E+03  0.7818608E-02  0.9869207E-01
          1   -1    0    0  501    0  0.00000000000E+00  0.00000000000E+00  0.17967340428E+04  0.17967340428E+04  0.50400000000E-02 0. -1.
         -1   -1    0    0    0  501 -0.00000000000E+00 -0.00000000000E+00 -0.18152000741E+04  0.18152000741E+04  0.50400000000E-02 0.  1.
    8880023    1    1    2    0    0  0.32394268616E+03  0.64846405839E+02 -0.17203687056E+04  0.18715294841E+04  0.65864270000E+03 0.  1.
    8880022    1    1    2    0    0 -0.32394268616E+03 -0.64846405839E+02  0.17019026743E+04  0.17404046329E+04  0.15294330000E+03 0.  0.
<mgrwt>
<rscale>  0 0.61777131E+03</rscale>
<asrwt>0</asrwt>
<pdfrwt beam="1">  1        1 0.27642062E+00 0.73685421E+03</pdfrwt>
<pdfrwt beam="2">  1       -1 0.27926155E+00 0.73685421E+03</pdfrwt>
<totfact> 0.19872194E-01</totfact>
</mgrwt>
</event>
<event>
 4    5  0.7214169E-008  0.8170783E+03  0.7818608E-02  0.9675017E-01
          1   -1    0    0  501    0  0.00000000000E+00  0.00000000000E+00  0.11123625480E+04  0.11123625480E+04  0.50400000000E-02 0. -1.
         -1   -1    0    0    0  501 -0.00000000000E+00 -0.00000000000E+00 -0.44791882244E+03  0.44791882247E+03  0.50400000000E-02 0.  1.
    8880023    1    1    2    0    0  0.47812792325E+03  0.72113981853E+02  0.13683774928E+03  0.82845730926E+03  0.65864270000E+03 0.  0.
    8880022    1    1    2    0    0 -0.47812792325E+03 -0.72113981853E+02  0.52760597628E+03  0.73182406123E+03  0.15294330000E+03 0.  0.
<mgrwt>
<rscale>  0 0.72523923E+03</rscale>
<asrwt>0</asrwt>
<pdfrwt beam="1">  1        1 0.17113270E+00 0.81707830E+03</pdfrwt>
<pdfrwt beam="2">  1       -1 0.68910589E-01 0.81707830E+03</pdfrwt>
<totfact> 0.26997438E+01</totfact>
</mgrwt>
</event>
<event>
 4    5  0.7214169E-008  0.7563388E+03  0.7818608E-02  0.9814680E-01
          1   -1    0    0  501    0  0.00000000000E+00  0.00000000000E+00  0.20605203766E+04  0.20605203766E+04  0.50400000000E-02 0. -1.
         -1   -1    0    0    0  501 -0.00000000000E+00 -0.00000000000E+00 -0.29218026639E+03  0.29218026643E+03  0.50400000000E-02 0.  1.
    8880023    1    1    2    0    0 -0.34502146614E+03  0.13855839134E+03  0.27274699095E+03  0.80401453174E+03  0.65864270000E+03 0.  0.
    8880022    1    1    2    0    0  0.34502146614E+03 -0.13855839134E+03  0.14955931192E+04  0.15486861113E+04  0.15294330000E+03 0.  0.
<mgrwt>
<rscale>  0 0.64580665E+03</rscale>
<asrwt>0</asrwt>
<pdfrwt beam="1">  1        1 0.31700313E+00 0.75633884E+03</pdfrwt>
<pdfrwt beam="2">  1       -1 0.44950811E-01 0.75633884E+03</pdfrwt>
<totfact> 0.13882281E+01</totfact>
</mgrwt>
</event>
<event>
 4    5  0.7214169E-008  0.1401320E+04  0.7818608E-02  0.8982658E-01
          1   -1    0    0  501    0  0.00000000000E+00  0.00000000000E+00  0.17874427642E+04  0.17874427642E+04  0.50400000000E-02 0. -1.
         -1   -1    0    0    0  501 -0.00000000000E+00 -0.00000000000E+00 -0.26975572381E+04  0.26975572381E+04  0.50400000000E-02 0.  1.
    8880023    1    1    2    0    0  0.79832075140E+03 -0.94475986494E+03 -0.22527770683E+04  0.26530552106E+04  0.65864270000E+03 0.  1.
    8880022    1    1    2    0    0 -0.79832075140E+03  0.94475986494E+03  0.13426625944E+04  0.18319447917E+04  0.15294330000E+03 0.  0.
<mgrwt>
<rscale>  0 0.13608465E+04</rscale>
<asrwt>0</asrwt>
<pdfrwt beam="1">  1        1 0.27499120E+00 0.14013199E+04</pdfrwt>
<pdfrwt beam="2">  1       -1 0.41500880E+00 0.14013199E+04</pdfrwt>
<totfact> 0.22487525E-02</totfact>
</mgrwt>
</event>
<event>
 4    5  0.7214169E-008  0.7891161E+03  0.7818608E-02  0.9734843E-01
          1   -1    0    0  501    0  0.00000000000E+00  0.00000000000E+00  0.13176053593E+04  0.13176053593E+04  0.50400000000E-02 0. -1.
         -1   -1    0    0    0  501 -0.00000000000E+00 -0.00000000000E+00 -0.44182449228E+03  0.44182449231E+03  0.50400000000E-02 0.  1.
    8880023    1    1    2    0    0  0.25386473150E+03  0.35277006437E+03  0.22189707994E+02  0.78942802688E+03  0.65864270000E+03 0.  0.
    8880022    1    1    2    0    0 -0.25386473150E+03 -0.35277006437E+03  0.85359115900E+03  0.97000182471E+03  0.15294330000E+03 0.  0.
<mgrwt>
<rscale>  0 0.68979615E+03</rscale>
<asrwt>0</asrwt>
<pdfrwt beam="1">  1        1 0.20270852E+00 0.78911610E+03</pdfrwt>
<pdfrwt beam="2">  1       -1 0.67972999E-01 0.78911610E+03</pdfrwt>
<totfact> 0.19784552E+01</totfact>
</mgrwt>
</event>
<event>
 4    5  0.7214169E-008  0.1294609E+04  0.7818608E-02  0.9070229E-01
         -1   -1    0    0    0  501 -0.00000000000E+00  0.00000000000E+00  0.79730317648E+03  0.79730317650E+03  0.50400000000E-02 0.  1.
          1   -1    0    0  501    0  0.00000000000E+00 -0.00000000000E+00 -0.21136355815E+04  0.21136355816E+04  0.50400000000E-02 0. -1.
    8880023    1    1    2    0    0 -0.11110105132E+04  0.88648244804E+02 -0.17157946483E+03  0.13059297802E+04  0.65864270000E+03 0. -1.
    8880022    1    1    2    0    0  0.11110105132E+04 -0.88648244804E+02 -0.11447529402E+04  0.16050089778E+04  0.15294330000E+03 0.  0.
<mgrwt>
<rscale>  0 0.12499448E+04</rscale>
<asrwt>0</asrwt>
<pdfrwt beam="1">  1        1 0.32517470E+00 0.12946092E+04</pdfrwt>
<pdfrwt beam="2">  1       -1 0.12266203E+00 0.12946092E+04</pdfrwt>
<totfact> 0.14251800E+00</totfact>
</mgrwt>
</event>
<event>
 4    5  0.7214169E-008  0.1042826E+04  0.7818608E-02  0.9327556E-01
         -1   -1    0    0    0  501 -0.00000000000E+00  0.00000000000E+00  0.13798610453E+04  0.13798610453E+04  0.50400000000E-02 0.  1.
          1   -1    0    0  501    0  0.00000000000E+00 -0.00000000000E+00 -0.14733527170E+04  0.14733527170E+04  0.50400000000E-02 0. -1.
    8880023    1    1    2    0    0  0.78411569509E+03 -0.19707345038E+03  0.10266116906E+04  0.14633581714E+04  0.65864270000E+03 0.  1.
    8880022    1    1    2    0    0 -0.78411569509E+03  0.19707345038E+03 -0.11201033624E+04  0.13898555909E+04  0.15294330000E+03 0.  0.
<mgrwt>
<rscale>  0 0.98285120E+03</rscale>
<asrwt>0</asrwt>
<pdfrwt beam="1">  1        1 0.22666965E+00 0.10428258E+04</pdfrwt>
<pdfrwt beam="2">  1       -1 0.21228632E+00 0.10428258E+04</pdfrwt>
<totfact> 0.84783691E-01</totfact>
</mgrwt>
</event>
<event>
 4    5  0.7214169E-008  0.1241503E+04  0.7818608E-02  0.9117798E-01
         -1   -1    0    0    0  501 -0.00000000000E+00  0.00000000000E+00  0.92194243131E+03  0.92194243132E+03  0.50400000000E-02 0.  1.
          1   -1    0    0  501    0  0.00000000000E+00 -0.00000000000E+00 -0.15730086501E+04  0.15730086501E+04  0.50400000000E-02 0. -1.
    8880023    1    1    2    0    0  0.90816129888E+03  0.53175338026E+03 -0.70944104058E+03  0.14299074790E+04  0.65864270000E+03 0.  0.
    8880022    1    1    2    0    0 -0.90816129888E+03 -0.53175338026E+03  0.58374821800E+02  0.10650436024E+04  0.15294330000E+03 0.  0.
<mgrwt>
<rscale>  0 0.11943710E+04</rscale>
<asrwt>0</asrwt>
<pdfrwt beam="1">  1        1 0.24200133E+00 0.12415026E+04</pdfrwt>
<pdfrwt beam="2">  1       -1 0.14183730E+00 0.12415026E+04</pdfrwt>
<totfact> 0.23047934E+00</totfact>
</mgrwt>
</event>
<event>
 4    5  0.7214169E-008  0.1542968E+04  0.7818608E-02  0.8879876E-01
          1   -1    0    0  501    0  0.00000000000E+00  0.00000000000E+00  0.15621699089E+04  0.15621699089E+04  0.50400000000E-02 0. -1.
         -1   -1    0    0    0  501 -0.00000000000E+00 -0.00000000000E+00 -0.15922095350E+04  0.15922095350E+04  0.50400000000E-02 0.  1.
    8880023    1    1    2    0    0 -0.57180849087E+03 -0.12727829702E+04  0.54651778190E+03  0.16368974714E+04  0.65864270000E+03 0.  0.
    8880022    1    1    2    0    0  0.57180849087E+03  0.12727829702E+04 -0.57655740800E+03  0.15174819726E+04  0.15294330000E+03 0.  0.
<mgrwt>
<rscale>  0 0.15069028E+04</rscale>
<asrwt>0</asrwt>
<pdfrwt beam="1">  1        1 0.24033383E+00 0.15429685E+04</pdfrwt>
<pdfrwt beam="2">  1       -1 0.24495532E+00 0.15429685E+04</pdfrwt>
<totfact> 0.41944217E-01</totfact>
</mgrwt>
</event>
<event>
 4    5  0.7214169E-008  0.7932625E+03  0.7818608E-02  0.9725558E-01
         -1   -1    0    0    0  501 -0.00000000000E+00  0.00000000000E+00  0.73745303164E+03  0.73745303166E+03  0.50400000000E-02 0.  1.
          1   -1    0    0  501    0  0.00000000000E+00 -0.00000000000E+00 -0.77360149438E+03  0.77360149440E+03  0.50400000000E-02 0. -1.
    8880023    1    1    2    0    0  0.43598662296E+03 -0.73286172645E+02  0.38486064502E+03  0.88169332585E+03  0.65864270000E+03 0.  1.
    8880022    1    1    2    0    0 -0.43598662296E+03  0.73286172645E+02 -0.42100910775E+03  0.62936120021E+03  0.15294330000E+03 0.  0.
<mgrwt>
<rscale>  0 0.69515273E+03</rscale>
<asrwt>0</asrwt>
<pdfrwt beam="1">  1        1 0.11901561E+00 0.79326251E+03</pdfrwt>
<pdfrwt beam="2">  1       -1 0.11345431E+00 0.79326251E+03</pdfrwt>
<totfact> 0.16920997E+01</totfact>
</mgrwt>
</event>
<event>
 4    5  0.8173841E-008  0.1350304E+04  0.7818608E-02  0.9023293E-01
          1   -1    0    0  501    0  0.00000000000E+00  0.00000000000E+00  0.37983826883E+04  0.37983826883E+04  0.50400000000E-02 0. -1.
         -1   -1    0    0    0  501 -0.00000000000E+00 -0.00000000000E+00 -0.19439675003E+04  0.19439675003E+04  0.50400000000E-02 0.  1.
    8880023    1    1    2    0    0  0.45641297914E+03  0.10868287168E+04 -0.15973736325E+04  0.20916314674E+04  0.65864270000E+03 0.  0.
    8880022    1    1    2    0    0 -0.45641297914E+03 -0.10868287168E+04  0.34517888205E+04  0.36507187213E+04  0.15294330000E+03 0.  0.
<mgrwt>
<rscale>  0 0.13079391E+04</rscale>
<asrwt>0</asrwt>
<pdfrwt beam="1">  1        1 0.58436656E+00 0.13503035E+04</pdfrwt>
<pdfrwt beam="2">  1       -1 0.29907192E+00 0.13503035E+04</pdfrwt>
<totfact> 0.46886250E-03</totfact>
</mgrwt>
</event>
<event>
 4    5  0.7214169E-008  0.1416396E+04  0.7818608E-02  0.8971046E-01
         -1   -1    0    0    0  501 -0.00000000000E+00  0.00000000000E+00  0.13822334141E+04  0.13822334141E+04  0.50400000000E-02 0.  1.
          1   -1    0    0  501    0  0.00000000000E+00 -0.00000000000E+00 -0.23151735360E+04  0.23151735360E+04  0.50400000000E-02 0. -1.
    8880023    1    1    2    0    0 -0.88276222003E+03  0.89056038033E+03  0.74241661564E+03  0.15991746514E+04  0.65864270000E+03 0.  0.
    8880022    1    1    2    0    0  0.88276222003E+03 -0.89056038033E+03 -0.16753567376E+04  0.20982322987E+04  0.15294330000E+03 0.  0.
<mgrwt>
<rscale>  0 0.13764466E+04</rscale>
<asrwt>0</asrwt>
<pdfrwt beam="1">  1        1 0.35618054E+00 0.14163958E+04</pdfrwt>
<pdfrwt beam="2">  1       -1 0.21265130E+00 0.14163958E+04</pdfrwt>
<totfact> 0.21393567E-01</totfact>
</mgrwt>
</event>
<event>
 4    5  0.7214169E-008  0.9100924E+03  0.7818608E-02  0.9510020E-01
         -1   -1    0    0    0  501 -0.00000000000E+00  0.00000000000E+00  0.61168587299E+03  0.61168587302E+03  0.50400000000E-02 0.  1.
          1   -1    0    0  501    0  0.00000000000E+00 -0.00000000000E+00 -0.34961621743E+04  0.34961621743E+04  0.50400000000E-02 0. -1.
    8880023    1    1    2    0    0  0.21860166556E+03 -0.58878804865E+03  0.22039714249E+03  0.93639903946E+03  0.65864270000E+03 0.  0.
    8880022    1    1    2    0    0 -0.21860166556E+03  0.58878804865E+03 -0.31048734438E+04  0.31714490078E+04  0.15294330000E+03 0.  0.
<mgrwt>
<rscale>  0 0.83549075E+03</rscale>
<asrwt>0</asrwt>
<pdfrwt beam="1">  1        1 0.53787109E+00 0.91009245E+03</pdfrwt>
<pdfrwt beam="2">  1       -1 0.94105521E-01 0.91009245E+03</pdfrwt>
<totfact> 0.29130080E-01</totfact>
</mgrwt>
</event>
<event>
 4    5  0.7214169E-008  0.7495523E+03  0.7818608E-02  0.9832947E-01
         -1   -1    0    0    0  501 -0.00000000000E+00  0.00000000000E+00  0.38321423309E+03  0.38321423313E+03  0.50400000000E-02 0.  1.
          1   -1    0    0  501    0  0.00000000000E+00 -0.00000000000E+00 -0.10032698008E+04  0.10032698008E+04  0.50400000000E-02 0. -1.
    8880023    1    1    2    0    0  0.75065658355E+02 -0.34983362858E+03 -0.13001518442E+03  0.76074475035E+03  0.65864270000E+03 0.  1.
    8880022    1    1    2    0    0 -0.75065658355E+02  0.34983362858E+03 -0.49004038326E+03  0.62573928356E+03  0.15294330000E+03 0. -1.
<mgrwt>
<rscale>  0 0.63623975E+03</rscale>
<asrwt>0</asrwt>
<pdfrwt beam="1">  1        1 0.15434920E+00 0.74955228E+03</pdfrwt>
<pdfrwt beam="2">  1       -1 0.58956036E-01 0.74955228E+03</pdfrwt>
<totfact> 0.44952245E+01</totfact>
</mgrwt>
</event>
<event>
 4    5  0.7214169E-008  0.7434544E+03  0.7818608E-02  0.9849996E-01
          1   -1    0    0  501    0  0.00000000000E+00  0.00000000000E+00  0.11971612713E+04  0.11971612713E+04  0.50400000000E-02 0. -1.
         -1   -1    0    0    0  501 -0.00000000000E+00 -0.00000000000E+00 -0.48538451674E+03  0.48538451677E+03  0.50400000000E-02 0.  1.
    8880023    1    1    2    0    0 -0.12336563001E+03 -0.32201737091E+03 -0.13493553600E+03  0.75560047047E+03  0.65864270000E+03 0.  1.
    8880022    1    1    2    0    0  0.12336563001E+03  0.32201737091E+03  0.84671229052E+03  0.92694531758E+03  0.15294330000E+03 0.  0.
<mgrwt>
<rscale>  0 0.62747096E+03</rscale>
<asrwt>0</asrwt>
<pdfrwt beam="1">  1        1 0.18417866E+00 0.74345442E+03</pdfrwt>
<pdfrwt beam="2">  1       -1 0.74674541E-01 0.74345442E+03</pdfrwt>
<totfact> 0.19991296E+01</totfact>
</mgrwt>
</event>
<event>
 4    5  0.7214169E-008  0.1416042E+04  0.7818608E-02  0.8971317E-01
          1   -1    0    0  501    0  0.00000000000E+00  0.00000000000E+00  0.22988985706E+04  0.22988985706E+04  0.50400000000E-02 0. -1.
         -1   -1    0    0    0  501 -0.00000000000E+00 -0.00000000000E+00 -0.11347675159E+04  0.11347675159E+04  0.50400000000E-02 0.  1.
    8880023    1    1    2    0    0  0.66670753597E+03 -0.10615397108E+04  0.15632611272E+04  0.21092560428E+04  0.65864270000E+03 0.  0.
    8880022    1    1    2    0    0 -0.66670753597E+03  0.10615397108E+04 -0.39913007248E+03  0.13244100437E+04  0.15294330000E+03 0.  0.
<mgrwt>
<rscale>  0 0.13760809E+04</rscale>
<asrwt>0</asrwt>
<pdfrwt beam="1">  1        1 0.35367670E+00 0.14160423E+04</pdfrwt>
<pdfrwt beam="2">  1       -1 0.17457962E+00 0.14160423E+04</pdfrwt>
<totfact> 0.40624840E-01</totfact>
</mgrwt>
</event>
<event>
 4    5  0.7214169E-008  0.8626729E+03  0.7818608E-02  0.9588826E-01
         -1   -1    0    0    0  501 -0.00000000000E+00  0.00000000000E+00  0.56443519388E+03  0.56443519390E+03  0.50400000000E-02 0.  1.
          1   -1    0    0  501    0  0.00000000000E+00 -0.00000000000E+00 -0.13814876131E+04  0.13814876131E+04  0.50400000000E-02 0. -1.
    8880023    1    1    2    0    0 -0.47219846222E+03  0.29567375452E+03 -0.10178783836E+04  0.13342716990E+04  0.65864270000E+03 0. -1.
    8880022    1    1    2    0    0  0.47219846222E+03 -0.29567375452E+03  0.20082596441E+03  0.61165110793E+03  0.15294330000E+03 0.  0.
<mgrwt>
<rscale>  0 0.78040158E+03</rscale>
<asrwt>0</asrwt>
<pdfrwt beam="1">  1        1 0.21253656E+00 0.86267292E+03</pdfrwt>
<pdfrwt beam="2">  1       -1 0.86836184E-01 0.86267292E+03</pdfrwt>
<totfact> 0.10561815E+01</totfact>
</mgrwt>
</event>
<event>
 4    5  0.7214169E-008  0.7028136E+03  0.7818608E-02  0.9985724E-01
         -1   -1    0    0    0  501 -0.00000000000E+00  0.00000000000E+00  0.11815110631E+03  0.11815110642E+03  0.50400000000E-02 0.  1.
          1   -1    0    0  501    0  0.00000000000E+00 -0.00000000000E+00 -0.38596354553E+04  0.38596354553E+04  0.50400000000E-02 0. -1.
    8880023    1    1    2    0    0 -0.23938224194E+03 -0.53224265782E+02 -0.10066180268E+04  0.12276916300E+04  0.65864270000E+03 0.  1.
    8880022    1    1    2    0    0  0.23938224194E+03  0.53224265782E+02 -0.27348663222E+04  0.27500949318E+04  0.15294330000E+03 0.  0.
<mgrwt>
<rscale>  0 0.56280678E+03</rscale>
<asrwt>0</asrwt>
<pdfrwt beam="1">  1        1 0.59378997E+00 0.70281355E+03</pdfrwt>
<pdfrwt beam="2">  1       -1 0.18177096E-01 0.70281355E+03</pdfrwt>
<totfact> 0.33560892E+00</totfact>
</mgrwt>
</event>
<event>
 4    5  0.7214169E-008  0.8440306E+03  0.7818608E-02  0.9622627E-01
         -1   -1    0    0    0  501 -0.00000000000E+00  0.00000000000E+00  0.50302693277E+03  0.50302693280E+03  0.50400000000E-02 0.  1.
          1   -1    0    0  501    0  0.00000000000E+00 -0.00000000000E+00 -0.18886868933E+04  0.18886868933E+04  0.50400000000E-02 0. -1.
    8880023    1    1    2    0    0 -0.52271575451E+03 -0.73113916206E+02 -0.15942894764E+04  0.18039253159E+04  0.65864270000E+03 0. -1.
    8880022    1    1    2    0    0  0.52271575451E+03  0.73113916206E+02  0.20862951586E+03  0.58778851015E+03  0.15294330000E+03 0.  1.
<mgrwt>
<rscale>  0 0.75816536E+03</rscale>
<asrwt>0</asrwt>
<pdfrwt beam="1">  1        1 0.29056721E+00 0.84403057E+03</pdfrwt>
<pdfrwt beam="2">  1       -1 0.77388760E-01 0.84403057E+03</pdfrwt>
<totfact> 0.61222881E+00</totfact>
</mgrwt>
</event>
<event>
 4    5  0.7214169E-008  0.1121079E+04  0.7818608E-02  0.9237943E-01
          1   -1    0    0  501    0  0.00000000000E+00  0.00000000000E+00  0.13101143270E+04  0.13101143270E+04  0.50400000000E-02 0. -1.
         -1   -1    0    0    0  501 -0.00000000000E+00 -0.00000000000E+00 -0.96939758482E+03  0.96939758484E+03  0.50400000000E-02 0.  1.
    8880023    1    1    2    0    0 -0.89078516993E+03  0.17178109982E+03 -0.29742145719E+03  0.11598606359E+04  0.65864270000E+03 0.  0.
    8880022    1    1    2    0    0  0.89078516993E+03 -0.17178109982E+03  0.63813819936E+03  0.11196512759E+04  0.15294330000E+03 0.  0.
<mgrwt>
<rscale>  0 0.10670233E+04</rscale>
<asrwt>0</asrwt>
<pdfrwt beam="1">  1        1 0.20155605E+00 0.11210786E+04</pdfrwt>
<pdfrwt beam="2">  1       -1 0.14913809E+00 0.11210786E+04</pdfrwt>
<totfact> 0.31197443E+00</totfact>
</mgrwt>
</event>
<event>
 4    5  0.7214169E-008  0.9798438E+03  0.7818608E-02  0.9408416E-01
          1   -1    0    0  501    0  0.00000000000E+00  0.00000000000E+00  0.12321028973E+04  0.12321028973E+04  0.50400000000E-02 0. -1.
         -1   -1    0    0    0  501 -0.00000000000E+00 -0.00000000000E+00 -0.11682061403E+04  0.11682061403E+04  0.50400000000E-02 0.  1.
    8880023    1    1    2    0    0 -0.72475399105E+03  0.31865195556E+02 -0.79780198190E+03  0.12635592376E+04  0.65864270000E+03 0.  1.
    8880022    1    1    2    0    0  0.72475399105E+03 -0.31865195556E+02  0.86169873890E+03  0.11367498000E+04  0.15294330000E+03 0.  0.
<mgrwt>
<rscale>  0 0.91386267E+03</rscale>
<asrwt>0</asrwt>
<pdfrwt beam="1">  1        1 0.18955429E+00 0.97984384E+03</pdfrwt>
<pdfrwt beam="2">  1       -1 0.17972402E+00 0.97984384E+03</pdfrwt>
<totfact> 0.21317482E+00</totfact>
</mgrwt>
</event>
<event>
 4    5  0.7214169E-008  0.1235698E+04  0.7818608E-02  0.9123179E-01
         -1   -1    0    0    0  501 -0.00000000000E+00  0.00000000000E+00  0.84496026134E+03  0.84496026136E+03  0.50400000000E-02 0.  1.
          1   -1    0    0  501    0  0.00000000000E+00 -0.00000000000E+00 -0.26526883343E+04  0.26526883343E+04  0.50400000000E-02 0. -1.
    8880023    1    1    2    0    0  0.40582498884E+03 -0.96355847685E+03 -0.20683146097E+04  0.24093306936E+04  0.65864270000E+03 0.  0.
    8880022    1    1    2    0    0 -0.40582498884E+03  0.96355847685E+03  0.26058653676E+03  0.10883179021E+04  0.15294330000E+03 0.  0.
<mgrwt>
<rscale>  0 0.11882779E+04</rscale>
<asrwt>0</asrwt>
<pdfrwt beam="1">  1        1 0.40810589E+00 0.12356978E+04</pdfrwt>
<pdfrwt beam="2">  1       -1 0.12999389E+00 0.12356978E+04</pdfrwt>
<totfact> 0.52919932E-01</totfact>
</mgrwt>
</event>
<event>
 4    5  0.7214169E-008  0.7596192E+03  0.7818608E-02  0.9806094E-01
          1   -1    0    0  501    0  0.00000000000E+00  0.00000000000E+00  0.84138592217E+03  0.84138592219E+03  0.50400000000E-02 0. -1.
         -1   -1    0    0    0  501 -0.00000000000E+00 -0.00000000000E+00 -0.27593411713E+04  0.27593411713E+04  0.50400000000E-02 0.  1.
    8880023    1    1    2    0    0 -0.10869131427E+03 -0.36248764324E+03 -0.26531909820E+04  0.27597905149E+04  0.65864270000E+03 0.  1.
    8880022    1    1    2    0    0  0.10869131427E+03  0.36248764324E+03  0.73523573284E+03  0.84093657856E+03  0.15294330000E+03 0.  0.
<mgrwt>
<rscale>  0 0.65036507E+03</rscale>
<asrwt>0</asrwt>
<pdfrwt beam="1">  1        1 0.12944399E+00 0.75961918E+03</pdfrwt>
<pdfrwt beam="2">  1       -1 0.42451402E+00 0.75961918E+03</pdfrwt>
<totfact> 0.10672003E-01</totfact>
</mgrwt>
</event>
<event>
 4    5  0.7214169E-008  0.8841548E+03  0.7818608E-02  0.9551962E-01
         -1   -1    0    0    0  501 -0.00000000000E+00  0.00000000000E+00  0.62831232752E+03  0.62831232754E+03  0.50400000000E-02 0.  1.
          1   -1    0    0  501    0  0.00000000000E+00 -0.00000000000E+00 -0.14856631752E+04  0.14856631752E+04  0.50400000000E-02 0. -1.
    8880023    1    1    2    0    0 -0.36801045468E+03 -0.46096396565E+03  0.18806233342E+03  0.90393424534E+03  0.65864270000E+03 0.  1.
    8880022    1    1    2    0    0  0.36801045468E+03  0.46096396565E+03 -0.10454131811E+04  0.12100412574E+04  0.15294330000E+03 0.  0.
<mgrwt>
<rscale>  0 0.80558889E+03</rscale>
<asrwt>0</asrwt>
<pdfrwt beam="1">  1        1 0.22856356E+00 0.88415478E+03</pdfrwt>
<pdfrwt beam="2">  1       -1 0.96663436E-01 0.88415478E+03</pdfrwt>
<totfact> 0.70297402E+00</totfact>
</mgrwt>
</event>
<event>
 4    5  0.7214169E-008  0.7134276E+03  0.7818608E-02  0.9945486E-01
          1   -1    0    0  501    0  0.00000000000E+00  0.00000000000E+00  0.24099905714E+04  0.24099905714E+04  0.50400000000E-02 0. -1.
         -1   -1    0    0    0  501 -0.00000000000E+00 -0.00000000000E+00 -0.14148484206E+03  0.14148484215E+03  0.50400000000E-02 0.  1.
    8880023    1    1    2    0    0  0.90158175811E+02  0.25892133368E+03  0.90550991623E+03  0.11527910341E+04  0.65864270000E+03 0.  1.
    8880022    1    1    2    0    0 -0.90158175811E+02 -0.25892133368E+03  0.13629958132E+04  0.13986843795E+04  0.15294330000E+03 0.  0.
<mgrwt>
<rscale>  0 0.58106571E+03</rscale>
<asrwt>0</asrwt>
<pdfrwt beam="1">  1        1 0.37076778E+00 0.71342761E+03</pdfrwt>
<pdfrwt beam="2">  1       -1 0.21766899E-01 0.71342761E+03</pdfrwt>
<totfact> 0.29087415E+01</totfact>
</mgrwt>
</event>
<event>
 4    5  0.7214169E-008  0.7756229E+03  0.7818608E-02  0.9766221E-01
         -1   -1    0    0    0  501 -0.00000000000E+00  0.00000000000E+00  0.16129165748E+04  0.16129165748E+04  0.50400000000E-02 0.  1.
          1   -1    0    0  501    0  0.00000000000E+00 -0.00000000000E+00 -0.56407863004E+03  0.56407863006E+03  0.50400000000E-02 0. -1.
    8880023    1    1    2    0    0 -0.67940194184E+02 -0.40393664905E+03  0.14104206289E+04  0.16096202170E+04  0.65864270000E+03 0.  1.
    8880022    1    1    2    0    0  0.67940194184E+02  0.40393664905E+03 -0.36158268407E+03  0.56737498788E+03  0.15294330000E+03 0.  0.
<mgrwt>
<rscale>  0 0.67207246E+03</rscale>
<asrwt>0</asrwt>
<pdfrwt beam="1">  1        1 0.86781329E-01 0.77562291E+03</pdfrwt>
<pdfrwt beam="2">  1       -1 0.24814101E+00 0.77562291E+03</pdfrwt>
<totfact> 0.27885941E+00</totfact>
</mgrwt>
</event>
<event>
 4    5  0.7214169E-008  0.7469570E+03  0.7818608E-02  0.9840126E-01
         -1   -1    0    0    0  501 -0.00000000000E+00  0.00000000000E+00  0.12145192468E+04  0.12145192468E+04  0.50400000000E-02 0.  1.
          1   -1    0    0  501    0  0.00000000000E+00 -0.00000000000E+00 -0.37163213126E+03  0.37163213130E+03  0.50400000000E-02 0. -1.
    8880023    1    1    2    0    0  0.25747070169E+03 -0.24050641653E+03  0.92947472831E+03  0.11924210563E+04  0.65864270000E+03 0.  1.
    8880022    1    1    2    0    0 -0.25747070169E+03  0.24050641653E+03 -0.86587612779E+02  0.39373032183E+03  0.15294330000E+03 0.  0.
<mgrwt>
<rscale>  0 0.63252881E+03</rscale>
<asrwt>0</asrwt>
<pdfrwt beam="1">  1        1 0.57174174E-01 0.74695696E+03</pdfrwt>
<pdfrwt beam="2">  1       -1 0.18684912E+00 0.74695696E+03</pdfrwt>
<totfact> 0.12669191E+01</totfact>
</mgrwt>
</event>
<event>
 4    5  0.7214169E-008  0.1330409E+04  0.7818608E-02  0.9039735E-01
          1   -1    0    0  501    0  0.00000000000E+00  0.00000000000E+00  0.22810358504E+04  0.22810358504E+04  0.50400000000E-02 0. -1.
         -1   -1    0    0    0  501 -0.00000000000E+00 -0.00000000000E+00 -0.75866250046E+03  0.75866250048E+03  0.50400000000E-02 0.  1.
    8880023    1    1    2    0    0  0.67656728659E+03 -0.93724790734E+03  0.12852509543E+04  0.18498262499E+04  0.65864270000E+03 0.  0.
    8880022    1    1    2    0    0 -0.67656728659E+03  0.93724790734E+03  0.23712239562E+03  0.11898721009E+04  0.15294330000E+03 0.  0.
<mgrwt>
<rscale>  0 0.12872531E+04</rscale>
<asrwt>0</asrwt>
<pdfrwt beam="1">  1        1 0.35092859E+00 0.13304086E+04</pdfrwt>
<pdfrwt beam="2">  1       -1 0.11671731E+00 0.13304086E+04</pdfrwt>
<totfact> 0.12339158E+00</totfact>
</mgrwt>
</event>
<event>
 4    5  0.7214169E-008  0.8761533E+03  0.7818608E-02  0.9565452E-01
         -1   -1    0    0    0  501 -0.00000000000E+00  0.00000000000E+00  0.69805152692E+03  0.69805152693E+03  0.50400000000E-02 0.  1.
          1   -1    0    0  501    0  0.00000000000E+00 -0.00000000000E+00 -0.36404866087E+04  0.36404866087E+04  0.50400000000E-02 0. -1.
    8880023    1    1    2    0    0 -0.41424402722E+03 -0.40278568463E+03  0.38560535632E+03  0.95725446926E+03  0.65864270000E+03 0.  1.
    8880022    1    1    2    0    0  0.41424402722E+03  0.40278568463E+03 -0.33280404381E+04  0.33812836663E+04  0.15294330000E+03 0.  0.
<mgrwt>
<rscale>  0 0.79625647E+03</rscale>
<asrwt>0</asrwt>
<pdfrwt beam="1">  1        1 0.56007485E+00 0.87615331E+03</pdfrwt>
<pdfrwt beam="2">  1       -1 0.10739255E+00 0.87615331E+03</pdfrwt>
<totfact> 0.16693182E-01</totfact>
</mgrwt>
</event>
<event>
 4    5  0.1099385E-007  0.1095958E+04  0.7818608E-02  0.9265570E-01
          1   -1    0    0  501    0  0.00000000000E+00  0.00000000000E+00  0.22536448816E+04  0.22536448816E+04  0.50400000000E-02 0. -1.
         -1   -1    0    0    0  501 -0.00000000000E+00 -0.00000000000E+00 -0.22602302255E+04  0.22602302255E+04  0.50400000000E-02 0.  1.
    8880023    1    1    2    0    0 -0.86959444767E+03 -0.10544331249E+03 -0.20281844383E+04  0.23053535775E+04  0.65864270000E+03 0.  1.
    8880022    1    1    2    0    0  0.86959444767E+03  0.10544331249E+03  0.20215990943E+04  0.22085215296E+04  0.15294330000E+03 0.  0.
<mgrwt>
<rscale>  0 0.10401526E+04</rscale>
<asrwt>0</asrwt>
<pdfrwt beam="1">  1        1 0.34671460E+00 0.10959576E+04</pdfrwt>
<pdfrwt beam="2">  1       -1 0.34772773E+00 0.10959576E+04</pdfrwt>
<totfact> 0.32581332E-02</totfact>
</mgrwt>
</event>
<event>
 4    5  0.7214169E-008  0.7963105E+03  0.7818608E-02  0.9718831E-01
         -1   -1    0    0    0  501 -0.00000000000E+00  0.00000000000E+00  0.44921713281E+03  0.44921713284E+03  0.50400000000E-02 0.  1.
          1   -1    0    0  501    0  0.00000000000E+00 -0.00000000000E+00 -0.16868916056E+04  0.16868916056E+04  0.50400000000E-02 0. -1.
    8880023    1    1    2    0    0 -0.44752821925E+03  0.43204286814E+01  0.15702079695E+02  0.79646527526E+03  0.65864270000E+03 0.  0.
    8880022    1    1    2    0    0  0.44752821925E+03 -0.43204286814E+01 -0.12533765525E+04  0.13396434632E+04  0.15294330000E+03 0.  0.
<mgrwt>
<rscale>  0 0.69906585E+03</rscale>
<asrwt>0</asrwt>
<pdfrwt beam="1">  1        1 0.25952178E+00 0.79631048E+03</pdfrwt>
<pdfrwt beam="2">  1       -1 0.69110329E-01 0.79631048E+03</pdfrwt>
<totfact> 0.10653177E+01</totfact>
</mgrwt>
</event>
<event>
 4    5  0.7214169E-008  0.7719925E+03  0.7818608E-02  0.9774994E-01
         -1   -1    0    0    0  501 -0.00000000000E+00  0.00000000000E+00  0.28458982679E+03  0.28458982683E+03  0.50400000000E-02 0.  1.
          1   -1    0    0  501    0  0.00000000000E+00 -0.00000000000E+00 -0.15962616462E+04  0.15962616462E+04  0.50400000000E-02 0. -1.
    8880023    1    1    2    0    0  0.38523766387E+03 -0.11727798764E+03 -0.39314561930E+03  0.86633473224E+03  0.65864270000E+03 0.  1.
    8880022    1    1    2    0    0 -0.38523766387E+03  0.11727798764E+03 -0.91852620008E+03  0.10145167408E+04  0.15294330000E+03 0.  0.
<mgrwt>
<rscale>  0 0.66721922E+03</rscale>
<asrwt>0</asrwt>
<pdfrwt beam="1">  1        1 0.24557871E+00 0.77199248E+03</pdfrwt>
<pdfrwt beam="2">  1       -1 0.43783051E-01 0.77199248E+03</pdfrwt>
<totfact> 0.29806935E+01</totfact>
</mgrwt>
</event>
<event>
 4    5  0.7214169E-008  0.1297975E+04  0.7818608E-02  0.9067310E-01
         -1   -1    0    0    0  501 -0.00000000000E+00  0.00000000000E+00  0.10579338121E+04  0.10579338121E+04  0.50400000000E-02 0.  1.
          1   -1    0    0  501    0  0.00000000000E+00 -0.00000000000E+00 -0.21767157866E+04  0.21767157866E+04  0.50400000000E-02 0. -1.
    8880023    1    1    2    0    0 -0.48013277469E+02  0.11174188167E+04  0.38540413288E+03  0.13539854647E+04  0.65864270000E+03 0.  1.
    8880022    1    1    2    0    0  0.48013277469E+02 -0.11174188167E+04 -0.15041861074E+04  0.18806641341E+04  0.15294330000E+03 0.  0.
<mgrwt>
<rscale>  0 0.12534579E+04</rscale>
<asrwt>0</asrwt>
<pdfrwt beam="1">  1        1 0.33487935E+00 0.12979755E+04</pdfrwt>
<pdfrwt beam="2">  1       -1 0.16275905E+00 0.12979755E+04</pdfrwt>
<totfact> 0.61111990E-01</totfact>
</mgrwt>
</event>
<event>
 4    5  0.7214169E-008  0.8166893E+03  0.7818608E-02  0.9675808E-01
         -1   -1    0    0    0  501 -0.00000000000E+00  0.00000000000E+00  0.45274812557E+03  0.45274812559E+03  0.50400000000E-02 0.  1.
          1   -1    0    0  501    0  0.00000000000E+00 -0.00000000000E+00 -0.22074643360E+04  0.22074643360E+04  0.50400000000E-02 0. -1.
    8880023    1    1    2    0    0 -0.42774245882E+03 -0.22407045200E+03  0.17658224691E+02  0.81688016116E+03  0.65864270000E+03 0.  1.
    8880022    1    1    2    0    0  0.42774245882E+03  0.22407045200E+03 -0.17723744351E+04  0.18433323004E+04  0.15294330000E+03 0.  0.
<mgrwt>
<rscale>  0 0.72475607E+03</rscale>
<asrwt>0</asrwt>
<pdfrwt beam="1">  1        1 0.33960989E+00 0.81668928E+03</pdfrwt>
<pdfrwt beam="2">  1       -1 0.69653559E-01 0.81668928E+03</pdfrwt>
<totfact> 0.46759755E+00</totfact>
</mgrwt>
</event>
<event>
 4    5  0.7214169E-008  0.8759563E+03  0.7818608E-02  0.9565787E-01
         -1   -1    0    0    0  501 -0.00000000000E+00  0.00000000000E+00  0.62250832141E+03  0.62250832143E+03  0.50400000000E-02 0.  1.
          1   -1    0    0  501    0  0.00000000000E+00 -0.00000000000E+00 -0.11893046359E+04  0.11893046359E+04  0.50400000000E-02 0. -1.
    8880023    1    1    2    0    0 -0.27190002546E+03 -0.50946990513E+03  0.13923774884E+03  0.88695353037E+03  0.65864270000E+03 0.  1.
    8880022    1    1    2    0    0  0.27190002546E+03  0.50946990513E+03 -0.70603406337E+03  0.92485942701E+03  0.15294330000E+03 0.  0.
<mgrwt>
<rscale>  0 0.79602596E+03</rscale>
<asrwt>0</asrwt>
<pdfrwt beam="1">  1        1 0.18296994E+00 0.87595629E+03</pdfrwt>
<pdfrwt beam="2">  1       -1 0.95770511E-01 0.87595629E+03</pdfrwt>
<totfact> 0.11636986E+01</totfact>
</mgrwt>
</event>
<event>
 4    5  0.7214169E-008  0.2133309E+04  0.7818608E-02  0.8557616E-01
          1   -1    0    0  501    0  0.00000000000E+00  0.00000000000E+00  0.14735706920E+04  0.14735706920E+04  0.50400000000E-02 0. -1.
         -1   -1    0    0    0  501 -0.00000000000E+00 -0.00000000000E+00 -0.32869539492E+04  0.32869539492E+04  0.50400000000E-02 0.  1.
    8880023    1    1    2    0    0 -0.93441238807E+03  0.18011302594E+04 -0.16118436431E+03  0.21393894755E+04  0.65864270000E+03 0.  0.
    8880022    1    1    2    0    0  0.93441238807E+03 -0.18011302594E+04 -0.16521988929E+04  0.26211351657E+04  0.15294330000E+03 0.  0.
<mgrwt>
<rscale>  0 0.21082547E+04</rscale>
<asrwt>0</asrwt>
<pdfrwt beam="1">  1        1 0.22670318E+00 0.21333089E+04</pdfrwt>
<pdfrwt beam="2">  1       -1 0.50568522E+00 0.21333089E+04</pdfrwt>
<totfact> 0.81644842E-03</totfact>
</mgrwt>
</event>
<event>
 4    5  0.7214169E-008  0.1179471E+04  0.7818608E-02  0.9177341E-01
          1   -1    0    0  501    0  0.00000000000E+00  0.00000000000E+00  0.12004202701E+04  0.12004202701E+04  0.50400000000E-02 0. -1.
         -1   -1    0    0    0  501 -0.00000000000E+00 -0.00000000000E+00 -0.10197515982E+04  0.10197515982E+04  0.50400000000E-02 0.  1.
    8880023    1    1    2    0    0  0.73589261194E+03  0.64482822435E+03 -0.11911988103E+03  0.11854708464E+04  0.65864270000E+03 0.  1.
    8880022    1    1    2    0    0 -0.73589261194E+03 -0.64482822435E+03  0.29978855294E+03  0.10347010219E+04  0.15294330000E+03 0.  0.
<mgrwt>
<rscale>  0 0.11290398E+04</rscale>
<asrwt>0</asrwt>
<pdfrwt beam="1">  1        1 0.18468004E+00 0.11794709E+04</pdfrwt>
<pdfrwt beam="2">  1       -1 0.15688486E+00 0.11794709E+04</pdfrwt>
<totfact> 0.32403486E+00</totfact>
</mgrwt>
</event>
<event>
 4    5  0.7214169E-008  0.8308582E+03  0.7818608E-02  0.9647665E-01
          1   -1    0    0  501    0  0.00000000000E+00  0.00000000000E+00  0.22469261080E+04  0.22469261080E+04  0.50400000000E-02 0. -1.
         -1   -1    0    0    0  501 -0.00000000000E+00 -0.00000000000E+00 -0.65037324882E+03  0.65037324884E+03  0.50400000000E-02 0.  1.
    8880023    1    1    2    0    0 -0.98452214844E+02 -0.49681217973E+03 -0.33406468582E+03  0.89550242943E+03  0.65864270000E+03 0.  1.
    8880022    1    1    2    0    0  0.98452214844E+02  0.49681217973E+03  0.19306175450E+04  0.20017969274E+04  0.15294330000E+03 0.  0.
<mgrwt>
<rscale>  0 0.74220159E+03</rscale>
<asrwt>0</asrwt>
<pdfrwt beam="1">  1        1 0.34568094E+00 0.83085822E+03</pdfrwt>
<pdfrwt beam="2">  1       -1 0.10005742E+00 0.83085822E+03</pdfrwt>
<totfact> 0.20087111E+00</totfact>
</mgrwt>
</event>
<event>
 4    5  0.7214169E-008  0.1065379E+04  0.7818608E-02  0.9300618E-01
         -1   -1    0    0    0  501 -0.00000000000E+00  0.00000000000E+00  0.13182291045E+04  0.13182291045E+04  0.50400000000E-02 0.  1.
          1   -1    0    0  501    0  0.00000000000E+00 -0.00000000000E+00 -0.81843224835E+03  0.81843224836E+03  0.50400000000E-02 0. -1.
    8880023    1    1    2    0    0 -0.29807312902E+03 -0.78254361738E+03 -0.13622450522E+03  0.10740528038E+04  0.65864270000E+03 0.  0.
    8880022    1    1    2    0    0  0.29807312902E+03  0.78254361738E+03  0.63602136136E+03  0.10626085490E+04  0.15294330000E+03 0.  0.
<mgrwt>
<rscale>  0 0.10072596E+04</rscale>
<asrwt>0</asrwt>
<pdfrwt beam="1">  1        1 0.12591265E+00 0.10653790E+04</pdfrwt>
<pdfrwt beam="2">  1       -1 0.20280448E+00 0.10653790E+04</pdfrwt>
<totfact> 0.30571602E+00</totfact>
</mgrwt>
</event>
<event>
 4    5  0.7214169E-008  0.7875403E+03  0.7818608E-02  0.9738414E-01
         -1   -1    0    0    0  501 -0.00000000000E+00  0.00000000000E+00  0.11152751710E+04  0.11152751710E+04  0.50400000000E-02 0.  1.
          1   -1    0    0  501    0  0.00000000000E+00 -0.00000000000E+00 -0.11682316827E+04  0.11682316827E+04  0.50400000000E-02 0. -1.
    8880023    1    1    2    0    0 -0.10421562479E+03  0.41898524292E+03  0.91824787374E+03  0.12097102521E+04  0.65864270000E+03 0.  1.
    8880022    1    1    2    0    0  0.10421562479E+03 -0.41898524292E+03 -0.97120438546E+03  0.10737966016E+04  0.15294330000E+03 0.  0.
<mgrwt>
<rscale>  0 0.68774998E+03</rscale>
<asrwt>0</asrwt>
<pdfrwt beam="1">  1        1 0.17972795E+00 0.78754031E+03</pdfrwt>
<pdfrwt beam="2">  1       -1 0.17158080E+00 0.78754031E+03</pdfrwt>
<totfact> 0.27966015E+00</totfact>
</mgrwt>
</event>
<event>
 4    5  0.7214169E-008  0.6840196E+03  0.7818608E-02  0.1007136E+00
          1   -1    0    0  501    0  0.00000000000E+00  0.00000000000E+00  0.49936505175E+03  0.49936505178E+03  0.50400000000E-02 0. -1.
         -1   -1    0    0    0  501 -0.00000000000E+00 -0.00000000000E+00 -0.90546816423E+03  0.90546816425E+03  0.50400000000E-02 0.  1.
    8880023    1    1    2    0    0  0.88535326197E+02  0.16196948352E+03 -0.73096858529E+03  0.10010983451E+04  0.65864270000E+03 0.  1.
    8880022    1    1    2    0    0 -0.88535326197E+02 -0.16196948352E+03  0.32486547281E+03  0.40373487094E+03  0.15294330000E+03 0.  0.
<mgrwt>
<rscale>  0 0.52629125E+03</rscale>
<asrwt>0</asrwt>
<pdfrwt beam="1">  1        1 0.76825393E-01 0.68401961E+03</pdfrwt>
<pdfrwt beam="2">  1       -1 0.13930279E+00 0.68401961E+03</pdfrwt>
<totfact> 0.19494676E+01</totfact>
</mgrwt>
</event>
<event>
 4    5  0.7214169E-008  0.1149325E+04  0.7818608E-02  0.9208029E-01
         -1   -1    0    0    0  501 -0.00000000000E+00  0.00000000000E+00  0.19253877070E+04  0.19253877070E+04  0.50400000000E-02 0.  1.
          1   -1    0    0  501    0  0.00000000000E+00 -0.00000000000E+00 -0.64027575059E+03  0.64027575061E+03  0.50400000000E-02 0. -1.
    8880023    1    1    2    0    0  0.55718110749E+03  0.75939942166E+03  0.28659944968E+03  0.11845200374E+04  0.65864270000E+03 0.  0.
    8880022    1    1    2    0    0 -0.55718110749E+03 -0.75939942166E+03  0.99851250676E+03  0.13811434203E+04  0.15294330000E+03 0.  0.
<mgrwt>
<rscale>  0 0.10970944E+04</rscale>
<asrwt>0</asrwt>
<pdfrwt beam="1">  1        1 0.98503961E-01 0.11493252E+04</pdfrwt>
<pdfrwt beam="2">  1       -1 0.29621350E+00 0.11493252E+04</pdfrwt>
<totfact> 0.10822164E+00</totfact>
</mgrwt>
</event>
<event>
 4    5  0.7214169E-008  0.9099607E+03  0.7818608E-02  0.9510227E-01
         -1   -1    0    0    0  501 -0.00000000000E+00  0.00000000000E+00  0.14914975192E+04  0.14914975192E+04  0.50400000000E-02 0.  1.
          1   -1    0    0  501    0  0.00000000000E+00 -0.00000000000E+00 -0.14141823593E+04  0.14141823593E+04  0.50400000000E-02 0. -1.
    8880023    1    1    2    0    0  0.72248631223E+01 -0.62782647959E+03  0.12622083120E+04  0.15560200244E+04  0.65864270000E+03 0.  1.
    8880022    1    1    2    0    0 -0.72248631223E+01  0.62782647959E+03 -0.11848931521E+04  0.13496598542E+04  0.15294330000E+03 0.  0.
<mgrwt>
<rscale>  0 0.83534011E+03</rscale>
<asrwt>0</asrwt>
<pdfrwt beam="1">  1        1 0.21756652E+00 0.90996071E+03</pdfrwt>
<pdfrwt beam="2">  1       -1 0.22946116E+00 0.90996071E+03</pdfrwt>
<totfact> 0.73157167E-01</totfact>
</mgrwt>
</event>
<event>
 4    5  0.7214169E-008  0.8377278E+03  0.7818608E-02  0.9634480E-01
         -1   -1    0    0    0  501 -0.00000000000E+00  0.00000000000E+00  0.12635593041E+04  0.12635593041E+04  0.50400000000E-02 0.  1.
          1   -1    0    0  501    0  0.00000000000E+00 -0.00000000000E+00 -0.76045970905E+03  0.76045970907E+03  0.50400000000E-02 0. -1.
    8880023    1    1    2    0    0 -0.69931363607E+01  0.51761832963E+03  0.99014173938E+03  0.12969843906E+04  0.65864270000E+03 0.  0.
    8880022    1    1    2    0    0  0.69931363607E+01 -0.51761832963E+03 -0.48704214431E+03  0.72703462261E+03  0.15294330000E+03 0.  0.
<mgrwt>
<rscale>  0 0.75055524E+03</rscale>
<asrwt>0</asrwt>
<pdfrwt beam="1">  1        1 0.11699380E+00 0.83772779E+03</pdfrwt>
<pdfrwt beam="2">  1       -1 0.19439374E+00 0.83772779E+03</pdfrwt>
<totfact> 0.40413025E+00</totfact>
</mgrwt>
</event>
<event>
 4    5  0.7214169E-008  0.6817197E+03  0.7818608E-02  0.1008367E+00
          1   -1    0    0  501    0  0.00000000000E+00  0.00000000000E+00  0.92923824905E+03  0.92923824906E+03  0.50400000000E-02 0. -1.
         -1   -1    0    0    0  501 -0.00000000000E+00 -0.00000000000E+00 -0.76195712844E+03  0.76195712846E+03  0.50400000000E-02 0.  1.
    8880023    1    1    2    0    0  0.46861426784E+02  0.16951570761E+03 -0.58831069283E+03  0.90047279027E+03  0.65864270000E+03 0.  1.
    8880022    1    1    2    0    0 -0.46861426784E+02 -0.16951570761E+03  0.75559181344E+03  0.79072258726E+03  0.15294330000E+03 0.  0.
<mgrwt>
<rscale>  0 0.52128782E+03</rscale>
<asrwt>0</asrwt>
<pdfrwt beam="1">  1        1 0.14295973E+00 0.68171972E+03</pdfrwt>
<pdfrwt beam="2">  1       -1 0.11722417E+00 0.68171972E+03</pdfrwt>
<totfact> 0.11753143E+01</totfact>
</mgrwt>
</event>
<event>
 4    5  0.8046831E-008  0.1160841E+04  0.7818608E-02  0.9196161E-01
         -1   -1    0    0    0  501 -0.00000000000E+00  0.00000000000E+00  0.20812753282E+04  0.20812753282E+04  0.50400000000E-02 0.  1.
          1   -1    0    0  501    0  0.00000000000E+00 -0.00000000000E+00 -0.29521075914E+04  0.29521075914E+04  0.50400000000E-02 0. -1.
    8880023    1    1    2    0    0  0.53915433387E+03  0.78933720838E+03  0.18284162940E+04  0.21657924588E+04  0.65864270000E+03 0.  0.
    8880022    1    1    2    0    0 -0.53915433387E+03 -0.78933720838E+03 -0.26992485572E+04  0.28675904608E+04  0.15294330000E+03 0.  0.
<mgrwt>
<rscale>  0 0.11093141E+04</rscale>
<asrwt>0</asrwt>
<pdfrwt beam="1">  1        1 0.45417040E+00 0.11608406E+04</pdfrwt>
<pdfrwt beam="2">  1       -1 0.32019620E+00 0.11608406E+04</pdfrwt>
<totfact> 0.15881367E-02</totfact>
</mgrwt>
</event>
<event>
 4    5  0.7214169E-008  0.8603414E+03  0.7818608E-02  0.9592957E-01
         -1   -1    0    0    0  501 -0.00000000000E+00  0.00000000000E+00  0.55285582400E+03  0.55285582402E+03  0.50400000000E-02 0.  1.
          1   -1    0    0  501    0  0.00000000000E+00 -0.00000000000E+00 -0.16404434139E+04  0.16404434139E+04  0.50400000000E-02 0. -1.
    8880023    1    1    2    0    0 -0.54766411737E+03  0.80256177801E+02  0.10786150089E+03  0.86707632257E+03  0.65864270000E+03 0.  0.
    8880022    1    1    2    0    0  0.54766411737E+03 -0.80256177801E+02 -0.11954490908E+04  0.13262229154E+04  0.15294330000E+03 0.  0.
<mgrwt>
<rscale>  0 0.77764123E+03</rscale>
<asrwt>0</asrwt>
<pdfrwt beam="1">  1        1 0.25237591E+00 0.86034135E+03</pdfrwt>
<pdfrwt beam="2">  1       -1 0.85054743E-01 0.86034135E+03</pdfrwt>
<totfact> 0.73362769E+00</totfact>
</mgrwt>
</event>
<event>
 4    5  0.7214169E-008  0.9593611E+03  0.7818608E-02  0.9436772E-01
          1   -1    0    0  501    0  0.00000000000E+00  0.00000000000E+00  0.25665714755E+04  0.25665714755E+04  0.50400000000E-02 0. -1.
         -1   -1    0    0    0  501 -0.00000000000E+00 -0.00000000000E+00 -0.46711481978E+03  0.46711481981E+03  0.50400000000E-02 0.  1.
    8880023    1    1    2    0    0 -0.69598376651E+03  0.46584322108E+02  0.16736808080E+03  0.97385100660E+03  0.65864270000E+03 0.  1.
    8880022    1    1    2    0    0  0.69598376651E+03 -0.46584322108E+02  0.19320885749E+04  0.20598352887E+04  0.15294330000E+03 0.  0.
<mgrwt>
<rscale>  0 0.89110335E+03</rscale>
<asrwt>0</asrwt>
<pdfrwt beam="1">  1        1 0.39485716E+00 0.95936109E+03</pdfrwt>
<pdfrwt beam="2">  1       -1 0.71863817E-01 0.95936109E+03</pdfrwt>
<totfact> 0.24420152E+00</totfact>
</mgrwt>
</event>
<event>
 4    5  0.7214169E-008  0.9836718E+03  0.7818608E-02  0.9403239E-01
         -1   -1    0    0    0  501 -0.00000000000E+00  0.00000000000E+00  0.60196620131E+03  0.60196620133E+03  0.50400000000E-02 0.  1.
          1   -1    0    0  501    0  0.00000000000E+00 -0.00000000000E+00 -0.19159157925E+04  0.19159157925E+04  0.50400000000E-02 0. -1.
    8880023    1    1    2    0    0  0.49539544457E+03  0.53701334015E+03  0.26032738385E+02  0.98401620095E+03  0.65864270000E+03 0.  0.
    8880022    1    1    2    0    0 -0.49539544457E+03 -0.53701334015E+03 -0.13399823296E+04  0.15338657929E+04  0.15294330000E+03 0.  0.
<mgrwt>
<rscale>  0 0.91809629E+03</rscale>
<asrwt>0</asrwt>
<pdfrwt beam="1">  1        1 0.29475627E+00 0.98367178E+03</pdfrwt>
<pdfrwt beam="2">  1       -1 0.92610186E-01 0.98367178E+03</pdfrwt>
<totfact> 0.39003282E+00</totfact>
</mgrwt>
</event>
<event>
 4    5  0.7214169E-008  0.1137928E+04  0.7818608E-02  0.9219958E-01
          1   -1    0    0  501    0  0.00000000000E+00  0.00000000000E+00  0.19376564988E+04  0.19376564988E+04  0.50400000000E-02 0. -1.
         -1   -1    0    0    0  501 -0.00000000000E+00 -0.00000000000E+00 -0.92114580209E+03  0.92114580211E+03  0.50400000000E-02 0.  1.
    8880023    1    1    2    0    0  0.81393261366E+03  0.44562709099E+03 -0.35838467729E+03  0.11930295834E+04  0.65864270000E+03 0.  1.
    8880022    1    1    2    0    0 -0.81393261366E+03 -0.44562709099E+03  0.13748953740E+04  0.16657727175E+04  0.15294330000E+03 0.  0.
<mgrwt>
<rscale>  0 0.10849780E+04</rscale>
<asrwt>0</asrwt>
<pdfrwt beam="1">  1        1 0.29810099E+00 0.11379279E+04</pdfrwt>
<pdfrwt beam="2">  1       -1 0.14171474E+00 0.11379279E+04</pdfrwt>
<totfact> 0.13212898E+00</totfact>
</mgrwt>
</event>
<event>
 4    5  0.7214169E-008  0.6752432E+03  0.7818608E-02  0.1012153E+00
         -1   -1    0    0    0  501 -0.00000000000E+00  0.00000000000E+00  0.16528474434E+03  0.16528474441E+03  0.50400000000E-02 0.  1.
          1   -1    0    0  501    0  0.00000000000E+00 -0.00000000000E+00 -0.16357726427E+04  0.16357726427E+04  0.50400000000E-02 0. -1.
    8880023    1    1    2    0    0  0.55697768368E+02  0.13798884472E+03 -0.59515697008E+03  0.90009176641E+03  0.65864270000E+03 0.  0.
    8880022    1    1    2    0    0 -0.55697768368E+02 -0.13798884472E+03 -0.87533092828E+03  0.90096562070E+03  0.15294330000E+03 0.  0.
<mgrwt>
<rscale>  0 0.50627690E+03</rscale>
<asrwt>0</asrwt>
<pdfrwt beam="1">  1        1 0.25165732E+00 0.67524319E+03</pdfrwt>
<pdfrwt beam="2">  1       -1 0.25428423E-01 0.67524319E+03</pdfrwt>
<totfact> 0.74199279E+01</totfact>
</mgrwt>
</event>
<event>
 4    5  0.7214169E-008  0.9158763E+03  0.7818608E-02  0.9501011E-01
          1   -1    0    0  501    0  0.00000000000E+00  0.00000000000E+00  0.38039965109E+04  0.38039965109E+04  0.50400000000E-02 0. -1.
         -1   -1    0    0    0  501 -0.00000000000E+00 -0.00000000000E+00 -0.28236909614E+03  0.28236909618E+03  0.50400000000E-02 0.  1.
    8880023    1    1    2    0    0  0.60786600832E+03 -0.18846243893E+03  0.60608708129E+03  0.10982581351E+04  0.65864270000E+03 0.  1.
    8880022    1    1    2    0    0 -0.60786600832E+03  0.18846243893E+03  0.29155403335E+04  0.29881074720E+04  0.15294330000E+03 0.  0.
<mgrwt>
<rscale>  0 0.84209321E+03</rscale>
<asrwt>0</asrwt>
<pdfrwt beam="1">  1        1 0.58523023E+00 0.91587629E+03</pdfrwt>
<pdfrwt beam="2">  1       -1 0.43441400E-01 0.91587629E+03</pdfrwt>
<totfact> 0.78671338E-01</totfact>
</mgrwt>
</event>
<event>
 4    5  0.7214169E-008  0.7252713E+03  0.7818608E-02  0.9905137E-01
          1   -1    0    0  501    0  0.00000000000E+00  0.00000000000E+00  0.92625375608E+03  0.92625375609E+03  0.50400000000E-02 0. -1.
         -1   -1    0    0    0  501 -0.00000000000E+00 -0.00000000000E+00 -0.55669442850E+03  0.55669442853E+03  0.50400000000E-02 0.  1.
    8880023    1    1    2    0    0 -0.19214546358E+03  0.23513486982E+03 -0.25751425275E+03  0.76963113425E+03  0.65864270000E+03 0.  0.
    8880022    1    1    2    0    0  0.19214546358E+03 -0.23513486982E+03  0.62707358032E+03  0.71331705036E+03  0.15294330000E+03 0.  0.
<mgrwt>
<rscale>  0 0.60012964E+03</rscale>
<asrwt>0</asrwt>
<pdfrwt beam="1">  1        1 0.14250058E+00 0.72527132E+03</pdfrwt>
<pdfrwt beam="2">  1       -1 0.85645298E-01 0.72527132E+03</pdfrwt>
<totfact> 0.24039662E+01</totfact>
</mgrwt>
</event>
<event>
 4    5  0.7214169E-008  0.9899680E+03  0.7818608E-02  0.9394802E-01
          1   -1    0    0  501    0  0.00000000000E+00  0.00000000000E+00  0.91503757927E+03  0.91503757928E+03  0.50400000000E-02 0. -1.
         -1   -1    0    0    0  501 -0.00000000000E+00 -0.00000000000E+00 -0.12012017265E+04  0.12012017265E+04  0.50400000000E-02 0.  1.
    8880023    1    1    2    0    0  0.69548228116E+03  0.25006177672E+03 -0.73963205319E+03  0.12357557509E+04  0.65864270000E+03 0.  0.
    8880022    1    1    2    0    0 -0.69548228116E+03 -0.25006177672E+03  0.45346790598E+03  0.88048355484E+03  0.15294330000E+03 0. -1.
<mgrwt>
<rscale>  0 0.92504712E+03</rscale>
<asrwt>0</asrwt>
<pdfrwt beam="1">  1        1 0.14077501E+00 0.98996803E+03</pdfrwt>
<pdfrwt beam="2">  1       -1 0.18480026E+00 0.98996803E+03</pdfrwt>
<totfact> 0.34170661E+00</totfact>
</mgrwt>
</event>
<event>
 4    5  0.7214169E-008  0.1292532E+04  0.7818608E-02  0.9072036E-01
          1   -1    0    0  501    0  0.00000000000E+00  0.00000000000E+00  0.19630420103E+04  0.19630420103E+04  0.50400000000E-02 0. -1.
         -1   -1    0    0    0  501 -0.00000000000E+00 -0.00000000000E+00 -0.79753724232E+03  0.79753724234E+03  0.50400000000E-02 0.  1.
    8880023    1    1    2    0    0 -0.10965487413E+04  0.18550146508E+03  0.98160909284E+03  0.16230208111E+04  0.65864270000E+03 0.  0.
    8880022    1    1    2    0    0  0.10965487413E+04 -0.18550146508E+03  0.18389567514E+03  0.11375584416E+04  0.15294330000E+03 0.  0.
<mgrwt>
<rscale>  0 0.12477769E+04</rscale>
<asrwt>0</asrwt>
<pdfrwt beam="1">  1        1 0.30200646E+00 0.12925325E+04</pdfrwt>
<pdfrwt beam="2">  1       -1 0.12269804E+00 0.12925325E+04</pdfrwt>
<totfact> 0.18018367E+00</totfact>
</mgrwt>
</event>
<event>
 4    5  0.7214169E-008  0.9924335E+03  0.7818608E-02  0.9391525E-01
          1   -1    0    0  501    0  0.00000000000E+00  0.00000000000E+00  0.12491619723E+04  0.12491619723E+04  0.50400000000E-02 0. -1.
         -1   -1    0    0    0  501 -0.00000000000E+00 -0.00000000000E+00 -0.68204889367E+03  0.68204889369E+03  0.50400000000E-02 0.  1.
    8880023    1    1    2    0    0 -0.71232896981E+03 -0.20904907325E+03  0.13373039235E+02  0.99252361216E+03  0.65864270000E+03 0.  0.
    8880022    1    1    2    0    0  0.71232896981E+03  0.20904907325E+03  0.55374003934E+03  0.93868725379E+03  0.15294330000E+03 0.  0.
<mgrwt>
<rscale>  0 0.92776474E+03</rscale>
<asrwt>0</asrwt>
<pdfrwt beam="1">  1        1 0.19217876E+00 0.99243352E+03</pdfrwt>
<pdfrwt beam="2">  1       -1 0.10493060E+00 0.99243352E+03</pdfrwt>
<totfact> 0.84291441E+00</totfact>
</mgrwt>
</event>
<event>
 4    5  0.7214169E-008  0.7575169E+03  0.7818608E-02  0.9811579E-01
          1   -1    0    0  501    0  0.00000000000E+00  0.00000000000E+00  0.13076820663E+04  0.13076820663E+04  0.50400000000E-02 0. -1.
         -1   -1    0    0    0  501 -0.00000000000E+00 -0.00000000000E+00 -0.50949932116E+03  0.50949932118E+03  0.50400000000E-02 0.  1.
    8880023    1    1    2    0    0 -0.18237967606E+03  0.32674033961E+03 -0.16264326273E+03  0.77478037723E+03  0.65864270000E+03 0. -1.
    8880022    1    1    2    0    0  0.18237967606E+03 -0.32674033961E+03  0.96082600782E+03  0.10424010102E+04  0.15294330000E+03 0.  0.
<mgrwt>
<rscale>  0 0.64744836E+03</rscale>
<asrwt>0</asrwt>
<pdfrwt beam="1">  1        1 0.20118186E+00 0.75751687E+03</pdfrwt>
<pdfrwt beam="2">  1       -1 0.78384510E-01 0.75751687E+03</pdfrwt>
<totfact> 0.15028195E+01</totfact>
</mgrwt>
</event>
<event>
 4    5  0.7214169E-008  0.8159142E+03  0.7818608E-02  0.9677387E-01
         -1   -1    0    0    0  501 -0.00000000000E+00  0.00000000000E+00  0.41109355713E+03  0.41109355716E+03  0.50400000000E-02 0.  1.
          1   -1    0    0  501    0  0.00000000000E+00 -0.00000000000E+00 -0.18301318103E+04  0.18301318103E+04  0.50400000000E-02 0. -1.
    8880023    1    1    2    0    0  0.25683275621E+02 -0.48088057589E+03 -0.91798069923E+02  0.82106202617E+03  0.65864270000E+03 0.  1.
    8880022    1    1    2    0    0 -0.25683275621E+02  0.48088057589E+03 -0.13272401833E+04  0.14201633413E+04  0.15294330000E+03 0.  0.
<mgrwt>
<rscale>  0 0.72379265E+03</rscale>
<asrwt>0</asrwt>
<pdfrwt beam="1">  1        1 0.28155874E+00 0.81591419E+03</pdfrwt>
<pdfrwt beam="2">  1       -1 0.63245164E-01 0.81591419E+03</pdfrwt>
<totfact> 0.10179830E+01</totfact>
</mgrwt>
</event>
<event>
 4    5  0.7214169E-008  0.6712876E+03  0.7818608E-02  0.1014756E+00
         -1   -1    0    0    0  501 -0.00000000000E+00  0.00000000000E+00  0.15199511455E+03  0.15199511464E+03  0.50400000000E-02 0.  1.
          1   -1    0    0  501    0  0.00000000000E+00 -0.00000000000E+00 -0.17881211599E+04  0.17881211599E+04  0.50400000000E-02 0. -1.
    8880023    1    1    2    0    0 -0.52034958104E+02 -0.11878218270E+03 -0.65212571637E+03  0.93589262205E+03  0.65864270000E+03 0.  0.
    8880022    1    1    2    0    0  0.52034958104E+02  0.11878218270E+03 -0.98400032895E+03  0.10042236525E+04  0.15294330000E+03 0.  0.
<mgrwt>
<rscale>  0 0.49627363E+03</rscale>
<asrwt>0</asrwt>
<pdfrwt beam="1">  1        1 0.27509555E+00 0.67128761E+03</pdfrwt>
<pdfrwt beam="2">  1       -1 0.23383865E-01 0.67128761E+03</pdfrwt>
<totfact> 0.67636501E+01</totfact>
</mgrwt>
</event>
<event>
 4    5  0.7214169E-008  0.1024674E+04  0.7818608E-02  0.9349965E-01
         -1   -1    0    0    0  501 -0.00000000000E+00  0.00000000000E+00  0.19266659794E+04  0.19266659794E+04  0.50400000000E-02 0.  1.
          1   -1    0    0  501    0  0.00000000000E+00 -0.00000000000E+00 -0.66579816834E+03  0.66579816835E+03  0.50400000000E-02 0. -1.
    8880023    1    1    2    0    0 -0.77651733606E+03  0.11475062371E+03 -0.83657499473E+02  0.10280834900E+04  0.65864270000E+03 0. -1.
    8880022    1    1    2    0    0  0.77651733606E+03 -0.11475062371E+03  0.13445253106E+04  0.15643806578E+04  0.15294330000E+03 0.  0.
<mgrwt>
<rscale>  0 0.96310285E+03</rscale>
<asrwt>0</asrwt>
<pdfrwt beam="1">  1        1 0.10243049E+00 0.10246741E+04</pdfrwt>
<pdfrwt beam="2">  1       -1 0.29641015E+00 0.10246741E+04</pdfrwt>
<totfact> 0.10341565E+00</totfact>
</mgrwt>
</event>
<event>
 4    5  0.7214169E-008  0.6602434E+03  0.7818608E-02  0.1023908E+00
         -1   -1    0    0    0  501 -0.00000000000E+00  0.00000000000E+00  0.57475963356E+03  0.57475963358E+03  0.50400000000E-02 0.  1.
          1   -1    0    0  501    0  0.00000000000E+00 -0.00000000000E+00 -0.20314870984E+04  0.20314870984E+04  0.50400000000E-02 0. -1.
    8880023    1    1    2    0    0 -0.39219338137E+02 -0.23935891891E+02  0.38053612199E+03  0.76205579179E+03  0.65864270000E+03 0.  1.
    8880022    1    1    2    0    0  0.39219338137E+02  0.23935891891E+02 -0.18372635868E+04  0.18441909402E+04  0.15294330000E+03 0.  0.
<mgrwt>
<rscale>  0 0.46302173E+03</rscale>
<asrwt>0</asrwt>
<pdfrwt beam="1">  1        1 0.31253647E+00 0.66024336E+03</pdfrwt>
<pdfrwt beam="2">  1       -1 0.88424560E-01 0.66024336E+03</pdfrwt>
<totfact> 0.38140659E+00</totfact>
</mgrwt>
</event>
<event>
 4    5  0.7214169E-008  0.1229999E+04  0.7818608E-02  0.9128499E-01
         -1   -1    0    0    0  501 -0.00000000000E+00  0.00000000000E+00  0.80024854415E+03  0.80024854417E+03  0.50400000000E-02 0.  1.
          1   -1    0    0  501    0  0.00000000000E+00 -0.00000000000E+00 -0.21248586365E+04  0.21248586366E+04  0.50400000000E-02 0. -1.
    8880023    1    1    2    0    0  0.71722142280E+03  0.75145281024E+03  0.61264317622E+01  0.12300144856E+04  0.65864270000E+03 0.  0.
    8880022    1    1    2    0    0 -0.71722142280E+03 -0.75145281024E+03 -0.13307365242E+04  0.16950926951E+04  0.15294330000E+03 0.  0.
<mgrwt>
<rscale>  0 0.11822925E+04</rscale>
<asrwt>0</asrwt>
<pdfrwt beam="1">  1        1 0.32690133E+00 0.12299992E+04</pdfrwt>
<pdfrwt beam="2">  1       -1 0.12311516E+00 0.12299992E+04</pdfrwt>
<totfact> 0.13982580E+00</totfact>
</mgrwt>
</event>
<event>
 4    5  0.7214169E-008  0.7482416E+03  0.7818608E-02  0.9836559E-01
         -1   -1    0    0    0  501 -0.00000000000E+00  0.00000000000E+00  0.59267127084E+03  0.59267127086E+03  0.50400000000E-02 0.  1.
          1   -1    0    0  501    0  0.00000000000E+00 -0.00000000000E+00 -0.75532680419E+03  0.75532680421E+03  0.50400000000E-02 0. -1.
    8880023    1    1    2    0    0  0.34336569035E+03 -0.90306786008E+02  0.24389661549E+03  0.78698861378E+03  0.65864270000E+03 0.  0.
    8880022    1    1    2    0    0 -0.34336569035E+03  0.90306786008E+02 -0.40655214885E+03  0.56100946129E+03  0.15294330000E+03 0.  0.
<mgrwt>
<rscale>  0 0.63436948E+03</rscale>
<asrwt>0</asrwt>
<pdfrwt beam="1">  1        1 0.11620412E+00 0.74824162E+03</pdfrwt>
<pdfrwt beam="2">  1       -1 0.91180195E-01 0.74824162E+03</pdfrwt>
<totfact> 0.29154104E+01</totfact>
</mgrwt>
</event>
<event>
 4    5  0.7214169E-008  0.8231584E+03  0.7818608E-02  0.9662794E-01
         -1   -1    0    0    0  501 -0.00000000000E+00  0.00000000000E+00  0.17312799124E+03  0.17312799131E+03  0.50400000000E-02 0.  1.
          1   -1    0    0  501    0  0.00000000000E+00 -0.00000000000E+00 -0.33060708372E+04  0.33060708372E+04  0.50400000000E-02 0. -1.
    8880023    1    1    2    0    0 -0.58714251219E+02  0.49023679466E+03 -0.10561279273E+04  0.13390279621E+04  0.65864270000E+03 0.  1.
    8880022    1    1    2    0    0  0.58714251219E+02 -0.49023679466E+03 -0.20768149186E+04  0.21401708664E+04  0.15294330000E+03 0.  0.
<mgrwt>
<rscale>  0 0.73275913E+03</rscale>
<asrwt>0</asrwt>
<pdfrwt beam="1">  1        1 0.50862623E+00 0.82315836E+03</pdfrwt>
<pdfrwt beam="2">  1       -1 0.26635078E-01 0.82315836E+03</pdfrwt>
<totfact> 0.47041505E+00</totfact>
</mgrwt>
</event>
<event>
 4    5  0.7214169E-008  0.7937960E+03  0.7818608E-02  0.9724375E-01
         -1   -1    0    0    0  501 -0.00000000000E+00  0.00000000000E+00  0.60915987916E+03  0.60915987918E+03  0.50400000000E-02 0.  1.
          1   -1    0    0  501    0  0.00000000000E+00 -0.00000000000E+00 -0.85868473899E+03  0.85868473901E+03  0.50400000000E-02 0. -1.
    8880023    1    1    2    0    0  0.28256212590E+03 -0.34126303974E+03 -0.49826320171E+03  0.93721835328E+03  0.65864270000E+03 0. -1.
    8880022    1    1    2    0    0 -0.28256212590E+03  0.34126303974E+03  0.24873834187E+03  0.53062626491E+03  0.15294330000E+03 0.  0.
<mgrwt>
<rscale>  0 0.69583906E+03</rscale>
<asrwt>0</asrwt>
<pdfrwt beam="1">  1        1 0.13210534E+00 0.79379596E+03</pdfrwt>
<pdfrwt beam="2">  1       -1 0.93716904E-01 0.79379596E+03</pdfrwt>
<totfact> 0.22227827E+01</totfact>
</mgrwt>
</event>
<event>
 4    5  0.7214169E-008  0.6616769E+03  0.7818608E-02  0.1022501E+00
          1   -1    0    0  501    0  0.00000000000E+00  0.00000000000E+00  0.10965854109E+04  0.10965854109E+04  0.50400000000E-02 0. -1.
         -1   -1    0    0    0  501 -0.00000000000E+00 -0.00000000000E+00 -0.55434995668E+03  0.55434995670E+03  0.50400000000E-02 0.  1.
    8880023    1    1    2    0    0 -0.57618025887E+02  0.26197957798E+02 -0.34650321029E+03  0.74691421924E+03  0.65864270000E+03 0.  1.
    8880022    1    1    2    0    0  0.57618025887E+02 -0.26197957798E+02  0.88873866452E+03  0.90402114839E+03  0.15294330000E+03 0.  0.
<mgrwt>
<rscale>  0 0.46794952E+03</rscale>
<asrwt>0</asrwt>
<pdfrwt beam="1">  1        1 0.16870545E+00 0.66167694E+03</pdfrwt>
<pdfrwt beam="2">  1       -1 0.85284609E-01 0.66167694E+03</pdfrwt>
<totfact> 0.18079820E+01</totfact>
</mgrwt>
</event>
<event>
 4    5  0.7214169E-008  0.7117380E+03  0.7818608E-02  0.9951603E-01
          1   -1    0    0  501    0  0.00000000000E+00  0.00000000000E+00  0.17357757231E+04  0.17357757231E+04  0.50400000000E-02 0. -1.
         -1   -1    0    0    0  501 -0.00000000000E+00 -0.00000000000E+00 -0.82789201274E+03  0.82789201276E+03  0.50400000000E-02 0.  1.
    8880023    1    1    2    0    0  0.13443531419E+03 -0.23385454700E+03 -0.65684348814E+03  0.96851142328E+03  0.65864270000E+03 0.  0.
    8880022    1    1    2    0    0 -0.13443531419E+03  0.23385454700E+03  0.15647271985E+04  0.15951563125E+04  0.15294330000E+03 0.  0.
<mgrwt>
<rscale>  0 0.57824272E+03</rscale>
<asrwt>0</asrwt>
<pdfrwt beam="1">  1        1 0.26704242E+00 0.71173802E+03</pdfrwt>
<pdfrwt beam="2">  1       -1 0.12736800E+00 0.71173802E+03</pdfrwt>
<totfact> 0.25423011E+00</totfact>
</mgrwt>
</event>
<event>
 4    5  0.7214169E-008  0.1548832E+04  0.7818608E-02  0.8875902E-01
         -1   -1    0    0    0  501 -0.00000000000E+00  0.00000000000E+00  0.16477463640E+04  0.16477463640E+04  0.50400000000E-02 0.  1.
          1   -1    0    0  501    0  0.00000000000E+00 -0.00000000000E+00 -0.14890069302E+04  0.14890069302E+04  0.50400000000E-02 0. -1.
    8880023    1    1    2    0    0  0.11203451033E+04 -0.84255486943E+03  0.59727809256E+03  0.16600069833E+04  0.65864270000E+03 0.  0.
    8880022    1    1    2    0    0 -0.11203451033E+04  0.84255486943E+03 -0.43853865882E+03  0.14767463109E+04  0.15294330000E+03 0.  0.
<mgrwt>
<rscale>  0 0.15129272E+04</rscale>
<asrwt>0</asrwt>
<pdfrwt beam="1">  1        1 0.22907799E+00 0.15488325E+04</pdfrwt>
<pdfrwt beam="2">  1       -1 0.25349944E+00 0.15488325E+04</pdfrwt>
<totfact> 0.41433872E-01</totfact>
</mgrwt>
</event>
<event>
 4    5  0.7214169E-008  0.9150592E+03  0.7818608E-02  0.9502277E-01
         -1   -1    0    0    0  501 -0.00000000000E+00  0.00000000000E+00  0.71894022081E+03  0.71894022082E+03  0.50400000000E-02 0.  1.
          1   -1    0    0  501    0  0.00000000000E+00 -0.00000000000E+00 -0.11293364035E+04  0.11293364035E+04  0.50400000000E-02 0. -1.
    8880023    1    1    2    0    0 -0.42998409949E+03  0.46758608628E+03  0.21916451994E+03  0.94093908781E+03  0.65864270000E+03 0.  0.
    8880022    1    1    2    0    0  0.42998409949E+03 -0.46758608628E+03 -0.62956070266E+03  0.90733753655E+03  0.15294330000E+03 0.  0.
<mgrwt>
<rscale>  0 0.84116177E+03</rscale>
<asrwt>0</asrwt>
<pdfrwt beam="1">  1        1 0.17374406E+00 0.91505917E+03</pdfrwt>
<pdfrwt beam="2">  1       -1 0.11060619E+00 0.91505917E+03</pdfrwt>
<totfact> 0.91924161E+00</totfact>
</mgrwt>
</event>
<event>
 4    5  0.7214169E-008  0.1754147E+04  0.7818608E-02  0.8748334E-01
          1   -1    0    0  501    0  0.00000000000E+00  0.00000000000E+00  0.18031040800E+04  0.18031040800E+04  0.50400000000E-02 0. -1.
         -1   -1    0    0    0  501 -0.00000000000E+00 -0.00000000000E+00 -0.25621680862E+04  0.25621680862E+04  0.50400000000E-02 0.  1.
    8880023    1    1    2    0    0  0.13913385959E+04 -0.84106897039E+03 -0.17314221563E+04  0.24647216863E+04  0.65864270000E+03 0.  1.
    8880022    1    1    2    0    0 -0.13913385959E+04  0.84106897039E+03  0.97235815017E+03  0.19005504799E+04  0.15294330000E+03 0.  0.
<mgrwt>
<rscale>  0 0.17230361E+04</rscale>
<asrwt>0</asrwt>
<pdfrwt beam="1">  1        1 0.27740063E+00 0.17541466E+04</pdfrwt>
<pdfrwt beam="2">  1       -1 0.39417971E+00 0.17541466E+04</pdfrwt>
<totfact> 0.29067902E-02</totfact>
</mgrwt>
</event>
<event>
 4    5  0.7214169E-008  0.8791383E+03  0.7818608E-02  0.9560387E-01
         -1   -1    0    0    0  501 -0.00000000000E+00  0.00000000000E+00  0.41000060907E+03  0.41000060910E+03  0.50400000000E-02 0.  1.
          1   -1    0    0  501    0  0.00000000000E+00 -0.00000000000E+00 -0.31243145742E+04  0.31243145742E+04  0.50400000000E-02 0. -1.
    8880023    1    1    2    0    0 -0.34733197554E+03  0.46736966776E+03 -0.13960547334E+03  0.89015380807E+03  0.65864270000E+03 0.  1.
    8880022    1    1    2    0    0  0.34733197554E+03 -0.46736966776E+03 -0.25747084918E+04  0.26441613753E+04  0.15294330000E+03 0.  0.
<mgrwt>
<rscale>  0 0.79974445E+03</rscale>
<asrwt>0</asrwt>
<pdfrwt beam="1">  1        1 0.48066377E+00 0.87913828E+03</pdfrwt>
<pdfrwt beam="2">  1       -1 0.63077019E-01 0.87913828E+03</pdfrwt>
<totfact> 0.12988810E+00</totfact>
</mgrwt>
</event>
<event>
 4    5  0.7214169E-008  0.1639600E+04  0.7818608E-02  0.8816873E-01
         -1   -1    0    0    0  501 -0.00000000000E+00  0.00000000000E+00  0.17086547979E+04  0.17086547979E+04  0.50400000000E-02 0.  1.
          1   -1    0    0  501    0  0.00000000000E+00 -0.00000000000E+00 -0.20957705894E+04  0.20957705894E+04  0.50400000000E-02 0. -1.
    8880023    1    1    2    0    0 -0.98475460429E+03  0.11334625610E+04 -0.12537722576E+04  0.20640334513E+04  0.65864270000E+03 0.  0.
    8880022    1    1    2    0    0  0.98475460429E+03 -0.11334625610E+04  0.86665646608E+03  0.17403919361E+04  0.15294330000E+03 0.  0.
<mgrwt>
<rscale>  0 0.16059966E+04</rscale>
<asrwt>0</asrwt>
<pdfrwt beam="1">  1        1 0.32242625E+00 0.16396003E+04</pdfrwt>
<pdfrwt beam="2">  1       -1 0.26286997E+00 0.16396003E+04</pdfrwt>
<totfact> 0.13677111E-01</totfact>
</mgrwt>
</event>
<event>
 4    5  0.7214169E-008  0.1839803E+04  0.7818608E-02  0.8700832E-01
          1   -1    0    0  501    0  0.00000000000E+00  0.00000000000E+00  0.48677135790E+04  0.48677135790E+04  0.50400000000E-02 0. -1.
         -1   -1    0    0    0  501 -0.00000000000E+00 -0.00000000000E+00 -0.94591645768E+03  0.94591645769E+03  0.50400000000E-02 0.  1.
    8880023    1    1    2    0    0 -0.98761478107E+03 -0.14055899620E+04  0.38632438618E+03  0.18799262844E+04  0.65864270000E+03 0.  0.
    8880022    1    1    2    0    0  0.98761478107E+03  0.14055899620E+04  0.35354727351E+04  0.39337037523E+04  0.15294330000E+03 0.  0.
<mgrwt>
<rscale>  0 0.18103166E+04</rscale>
<asrwt>0</asrwt>
<pdfrwt beam="1">  1        1 0.74887900E+00 0.18398033E+04</pdfrwt>
<pdfrwt beam="2">  1       -1 0.14552561E+00 0.18398033E+04</pdfrwt>
<totfact> 0.44417245E-03</totfact>
</mgrwt>
</event>
<event>
 4    5  0.7214169E-008  0.9026283E+03  0.7818608E-02  0.9521825E-01
         -1   -1    0    0    0  501 -0.00000000000E+00  0.00000000000E+00  0.74180928763E+03  0.74180928765E+03  0.50400000000E-02 0.  1.
          1   -1    0    0  501    0  0.00000000000E+00 -0.00000000000E+00 -0.12187783669E+04  0.12187783669E+04  0.50400000000E-02 0. -1.
    8880023    1    1    2    0    0 -0.25451538988E+03  0.56227176802E+03  0.30495916959E+03  0.95275281483E+03  0.65864270000E+03 0.  1.
    8880022    1    1    2    0    0  0.25451538988E+03 -0.56227176802E+03 -0.78192824887E+03  0.10078348397E+04  0.15294330000E+03 0.  0.
<mgrwt>
<rscale>  0 0.82693669E+03</rscale>
<asrwt>0</asrwt>
<pdfrwt beam="1">  1        1 0.18750436E+00 0.90262829E+03</pdfrwt>
<pdfrwt beam="2">  1       -1 0.11412451E+00 0.90262829E+03</pdfrwt>
<totfact> 0.73465309E+00</totfact>
</mgrwt>
</event>
<event>
 4    5  0.7214169E-008  0.6813339E+03  0.7818608E-02  0.1008579E+00
         -1   -1    0    0    0  501 -0.00000000000E+00  0.00000000000E+00  0.78373137424E+03  0.78373137425E+03  0.50400000000E-02 0.  1.
          1   -1    0    0  501    0  0.00000000000E+00 -0.00000000000E+00 -0.82464076742E+03  0.82464076744E+03  0.50400000000E-02 0. -1.
    8880023    1    1    2    0    0 -0.16588211756E+03  0.53747546062E+02  0.61178264693E+03  0.91569311943E+03  0.65864270000E+03 0.  1.
    8880022    1    1    2    0    0  0.16588211756E+03 -0.53747546062E+02 -0.65269204011E+03  0.69267902225E+03  0.15294330000E+03 0.  0.
<mgrwt>
<rscale>  0 0.52043331E+03</rscale>
<asrwt>0</asrwt>
<pdfrwt beam="1">  1        1 0.12686781E+00 0.68133390E+03</pdfrwt>
<pdfrwt beam="2">  1       -1 0.12057406E+00 0.68133390E+03</pdfrwt>
<totfact> 0.13384246E+01</totfact>
</mgrwt>
</event>
<event>
 4    5  0.7214169E-008  0.1096184E+04  0.7818608E-02  0.9265316E-01
          1   -1    0    0  501    0  0.00000000000E+00  0.00000000000E+00  0.32581495453E+04  0.32581495453E+04  0.50400000000E-02 0. -1.
         -1   -1    0    0    0  501 -0.00000000000E+00 -0.00000000000E+00 -0.11859170249E+04  0.11859170249E+04  0.50400000000E-02 0.  1.
    8880023    1    1    2    0    0 -0.38961547211E+03 -0.78486283084E+03 -0.85148405091E+03  0.13880364457E+04  0.65864270000E+03 0.  1.
    8880022    1    1    2    0    0  0.38961547211E+03  0.78486283084E+03  0.29237165713E+04  0.30560301245E+04  0.15294330000E+03 0.  0.
<mgrwt>
<rscale>  0 0.10403958E+04</rscale>
<asrwt>0</asrwt>
<pdfrwt beam="1">  1        1 0.50125378E+00 0.10961843E+04</pdfrwt>
<pdfrwt beam="2">  1       -1 0.18244877E+00 0.10961843E+04</pdfrwt>
<totfact> 0.77923997E-02</totfact>
</mgrwt>
</event>
<event>
 4    5  0.7214169E-008  0.7001138E+03  0.7818608E-02  0.9996730E-01
         -1   -1    0    0    0  501 -0.00000000000E+00  0.00000000000E+00  0.84660847663E+03  0.84660847665E+03  0.50400000000E-02 0.  1.
          1   -1    0    0  501    0  0.00000000000E+00 -0.00000000000E+00 -0.77816376293E+03  0.77816376295E+03  0.50400000000E-02 0. -1.
    8880023    1    1    2    0    0  0.17970219132E+03  0.15510060342E+03  0.66447084697E+03  0.96523613043E+03  0.65864270000E+03 0.  1.
    8880022    1    1    2    0    0 -0.17970219132E+03 -0.15510060342E+03 -0.59602613327E+03  0.65953610917E+03  0.15294330000E+03 0.  0.
<mgrwt>
<rscale>  0 0.55793870E+03</rscale>
<asrwt>0</asrwt>
<pdfrwt beam="1">  1        1 0.11971750E+00 0.70011376E+03</pdfrwt>
<pdfrwt beam="2">  1       -1 0.13024746E+00 0.70011376E+03</pdfrwt>
<totfact> 0.12093309E+01</totfact>
</mgrwt>
</event>
<event>
 4    5  0.7214169E-008  0.7830314E+03  0.7818608E-02  0.9748764E-01
         -1   -1    0    0    0  501 -0.00000000000E+00  0.00000000000E+00  0.11439223100E+04  0.11439223100E+04  0.50400000000E-02 0.  1.
          1   -1    0    0  501    0  0.00000000000E+00 -0.00000000000E+00 -0.79205619793E+03  0.79205619795E+03  0.50400000000E-02 0. -1.
    8880023    1    1    2    0    0 -0.42346351813E+03 -0.25842519401E+01  0.92191070574E+03  0.12095691734E+04  0.65864270000E+03 0.  0.
    8880022    1    1    2    0    0  0.42346351813E+03  0.25842519401E+01 -0.57004459369E+03  0.72640933457E+03  0.15294330000E+03 0.  0.
<mgrwt>
<rscale>  0 0.68186185E+03</rscale>
<asrwt>0</asrwt>
<pdfrwt beam="1">  1        1 0.12185480E+00 0.78303144E+03</pdfrwt>
<pdfrwt beam="2">  1       -1 0.17598805E+00 0.78303144E+03</pdfrwt>
<totfact> 0.51512278E+00</totfact>
</mgrwt>
</event>
<event>
 4    5  0.7214169E-008  0.1069735E+04  0.7818608E-02  0.9295525E-01
          1   -1    0    0  501    0  0.00000000000E+00  0.00000000000E+00  0.82008913538E+03  0.82008913539E+03  0.50400000000E-02 0. -1.
         -1   -1    0    0    0  501 -0.00000000000E+00 -0.00000000000E+00 -0.28285229763E+04  0.28285229763E+04  0.50400000000E-02 0.  1.
    8880023    1    1    2    0    0 -0.28495562706E+03  0.79329884029E+03 -0.24583177587E+04  0.26809810086E+04  0.65864270000E+03 0.  0.
    8880022    1    1    2    0    0  0.28495562706E+03 -0.79329884029E+03  0.44988391771E+03  0.96763110317E+03  0.15294330000E+03 0.  0.
<mgrwt>
<rscale>  0 0.10119588E+04</rscale>
<asrwt>0</asrwt>
<pdfrwt beam="1">  1        1 0.12616756E+00 0.10697350E+04</pdfrwt>
<pdfrwt beam="2">  1       -1 0.43515737E+00 0.10697350E+04</pdfrwt>
<totfact> 0.88272699E-02</totfact>
</mgrwt>
</event>
<event>
 4    5  0.7214169E-008  0.1501898E+04  0.7818608E-02  0.8908296E-01
          1   -1    0    0  501    0  0.00000000000E+00  0.00000000000E+00  0.33697995989E+04  0.33697995989E+04  0.50400000000E-02 0. -1.
         -1   -1    0    0    0  501 -0.00000000000E+00 -0.00000000000E+00 -0.63753627979E+03  0.63753627981E+03  0.50400000000E-02 0.  1.
    8880023    1    1    2    0    0 -0.51566712377E+03  0.12473877867E+04  0.99312343483E+03  0.18005535915E+04  0.65864270000E+03 0.  0.
    8880022    1    1    2    0    0  0.51566712377E+03 -0.12473877867E+04  0.17391398843E+04  0.22067822872E+04  0.15294330000E+03 0.  0.
<mgrwt>
<rscale>  0 0.14646648E+04</rscale>
<asrwt>0</asrwt>
<pdfrwt beam="1">  1        1 0.51843070E+00 0.15018985E+04</pdfrwt>
<pdfrwt beam="2">  1       -1 0.98082506E-01 0.15018985E+04</pdfrwt>
<totfact> 0.30254803E-01</totfact>
</mgrwt>
</event>
<event>
 4    5  0.7214169E-008  0.7558480E+03  0.7818608E-02  0.9815978E-01
          1   -1    0    0  501    0  0.00000000000E+00  0.00000000000E+00  0.18515488117E+04  0.18515488117E+04  0.50400000000E-02 0. -1.
         -1   -1    0    0    0  501 -0.00000000000E+00 -0.00000000000E+00 -0.26218288408E+03  0.26218288413E+03  0.50400000000E-02 0.  1.
    8880023    1    1    2    0    0  0.99666708198E+02  0.35715890898E+03  0.39299323895E+03  0.85190952049E+03  0.65864270000E+03 0.  1.
    8880022    1    1    2    0    0 -0.99666708198E+02 -0.35715890898E+03  0.11963726886E+04  0.12618221753E+04  0.15294330000E+03 0.  0.
<mgrwt>
<rscale>  0 0.64512096E+03</rscale>
<asrwt>0</asrwt>
<pdfrwt beam="1">  1        1 0.28485367E+00 0.75584796E+03</pdfrwt>
<pdfrwt beam="2">  1       -1 0.40335827E-01 0.75584796E+03</pdfrwt>
<totfact> 0.23375863E+01</totfact>
</mgrwt>
</event>
<event>
 4    5  0.7214169E-008  0.8204084E+03  0.7818608E-02  0.9668291E-01
          1   -1    0    0  501    0  0.00000000000E+00  0.00000000000E+00  0.21817867236E+04  0.21817867236E+04  0.50400000000E-02 0. -1.
         -1   -1    0    0    0  501 -0.00000000000E+00 -0.00000000000E+00 -0.91875535013E+03  0.91875535014E+03  0.50400000000E-02 0.  1.
    8880023    1    1    2    0    0  0.18921696764E+03 -0.45106175882E+03 -0.69582577201E+03  0.10757525191E+04  0.65864270000E+03 0.  1.
    8880022    1    1    2    0    0 -0.18921696764E+03  0.45106175882E+03  0.19588571455E+04  0.20247895546E+04  0.15294330000E+03 0.  0.
<mgrwt>
<rscale>  0 0.72936522E+03</rscale>
<asrwt>0</asrwt>
<pdfrwt beam="1">  1        1 0.33565949E+00 0.82040842E+03</pdfrwt>
<pdfrwt beam="2">  1       -1 0.14134698E+00 0.82040842E+03</pdfrwt>
<totfact> 0.95882434E-01</totfact>
</mgrwt>
</event>
<event>
 4    5  0.7214169E-008  0.8492668E+03  0.7818608E-02  0.9612948E-01
         -1   -1    0    0    0  501 -0.00000000000E+00  0.00000000000E+00  0.16775006427E+04  0.16775006427E+04  0.50400000000E-02 0.  1.
          1   -1    0    0  501    0  0.00000000000E+00 -0.00000000000E+00 -0.57426403914E+03  0.57426403916E+03  0.50400000000E-02 0. -1.
    8880023    1    1    2    0    0  0.14699665057E+03 -0.51559272863E+03  0.13868671901E+04  0.16262394308E+04  0.65864270000E+03 0.  1.
    8880022    1    1    2    0    0 -0.14699665057E+03  0.51559272863E+03 -0.28363058653E+03  0.62552525107E+03  0.15294330000E+03 0.  0.
<mgrwt>
<rscale>  0 0.76445062E+03</rscale>
<asrwt>0</asrwt>
<pdfrwt beam="1">  1        1 0.88348314E-01 0.84926679E+03</pdfrwt>
<pdfrwt beam="2">  1       -1 0.25807702E+00 0.84926679E+03</pdfrwt>
<totfact> 0.23195189E+00</totfact>
</mgrwt>
</event>
<event>
 4    5  0.7214169E-008  0.1250252E+04  0.7818608E-02  0.9109757E-01
         -1   -1    0    0    0  501 -0.00000000000E+00  0.00000000000E+00  0.69286566729E+03  0.69286566731E+03  0.50400000000E-02 0.  1.
          1   -1    0    0  501    0  0.00000000000E+00 -0.00000000000E+00 -0.28486128097E+04  0.28486128097E+04  0.50400000000E-02 0. -1.
    8880023    1    1    2    0    0 -0.73427009738E+03  0.76822387708E+03 -0.14056146597E+03  0.12581288619E+04  0.65864270000E+03 0.  0.
    8880022    1    1    2    0    0  0.73427009738E+03 -0.76822387708E+03 -0.20151856765E+04  0.22833496151E+04  0.15294330000E+03 0.  0.
<mgrwt>
<rscale>  0 0.12035478E+04</rscale>
<asrwt>0</asrwt>
<pdfrwt beam="1">  1        1 0.43824812E+00 0.12502523E+04</pdfrwt>
<pdfrwt beam="2">  1       -1 0.10659472E+00 0.12502523E+04</pdfrwt>
<totfact> 0.62380417E-01</totfact>
</mgrwt>
</event>
<event>
 4    5  0.7214169E-008  0.2029188E+04  0.7818608E-02  0.8605346E-01
          1   -1    0    0  501    0  0.00000000000E+00  0.00000000000E+00  0.24211202320E+04  0.24211202320E+04  0.50400000000E-02 0. -1.
         -1   -1    0    0    0  501 -0.00000000000E+00 -0.00000000000E+00 -0.24972529633E+04  0.24972529633E+04  0.50400000000E-02 0.  1.
    8880023    1    1    2    0    0 -0.13273435751E+04  0.13863445812E+04  0.14227969645E+04  0.24782965264E+04  0.65864270000E+03 0.  0.
    8880022    1    1    2    0    0  0.13273435751E+04 -0.13863445812E+04 -0.14989296958E+04  0.24400766690E+04  0.15294330000E+03 0.  0.
<mgrwt>
<rscale>  0 0.20027289E+04</rscale>
<asrwt>0</asrwt>
<pdfrwt beam="1">  1        1 0.37248004E+00 0.20291876E+04</pdfrwt>
<pdfrwt beam="2">  1       -1 0.38419276E+00 0.20291876E+04</pdfrwt>
<totfact> 0.12411349E-02</totfact>
</mgrwt>
</event>
<event>
 4    5  0.7214169E-008  0.6773712E+03  0.7818608E-02  0.1010851E+00
          1   -1    0    0  501    0  0.00000000000E+00  0.00000000000E+00  0.16188912997E+04  0.16188912997E+04  0.50400000000E-02 0. -1.
         -1   -1    0    0    0  501 -0.00000000000E+00 -0.00000000000E+00 -0.45098702063E+03  0.45098702066E+03  0.50400000000E-02 0.  1.
    8880023    1    1    2    0    0  0.66870899321E+02 -0.14335231454E+03 -0.18261262741E+03  0.70155483122E+03  0.65864270000E+03 0.  0.
    8880022    1    1    2    0    0 -0.66870899321E+02  0.14335231454E+03  0.13505169065E+04  0.13683234891E+04  0.15294330000E+03 0. -1.
<mgrwt>
<rscale>  0 0.51137631E+03</rscale>
<asrwt>0</asrwt>
<pdfrwt beam="1">  1        1 0.24906020E+00 0.67737125E+03</pdfrwt>
<pdfrwt beam="2">  1       -1 0.69382619E-01 0.67737125E+03</pdfrwt>
<totfact> 0.11960129E+01</totfact>
</mgrwt>
</event>
<event>
 4    5  0.7214169E-008  0.1428886E+04  0.7818608E-02  0.8961557E-01
          1   -1    0    0  501    0  0.00000000000E+00  0.00000000000E+00  0.10044149231E+04  0.10044149231E+04  0.50400000000E-02 0. -1.
         -1   -1    0    0    0  501 -0.00000000000E+00 -0.00000000000E+00 -0.42545585839E+04  0.42545585839E+04  0.50400000000E-02 0.  1.
    8880023    1    1    2    0    0 -0.59517480279E+02 -0.12666343542E+04 -0.36507330802E+04  0.39204039520E+04  0.65864270000E+03 0.  1.
    8880022    1    1    2    0    0  0.59517480279E+02  0.12666343542E+04  0.40058941944E+03  0.13385695550E+04  0.15294330000E+03 0.  0.
<mgrwt>
<rscale>  0 0.13893600E+04</rscale>
<asrwt>0</asrwt>
<pdfrwt beam="1">  1        1 0.15452538E+00 0.14288860E+04</pdfrwt>
<pdfrwt beam="2">  1       -1 0.65454746E+00 0.14288860E+04</pdfrwt>
<totfact> 0.39508605E-03</totfact>
</mgrwt>
</event>
<event>
 4    5  0.7214169E-008  0.8057709E+03  0.7818608E-02  0.9698454E-01
         -1   -1    0    0    0  501 -0.00000000000E+00  0.00000000000E+00  0.14827142527E+04  0.14827142527E+04  0.50400000000E-02 0.  1.
          1   -1    0    0  501    0  0.00000000000E+00 -0.00000000000E+00 -0.51092733880E+03  0.51092733882E+03  0.50400000000E-02 0. -1.
    8880023    1    1    2    0    0  0.31831934777E+02  0.46308010970E+03  0.12070141346E+04  0.14512580017E+04  0.65864270000E+03 0.  0.
    8880022    1    1    2    0    0 -0.31831934777E+02 -0.46308010970E+03 -0.23522722075E+03  0.54238358979E+03  0.15294330000E+03 0.  0.
<mgrwt>
<rscale>  0 0.71108889E+03</rscale>
<asrwt>0</asrwt>
<pdfrwt beam="1">  1        1 0.78604207E-01 0.80577085E+03</pdfrwt>
<pdfrwt beam="2">  1       -1 0.22810988E+00 0.80577085E+03</pdfrwt>
<totfact> 0.43070193E+00</totfact>
</mgrwt>
</event>
<event>
 4    5  0.7214169E-008  0.6915508E+03  0.7818608E-02  0.1003424E+00
         -1   -1    0    0    0  501 -0.00000000000E+00  0.00000000000E+00  0.27365906273E+04  0.27365906274E+04  0.50400000000E-02 0.  1.
          1   -1    0    0  501    0  0.00000000000E+00 -0.00000000000E+00 -0.11624167976E+03  0.11624167986E+03  0.50400000000E-02 0. -1.
    8880023    1    1    2    0    0 -0.12011058536E+03  0.17322149437E+03  0.24398585628E+04  0.25359716583E+04  0.65864270000E+03 0.  1.
    8880022    1    1    2    0    0  0.12011058536E+03 -0.17322149437E+03  0.18049038477E+03  0.31686064892E+03  0.15294330000E+03 0.  0.
<mgrwt>
<rscale>  0 0.54173997E+03</rscale>
<asrwt>0</asrwt>
<pdfrwt beam="1">  1        1 0.17883335E-01 0.69155075E+03</pdfrwt>
<pdfrwt beam="2">  1       -1 0.42101395E+00 0.69155075E+03</pdfrwt>
<totfact> 0.16790466E+00</totfact>
</mgrwt>
</event>
<event>
 4    5  0.7214169E-008  0.8693016E+03  0.7818608E-02  0.9577227E-01
          1   -1    0    0  501    0  0.00000000000E+00  0.00000000000E+00  0.12933812790E+04  0.12933812790E+04  0.50400000000E-02 0. -1.
         -1   -1    0    0    0  501 -0.00000000000E+00 -0.00000000000E+00 -0.44383853099E+03  0.44383853102E+03  0.50400000000E-02 0.  1.
    8880023    1    1    2    0    0  0.39090449969E+03  0.41117975080E+03  0.73540698022E+03  0.11386433806E+04  0.65864270000E+03 0. -1.
    8880022    1    1    2    0    0 -0.39090449969E+03 -0.41117975080E+03  0.11413576776E+03  0.59857642941E+03  0.15294330000E+03 0.  1.
<mgrwt>
<rscale>  0 0.78821958E+03</rscale>
<asrwt>0</asrwt>
<pdfrwt beam="1">  1        1 0.19898173E+00 0.86930163E+03</pdfrwt>
<pdfrwt beam="2">  1       -1 0.68282852E-01 0.86930163E+03</pdfrwt>
<totfact> 0.20204079E+01</totfact>
</mgrwt>
</event>
<event>
 4    5  0.7214169E-008  0.7000963E+03  0.7818608E-02  0.9996802E-01
          1   -1    0    0  501    0  0.00000000000E+00  0.00000000000E+00  0.29152207920E+04  0.29152207920E+04  0.50400000000E-02 0. -1.
         -1   -1    0    0    0  501 -0.00000000000E+00 -0.00000000000E+00 -0.55424088860E+03  0.55424088862E+03  0.50400000000E-02 0.  1.
    8880023    1    1    2    0    0  0.18125022615E+03  0.15320904437E+03 -0.32275760220E+03  0.77091331017E+03  0.65864270000E+03 0.  1.
    8880022    1    1    2    0    0 -0.18125022615E+03 -0.15320904437E+03  0.26837375056E+04  0.26985483705E+04  0.15294330000E+03 0.  0.
<mgrwt>
<rscale>  0 0.55790692E+03</rscale>
<asrwt>0</asrwt>
<pdfrwt beam="1">  1        1 0.44849550E+00 0.70009632E+03</pdfrwt>
<pdfrwt beam="2">  1       -1 0.85267829E-01 0.70009632E+03</pdfrwt>
<totfact> 0.10202413E+00</totfact>
</mgrwt>
</event>
<event>
 4    5  0.7214169E-008  0.1068191E+04  0.7818608E-02  0.9297326E-01
         -1   -1    0    0    0  501 -0.00000000000E+00  0.00000000000E+00  0.58076996279E+03  0.58076996281E+03  0.50400000000E-02 0.  1.
          1   -1    0    0  501    0  0.00000000000E+00 -0.00000000000E+00 -0.33419344308E+04  0.33419344308E+04  0.50400000000E-02 0. -1.
    8880023    1    1    2    0    0  0.45160179199E+03  0.70942105070E+03 -0.38353057944E+02  0.10688795858E+04  0.65864270000E+03 0.  0.
    8880022    1    1    2    0    0 -0.45160179199E+03 -0.70942105070E+03 -0.27228114101E+04  0.28538248078E+04  0.15294330000E+03 0.  0.
<mgrwt>
<rscale>  0 0.10102940E+04</rscale>
<asrwt>0</asrwt>
<pdfrwt beam="1">  1        1 0.51414375E+00 0.10681913E+04</pdfrwt>
<pdfrwt beam="2">  1       -1 0.89349227E-01 0.10681913E+04</pdfrwt>
<totfact> 0.41669721E-01</totfact>
</mgrwt>
</event>
<event>
 4    5  0.7214169E-008  0.7257283E+03  0.7818608E-02  0.9903660E-01
         -1   -1    0    0    0  501 -0.00000000000E+00  0.00000000000E+00  0.21144933379E+03  0.21144933385E+03  0.50400000000E-02 0.  1.
          1   -1    0    0  501    0  0.00000000000E+00 -0.00000000000E+00 -0.26286765974E+04  0.26286765974E+04  0.50400000000E-02 0. -1.
    8880023    1    1    2    0    0 -0.22988459061E+03  0.20006092072E+03 -0.47308383754E+03  0.86630815568E+03  0.65864270000E+03 0.  1.
    8880022    1    1    2    0    0  0.22988459061E+03 -0.20006092072E+03 -0.19441434261E+04  0.19738177756E+04  0.15294330000E+03 0.  0.
<mgrwt>
<rscale>  0 0.60084257E+03</rscale>
<asrwt>0</asrwt>
<pdfrwt beam="1">  1        1 0.40441176E+00 0.72572826E+03</pdfrwt>
<pdfrwt beam="2">  1       -1 0.32530669E-01 0.72572826E+03</pdfrwt>
<totfact> 0.10321510E+01</totfact>
</mgrwt>
</event>
<event>
 4    5  0.7214169E-008  0.9309908E+03  0.7818608E-02  0.9478008E-01
         -1   -1    0    0    0  501 -0.00000000000E+00  0.00000000000E+00  0.15716336534E+04  0.15716336535E+04  0.50400000000E-02 0.  1.
          1   -1    0    0  501    0  0.00000000000E+00 -0.00000000000E+00 -0.98476942543E+03  0.98476942544E+03  0.50400000000E-02 0. -1.
    8880023    1    1    2    0    0  0.41819589010E+03 -0.50798206236E+03  0.12837829307E+04  0.15858254625E+04  0.65864270000E+03 0.  1.
    8880022    1    1    2    0    0 -0.41819589010E+03  0.50798206236E+03 -0.69691870270E+03  0.97057761635E+03  0.15294330000E+03 0.  0.
<mgrwt>
<rscale>  0 0.85924762E+03</rscale>
<asrwt>0</asrwt>
<pdfrwt beam="1">  1        1 0.15150299E+00 0.93099075E+03</pdfrwt>
<pdfrwt beam="2">  1       -1 0.24178979E+00 0.93099075E+03</pdfrwt>
<totfact> 0.12489801E+00</totfact>
</mgrwt>
</event>
<event>
 4    5  0.7214169E-008  0.6586704E+03  0.7818608E-02  0.1025562E+00
         -1   -1    0    0    0  501 -0.00000000000E+00  0.00000000000E+00  0.44536595701E+03  0.44536595704E+03  0.50400000000E-02 0.  1.
          1   -1    0    0  501    0  0.00000000000E+00 -0.00000000000E+00 -0.11535263714E+04  0.11535263714E+04  0.50400000000E-02 0. -1.
    8880023    1    1    2    0    0  0.23666184647E+01 -0.55570418249E+01  0.19178487256E+03  0.68602341447E+03  0.65864270000E+03 0.  1.
    8880022    1    1    2    0    0 -0.23666184647E+01  0.55570418249E+01 -0.89994528693E+03  0.91286891396E+03  0.15294330000E+03 0.  0.
<mgrwt>
<rscale>  0 0.45731803E+03</rscale>
<asrwt>0</asrwt>
<pdfrwt beam="1">  1        1 0.17746559E+00 0.65867039E+03</pdfrwt>
<pdfrwt beam="2">  1       -1 0.68517840E-01 0.65867039E+03</pdfrwt>
<totfact> 0.25955584E+01</totfact>
</mgrwt>
</event>
<event>
 4    5  0.7214169E-008  0.9098310E+03  0.7818608E-02  0.9510430E-01
         -1   -1    0    0    0  501 -0.00000000000E+00  0.00000000000E+00  0.66403871842E+03  0.66403871844E+03  0.50400000000E-02 0.  1.
          1   -1    0    0  501    0  0.00000000000E+00 -0.00000000000E+00 -0.11943365183E+04  0.11943365183E+04  0.50400000000E-02 0. -1.
    8880023    1    1    2    0    0  0.55381951989E+03 -0.29540836758E+03  0.14783743399E+03  0.92176367763E+03  0.65864270000E+03 0.  0.
    8880022    1    1    2    0    0 -0.55381951989E+03  0.29540836758E+03 -0.67813523387E+03  0.93661155912E+03  0.15294330000E+03 0.  0.
<mgrwt>
<rscale>  0 0.83519172E+03</rscale>
<asrwt>0</asrwt>
<pdfrwt beam="1">  1        1 0.18374408E+00 0.90983096E+03</pdfrwt>
<pdfrwt beam="2">  1       -1 0.10215980E+00 0.90983096E+03</pdfrwt>
<totfact> 0.99208290E+00</totfact>
</mgrwt>
</event>
<event>
 4    5  0.7214169E-008  0.6732093E+03  0.7818608E-02  0.1013460E+00
         -1   -1    0    0    0  501 -0.00000000000E+00  0.00000000000E+00  0.60914566723E+03  0.60914566725E+03  0.50400000000E-02 0.  1.
          1   -1    0    0  501    0  0.00000000000E+00 -0.00000000000E+00 -0.18727000886E+04  0.18727000886E+04  0.50400000000E-02 0. -1.
    8880023    1    1    2    0    0 -0.11515090046E+03  0.78363636263E+02  0.41483365488E+03  0.79075771059E+03  0.65864270000E+03 0.  1.
    8880022    1    1    2    0    0  0.11515090046E+03 -0.78363636263E+02 -0.16783880762E+04  0.16910880452E+04  0.15294330000E+03 0.  0.
<mgrwt>
<rscale>  0 0.50122558E+03</rscale>
<asrwt>0</asrwt>
<pdfrwt beam="1">  1        1 0.28810770E+00 0.67320933E+03</pdfrwt>
<pdfrwt beam="2">  1       -1 0.93714719E-01 0.67320933E+03</pdfrwt>
<totfact> 0.42703313E+00</totfact>
</mgrwt>
</event>
<event>
 4    5  0.7214169E-008  0.7881291E+03  0.7818608E-02  0.9737077E-01
          1   -1    0    0  501    0  0.00000000000E+00  0.00000000000E+00  0.78791147875E+03  0.78791147876E+03  0.50400000000E-02 0. -1.
         -1   -1    0    0    0  501 -0.00000000000E+00 -0.00000000000E+00 -0.80864093362E+03  0.80864093363E+03  0.50400000000E-02 0.  1.
    8880023    1    1    2    0    0  0.17891813683E+02 -0.43245479755E+03 -0.49964314528E+03  0.93316169435E+03  0.65864270000E+03 0.  1.
    8880022    1    1    2    0    0 -0.17891813683E+02  0.43245479755E+03  0.47891369040E+03  0.66339071805E+03  0.15294330000E+03 0.  0.
<mgrwt>
<rscale>  0 0.68851521E+03</rscale>
<asrwt>0</asrwt>
<pdfrwt beam="1">  1        1 0.12121715E+00 0.78812910E+03</pdfrwt>
<pdfrwt beam="2">  1       -1 0.12440630E+00 0.78812910E+03</pdfrwt>
<totfact> 0.13148077E+01</totfact>
</mgrwt>
</event>
<event>
 4    5  0.1040401E-007  0.1006098E+04  0.7818608E-02  0.9373623E-01
          1   -1    0    0  501    0  0.00000000000E+00  0.00000000000E+00  0.25032255015E+04  0.25032255015E+04  0.50400000000E-02 0. -1.
         -1   -1    0    0    0  501 -0.00000000000E+00 -0.00000000000E+00 -0.10754371710E+04  0.10754371710E+04  0.50400000000E-02 0.  1.
    8880023    1    1    2    0    0  0.70061539242E+03 -0.29590776991E+03 -0.75774698986E+03  0.12595292943E+04  0.65864270000E+03 0.  1.
    8880022    1    1    2    0    0 -0.70061539242E+03  0.29590776991E+03  0.21855353203E+04  0.23191333782E+04  0.15294330000E+03 0.  0.
<mgrwt>
<rscale>  0 0.94278605E+03</rscale>
<asrwt>0</asrwt>
<pdfrwt beam="1">  1        1 0.38511161E+00 0.10060982E+04</pdfrwt>
<pdfrwt beam="2">  1       -1 0.16545187E+00 0.10060982E+04</pdfrwt>
<totfact> 0.36475824E-01</totfact>
</mgrwt>
</event>
<event>
 4    5  0.7214169E-008  0.9138707E+03  0.7818608E-02  0.9504122E-01
          1   -1    0    0  501    0  0.00000000000E+00  0.00000000000E+00  0.13040464659E+04  0.13040464659E+04  0.50400000000E-02 0. -1.
         -1   -1    0    0    0  501 -0.00000000000E+00 -0.00000000000E+00 -0.11690705005E+04  0.11690705005E+04  0.50400000000E-02 0.  1.
    8880023    1    1    2    0    0  0.44195793998E+03  0.45389715705E+03 -0.87884878976E+03  0.12678859773E+04  0.65864270000E+03 0.  1.
    8880022    1    1    2    0    0 -0.44195793998E+03 -0.45389715705E+03  0.10138247552E+04  0.12052309891E+04  0.15294330000E+03 0.  0.
<mgrwt>
<rscale>  0 0.83980625E+03</rscale>
<asrwt>0</asrwt>
<pdfrwt beam="1">  1        1 0.20062253E+00 0.91387070E+03</pdfrwt>
<pdfrwt beam="2">  1       -1 0.17985700E+00 0.91387070E+03</pdfrwt>
<totfact> 0.19068748E+00</totfact>
</mgrwt>
</event>
<event>
 4    5  0.7214169E-008  0.8460925E+03  0.7818608E-02  0.9618798E-01
         -1   -1    0    0    0  501 -0.00000000000E+00  0.00000000000E+00  0.35711757844E+03  0.35711757847E+03  0.50400000000E-02 0.  1.
          1   -1    0    0  501    0  0.00000000000E+00 -0.00000000000E+00 -0.15757322892E+04  0.15757322892E+04  0.50400000000E-02 0. -1.
    8880023    1    1    2    0    0  0.23246454323E+03  0.47751712507E+03 -0.37768853067E+03  0.92656419155E+03  0.65864270000E+03 0.  0.
    8880022    1    1    2    0    0 -0.23246454323E+03 -0.47751712507E+03 -0.84092618009E+03  0.10062856761E+04  0.15294330000E+03 0.  0.
<mgrwt>
<rscale>  0 0.76064432E+03</rscale>
<asrwt>0</asrwt>
<pdfrwt beam="1">  1        1 0.24242035E+00 0.84609253E+03</pdfrwt>
<pdfrwt beam="2">  1       -1 0.54941167E-01 0.84609253E+03</pdfrwt>
<totfact> 0.19863323E+01</totfact>
</mgrwt>
</event>
<event>
 4    5  0.7214169E-008  0.8847588E+03  0.7818608E-02  0.9550955E-01
         -1   -1    0    0    0  501 -0.00000000000E+00  0.00000000000E+00  0.25303902518E+04  0.25303902518E+04  0.50400000000E-02 0.  1.
          1   -1    0    0  501    0  0.00000000000E+00 -0.00000000000E+00 -0.74565913627E+03  0.74565913629E+03  0.50400000000E-02 0. -1.
    8880023    1    1    2    0    0  0.57724052409E+03  0.12562342979E+03  0.23082631135E+04  0.24720187451E+04  0.65864270000E+03 0.  0.
    8880022    1    1    2    0    0 -0.57724052409E+03 -0.12562342979E+03 -0.52353199804E+03  0.80403064292E+03  0.15294330000E+03 0.  0.
<mgrwt>
<rscale>  0 0.80629113E+03</rscale>
<asrwt>0</asrwt>
<pdfrwt beam="1">  1        1 0.11471679E+00 0.88475877E+03</pdfrwt>
<pdfrwt beam="2">  1       -1 0.38929081E+00 0.88475877E+03</pdfrwt>
<totfact> 0.21882579E-01</totfact>
</mgrwt>
</event>
<event>
 4    5  0.7214169E-008  0.7786346E+03  0.7818608E-02  0.9759054E-01
         -1   -1    0    0    0  501 -0.00000000000E+00  0.00000000000E+00  0.43900387692E+03  0.43900387695E+03  0.50400000000E-02 0.  1.
          1   -1    0    0  501    0  0.00000000000E+00 -0.00000000000E+00 -0.10450793485E+04  0.10450793485E+04  0.50400000000E-02 0. -1.
    8880023    1    1    2    0    0  0.31085894414E+03  0.27536951833E+03 -0.59639977062E+02  0.78091535258E+03  0.65864270000E+03 0.  0.
    8880022    1    1    2    0    0 -0.31085894414E+03 -0.27536951833E+03 -0.54643549452E+03  0.70316787289E+03  0.15294330000E+03 0.  0.
<mgrwt>
<rscale>  0 0.67606997E+03</rscale>
<asrwt>0</asrwt>
<pdfrwt beam="1">  1        1 0.16078144E+00 0.77863461E+03</pdfrwt>
<pdfrwt beam="2">  1       -1 0.67539058E-01 0.77863461E+03</pdfrwt>
<totfact> 0.31735716E+01</totfact>
</mgrwt>
</event>
<event>
 4    5  0.7214169E-008  0.6983560E+03  0.7818608E-02  0.1000409E+00
         -1   -1    0    0    0  501 -0.00000000000E+00  0.00000000000E+00  0.86251384448E+03  0.86251384449E+03  0.50400000000E-02 0.  1.
          1   -1    0    0  501    0  0.00000000000E+00 -0.00000000000E+00 -0.33775714561E+04  0.33775714561E+04  0.50400000000E-02 0. -1.
    8880023    1    1    2    0    0 -0.43816503617E+02  0.22797153247E+03  0.71419592229E+03  0.99888784520E+03  0.65864270000E+03 0.  1.
    8880022    1    1    2    0    0  0.43816503617E+02 -0.22797153247E+03 -0.32292535339E+04  0.32411974554E+04  0.15294330000E+03 0.  0.
<mgrwt>
<rscale>  0 0.55471236E+03</rscale>
<asrwt>0</asrwt>
<pdfrwt beam="1">  1        1 0.51962637E+00 0.69835601E+03</pdfrwt>
<pdfrwt beam="2">  1       -1 0.13269444E+00 0.69835601E+03</pdfrwt>
<totfact> 0.16705491E-01</totfact>
</mgrwt>
</event>
<event>
 4    5  0.7214169E-008  0.8904830E+03  0.7818608E-02  0.9541485E-01
          1   -1    0    0  501    0  0.00000000000E+00  0.00000000000E+00  0.11495769409E+04  0.11495769409E+04  0.50400000000E-02 0. -1.
         -1   -1    0    0    0  501 -0.00000000000E+00 -0.00000000000E+00 -0.20517680942E+04  0.20517680942E+04  0.50400000000E-02 0.  1.
    8880023    1    1    2    0    0 -0.26755515122E+03  0.53624995054E+03 -0.18594389376E+04  0.20616675623E+04  0.65864270000E+03 0.  1.
    8880022    1    1    2    0    0  0.26755515122E+03 -0.53624995054E+03  0.95724778431E+03  0.11396774728E+04  0.15294330000E+03 0.  0.
<mgrwt>
<rscale>  0 0.81293165E+03</rscale>
<asrwt>0</asrwt>
<pdfrwt beam="1">  1        1 0.17685799E+00 0.89048300E+03</pdfrwt>
<pdfrwt beam="2">  1       -1 0.31565663E+00 0.89048300E+03</pdfrwt>
<totfact> 0.31540781E-01</totfact>
</mgrwt>
</event>
<event>
 4    5  0.7214169E-008  0.7538759E+03  0.7818608E-02  0.9821228E-01
          1   -1    0    0  501    0  0.00000000000E+00  0.00000000000E+00  0.16199550961E+04  0.16199550961E+04  0.50400000000E-02 0. -1.
         -1   -1    0    0    0  501 -0.00000000000E+00 -0.00000000000E+00 -0.27802546564E+03  0.27802546568E+03  0.50400000000E-02 0.  1.
    8880023    1    1    2    0    0  0.21139822305E+03 -0.29971560631E+03  0.35345818022E+03  0.83262329105E+03  0.65864270000E+03 0.  1.
    8880022    1    1    2    0    0 -0.21139822305E+03  0.29971560631E+03  0.98847145025E+03  0.10653572707E+04  0.15294330000E+03 0.  0.
<mgrwt>
<rscale>  0 0.64235661E+03</rscale>
<asrwt>0</asrwt>
<pdfrwt beam="1">  1        1 0.24922386E+00 0.75387589E+03</pdfrwt>
<pdfrwt beam="2">  1       -1 0.42773148E-01 0.75387589E+03</pdfrwt>
<totfact> 0.30054486E+01</totfact>
</mgrwt>
</event>
<event>
 4    5  0.7214169E-008  0.7549260E+03  0.7818608E-02  0.9818425E-01
          1   -1    0    0  501    0  0.00000000000E+00  0.00000000000E+00  0.11016816844E+04  0.11016816844E+04  0.50400000000E-02 0. -1.
         -1   -1    0    0    0  501 -0.00000000000E+00 -0.00000000000E+00 -0.38008281680E+03  0.38008281684E+03  0.50400000000E-02 0.  1.
    8880023    1    1    2    0    0  0.12985215347E+02 -0.36869287262E+03  0.12705921518E+03  0.76554379402E+03  0.65864270000E+03 0.  0.
    8880022    1    1    2    0    0 -0.12985215347E+02  0.36869287262E+03  0.59453965240E+03  0.71622070721E+03  0.15294330000E+03 0.  0.
<mgrwt>
<rscale>  0 0.64383053E+03</rscale>
<asrwt>0</asrwt>
<pdfrwt beam="1">  1        1 0.16948949E+00 0.75492599E+03</pdfrwt>
<pdfrwt beam="2">  1       -1 0.58474280E-01 0.75492599E+03</pdfrwt>
<totfact> 0.38437646E+01</totfact>
</mgrwt>
</event>
<event>
 4    5  0.7214169E-008  0.1260447E+04  0.7818608E-02  0.9100492E-01
         -1   -1    0    0    0  501 -0.00000000000E+00  0.00000000000E+00  0.72755103053E+03  0.72755103055E+03  0.50400000000E-02 0.  1.
          1   -1    0    0  501    0  0.00000000000E+00 -0.00000000000E+00 -0.19062046492E+04  0.19062046492E+04  0.50400000000E-02 0. -1.
    8880023    1    1    2    0    0 -0.83039471901E+03  0.68217345874E+03 -0.51599252134E+03  0.13619744878E+04  0.65864270000E+03 0.  1.
    8880022    1    1    2    0    0  0.83039471901E+03 -0.68217345874E+03 -0.66266109732E+03  0.12717811919E+04  0.15294330000E+03 0. -1.
<mgrwt>
<rscale>  0 0.12142294E+04</rscale>
<asrwt>0</asrwt>
<pdfrwt beam="1">  1        1 0.29326225E+00 0.12604468E+04</pdfrwt>
<pdfrwt beam="2">  1       -1 0.11193093E+00 0.12604468E+04</pdfrwt>
<totfact> 0.24712363E+00</totfact>
</mgrwt>
</event>
<event>
 4    5  0.7214169E-008  0.8401179E+03  0.7818608E-02  0.9629958E-01
          1   -1    0    0  501    0  0.00000000000E+00  0.00000000000E+00  0.15151052344E+04  0.15151052345E+04  0.50400000000E-02 0. -1.
         -1   -1    0    0    0  501 -0.00000000000E+00 -0.00000000000E+00 -0.34408263575E+03  0.34408263579E+03  0.50400000000E-02 0.  1.
    8880023    1    1    2    0    0 -0.51920775840E+03  0.49104389772E+02  0.44028749213E+03  0.94849945676E+03  0.65864270000E+03 0.  1.
    8880022    1    1    2    0    0  0.51920775840E+03 -0.49104389772E+02  0.73073510656E+03  0.91068841348E+03  0.15294330000E+03 0. -1.
<mgrwt>
<rscale>  0 0.75344708E+03</rscale>
<asrwt>0</asrwt>
<pdfrwt beam="1">  1        1 0.23309311E+00 0.84011793E+03</pdfrwt>
<pdfrwt beam="2">  1       -1 0.52935791E-01 0.84011793E+03</pdfrwt>
<totfact> 0.23492413E+01</totfact>
</mgrwt>
</event>
<event>
 4    5  0.7214169E-008  0.6837628E+03  0.7818608E-02  0.1007271E+00
          1   -1    0    0  501    0  0.00000000000E+00  0.00000000000E+00  0.49545411617E+03  0.49545411620E+03  0.50400000000E-02 0. -1.
         -1   -1    0    0    0  501 -0.00000000000E+00 -0.00000000000E+00 -0.53226616331E+03  0.53226616334E+03  0.50400000000E-02 0.  1.
    8880023    1    1    2    0    0  0.16040239844E+03  0.89400567045E+02 -0.22895182966E+03  0.72107595812E+03  0.65864270000E+03 0.  1.
    8880022    1    1    2    0    0 -0.16040239844E+03 -0.89400567045E+02  0.19213978252E+03  0.30664432141E+03  0.15294330000E+03 0.  0.
<mgrwt>
<rscale>  0 0.52574001E+03</rscale>
<asrwt>0</asrwt>
<pdfrwt beam="1">  1        1 0.76223710E-01 0.68376282E+03</pdfrwt>
<pdfrwt beam="2">  1       -1 0.81887102E-01 0.68376282E+03</pdfrwt>
<totfact> 0.68287358E+01</totfact>
</mgrwt>
</event>
<event>
 4    5  0.7214169E-008  0.7796842E+03  0.7818608E-02  0.9756579E-01
          1   -1    0    0  501    0  0.00000000000E+00  0.00000000000E+00  0.10421380405E+04  0.10421380405E+04  0.50400000000E-02 0. -1.
         -1   -1    0    0    0  501 -0.00000000000E+00 -0.00000000000E+00 -0.52910929261E+03  0.52910929263E+03  0.50400000000E-02 0.  1.
    8880023    1    1    2    0    0 -0.65765910880E+02  0.41203415947E+03 -0.12913912010E+03  0.79030653686E+03  0.65864270000E+03 0.  0.
    8880022    1    1    2    0    0  0.65765910880E+02 -0.41203415947E+03  0.64216786796E+03  0.78094079625E+03  0.15294330000E+03 0.  0.
<mgrwt>
<rscale>  0 0.67745729E+03</rscale>
<asrwt>0</asrwt>
<pdfrwt beam="1">  1        1 0.16032893E+00 0.77968424E+03</pdfrwt>
<pdfrwt beam="2">  1       -1 0.81401430E-01 0.77968424E+03</pdfrwt>
<totfact> 0.21631202E+01</totfact>
</mgrwt>
</event>
<event>
 4    5  0.7214169E-008  0.9207877E+03  0.7818608E-02  0.9493452E-01
         -1   -1    0    0    0  501 -0.00000000000E+00  0.00000000000E+00  0.24724126986E+04  0.24724126986E+04  0.50400000000E-02 0.  1.
          1   -1    0    0  501    0  0.00000000000E+00 -0.00000000000E+00 -0.88115088788E+03  0.88115088789E+03  0.50400000000E-02 0. -1.
    8880023    1    1    2    0    0  0.61611595604E+03  0.18558265111E+03  0.22432307293E+04  0.24248575428E+04  0.65864270000E+03 0.  0.
    8880022    1    1    2    0    0 -0.61611595604E+03 -0.18558265111E+03 -0.65196891862E+03  0.92870604367E+03  0.15294330000E+03 0.  0.
<mgrwt>
<rscale>  0 0.84768282E+03</rscale>
<asrwt>0</asrwt>
<pdfrwt beam="1">  1        1 0.13556168E+00 0.92078771E+03</pdfrwt>
<pdfrwt beam="2">  1       -1 0.38037118E+00 0.92078771E+03</pdfrwt>
<totfact> 0.19057963E-01</totfact>
</mgrwt>
</event>
<event>
 4    5  0.7214169E-008  0.1131890E+04  0.7818608E-02  0.9226354E-01
         -1   -1    0    0    0  501 -0.00000000000E+00  0.00000000000E+00  0.58311803370E+03  0.58311803372E+03  0.50400000000E-02 0.  1.
          1   -1    0    0  501    0  0.00000000000E+00 -0.00000000000E+00 -0.39399819700E+04  0.39399819700E+04  0.50400000000E-02 0. -1.
    8880023    1    1    2    0    0  0.78265481507E+03  0.48457953500E+03 -0.10126868043E+03  0.11364116495E+04  0.65864270000E+03 0.  0.
    8880022    1    1    2    0    0 -0.78265481507E+03 -0.48457953500E+03 -0.32555952559E+04  0.33866883542E+04  0.15294330000E+03 0.  0.
<mgrwt>
<rscale>  0 0.10785505E+04</rscale>
<asrwt>0</asrwt>
<pdfrwt beam="1">  1        1 0.60615106E+00 0.11318905E+04</pdfrwt>
<pdfrwt beam="2">  1       -1 0.89710469E-01 0.11318905E+04</pdfrwt>
<totfact> 0.13520843E-01</totfact>
</mgrwt>
</event>
<event>
 4    5  0.7214169E-008  0.9352965E+03  0.7818608E-02  0.9471592E-01
          1   -1    0    0  501    0  0.00000000000E+00  0.00000000000E+00  0.11115000235E+04  0.11115000235E+04  0.50400000000E-02 0. -1.
         -1   -1    0    0    0  501 -0.00000000000E+00 -0.00000000000E+00 -0.59391227019E+03  0.59391227021E+03  0.50400000000E-02 0.  1.
    8880023    1    1    2    0    0 -0.61974529862E+03  0.23850601211E+03  0.38370388163E+03  0.10109442260E+04  0.65864270000E+03 0.  0.
    8880022    1    1    2    0    0  0.61974529862E+03 -0.23850601211E+03  0.13388387165E+03  0.69446806772E+03  0.15294330000E+03 0.  0.
<mgrwt>
<rscale>  0 0.86410984E+03</rscale>
<asrwt>0</asrwt>
<pdfrwt beam="1">  1        1 0.17100000E+00 0.93529651E+03</pdfrwt>
<pdfrwt beam="2">  1       -1 0.91371119E-01 0.93529651E+03</pdfrwt>
<totfact> 0.14659269E+01</totfact>
</mgrwt>
</event>
<event>
 4    5  0.7214169E-008  0.9772537E+03  0.7818608E-02  0.9411941E-01
         -1   -1    0    0    0  501 -0.00000000000E+00  0.00000000000E+00  0.13686390968E+04  0.13686390968E+04  0.50400000000E-02 0.  1.
          1   -1    0    0  501    0  0.00000000000E+00 -0.00000000000E+00 -0.11877771950E+04  0.11877771950E+04  0.50400000000E-02 0. -1.
    8880023    1    1    2    0    0  0.47642807840E+03 -0.54243059983E+03  0.10378058570E+04  0.14255054797E+04  0.65864270000E+03 0.  0.
    8880022    1    1    2    0    0 -0.47642807840E+03  0.54243059983E+03 -0.85694395519E+03  0.11309108121E+04  0.15294330000E+03 0.  0.
<mgrwt>
<rscale>  0 0.91099468E+03</rscale>
<asrwt>0</asrwt>
<pdfrwt beam="1">  1        1 0.18273495E+00 0.97725374E+03</pdfrwt>
<pdfrwt beam="2">  1       -1 0.21055986E+00 0.97725374E+03</pdfrwt>
<totfact> 0.14026508E+00</totfact>
</mgrwt>
</event>
<event>
 4    5  0.7214169E-008  0.1076338E+04  0.7818608E-02  0.9287869E-01
         -1   -1    0    0    0  501 -0.00000000000E+00  0.00000000000E+00  0.14468066322E+04  0.14468066322E+04  0.50400000000E-02 0.  1.
          1   -1    0    0  501    0  0.00000000000E+00 -0.00000000000E+00 -0.75305914597E+03  0.75305914599E+03  0.50400000000E-02 0. -1.
    8880023    1    1    2    0    0  0.69817026499E+03 -0.48708538853E+03  0.78204580094E+03  0.13304509520E+04  0.65864270000E+03 0.  0.
    8880022    1    1    2    0    0 -0.69817026499E+03  0.48708538853E+03 -0.88298314702E+02  0.86941482621E+03  0.15294330000E+03 0.  0.
<mgrwt>
<rscale>  0 0.10190735E+04</rscale>
<asrwt>0</asrwt>
<pdfrwt beam="1">  1        1 0.11585525E+00 0.10763383E+04</pdfrwt>
<pdfrwt beam="2">  1       -1 0.22258564E+00 0.10763383E+04</pdfrwt>
<totfact> 0.25647323E+00</totfact>
</mgrwt>
</event>
<event>
 4    5  0.7214169E-008  0.1413049E+04  0.7818608E-02  0.8973609E-01
         -1   -1    0    0    0  501 -0.00000000000E+00  0.00000000000E+00  0.11431115179E+04  0.11431115179E+04  0.50400000000E-02 0.  1.
          1   -1    0    0  501    0  0.00000000000E+00 -0.00000000000E+00 -0.31406913994E+04  0.31406913994E+04  0.50400000000E-02 0. -1.
    8880023    1    1    2    0    0 -0.11092572042E+04  0.57658051864E+03  0.48996425766E+03  0.14955841065E+04  0.65864270000E+03 0.  1.
    8880022    1    1    2    0    0  0.11092572042E+04 -0.57658051864E+03 -0.24875441392E+04  0.27882188108E+04  0.15294330000E+03 0.  0.
<mgrwt>
<rscale>  0 0.13729845E+04</rscale>
<asrwt>0</asrwt>
<pdfrwt beam="1">  1        1 0.48318329E+00 0.14130488E+04</pdfrwt>
<pdfrwt beam="2">  1       -1 0.17586331E+00 0.14130488E+04</pdfrwt>
<totfact> 0.10094589E-01</totfact>
</mgrwt>
</event>
<event>
 4    5  0.7214169E-008  0.7602744E+03  0.7818608E-02  0.9804398E-01
          1   -1    0    0  501    0  0.00000000000E+00  0.00000000000E+00  0.35364721227E+03  0.35364721231E+03  0.50400000000E-02 0. -1.
         -1   -1    0    0    0  501 -0.00000000000E+00 -0.00000000000E+00 -0.11858890120E+04  0.11858890120E+04  0.50400000000E-02 0.  1.
    8880023    1    1    2    0    0  0.32834819062E+03  0.19077330283E+03 -0.19968642096E+03  0.78606097749E+03  0.65864270000E+03 0.  0.
    8880022    1    1    2    0    0 -0.32834819062E+03 -0.19077330283E+03 -0.63255537875E+03  0.75347524681E+03  0.15294330000E+03 0.  0.
<mgrwt>
<rscale>  0 0.65127078E+03</rscale>
<asrwt>0</asrwt>
<pdfrwt beam="1">  1        1 0.54407264E-01 0.76027442E+03</pdfrwt>
<pdfrwt beam="2">  1       -1 0.18244446E+00 0.76027442E+03</pdfrwt>
<totfact> 0.14503369E+01</totfact>
</mgrwt>
</event>
<event>
 4    5  0.7214169E-008  0.7696520E+03  0.7818608E-02  0.9780731E-01
         -1   -1    0    0    0  501 -0.00000000000E+00  0.00000000000E+00  0.80590265496E+03  0.80590265498E+03  0.50400000000E-02 0.  1.
          1   -1    0    0  501    0  0.00000000000E+00 -0.00000000000E+00 -0.10383090774E+04  0.10383090774E+04  0.50400000000E-02 0. -1.
    8880023    1    1    2    0    0 -0.31799977621E+03  0.23964571671E+03  0.55486631254E+03  0.94881018031E+03  0.65864270000E+03 0.  1.
    8880022    1    1    2    0    0  0.31799977621E+03 -0.23964571671E+03 -0.78727273494E+03  0.89540155204E+03  0.15294330000E+03 0.  0.
<mgrwt>
<rscale>  0 0.66406940E+03</rscale>
<asrwt>0</asrwt>
<pdfrwt beam="1">  1        1 0.15973986E+00 0.76965196E+03</pdfrwt>
<pdfrwt beam="2">  1       -1 0.12398502E+00 0.76965196E+03</pdfrwt>
<totfact> 0.83193223E+00</totfact>
</mgrwt>
</event>
<event>
 4    5  0.7214169E-008  0.1266373E+04  0.7818608E-02  0.9095157E-01
          1   -1    0    0  501    0  0.00000000000E+00  0.00000000000E+00  0.14597263443E+04  0.14597263443E+04  0.50400000000E-02 0. -1.
         -1   -1    0    0    0  501 -0.00000000000E+00 -0.00000000000E+00 -0.10593405034E+04  0.10593405034E+04  0.50400000000E-02 0.  1.
    8880023    1    1    2    0    0  0.68310968037E+02 -0.10794556856E+04 -0.18486014602E+03  0.12797946888E+04  0.65864270000E+03 0.  0.
    8880022    1    1    2    0    0 -0.68310968037E+02  0.10794556856E+04  0.58524598693E+03  0.12392721589E+04  0.15294330000E+03 0.  0.
<mgrwt>
<rscale>  0 0.12204337E+04</rscale>
<asrwt>0</asrwt>
<pdfrwt beam="1">  1        1 0.22457328E+00 0.12663732E+04</pdfrwt>
<pdfrwt beam="2">  1       -1 0.16297546E+00 0.12663732E+04</pdfrwt>
<totfact> 0.18845234E+00</totfact>
</mgrwt>
</event>
<event>
 4    5  0.7214169E-008  0.1596407E+04  0.7818608E-02  0.8844398E-01
          1   -1    0    0  501    0  0.00000000000E+00  0.00000000000E+00  0.29099044849E+04  0.29099044849E+04  0.50400000000E-02 0. -1.
         -1   -1    0    0    0  501 -0.00000000000E+00 -0.00000000000E+00 -0.91940318732E+03  0.91940318733E+03  0.50400000000E-02 0.  1.
    8880023    1    1    2    0    0 -0.12115638583E+04 -0.80425046900E+03  0.35488856121E+03  0.16353782121E+04  0.65864270000E+03 0.  0.
    8880022    1    1    2    0    0  0.12115638583E+04  0.80425046900E+03  0.16356127364E+04  0.21939294601E+04  0.15294330000E+03 0.  0.
<mgrwt>
<rscale>  0 0.15617489E+04</rscale>
<asrwt>0</asrwt>
<pdfrwt beam="1">  1        1 0.44767760E+00 0.15964072E+04</pdfrwt>
<pdfrwt beam="2">  1       -1 0.14144665E+00 0.15964072E+04</pdfrwt>
<totfact> 0.26707817E-01</totfact>
</mgrwt>
</event>
<event>
 4    5  0.7363104E-008  0.1070781E+04  0.7818608E-02  0.9294308E-01
          1   -1    0    0  501    0  0.00000000000E+00  0.00000000000E+00  0.19267212469E+04  0.19267212469E+04  0.50400000000E-02 0. -1.
         -1   -1    0    0    0  501 -0.00000000000E+00 -0.00000000000E+00 -0.13386133887E+04  0.13386133887E+04  0.50400000000E-02 0.  1.
    8880023    1    1    2    0    0 -0.77306273484E+03 -0.33931519954E+03 -0.99689883970E+03  0.14630031782E+04  0.65864270000E+03 0.  0.
    8880022    1    1    2    0    0  0.77306273484E+03  0.33931519954E+03  0.15850066979E+04  0.18023314573E+04  0.15294330000E+03 0.  0.
<mgrwt>
<rscale>  0 0.10130860E+04</rscale>
<asrwt>0</asrwt>
<pdfrwt beam="1">  1        1 0.29641865E+00 0.10707806E+04</pdfrwt>
<pdfrwt beam="2">  1       -1 0.20594052E+00 0.10707806E+04</pdfrwt>
<totfact> 0.45800323E-01</totfact>
</mgrwt>
</event>
<event>
 4    5  0.7214169E-008  0.9682915E+03  0.7818608E-02  0.9424271E-01
          1   -1    0    0  501    0  0.00000000000E+00  0.00000000000E+00  0.29149858158E+04  0.29149858158E+04  0.50400000000E-02 0. -1.
         -1   -1    0    0    0  501 -0.00000000000E+00 -0.00000000000E+00 -0.16217321058E+04  0.16217321058E+04  0.50400000000E-02 0.  1.
    8880023    1    1    2    0    0 -0.70965918052E+03  0.12732630789E+02 -0.14251761201E+04  0.17229960685E+04  0.65864270000E+03 0.  1.
    8880022    1    1    2    0    0  0.70965918052E+03 -0.12732630789E+02  0.27184298301E+04  0.28137218531E+04  0.15294330000E+03 0.  0.
<mgrwt>
<rscale>  0 0.90104904E+03</rscale>
<asrwt>0</asrwt>
<pdfrwt beam="1">  1        1 0.44845936E+00 0.96829153E+03</pdfrwt>
<pdfrwt beam="2">  1       -1 0.24949725E+00 0.96829153E+03</pdfrwt>
<totfact> 0.50309923E-02</totfact>
</mgrwt>
</event>
<event>
 4    5  0.7214169E-008  0.6982771E+03  0.7818608E-02  0.1000442E+00
          1   -1    0    0  501    0  0.00000000000E+00  0.00000000000E+00  0.16441557270E+04  0.16441557270E+04  0.50400000000E-02 0. -1.
         -1   -1    0    0    0  501 -0.00000000000E+00 -0.00000000000E+00 -0.35768929461E+03  0.35768929464E+03  0.50400000000E-02 0.  1.
    8880023    1    1    2    0    0  0.28781500293E+02  0.23011381372E+03  0.12966120009E+02  0.69839750039E+03  0.65864270000E+03 0.  1.
    8880022    1    1    2    0    0 -0.28781500293E+02 -0.23011381372E+03  0.12735003124E+04  0.13034475212E+04  0.15294330000E+03 0.  0.
<mgrwt>
<rscale>  0 0.55456647E+03</rscale>
<asrwt>0</asrwt>
<pdfrwt beam="1">  1        1 0.25294703E+00 0.69827713E+03</pdfrwt>
<pdfrwt beam="2">  1       -1 0.55029123E-01 0.69827713E+03</pdfrwt>
<totfact> 0.18145897E+01</totfact>
</mgrwt>
</event>
<event>
 4    5  0.7214169E-008  0.9056461E+03  0.7818608E-02  0.9517028E-01
          1   -1    0    0  501    0  0.00000000000E+00  0.00000000000E+00  0.25808755431E+04  0.25808755431E+04  0.50400000000E-02 0. -1.
         -1   -1    0    0    0  501 -0.00000000000E+00 -0.00000000000E+00 -0.30398789152E+03  0.30398789157E+03  0.50400000000E-02 0.  1.
    8880023    1    1    2    0    0 -0.57547784329E+03 -0.23496801129E+03  0.59071202125E+03  0.10812657457E+04  0.65864270000E+03 0.  0.
    8880022    1    1    2    0    0  0.57547784329E+03  0.23496801129E+03  0.16861756304E+04  0.18035976890E+04  0.15294330000E+03 0. -1.
<mgrwt>
<rscale>  0 0.83039986E+03</rscale>
<asrwt>0</asrwt>
<pdfrwt beam="1">  1        1 0.39705777E+00 0.90564613E+03</pdfrwt>
<pdfrwt beam="2">  1       -1 0.46767369E-01 0.90564613E+03</pdfrwt>
<totfact> 0.56000276E+00</totfact>
</mgrwt>
</event>
<event>
 4    5  0.7214169E-008  0.1086595E+04  0.7818608E-02  0.9276130E-01
          1   -1    0    0  501    0  0.00000000000E+00  0.00000000000E+00  0.95821891117E+03  0.95821891119E+03  0.50400000000E-02 0. -1.
         -1   -1    0    0    0  501 -0.00000000000E+00 -0.00000000000E+00 -0.22772275393E+04  0.22772275393E+04  0.50400000000E-02 0.  1.
    8880023    1    1    2    0    0 -0.60026060242E+02  0.86213380147E+03  0.51484687971E+03  0.12023956651E+04  0.65864270000E+03 0. -1.
    8880022    1    1    2    0    0  0.60026060242E+02 -0.86213380147E+03 -0.18338555079E+04  0.20330507855E+04  0.15294330000E+03 0.  0.
<mgrwt>
<rscale>  0 0.10301039E+04</rscale>
<asrwt>0</asrwt>
<pdfrwt beam="1">  1        1 0.14741830E+00 0.10865947E+04</pdfrwt>
<pdfrwt beam="2">  1       -1 0.35034270E+00 0.10865947E+04</pdfrwt>
<totfact> 0.25390975E-01</totfact>
</mgrwt>
</event>
<event>
 4    5  0.7214169E-008  0.6910658E+03  0.7818608E-02  0.1003650E+00
          1   -1    0    0  501    0  0.00000000000E+00  0.00000000000E+00  0.37032705142E+04  0.37032705142E+04  0.50400000000E-02 0. -1.
         -1   -1    0    0    0  501 -0.00000000000E+00 -0.00000000000E+00 -0.42132057513E+03  0.42132057516E+03  0.50400000000E-02 0.  1.
    8880023    1    1    2    0    0  0.62093756269E+01  0.20910077780E+03 -0.12968474710E+03  0.70312874462E+03  0.65864270000E+03 0.  1.
    8880022    1    1    2    0    0 -0.62093756269E+01 -0.20910077780E+03  0.34116346862E+04  0.34214623447E+04  0.15294330000E+03 0.  0.
<mgrwt>
<rscale>  0 0.54078295E+03</rscale>
<asrwt>0</asrwt>
<pdfrwt beam="1">  1        1 0.56973394E+00 0.69106577E+03</pdfrwt>
<pdfrwt beam="2">  1       -1 0.64818548E-01 0.69106577E+03</pdfrwt>
<totfact> 0.46320105E-01</totfact>
</mgrwt>
</event>
<event>
 4    5  0.7214169E-008  0.9278855E+03  0.7818608E-02  0.9482673E-01
          1   -1    0    0  501    0  0.00000000000E+00  0.00000000000E+00  0.68554548711E+03  0.68554548713E+03  0.50400000000E-02 0. -1.
         -1   -1    0    0    0  501 -0.00000000000E+00 -0.00000000000E+00 -0.12548826978E+04  0.12548826978E+04  0.50400000000E-02 0.  1.
    8880023    1    1    2    0    0 -0.31163239852E+03  0.57449678934E+03  0.16838256833E+03  0.94303987633E+03  0.65864270000E+03 0.  0.
    8880022    1    1    2    0    0  0.31163239852E+03 -0.57449678934E+03 -0.73771977898E+03  0.99738830858E+03  0.15294330000E+03 0.  0.
<mgrwt>
<rscale>  0 0.85573447E+03</rscale>
<asrwt>0</asrwt>
<pdfrwt beam="1">  1        1 0.10546854E+00 0.92788551E+03</pdfrwt>
<pdfrwt beam="2">  1       -1 0.19305888E+00 0.92788551E+03</pdfrwt>
<totfact> 0.47865209E+00</totfact>
</mgrwt>
</event>
<event>
 4    5  0.7214169E-008  0.9849042E+03  0.7818608E-02  0.9401580E-01
          1   -1    0    0  501    0  0.00000000000E+00  0.00000000000E+00  0.24786667384E+04  0.24786667384E+04  0.50400000000E-02 0. -1.
         -1   -1    0    0    0  501 -0.00000000000E+00 -0.00000000000E+00 -0.39026509105E+03  0.39026509109E+03  0.50400000000E-02 0.  1.
    8880023    1    1    2    0    0 -0.73116608214E+03 -0.40276163437E+02  0.48121923374E+03  0.10961788933E+04  0.65864270000E+03 0.  0.
    8880022    1    1    2    0    0  0.73116608214E+03  0.40276163437E+02  0.16071824136E+04  0.17727529362E+04  0.15294330000E+03 0.  0.
<mgrwt>
<rscale>  0 0.91945802E+03</rscale>
<asrwt>0</asrwt>
<pdfrwt beam="1">  1        1 0.38133334E+00 0.98490417E+03</pdfrwt>
<pdfrwt beam="2">  1       -1 0.60040784E-01 0.98490417E+03</pdfrwt>
<totfact> 0.40236639E+00</totfact>
</mgrwt>
</event>
<event>
 4    5  0.7214169E-008  0.9878983E+03  0.7818608E-02  0.9397564E-01
          1   -1    0    0  501    0  0.00000000000E+00  0.00000000000E+00  0.16444860604E+04  0.16444860604E+04  0.50400000000E-02 0. -1.
         -1   -1    0    0    0  501 -0.00000000000E+00 -0.00000000000E+00 -0.15472094574E+04  0.15472094575E+04  0.50400000000E-02 0.  1.
    8880023    1    1    2    0    0 -0.13572173039E+03 -0.72367981011E+03 -0.12833497664E+04  0.16195461355E+04  0.65864270000E+03 0.  1.
    8880022    1    1    2    0    0  0.13572173039E+03  0.72367981011E+03  0.13806263693E+04  0.15721493823E+04  0.15294330000E+03 0.  0.
<mgrwt>
<rscale>  0 0.92276393E+03</rscale>
<asrwt>0</asrwt>
<pdfrwt beam="1">  1        1 0.25299785E+00 0.98789831E+03</pdfrwt>
<pdfrwt beam="2">  1       -1 0.23803223E+00 0.98789831E+03</pdfrwt>
<totfact> 0.44033991E-01</totfact>
</mgrwt>
</event>
<event>
 4    5  0.7214169E-008  0.7189112E+03  0.7818608E-02  0.9926287E-01
          1   -1    0    0  501    0  0.00000000000E+00  0.00000000000E+00  0.67244992491E+03  0.67244992493E+03  0.50400000000E-02 0. -1.
         -1   -1    0    0    0  501 -0.00000000000E+00 -0.00000000000E+00 -0.63992062773E+03  0.63992062775E+03  0.50400000000E-02 0.  1.
    8880023    1    1    2    0    0  0.13831062595E+03 -0.25277119471E+03 -0.35833268800E+03  0.80326560220E+03  0.65864270000E+03 0.  0.
    8880022    1    1    2    0    0 -0.13831062595E+03  0.25277119471E+03  0.39086198517E+03  0.50910495047E+03  0.15294330000E+03 0.  0.
<mgrwt>
<rscale>  0 0.59004029E+03</rscale>
<asrwt>0</asrwt>
<pdfrwt beam="1">  1        1 0.10345383E+00 0.71891120E+03</pdfrwt>
<pdfrwt beam="2">  1       -1 0.98449328E-01 0.71891120E+03</pdfrwt>
<totfact> 0.29401173E+01</totfact>
</mgrwt>
</event>
<event>
 4    5  0.7214169E-008  0.1154506E+04  0.7818608E-02  0.9202666E-01
         -1   -1    0    0    0  501 -0.00000000000E+00  0.00000000000E+00  0.79958458489E+03  0.79958458491E+03  0.50400000000E-02 0.  1.
          1   -1    0    0  501    0  0.00000000000E+00 -0.00000000000E+00 -0.28301284913E+04  0.28301284913E+04  0.50400000000E-02 0. -1.
    8880023    1    1    2    0    0 -0.83339254962E+03  0.45225198796E+03  0.22676873213E+03  0.11765667285E+04  0.65864270000E+03 0.  1.
    8880022    1    1    2    0    0  0.83339254962E+03 -0.45225198796E+03 -0.22573126385E+04  0.24531463478E+04  0.15294330000E+03 0.  0.
<mgrwt>
<rscale>  0 0.11025952E+04</rscale>
<asrwt>0</asrwt>
<pdfrwt beam="1">  1        1 0.43540438E+00 0.11545065E+04</pdfrwt>
<pdfrwt beam="2">  1       -1 0.12301301E+00 0.11545065E+04</pdfrwt>
<totfact> 0.46133237E-01</totfact>
</mgrwt>
</event>
<event>
 4    5  0.7214169E-008  0.8003949E+03  0.7818608E-02  0.9709943E-01
         -1   -1    0    0    0  501 -0.00000000000E+00  0.00000000000E+00  0.50986539826E+03  0.50986539828E+03  0.50400000000E-02 0.  1.
          1   -1    0    0  501    0  0.00000000000E+00 -0.00000000000E+00 -0.10291791741E+04  0.10291791741E+04  0.50400000000E-02 0. -1.
    8880023    1    1    2    0    0  0.45874544156E+02  0.45245695870E+03  0.40907347886E+02  0.80143957393E+03  0.65864270000E+03 0.  0.
    8880022    1    1    2    0    0 -0.45874544156E+02 -0.45245695870E+03 -0.56022112372E+03  0.73760499847E+03  0.15294330000E+03 0.  0.
<mgrwt>
<rscale>  0 0.70427871E+03</rscale>
<asrwt>0</asrwt>
<pdfrwt beam="1">  1        1 0.15833526E+00 0.80039489E+03</pdfrwt>
<pdfrwt beam="2">  1       -1 0.78440831E-01 0.80039489E+03</pdfrwt>
<totfact> 0.23886984E+01</totfact>
</mgrwt>
</event>
<event>
 4    5  0.7214169E-008  0.6900034E+03  0.7818608E-02  0.1004151E+00
          1   -1    0    0  501    0  0.00000000000E+00  0.00000000000E+00  0.21421383591E+04  0.21421383591E+04  0.50400000000E-02 0. -1.
         -1   -1    0    0    0  501 -0.00000000000E+00 -0.00000000000E+00 -0.63309510691E+03  0.63309510693E+03  0.50400000000E-02 0.  1.
    8880023    1    1    2    0    0  0.98886511203E+02  0.18032168059E+03 -0.43414151034E+03  0.81521991380E+03  0.65864270000E+03 0.  1.
    8880022    1    1    2    0    0 -0.98886511203E+02 -0.18032168059E+03  0.19431847625E+04  0.19600135522E+04  0.15294330000E+03 0.  0.
<mgrwt>
<rscale>  0 0.53866976E+03</rscale>
<asrwt>0</asrwt>
<pdfrwt beam="1">  1        1 0.32955974E+00 0.69000337E+03</pdfrwt>
<pdfrwt beam="2">  1       -1 0.97399249E-01 0.69000337E+03</pdfrwt>
<totfact> 0.25805218E+00</totfact>
</mgrwt>
</event>
<event>
 4    5  0.7214169E-008  0.8681802E+03  0.7818608E-02  0.9579175E-01
         -1   -1    0    0    0  501 -0.00000000000E+00  0.00000000000E+00  0.19326151990E+03  0.19326151996E+03  0.50400000000E-02 0.  1.
          1   -1    0    0  501    0  0.00000000000E+00 -0.00000000000E+00 -0.47842912341E+04  0.47842912341E+04  0.50400000000E-02 0. -1.
    8880023    1    1    2    0    0  0.26751098900E+03  0.49836190219E+03 -0.41613667243E+04  0.42509657650E+04  0.65864270000E+03 0. -1.
    8880022    1    1    2    0    0 -0.26751098900E+03 -0.49836190219E+03 -0.42966298993E+03  0.72658698910E+03  0.15294330000E+03 0.  0.
<mgrwt>
<rscale>  0 0.78690001E+03</rscale>
<asrwt>0</asrwt>
<pdfrwt beam="1">  1        1 0.73604471E+00 0.86818024E+03</pdfrwt>
<pdfrwt beam="2">  1       -1 0.29732545E-01 0.86818024E+03</pdfrwt>
<totfact> 0.18281599E-01</totfact>
</mgrwt>
</event>
<event>
 4    5  0.7214169E-008  0.6686420E+03  0.7818608E-02  0.1016656E+00
         -1   -1    0    0    0  501 -0.00000000000E+00  0.00000000000E+00  0.19858609086E+03  0.19858609093E+03  0.50400000000E-02 0.  1.
          1   -1    0    0  501    0  0.00000000000E+00 -0.00000000000E+00 -0.21307259504E+04  0.21307259504E+04  0.50400000000E-02 0. -1.
    8880023    1    1    2    0    0 -0.10399710690E+03 -0.49563432840E+02 -0.38742378648E+03  0.77277378884E+03  0.65864270000E+03 0.  1.
    8880022    1    1    2    0    0  0.10399710690E+03  0.49563432840E+02 -0.15447160731E+04  0.15565382525E+04  0.15294330000E+03 0.  0.
<mgrwt>
<rscale>  0 0.48913035E+03</rscale>
<asrwt>0</asrwt>
<pdfrwt beam="1">  1        1 0.32780398E+00 0.66864201E+03</pdfrwt>
<pdfrwt beam="2">  1       -1 0.30551708E-01 0.66864201E+03</pdfrwt>
<totfact> 0.25271617E+01</totfact>
</mgrwt>
</event>
<event>
 4    5  0.7214169E-008  0.6801462E+03  0.7818608E-02  0.1009241E+00
          1   -1    0    0  501    0  0.00000000000E+00  0.00000000000E+00  0.12366068863E+04  0.12366068863E+04  0.50400000000E-02 0. -1.
         -1   -1    0    0    0  501 -0.00000000000E+00 -0.00000000000E+00 -0.72999796955E+03  0.72999796956E+03  0.50400000000E-02 0.  1.
    8880023    1    1    2    0    0 -0.25144827391E+02  0.16779882571E+03 -0.55676719904E+03  0.87897020908E+03  0.65864270000E+03 0.  1.
    8880022    1    1    2    0    0  0.25144827391E+02 -0.16779882571E+03  0.10633761157E+04  0.10876346467E+04  0.15294330000E+03 0.  0.
<mgrwt>
<rscale>  0 0.51777385E+03</rscale>
<asrwt>0</asrwt>
<pdfrwt beam="1">  1        1 0.19024721E+00 0.68014624E+03</pdfrwt>
<pdfrwt beam="2">  1       -1 0.11230738E+00 0.68014624E+03</pdfrwt>
<totfact> 0.76505187E+00</totfact>
</mgrwt>
</event>
<event>
 4    5  0.7214169E-008  0.1445077E+04  0.7818608E-02  0.8949425E-01
          1   -1    0    0  501    0  0.00000000000E+00  0.00000000000E+00  0.29063587715E+04  0.29063587715E+04  0.50400000000E-02 0. -1.
         -1   -1    0    0    0  501 -0.00000000000E+00 -0.00000000000E+00 -0.13587541038E+04  0.13587541038E+04  0.50400000000E-02 0.  1.
    8880023    1    1    2    0    0  0.80575376782E+03 -0.10025962057E+04 -0.74956672843E+03  0.16279123971E+04  0.65864270000E+03 0.  0.
    8880022    1    1    2    0    0 -0.80575376782E+03  0.10025962057E+04  0.22971713961E+04  0.26372004782E+04  0.15294330000E+03 0.  0.
<mgrwt>
<rscale>  0 0.14060858E+04</rscale>
<asrwt>0</asrwt>
<pdfrwt beam="1">  1        1 0.44713212E+00 0.14450773E+04</pdfrwt>
<pdfrwt beam="2">  1       -1 0.20903909E+00 0.14450773E+04</pdfrwt>
<totfact> 0.87010545E-02</totfact>
</mgrwt>
</event>
<event>
 4    5  0.7214169E-008  0.1142900E+04  0.7818608E-02  0.9214731E-01
          1   -1    0    0  501    0  0.00000000000E+00  0.00000000000E+00  0.17446123036E+04  0.17446123036E+04  0.50400000000E-02 0. -1.
         -1   -1    0    0    0  501 -0.00000000000E+00 -0.00000000000E+00 -0.77145771492E+03  0.77145771493E+03  0.50400000000E-02 0.  1.
    8880023    1    1    2    0    0 -0.88550228899E+03 -0.29714817951E+03 -0.21450259910E+02  0.11431017734E+04  0.65864270000E+03 0.  0.
    8880022    1    1    2    0    0  0.88550228899E+03  0.29714817951E+03  0.99460484861E+03  0.13729682452E+04  0.15294330000E+03 0.  0.
<mgrwt>
<rscale>  0 0.10902670E+04</rscale>
<asrwt>0</asrwt>
<pdfrwt beam="1">  1        1 0.26840189E+00 0.11429005E+04</pdfrwt>
<pdfrwt beam="2">  1       -1 0.11868580E+00 0.11429005E+04</pdfrwt>
<totfact> 0.27976267E+00</totfact>
</mgrwt>
</event>
<event>
 4    5  0.7214169E-008  0.9696561E+03  0.7818608E-02  0.9422380E-01
         -1   -1    0    0    0  501 -0.00000000000E+00  0.00000000000E+00  0.70748502194E+03  0.70748502196E+03  0.50400000000E-02 0.  1.
          1   -1    0    0  501    0  0.00000000000E+00 -0.00000000000E+00 -0.17466483627E+04  0.17466483627E+04  0.50400000000E-02 0. -1.
    8880023    1    1    2    0    0  0.43887450260E+03 -0.56018914118E+03  0.22497676245E+03  0.99541320708E+03  0.65864270000E+03 0.  0.
    8880022    1    1    2    0    0 -0.43887450260E+03  0.56018914118E+03 -0.12641401032E+04  0.14587201776E+04  0.15294330000E+03 0.  0.
<mgrwt>
<rscale>  0 0.90256556E+03</rscale>
<asrwt>0</asrwt>
<pdfrwt beam="1">  1        1 0.26871513E+00 0.96965608E+03</pdfrwt>
<pdfrwt beam="2">  1       -1 0.10884385E+00 0.96965608E+03</pdfrwt>
<totfact> 0.35078705E+00</totfact>
</mgrwt>
</event>
<event>
 4    5  0.7214169E-008  0.7342069E+03  0.7818608E-02  0.9877155E-01
          1   -1    0    0  501    0  0.00000000000E+00  0.00000000000E+00  0.45417194313E+03  0.45417194315E+03  0.50400000000E-02 0. -1.
         -1   -1    0    0    0  501 -0.00000000000E+00 -0.00000000000E+00 -0.97615807498E+03  0.97615807499E+03  0.50400000000E-02 0.  1.
    8880023    1    1    2    0    0 -0.19009275015E+03 -0.26289589023E+03 -0.71345541447E+03  0.10237569719E+04  0.65864270000E+03 0.  1.
    8880022    1    1    2    0    0  0.19009275015E+03  0.26289589023E+03  0.19146928262E+03  0.40657304627E+03  0.15294330000E+03 0. -1.
<mgrwt>
<rscale>  0 0.61381333E+03</rscale>
<asrwt>0</asrwt>
<pdfrwt beam="1">  1        1 0.69872607E-01 0.73420686E+03</pdfrwt>
<pdfrwt beam="2">  1       -1 0.15017816E+00 0.73420686E+03</pdfrwt>
<totfact> 0.18084473E+01</totfact>
</mgrwt>
</event>
<event>
 4    5  0.7214169E-008  0.7065437E+03  0.7818608E-02  0.9971067E-01
         -1   -1    0    0    0  501 -0.00000000000E+00  0.00000000000E+00  0.80362178115E+03  0.80362178116E+03  0.50400000000E-02 0.  1.
          1   -1    0    0  501    0  0.00000000000E+00 -0.00000000000E+00 -0.11344589924E+04  0.11344589924E+04  0.50400000000E-02 0. -1.
    8880023    1    1    2    0    0 -0.25030022577E+03 -0.52379059734E+02  0.62102010027E+03  0.94067525753E+03  0.65864270000E+03 0.  1.
    8880022    1    1    2    0    0  0.25030022577E+03  0.52379059734E+02 -0.95185731155E+03  0.99740551606E+03  0.15294330000E+03 0.  0.
<mgrwt>
<rscale>  0 0.56937313E+03</rscale>
<asrwt>0</asrwt>
<pdfrwt beam="1">  1        1 0.17453215E+00 0.70654368E+03</pdfrwt>
<pdfrwt beam="2">  1       -1 0.12363412E+00 0.70654368E+03</pdfrwt>
<totfact> 0.71634929E+00</totfact>
</mgrwt>
</event>
<event>
 4    5  0.7214169E-008  0.9771516E+03  0.7818608E-02  0.9412080E-01
         -1   -1    0    0    0  501 -0.00000000000E+00  0.00000000000E+00  0.48108091390E+03  0.48108091393E+03  0.50400000000E-02 0.  1.
          1   -1    0    0  501    0  0.00000000000E+00 -0.00000000000E+00 -0.22890306788E+04  0.22890306788E+04  0.50400000000E-02 0. -1.
    8880023    1    1    2    0    0  0.31198120866E+03 -0.65090917441E+03 -0.19501072912E+03  0.99642080399E+03  0.65864270000E+03 0.  0.
    8880022    1    1    2    0    0 -0.31198120866E+03  0.65090917441E+03 -0.16129390358E+04  0.17736907887E+04  0.15294330000E+03 0.  0.
<mgrwt>
<rscale>  0 0.91088151E+03</rscale>
<asrwt>0</asrwt>
<pdfrwt beam="1">  1        1 0.35215856E+00 0.97715159E+03</pdfrwt>
<pdfrwt beam="2">  1       -1 0.74012450E-01 0.97715159E+03</pdfrwt>
<totfact> 0.35460630E+00</totfact>
</mgrwt>
</event>
<event>
 4    5  0.7214169E-008  0.1114418E+04  0.7818608E-02  0.9245170E-01
          1   -1    0    0  501    0  0.00000000000E+00  0.00000000000E+00  0.20400789319E+04  0.20400789319E+04  0.50400000000E-02 0. -1.
         -1   -1    0    0    0  501 -0.00000000000E+00 -0.00000000000E+00 -0.62902065119E+03  0.62902065121E+03  0.50400000000E-02 0.  1.
    8880023    1    1    2    0    0  0.87410850384E+03 -0.20988672941E+03  0.13565405037E+04  0.17555997437E+04  0.65864270000E+03 0.  0.
    8880022    1    1    2    0    0 -0.87410850384E+03  0.20988672941E+03  0.54517777085E+02  0.91349983947E+03  0.15294330000E+03 0.  0.
<mgrwt>
<rscale>  0 0.10599115E+04</rscale>
<asrwt>0</asrwt>
<pdfrwt beam="1">  1        1 0.31385829E+00 0.11144184E+04</pdfrwt>
<pdfrwt beam="2">  1       -1 0.96772409E-01 0.11144184E+04</pdfrwt>
<totfact> 0.28652998E+00</totfact>
</mgrwt>
</event>
<event>
 4    5  0.7214169E-008  0.6704594E+03  0.7818608E-02  0.1015336E+00
         -1   -1    0    0    0  501 -0.00000000000E+00  0.00000000000E+00  0.98777321420E+02  0.98777321549E+02  0.50400000000E-02 0.  1.
          1   -1    0    0  501    0  0.00000000000E+00 -0.00000000000E+00 -0.19280015877E+04  0.19280015877E+04  0.50400000000E-02 0. -1.
    8880023    1    1    2    0    0  0.12371444455E+03  0.20009603864E+02 -0.13199807274E+04  0.14804948412E+04  0.65864270000E+03 0.  0.
    8880022    1    1    2    0    0 -0.12371444455E+03 -0.20009603864E+02 -0.50924353893E+03  0.54628406804E+03  0.15294330000E+03 0.  1.
<mgrwt>
<rscale>  0 0.49408052E+03</rscale>
<asrwt>0</asrwt>
<pdfrwt beam="1">  1        1 0.29661560E+00 0.67045944E+03</pdfrwt>
<pdfrwt beam="2">  1       -1 0.15196512E-01 0.67045944E+03</pdfrwt>
<totfact> 0.11135139E+02</totfact>
</mgrwt>
</event>
<event>
 4    5  0.7214169E-008  0.1046507E+04  0.7818608E-02  0.9323092E-01
          1   -1    0    0  501    0  0.00000000000E+00  0.00000000000E+00  0.11275511896E+04  0.11275511896E+04  0.50400000000E-02 0. -1.
         -1   -1    0    0    0  501 -0.00000000000E+00 -0.00000000000E+00 -0.16104410807E+04  0.16104410807E+04  0.50400000000E-02 0.  1.
    8880023    1    1    2    0    0  0.22204893287E+03  0.78234300628E+03 -0.12356976348E+04  0.16192977364E+04  0.65864270000E+03 0.  0.
    8880022    1    1    2    0    0 -0.22204893287E+03 -0.78234300628E+03  0.75280774376E+03  0.11186945339E+04  0.15294330000E+03 0.  0.
<mgrwt>
<rscale>  0 0.98684440E+03</rscale>
<asrwt>0</asrwt>
<pdfrwt beam="1">  1        1 0.17346941E+00 0.10465068E+04</pdfrwt>
<pdfrwt beam="2">  1       -1 0.24776017E+00 0.10465068E+04</pdfrwt>
<totfact> 0.87313606E-01</totfact>
</mgrwt>
</event>
<event>
 4    5  0.7214169E-008  0.1122547E+04  0.7818608E-02  0.9236359E-01
          1   -1    0    0  501    0  0.00000000000E+00  0.00000000000E+00  0.84385476546E+03  0.84385476547E+03  0.50400000000E-02 0. -1.
         -1   -1    0    0    0  501 -0.00000000000E+00 -0.00000000000E+00 -0.19014174837E+04  0.19014174837E+04  0.50400000000E-02 0.  1.
    8880023    1    1    2    0    0  0.77514980336E+03 -0.47480962383E+03  0.24555119907E+03  0.11490896371E+04  0.65864270000E+03 0.  0.
    8880022    1    1    2    0    0 -0.77514980336E+03  0.47480962383E+03 -0.13031139173E+04  0.15961826121E+04  0.15294330000E+03 0.  0.
<mgrwt>
<rscale>  0 0.10685901E+04</rscale>
<asrwt>0</asrwt>
<pdfrwt beam="1">  1        1 0.12982381E+00 0.11225469E+04</pdfrwt>
<pdfrwt beam="2">  1       -1 0.29252577E+00 0.11225469E+04</pdfrwt>
<totfact> 0.74518361E-01</totfact>
</mgrwt>
</event>
<event>
 4    5  0.7214169E-008  0.9128488E+03  0.7818608E-02  0.9505712E-01
          1   -1    0    0  501    0  0.00000000000E+00  0.00000000000E+00  0.53929597399E+03  0.53929597401E+03  0.50400000000E-02 0. -1.
         -1   -1    0    0    0  501 -0.00000000000E+00 -0.00000000000E+00 -0.16286817260E+04  0.16286817260E+04  0.50400000000E-02 0.  1.
    8880023    1    1    2    0    0  0.61044872053E+03  0.16381405394E+03 -0.12006273332E+04  0.15082436422E+04  0.65864270000E+03 0.  0.
    8880022    1    1    2    0    0 -0.61044872053E+03 -0.16381405394E+03  0.11124158120E+03  0.65973405783E+03  0.15294330000E+03 0.  0.
<mgrwt>
<rscale>  0 0.83863995E+03</rscale>
<asrwt>0</asrwt>
<pdfrwt beam="1">  1        1 0.82968612E-01 0.91284878E+03</pdfrwt>
<pdfrwt beam="2">  1       -1 0.25056642E+00 0.91284878E+03</pdfrwt>
<totfact> 0.28103920E+00</totfact>
</mgrwt>
</event>
<event>
 4    5  0.7214169E-008  0.7216589E+03  0.7818608E-02  0.9917012E-01
          1   -1    0    0  501    0  0.00000000000E+00  0.00000000000E+00  0.21093644420E+04  0.21093644420E+04  0.50400000000E-02 0. -1.
         -1   -1    0    0    0  501 -0.00000000000E+00 -0.00000000000E+00 -0.67476366763E+03  0.67476366765E+03  0.50400000000E-02 0.  1.
    8880023    1    1    2    0    0 -0.23467240608E+03  0.17863436787E+03 -0.46316361278E+03  0.85750341925E+03  0.65864270000E+03 0.  1.
    8880022    1    1    2    0    0  0.23467240608E+03 -0.17863436787E+03  0.18977643871E+04  0.19266246904E+04  0.15294330000E+03 0.  0.
<mgrwt>
<rscale>  0 0.59443840E+03</rscale>
<asrwt>0</asrwt>
<pdfrwt beam="1">  1        1 0.32451760E+00 0.72165891E+03</pdfrwt>
<pdfrwt beam="2">  1       -1 0.10380980E+00 0.72165891E+03</pdfrwt>
<totfact> 0.23309917E+00</totfact>
</mgrwt>
</event>
<event>
 4    5  0.7214169E-008  0.9790568E+03  0.7818608E-02  0.9409486E-01
          1   -1    0    0  501    0  0.00000000000E+00  0.00000000000E+00  0.11539368179E+04  0.11539368179E+04  0.50400000000E-02 0. -1.
         -1   -1    0    0    0  501 -0.00000000000E+00 -0.00000000000E+00 -0.19142808579E+04  0.19142808579E+04  0.50400000000E-02 0.  1.
    8880023    1    1    2    0    0  0.54993641484E+03 -0.47149965643E+03 -0.16452015919E+04  0.19144817760E+04  0.65864270000E+03 0.  1.
    8880022    1    1    2    0    0 -0.54993641484E+03  0.47149965643E+03  0.88485755187E+03  0.11537358998E+04  0.15294330000E+03 0.  0.
<mgrwt>
<rscale>  0 0.91299147E+03</rscale>
<asrwt>0</asrwt>
<pdfrwt beam="1">  1        1 0.17752874E+00 0.97905679E+03</pdfrwt>
<pdfrwt beam="2">  1       -1 0.29450475E+00 0.97905679E+03</pdfrwt>
<totfact> 0.42147631E-01</totfact>
</mgrwt>
</event>
<event>
 4    5  0.7214169E-008  0.8540261E+03  0.7818608E-02  0.9604279E-01
          1   -1    0    0  501    0  0.00000000000E+00  0.00000000000E+00  0.15303400820E+04  0.15303400820E+04  0.50400000000E-02 0. -1.
         -1   -1    0    0    0  501 -0.00000000000E+00 -0.00000000000E+00 -0.52335453971E+03  0.52335453973E+03  0.50400000000E-02 0.  1.
    8880023    1    1    2    0    0  0.49142901531E+03 -0.23248204948E+03 -0.49794732759E+02  0.85547653509E+03  0.65864270000E+03 0.  1.
    8880022    1    1    2    0    0 -0.49142901531E+03  0.23248204948E+03  0.10567802750E+04  0.11982180866E+04  0.15294330000E+03 0.  0.
<mgrwt>
<rscale>  0 0.77013583E+03</rscale>
<asrwt>0</asrwt>
<pdfrwt beam="1">  1        1 0.23543693E+00 0.85402610E+03</pdfrwt>
<pdfrwt beam="2">  1       -1 0.80516084E-01 0.85402610E+03</pdfrwt>
<totfact> 0.98185543E+00</totfact>
</mgrwt>
</event>
<event>
 4    5  0.7214169E-008  0.8835082E+03  0.7818608E-02  0.9553042E-01
          1   -1    0    0  501    0  0.00000000000E+00  0.00000000000E+00  0.33858699252E+04  0.33858699252E+04  0.50400000000E-02 0. -1.
         -1   -1    0    0    0  501 -0.00000000000E+00 -0.00000000000E+00 -0.24434526530E+03  0.24434526535E+03  0.50400000000E-02 0.  1.
    8880023    1    1    2    0    0 -0.47022307661E+03  0.35449510527E+03  0.73893219525E+03  0.11517844924E+04  0.65864270000E+03 0.  1.
    8880022    1    1    2    0    0  0.47022307661E+03 -0.35449510527E+03  0.24025924646E+04  0.24784306982E+04  0.15294330000E+03 0.  0.
<mgrwt>
<rscale>  0 0.80483679E+03</rscale>
<asrwt>0</asrwt>
<pdfrwt beam="1">  1        1 0.52090302E+00 0.88350819E+03</pdfrwt>
<pdfrwt beam="2">  1       -1 0.37591582E-01 0.88350819E+03</pdfrwt>
<totfact> 0.22085129E+00</totfact>
</mgrwt>
</event>
<event>
 4    5  0.7214169E-008  0.6727449E+03  0.7818608E-02  0.1013767E+00
         -1   -1    0    0    0  501 -0.00000000000E+00  0.00000000000E+00  0.44561307113E+03  0.44561307115E+03  0.50400000000E-02 0.  1.
          1   -1    0    0  501    0  0.00000000000E+00 -0.00000000000E+00 -0.10959459609E+04  0.10959459609E+04  0.50400000000E-02 0. -1.
    8880023    1    1    2    0    0 -0.94394721270E+02 -0.99323246954E+02  0.17166388503E+03  0.69430120731E+03  0.65864270000E+03 0.  1.
    8880022    1    1    2    0    0  0.94394721270E+02  0.99323246954E+02 -0.82199677478E+03  0.84725782472E+03  0.15294330000E+03 0.  0.
<mgrwt>
<rscale>  0 0.50004553E+03</rscale>
<asrwt>0</asrwt>
<pdfrwt beam="1">  1        1 0.16860707E+00 0.67274488E+03</pdfrwt>
<pdfrwt beam="2">  1       -1 0.68555857E-01 0.67274488E+03</pdfrwt>
<totfact> 0.28537164E+01</totfact>
</mgrwt>
</event>
<event>
 4    5  0.7214169E-008  0.1144672E+04  0.7818608E-02  0.9212877E-01
         -1   -1    0    0    0  501 -0.00000000000E+00  0.00000000000E+00  0.11668085980E+04  0.11668085980E+04  0.50400000000E-02 0.  1.
          1   -1    0    0  501    0  0.00000000000E+00 -0.00000000000E+00 -0.20939249378E+04  0.20939249378E+04  0.50400000000E-02 0. -1.
    8880023    1    1    2    0    0  0.85429298355E+03 -0.38294478343E+03  0.72549678393E+03  0.13552191700E+04  0.65864270000E+03 0.  1.
    8880022    1    1    2    0    0 -0.85429298355E+03  0.38294478343E+03 -0.16526131237E+04  0.19055143659E+04  0.15294330000E+03 0.  0.
<mgrwt>
<rscale>  0 0.10921500E+04</rscale>
<asrwt>0</asrwt>
<pdfrwt beam="1">  1        1 0.32214230E+00 0.11446717E+04</pdfrwt>
<pdfrwt beam="2">  1       -1 0.17950902E+00 0.11446717E+04</pdfrwt>
<totfact> 0.53456854E-01</totfact>
</mgrwt>
</event>
<event>
 4    5  0.7214169E-008  0.7043962E+03  0.7818608E-02  0.9979431E-01
          1   -1    0    0  501    0  0.00000000000E+00  0.00000000000E+00  0.80317878234E+03  0.80317878235E+03  0.50400000000E-02 0. -1.
         -1   -1    0    0    0  501 -0.00000000000E+00 -0.00000000000E+00 -0.44486275386E+03  0.44486275389E+03  0.50400000000E-02 0.  1.
    8880023    1    1    2    0    0 -0.11238723250E+03 -0.22300876299E+03 -0.92520052382E+02  0.71044631377E+03  0.65864270000E+03 0.  1.
    8880022    1    1    2    0    0  0.11238723250E+03  0.22300876299E+03  0.45083608086E+03  0.53759522247E+03  0.15294330000E+03 0. -1.
<mgrwt>
<rscale>  0 0.56561442E+03</rscale>
<asrwt>0</asrwt>
<pdfrwt beam="1">  1        1 0.12356597E+00 0.70439620E+03</pdfrwt>
<pdfrwt beam="2">  1       -1 0.68440424E-01 0.70439620E+03</pdfrwt>
<totfact> 0.48778481E+01</totfact>
</mgrwt>
</event>
<event>
 4    5  0.7214169E-008  0.6887221E+03  0.7818608E-02  0.1004766E+00
          1   -1    0    0  501    0  0.00000000000E+00  0.00000000000E+00  0.89250565481E+03  0.89250565482E+03  0.50400000000E-02 0. -1.
         -1   -1    0    0    0  501 -0.00000000000E+00 -0.00000000000E+00 -0.79453332253E+03  0.79453332254E+03  0.50400000000E-02 0.  1.
    8880023    1    1    2    0    0 -0.66568137647E+02 -0.18999122200E+03 -0.61948628702E+03  0.92633765305E+03  0.65864270000E+03 0.  0.
    8880022    1    1    2    0    0  0.66568137647E+02  0.18999122200E+03  0.71745861930E+03  0.76070132431E+03  0.15294330000E+03 0. -1.
<mgrwt>
<rscale>  0 0.53608952E+03</rscale>
<asrwt>0</asrwt>
<pdfrwt beam="1">  1        1 0.13730856E+00 0.68872214E+03</pdfrwt>
<pdfrwt beam="2">  1       -1 0.12223590E+00 0.68872214E+03</pdfrwt>
<totfact> 0.11353830E+01</totfact>
</mgrwt>
</event>
<event>
 4    5  0.7214169E-008  0.8542231E+03  0.7818608E-02  0.9603923E-01
          1   -1    0    0  501    0  0.00000000000E+00  0.00000000000E+00  0.61939827314E+03  0.61939827316E+03  0.50400000000E-02 0. -1.
         -1   -1    0    0    0  501 -0.00000000000E+00 -0.00000000000E+00 -0.96763698189E+03  0.96763698191E+03  0.50400000000E-02 0.  1.
    8880023    1    1    2    0    0 -0.53941864290E+03 -0.70103177208E+02 -0.51554468765E+03  0.99773917383E+03  0.65864270000E+03 0.  1.
    8880022    1    1    2    0    0  0.53941864290E+03  0.70103177208E+02  0.16730597890E+03  0.58929608123E+03  0.15294330000E+03 0.  0.
<mgrwt>
<rscale>  0 0.77037062E+03</rscale>
<asrwt>0</asrwt>
<pdfrwt beam="1">  1        1 0.95292043E-01 0.85422312E+03</pdfrwt>
<pdfrwt beam="2">  1       -1 0.14886723E+00 0.85422312E+03</pdfrwt>
<totfact> 0.11843478E+01</totfact>
</mgrwt>
</event>
<event>
 4    5  0.7214169E-008  0.8397835E+03  0.7818608E-02  0.9630589E-01
         -1   -1    0    0    0  501 -0.00000000000E+00  0.00000000000E+00  0.87553158231E+03  0.87553158233E+03  0.50400000000E-02 0.  1.
          1   -1    0    0  501    0  0.00000000000E+00 -0.00000000000E+00 -0.17798930641E+04  0.17798930641E+04  0.50400000000E-02 0. -1.
    8880023    1    1    2    0    0  0.42888865754E+03  0.29577114906E+03  0.61569339565E+03  0.10413042864E+04  0.65864270000E+03 0.  1.
    8880022    1    1    2    0    0 -0.42888865754E+03 -0.29577114906E+03 -0.15200548774E+04  0.16141203600E+04  0.15294330000E+03 0.  0.
<mgrwt>
<rscale>  0 0.75304284E+03</rscale>
<asrwt>0</asrwt>
<pdfrwt beam="1">  1        1 0.27382970E+00 0.83978346E+03</pdfrwt>
<pdfrwt beam="2">  1       -1 0.13469717E+00 0.83978346E+03</pdfrwt>
<totfact> 0.20136872E+00</totfact>
</mgrwt>
</event>
<event>
 4    5  0.7214169E-008  0.9548384E+03  0.7818608E-02  0.9443187E-01
         -1   -1    0    0    0  501 -0.00000000000E+00  0.00000000000E+00  0.82124469191E+03  0.82124469193E+03  0.50400000000E-02 0.  1.
          1   -1    0    0  501    0  0.00000000000E+00 -0.00000000000E+00 -0.10570022242E+04  0.10570022243E+04  0.50400000000E-02 0. -1.
    8880023    1    1    2    0    0  0.78445738860E+01 -0.69126307099E+03  0.28825746330E+03  0.99740099361E+03  0.65864270000E+03 0.  1.
    8880022    1    1    2    0    0 -0.78445738860E+01  0.69126307099E+03 -0.52401499563E+03  0.88084592257E+03  0.15294330000E+03 0.  0.
<mgrwt>
<rscale>  0 0.88605236E+03</rscale>
<asrwt>0</asrwt>
<pdfrwt beam="1">  1        1 0.16261573E+00 0.95483840E+03</pdfrwt>
<pdfrwt beam="2">  1       -1 0.12634534E+00 0.95483840E+03</pdfrwt>
<totfact> 0.75051960E+00</totfact>
</mgrwt>
</event>
<event>
 4    5  0.7214169E-008  0.9965359E+03  0.7818608E-02  0.9386104E-01
          1   -1    0    0  501    0  0.00000000000E+00  0.00000000000E+00  0.10359903185E+04  0.10359903185E+04  0.50400000000E-02 0. -1.
         -1   -1    0    0    0  501 -0.00000000000E+00 -0.00000000000E+00 -0.96348399194E+03  0.96348399196E+03  0.50400000000E-02 0.  1.
    8880023    1    1    2    0    0  0.73627321822E+03  0.13105503441E+03 -0.43025781057E+03  0.10854518247E+04  0.65864270000E+03 0.  0.
    8880022    1    1    2    0    0 -0.73627321822E+03 -0.13105503441E+03  0.50276413712E+03  0.91402248577E+03  0.15294330000E+03 0.  0.
<mgrwt>
<rscale>  0 0.93228162E+03</rscale>
<asrwt>0</asrwt>
<pdfrwt beam="1">  1        1 0.15938313E+00 0.99653594E+03</pdfrwt>
<pdfrwt beam="2">  1       -1 0.14822831E+00 0.99653594E+03</pdfrwt>
<totfact> 0.51266418E+00</totfact>
</mgrwt>
</event>
<event>
 4    5  0.7214169E-008  0.9816698E+03  0.7818608E-02  0.9405942E-01
         -1   -1    0    0    0  501 -0.00000000000E+00  0.00000000000E+00  0.72805799583E+03  0.72805799585E+03  0.50400000000E-02 0.  1.
          1   -1    0    0  501    0  0.00000000000E+00 -0.00000000000E+00 -0.22878722749E+04  0.22878722750E+04  0.50400000000E-02 0. -1.
    8880023    1    1    2    0    0 -0.39623077074E+02 -0.72683932148E+03  0.28881328387E+03  0.10232735249E+04  0.65864270000E+03 0.  1.
    8880022    1    1    2    0    0  0.39623077074E+02  0.72683932148E+03 -0.18486275630E+04  0.19926567459E+04  0.15294330000E+03 0.  0.
<mgrwt>
<rscale>  0 0.91588288E+03</rscale>
<asrwt>0</asrwt>
<pdfrwt beam="1">  1        1 0.35198035E+00 0.98166980E+03</pdfrwt>
<pdfrwt beam="2">  1       -1 0.11200892E+00 0.98166980E+03</pdfrwt>
<totfact> 0.14119257E+00</totfact>
</mgrwt>
</event>
<event>
 4    5  0.7214169E-008  0.8038302E+03  0.7818608E-02  0.9702575E-01
          1   -1    0    0  501    0  0.00000000000E+00  0.00000000000E+00  0.73349360170E+03  0.73349360172E+03  0.50400000000E-02 0. -1.
         -1   -1    0    0    0  501 -0.00000000000E+00 -0.00000000000E+00 -0.11842360206E+04  0.11842360206E+04  0.50400000000E-02 0.  1.
    8880023    1    1    2    0    0  0.43867768382E+03 -0.14104872528E+03 -0.93429270205E+03  0.12324958063E+04  0.65864270000E+03 0.  1.
    8880022    1    1    2    0    0 -0.43867768382E+03  0.14104872528E+03  0.48355028319E+03  0.68523381599E+03  0.15294330000E+03 0.  0.
<mgrwt>
<rscale>  0 0.70863704E+03</rscale>
<asrwt>0</asrwt>
<pdfrwt beam="1">  1        1 0.11284517E+00 0.80383024E+03</pdfrwt>
<pdfrwt beam="2">  1       -1 0.18219016E+00 0.80383024E+03</pdfrwt>
<totfact> 0.52296074E+00</totfact>
</mgrwt>
</event>
<event>
 4    5  0.7214169E-008  0.7303692E+03  0.7818608E-02  0.9888945E-01
         -1   -1    0    0    0  501 -0.00000000000E+00  0.00000000000E+00  0.93819720162E+03  0.93819720163E+03  0.50400000000E-02 0.  1.
          1   -1    0    0  501    0  0.00000000000E+00 -0.00000000000E+00 -0.12199097321E+04  0.12199097321E+04  0.50400000000E-02 0. -1.
    8880023    1    1    2    0    0 -0.16908347885E+03 -0.26653279856E+03  0.76291908823E+03  0.10561650898E+04  0.65864270000E+03 0.  1.
    8880022    1    1    2    0    0  0.16908347885E+03  0.26653279856E+03 -0.10446316187E+04  0.11019418439E+04  0.15294330000E+03 0.  0.
<mgrwt>
<rscale>  0 0.60800069E+03</rscale>
<asrwt>0</asrwt>
<pdfrwt beam="1">  1        1 0.18767842E+00 0.73036920E+03</pdfrwt>
<pdfrwt beam="2">  1       -1 0.14433803E+00 0.73036920E+03</pdfrwt>
<totfact> 0.41683435E+00</totfact>
</mgrwt>
</event>
<event>
 4    5  0.7214169E-008  0.8623318E+03  0.7818608E-02  0.9589429E-01
          1   -1    0    0  501    0  0.00000000000E+00  0.00000000000E+00  0.13844221686E+04  0.13844221686E+04  0.50400000000E-02 0. -1.
         -1   -1    0    0    0  501 -0.00000000000E+00 -0.00000000000E+00 -0.65331199230E+03  0.65331199232E+03  0.50400000000E-02 0.  1.
    8880023    1    1    2    0    0 -0.55296759800E+03 -0.63503992228E+02 -0.25137875409E+03  0.89822458535E+03  0.65864270000E+03 0.  1.
    8880022    1    1    2    0    0  0.55296759800E+03  0.63503992228E+02  0.98248893038E+03  0.11395095756E+04  0.15294330000E+03 0.  0.
<mgrwt>
<rscale>  0 0.77999807E+03</rscale>
<asrwt>0</asrwt>
<pdfrwt beam="1">  1        1 0.21298803E+00 0.86233180E+03</pdfrwt>
<pdfrwt beam="2">  1       -1 0.10050954E+00 0.86233180E+03</pdfrwt>
<totfact> 0.75838636E+00</totfact>
</mgrwt>
</event>
<event>
 4    5  0.7214169E-008  0.1658593E+04  0.7818608E-02  0.8805075E-01
         -1   -1    0    0    0  501 -0.00000000000E+00  0.00000000000E+00  0.20587659673E+04  0.20587659673E+04  0.50400000000E-02 0.  1.
          1   -1    0    0  501    0  0.00000000000E+00 -0.00000000000E+00 -0.14551281749E+04  0.14551281750E+04  0.50400000000E-02 0. -1.
    8880023    1    1    2    0    0 -0.20155661921E+03  0.15088058399E+04 -0.37147627392E+03  0.16996837828E+04  0.65864270000E+03 0.  1.
    8880022    1    1    2    0    0  0.20155661921E+03 -0.15088058399E+04  0.97511406632E+03  0.18142103595E+04  0.15294330000E+03 0.  0.
<mgrwt>
<rscale>  0 0.16254316E+04</rscale>
<asrwt>0</asrwt>
<pdfrwt beam="1">  1        1 0.22386587E+00 0.16585929E+04</pdfrwt>
<pdfrwt beam="2">  1       -1 0.31673323E+00 0.16585929E+04</pdfrwt>
<totfact> 0.16795675E-01</totfact>
</mgrwt>
</event>
<event>
 4    5  0.7214169E-008  0.6811957E+03  0.7818608E-02  0.1008655E+00
          1   -1    0    0  501    0  0.00000000000E+00  0.00000000000E+00  0.20350959566E+04  0.20350959566E+04  0.50400000000E-02 0. -1.
         -1   -1    0    0    0  501 -0.00000000000E+00 -0.00000000000E+00 -0.42585501221E+03  0.42585501224E+03  0.50400000000E-02 0.  1.
    8880023    1    1    2    0    0 -0.14940315891E+03 -0.88859628176E+02 -0.14085455793E+03  0.69560588710E+03  0.65864270000E+03 0.  1.
    8880022    1    1    2    0    0  0.14940315891E+03  0.88859628176E+02  0.17500955023E+04  0.17653450817E+04  0.15294330000E+03 0.  0.
<mgrwt>
<rscale>  0 0.52012606E+03</rscale>
<asrwt>0</asrwt>
<pdfrwt beam="1">  1        1 0.31309169E+00 0.68119567E+03</pdfrwt>
<pdfrwt beam="2">  1       -1 0.65516155E-01 0.68119567E+03</pdfrwt>
<totfact> 0.70707892E+00</totfact>
</mgrwt>
</event>
<event>
 4    5  0.7214169E-008  0.1070848E+04  0.7818608E-02  0.9294229E-01
          1   -1    0    0  501    0  0.00000000000E+00  0.00000000000E+00  0.22037591858E+04  0.22037591858E+04  0.50400000000E-02 0. -1.
         -1   -1    0    0    0  501 -0.00000000000E+00 -0.00000000000E+00 -0.86298360562E+03  0.86298360563E+03  0.50400000000E-02 0.  1.
    8880023    1    1    2    0    0  0.68792722722E+03  0.48955277902E+03 -0.38618175103E+03  0.11383551047E+04  0.65864270000E+03 0.  0.
    8880022    1    1    2    0    0 -0.68792722722E+03 -0.48955277902E+03  0.17269573312E+04  0.19283876867E+04  0.15294330000E+03 0.  0.
<mgrwt>
<rscale>  0 0.10131590E+04</rscale>
<asrwt>0</asrwt>
<pdfrwt beam="1">  1        1 0.33903987E+00 0.10708483E+04</pdfrwt>
<pdfrwt beam="2">  1       -1 0.13276671E+00 0.10708483E+04</pdfrwt>
<totfact> 0.10440916E+00</totfact>
</mgrwt>
</event>
<event>
 4    5  0.7214169E-008  0.2259551E+04  0.7818608E-02  0.8503590E-01
         -1   -1    0    0    0  501 -0.00000000000E+00  0.00000000000E+00  0.24485561659E+04  0.24485561659E+04  0.50400000000E-02 0.  1.
          1   -1    0    0  501    0  0.00000000000E+00 -0.00000000000E+00 -0.30289468643E+04  0.30289468643E+04  0.50400000000E-02 0. -1.
    8880023    1    1    2    0    0 -0.60428018483E+03  0.20752359197E+04  0.13014695037E+04  0.26075643309E+04  0.65864270000E+03 0.  0.
    8880022    1    1    2    0    0  0.60428018483E+03 -0.20752359197E+04 -0.18818602021E+04  0.28699386993E+04  0.15294330000E+03 0.  0.
<mgrwt>
<rscale>  0 0.22360048E+04</rscale>
<asrwt>0</asrwt>
<pdfrwt beam="1">  1        1 0.46599182E+00 0.22595506E+04</pdfrwt>
<pdfrwt beam="2">  1       -1 0.37670095E+00 0.22595506E+04</pdfrwt>
<totfact> 0.50187202E-03</totfact>
</mgrwt>
</event>
<event>
 4    5  0.7214169E-008  0.7382846E+03  0.7818608E-02  0.9864972E-01
         -1   -1    0    0    0  501 -0.00000000000E+00  0.00000000000E+00  0.27789913566E+04  0.27789913566E+04  0.50400000000E-02 0.  1.
          1   -1    0    0  501    0  0.00000000000E+00 -0.00000000000E+00 -0.36163420350E+03  0.36163420354E+03  0.50400000000E-02 0. -1.
    8880023    1    1    2    0    0 -0.19546937576E+03 -0.27026971331E+03  0.26195952917E+04  0.27216435647E+04  0.65864270000E+03 0.  1.
    8880022    1    1    2    0    0  0.19546937576E+03  0.27026971331E+03 -0.20223813858E+03  0.41898199544E+03  0.15294330000E+03 0.  0.
<mgrwt>
<rscale>  0 0.61989326E+03</rscale>
<asrwt>0</asrwt>
<pdfrwt beam="1">  1        1 0.55636030E-01 0.73828463E+03</pdfrwt>
<pdfrwt beam="2">  1       -1 0.42753714E+00 0.73828463E+03</pdfrwt>
<totfact> 0.34130881E-01</totfact>
</mgrwt>
</event>
<event>
 4    5  0.7214169E-008  0.1431765E+04  0.7818608E-02  0.8959386E-01
         -1   -1    0    0    0  501 -0.00000000000E+00  0.00000000000E+00  0.78062496291E+03  0.78062496293E+03  0.50400000000E-02 0.  1.
          1   -1    0    0  501    0  0.00000000000E+00 -0.00000000000E+00 -0.28802642079E+04  0.28802642079E+04  0.50400000000E-02 0. -1.
    8880023    1    1    2    0    0  0.87251606396E+03 -0.92458388592E+03 -0.31765610863E+03  0.14665794399E+04  0.65864270000E+03 0.  0.
    8880022    1    1    2    0    0 -0.87251606396E+03  0.92458388592E+03 -0.17819831364E+04  0.21943097309E+04  0.15294330000E+03 0.  0.
<mgrwt>
<rscale>  0 0.13923348E+04</rscale>
<asrwt>0</asrwt>
<pdfrwt beam="1">  1        1 0.44311757E+00 0.14317646E+04</pdfrwt>
<pdfrwt beam="2">  1       -1 0.12009615E+00 0.14317646E+04</pdfrwt>
<totfact> 0.43434093E-01</totfact>
</mgrwt>
</event>
<event>
 4    5  0.7214169E-008  0.6865636E+03  0.7818608E-02  0.1005831E+00
         -1   -1    0    0    0  501 -0.00000000000E+00  0.00000000000E+00  0.50746458191E+03  0.50746458194E+03  0.50400000000E-02 0.  1.
          1   -1    0    0  501    0  0.00000000000E+00 -0.00000000000E+00 -0.14799190325E+04  0.14799190325E+04  0.50400000000E-02 0. -1.
    8880023    1    1    2    0    0  0.16219616192E+03 -0.10607447017E+03  0.25722379082E+03  0.73316687936E+03  0.65864270000E+03 0.  1.
    8880022    1    1    2    0    0 -0.16219616192E+03  0.10607447017E+03 -0.12296782414E+04  0.12542167351E+04  0.15294330000E+03 0.  0.
<mgrwt>
<rscale>  0 0.53165907E+03</rscale>
<asrwt>0</asrwt>
<pdfrwt beam="1">  1        1 0.22767985E+00 0.68656361E+03</pdfrwt>
<pdfrwt beam="2">  1       -1 0.78071475E-01 0.68656361E+03</pdfrwt>
<totfact> 0.11625773E+01</totfact>
</mgrwt>
</event>
<event>
 4    5  0.7214169E-008  0.7889717E+03  0.7818608E-02  0.9735169E-01
         -1   -1    0    0    0  501 -0.00000000000E+00  0.00000000000E+00  0.14986081901E+04  0.14986081901E+04  0.50400000000E-02 0.  1.
          1   -1    0    0  501    0  0.00000000000E+00 -0.00000000000E+00 -0.34094494990E+03  0.34094494994E+03  0.50400000000E-02 0. -1.
    8880023    1    1    2    0    0 -0.25155722566E+03 -0.35409764710E+03  0.11300617894E+04  0.13782293117E+04  0.65864270000E+03 0.  1.
    8880022    1    1    2    0    0  0.25155722566E+03  0.35409764710E+03  0.27601450744E+02  0.46132382831E+03  0.15294330000E+03 0.  0.
<mgrwt>
<rscale>  0 0.68960892E+03</rscale>
<asrwt>0</asrwt>
<pdfrwt beam="1">  1        1 0.52453069E-01 0.78897173E+03</pdfrwt>
<pdfrwt beam="2">  1       -1 0.23055511E+00 0.78897173E+03</pdfrwt>
<totfact> 0.71494144E+00</totfact>
</mgrwt>
</event>
<event>
 4    5  0.7214169E-008  0.9397017E+03  0.7818608E-02  0.9465088E-01
         -1   -1    0    0    0  501 -0.00000000000E+00  0.00000000000E+00  0.60024764887E+03  0.60024764889E+03  0.50400000000E-02 0.  1.
          1   -1    0    0  501    0  0.00000000000E+00 -0.00000000000E+00 -0.14347019901E+04  0.14347019901E+04  0.50400000000E-02 0. -1.
    8880023    1    1    2    0    0 -0.23073634313E+03 -0.62927724318E+03  0.17937757933E+02  0.93987290537E+03  0.65864270000E+03 0.  0.
    8880022    1    1    2    0    0  0.23073634313E+03  0.62927724318E+03 -0.85239209918E+03  0.10950767336E+04  0.15294330000E+03 0.  0.
<mgrwt>
<rscale>  0 0.86907371E+03</rscale>
<asrwt>0</asrwt>
<pdfrwt beam="1">  1        1 0.22072338E+00 0.93970172E+03</pdfrwt>
<pdfrwt beam="2">  1       -1 0.92345792E-01 0.93970172E+03</pdfrwt>
<totfact> 0.83887741E+00</totfact>
</mgrwt>
</event>
<event>
 4    5  0.7214169E-008  0.1264432E+04  0.7818608E-02  0.9096900E-01
          1   -1    0    0  501    0  0.00000000000E+00  0.00000000000E+00  0.12724675412E+04  0.12724675412E+04  0.50400000000E-02 0. -1.
         -1   -1    0    0    0  501 -0.00000000000E+00 -0.00000000000E+00 -0.14607217670E+04  0.14607217670E+04  0.50400000000E-02 0.  1.
    8880023    1    1    2    0    0  0.10770500361E+04  0.70295205099E+02 -0.78710942750E+03  0.14894058054E+04  0.65864270000E+03 0.  0.
    8880022    1    1    2    0    0 -0.10770500361E+04 -0.70295205099E+02  0.59885520168E+03  0.12437835028E+04  0.15294330000E+03 0.  0.
<mgrwt>
<rscale>  0 0.12184019E+04</rscale>
<asrwt>0</asrwt>
<pdfrwt beam="1">  1        1 0.19576424E+00 0.12644320E+04</pdfrwt>
<pdfrwt beam="2">  1       -1 0.22472643E+00 0.12644320E+04</pdfrwt>
<totfact> 0.94223908E-01</totfact>
</mgrwt>
</event>
<event>
 4    5  0.7214169E-008  0.7154172E+03  0.7818608E-02  0.9938409E-01
          1   -1    0    0  501    0  0.00000000000E+00  0.00000000000E+00  0.46294441450E+03  0.46294441452E+03  0.50400000000E-02 0. -1.
         -1   -1    0    0    0  501 -0.00000000000E+00 -0.00000000000E+00 -0.89908133988E+03  0.89908133990E+03  0.50400000000E-02 0.  1.
    8880023    1    1    2    0    0  0.27202337219E+03 -0.63362652018E+02 -0.65953448197E+03  0.97304032797E+03  0.65864270000E+03 0.  1.
    8880022    1    1    2    0    0 -0.27202337219E+03  0.63362652018E+02  0.22339755658E+03  0.38898542645E+03  0.15294330000E+03 0.  0.
<mgrwt>
<rscale>  0 0.58435394E+03</rscale>
<asrwt>0</asrwt>
<pdfrwt beam="1">  1        1 0.71222218E-01 0.71541718E+03</pdfrwt>
<pdfrwt beam="2">  1       -1 0.13832021E+00 0.71541718E+03</pdfrwt>
<totfact> 0.21933856E+01</totfact>
</mgrwt>
</event>
<event>
 4    5  0.7214169E-008  0.6846289E+03  0.7818608E-02  0.1006818E+00
         -1   -1    0    0    0  501 -0.00000000000E+00  0.00000000000E+00  0.53608526582E+03  0.53608526585E+03  0.50400000000E-02 0.  1.
          1   -1    0    0  501    0  0.00000000000E+00 -0.00000000000E+00 -0.23258137707E+04  0.23258137707E+04  0.50400000000E-02 0. -1.
    8880023    1    1    2    0    0 -0.11564179825E+02  0.18647481129E+03  0.30771537045E+03  0.75060345122E+03  0.65864270000E+03 0.  1.
    8880022    1    1    2    0    0  0.11564179825E+02 -0.18647481129E+03 -0.20974438753E+04  0.21112955853E+04  0.15294330000E+03 0.  0.
<mgrwt>
<rscale>  0 0.52759221E+03</rscale>
<asrwt>0</asrwt>
<pdfrwt beam="1">  1        1 0.35781750E+00 0.68462894E+03</pdfrwt>
<pdfrwt beam="2">  1       -1 0.82474657E-01 0.68462894E+03</pdfrwt>
<totfact> 0.28019888E+00</totfact>
</mgrwt>
</event>
<event>
 4    5  0.7214169E-008  0.6608395E+03  0.7818608E-02  0.1023312E+00
          1   -1    0    0  501    0  0.00000000000E+00  0.00000000000E+00  0.10095691953E+04  0.10095691953E+04  0.50400000000E-02 0. -1.
         -1   -1    0    0    0  501 -0.00000000000E+00 -0.00000000000E+00 -0.98425351082E+03  0.98425351084E+03  0.50400000000E-02 0.  1.
    8880023    1    1    2    0    0  0.53281108686E+02 -0.77263510046E+01 -0.86517782931E+03  0.10886879515E+04  0.65864270000E+03 0.  1.
    8880022    1    1    2    0    0 -0.53281108686E+02  0.77263510046E+01  0.89049351378E+03  0.90513475468E+03  0.15294330000E+03 0.  0.
<mgrwt>
<rscale>  0 0.46509992E+03</rscale>
<asrwt>0</asrwt>
<pdfrwt beam="1">  1        1 0.15531834E+00 0.66083945E+03</pdfrwt>
<pdfrwt beam="2">  1       -1 0.15142362E+00 0.66083945E+03</pdfrwt>
<totfact> 0.53199326E+00</totfact>
</mgrwt>
</event>
<event>
 4    5  0.7214169E-008  0.8599953E+03  0.7818608E-02  0.9593572E-01
         -1   -1    0    0    0  501 -0.00000000000E+00  0.00000000000E+00  0.43714509707E+03  0.43714509710E+03  0.50400000000E-02 0.  1.
          1   -1    0    0  501    0  0.00000000000E+00 -0.00000000000E+00 -0.14438268017E+04  0.14438268017E+04  0.50400000000E-02 0. -1.
    8880023    1    1    2    0    0 -0.54318855007E+03  0.10357557470E+03 -0.18641551373E+03  0.87996741453E+03  0.65864270000E+03 0.  0.
    8880022    1    1    2    0    0  0.54318855007E+03 -0.10357557470E+03 -0.82026619086E+03  0.10010044842E+04  0.15294330000E+03 0.  0.
<mgrwt>
<rscale>  0 0.77723105E+03</rscale>
<asrwt>0</asrwt>
<pdfrwt beam="1">  1        1 0.22212720E+00 0.85999529E+03</pdfrwt>
<pdfrwt beam="2">  1       -1 0.67253092E-01 0.85999529E+03</pdfrwt>
<totfact> 0.16362495E+01</totfact>
</mgrwt>
</event>
<event>
 4    5  0.7214169E-008  0.7673578E+03  0.7818608E-02  0.9786418E-01
          1   -1    0    0  501    0  0.00000000000E+00  0.00000000000E+00  0.11302782112E+04  0.11302782112E+04  0.50400000000E-02 0. -1.
         -1   -1    0    0    0  501 -0.00000000000E+00 -0.00000000000E+00 -0.37012666170E+03  0.37012666173E+03  0.50400000000E-02 0.  1.
    8880023    1    1    2    0    0  0.39102177026E+03  0.46149620055E+02  0.75712546801E+03  0.10779967499E+04  0.65864270000E+03 0.  0.
    8880022    1    1    2    0    0 -0.39102177026E+03 -0.46149620055E+02  0.30260815280E+01  0.42240812307E+03  0.15294330000E+03 0.  0.
<mgrwt>
<rscale>  0 0.66096539E+03</rscale>
<asrwt>0</asrwt>
<pdfrwt beam="1">  1        1 0.17388895E+00 0.76735782E+03</pdfrwt>
<pdfrwt beam="2">  1       -1 0.56942565E-01 0.76735782E+03</pdfrwt>
<totfact> 0.38501390E+01</totfact>
</mgrwt>
</event>
<event>
 4    5  0.7214169E-008  0.8365194E+03  0.7818608E-02  0.9636778E-01
          1   -1    0    0  501    0  0.00000000000E+00  0.00000000000E+00  0.60701244014E+03  0.60701244016E+03  0.50400000000E-02 0. -1.
         -1   -1    0    0    0  501 -0.00000000000E+00 -0.00000000000E+00 -0.13780685014E+04  0.13780685015E+04  0.50400000000E-02 0.  1.
    8880023    1    1    2    0    0 -0.24006761442E+03 -0.45642309910E+03 -0.10789813297E+04  0.13652711895E+04  0.65864270000E+03 0.  1.
    8880022    1    1    2    0    0  0.24006761442E+03  0.45642309910E+03  0.30792526837E+03  0.61980975210E+03  0.15294330000E+03 0.  0.
<mgrwt>
<rscale>  0 0.74909040E+03</rscale>
<asrwt>0</asrwt>
<pdfrwt beam="1">  1        1 0.93386529E-01 0.83651940E+03</pdfrwt>
<pdfrwt beam="2">  1       -1 0.21201054E+00 0.83651940E+03</pdfrwt>
<totfact> 0.43008486E+00</totfact>
</mgrwt>
</event>
<event>
 4    5  0.7214169E-008  0.8555526E+03  0.7818608E-02  0.9601524E-01
         -1   -1    0    0    0  501 -0.00000000000E+00  0.00000000000E+00  0.12496213152E+04  0.12496213152E+04  0.50400000000E-02 0.  1.
          1   -1    0    0  501    0  0.00000000000E+00 -0.00000000000E+00 -0.97841649675E+03  0.97841649676E+03  0.50400000000E-02 0. -1.
    8880023    1    1    2    0    0 -0.21300395754E+03  0.50278162948E+03  0.99261504429E+03  0.13104407218E+04  0.65864270000E+03 0.  0.
    8880022    1    1    2    0    0  0.21300395754E+03 -0.50278162948E+03 -0.72141022587E+03  0.91759709017E+03  0.15294330000E+03 0.  0.
<mgrwt>
<rscale>  0 0.77195394E+03</rscale>
<asrwt>0</asrwt>
<pdfrwt beam="1">  1        1 0.15052561E+00 0.85555260E+03</pdfrwt>
<pdfrwt beam="2">  1       -1 0.19224943E+00 0.85555260E+03</pdfrwt>
<totfact> 0.27446626E+00</totfact>
</mgrwt>
</event>
<event>
 4    5  0.7214169E-008  0.1225412E+04  0.7818608E-02  0.9132807E-01
         -1   -1    0    0    0  501 -0.00000000000E+00  0.00000000000E+00  0.14581225253E+04  0.14581225253E+04  0.50400000000E-02 0.  1.
          1   -1    0    0  501    0  0.00000000000E+00 -0.00000000000E+00 -0.16555306344E+04  0.16555306344E+04  0.50400000000E-02 0. -1.
    8880023    1    1    2    0    0  0.73046682266E+03 -0.73091943657E+03 -0.11642333123E+04  0.16902882634E+04  0.65864270000E+03 0. -1.
    8880022    1    1    2    0    0 -0.73046682266E+03  0.73091943657E+03  0.96682520314E+03  0.14233648964E+04  0.15294330000E+03 0.  0.
<mgrwt>
<rscale>  0 0.11774719E+04</rscale>
<asrwt>0</asrwt>
<pdfrwt beam="1">  1        1 0.25469702E+00 0.12254123E+04</pdfrwt>
<pdfrwt beam="2">  1       -1 0.22432654E+00 0.12254123E+04</pdfrwt>
<totfact> 0.51421161E-01</totfact>
</mgrwt>
</event>
<event>
 4    5  0.8301423E-008  0.9963717E+03  0.7818608E-02  0.9386320E-01
          1   -1    0    0  501    0  0.00000000000E+00  0.00000000000E+00  0.20177598674E+04  0.20177598675E+04  0.50400000000E-02 0. -1.
         -1   -1    0    0    0  501 -0.00000000000E+00 -0.00000000000E+00 -0.20190104764E+04  0.20190104764E+04  0.50400000000E-02 0.  1.
    8880023    1    1    2    0    0  0.61630976019E+03  0.42321237254E+03 -0.18141777812E+04  0.20697820322E+04  0.65864270000E+03 0.  0.
    8880022    1    1    2    0    0 -0.61630976019E+03 -0.42321237254E+03  0.18129271723E+04  0.19669883116E+04  0.15294330000E+03 0.  0.
<mgrwt>
<rscale>  0 0.93210095E+03</rscale>
<asrwt>0</asrwt>
<pdfrwt beam="1">  1        1 0.31042460E+00 0.99637174E+03</pdfrwt>
<pdfrwt beam="2">  1       -1 0.31061699E+00 0.99637174E+03</pdfrwt>
<totfact> 0.83710297E-02</totfact>
</mgrwt>
</event>
<event>
 4    5  0.7214169E-008  0.1038284E+04  0.7818608E-02  0.9333100E-01
         -1   -1    0    0    0  501 -0.00000000000E+00  0.00000000000E+00  0.22122862988E+04  0.22122862988E+04  0.50400000000E-02 0.  1.
          1   -1    0    0  501    0  0.00000000000E+00 -0.00000000000E+00 -0.96861433759E+03  0.96861433760E+03  0.50400000000E-02 0. -1.
    8880023    1    1    2    0    0 -0.69658603110E+03 -0.39873737188E+03  0.18783973792E+04  0.21462549967E+04  0.65864270000E+03 0.  1.
    8880022    1    1    2    0    0  0.69658603110E+03  0.39873737188E+03 -0.63472541799E+03  0.10346456397E+04  0.15294330000E+03 0.  0.
<mgrwt>
<rscale>  0 0.97791908E+03</rscale>
<asrwt>0</asrwt>
<pdfrwt beam="1">  1        1 0.14901759E+00 0.10382841E+04</pdfrwt>
<pdfrwt beam="2">  1       -1 0.34035173E+00 0.10382841E+04</pdfrwt>
<totfact> 0.29197790E-01</totfact>
</mgrwt>
</event>
<event>
 4    5  0.7539252E-008  0.1171965E+04  0.7818608E-02  0.9184868E-01
          1   -1    0    0  501    0  0.00000000000E+00  0.00000000000E+00  0.22834183033E+04  0.22834183034E+04  0.50400000000E-02 0. -1.
         -1   -1    0    0    0  501 -0.00000000000E+00 -0.00000000000E+00 -0.17156218218E+04  0.17156218218E+04  0.50400000000E-02 0.  1.
    8880023    1    1    2    0    0  0.67098141487E+03 -0.69962493623E+03 -0.13845224467E+04  0.18139470010E+04  0.65864270000E+03 0.  0.
    8880022    1    1    2    0    0 -0.67098141487E+03  0.69962493623E+03  0.19523189283E+04  0.21850931242E+04  0.15294330000E+03 0.  0.
<mgrwt>
<rscale>  0 0.11210987E+04</rscale>
<asrwt>0</asrwt>
<pdfrwt beam="1">  1        1 0.35129512E+00 0.11719647E+04</pdfrwt>
<pdfrwt beam="2">  1       -1 0.26394182E+00 0.11719647E+04</pdfrwt>
<totfact> 0.10701570E-01</totfact>
</mgrwt>
</event>
<event>
 4    5  0.7214169E-008  0.8317856E+03  0.7818608E-02  0.9645868E-01
         -1   -1    0    0    0  501 -0.00000000000E+00  0.00000000000E+00  0.18262505226E+04  0.18262505226E+04  0.50400000000E-02 0.  1.
          1   -1    0    0  501    0  0.00000000000E+00 -0.00000000000E+00 -0.12962325404E+04  0.12962325404E+04  0.50400000000E-02 0. -1.
    8880023    1    1    2    0    0  0.32256200825E+03 -0.39244204883E+03  0.16696782804E+04  0.18653934644E+04  0.65864270000E+03 0.  0.
    8880022    1    1    2    0    0 -0.32256200825E+03  0.39244204883E+03 -0.11396602982E+04  0.12570895987E+04  0.15294330000E+03 0.  0.
<mgrwt>
<rscale>  0 0.74333303E+03</rscale>
<asrwt>0</asrwt>
<pdfrwt beam="1">  1        1 0.19942039E+00 0.83178556E+03</pdfrwt>
<pdfrwt beam="2">  1       -1 0.28096162E+00 0.83178556E+03</pdfrwt>
<totfact> 0.41734593E-01</totfact>
</mgrwt>
</event>
<event>
 4    5  0.7214169E-008  0.1294515E+04  0.7818608E-02  0.9070311E-01
          1   -1    0    0  501    0  0.00000000000E+00  0.00000000000E+00  0.17764096577E+04  0.17764096577E+04  0.50400000000E-02 0. -1.
         -1   -1    0    0    0  501 -0.00000000000E+00 -0.00000000000E+00 -0.10139953757E+04  0.10139953758E+04  0.50400000000E-02 0.  1.
    8880023    1    1    2    0    0  0.11050308671E+04 -0.14444506496E+03 -0.20016153447E+03  0.13098978739E+04  0.65864270000E+03 0.  0.
    8880022    1    1    2    0    0 -0.11050308671E+04  0.14444506496E+03  0.96257581647E+03  0.14805071596E+04  0.15294330000E+03 0.  0.
<mgrwt>
<rscale>  0 0.12498460E+04</rscale>
<asrwt>0</asrwt>
<pdfrwt beam="1">  1        1 0.27329379E+00 0.12945145E+04</pdfrwt>
<pdfrwt beam="2">  1       -1 0.15599929E+00 0.12945145E+04</pdfrwt>
<totfact> 0.12863808E+00</totfact>
</mgrwt>
</event>
<event>
 4    5  0.7214169E-008  0.1076622E+04  0.7818608E-02  0.9287542E-01
         -1   -1    0    0    0  501 -0.00000000000E+00  0.00000000000E+00  0.33354722431E+03  0.33354722435E+03  0.50400000000E-02 0.  1.
          1   -1    0    0  501    0  0.00000000000E+00 -0.00000000000E+00 -0.28771638623E+04  0.28771638623E+04  0.50400000000E-02 0. -1.
    8880023    1    1    2    0    0  0.64126816672E+03 -0.56042769553E+03 -0.11957908932E+04  0.16090463418E+04  0.65864270000E+03 0.  0.
    8880022    1    1    2    0    0 -0.64126816672E+03  0.56042769553E+03 -0.13478257448E+04  0.16016647449E+04  0.15294330000E+03 0.  0.
<mgrwt>
<rscale>  0 0.10193786E+04</rscale>
<asrwt>0</asrwt>
<pdfrwt beam="1">  1        1 0.44264058E+00 0.10766217E+04</pdfrwt>
<pdfrwt beam="2">  1       -1 0.51314959E-01 0.10766217E+04</pdfrwt>
<totfact> 0.28432613E+00</totfact>
</mgrwt>
</event>
<event>
 4    5  0.7214169E-008  0.7580475E+03  0.7818608E-02  0.9810189E-01
         -1   -1    0    0    0  501 -0.00000000000E+00  0.00000000000E+00  0.15270179233E+04  0.15270179233E+04  0.50400000000E-02 0.  1.
          1   -1    0    0  501    0  0.00000000000E+00 -0.00000000000E+00 -0.70589150813E+03  0.70589150814E+03  0.50400000000E-02 0. -1.
    8880023    1    1    2    0    0  0.30809767070E+03 -0.21424666051E+03  0.13609991683E+04  0.15578686558E+04  0.65864270000E+03 0.  1.
    8880022    1    1    2    0    0 -0.30809767070E+03  0.21424666051E+03 -0.53987275314E+03  0.67504077568E+03  0.15294330000E+03 0.  0.
<mgrwt>
<rscale>  0 0.64818613E+03</rscale>
<asrwt>0</asrwt>
<pdfrwt beam="1">  1        1 0.10859869E+00 0.75804750E+03</pdfrwt>
<pdfrwt beam="2">  1       -1 0.23492583E+00 0.75804750E+03</pdfrwt>
<totfact> 0.24541925E+00</totfact>
</mgrwt>
</event>
<event>
 4    5  0.7214169E-008  0.1185016E+04  0.7818608E-02  0.9171827E-01
          1   -1    0    0  501    0  0.00000000000E+00  0.00000000000E+00  0.99022629824E+03  0.99022629825E+03  0.50400000000E-02 0. -1.
         -1   -1    0    0    0  501 -0.00000000000E+00 -0.00000000000E+00 -0.20045727665E+04  0.20045727665E+04  0.50400000000E-02 0.  1.
    8880023    1    1    2    0    0  0.60794574184E+03 -0.77514835093E+03 -0.14787793579E+04  0.18950070149E+04  0.65864270000E+03 0.  1.
    8880022    1    1    2    0    0 -0.60794574184E+03  0.77514835093E+03  0.46443288961E+03  0.10997920499E+04  0.15294330000E+03 0.  0.
<mgrwt>
<rscale>  0 0.11349011E+04</rscale>
<asrwt>0</asrwt>
<pdfrwt beam="1">  1        1 0.15234251E+00 0.11850161E+04</pdfrwt>
<pdfrwt beam="2">  1       -1 0.30839581E+00 0.11850161E+04</pdfrwt>
<totfact> 0.44319535E-01</totfact>
</mgrwt>
</event>
<event>
 4    5  0.7214169E-008  0.6808132E+03  0.7818608E-02  0.1008867E+00
          1   -1    0    0  501    0  0.00000000000E+00  0.00000000000E+00  0.21304114260E+03  0.21304114266E+03  0.50400000000E-02 0. -1.
         -1   -1    0    0    0  501 -0.00000000000E+00 -0.00000000000E+00 -0.22101720569E+04  0.22101720570E+04  0.50400000000E-02 0.  1.
    8880023    1    1    2    0    0 -0.35230948123E+02  0.16868654056E+03 -0.20719699236E+04  0.21809552813E+04  0.65864270000E+03 0.  1.
    8880022    1    1    2    0    0  0.35230948123E+02 -0.16868654056E+03  0.74839009204E+02  0.24225791831E+03  0.15294330000E+03 0.  0.
<mgrwt>
<rscale>  0 0.51927275E+03</rscale>
<asrwt>0</asrwt>
<pdfrwt beam="1">  1        1 0.32775562E-01 0.68081317E+03</pdfrwt>
<pdfrwt beam="2">  1       -1 0.34002645E+00 0.68081317E+03</pdfrwt>
<totfact> 0.26418448E+00</totfact>
</mgrwt>
</event>
<event>
 4    5  0.7214169E-008  0.8005848E+03  0.7818608E-02  0.9709533E-01
          1   -1    0    0  501    0  0.00000000000E+00  0.00000000000E+00  0.14206312465E+04  0.14206312465E+04  0.50400000000E-02 0. -1.
         -1   -1    0    0    0  501 -0.00000000000E+00 -0.00000000000E+00 -0.36730760069E+03  0.36730760073E+03  0.50400000000E-02 0.  1.
    8880023    1    1    2    0    0  0.40177119133E+03  0.21378884677E+03  0.22681081062E+03  0.83209321068E+03  0.65864270000E+03 0.  1.
    8880022    1    1    2    0    0 -0.40177119133E+03 -0.21378884677E+03  0.82651283519E+03  0.95584563656E+03  0.15294330000E+03 0.  0.
<mgrwt>
<rscale>  0 0.70452021E+03</rscale>
<asrwt>0</asrwt>
<pdfrwt beam="1">  1        1 0.21855865E+00 0.80058477E+03</pdfrwt>
<pdfrwt beam="2">  1       -1 0.56508862E-01 0.80058477E+03</pdfrwt>
<totfact> 0.24166926E+01</totfact>
</mgrwt>
</event>
<event>
 4    5  0.7214169E-008  0.8318129E+03  0.7818608E-02  0.9645815E-01
         -1   -1    0    0    0  501 -0.00000000000E+00  0.00000000000E+00  0.62697151453E+03  0.62697151455E+03  0.50400000000E-02 0.  1.
          1   -1    0    0  501    0  0.00000000000E+00 -0.00000000000E+00 -0.14735750256E+04  0.14735750256E+04  0.50400000000E-02 0. -1.
    8880023    1    1    2    0    0 -0.18119655884E+03 -0.47462642206E+03  0.26152190048E+03  0.87195547142E+03  0.65864270000E+03 0.  0.
    8880022    1    1    2    0    0  0.18119655884E+03  0.47462642206E+03 -0.11081254115E+04  0.12285910687E+04  0.15294330000E+03 0.  0.
<mgrwt>
<rscale>  0 0.74336633E+03</rscale>
<asrwt>0</asrwt>
<pdfrwt beam="1">  1        1 0.22670385E+00 0.83181286E+03</pdfrwt>
<pdfrwt beam="2">  1       -1 0.96457157E-01 0.83181286E+03</pdfrwt>
<totfact> 0.72520997E+00</totfact>
</mgrwt>
</event>
<event>
 4    5  0.7214169E-008  0.9766652E+03  0.7818608E-02  0.9412744E-01
         -1   -1    0    0    0  501 -0.00000000000E+00  0.00000000000E+00  0.53779391929E+03  0.53779391931E+03  0.50400000000E-02 0.  1.
          1   -1    0    0  501    0  0.00000000000E+00 -0.00000000000E+00 -0.18282216580E+04  0.18282216580E+04  0.50400000000E-02 0. -1.
    8880023    1    1    2    0    0 -0.70596220454E+03 -0.14724811771E+03 -0.12170862580E+03  0.98421940555E+03  0.65864270000E+03 0.  0.
    8880022    1    1    2    0    0  0.70596220454E+03  0.14724811771E+03 -0.11687191129E+04  0.13817961718E+04  0.15294330000E+03 0.  0.
<mgrwt>
<rscale>  0 0.91034257E+03</rscale>
<asrwt>0</asrwt>
<pdfrwt beam="1">  1        1 0.28126487E+00 0.97666517E+03</pdfrwt>
<pdfrwt beam="2">  1       -1 0.82737527E-01 0.97666517E+03</pdfrwt>
<totfact> 0.57262196E+00</totfact>
</mgrwt>
</event>
<event>
 4    5  0.7214169E-008  0.1180056E+04  0.7818608E-02  0.9176757E-01
         -1   -1    0    0    0  501 -0.00000000000E+00  0.00000000000E+00  0.58850045642E+03  0.58850045644E+03  0.50400000000E-02 0.  1.
          1   -1    0    0  501    0  0.00000000000E+00 -0.00000000000E+00 -0.23720212274E+04  0.23720212274E+04  0.50400000000E-02 0. -1.
    8880023    1    1    2    0    0  0.78697043019E+03  0.58257994855E+03 -0.37481798926E+03  0.12381520851E+04  0.65864270000E+03 0.  0.
    8880022    1    1    2    0    0 -0.78697043019E+03 -0.58257994855E+03 -0.14087027817E+04  0.17223695987E+04  0.15294330000E+03 0.  0.
<mgrwt>
<rscale>  0 0.11296585E+04</rscale>
<asrwt>0</asrwt>
<pdfrwt beam="1">  1        1 0.36492634E+00 0.11800560E+04</pdfrwt>
<pdfrwt beam="2">  1       -1 0.90538533E-01 0.11800560E+04</pdfrwt>
<totfact> 0.19644971E+00</totfact>
</mgrwt>
</event>
<event>
 4    5  0.7214169E-008  0.8172726E+03  0.7818608E-02  0.9674623E-01
         -1   -1    0    0    0  501 -0.00000000000E+00  0.00000000000E+00  0.23819390832E+04  0.23819390832E+04  0.50400000000E-02 0.  1.
          1   -1    0    0  501    0  0.00000000000E+00 -0.00000000000E+00 -0.90764723687E+03  0.90764723688E+03  0.50400000000E-02 0. -1.
    8880023    1    1    2    0    0 -0.25729879048E+03 -0.40978241118E+03  0.22324082504E+04  0.23773054274E+04  0.65864270000E+03 0.  0.
    8880022    1    1    2    0    0  0.25729879048E+03  0.40978241118E+03 -0.75811640409E+03  0.91228089274E+03  0.15294330000E+03 0.  0.
<mgrwt>
<rscale>  0 0.72548046E+03</rscale>
<asrwt>0</asrwt>
<pdfrwt beam="1">  1        1 0.13963804E+00 0.81727260E+03</pdfrwt>
<pdfrwt beam="2">  1       -1 0.36645216E+00 0.81727260E+03</pdfrwt>
<totfact> 0.22924314E-01</totfact>
</mgrwt>
</event>
<event>
 4    5  0.7214169E-008  0.1337991E+04  0.7818608E-02  0.9033427E-01
         -1   -1    0    0    0  501 -0.00000000000E+00  0.00000000000E+00  0.15245177059E+04  0.15245177059E+04  0.50400000000E-02 0.  1.
          1   -1    0    0  501    0  0.00000000000E+00 -0.00000000000E+00 -0.11227553744E+04  0.11227553744E+04  0.50400000000E-02 0. -1.
    8880023    1    1    2    0    0 -0.10019277843E+04 -0.59376010130E+03  0.58161053264E+03  0.14589350091E+04  0.65864270000E+03 0.  1.
    8880022    1    1    2    0    0  0.10019277843E+04  0.59376010130E+03 -0.17984820113E+03  0.11883380712E+04  0.15294330000E+03 0.  0.
<mgrwt>
<rscale>  0 0.12951410E+04</rscale>
<asrwt>0</asrwt>
<pdfrwt beam="1">  1        1 0.17273160E+00 0.13379912E+04</pdfrwt>
<pdfrwt beam="2">  1       -1 0.23454118E+00 0.13379912E+04</pdfrwt>
<totfact> 0.10369083E+00</totfact>
</mgrwt>
</event>
<event>
 4    5  0.7214169E-008  0.9683856E+03  0.7818608E-02  0.9424141E-01
          1   -1    0    0  501    0  0.00000000000E+00  0.00000000000E+00  0.24668492343E+04  0.24668492343E+04  0.50400000000E-02 0. -1.
         -1   -1    0    0    0  501 -0.00000000000E+00 -0.00000000000E+00 -0.36737119630E+03  0.36737119633E+03  0.50400000000E-02 0.  1.
    8880023    1    1    2    0    0 -0.13236212047E+03  0.69745301478E+03  0.52778855489E+03  0.11028741559E+04  0.65864270000E+03 0.  1.
    8880022    1    1    2    0    0  0.13236212047E+03 -0.69745301478E+03  0.15716894831E+04  0.17313462747E+04  0.15294330000E+03 0.  0.
<mgrwt>
<rscale>  0 0.90115360E+03</rscale>
<asrwt>0</asrwt>
<pdfrwt beam="1">  1        1 0.37951528E+00 0.96838559E+03</pdfrwt>
<pdfrwt beam="2">  1       -1 0.56518643E-01 0.96838559E+03</pdfrwt>
<totfact> 0.46276669E+00</totfact>
</mgrwt>
</event>
<event>
 4    5  0.7214169E-008  0.1062715E+04  0.7818608E-02  0.9303750E-01
          1   -1    0    0  501    0  0.00000000000E+00  0.00000000000E+00  0.11707566157E+04  0.11707566157E+04  0.50400000000E-02 0. -1.
         -1   -1    0    0    0  501 -0.00000000000E+00 -0.00000000000E+00 -0.11695132814E+04  0.11695132814E+04  0.50400000000E-02 0.  1.
    8880023    1    1    2    0    0  0.78171292804E+03  0.29065069902E+03 -0.67219915105E+03  0.12574636518E+04  0.65864270000E+03 0. -1.
    8880022    1    1    2    0    0 -0.78171292804E+03 -0.29065069902E+03  0.67344248535E+03  0.10828062453E+04  0.15294330000E+03 0.  0.
<mgrwt>
<rscale>  0 0.10043834E+04</rscale>
<asrwt>0</asrwt>
<pdfrwt beam="1">  1        1 0.18011640E+00 0.10627150E+04</pdfrwt>
<pdfrwt beam="2">  1       -1 0.17992512E+00 0.10627150E+04</pdfrwt>
<totfact> 0.23302507E+00</totfact>
</mgrwt>
</event>
<event>
 4    5  0.7214169E-008  0.7192230E+03  0.7818608E-02  0.9925224E-01
          1   -1    0    0  501    0  0.00000000000E+00  0.00000000000E+00  0.14301938588E+04  0.14301938589E+04  0.50400000000E-02 0. -1.
         -1   -1    0    0    0  501 -0.00000000000E+00 -0.00000000000E+00 -0.58360820994E+03  0.58360820996E+03  0.50400000000E-02 0.  1.
    8880023    1    1    2    0    0  0.28888245875E+03 -0.42996782845E+01 -0.33096420541E+03  0.79171906238E+03  0.65864270000E+03 0.  1.
    8880022    1    1    2    0    0 -0.28888245875E+03  0.42996782845E+01  0.11775498543E+04  0.12220830064E+04  0.15294330000E+03 0.  0.
<mgrwt>
<rscale>  0 0.59054258E+03</rscale>
<asrwt>0</asrwt>
<pdfrwt beam="1">  1        1 0.22002982E+00 0.71922303E+03</pdfrwt>
<pdfrwt beam="2">  1       -1 0.89785879E-01 0.71922303E+03</pdfrwt>
<totfact> 0.92652405E+00</totfact>
</mgrwt>
</event>
<event>
 4    5  0.7214169E-008  0.1292048E+04  0.7818608E-02  0.9072458E-01
         -1   -1    0    0    0  501 -0.00000000000E+00  0.00000000000E+00  0.10321560235E+04  0.10321560235E+04  0.50400000000E-02 0.  1.
          1   -1    0    0  501    0  0.00000000000E+00 -0.00000000000E+00 -0.22901087491E+04  0.22901087491E+04  0.50400000000E-02 0. -1.
    8880023    1    1    2    0    0 -0.62405173188E+03 -0.91985696452E+03  0.37101291526E+03  0.13442612056E+04  0.65864270000E+03 0.  0.
    8880022    1    1    2    0    0  0.62405173188E+03  0.91985696452E+03 -0.16289656408E+04  0.19780035671E+04  0.15294330000E+03 0.  0.
<mgrwt>
<rscale>  0 0.12472710E+04</rscale>
<asrwt>0</asrwt>
<pdfrwt beam="1">  1        1 0.35232442E+00 0.12920478E+04</pdfrwt>
<pdfrwt beam="2">  1       -1 0.15879323E+00 0.12920478E+04</pdfrwt>
<totfact> 0.54870094E-01</totfact>
</mgrwt>
</event>
<event>
 4    5  0.7214169E-008  0.7444228E+03  0.7818608E-02  0.9847246E-01
          1   -1    0    0  501    0  0.00000000000E+00  0.00000000000E+00  0.23429319542E+04  0.23429319542E+04  0.50400000000E-02 0. -1.
         -1   -1    0    0    0  501 -0.00000000000E+00 -0.00000000000E+00 -0.38213426450E+03  0.38213426453E+03  0.50400000000E-02 0.  1.
    8880023    1    1    2    0    0 -0.33545140884E+03 -0.88472613969E+02  0.16978002835E+02  0.74461635085E+03  0.65864270000E+03 0.  1.
    8880022    1    1    2    0    0  0.33545140884E+03  0.88472613969E+02  0.19438196868E+04  0.19804498678E+04  0.15294330000E+03 0.  0.
<mgrwt>
<rscale>  0 0.62887521E+03</rscale>
<asrwt>0</asrwt>
<pdfrwt beam="1">  1        1 0.36045107E+00 0.74442277E+03</pdfrwt>
<pdfrwt beam="2">  1       -1 0.58789887E-01 0.74442277E+03</pdfrwt>
<totfact> 0.53876893E+00</totfact>
</mgrwt>
</event>
<event>
 4    5  0.7214169E-008  0.7508004E+03  0.7818608E-02  0.9829534E-01
          1   -1    0    0  501    0  0.00000000000E+00  0.00000000000E+00  0.16661717770E+04  0.16661717770E+04  0.50400000000E-02 0. -1.
         -1   -1    0    0    0  501 -0.00000000000E+00 -0.00000000000E+00 -0.47628008836E+03  0.47628008838E+03  0.50400000000E-02 0.  1.
    8880023    1    1    2    0    0 -0.33621192762E+03  0.12981741598E+03 -0.13331043494E+03  0.76254370372E+03  0.65864270000E+03 0.  1.
    8880022    1    1    2    0    0  0.33621192762E+03 -0.12981741598E+03  0.13232021235E+04  0.13799081616E+04  0.15294330000E+03 0. -1.
<mgrwt>
<rscale>  0 0.63801370E+03</rscale>
<asrwt>0</asrwt>
<pdfrwt beam="1">  1        1 0.25633412E+00 0.75080039E+03</pdfrwt>
<pdfrwt beam="2">  1       -1 0.73273861E-01 0.75080039E+03</pdfrwt>
<totfact> 0.98198276E+00</totfact>
</mgrwt>
</event>
<event>
 4    5  0.7214169E-008  0.1159243E+04  0.7818608E-02  0.9197796E-01
         -1   -1    0    0    0  501 -0.00000000000E+00  0.00000000000E+00  0.76429757145E+03  0.76429757147E+03  0.50400000000E-02 0.  1.
          1   -1    0    0  501    0  0.00000000000E+00 -0.00000000000E+00 -0.21446991465E+04  0.21446991465E+04  0.50400000000E-02 0. -1.
    8880023    1    1    2    0    0 -0.60747904028E+03 -0.73552996078E+03  0.75490970872E+02  0.11616988424E+04  0.65864270000E+03 0.  0.
    8880022    1    1    2    0    0  0.60747904028E+03  0.73552996078E+03 -0.14558925460E+04  0.17472978756E+04  0.15294330000E+03 0.  0.
<mgrwt>
<rscale>  0 0.11076206E+04</rscale>
<asrwt>0</asrwt>
<pdfrwt beam="1">  1        1 0.32995371E+00 0.11592434E+04</pdfrwt>
<pdfrwt beam="2">  1       -1 0.11758424E+00 0.11592434E+04</pdfrwt>
<totfact> 0.15316778E+00</totfact>
</mgrwt>
</event>
<event>
 4    5  0.7214169E-008  0.9857201E+03  0.7818608E-02  0.9400483E-01
         -1   -1    0    0    0  501 -0.00000000000E+00  0.00000000000E+00  0.53230195748E+03  0.53230195751E+03  0.50400000000E-02 0.  1.
          1   -1    0    0  501    0  0.00000000000E+00 -0.00000000000E+00 -0.17945282130E+04  0.17945282130E+04  0.50400000000E-02 0. -1.
    8880023    1    1    2    0    0  0.72188216185E+03  0.12930629419E+03 -0.16679878147E+03  0.99973297089E+03  0.65864270000E+03 0.  0.
    8880022    1    1    2    0    0 -0.72188216185E+03 -0.12930629419E+03 -0.10954274740E+04  0.13270971996E+04  0.15294330000E+03 0.  0.
<mgrwt>
<rscale>  0 0.92035930E+03</rscale>
<asrwt>0</asrwt>
<pdfrwt beam="1">  1        1 0.27608126E+00 0.98572013E+03</pdfrwt>
<pdfrwt beam="2">  1       -1 0.81892610E-01 0.98572013E+03</pdfrwt>
<totfact> 0.61615214E+00</totfact>
</mgrwt>
</event>
<event>
 4    5  0.7214169E-008  0.1339867E+04  0.7818608E-02  0.9031874E-01
          1   -1    0    0  501    0  0.00000000000E+00  0.00000000000E+00  0.21910577820E+04  0.21910577820E+04  0.50400000000E-02 0. -1.
         -1   -1    0    0    0  501 -0.00000000000E+00 -0.00000000000E+00 -0.13347685905E+04  0.13347685905E+04  0.50400000000E-02 0.  1.
    8880023    1    1    2    0    0 -0.24143651485E+03  0.11415527372E+04 -0.74930730673E+03  0.15351566333E+04  0.65864270000E+03 0.  0.
    8880022    1    1    2    0    0  0.24143651485E+03 -0.11415527372E+04  0.16055964982E+04  0.19906697392E+04  0.15294330000E+03 0.  0.
<mgrwt>
<rscale>  0 0.12970919E+04</rscale>
<asrwt>0</asrwt>
<pdfrwt beam="1">  1        1 0.33708581E+00 0.13398673E+04</pdfrwt>
<pdfrwt beam="2">  1       -1 0.20534902E+00 0.13398673E+04</pdfrwt>
<totfact> 0.29451615E-01</totfact>
</mgrwt>
</event>
<event>
 4    5  0.7214169E-008  0.1230587E+04  0.7818608E-02  0.9127948E-01
          1   -1    0    0  501    0  0.00000000000E+00  0.00000000000E+00  0.27118003238E+04  0.27118003238E+04  0.50400000000E-02 0. -1.
         -1   -1    0    0    0  501 -0.00000000000E+00 -0.00000000000E+00 -0.58997520535E+03  0.58997520537E+03  0.50400000000E-02 0.  1.
    8880023    1    1    2    0    0 -0.43282593245E+03 -0.94509031970E+03  0.41724830399E+03  0.12993999976E+04  0.65864270000E+03 0. -1.
    8880022    1    1    2    0    0  0.43282593245E+03  0.94509031970E+03  0.17045768144E+04  0.20023755316E+04  0.15294330000E+03 0.  0.
<mgrwt>
<rscale>  0 0.11829100E+04</rscale>
<asrwt>0</asrwt>
<pdfrwt beam="1">  1        1 0.41720006E+00 0.12305869E+04</pdfrwt>
<pdfrwt beam="2">  1       -1 0.90765415E-01 0.12305869E+04</pdfrwt>
<totfact> 0.11291204E+00</totfact>
</mgrwt>
</event>
<event>
 4    5  0.7214169E-008  0.9924632E+03  0.7818608E-02  0.9391485E-01
          1   -1    0    0  501    0  0.00000000000E+00  0.00000000000E+00  0.77213359411E+03  0.77213359412E+03  0.50400000000E-02 0. -1.
         -1   -1    0    0    0  501 -0.00000000000E+00 -0.00000000000E+00 -0.11843599963E+04  0.11843599963E+04  0.50400000000E-02 0.  1.
    8880023    1    1    2    0    0 -0.52760033395E+03  0.52231294693E+03 -0.62041067174E+03  0.11704240833E+04  0.65864270000E+03 0.  0.
    8880022    1    1    2    0    0  0.52760033395E+03 -0.52231294693E+03  0.20818426956E+03  0.78606950712E+03  0.15294330000E+03 0.  0.
<mgrwt>
<rscale>  0 0.92779741E+03</rscale>
<asrwt>0</asrwt>
<pdfrwt beam="1">  1        1 0.11878978E+00 0.99246316E+03</pdfrwt>
<pdfrwt beam="2">  1       -1 0.18220923E+00 0.99246316E+03</pdfrwt>
<totfact> 0.47137162E+00</totfact>
</mgrwt>
</event>
<event>
 4    5  0.7214169E-008  0.9471073E+03  0.7818608E-02  0.9454288E-01
          1   -1    0    0  501    0  0.00000000000E+00  0.00000000000E+00  0.27763532138E+04  0.27763532138E+04  0.50400000000E-02 0. -1.
         -1   -1    0    0    0  501 -0.00000000000E+00 -0.00000000000E+00 -0.45469584436E+03  0.45469584439E+03  0.50400000000E-02 0.  1.
    8880023    1    1    2    0    0 -0.67842060111E+03 -0.54290455059E+02  0.16114671686E+03  0.96071870812E+03  0.65864270000E+03 0.  0.
    8880022    1    1    2    0    0  0.67842060111E+03  0.54290455059E+02  0.21605106525E+04  0.22703303500E+04  0.15294330000E+03 0.  0.
<mgrwt>
<rscale>  0 0.87739504E+03</rscale>
<asrwt>0</asrwt>
<pdfrwt beam="1">  1        1 0.42713125E+00 0.94710727E+03</pdfrwt>
<pdfrwt beam="2">  1       -1 0.69953209E-01 0.94710727E+03</pdfrwt>
<totfact> 0.18478780E+00</totfact>
</mgrwt>
</event>
<event>
 4    5  0.7214169E-008  0.1086686E+04  0.7818608E-02  0.9276026E-01
         -1   -1    0    0    0  501 -0.00000000000E+00  0.00000000000E+00  0.14496891845E+04  0.14496891845E+04  0.50400000000E-02 0.  1.
          1   -1    0    0  501    0  0.00000000000E+00 -0.00000000000E+00 -0.13285373410E+04  0.13285373410E+04  0.50400000000E-02 0. -1.
    8880023    1    1    2    0    0 -0.67862390210E+03  0.53529991187E+03  0.10423612074E+04  0.15057899884E+04  0.65864270000E+03 0.  0.
    8880022    1    1    2    0    0  0.67862390210E+03 -0.53529991187E+03 -0.92120936381E+03  0.12724365372E+04  0.15294330000E+03 0. -1.
<mgrwt>
<rscale>  0 0.10302020E+04</rscale>
<asrwt>0</asrwt>
<pdfrwt beam="1">  1        1 0.20439036E+00 0.10866861E+04</pdfrwt>
<pdfrwt beam="2">  1       -1 0.22302911E+00 0.10866861E+04</pdfrwt>
<totfact> 0.90187408E-01</totfact>
</mgrwt>
</event>
<event>
 4    5  0.7214169E-008  0.6785634E+03  0.7818608E-02  0.1010148E+00
         -1   -1    0    0    0  501 -0.00000000000E+00  0.00000000000E+00  0.45057990354E+03  0.45057990356E+03  0.50400000000E-02 0.  1.
          1   -1    0    0  501    0  0.00000000000E+00 -0.00000000000E+00 -0.12827402647E+04  0.12827402647E+04  0.50400000000E-02 0. -1.
    8880023    1    1    2    0    0 -0.35049880378E+02 -0.15940389911E+03  0.17569752935E+03  0.70094074304E+03  0.65864270000E+03 0.  1.
    8880022    1    1    2    0    0  0.35049880378E+02  0.15940389911E+03 -0.10078578905E+04  0.10323794252E+04  0.15294330000E+03 0.  0.
<mgrwt>
<rscale>  0 0.51415773E+03</rscale>
<asrwt>0</asrwt>
<pdfrwt beam="1">  1        1 0.19734465E+00 0.67856341E+03</pdfrwt>
<pdfrwt beam="2">  1       -1 0.69319986E-01 0.67856341E+03</pdfrwt>
<totfact> 0.20412779E+01</totfact>
</mgrwt>
</event>
<event>
 4    5  0.7214169E-008  0.1143876E+04  0.7818608E-02  0.9213709E-01
         -1   -1    0    0    0  501 -0.00000000000E+00  0.00000000000E+00  0.88317439443E+03  0.88317439445E+03  0.50400000000E-02 0.  1.
          1   -1    0    0  501    0  0.00000000000E+00 -0.00000000000E+00 -0.19430085979E+04  0.19430085980E+04  0.50400000000E-02 0. -1.
    8880023    1    1    2    0    0 -0.43246141133E+03  0.82922873186E+03  0.28703525759E+03  0.11793399032E+04  0.65864270000E+03 0.  0.
    8880022    1    1    2    0    0  0.43246141133E+03 -0.82922873186E+03 -0.13468694611E+04  0.16468430892E+04  0.15294330000E+03 0.  0.
<mgrwt>
<rscale>  0 0.10913046E+04</rscale>
<asrwt>0</asrwt>
<pdfrwt beam="1">  1        1 0.29892440E+00 0.11438765E+04</pdfrwt>
<pdfrwt beam="2">  1       -1 0.13587298E+00 0.11438765E+04</pdfrwt>
<totfact> 0.14615593E+00</totfact>
</mgrwt>
</event>
<event>
 4    5  0.7214169E-008  0.9093123E+03  0.7818608E-02  0.9511245E-01
          1   -1    0    0  501    0  0.00000000000E+00  0.00000000000E+00  0.73970795754E+03  0.73970795756E+03  0.50400000000E-02 0. -1.
         -1   -1    0    0    0  501 -0.00000000000E+00 -0.00000000000E+00 -0.13122753439E+04  0.13122753439E+04  0.50400000000E-02 0.  1.
    8880023    1    1    2    0    0  0.33555932028E+03  0.52956453511E+03 -0.94127956487E+03  0.13087612768E+04  0.65864270000E+03 0.  0.
    8880022    1    1    2    0    0 -0.33555932028E+03 -0.52956453511E+03  0.36871217852E+03  0.74322202462E+03  0.15294330000E+03 0.  0.
<mgrwt>
<rscale>  0 0.83459848E+03</rscale>
<asrwt>0</asrwt>
<pdfrwt beam="1">  1        1 0.11380122E+00 0.90931230E+03</pdfrwt>
<pdfrwt beam="2">  1       -1 0.20188851E+00 0.90931230E+03</pdfrwt>
<totfact> 0.37111731E+00</totfact>
</mgrwt>
</event>
<event>
 4    5  0.7214169E-008  0.9411708E+03  0.7818608E-02  0.9462933E-01
         -1   -1    0    0    0  501 -0.00000000000E+00  0.00000000000E+00  0.12974321192E+04  0.12974321192E+04  0.50400000000E-02 0.  1.
          1   -1    0    0  501    0  0.00000000000E+00 -0.00000000000E+00 -0.77072370230E+03  0.77072370231E+03  0.50400000000E-02 0. -1.
    8880023    1    1    2    0    0  0.52641450662E+03 -0.41818669828E+03  0.88432737903E+03  0.12914478181E+04  0.65864270000E+03 0.  0.
    8880022    1    1    2    0    0 -0.52641450662E+03  0.41818669828E+03 -0.35761896215E+03  0.77670800337E+03  0.15294330000E+03 0.  0.
<mgrwt>
<rscale>  0 0.87072681E+03</rscale>
<asrwt>0</asrwt>
<pdfrwt beam="1">  1        1 0.11857288E+00 0.94117084E+03</pdfrwt>
<pdfrwt beam="2">  1       -1 0.19960494E+00 0.94117084E+03</pdfrwt>
<totfact> 0.35934891E+00</totfact>
</mgrwt>
</event>
<event>
 4    5  0.7214169E-008  0.1122415E+04  0.7818608E-02  0.9236501E-01
          1   -1    0    0  501    0  0.00000000000E+00  0.00000000000E+00  0.16485228312E+04  0.16485228312E+04  0.50400000000E-02 0. -1.
         -1   -1    0    0    0  501 -0.00000000000E+00 -0.00000000000E+00 -0.13069349599E+04  0.13069349600E+04  0.50400000000E-02 0.  1.
    8880023    1    1    2    0    0 -0.89013888678E+03 -0.18345975876E+03 -0.87925516744E+03  0.14257996271E+04  0.65864270000E+03 0.  1.
    8880022    1    1    2    0    0  0.89013888678E+03  0.18345975876E+03  0.12208430387E+04  0.15296581641E+04  0.15294330000E+03 0.  0.
<mgrwt>
<rscale>  0 0.10684491E+04</rscale>
<asrwt>0</asrwt>
<pdfrwt beam="1">  1        1 0.25361889E+00 0.11224148E+04</pdfrwt>
<pdfrwt beam="2">  1       -1 0.20106692E+00 0.11224148E+04</pdfrwt>
<totfact> 0.75751798E-01</totfact>
</mgrwt>
</event>
<event>
 4    5  0.7214169E-008  0.1208869E+04  0.7818608E-02  0.9148549E-01
          1   -1    0    0  501    0  0.00000000000E+00  0.00000000000E+00  0.29902334216E+04  0.29902334216E+04  0.50400000000E-02 0. -1.
         -1   -1    0    0    0  501 -0.00000000000E+00 -0.00000000000E+00 -0.55686261846E+03  0.55686261848E+03  0.50400000000E-02 0.  1.
    8880023    1    1    2    0    0 -0.47295989632E+03 -0.89658465340E+03  0.40591779402E+03  0.12751998141E+04  0.65864270000E+03 0.  1.
    8880022    1    1    2    0    0  0.47295989632E+03  0.89658465340E+03  0.20274530091E+04  0.22718962260E+04  0.15294330000E+03 0.  0.
<mgrwt>
<rscale>  0 0.11600645E+04</rscale>
<asrwt>0</asrwt>
<pdfrwt beam="1">  1        1 0.46003591E+00 0.12088694E+04</pdfrwt>
<pdfrwt beam="2">  1       -1 0.85671172E-01 0.12088694E+04</pdfrwt>
<totfact> 0.81458573E-01</totfact>
</mgrwt>
</event>
<event>
 4    5  0.7214169E-008  0.8164101E+03  0.7818608E-02  0.9676376E-01
          1   -1    0    0  501    0  0.00000000000E+00  0.00000000000E+00  0.95939869465E+03  0.95939869467E+03  0.50400000000E-02 0. -1.
         -1   -1    0    0    0  501 -0.00000000000E+00 -0.00000000000E+00 -0.48076660249E+03  0.48076660252E+03  0.50400000000E-02 0.  1.
    8880023    1    1    2    0    0 -0.30706713285E+03 -0.37205507634E+03  0.45249156177E+03  0.93342060383E+03  0.65864270000E+03 0.  0.
    8880022    1    1    2    0    0  0.30706713285E+03  0.37205507634E+03  0.26140530384E+02  0.50674469336E+03  0.15294330000E+03 0. -1.
<mgrwt>
<rscale>  0 0.72440913E+03</rscale>
<asrwt>0</asrwt>
<pdfrwt beam="1">  1        1 0.14759980E+00 0.81641007E+03</pdfrwt>
<pdfrwt beam="2">  1       -1 0.73964092E-01 0.81641007E+03</pdfrwt>
<totfact> 0.30570456E+01</totfact>
</mgrwt>
</event>
<event>
 4    5  0.7214169E-008  0.6907366E+03  0.7818608E-02  0.1003804E+00
         -1   -1    0    0    0  501 -0.00000000000E+00  0.00000000000E+00  0.38541518882E+03  0.38541518885E+03  0.50400000000E-02 0.  1.
          1   -1    0    0  501    0  0.00000000000E+00 -0.00000000000E+00 -0.16808486607E+04  0.16808486607E+04  0.50400000000E-02 0. -1.
    8880023    1    1    2    0    0 -0.19835731530E+03 -0.62937688853E+02  0.53523486429E+02  0.69280714999E+03  0.65864270000E+03 0.  1.
    8880022    1    1    2    0    0  0.19835731530E+03  0.62937688853E+02 -0.13489569583E+04  0.13734566995E+04  0.15294330000E+03 0.  0.
<mgrwt>
<rscale>  0 0.54013060E+03</rscale>
<asrwt>0</asrwt>
<pdfrwt beam="1">  1        1 0.25859210E+00 0.69073655E+03</pdfrwt>
<pdfrwt beam="2">  1       -1 0.59294645E-01 0.69073655E+03</pdfrwt>
<totfact> 0.14842053E+01</totfact>
</mgrwt>
</event>
<event>
 4    5  0.7214169E-008  0.6646190E+03  0.7818608E-02  0.1019855E+00
         -1   -1    0    0    0  501 -0.00000000000E+00  0.00000000000E+00  0.56461933512E+03  0.56461933514E+03  0.50400000000E-02 0.  1.
          1   -1    0    0  501    0  0.00000000000E+00 -0.00000000000E+00 -0.42023055366E+03  0.42023055369E+03  0.50400000000E-02 0. -1.
    8880023    1    1    2    0    0  0.37627120622E+02  0.80575418699E+02  0.31817586773E+03  0.73685431896E+03  0.65864270000E+03 0.  1.
    8880022    1    1    2    0    0 -0.37627120622E+02 -0.80575418699E+02 -0.17378708627E+03  0.24799556987E+03  0.15294330000E+03 0.  0.
<mgrwt>
<rscale>  0 0.47738893E+03</rscale>
<asrwt>0</asrwt>
<pdfrwt beam="1">  1        1 0.64650855E-01 0.66461899E+03</pdfrwt>
<pdfrwt beam="2">  1       -1 0.86864513E-01 0.66461899E+03</pdfrwt>
<totfact> 0.75213766E+01</totfact>
</mgrwt>
</event>
<event>
 4    5  0.7214169E-008  0.1406050E+04  0.7818608E-02  0.8978996E-01
          1   -1    0    0  501    0  0.00000000000E+00  0.00000000000E+00  0.86028009293E+03  0.86028009294E+03  0.50400000000E-02 0. -1.
         -1   -1    0    0    0  501 -0.00000000000E+00 -0.00000000000E+00 -0.25798678917E+04  0.25798678917E+04  0.50400000000E-02 0.  1.
    8880023    1    1    2    0    0  0.89547767981E+03  0.86098038334E+03 -0.12297003942E+03  0.14114174905E+04  0.65864270000E+03 0.  0.
    8880022    1    1    2    0    0 -0.89547767981E+03 -0.86098038334E+03 -0.15966177594E+04  0.20287304942E+04  0.15294330000E+03 0.  0.
<mgrwt>
<rscale>  0 0.13657431E+04</rscale>
<asrwt>0</asrwt>
<pdfrwt beam="1">  1        1 0.13235078E+00 0.14060504E+04</pdfrwt>
<pdfrwt beam="2">  1       -1 0.39690275E+00 0.14060504E+04</pdfrwt>
<totfact> 0.14245601E-01</totfact>
</mgrwt>
</event>
<event>
 4    5  0.7214169E-008  0.9011458E+03  0.7818608E-02  0.9524195E-01
          1   -1    0    0  501    0  0.00000000000E+00  0.00000000000E+00  0.20665577518E+04  0.20665577518E+04  0.50400000000E-02 0. -1.
         -1   -1    0    0    0  501 -0.00000000000E+00 -0.00000000000E+00 -0.45471632826E+03  0.45471632829E+03  0.50400000000E-02 0.  1.
    8880023    1    1    2    0    0 -0.57147431501E+03 -0.22731192732E+03  0.13112930222E+03  0.91063642865E+03  0.65864270000E+03 0.  1.
    8880022    1    1    2    0    0  0.57147431501E+03  0.22731192732E+03  0.14807121213E+04  0.16106376514E+04  0.15294330000E+03 0.  0.
<mgrwt>
<rscale>  0 0.82523310E+03</rscale>
<asrwt>0</asrwt>
<pdfrwt beam="1">  1        1 0.31793196E+00 0.90114583E+03</pdfrwt>
<pdfrwt beam="2">  1       -1 0.69956358E-01 0.90114583E+03</pdfrwt>
<totfact> 0.56906276E+00</totfact>
</mgrwt>
</event>
<event>
 4    5  0.7214169E-008  0.1053740E+04  0.7818608E-02  0.9314399E-01
          1   -1    0    0  501    0  0.00000000000E+00  0.00000000000E+00  0.12266887374E+04  0.12266887374E+04  0.50400000000E-02 0. -1.
         -1   -1    0    0    0  501 -0.00000000000E+00 -0.00000000000E+00 -0.14359009754E+04  0.14359009754E+04  0.50400000000E-02 0.  1.
    8880023    1    1    2    0    0  0.42663155523E+03 -0.70323746550E+03 -0.10421385447E+04  0.14820325129E+04  0.65864270000E+03 0.  0.
    8880022    1    1    2    0    0 -0.42663155523E+03  0.70323746550E+03  0.83292630674E+03  0.11805571999E+04  0.15294330000E+03 0.  0.
<mgrwt>
<rscale>  0 0.99467992E+03</rscale>
<asrwt>0</asrwt>
<pdfrwt beam="1">  1        1 0.18872134E+00 0.10537398E+04</pdfrwt>
<pdfrwt beam="2">  1       -1 0.22090784E+00 0.10537398E+04</pdfrwt>
<totfact> 0.11075319E+00</totfact>
</mgrwt>
</event>
<event>
 4    5  0.7214169E-008  0.1149638E+04  0.7818608E-02  0.9207704E-01
         -1   -1    0    0    0  501 -0.00000000000E+00  0.00000000000E+00  0.86954746516E+03  0.86954746518E+03  0.50400000000E-02 0.  1.
          1   -1    0    0  501    0  0.00000000000E+00 -0.00000000000E+00 -0.24799245889E+04  0.24799245889E+04  0.50400000000E-02 0. -1.
    8880023    1    1    2    0    0 -0.94225710151E+03 -0.27884269698E+01  0.32224782923E+03  0.11939472729E+04  0.65864270000E+03 0.  1.
    8880022    1    1    2    0    0  0.94225710151E+03  0.27884269698E+01 -0.19326249530E+04  0.21555247813E+04  0.15294330000E+03 0.  0.
<mgrwt>
<rscale>  0 0.10974260E+04</rscale>
<asrwt>0</asrwt>
<pdfrwt beam="1">  1        1 0.38152686E+00 0.11496375E+04</pdfrwt>
<pdfrwt beam="2">  1       -1 0.13377653E+00 0.11496375E+04</pdfrwt>
<totfact> 0.65604752E-01</totfact>
</mgrwt>
</event>
<event>
 4    5  0.7214169E-008  0.9239947E+03  0.7818608E-02  0.9488561E-01
          1   -1    0    0  501    0  0.00000000000E+00  0.00000000000E+00  0.17735768195E+04  0.17735768195E+04  0.50400000000E-02 0. -1.
         -1   -1    0    0    0  501 -0.00000000000E+00 -0.00000000000E+00 -0.85978732514E+03  0.85978732516E+03  0.50400000000E-02 0.  1.
    8880023    1    1    2    0    0 -0.31497216294E+03 -0.56634666256E+03 -0.51443977536E+03  0.10575511781E+04  0.65864270000E+03 0.  0.
    8880022    1    1    2    0    0  0.31497216294E+03  0.56634666256E+03  0.14282292697E+04  0.15758129665E+04  0.15294330000E+03 0.  0.
<mgrwt>
<rscale>  0 0.85132456E+03</rscale>
<asrwt>0</asrwt>
<pdfrwt beam="1">  1        1 0.27285797E+00 0.92399470E+03</pdfrwt>
<pdfrwt beam="2">  1       -1 0.13227497E+00 0.92399470E+03</pdfrwt>
<totfact> 0.21009370E+00</totfact>
</mgrwt>
</event>
<event>
 4    5  0.7214169E-008  0.9027694E+03  0.7818608E-02  0.9521600E-01
         -1   -1    0    0    0  501 -0.00000000000E+00  0.00000000000E+00  0.15765481604E+04  0.15765481604E+04  0.50400000000E-02 0.  1.
          1   -1    0    0  501    0  0.00000000000E+00 -0.00000000000E+00 -0.10028587612E+04  0.10028587612E+04  0.50400000000E-02 0. -1.
    8880023    1    1    2    0    0  0.61526679744E+03 -0.51274548045E+02  0.13197690638E+04  0.15989943400E+04  0.65864270000E+03 0.  1.
    8880022    1    1    2    0    0 -0.61526679744E+03  0.51274548045E+02 -0.74607966458E+03  0.98041258163E+03  0.15294330000E+03 0.  0.
<mgrwt>
<rscale>  0 0.82709872E+03</rscale>
<asrwt>0</asrwt>
<pdfrwt beam="1">  1        1 0.15428596E+00 0.90276936E+03</pdfrwt>
<pdfrwt beam="2">  1       -1 0.24254587E+00 0.90276936E+03</pdfrwt>
<totfact> 0.12005518E+00</totfact>
</mgrwt>
</event>
<event>
 4    5  0.7328141E-008  0.1048987E+04  0.7818608E-02  0.9320101E-01
          1   -1    0    0  501    0  0.00000000000E+00  0.00000000000E+00  0.24807517189E+04  0.24807517190E+04  0.50400000000E-02 0. -1.
         -1   -1    0    0    0  501 -0.00000000000E+00 -0.00000000000E+00 -0.15367269812E+04  0.15367269812E+04  0.50400000000E-02 0.  1.
    8880023    1    1    2    0    0  0.77118319889E+03  0.26802851391E+03 -0.12732590682E+04  0.16497156335E+04  0.65864270000E+03 0.  1.
    8880022    1    1    2    0    0 -0.77118319889E+03 -0.26802851391E+03  0.22172838060E+04  0.23677630666E+04  0.15294330000E+03 0.  0.
<mgrwt>
<rscale>  0 0.98953242E+03</rscale>
<asrwt>0</asrwt>
<pdfrwt beam="1">  1        1 0.38165411E+00 0.10489867E+04</pdfrwt>
<pdfrwt beam="2">  1       -1 0.23641954E+00 0.10489867E+04</pdfrwt>
<totfact> 0.12110868E-01</totfact>
</mgrwt>
</event>
<event>
 4    5  0.7214169E-008  0.7470620E+03  0.7818608E-02  0.9839834E-01
         -1   -1    0    0    0  501 -0.00000000000E+00  0.00000000000E+00  0.57562117465E+03  0.57562117467E+03  0.50400000000E-02 0.  1.
          1   -1    0    0  501    0  0.00000000000E+00 -0.00000000000E+00 -0.12526032326E+04  0.12526032326E+04  0.50400000000E-02 0. -1.
    8880023    1    1    2    0    0  0.46896170447E+02 -0.34941698104E+03  0.27933795531E+03  0.79757844566E+03  0.65864270000E+03 0.  1.
    8880022    1    1    2    0    0 -0.46896170447E+02  0.34941698104E+03 -0.95632001324E+03  0.10306459616E+04  0.15294330000E+03 0.  0.
<mgrwt>
<rscale>  0 0.63267964E+03</rscale>
<asrwt>0</asrwt>
<pdfrwt beam="1">  1        1 0.19270819E+00 0.74706203E+03</pdfrwt>
<pdfrwt beam="2">  1       -1 0.88557103E-01 0.74706203E+03</pdfrwt>
<totfact> 0.12670046E+01</totfact>
</mgrwt>
</event>
<event>
 4    5  0.7214169E-008  0.8727135E+03  0.7818608E-02  0.9571337E-01
         -1   -1    0    0    0  501 -0.00000000000E+00  0.00000000000E+00  0.67413206660E+03  0.67413206661E+03  0.50400000000E-02 0.  1.
          1   -1    0    0  501    0  0.00000000000E+00 -0.00000000000E+00 -0.16746728421E+04  0.16746728421E+04  0.50400000000E-02 0. -1.
    8880023    1    1    2    0    0 -0.32509391827E+03  0.47130942470E+03  0.29737858942E+03  0.92198853638E+03  0.65864270000E+03 0.  1.
    8880022    1    1    2    0    0  0.32509391827E+03 -0.47130942470E+03 -0.12979193649E+04  0.14268163723E+04  0.15294330000E+03 0.  0.
<mgrwt>
<rscale>  0 0.79222705E+03</rscale>
<asrwt>0</asrwt>
<pdfrwt beam="1">  1        1 0.25764197E+00 0.87271349E+03</pdfrwt>
<pdfrwt beam="2">  1       -1 0.10371263E+00 0.87271349E+03</pdfrwt>
<totfact> 0.44534243E+00</totfact>
</mgrwt>
</event>
<event>
 4    5  0.7214169E-008  0.7380982E+03  0.7818608E-02  0.9865522E-01
          1   -1    0    0  501    0  0.00000000000E+00  0.00000000000E+00  0.88009534025E+03  0.88009534026E+03  0.50400000000E-02 0. -1.
         -1   -1    0    0    0  501 -0.00000000000E+00 -0.00000000000E+00 -0.59492722995E+03  0.59492722997E+03  0.50400000000E-02 0.  1.
    8880023    1    1    2    0    0  0.31532153743E+03 -0.10747586242E+03 -0.28995858050E+03  0.79301003628E+03  0.65864270000E+03 0.  1.
    8880022    1    1    2    0    0 -0.31532153743E+03  0.10747586242E+03  0.57512669080E+03  0.68201253395E+03  0.15294330000E+03 0.  0.
<mgrwt>
<rscale>  0 0.61961732E+03</rscale>
<asrwt>0</asrwt>
<pdfrwt beam="1">  1        1 0.13539928E+00 0.73809819E+03</pdfrwt>
<pdfrwt beam="2">  1       -1 0.91527267E-01 0.73809819E+03</pdfrwt>
<totfact> 0.22628768E+01</totfact>
</mgrwt>
</event>
<event>
 4    5  0.7214169E-008  0.7904752E+03  0.7818608E-02  0.9731782E-01
         -1   -1    0    0    0  501 -0.00000000000E+00  0.00000000000E+00  0.94382465156E+03  0.94382465157E+03  0.50400000000E-02 0.  1.
          1   -1    0    0  501    0  0.00000000000E+00 -0.00000000000E+00 -0.10163052574E+04  0.10163052574E+04  0.50400000000E-02 0. -1.
    8880023    1    1    2    0    0  0.43614936891E+03  0.28540164072E+02  0.70237988457E+03  0.10574443349E+04  0.65864270000E+03 0.  1.
    8880022    1    1    2    0    0 -0.43614936891E+03 -0.28540164072E+02 -0.77486049039E+03  0.90268557402E+03  0.15294330000E+03 0.  0.
<mgrwt>
<rscale>  0 0.69155623E+03</rscale>
<asrwt>0</asrwt>
<pdfrwt beam="1">  1        1 0.15635466E+00 0.79047519E+03</pdfrwt>
<pdfrwt beam="2">  1       -1 0.14520379E+00 0.79047519E+03</pdfrwt>
<totfact> 0.57590697E+00</totfact>
</mgrwt>
</event>
<event>
 4    5  0.7214169E-008  0.2204292E+04  0.7818608E-02  0.8526753E-01
          1   -1    0    0  501    0  0.00000000000E+00  0.00000000000E+00  0.22100751147E+04  0.22100751147E+04  0.50400000000E-02 0. -1.
         -1   -1    0    0    0  501 -0.00000000000E+00 -0.00000000000E+00 -0.27352288442E+04  0.27352288442E+04  0.50400000000E-02 0.  1.
    8880023    1    1    2    0    0  0.19426056830E+04 -0.80707912975E+03 -0.14540455684E+04  0.26406726950E+04  0.65864270000E+03 0.  1.
    8880022    1    1    2    0    0 -0.19426056830E+04  0.80707912975E+03  0.92889183883E+03  0.23046312639E+04  0.15294330000E+03 0.  0.
<mgrwt>
<rscale>  0 0.21801099E+04</rscale>
<asrwt>0</asrwt>
<pdfrwt beam="1">  1        1 0.34001155E+00 0.22042921E+04</pdfrwt>
<pdfrwt beam="2">  1       -1 0.42080444E+00 0.22042921E+04</pdfrwt>
<totfact> 0.95464829E-03</totfact>
</mgrwt>
</event>
<event>
 4    5  0.7214169E-008  0.6743553E+03  0.7818608E-02  0.1012716E+00
          1   -1    0    0  501    0  0.00000000000E+00  0.00000000000E+00  0.24110065001E+04  0.24110065001E+04  0.50400000000E-02 0. -1.
         -1   -1    0    0    0  501 -0.00000000000E+00 -0.00000000000E+00 -0.20000571922E+03  0.20000571929E+03  0.50400000000E-02 0.  1.
    8880023    1    1    2    0    0  0.65102760599E+02 -0.12925381079E+03  0.39230027100E+03  0.78016320468E+03  0.65864270000E+03 0.  1.
    8880022    1    1    2    0    0 -0.65102760599E+02  0.12925381079E+03  0.18187005098E+04  0.18308490147E+04  0.15294330000E+03 0.  0.
<mgrwt>
<rscale>  0 0.50409439E+03</rscale>
<asrwt>0</asrwt>
<pdfrwt beam="1">  1        1 0.37092408E+00 0.67435534E+03</pdfrwt>
<pdfrwt beam="2">  1       -1 0.30770111E-01 0.67435534E+03</pdfrwt>
<totfact> 0.16163427E+01</totfact>
</mgrwt>
</event>
<event>
 4    5  0.7214169E-008  0.7483423E+03  0.7818608E-02  0.9836281E-01
         -1   -1    0    0    0  501 -0.00000000000E+00  0.00000000000E+00  0.36274577876E+03  0.36274577879E+03  0.50400000000E-02 0.  1.
          1   -1    0    0  501    0  0.00000000000E+00 -0.00000000000E+00 -0.11322523456E+04  0.11322523456E+04  0.50400000000E-02 0. -1.
    8880023    1    1    2    0    0 -0.28777342629E+03 -0.20830841565E+03 -0.14779980974E+03  0.76279809316E+03  0.65864270000E+03 0.  1.
    8880022    1    1    2    0    0  0.28777342629E+03  0.20830841565E+03 -0.62170675712E+03  0.73220003126E+03  0.15294330000E+03 0.  0.
<mgrwt>
<rscale>  0 0.63451338E+03</rscale>
<asrwt>0</asrwt>
<pdfrwt beam="1">  1        1 0.17419267E+00 0.74834227E+03</pdfrwt>
<pdfrwt beam="2">  1       -1 0.55807044E-01 0.74834227E+03</pdfrwt>
<totfact> 0.39983436E+01</totfact>
</mgrwt>
</event>
<event>
 4    5  0.7214169E-008  0.6731380E+03  0.7818608E-02  0.1013506E+00
         -1   -1    0    0    0  501 -0.00000000000E+00  0.00000000000E+00  0.18714844036E+04  0.18714844036E+04  0.50400000000E-02 0.  1.
          1   -1    0    0  501    0  0.00000000000E+00 -0.00000000000E+00 -0.41707507854E+03  0.41707507857E+03  0.50400000000E-02 0. -1.
    8880023    1    1    2    0    0  0.62877063367E+02  0.12389956027E+03  0.17799483427E+04  0.19029794889E+04  0.65864270000E+03 0.  1.
    8880022    1    1    2    0    0 -0.62877063367E+02 -0.12389956027E+03 -0.32553901770E+03  0.38557999325E+03  0.15294330000E+03 0.  0.
<mgrwt>
<rscale>  0 0.50104514E+03</rscale>
<asrwt>0</asrwt>
<pdfrwt beam="1">  1        1 0.64165395E-01 0.67313805E+03</pdfrwt>
<pdfrwt beam="2">  1       -1 0.28792069E+00 0.67313805E+03</pdfrwt>
<totfact> 0.23848292E+00</totfact>
</mgrwt>
</event>
<event>
 4    5  0.7214169E-008  0.9011382E+03  0.7818608E-02  0.9524207E-01
          1   -1    0    0  501    0  0.00000000000E+00  0.00000000000E+00  0.14808592389E+04  0.14808592389E+04  0.50400000000E-02 0. -1.
         -1   -1    0    0    0  501 -0.00000000000E+00 -0.00000000000E+00 -0.98073158393E+03  0.98073158394E+03  0.50400000000E-02 0.  1.
    8880023    1    1    2    0    0  0.37364396061E+03 -0.48849765723E+03 -0.67537569909E+03  0.11261360094E+04  0.65864270000E+03 0.  1.
    8880022    1    1    2    0    0 -0.37364396061E+03  0.48849765723E+03  0.11755033541E+04  0.13354548135E+04  0.15294330000E+03 0.  0.
<mgrwt>
<rscale>  0 0.82522428E+03</rscale>
<asrwt>0</asrwt>
<pdfrwt beam="1">  1        1 0.22782450E+00 0.90113816E+03</pdfrwt>
<pdfrwt beam="2">  1       -1 0.15088178E+00 0.90113816E+03</pdfrwt>
<totfact> 0.23620395E+00</totfact>
</mgrwt>
</event>
<event>
 4    5  0.7214169E-008  0.7373470E+03  0.7818608E-02  0.9867744E-01
         -1   -1    0    0    0  501 -0.00000000000E+00  0.00000000000E+00  0.54077054065E+03  0.54077054067E+03  0.50400000000E-02 0.  1.
          1   -1    0    0  501    0  0.00000000000E+00 -0.00000000000E+00 -0.13292210308E+04  0.13292210308E+04  0.50400000000E-02 0. -1.
    8880023    1    1    2    0    0  0.29309360811E+03 -0.15481113668E+03  0.24259417671E+03  0.77622966446E+03  0.65864270000E+03 0.  1.
    8880022    1    1    2    0    0 -0.29309360811E+03  0.15481113668E+03 -0.10310446669E+04  0.10937619070E+04  0.15294330000E+03 0.  0.
<mgrwt>
<rscale>  0 0.61850358E+03</rscale>
<asrwt>0</asrwt>
<pdfrwt beam="1">  1        1 0.20449554E+00 0.73734697E+03</pdfrwt>
<pdfrwt beam="2">  1       -1 0.83195468E-01 0.73734697E+03</pdfrwt>
<totfact> 0.12819702E+01</totfact>
</mgrwt>
</event>
<event>
 4    5  0.7214169E-008  0.1761179E+04  0.7818608E-02  0.8744320E-01
         -1   -1    0    0    0  501 -0.00000000000E+00  0.00000000000E+00  0.27001748007E+04  0.27001748007E+04  0.50400000000E-02 0.  1.
          1   -1    0    0  501    0  0.00000000000E+00 -0.00000000000E+00 -0.13826084156E+04  0.13826084156E+04  0.50400000000E-02 0. -1.
    8880023    1    1    2    0    0 -0.64698696027E+03  0.14997825056E+04  0.16449609455E+04  0.24099058922E+04  0.65864270000E+03 0.  1.
    8880022    1    1    2    0    0  0.64698696027E+03 -0.14997825056E+04 -0.32739456034E+03  0.16728773242E+04  0.15294330000E+03 0.  0.
<mgrwt>
<rscale>  0 0.17302085E+04</rscale>
<asrwt>0</asrwt>
<pdfrwt beam="1">  1        1 0.21270899E+00 0.17611786E+04</pdfrwt>
<pdfrwt beam="2">  1       -1 0.41541151E+00 0.17611786E+04</pdfrwt>
<totfact> 0.40687482E-02</totfact>
</mgrwt>
</event>
<event>
 4    5  0.7214169E-008  0.1051736E+04  0.7818608E-02  0.9316797E-01
         -1   -1    0    0    0  501 -0.00000000000E+00  0.00000000000E+00  0.10360834965E+04  0.10360834965E+04  0.50400000000E-02 0.  1.
          1   -1    0    0  501    0  0.00000000000E+00 -0.00000000000E+00 -0.11916724277E+04  0.11916724277E+04  0.50400000000E-02 0. -1.
    8880023    1    1    2    0    0  0.30300454576E+02 -0.81940275772E+03  0.50220166763E+03  0.11654851857E+04  0.65864270000E+03 0.  0.
    8880022    1    1    2    0    0 -0.30300454576E+02  0.81940275772E+03 -0.65779059886E+03  0.10622707385E+04  0.15294330000E+03 0.  0.
<mgrwt>
<rscale>  0 0.99251090E+03</rscale>
<asrwt>0</asrwt>
<pdfrwt beam="1">  1        1 0.18333422E+00 0.10517363E+04</pdfrwt>
<pdfrwt beam="2">  1       -1 0.15939746E+00 0.10517363E+04</pdfrwt>
<totfact> 0.31914410E+00</totfact>
</mgrwt>
</event>
<event>
 4    5  0.7214169E-008  0.9318262E+03  0.7818608E-02  0.9476759E-01
         -1   -1    0    0    0  501 -0.00000000000E+00  0.00000000000E+00  0.81661068558E+03  0.81661068559E+03  0.50400000000E-02 0.  1.
          1   -1    0    0  501    0  0.00000000000E+00 -0.00000000000E+00 -0.12182860697E+04  0.12182860697E+04  0.50400000000E-02 0. -1.
    8880023    1    1    2    0    0  0.60997971184E+03  0.24982916809E+03  0.37530514745E+03  0.10045665842E+04  0.65864270000E+03 0.  1.
    8880022    1    1    2    0    0 -0.60997971184E+03 -0.24982916809E+03 -0.77698053161E+03  0.10303301712E+04  0.15294330000E+03 0.  0.
<mgrwt>
<rscale>  0 0.86019186E+03</rscale>
<asrwt>0</asrwt>
<pdfrwt beam="1">  1        1 0.18742863E+00 0.93182620E+03</pdfrwt>
<pdfrwt beam="2">  1       -1 0.12563241E+00 0.93182620E+03</pdfrwt>
<totfact> 0.57928860E+00</totfact>
</mgrwt>
</event>
<event>
 4    5  0.7214169E-008  0.1118625E+04  0.7818608E-02  0.9240598E-01
         -1   -1    0    0    0  501 -0.00000000000E+00  0.00000000000E+00  0.62010127143E+03  0.62010127145E+03  0.50400000000E-02 0.  1.
          1   -1    0    0  501    0  0.00000000000E+00 -0.00000000000E+00 -0.27067895134E+04  0.27067895134E+04  0.50400000000E-02 0. -1.
    8880023    1    1    2    0    0 -0.84180462415E+03 -0.32996314525E+03 -0.81047245151E+02  0.11215567595E+04  0.65864270000E+03 0.  1.
    8880022    1    1    2    0    0  0.84180462415E+03  0.32996314525E+03 -0.20056409968E+04  0.22053340254E+04  0.15294330000E+03 0.  0.
<mgrwt>
<rscale>  0 0.10644039E+04</rscale>
<asrwt>0</asrwt>
<pdfrwt beam="1">  1        1 0.41642915E+00 0.11186246E+04</pdfrwt>
<pdfrwt beam="2">  1       -1 0.95400197E-01 0.11186246E+04</pdfrwt>
<totfact> 0.10336494E+00</totfact>
</mgrwt>
</event>
<event>
 4    5  0.7214169E-008  0.7213945E+03  0.7818608E-02  0.9917896E-01
         -1   -1    0    0    0  501 -0.00000000000E+00  0.00000000000E+00  0.32082186324E+03  0.32082186328E+03  0.50400000000E-02 0.  1.
          1   -1    0    0  501    0  0.00000000000E+00 -0.00000000000E+00 -0.24173437832E+04  0.24173437832E+04  0.50400000000E-02 0. -1.
    8880023    1    1    2    0    0  0.16783042297E+03  0.24172859269E+03 -0.11671812323E+03  0.73077567690E+03  0.65864270000E+03 0.  1.
    8880022    1    1    2    0    0 -0.16783042297E+03 -0.24172859269E+03 -0.19798037967E+04  0.20073899696E+04  0.15294330000E+03 0.  0.
<mgrwt>
<rscale>  0 0.59401779E+03</rscale>
<asrwt>0</asrwt>
<pdfrwt beam="1">  1        1 0.37189903E+00 0.72139446E+03</pdfrwt>
<pdfrwt beam="2">  1       -1 0.49357211E-01 0.72139446E+03</pdfrwt>
<totfact> 0.67431606E+00</totfact>
</mgrwt>
</event>
<event>
 4    5  0.7214169E-008  0.1078094E+04  0.7818608E-02  0.9285846E-01
         -1   -1    0    0    0  501 -0.00000000000E+00  0.00000000000E+00  0.46263337034E+03  0.46263337037E+03  0.50400000000E-02 0.  1.
          1   -1    0    0  501    0  0.00000000000E+00 -0.00000000000E+00 -0.37237348477E+04  0.37237348477E+04  0.50400000000E-02 0. -1.
    8880023    1    1    2    0    0  0.36808118063E+03 -0.77006080600E+03 -0.32666021996E+03  0.11264965628E+04  0.65864270000E+03 0.  1.
    8880022    1    1    2    0    0 -0.36808118063E+03  0.77006080600E+03 -0.29344412574E+04  0.30598716552E+04  0.15294330000E+03 0.  0.
<mgrwt>
<rscale>  0 0.10209639E+04</rscale>
<asrwt>0</asrwt>
<pdfrwt beam="1">  1        1 0.57288226E+00 0.10780944E+04</pdfrwt>
<pdfrwt beam="2">  1       -1 0.71174367E-01 0.10780944E+04</pdfrwt>
<totfact> 0.33920483E-01</totfact>
</mgrwt>
</event>
<event>
 4    5  0.7545639E-008  0.1218410E+04  0.7818608E-02  0.9139431E-01
          1   -1    0    0  501    0  0.00000000000E+00  0.00000000000E+00  0.34087768545E+04  0.34087768545E+04  0.50400000000E-02 0. -1.
         -1   -1    0    0    0  501 -0.00000000000E+00 -0.00000000000E+00 -0.13154327390E+04  0.13154327390E+04  0.50400000000E-02 0.  1.
    8880023    1    1    2    0    0 -0.92451019007E+03  0.44271154564E+03 -0.92702345794E+03  0.15309785439E+04  0.65864270000E+03 0.  1.
    8880022    1    1    2    0    0  0.92451019007E+03 -0.44271154564E+03  0.30203675735E+04  0.31932310496E+04  0.15294330000E+03 0.  0.
<mgrwt>
<rscale>  0 0.11701078E+04</rscale>
<asrwt>0</asrwt>
<pdfrwt beam="1">  1        1 0.52442721E+00 0.12184100E+04</pdfrwt>
<pdfrwt beam="2">  1       -1 0.20237427E+00 0.12184100E+04</pdfrwt>
<totfact> 0.42463488E-02</totfact>
</mgrwt>
</event>
<event>
 4    5  0.7214169E-008  0.6753947E+03  0.7818608E-02  0.1012059E+00
          1   -1    0    0  501    0  0.00000000000E+00  0.00000000000E+00  0.88202872558E+03  0.88202872559E+03  0.50400000000E-02 0. -1.
         -1   -1    0    0    0  501 -0.00000000000E+00 -0.00000000000E+00 -0.25711494096E+03  0.25711494101E+03  0.50400000000E-02 0.  1.
    8880023    1    1    2    0    0  0.74206960656E+02  0.12977326984E+03  0.27539363616E+03  0.72938305140E+03  0.65864270000E+03 0.  1.
    8880022    1    1    2    0    0 -0.74206960656E+02 -0.12977326984E+03  0.34952014846E+03  0.40976061520E+03  0.15294330000E+03 0.  0.
<mgrwt>
<rscale>  0 0.50664594E+03</rscale>
<asrwt>0</asrwt>
<pdfrwt beam="1">  1        1 0.13569673E+00 0.67539469E+03</pdfrwt>
<pdfrwt beam="2">  1       -1 0.39556145E-01 0.67539469E+03</pdfrwt>
<totfact> 0.11977845E+02</totfact>
</mgrwt>
</event>
<event>
 4    5  0.7214169E-008  0.6702531E+03  0.7818608E-02  0.1015482E+00
          1   -1    0    0  501    0  0.00000000000E+00  0.00000000000E+00  0.36572542941E+03  0.36572542945E+03  0.50400000000E-02 0. -1.
         -1   -1    0    0    0  501 -0.00000000000E+00 -0.00000000000E+00 -0.10483631645E+04  0.10483631645E+04  0.50400000000E-02 0.  1.
    8880023    1    1    2    0    0  0.11388603223E+03 -0.49588401809E+02 -0.89906517826E+03  0.11214086851E+04  0.65864270000E+03 0.  1.
    8880022    1    1    2    0    0 -0.11388603223E+03  0.49588401809E+02  0.21642744314E+03  0.29267990893E+03  0.15294330000E+03 0.  0.
<mgrwt>
<rscale>  0 0.49352828E+03</rscale>
<asrwt>0</asrwt>
<pdfrwt beam="1">  1        1 0.56265451E-01 0.67025312E+03</pdfrwt>
<pdfrwt beam="2">  1       -1 0.16128664E+00 0.67025312E+03</pdfrwt>
<totfact> 0.19985099E+01</totfact>
</mgrwt>
</event>
<event>
 4    5  0.7214169E-008  0.1155442E+04  0.7818608E-02  0.9201702E-01
         -1   -1    0    0    0  501 -0.00000000000E+00  0.00000000000E+00  0.53805922558E+03  0.53805922560E+03  0.50400000000E-02 0.  1.
          1   -1    0    0  501    0  0.00000000000E+00 -0.00000000000E+00 -0.23149309857E+04  0.23149309857E+04  0.50400000000E-02 0. -1.
    8880023    1    1    2    0    0 -0.58853642451E+03 -0.74488993267E+03 -0.14120446660E+04  0.18245318522E+04  0.65864270000E+03 0.  0.
    8880022    1    1    2    0    0  0.58853642451E+03  0.74488993267E+03 -0.36482709413E+03  0.10284583591E+04  0.15294330000E+03 0.  0.
<mgrwt>
<rscale>  0 0.11035881E+04</rscale>
<asrwt>0</asrwt>
<pdfrwt beam="1">  1        1 0.35614322E+00 0.11554421E+04</pdfrwt>
<pdfrwt beam="2">  1       -1 0.82778343E-01 0.11554421E+04</pdfrwt>
<totfact> 0.26231369E+00</totfact>
</mgrwt>
</event>
<event>
 4    5  0.7214169E-008  0.7495561E+03  0.7818608E-02  0.9832937E-01
         -1   -1    0    0    0  501 -0.00000000000E+00  0.00000000000E+00  0.10818422374E+04  0.10818422374E+04  0.50400000000E-02 0.  1.
          1   -1    0    0  501    0  0.00000000000E+00 -0.00000000000E+00 -0.62886216298E+03  0.62886216300E+03  0.50400000000E-02 0. -1.
    8880023    1    1    2    0    0  0.10516201660E+03  0.34200154666E+03  0.86459669708E+03  0.11442734649E+04  0.65864270000E+03 0.  1.
    8880022    1    1    2    0    0 -0.10516201660E+03 -0.34200154666E+03 -0.41161662263E+03  0.56643093551E+03  0.15294330000E+03 0.  0.
<mgrwt>
<rscale>  0 0.63624515E+03</rscale>
<asrwt>0</asrwt>
<pdfrwt beam="1">  1        1 0.96748025E-01 0.74955608E+03</pdfrwt>
<pdfrwt beam="2">  1       -1 0.16643727E+00 0.74955608E+03</pdfrwt>
<totfact> 0.86265337E+00</totfact>
</mgrwt>
</event>
<event>
 4    5  0.7214169E-008  0.6866088E+03  0.7818608E-02  0.1005808E+00
         -1   -1    0    0    0  501 -0.00000000000E+00  0.00000000000E+00  0.28265973423E+03  0.28265973428E+03  0.50400000000E-02 0.  1.
          1   -1    0    0  501    0  0.00000000000E+00 -0.00000000000E+00 -0.11951109908E+04  0.11951109908E+04  0.50400000000E-02 0. -1.
    8880023    1    1    2    0    0 -0.32516434676E+02 -0.19121736856E+03 -0.18728925070E+03  0.71169436576E+03  0.65864270000E+03 0.  0.
    8880022    1    1    2    0    0  0.32516434676E+02  0.19121736856E+03 -0.72516200588E+03  0.76607635934E+03  0.15294330000E+03 0.  0.
<mgrwt>
<rscale>  0 0.53175289E+03</rscale>
<asrwt>0</asrwt>
<pdfrwt beam="1">  1        1 0.18386323E+00 0.68660877E+03</pdfrwt>
<pdfrwt beam="2">  1       -1 0.43486114E-01 0.68660877E+03</pdfrwt>
<totfact> 0.57996549E+01</totfact>
</mgrwt>
</event>
<event>
 4    5  0.7214169E-008  0.8123828E+03  0.7818608E-02  0.9684635E-01
         -1   -1    0    0    0  501 -0.00000000000E+00  0.00000000000E+00  0.56443126196E+03  0.56443126198E+03  0.50400000000E-02 0.  1.
          1   -1    0    0  501    0  0.00000000000E+00 -0.00000000000E+00 -0.12767545293E+04  0.12767545293E+04  0.50400000000E-02 0. -1.
    8880023    1    1    2    0    0 -0.37652987925E+03 -0.29048377147E+03  0.16746806053E+03  0.82946448328E+03  0.65864270000E+03 0.  1.
    8880022    1    1    2    0    0  0.37652987925E+03  0.29048377147E+03 -0.87979132783E+03  0.10117213080E+04  0.15294330000E+03 0.  0.
<mgrwt>
<rscale>  0 0.71939038E+03</rscale>
<asrwt>0</asrwt>
<pdfrwt beam="1">  1        1 0.19642377E+00 0.81238278E+03</pdfrwt>
<pdfrwt beam="2">  1       -1 0.86835579E-01 0.81238278E+03</pdfrwt>
<totfact> 0.12600890E+01</totfact>
</mgrwt>
</event>
<event>
 4    5  0.1310365E-007  0.9057999E+03  0.7818608E-02  0.9516784E-01
         -1   -1    0    0    0  501 -0.00000000000E+00  0.00000000000E+00  0.12104931380E+04  0.12104931380E+04  0.50400000000E-02 0.  1.
          1   -1    0    0  501    0  0.00000000000E+00 -0.00000000000E+00 -0.22857829228E+04  0.22857829228E+04  0.50400000000E-02 0. -1.
    8880023    1    1    2    0    0 -0.46453214711E+03  0.41336807958E+03  0.98535263702E+03  0.13384294193E+04  0.65864270000E+03 0.  0.
    8880022    1    1    2    0    0  0.46453214711E+03 -0.41336807958E+03 -0.20606424218E+04  0.21578466415E+04  0.15294330000E+03 0.  0.
<mgrwt>
<rscale>  0 0.83057616E+03</rscale>
<asrwt>0</asrwt>
<pdfrwt beam="1">  1        1 0.35165891E+00 0.90579992E+03</pdfrwt>
<pdfrwt beam="2">  1       -1 0.18622971E+00 0.90579992E+03</pdfrwt>
<totfact> 0.36982859E-01</totfact>
</mgrwt>
</event>
<event>
 4    5  0.7214169E-008  0.6958616E+03  0.7818608E-02  0.1001482E+00
         -1   -1    0    0    0  501 -0.00000000000E+00  0.00000000000E+00  0.17469858754E+03  0.17469858761E+03  0.50400000000E-02 0.  1.
          1   -1    0    0  501    0  0.00000000000E+00 -0.00000000000E+00 -0.17175473227E+04  0.17175473227E+04  0.50400000000E-02 0. -1.
    8880023    1    1    2    0    0  0.16798635343E+03  0.14897564000E+03 -0.62602453449E+03  0.93601820511E+03  0.65864270000E+03 0.  1.
    8880022    1    1    2    0    0 -0.16798635343E+03 -0.14897564000E+03 -0.91682420069E+03  0.95622770523E+03  0.15294330000E+03 0.  1.
<mgrwt>
<rscale>  0 0.55005072E+03</rscale>
<asrwt>0</asrwt>
<pdfrwt beam="1">  1        1 0.26423804E+00 0.69586160E+03</pdfrwt>
<pdfrwt beam="2">  1       -1 0.26876707E-01 0.69586160E+03</pdfrwt>
<totfact> 0.59322137E+01</totfact>
</mgrwt>
</event>
<event>
 4    5  0.8988172E-008  0.1069891E+04  0.7818608E-02  0.9295344E-01
         -1   -1    0    0    0  501 -0.00000000000E+00  0.00000000000E+00  0.10471054068E+04  0.10471054068E+04  0.50400000000E-02 0.  1.
          1   -1    0    0  501    0  0.00000000000E+00 -0.00000000000E+00 -0.27444575282E+04  0.27444575282E+04  0.50400000000E-02 0. -1.
    8880023    1    1    2    0    0  0.73151591015E+02  0.83994317359E+03  0.67783156651E+03  0.12665391936E+04  0.65864270000E+03 0.  1.
    8880022    1    1    2    0    0 -0.73151591015E+02 -0.83994317359E+03 -0.23751836880E+04  0.25250237414E+04  0.15294330000E+03 0.  0.
<mgrwt>
<rscale>  0 0.10121266E+04</rscale>
<asrwt>0</asrwt>
<pdfrwt beam="1">  1        1 0.42222423E+00 0.10698906E+04</pdfrwt>
<pdfrwt beam="2">  1       -1 0.16109314E+00 0.10698906E+04</pdfrwt>
<totfact> 0.26438699E-01</totfact>
</mgrwt>
</event>
<event>
 4    5  0.7214169E-008  0.1039938E+04  0.7818608E-02  0.9331076E-01
          1   -1    0    0  501    0  0.00000000000E+00  0.00000000000E+00  0.24376172410E+04  0.24376172410E+04  0.50400000000E-02 0. -1.
         -1   -1    0    0    0  501 -0.00000000000E+00 -0.00000000000E+00 -0.95005596720E+03  0.95005596721E+03  0.50400000000E-02 0.  1.
    8880023    1    1    2    0    0  0.70016182519E+03  0.39677977081E+03 -0.56085112704E+03  0.11815350020E+04  0.65864270000E+03 0.  1.
    8880022    1    1    2    0    0 -0.70016182519E+03 -0.39677977081E+03  0.20484124008E+04  0.22061382062E+04  0.15294330000E+03 0.  0.
<mgrwt>
<rscale>  0 0.97971584E+03</rscale>
<asrwt>0</asrwt>
<pdfrwt beam="1">  1        1 0.37501803E+00 0.10399380E+04</pdfrwt>
<pdfrwt beam="2">  1       -1 0.14616246E+00 0.10399380E+04</pdfrwt>
<totfact> 0.56567530E-01</totfact>
</mgrwt>
</event>
<event>
 4    5  0.7214169E-008  0.9372244E+03  0.7818608E-02  0.9468739E-01
          1   -1    0    0  501    0  0.00000000000E+00  0.00000000000E+00  0.32091213334E+04  0.32091213334E+04  0.50400000000E-02 0. -1.
         -1   -1    0    0    0  501 -0.00000000000E+00 -0.00000000000E+00 -0.29635764763E+03  0.29635764767E+03  0.50400000000E-02 0.  1.
    8880023    1    1    2    0    0 -0.66465328659E+03  0.53060482866E+02  0.64741456926E+03  0.11390940422E+04  0.65864270000E+03 0.  0.
    8880022    1    1    2    0    0  0.66465328659E+03 -0.53060482866E+02  0.22653491166E+04  0.23663849389E+04  0.15294330000E+03 0.  0.
<mgrwt>
<rscale>  0 0.86628356E+03</rscale>
<asrwt>0</asrwt>
<pdfrwt beam="1">  1        1 0.49371098E+00 0.93722442E+03</pdfrwt>
<pdfrwt beam="2">  1       -1 0.45593484E-01 0.93722442E+03</pdfrwt>
<totfact> 0.20842666E+00</totfact>
</mgrwt>
</event>
<event>
 4    5  0.7214169E-008  0.9966310E+03  0.7818608E-02  0.9385979E-01
         -1   -1    0    0    0  501 -0.00000000000E+00  0.00000000000E+00  0.43888395786E+03  0.43888395789E+03  0.50400000000E-02 0.  1.
          1   -1    0    0  501    0  0.00000000000E+00 -0.00000000000E+00 -0.22268007220E+04  0.22268007220E+04  0.50400000000E-02 0. -1.
    8880023    1    1    2    0    0 -0.18570457122E+03 -0.72455296865E+03 -0.38484387039E+03  0.10683530329E+04  0.65864270000E+03 0.  0.
    8880022    1    1    2    0    0  0.18570457122E+03  0.72455296865E+03 -0.14030728937E+04  0.15973316469E+04  0.15294330000E+03 0.  0.
<mgrwt>
<rscale>  0 0.93238623E+03</rscale>
<asrwt>0</asrwt>
<pdfrwt beam="1">  1        1 0.34258472E+00 0.99663102E+03</pdfrwt>
<pdfrwt beam="2">  1       -1 0.67520610E-01 0.99663102E+03</pdfrwt>
<totfact> 0.47094034E+00</totfact>
</mgrwt>
</event>
<event>
 4    5  0.7214169E-008  0.8092405E+03  0.7818608E-02  0.9691161E-01
         -1   -1    0    0    0  501 -0.00000000000E+00  0.00000000000E+00  0.85671044850E+03  0.85671044852E+03  0.50400000000E-02 0.  1.
          1   -1    0    0  501    0  0.00000000000E+00 -0.00000000000E+00 -0.11577468369E+04  0.11577468369E+04  0.50400000000E-02 0. -1.
    8880023    1    1    2    0    0 -0.42966114113E+03  0.19092223395E+03  0.58586466950E+03  0.99905335835E+03  0.65864270000E+03 0.  0.
    8880022    1    1    2    0    0  0.42966114113E+03 -0.19092223395E+03 -0.88690105793E+03  0.10154039271E+04  0.15294330000E+03 0.  0.
<mgrwt>
<rscale>  0 0.71545502E+03</rscale>
<asrwt>0</asrwt>
<pdfrwt beam="1">  1        1 0.17811490E+00 0.80924051E+03</pdfrwt>
<pdfrwt beam="2">  1       -1 0.13180161E+00 0.80924051E+03</pdfrwt>
<totfact> 0.57786804E+00</totfact>
</mgrwt>
</event>
<event>
 4    5  0.7214169E-008  0.7594689E+03  0.7818608E-02  0.9806484E-01
         -1   -1    0    0    0  501 -0.00000000000E+00  0.00000000000E+00  0.38039868779E+03  0.38039868783E+03  0.50400000000E-02 0.  1.
          1   -1    0    0  501    0  0.00000000000E+00 -0.00000000000E+00 -0.15390827057E+04  0.15390827057E+04  0.50400000000E-02 0. -1.
    8880023    1    1    2    0    0 -0.36212603527E+03  0.10884669143E+03 -0.76898252093E+02  0.76335209117E+03  0.65864270000E+03 0.  0.
    8880022    1    1    2    0    0  0.36212603527E+03 -0.10884669143E+03 -0.10817857658E+04  0.11561293024E+04  0.15294330000E+03 0.  0.
<mgrwt>
<rscale>  0 0.65015718E+03</rscale>
<asrwt>0</asrwt>
<pdfrwt beam="1">  1        1 0.23678195E+00 0.75946894E+03</pdfrwt>
<pdfrwt beam="2">  1       -1 0.58522876E-01 0.75946894E+03</pdfrwt>
<totfact> 0.18806973E+01</totfact>
</mgrwt>
</event>
<event>
 4    5  0.7214169E-008  0.7863208E+03  0.7818608E-02  0.9741194E-01
          1   -1    0    0  501    0  0.00000000000E+00  0.00000000000E+00  0.12871383715E+04  0.12871383715E+04  0.50400000000E-02 0. -1.
         -1   -1    0    0    0  501 -0.00000000000E+00 -0.00000000000E+00 -0.77836227321E+03  0.77836227322E+03  0.50400000000E-02 0.  1.
    8880023    1    1    2    0    0 -0.32673905978E+03 -0.27880408103E+03 -0.51829942521E+03  0.94177206861E+03  0.65864270000E+03 0.  1.
    8880022    1    1    2    0    0  0.32673905978E+03  0.27880408103E+03  0.10270755235E+04  0.11237285761E+04  0.15294330000E+03 0.  0.
<mgrwt>
<rscale>  0 0.68616231E+03</rscale>
<asrwt>0</asrwt>
<pdfrwt beam="1">  1        1 0.19802129E+00 0.78632076E+03</pdfrwt>
<pdfrwt beam="2">  1       -1 0.11974804E+00 0.78632076E+03</pdfrwt>
<totfact> 0.59364865E+00</totfact>
</mgrwt>
</event>
<event>
 4    5  0.7214169E-008  0.1344514E+04  0.7818608E-02  0.9028042E-01
          1   -1    0    0  501    0  0.00000000000E+00  0.00000000000E+00  0.31624654905E+04  0.31624654905E+04  0.50400000000E-02 0. -1.
         -1   -1    0    0    0  501 -0.00000000000E+00 -0.00000000000E+00 -0.11053815340E+04  0.11053815341E+04  0.50400000000E-02 0.  1.
    8880023    1    1    2    0    0  0.44731566709E+03 -0.10834280466E+04 -0.51291876806E+03  0.14390286679E+04  0.65864270000E+03 0.  1.
    8880022    1    1    2    0    0 -0.44731566709E+03  0.10834280466E+04  0.25700027245E+04  0.28288183567E+04  0.15294330000E+03 0.  0.
<mgrwt>
<rscale>  0 0.13019226E+04</rscale>
<asrwt>0</asrwt>
<pdfrwt beam="1">  1        1 0.48653315E+00 0.13445140E+04</pdfrwt>
<pdfrwt beam="2">  1       -1 0.17005870E+00 0.13445140E+04</pdfrwt>
<totfact> 0.10835717E-01</totfact>
</mgrwt>
</event>
<event>
 4    5  0.7214169E-008  0.9865099E+03  0.7818608E-02  0.9399423E-01
          1   -1    0    0  501    0  0.00000000000E+00  0.00000000000E+00  0.74855520530E+03  0.74855520532E+03  0.50400000000E-02 0. -1.
         -1   -1    0    0    0  501 -0.00000000000E+00 -0.00000000000E+00 -0.14410418584E+04  0.14410418585E+04  0.50400000000E-02 0.  1.
    8880023    1    1    2    0    0  0.67738766965E+03  0.28379147393E+03 -0.97590400857E+03  0.13876564762E+04  0.65864270000E+03 0.  1.
    8880022    1    1    2    0    0 -0.67738766965E+03 -0.28379147393E+03  0.28341735543E+03  0.80194058760E+03  0.15294330000E+03 0.  0.
<mgrwt>
<rscale>  0 0.92123144E+03</rscale>
<asrwt>0</asrwt>
<pdfrwt beam="1">  1        1 0.11516234E+00 0.98650994E+03</pdfrwt>
<pdfrwt beam="2">  1       -1 0.22169875E+00 0.98650994E+03</pdfrwt>
<totfact> 0.26525370E+00</totfact>
</mgrwt>
</event>
<event>
 4    5  0.7214169E-008  0.7470764E+03  0.7818608E-02  0.9839793E-01
         -1   -1    0    0    0  501 -0.00000000000E+00  0.00000000000E+00  0.98245681748E+03  0.98245681749E+03  0.50400000000E-02 0.  1.
          1   -1    0    0  501    0  0.00000000000E+00 -0.00000000000E+00 -0.66311059886E+03  0.66311059888E+03  0.50400000000E-02 0. -1.
    8880023    1    1    2    0    0  0.31618125268E+03 -0.15602060690E+03  0.75669497815E+03  0.10633487248E+04  0.65864270000E+03 0.  1.
    8880022    1    1    2    0    0 -0.31618125268E+03  0.15602060690E+03 -0.43734875954E+03  0.58221869156E+03  0.15294330000E+03 0.  0.
<mgrwt>
<rscale>  0 0.63270033E+03</rscale>
<asrwt>0</asrwt>
<pdfrwt beam="1">  1        1 0.10201702E+00 0.74707645E+03</pdfrwt>
<pdfrwt beam="2">  1       -1 0.15114720E+00 0.74707645E+03</pdfrwt>
<totfact> 0.10415378E+01</totfact>
</mgrwt>
</event>
<event>
 4    5  0.7214169E-008  0.7786052E+03  0.7818608E-02  0.9759124E-01
         -1   -1    0    0    0  501 -0.00000000000E+00  0.00000000000E+00  0.14364095589E+04  0.14364095589E+04  0.50400000000E-02 0.  1.
          1   -1    0    0  501    0  0.00000000000E+00 -0.00000000000E+00 -0.56019715088E+03  0.56019715090E+03  0.50400000000E-02 0. -1.
    8880023    1    1    2    0    0 -0.40247737005E+03  0.10211673432E+03 -0.22446130990E+03  0.81031410375E+03  0.65864270000E+03 0. -1.
    8880022    1    1    2    0    0  0.40247737005E+03 -0.10211673432E+03  0.11006737179E+04  0.11862926060E+04  0.15294330000E+03 0.  0.
<mgrwt>
<rscale>  0 0.67603105E+03</rscale>
<asrwt>0</asrwt>
<pdfrwt beam="1">  1        1 0.86184177E-01 0.77860521E+03</pdfrwt>
<pdfrwt beam="2">  1       -1 0.22098609E+00 0.77860521E+03</pdfrwt>
<totfact> 0.42360350E+00</totfact>
</mgrwt>
</event>
<event>
 4    5  0.7214169E-008  0.1306509E+04  0.7818608E-02  0.9059960E-01
          1   -1    0    0  501    0  0.00000000000E+00  0.00000000000E+00  0.25709575024E+04  0.25709575024E+04  0.50400000000E-02 0. -1.
         -1   -1    0    0    0  501 -0.00000000000E+00 -0.00000000000E+00 -0.73583718751E+03  0.73583718753E+03  0.50400000000E-02 0.  1.
    8880023    1    1    2    0    0  0.45883250997E+03 -0.10308382395E+04  0.21123178059E+03  0.13234741477E+04  0.65864270000E+03 0.  0.
    8880022    1    1    2    0    0 -0.45883250997E+03  0.10308382395E+04  0.16238885343E+04  0.19833205422E+04  0.15294330000E+03 0.  0.
<mgrwt>
<rscale>  0 0.12623586E+04</rscale>
<asrwt>0</asrwt>
<pdfrwt beam="1">  1        1 0.39553191E+00 0.13065087E+04</pdfrwt>
<pdfrwt beam="2">  1       -1 0.11320572E+00 0.13065087E+04</pdfrwt>
<totfact> 0.84140243E-01</totfact>
</mgrwt>
</event>
<event>
 4    5  0.7214169E-008  0.7944978E+03  0.7818608E-02  0.9722822E-01
          1   -1    0    0  501    0  0.00000000000E+00  0.00000000000E+00  0.26759324179E+04  0.26759324179E+04  0.50400000000E-02 0. -1.
         -1   -1    0    0    0  501 -0.00000000000E+00 -0.00000000000E+00 -0.62135342989E+03  0.62135342991E+03  0.50400000000E-02 0.  1.
    8880023    1    1    2    0    0  0.41664681421E+03  0.15434367158E+03 -0.33478555296E+03  0.86215318215E+03  0.65864270000E+03 0.  1.
    8880022    1    1    2    0    0 -0.41664681421E+03 -0.15434367158E+03  0.23893645410E+04  0.24351326657E+04  0.15294330000E+03 0.  0.
<mgrwt>
<rscale>  0 0.69674108E+03</rscale>
<asrwt>0</asrwt>
<pdfrwt beam="1">  1        1 0.41168191E+00 0.79449779E+03</pdfrwt>
<pdfrwt beam="2">  1       -1 0.95592835E-01 0.79449779E+03</pdfrwt>
<totfact> 0.11428053E+00</totfact>
</mgrwt>
</event>
<event>
 4    5  0.7214169E-008  0.1145314E+04  0.7818608E-02  0.9212206E-01
         -1   -1    0    0    0  501 -0.00000000000E+00  0.00000000000E+00  0.16003601822E+04  0.16003601822E+04  0.50400000000E-02 0.  1.
          1   -1    0    0  501    0  0.00000000000E+00 -0.00000000000E+00 -0.82137480136E+03  0.82137480137E+03  0.50400000000E-02 0. -1.
    8880023    1    1    2    0    0 -0.16251234410E+03 -0.92278039218E+03  0.91070503513E+03  0.14632593008E+04  0.65864270000E+03 0.  0.
    8880022    1    1    2    0    0  0.16251234410E+03  0.92278039218E+03 -0.13171965425E+03  0.95847568280E+03  0.15294330000E+03 0.  0.
<mgrwt>
<rscale>  0 0.10928326E+04</rscale>
<asrwt>0</asrwt>
<pdfrwt beam="1">  1        1 0.12636536E+00 0.11453140E+04</pdfrwt>
<pdfrwt beam="2">  1       -1 0.24620925E+00 0.11453140E+04</pdfrwt>
<totfact> 0.15476109E+00</totfact>
</mgrwt>
</event>
<event>
 4    5  0.7214169E-008  0.7378958E+03  0.7818608E-02  0.9866119E-01
         -1   -1    0    0    0  501 -0.00000000000E+00  0.00000000000E+00  0.27379768840E+03  0.27379768844E+03  0.50400000000E-02 0.  1.
          1   -1    0    0  501    0  0.00000000000E+00 -0.00000000000E+00 -0.32795574392E+04  0.32795574392E+04  0.50400000000E-02 0. -1.
    8880023    1    1    2    0    0 -0.18346174202E+03 -0.27752791755E+03 -0.25859519754E+03  0.78189618125E+03  0.65864270000E+03 0.  1.
    8880022    1    1    2    0    0  0.18346174202E+03  0.27752791755E+03 -0.27471645533E+04  0.27714589464E+04  0.15294330000E+03 0.  0.
<mgrwt>
<rscale>  0 0.61931752E+03</rscale>
<asrwt>0</asrwt>
<pdfrwt beam="1">  1        1 0.50454727E+00 0.73789577E+03</pdfrwt>
<pdfrwt beam="2">  1       -1 0.42122724E-01 0.73789577E+03</pdfrwt>
<totfact> 0.22195311E+00</totfact>
</mgrwt>
</event>
<event>
 4    5  0.7214169E-008  0.1449242E+04  0.7818608E-02  0.8946335E-01
          1   -1    0    0  501    0  0.00000000000E+00  0.00000000000E+00  0.35431451191E+04  0.35431451191E+04  0.50400000000E-02 0. -1.
         -1   -1    0    0    0  501 -0.00000000000E+00 -0.00000000000E+00 -0.63013660258E+03  0.63013660260E+03  0.50400000000E-02 0.  1.
    8880023    1    1    2    0    0  0.10525458194E+04 -0.74742146158E+03  0.70642104345E+03  0.16122445348E+04  0.65864270000E+03 0.  0.
    8880022    1    1    2    0    0 -0.10525458194E+04  0.74742146158E+03  0.22065874731E+04  0.25610371869E+04  0.15294330000E+03 0.  0.
<mgrwt>
<rscale>  0 0.14103851E+04</rscale>
<asrwt>0</asrwt>
<pdfrwt beam="1">  1        1 0.54509925E+00 0.14492418E+04</pdfrwt>
<pdfrwt beam="2">  1       -1 0.96944092E-01 0.14492418E+04</pdfrwt>
<totfact> 0.22927316E-01</totfact>
</mgrwt>
</event>
<event>
 4    5  0.7214169E-008  0.8455929E+03  0.7818608E-02  0.9619723E-01
         -1   -1    0    0    0  501 -0.00000000000E+00  0.00000000000E+00  0.70142871212E+03  0.70142871213E+03  0.50400000000E-02 0.  1.
          1   -1    0    0  501    0  0.00000000000E+00 -0.00000000000E+00 -0.12934207544E+04  0.12934207544E+04  0.50400000000E-02 0. -1.
    8880023    1    1    2    0    0 -0.51476918011E+03 -0.12739611684E+03  0.34025134355E+03  0.91148135605E+03  0.65864270000E+03 0.  0.
    8880022    1    1    2    0    0  0.51476918011E+03  0.12739611684E+03 -0.93224338584E+03  0.10833681105E+04  0.15294330000E+03 0.  0.
<mgrwt>
<rscale>  0 0.76004407E+03</rscale>
<asrwt>0</asrwt>
<pdfrwt beam="1">  1        1 0.19898781E+00 0.84559286E+03</pdfrwt>
<pdfrwt beam="2">  1       -1 0.10791211E+00 0.84559286E+03</pdfrwt>
<totfact> 0.74704138E+00</totfact>
</mgrwt>
</event>
<event>
 4    5  0.7214169E-008  0.1252167E+04  0.7818608E-02  0.9108008E-01
         -1   -1    0    0    0  501 -0.00000000000E+00  0.00000000000E+00  0.13729593961E+04  0.13729593961E+04  0.50400000000E-02 0.  1.
          1   -1    0    0  501    0  0.00000000000E+00 -0.00000000000E+00 -0.10474354155E+04  0.10474354155E+04  0.50400000000E-02 0. -1.
    8880023    1    1    2    0    0 -0.94470179190E+03 -0.49158045889E+03 -0.11582605515E+03  0.12575129043E+04  0.65864270000E+03 0.  0.
    8880022    1    1    2    0    0  0.94470179190E+03  0.49158045889E+03  0.44135003572E+03  0.11628819073E+04  0.15294330000E+03 0.  0.
<mgrwt>
<rscale>  0 0.12055552E+04</rscale>
<asrwt>0</asrwt>
<pdfrwt beam="1">  1        1 0.16114391E+00 0.12521673E+04</pdfrwt>
<pdfrwt beam="2">  1       -1 0.21122452E+00 0.12521673E+04</pdfrwt>
<totfact> 0.17100154E+00</totfact>
</mgrwt>
</event>
<event>
 4    5  0.7214169E-008  0.9114042E+03  0.7818608E-02  0.9507967E-01
          1   -1    0    0  501    0  0.00000000000E+00  0.00000000000E+00  0.91335856440E+03  0.91335856441E+03  0.50400000000E-02 0. -1.
         -1   -1    0    0    0  501 -0.00000000000E+00 -0.00000000000E+00 -0.88613411791E+03  0.88613411793E+03  0.50400000000E-02 0.  1.
    8880023    1    1    2    0    0 -0.51430765616E+03  0.36377893159E+03 -0.42846651424E+03  0.10070954455E+04  0.65864270000E+03 0.  1.
    8880022    1    1    2    0    0  0.51430765616E+03 -0.36377893159E+03  0.45569096073E+03  0.79239723684E+03  0.15294330000E+03 0.  0.
<mgrwt>
<rscale>  0 0.83699014E+03</rscale>
<asrwt>0</asrwt>
<pdfrwt beam="1">  1        1 0.14051670E+00 0.91140424E+03</pdfrwt>
<pdfrwt beam="2">  1       -1 0.13632833E+00 0.91140424E+03</pdfrwt>
<totfact> 0.80663230E+00</totfact>
</mgrwt>
</event>
<event>
 4    5  0.7214169E-008  0.7357329E+03  0.7818608E-02  0.9872556E-01
          1   -1    0    0  501    0  0.00000000000E+00  0.00000000000E+00  0.27347085344E+04  0.27347085344E+04  0.50400000000E-02 0. -1.
         -1   -1    0    0    0  501 -0.00000000000E+00 -0.00000000000E+00 -0.54746499036E+03  0.54746499039E+03  0.50400000000E-02 0.  1.
    8880023    1    1    2    0    0 -0.32679994277E+03  0.26352078068E+02 -0.28099176721E+03  0.78756537133E+03  0.65864270000E+03 0.  1.
    8880022    1    1    2    0    0  0.32679994277E+03 -0.26352078068E+02  0.24682353113E+04  0.24946081535E+04  0.15294330000E+03 0.  0.
<mgrwt>
<rscale>  0 0.61609978E+03</rscale>
<asrwt>0</asrwt>
<pdfrwt beam="1">  1        1 0.42072439E+00 0.73573286E+03</pdfrwt>
<pdfrwt beam="2">  1       -1 0.84225383E-01 0.73573286E+03</pdfrwt>
<totfact> 0.13913266E+00</totfact>
</mgrwt>
</event>
<event>
 4    5  0.7214169E-008  0.7137564E+03  0.7818608E-02  0.9944308E-01
          1   -1    0    0  501    0  0.00000000000E+00  0.00000000000E+00  0.14210754274E+04  0.14210754274E+04  0.50400000000E-02 0. -1.
         -1   -1    0    0    0  501 -0.00000000000E+00 -0.00000000000E+00 -0.77228202866E+03  0.77228202868E+03  0.50400000000E-02 0.  1.
    8880023    1    1    2    0    0 -0.60524200015E+02 -0.26828133450E+03 -0.58325415733E+03  0.92175575482E+03  0.65864270000E+03 0.  1.
    8880022    1    1    2    0    0  0.60524200015E+02  0.26828133450E+03  0.12320475561E+04  0.12716017013E+04  0.15294330000E+03 0.  0.
<mgrwt>
<rscale>  0 0.58161181E+03</rscale>
<asrwt>0</asrwt>
<pdfrwt beam="1">  1        1 0.21862699E+00 0.71375644E+03</pdfrwt>
<pdfrwt beam="2">  1       -1 0.11881262E+00 0.71375644E+03</pdfrwt>
<totfact> 0.49332952E+00</totfact>
</mgrwt>
</event>
<event>
 4    5  0.7214169E-008  0.8841037E+03  0.7818608E-02  0.9552048E-01
         -1   -1    0    0    0  501 -0.00000000000E+00  0.00000000000E+00  0.12389087184E+04  0.12389087184E+04  0.50400000000E-02 0.  1.
          1   -1    0    0  501    0  0.00000000000E+00 -0.00000000000E+00 -0.11419220615E+04  0.11419220615E+04  0.50400000000E-02 0. -1.
    8880023    1    1    2    0    0 -0.20640618125E+02  0.58940908139E+03  0.97242027017E+03  0.13142452163E+04  0.65864270000E+03 0.  1.
    8880022    1    1    2    0    0  0.20640618125E+02 -0.58940908139E+03 -0.87543361327E+03  0.10665855637E+04  0.15294330000E+03 0.  0.
<mgrwt>
<rscale>  0 0.80552946E+03</rscale>
<asrwt>0</asrwt>
<pdfrwt beam="1">  1        1 0.17568032E+00 0.88410367E+03</pdfrwt>
<pdfrwt beam="2">  1       -1 0.19060134E+00 0.88410367E+03</pdfrwt>
<totfact> 0.21071111E+00</totfact>
</mgrwt>
</event>
<event>
 4    5  0.7214169E-008  0.1173721E+04  0.7818608E-02  0.9183101E-01
         -1   -1    0    0    0  501 -0.00000000000E+00  0.00000000000E+00  0.10622131139E+04  0.10622131139E+04  0.50400000000E-02 0.  1.
          1   -1    0    0  501    0  0.00000000000E+00 -0.00000000000E+00 -0.13080296104E+04  0.13080296104E+04  0.50400000000E-02 0. -1.
    8880023    1    1    2    0    0  0.15865046525E+03 -0.95845721532E+03  0.34447498295E+03  0.12232266445E+04  0.65864270000E+03 0.  1.
    8880022    1    1    2    0    0 -0.15865046525E+03  0.95845721532E+03 -0.59029147943E+03  0.11470160798E+04  0.15294330000E+03 0.  0.
<mgrwt>
<rscale>  0 0.11229573E+04</rscale>
<asrwt>0</asrwt>
<pdfrwt beam="1">  1        1 0.20123532E+00 0.11737208E+04</pdfrwt>
<pdfrwt beam="2">  1       -1 0.16341740E+00 0.11737208E+04</pdfrwt>
<totfact> 0.24176218E+00</totfact>
</mgrwt>
</event>
<event>
 4    5  0.7214169E-008  0.7255165E+03  0.7818608E-02  0.9904344E-01
          1   -1    0    0  501    0  0.00000000000E+00  0.00000000000E+00  0.11652698035E+04  0.11652698035E+04  0.50400000000E-02 0. -1.
         -1   -1    0    0    0  501 -0.00000000000E+00 -0.00000000000E+00 -0.26252118789E+03  0.26252118793E+03  0.50400000000E-02 0.  1.
    8880023    1    1    2    0    0 -0.27167656133E+03  0.13695195197E+03  0.42411645512E+03  0.84038619985E+03  0.65864270000E+03 0.  0.
    8880022    1    1    2    0    0  0.27167656133E+03 -0.13695195197E+03  0.47863216051E+03  0.58740479162E+03  0.15294330000E+03 0.  1.
<mgrwt>
<rscale>  0 0.60051237E+03</rscale>
<asrwt>0</asrwt>
<pdfrwt beam="1">  1        1 0.17927227E+00 0.72551650E+03</pdfrwt>
<pdfrwt beam="2">  1       -1 0.40387876E-01 0.72551650E+03</pdfrwt>
<totfact> 0.69527626E+01</totfact>
</mgrwt>
</event>
<event>
 4    5  0.7214169E-008  0.1372135E+04  0.7818608E-02  0.9005643E-01
          1   -1    0    0  501    0  0.00000000000E+00  0.00000000000E+00  0.21596123576E+04  0.21596123576E+04  0.50400000000E-02 0. -1.
         -1   -1    0    0    0  501 -0.00000000000E+00 -0.00000000000E+00 -0.12673172421E+04  0.12673172422E+04  0.50400000000E-02 0.  1.
    8880023    1    1    2    0    0  0.19618070741E+03 -0.11876262534E+04  0.15308345034E+04  0.20557741780E+04  0.65864270000E+03 0. -1.
    8880022    1    1    2    0    0 -0.19618070741E+03  0.11876262534E+04 -0.63853938791E+03  0.13711554218E+04  0.15294330000E+03 0.  0.
<mgrwt>
<rscale>  0 0.13306025E+04</rscale>
<asrwt>0</asrwt>
<pdfrwt beam="1">  1        1 0.33224805E+00 0.13721345E+04</pdfrwt>
<pdfrwt beam="2">  1       -1 0.19497188E+00 0.13721345E+04</pdfrwt>
<totfact> 0.36350257E-01</totfact>
</mgrwt>
</event>
<event>
 4    5  0.7214169E-008  0.1879531E+04  0.7818608E-02  0.8679773E-01
          1   -1    0    0  501    0  0.00000000000E+00  0.00000000000E+00  0.22306811680E+04  0.22306811680E+04  0.50400000000E-02 0. -1.
         -1   -1    0    0    0  501 -0.00000000000E+00 -0.00000000000E+00 -0.19595325282E+04  0.19595325282E+04  0.50400000000E-02 0.  1.
    8880023    1    1    2    0    0 -0.71673300481E+03 -0.16078307150E+04 -0.88616902922E+03  0.20779633209E+04  0.65864270000E+03 0.  0.
    8880022    1    1    2    0    0  0.71673300481E+03  0.16078307150E+04  0.11573176690E+04  0.21122503753E+04  0.15294330000E+03 0.  0.
<mgrwt>
<rscale>  0 0.18507382E+04</rscale>
<asrwt>0</asrwt>
<pdfrwt beam="1">  1        1 0.34318172E+00 0.18795308E+04</pdfrwt>
<pdfrwt beam="2">  1       -1 0.30146654E+00 0.18795308E+04</pdfrwt>
<totfact> 0.60432696E-02</totfact>
</mgrwt>
</event>
<event>
 4    5  0.7214169E-008  0.1039866E+04  0.7818608E-02  0.9331164E-01
         -1   -1    0    0    0  501 -0.00000000000E+00  0.00000000000E+00  0.86121280737E+03  0.86121280738E+03  0.50400000000E-02 0.  1.
          1   -1    0    0  501    0  0.00000000000E+00 -0.00000000000E+00 -0.15531797044E+04  0.15531797045E+04  0.50400000000E-02 0. -1.
    8880023    1    1    2    0    0 -0.66254744622E+03 -0.45666453884E+03  0.34258633031E+03  0.10948457515E+04  0.65864270000E+03 0.  0.
    8880022    1    1    2    0    0  0.66254744622E+03  0.45666453884E+03 -0.10345532274E+04  0.13195467604E+04  0.15294330000E+03 0.  0.
<mgrwt>
<rscale>  0 0.97963795E+03</rscale>
<asrwt>0</asrwt>
<pdfrwt beam="1">  1        1 0.23895072E+00 0.10398663E+04</pdfrwt>
<pdfrwt beam="2">  1       -1 0.13249428E+00 0.10398663E+04</pdfrwt>
<totfact> 0.29063847E+00</totfact>
</mgrwt>
</event>
<event>
 4    5  0.7214169E-008  0.7516669E+03  0.7818608E-02  0.9827179E-01
          1   -1    0    0  501    0  0.00000000000E+00  0.00000000000E+00  0.19713110683E+04  0.19713110683E+04  0.50400000000E-02 0. -1.
         -1   -1    0    0    0  501 -0.00000000000E+00 -0.00000000000E+00 -0.20962086860E+03  0.20962086866E+03  0.50400000000E-02 0.  1.
    8880023    1    1    2    0    0 -0.16992974343E+03 -0.31987004987E+03  0.62303441861E+03  0.97630684702E+03  0.65864270000E+03 0.  1.
    8880022    1    1    2    0    0  0.16992974343E+03  0.31987004987E+03  0.11386557811E+04  0.12046250900E+04  0.15294330000E+03 0.  0.
<mgrwt>
<rscale>  0 0.63924136E+03</rscale>
<asrwt>0</asrwt>
<pdfrwt beam="1">  1        1 0.30327863E+00 0.75166693E+03</pdfrwt>
<pdfrwt beam="2">  1       -1 0.32249364E-01 0.75166693E+03</pdfrwt>
<totfact> 0.29030250E+01</totfact>
</mgrwt>
</event>
<event>
 4    5  0.7214169E-008  0.7081128E+03  0.7818608E-02  0.9965077E-01
          1   -1    0    0  501    0  0.00000000000E+00  0.00000000000E+00  0.88595268298E+03  0.88595268299E+03  0.50400000000E-02 0. -1.
         -1   -1    0    0    0  501 -0.00000000000E+00 -0.00000000000E+00 -0.57917303376E+03  0.57917303378E+03  0.50400000000E-02 0.  1.
    8880023    1    1    2    0    0  0.10877768867E+03 -0.23617996294E+03 -0.31424429223E+03  0.77470848834E+03  0.65864270000E+03 0.  1.
    8880022    1    1    2    0    0 -0.10877768867E+03  0.23617996294E+03  0.62102394145E+03  0.69041722843E+03  0.15294330000E+03 0.  0.
<mgrwt>
<rscale>  0 0.57208443E+03</rscale>
<asrwt>0</asrwt>
<pdfrwt beam="1">  1        1 0.13630041E+00 0.70811282E+03</pdfrwt>
<pdfrwt beam="2">  1       -1 0.89103544E-01 0.70811282E+03</pdfrwt>
<totfact> 0.23825668E+01</totfact>
</mgrwt>
</event>
<event>
 4    5  0.7214169E-008  0.9742076E+03  0.7818608E-02  0.9416108E-01
         -1   -1    0    0    0  501 -0.00000000000E+00  0.00000000000E+00  0.89809812535E+03  0.89809812536E+03  0.50400000000E-02 0.  1.
          1   -1    0    0  501    0  0.00000000000E+00 -0.00000000000E+00 -0.13925538394E+04  0.13925538394E+04  0.50400000000E-02 0. -1.
    8880023    1    1    2    0    0 -0.32574088426E+03 -0.63965856254E+03  0.46759153611E+03  0.10806119800E+04  0.65864270000E+03 0.  0.
    8880022    1    1    2    0    0  0.32574088426E+03  0.63965856254E+03 -0.96204725015E+03  0.12100399848E+04  0.15294330000E+03 0.  0.
<mgrwt>
<rscale>  0 0.90761812E+03</rscale>
<asrwt>0</asrwt>
<pdfrwt beam="1">  1        1 0.21423905E+00 0.97420758E+03</pdfrwt>
<pdfrwt beam="2">  1       -1 0.13816894E+00 0.97420758E+03</pdfrwt>
<totfact> 0.34001811E+00</totfact>
</mgrwt>
</event>
<event>
 4    5  0.7214169E-008  0.9428357E+03  0.7818608E-02  0.9460498E-01
          1   -1    0    0  501    0  0.00000000000E+00  0.00000000000E+00  0.53616620646E+03  0.53616620648E+03  0.50400000000E-02 0. -1.
         -1   -1    0    0    0  501 -0.00000000000E+00 -0.00000000000E+00 -0.17202946850E+04  0.17202946850E+04  0.50400000000E-02 0.  1.
    8880023    1    1    2    0    0  0.61004292017E+03 -0.28805649131E+03 -0.12453589200E+04  0.15620044662E+04  0.65864270000E+03 0.  1.
    8880022    1    1    2    0    0 -0.61004292017E+03  0.28805649131E+03  0.61230441434E+02  0.69445642528E+03  0.15294330000E+03 0.  0.
<mgrwt>
<rscale>  0 0.87259874E+03</rscale>
<asrwt>0</asrwt>
<pdfrwt beam="1">  1        1 0.82487110E-01 0.94283568E+03</pdfrwt>
<pdfrwt beam="2">  1       -1 0.26466072E+00 0.94283568E+03</pdfrwt>
<totfact> 0.22890802E+00</totfact>
</mgrwt>
</event>
<event>
 4    5  0.7214169E-008  0.1358037E+04  0.7818608E-02  0.9016994E-01
          1   -1    0    0  501    0  0.00000000000E+00  0.00000000000E+00  0.18474070098E+04  0.18474070099E+04  0.50400000000E-02 0. -1.
         -1   -1    0    0    0  501 -0.00000000000E+00 -0.00000000000E+00 -0.95626571045E+03  0.95626571047E+03  0.50400000000E-02 0.  1.
    8880023    1    1    2    0    0 -0.11850161900E+04  0.78684461745E+02  0.86066037324E+02  0.13607616192E+04  0.65864270000E+03 0.  1.
    8880022    1    1    2    0    0  0.11850161900E+04 -0.78684461745E+02  0.80507526207E+03  0.14429111011E+04  0.15294330000E+03 0.  0.
<mgrwt>
<rscale>  0 0.13159717E+04</rscale>
<asrwt>0</asrwt>
<pdfrwt beam="1">  1        1 0.28421646E+00 0.13580371E+04</pdfrwt>
<pdfrwt beam="2">  1       -1 0.14711780E+00 0.13580371E+04</pdfrwt>
<totfact> 0.13411292E+00</totfact>
</mgrwt>
</event>
<event>
 4    5  0.7214169E-008  0.7965794E+03  0.7818608E-02  0.9718242E-01
          1   -1    0    0  501    0  0.00000000000E+00  0.00000000000E+00  0.26900615201E+04  0.26900615201E+04  0.50400000000E-02 0. -1.
         -1   -1    0    0    0  501 -0.00000000000E+00 -0.00000000000E+00 -0.25429808515E+03  0.25429808520E+03  0.50400000000E-02 0.  1.
    8880023    1    1    2    0    0  0.42958158911E+03 -0.12723263878E+03  0.47542567211E+03  0.92766818531E+03  0.65864270000E+03 0. -1.
    8880022    1    1    2    0    0 -0.42958158911E+03  0.12723263878E+03  0.19603377628E+04  0.20166914200E+04  0.15294330000E+03 0.  0.
<mgrwt>
<rscale>  0 0.69941010E+03</rscale>
<asrwt>0</asrwt>
<pdfrwt beam="1">  1        1 0.41385558E+00 0.79657937E+03</pdfrwt>
<pdfrwt beam="2">  1       -1 0.39122786E-01 0.79657937E+03</pdfrwt>
<totfact> 0.66523692E+00</totfact>
</mgrwt>
</event>
<event>
 4    5  0.7214169E-008  0.8555067E+03  0.7818608E-02  0.9601607E-01
         -1   -1    0    0    0  501 -0.00000000000E+00  0.00000000000E+00  0.93374283753E+03  0.93374283755E+03  0.50400000000E-02 0.  1.
          1   -1    0    0  501    0  0.00000000000E+00 -0.00000000000E+00 -0.69540451202E+03  0.69540451203E+03  0.50400000000E-02 0. -1.
    8880023    1    1    2    0    0 -0.18092723177E+03  0.51511824131E+03 -0.23869202654E+03  0.88818103758E+03  0.65864270000E+03 0.  0.
    8880022    1    1    2    0    0  0.18092723177E+03 -0.51511824131E+03  0.47703035205E+03  0.74096631200E+03  0.15294330000E+03 0.  0.
<mgrwt>
<rscale>  0 0.77189928E+03</rscale>
<asrwt>0</asrwt>
<pdfrwt beam="1">  1        1 0.10698531E+00 0.85550668E+03</pdfrwt>
<pdfrwt beam="2">  1       -1 0.14365274E+00 0.85550668E+03</pdfrwt>
<totfact> 0.10964018E+01</totfact>
</mgrwt>
</event>
<event>
 4    5  0.7451796E-008  0.1445076E+04  0.7818608E-02  0.8949426E-01
          1   -1    0    0  501    0  0.00000000000E+00  0.00000000000E+00  0.17983062152E+04  0.17983062152E+04  0.50400000000E-02 0. -1.
         -1   -1    0    0    0  501 -0.00000000000E+00 -0.00000000000E+00 -0.16416063114E+04  0.16416063114E+04  0.50400000000E-02 0.  1.
    8880023    1    1    2    0    0  0.28412932837E+03  0.12544744810E+04 -0.95568667364E+03  0.17325076979E+04  0.65864270000E+03 0.  0.
    8880022    1    1    2    0    0 -0.28412932837E+03 -0.12544744810E+04  0.11123865774E+04  0.17074048288E+04  0.15294330000E+03 0.  0.
<mgrwt>
<rscale>  0 0.14060848E+04</rscale>
<asrwt>0</asrwt>
<pdfrwt beam="1">  1        1 0.27666249E+00 0.14450764E+04</pdfrwt>
<pdfrwt beam="2">  1       -1 0.25255482E+00 0.14450764E+04</pdfrwt>
<totfact> 0.26041881E-01</totfact>
</mgrwt>
</event>
<event>
 4    5  0.7214169E-008  0.9580954E+03  0.7818608E-02  0.9438561E-01
         -1   -1    0    0    0  501 -0.00000000000E+00  0.00000000000E+00  0.59437382908E+03  0.59437382910E+03  0.50400000000E-02 0.  1.
          1   -1    0    0  501    0  0.00000000000E+00 -0.00000000000E+00 -0.15542949963E+04  0.15542949963E+04  0.50400000000E-02 0. -1.
    8880023    1    1    2    0    0  0.59415120267E+03  0.36210613784E+03 -0.60387266736E+01  0.95811438731E+03  0.65864270000E+03 0.  1.
    8880022    1    1    2    0    0 -0.59415120267E+03 -0.36210613784E+03 -0.95388244057E+03  0.11905544381E+04  0.15294330000E+03 0.  0.
<mgrwt>
<rscale>  0 0.88969074E+03</rscale>
<asrwt>0</asrwt>
<pdfrwt beam="1">  1        1 0.23912231E+00 0.95809536E+03</pdfrwt>
<pdfrwt beam="2">  1       -1 0.91442128E-01 0.95809536E+03</pdfrwt>
<totfact> 0.70751322E+00</totfact>
</mgrwt>
</event>
<event>
 4    5  0.7214169E-008  0.1509646E+04  0.7818608E-02  0.8902854E-01
          1   -1    0    0  501    0  0.00000000000E+00  0.00000000000E+00  0.24103908915E+04  0.24103908915E+04  0.50400000000E-02 0. -1.
         -1   -1    0    0    0  501 -0.00000000000E+00 -0.00000000000E+00 -0.13416615116E+04  0.13416615116E+04  0.50400000000E-02 0.  1.
    8880023    1    1    2    0    0 -0.71010908811E+03  0.11580012892E+04 -0.57388447457E+03  0.16150465935E+04  0.65864270000E+03 0.  0.
    8880022    1    1    2    0    0  0.71010908811E+03 -0.11580012892E+04  0.16426138545E+04  0.21370058097E+04  0.15294330000E+03 0.  0.
<mgrwt>
<rscale>  0 0.14726392E+04</rscale>
<asrwt>0</asrwt>
<pdfrwt beam="1">  1        1 0.37082937E+00 0.15096464E+04</pdfrwt>
<pdfrwt beam="2">  1       -1 0.20640946E+00 0.15096464E+04</pdfrwt>
<totfact> 0.20059626E-01</totfact>
</mgrwt>
</event>
<event>
 4    5  0.7214169E-008  0.7686182E+03  0.7818608E-02  0.9783286E-01
          1   -1    0    0  501    0  0.00000000000E+00  0.00000000000E+00  0.20061394483E+04  0.20061394483E+04  0.50400000000E-02 0. -1.
         -1   -1    0    0    0  501 -0.00000000000E+00 -0.00000000000E+00 -0.26590887850E+03  0.26590887855E+03  0.50400000000E-02 0.  1.
    8880023    1    1    2    0    0 -0.39615836204E+03  0.47149776491E+01  0.40067236623E+03  0.86678268912E+03  0.65864270000E+03 0.  1.
    8880022    1    1    2    0    0  0.39615836204E+03 -0.47149776491E+01  0.13395582036E+04  0.14052656378E+04  0.15294330000E+03 0.  0.
<mgrwt>
<rscale>  0 0.66267274E+03</rscale>
<asrwt>0</asrwt>
<pdfrwt beam="1">  1        1 0.30863684E+00 0.76861817E+03</pdfrwt>
<pdfrwt beam="2">  1       -1 0.40909058E-01 0.76861817E+03</pdfrwt>
<totfact> 0.17924301E+01</totfact>
</mgrwt>
</event>
<event>
 4    5  0.7214169E-008  0.7744331E+03  0.7818608E-02  0.9769080E-01
         -1   -1    0    0    0  501 -0.00000000000E+00  0.00000000000E+00  0.10717858781E+04  0.10717858781E+04  0.50400000000E-02 0.  1.
          1   -1    0    0  501    0  0.00000000000E+00 -0.00000000000E+00 -0.77246177907E+03  0.77246177908E+03  0.50400000000E-02 0. -1.
    8880023    1    1    2    0    0 -0.39617851785E+03  0.94757227526E+02  0.84508586812E+03  0.11462620472E+04  0.65864270000E+03 0.  1.
    8880022    1    1    2    0    0  0.39617851785E+03 -0.94757227526E+02 -0.54576176906E+03  0.69798560999E+03  0.15294330000E+03 0.  0.
<mgrwt>
<rscale>  0 0.67048608E+03</rscale>
<asrwt>0</asrwt>
<pdfrwt beam="1">  1        1 0.11884027E+00 0.77443305E+03</pdfrwt>
<pdfrwt beam="2">  1       -1 0.16489014E+00 0.77443305E+03</pdfrwt>
<totfact> 0.64679728E+00</totfact>
</mgrwt>
</event>
<event>
 4    5  0.7214169E-008  0.1353889E+04  0.7818608E-02  0.9020367E-01
         -1   -1    0    0    0  501 -0.00000000000E+00  0.00000000000E+00  0.99829420128E+03  0.99829420129E+03  0.50400000000E-02 0.  1.
          1   -1    0    0  501    0  0.00000000000E+00 -0.00000000000E+00 -0.30341000149E+04  0.30341000149E+04  0.50400000000E-02 0. -1.
    8880023    1    1    2    0    0 -0.11795007031E+04 -0.89347351822E+02 -0.24253643735E+04  0.27776622200E+04  0.65864270000E+03 0.  0.
    8880022    1    1    2    0    0  0.11795007031E+04  0.89347351822E+02  0.38955855981E+03  0.12547319963E+04  0.15294330000E+03 0.  0.
<mgrwt>
<rscale>  0 0.13116636E+04</rscale>
<asrwt>0</asrwt>
<pdfrwt beam="1">  1        1 0.46678461E+00 0.13538889E+04</pdfrwt>
<pdfrwt beam="2">  1       -1 0.15358372E+00 0.13538889E+04</pdfrwt>
<totfact> 0.17923841E-01</totfact>
</mgrwt>
</event>
<event>
 4    5  0.7214169E-008  0.1239750E+04  0.7818608E-02  0.9119418E-01
         -1   -1    0    0    0  501 -0.00000000000E+00  0.00000000000E+00  0.71282091148E+03  0.71282091150E+03  0.50400000000E-02 0.  1.
          1   -1    0    0  501    0  0.00000000000E+00 -0.00000000000E+00 -0.18586580128E+04  0.18586580128E+04  0.50400000000E-02 0. -1.
    8880023    1    1    2    0    0  0.10396051915E+04 -0.14963922764E+03 -0.58084075053E+03  0.13690715965E+04  0.65864270000E+03 0.  1.
    8880022    1    1    2    0    0 -0.10396051915E+04  0.14963922764E+03 -0.56499635083E+03  0.12024073279E+04  0.15294330000E+03 0. -1.
<mgrwt>
<rscale>  0 0.11925322E+04</rscale>
<asrwt>0</asrwt>
<pdfrwt beam="1">  1        1 0.28594738E+00 0.12397504E+04</pdfrwt>
<pdfrwt beam="2">  1       -1 0.10966476E+00 0.12397504E+04</pdfrwt>
<totfact> 0.28008413E+00</totfact>
</mgrwt>
</event>
<event>
 4    5  0.7214169E-008  0.8812098E+03  0.7818608E-02  0.9556895E-01
          1   -1    0    0  501    0  0.00000000000E+00  0.00000000000E+00  0.18448305881E+04  0.18448305881E+04  0.50400000000E-02 0. -1.
         -1   -1    0    0    0  501 -0.00000000000E+00 -0.00000000000E+00 -0.95592826682E+03  0.95592826683E+03  0.50400000000E-02 0.  1.
    8880023    1    1    2    0    0  0.48408208696E+03  0.32921869819E+03 -0.68397958055E+03  0.11155082658E+04  0.65864270000E+03 0.  1.
    8880022    1    1    2    0    0 -0.48408208696E+03 -0.32921869819E+03  0.15728819018E+04  0.16852505891E+04  0.15294330000E+03 0.  0.
<mgrwt>
<rscale>  0 0.80216041E+03</rscale>
<asrwt>0</asrwt>
<pdfrwt beam="1">  1        1 0.28382009E+00 0.88120975E+03</pdfrwt>
<pdfrwt beam="2">  1       -1 0.14706589E+00 0.88120975E+03</pdfrwt>
<totfact> 0.14370010E+00</totfact>
</mgrwt>
</event>
<event>
 4    5  0.7214169E-008  0.9619517E+03  0.7818608E-02  0.9433123E-01
         -1   -1    0    0    0  501 -0.00000000000E+00  0.00000000000E+00  0.10290604087E+04  0.10290604087E+04  0.50400000000E-02 0.  1.
          1   -1    0    0  501    0  0.00000000000E+00 -0.00000000000E+00 -0.10339263542E+04  0.10339263542E+04  0.50400000000E-02 0. -1.
    8880023    1    1    2    0    0  0.16207664813E+03 -0.68210856280E+03 -0.59741754807E+03  0.11323686963E+04  0.65864270000E+03 0. -1.
    8880022    1    1    2    0    0 -0.16207664813E+03  0.68210856280E+03  0.59255160256E+03  0.93061806668E+03  0.15294330000E+03 0.  0.
<mgrwt>
<rscale>  0 0.89399226E+03</rscale>
<asrwt>0</asrwt>
<pdfrwt beam="1">  1        1 0.15906559E+00 0.96195173E+03</pdfrwt>
<pdfrwt beam="2">  1       -1 0.15831699E+00 0.96195173E+03</pdfrwt>
<totfact> 0.43176411E+00</totfact>
</mgrwt>
</event>
<event>
 4    5  0.7214169E-008  0.6726996E+03  0.7818608E-02  0.1013797E+00
          1   -1    0    0  501    0  0.00000000000E+00  0.00000000000E+00  0.93114351376E+03  0.93114351378E+03  0.50400000000E-02 0. -1.
         -1   -1    0    0    0  501 -0.00000000000E+00 -0.00000000000E+00 -0.22796232267E+03  0.22796232272E+03  0.50400000000E-02 0.  1.
    8880023    1    1    2    0    0 -0.67244388386E+01  0.13663552759E+03  0.36982242034E+03  0.76765442376E+03  0.65864270000E+03 0.  1.
    8880022    1    1    2    0    0  0.67244388386E+01 -0.13663552759E+03  0.33335877076E+03  0.39145141273E+03  0.15294330000E+03 0.  0.
<mgrwt>
<rscale>  0 0.49992981E+03</rscale>
<asrwt>0</asrwt>
<pdfrwt beam="1">  1        1 0.14325285E+00 0.67269956E+03</pdfrwt>
<pdfrwt beam="2">  1       -1 0.35071127E-01 0.67269956E+03</pdfrwt>
<totfact> 0.13568567E+02</totfact>
</mgrwt>
</event>
<event>
 4    5  0.7214169E-008  0.9616167E+03  0.7818608E-02  0.9433594E-01
         -1   -1    0    0    0  501 -0.00000000000E+00  0.00000000000E+00  0.32048724734E+03  0.32048724738E+03  0.50400000000E-02 0.  1.
          1   -1    0    0  501    0  0.00000000000E+00 -0.00000000000E+00 -0.28322413939E+04  0.28322413939E+04  0.50400000000E-02 0. -1.
    8880023    1    1    2    0    0  0.37290546158E+03  0.59315933191E+03 -0.65826516917E+03  0.11653410297E+04  0.65864270000E+03 0.  0.
    8880022    1    1    2    0    0 -0.37290546158E+03 -0.59315933191E+03 -0.18534889774E+04  0.19873876116E+04  0.15294330000E+03 0.  0.
<mgrwt>
<rscale>  0 0.89361883E+03</rscale>
<asrwt>0</asrwt>
<pdfrwt beam="1">  1        1 0.43572943E+00 0.96161670E+03</pdfrwt>
<pdfrwt beam="2">  1       -1 0.49305732E-01 0.96161670E+03</pdfrwt>
<totfact> 0.33560222E+00</totfact>
</mgrwt>
</event>
<event>
 4    5  0.7214169E-008  0.1011017E+04  0.7818608E-02  0.9367284E-01
         -1   -1    0    0    0  501 -0.00000000000E+00  0.00000000000E+00  0.65346062866E+03  0.65346062868E+03  0.50400000000E-02 0.  1.
          1   -1    0    0  501    0  0.00000000000E+00 -0.00000000000E+00 -0.19027629018E+04  0.19027629018E+04  0.50400000000E-02 0. -1.
    8880023    1    1    2    0    0 -0.76677609499E+03  0.19979040393E+02  0.79698956320E+02  0.10141532783E+04  0.65864270000E+03 0.  0.
    8880022    1    1    2    0    0  0.76677609499E+03 -0.19979040393E+02 -0.13290012295E+04  0.15420702523E+04  0.15294330000E+03 0.  0.
<mgrwt>
<rscale>  0 0.94817678E+03</rscale>
<asrwt>0</asrwt>
<pdfrwt beam="1">  1        1 0.29273275E+00 0.10110168E+04</pdfrwt>
<pdfrwt beam="2">  1       -1 0.10053241E+00 0.10110168E+04</pdfrwt>
<totfact> 0.32938599E+00</totfact>
</mgrwt>
</event>
<event>
 4    5  0.7214169E-008  0.1055756E+04  0.7818608E-02  0.9311993E-01
         -1   -1    0    0    0  501 -0.00000000000E+00  0.00000000000E+00  0.15483663367E+04  0.15483663367E+04  0.50400000000E-02 0.  1.
          1   -1    0    0  501    0  0.00000000000E+00 -0.00000000000E+00 -0.23286193356E+04  0.23286193356E+04  0.50400000000E-02 0. -1.
    8880023    1    1    2    0    0  0.33086402777E+03 -0.75587046243E+03  0.12759707244E+04  0.16561167400E+04  0.65864270000E+03 0.  0.
    8880022    1    1    2    0    0 -0.33086402777E+03  0.75587046243E+03 -0.20562237234E+04  0.22208689323E+04  0.15294330000E+03 0.  0.
<mgrwt>
<rscale>  0 0.99686186E+03</rscale>
<asrwt>0</asrwt>
<pdfrwt beam="1">  1        1 0.35824913E+00 0.10557563E+04</pdfrwt>
<pdfrwt beam="2">  1       -1 0.23821021E+00 0.10557563E+04</pdfrwt>
<totfact> 0.14959138E-01</totfact>
</mgrwt>
</event>
<event>
 4    5  0.7214169E-008  0.9215026E+03  0.7818608E-02  0.9492359E-01
          1   -1    0    0  501    0  0.00000000000E+00  0.00000000000E+00  0.17866729710E+04  0.17866729710E+04  0.50400000000E-02 0. -1.
         -1   -1    0    0    0  501 -0.00000000000E+00 -0.00000000000E+00 -0.44259200022E+03  0.44259200025E+03  0.50400000000E-02 0.  1.
    8880023    1    1    2    0    0  0.64021218318E+03 -0.74062372066E+02  0.25766739089E+03  0.95684876811E+03  0.65864270000E+03 0.  1.
    8880022    1    1    2    0    0 -0.64021218318E+03  0.74062372066E+02  0.10864135799E+04  0.12724162031E+04  0.15294330000E+03 0.  0.
<mgrwt>
<rscale>  0 0.84849520E+03</rscale>
<asrwt>0</asrwt>
<pdfrwt beam="1">  1        1 0.27487277E+00 0.92150262E+03</pdfrwt>
<pdfrwt beam="2">  1       -1 0.68091077E-01 0.92150262E+03</pdfrwt>
<totfact> 0.92499345E+00</totfact>
</mgrwt>
</event>
<event>
 4    5  0.7214169E-008  0.8412705E+03  0.7818608E-02  0.9627789E-01
         -1   -1    0    0    0  501 -0.00000000000E+00  0.00000000000E+00  0.19992508876E+04  0.19992508876E+04  0.50400000000E-02 0.  1.
          1   -1    0    0  501    0  0.00000000000E+00 -0.00000000000E+00 -0.36887489432E+03  0.36887489435E+03  0.50400000000E-02 0. -1.
    8880023    1    1    2    0    0 -0.51031746644E+03  0.11619762767E+03  0.24027798285E+03  0.87491115008E+03  0.65864270000E+03 0.  0.
    8880022    1    1    2    0    0  0.51031746644E+03 -0.11619762767E+03  0.13900980104E+04  0.14932146319E+04  0.15294330000E+03 0.  0.
<mgrwt>
<rscale>  0 0.75483892E+03</rscale>
<asrwt>0</asrwt>
<pdfrwt beam="1">  1        1 0.56749985E-01 0.84127047E+03</pdfrwt>
<pdfrwt beam="2">  1       -1 0.30757706E+00 0.84127047E+03</pdfrwt>
<totfact> 0.20438167E+00</totfact>
</mgrwt>
</event>
<event>
 4    5  0.7214169E-008  0.7587412E+03  0.7818608E-02  0.9808377E-01
          1   -1    0    0  501    0  0.00000000000E+00  0.00000000000E+00  0.23405218383E+04  0.23405218383E+04  0.50400000000E-02 0. -1.
         -1   -1    0    0    0  501 -0.00000000000E+00 -0.00000000000E+00 -0.43006324510E+03  0.43006324513E+03  0.50400000000E-02 0.  1.
    8880023    1    1    2    0    0 -0.35436152443E+03  0.12769471761E+03 -0.57649901089E+02  0.76092821492E+03  0.65864270000E+03 0.  0.
    8880022    1    1    2    0    0  0.35436152443E+03 -0.12769471761E+03  0.19681084943E+04  0.20096568686E+04  0.15294330000E+03 0.  0.
<mgrwt>
<rscale>  0 0.64914902E+03</rscale>
<asrwt>0</asrwt>
<pdfrwt beam="1">  1        1 0.36008029E+00 0.75874122E+03</pdfrwt>
<pdfrwt beam="2">  1       -1 0.66163575E-01 0.75874122E+03</pdfrwt>
<totfact> 0.42642472E+00</totfact>
</mgrwt>
</event>
<event>
 4    5  0.7214169E-008  0.8927549E+03  0.7818608E-02  0.9537764E-01
         -1   -1    0    0    0  501 -0.00000000000E+00  0.00000000000E+00  0.12722404226E+04  0.12722404226E+04  0.50400000000E-02 0.  1.
          1   -1    0    0  501    0  0.00000000000E+00 -0.00000000000E+00 -0.47812795604E+03  0.47812795607E+03  0.50400000000E-02 0. -1.
    8880023    1    1    2    0    0 -0.57082719562E+03  0.19328080178E+03  0.25773356122E+03  0.92921361938E+03  0.65864270000E+03 0. -1.
    8880022    1    1    2    0    0  0.57082719562E+03 -0.19328080178E+03  0.53637890531E+03  0.82115475927E+03  0.15294330000E+03 0.  0.
<mgrwt>
<rscale>  0 0.81555999E+03</rscale>
<asrwt>0</asrwt>
<pdfrwt beam="1">  1        1 0.73558148E-01 0.89275493E+03</pdfrwt>
<pdfrwt beam="2">  1       -1 0.19572929E+00 0.89275493E+03</pdfrwt>
<totfact> 0.77127288E+00</totfact>
</mgrwt>
</event>
<event>
 4    5  0.7214169E-008  0.1016093E+04  0.7818608E-02  0.9360799E-01
         -1   -1    0    0    0  501 -0.00000000000E+00  0.00000000000E+00  0.38396783952E+03  0.38396783955E+03  0.50400000000E-02 0.  1.
          1   -1    0    0  501    0  0.00000000000E+00 -0.00000000000E+00 -0.50976045305E+04  0.50976045305E+04  0.50400000000E-02 0. -1.
    8880023    1    1    2    0    0 -0.33654950633E+03  0.69668455143E+03 -0.39284656359E+03  0.10893913728E+04  0.65864270000E+03 0.  1.
    8880022    1    1    2    0    0  0.33654950633E+03 -0.69668455143E+03 -0.43207901274E+04  0.43921809972E+04  0.15294330000E+03 0.  0.
<mgrwt>
<rscale>  0 0.95373174E+03</rscale>
<asrwt>0</asrwt>
<pdfrwt beam="1">  1        1 0.78424680E+00 0.10160931E+04</pdfrwt>
<pdfrwt beam="2">  1       -1 0.59071979E-01 0.10160931E+04</pdfrwt>
<totfact> 0.20558476E-02</totfact>
</mgrwt>
</event>
<event>
 4    5  0.7214169E-008  0.7591739E+03  0.7818608E-02  0.9807251E-01
          1   -1    0    0  501    0  0.00000000000E+00  0.00000000000E+00  0.14414052795E+04  0.14414052795E+04  0.50400000000E-02 0. -1.
         -1   -1    0    0    0  501 -0.00000000000E+00 -0.00000000000E+00 -0.11389779433E+04  0.11389779433E+04  0.50400000000E-02 0.  1.
    8880023    1    1    2    0    0 -0.42331018289E+02  0.37515710197E+03 -0.97722484883E+03  0.12374624753E+04  0.65864270000E+03 0.  1.
    8880022    1    1    2    0    0  0.42331018289E+02 -0.37515710197E+03  0.12796521851E+04  0.13429207475E+04  0.15294330000E+03 0.  0.
<mgrwt>
<rscale>  0 0.64974865E+03</rscale>
<asrwt>0</asrwt>
<pdfrwt beam="1">  1        1 0.22175466E+00 0.75917388E+03</pdfrwt>
<pdfrwt beam="2">  1       -1 0.17522737E+00 0.75917388E+03</pdfrwt>
<totfact> 0.16938456E+00</totfact>
</mgrwt>
</event>
<event>
 4    5  0.7214169E-008  0.7530600E+03  0.7818608E-02  0.9823417E-01
         -1   -1    0    0    0  501 -0.00000000000E+00  0.00000000000E+00  0.22104786136E+03  0.22104786142E+03  0.50400000000E-02 0.  1.
          1   -1    0    0  501    0  0.00000000000E+00 -0.00000000000E+00 -0.27613653986E+04  0.27613653986E+04  0.50400000000E-02 0. -1.
    8880023    1    1    2    0    0 -0.45090846724E+02  0.36229274042E+03 -0.49972321484E+03  0.90378244723E+03  0.65864270000E+03 0.  1.
    8880022    1    1    2    0    0  0.45090846724E+02 -0.36229274042E+03 -0.20405943224E+04  0.20786308128E+04  0.15294330000E+03 0.  0.
<mgrwt>
<rscale>  0 0.64120839E+03</rscale>
<asrwt>0</asrwt>
<pdfrwt beam="1">  1        1 0.42482542E+00 0.75306004E+03</pdfrwt>
<pdfrwt beam="2">  1       -1 0.34007365E-01 0.75306004E+03</pdfrwt>
<totfact> 0.76846264E+00</totfact>
</mgrwt>
</event>
<event>
 4    5  0.7214169E-008  0.9293238E+03  0.7818608E-02  0.9480508E-01
          1   -1    0    0  501    0  0.00000000000E+00  0.00000000000E+00  0.19292346108E+04  0.19292346108E+04  0.50400000000E-02 0. -1.
         -1   -1    0    0    0  501 -0.00000000000E+00 -0.00000000000E+00 -0.38470224137E+03  0.38470224140E+03  0.50400000000E-02 0.  1.
    8880023    1    1    2    0    0  0.56199424742E+02  0.65320294974E+03  0.12993012440E+04  0.15974437073E+04  0.65864270000E+03 0. -1.
    8880022    1    1    2    0    0 -0.56199424742E+02 -0.65320294974E+03  0.24523112542E+03  0.71649314496E+03  0.15294330000E+03 0.  0.
<mgrwt>
<rscale>  0 0.85736236E+03</rscale>
<asrwt>0</asrwt>
<pdfrwt beam="1">  1        1 0.29680533E+00 0.92932377E+03</pdfrwt>
<pdfrwt beam="2">  1       -1 0.59184959E-01 0.92932377E+03</pdfrwt>
<totfact> 0.98150066E+00</totfact>
</mgrwt>
</event>
<event>
 4    5  0.7214169E-008  0.1317255E+04  0.7818608E-02  0.9050801E-01
          1   -1    0    0  501    0  0.00000000000E+00  0.00000000000E+00  0.26791575539E+04  0.26791575539E+04  0.50400000000E-02 0. -1.
         -1   -1    0    0    0  501 -0.00000000000E+00 -0.00000000000E+00 -0.70013266869E+03  0.70013266871E+03  0.50400000000E-02 0.  1.
    8880023    1    1    2    0    0  0.81391619374E+03 -0.79930618028E+03  0.31229108199E+03  0.13537672867E+04  0.65864270000E+03 0.  0.
    8880022    1    1    2    0    0 -0.81391619374E+03  0.79930618028E+03  0.16667338032E+04  0.20255229359E+04  0.15294330000E+03 0.  0.
<mgrwt>
<rscale>  0 0.12735580E+04</rscale>
<asrwt>0</asrwt>
<pdfrwt beam="1">  1        1 0.41217808E+00 0.13172548E+04</pdfrwt>
<pdfrwt beam="2">  1       -1 0.10771272E+00 0.13172548E+04</pdfrwt>
<totfact> 0.79504147E-01</totfact>
</mgrwt>
</event>
<event>
 4    5  0.7214169E-008  0.1158113E+04  0.7818608E-02  0.9198955E-01
         -1   -1    0    0    0  501 -0.00000000000E+00  0.00000000000E+00  0.11487696727E+04  0.11487696727E+04  0.50400000000E-02 0.  1.
          1   -1    0    0  501    0  0.00000000000E+00 -0.00000000000E+00 -0.12829662255E+04  0.12829662255E+04  0.50400000000E-02 0. -1.
    8880023    1    1    2    0    0  0.91113813104E+03 -0.27792678002E+03  0.51645887710E+03  0.12680520363E+04  0.65864270000E+03 0.  0.
    8880022    1    1    2    0    0 -0.91113813104E+03  0.27792678002E+03 -0.65065542985E+03  0.11636838618E+04  0.15294330000E+03 0.  0.
<mgrwt>
<rscale>  0 0.11064219E+04</rscale>
<asrwt>0</asrwt>
<pdfrwt beam="1">  1        1 0.19737942E+00 0.11581132E+04</pdfrwt>
<pdfrwt beam="2">  1       -1 0.17673380E+00 0.11581132E+04</pdfrwt>
<totfact> 0.20133435E+00</totfact>
</mgrwt>
</event>
<event>
 4    5  0.7214169E-008  0.8196170E+03  0.7818608E-02  0.9669883E-01
          1   -1    0    0  501    0  0.00000000000E+00  0.00000000000E+00  0.40672538795E+03  0.40672538798E+03  0.50400000000E-02 0. -1.
         -1   -1    0    0    0  501 -0.00000000000E+00 -0.00000000000E+00 -0.18185077150E+04  0.18185077150E+04  0.50400000000E-02 0.  1.
    8880023    1    1    2    0    0  0.37580734621E+03  0.31101564262E+03 -0.14972539270E+04  0.17069099038E+04  0.65864270000E+03 0.  0.
    8880022    1    1    2    0    0 -0.37580734621E+03 -0.31101564262E+03  0.85471599957E+02  0.51832319920E+03  0.15294330000E+03 0.  0.
<mgrwt>
<rscale>  0 0.72838633E+03</rscale>
<asrwt>0</asrwt>
<pdfrwt beam="1">  1        1 0.62573138E-01 0.81961704E+03</pdfrwt>
<pdfrwt beam="2">  1       -1 0.27977041E+00 0.81961704E+03</pdfrwt>
<totfact> 0.27146776E+00</totfact>
</mgrwt>
</event>
<event>
 4    5  0.7214169E-008  0.7035409E+03  0.7818608E-02  0.9982818E-01
          1   -1    0    0  501    0  0.00000000000E+00  0.00000000000E+00  0.74142904388E+03  0.74142904389E+03  0.50400000000E-02 0. -1.
         -1   -1    0    0    0  501 -0.00000000000E+00 -0.00000000000E+00 -0.42007622505E+03  0.42007622508E+03  0.50400000000E-02 0.  1.
    8880023    1    1    2    0    0  0.24200621763E+03  0.50916918132E+02 -0.31540193784E+02  0.70424749343E+03  0.65864270000E+03 0.  0.
    8880022    1    1    2    0    0 -0.24200621763E+03 -0.50916918132E+02  0.35289301262E+03  0.45725777554E+03  0.15294330000E+03 0.  0.
<mgrwt>
<rscale>  0 0.56410112E+03</rscale>
<asrwt>0</asrwt>
<pdfrwt beam="1">  1        1 0.11406601E+00 0.70354086E+03</pdfrwt>
<pdfrwt beam="2">  1       -1 0.64627112E-01 0.70354086E+03</pdfrwt>
<totfact> 0.62084982E+01</totfact>
</mgrwt>
</event>
<event>
 4    5  0.7214169E-008  0.1537303E+04  0.7818608E-02  0.8883735E-01
          1   -1    0    0  501    0  0.00000000000E+00  0.00000000000E+00  0.35336242656E+04  0.35336242656E+04  0.50400000000E-02 0. -1.
         -1   -1    0    0    0  501 -0.00000000000E+00 -0.00000000000E+00 -0.70644350251E+03  0.70644350253E+03  0.50400000000E-02 0.  1.
    8880023    1    1    2    0    0  0.13391895803E+04 -0.36886394129E+03  0.22568951086E+04  0.27307279390E+04  0.65864270000E+03 0. -1.
    8880022    1    1    2    0    0 -0.13391895803E+04  0.36886394129E+03  0.57028565442E+03  0.15093398291E+04  0.15294330000E+03 0.  0.
<mgrwt>
<rscale>  0 0.15010806E+04</rscale>
<asrwt>0</asrwt>
<pdfrwt beam="1">  1        1 0.54363449E+00 0.15373027E+04</pdfrwt>
<pdfrwt beam="2">  1       -1 0.10868362E+00 0.15373027E+04</pdfrwt>
<totfact> 0.17672520E-01</totfact>
</mgrwt>
</event>
<event>
 4    5  0.7214169E-008  0.6989531E+03  0.7818608E-02  0.1000157E+00
          1   -1    0    0  501    0  0.00000000000E+00  0.00000000000E+00  0.10920873011E+04  0.10920873011E+04  0.50400000000E-02 0. -1.
         -1   -1    0    0    0  501 -0.00000000000E+00 -0.00000000000E+00 -0.23282926711E+03  0.23282926716E+03  0.50400000000E-02 0.  1.
    8880023    1    1    2    0    0 -0.10565420483E+03 -0.20871615714E+03  0.45701386098E+03  0.83510305989E+03  0.65864270000E+03 0.  1.
    8880022    1    1    2    0    0  0.10565420483E+03  0.20871615714E+03  0.40224417300E+03  0.48981350836E+03  0.15294330000E+03 0. -1.
<mgrwt>
<rscale>  0 0.55581358E+03</rscale>
<asrwt>0</asrwt>
<pdfrwt beam="1">  1        1 0.16801343E+00 0.69895311E+03</pdfrwt>
<pdfrwt beam="2">  1       -1 0.35819887E-01 0.69895311E+03</pdfrwt>
<totfact> 0.97998298E+01</totfact>
</mgrwt>
</event>
<event>
 4    5  0.7214169E-008  0.7193789E+03  0.7818608E-02  0.9924693E-01
          1   -1    0    0  501    0  0.00000000000E+00  0.00000000000E+00  0.31413227321E+04  0.31413227321E+04  0.50400000000E-02 0. -1.
         -1   -1    0    0    0  501 -0.00000000000E+00 -0.00000000000E+00 -0.30298616412E+03  0.30298616417E+03  0.50400000000E-02 0.  1.
    8880023    1    1    2    0    0 -0.15773969520E+03  0.24251585941E+03  0.14838204867E+03  0.73452242453E+03  0.65864270000E+03 0.  1.
    8880022    1    1    2    0    0  0.15773969520E+03 -0.24251585941E+03  0.26899545193E+04  0.27097864717E+04  0.15294330000E+03 0.  0.
<mgrwt>
<rscale>  0 0.59079330E+03</rscale>
<asrwt>0</asrwt>
<pdfrwt beam="1">  1        1 0.48328043E+00 0.71937887E+03</pdfrwt>
<pdfrwt beam="2">  1       -1 0.46613255E-01 0.71937887E+03</pdfrwt>
<totfact> 0.23358498E+00</totfact>
</mgrwt>
</event>
<event>
 4    5  0.7214169E-008  0.6619809E+03  0.7818608E-02  0.1022213E+00
          1   -1    0    0  501    0  0.00000000000E+00  0.00000000000E+00  0.23199485103E+04  0.23199485103E+04  0.50400000000E-02 0. -1.
         -1   -1    0    0    0  501 -0.00000000000E+00 -0.00000000000E+00 -0.25702450444E+03  0.25702450449E+03  0.50400000000E-02 0.  1.
    8880023    1    1    2    0    0  0.33868758157E+02 -0.57109350050E+02  0.17909492455E+03  0.68577967957E+03  0.65864270000E+03 0.  1.
    8880022    1    1    2    0    0 -0.33868758157E+02  0.57109350050E+02  0.18838290813E+04  0.18911933352E+04  0.15294330000E+03 0.  0.
<mgrwt>
<rscale>  0 0.46896470E+03</rscale>
<asrwt>0</asrwt>
<pdfrwt beam="1">  1        1 0.35691515E+00 0.66198095E+03</pdfrwt>
<pdfrwt beam="2">  1       -1 0.39542232E-01 0.66198095E+03</pdfrwt>
<totfact> 0.11949437E+01</totfact>
</mgrwt>
</event>
<event>
 4    5  0.7214169E-008  0.7077166E+03  0.7818608E-02  0.9966580E-01
          1   -1    0    0  501    0  0.00000000000E+00  0.00000000000E+00  0.24796255984E+04  0.24796255984E+04  0.50400000000E-02 0. -1.
         -1   -1    0    0    0  501 -0.00000000000E+00 -0.00000000000E+00 -0.54538895928E+03  0.54538895930E+03  0.50400000000E-02 0.  1.
    8880023    1    1    2    0    0 -0.25709523670E+03 -0.30897967224E+02 -0.30141246369E+03  0.76922839563E+03  0.65864270000E+03 0.  1.
    8880022    1    1    2    0    0  0.25709523670E+03  0.30897967224E+02  0.22356491028E+04  0.22557861621E+04  0.15294330000E+03 0.  0.
<mgrwt>
<rscale>  0 0.57140259E+03</rscale>
<asrwt>0</asrwt>
<pdfrwt beam="1">  1        1 0.38148086E+00 0.70771665E+03</pdfrwt>
<pdfrwt beam="2">  1       -1 0.83905995E-01 0.70771665E+03</pdfrwt>
<totfact> 0.21141137E+00</totfact>
</mgrwt>
</event>
<event>
 4    5  0.7214169E-008  0.7621990E+03  0.7818608E-02  0.9799447E-01
          1   -1    0    0  501    0  0.00000000000E+00  0.00000000000E+00  0.16739534739E+04  0.16739534739E+04  0.50400000000E-02 0. -1.
         -1   -1    0    0    0  501 -0.00000000000E+00 -0.00000000000E+00 -0.21333571844E+03  0.21333571850E+03  0.50400000000E-02 0.  1.
    8880023    1    1    2    0    0  0.38151688732E+03  0.39774641732E+02  0.77561076537E+03  0.10874370892E+04  0.65864270000E+03 0.  1.
    8880022    1    1    2    0    0 -0.38151688732E+03 -0.39774641732E+02  0.68500699006E+03  0.79985210313E+03  0.15294330000E+03 0.  0.
<mgrwt>
<rscale>  0 0.65392210E+03</rscale>
<asrwt>0</asrwt>
<pdfrwt beam="1">  1        1 0.25753131E+00 0.76219903E+03</pdfrwt>
<pdfrwt beam="2">  1       -1 0.32820879E-01 0.76219903E+03</pdfrwt>
<totfact> 0.44480410E+01</totfact>
</mgrwt>
</event>
<event>
 4    5  0.7214169E-008  0.9728692E+03  0.7818608E-02  0.9417947E-01
         -1   -1    0    0    0  501 -0.00000000000E+00  0.00000000000E+00  0.33657915148E+03  0.33657915151E+03  0.50400000000E-02 0.  1.
          1   -1    0    0  501    0  0.00000000000E+00 -0.00000000000E+00 -0.22142213222E+04  0.22142213222E+04  0.50400000000E-02 0. -1.
    8880023    1    1    2    0    0  0.93498327323E+02 -0.70987492988E+03 -0.12669545062E+04  0.15973879555E+04  0.65864270000E+03 0.  1.
    8880022    1    1    2    0    0 -0.93498327323E+02  0.70987492988E+03 -0.61068766446E+03  0.95341251818E+03  0.15294330000E+03 0.  0.
<mgrwt>
<rscale>  0 0.90613337E+03</rscale>
<asrwt>0</asrwt>
<pdfrwt beam="1">  1        1 0.34064942E+00 0.97286924E+03</pdfrwt>
<pdfrwt beam="2">  1       -1 0.51781409E-01 0.97286924E+03</pdfrwt>
<totfact> 0.81366578E+00</totfact>
</mgrwt>
</event>
<event>
 4    5  0.7214169E-008  0.1001024E+04  0.7818608E-02  0.9380219E-01
         -1   -1    0    0    0  501 -0.00000000000E+00  0.00000000000E+00  0.22055288489E+04  0.22055288489E+04  0.50400000000E-02 0.  1.
          1   -1    0    0  501    0  0.00000000000E+00 -0.00000000000E+00 -0.50777638981E+03  0.50777638984E+03  0.50400000000E-02 0. -1.
    8880023    1    1    2    0    0  0.52147164272E+03  0.54434091537E+03  0.16658381277E+04  0.19434676689E+04  0.65864270000E+03 0.  1.
    8880022    1    1    2    0    0 -0.52147164272E+03 -0.54434091537E+03  0.31914331400E+02  0.76983756980E+03  0.15294330000E+03 0.  0.
<mgrwt>
<rscale>  0 0.93721646E+03</rscale>
<asrwt>0</asrwt>
<pdfrwt beam="1">  1        1 0.78119445E-01 0.10010244E+04</pdfrwt>
<pdfrwt beam="2">  1       -1 0.33931213E+00 0.10010244E+04</pdfrwt>
<totfact> 0.80860338E-01</totfact>
</mgrwt>
</event>
<event>
 4    5  0.7214169E-008  0.8288620E+03  0.7818608E-02  0.9651551E-01
          1   -1    0    0  501    0  0.00000000000E+00  0.00000000000E+00  0.81905063714E+03  0.81905063715E+03  0.50400000000E-02 0. -1.
         -1   -1    0    0    0  501 -0.00000000000E+00 -0.00000000000E+00 -0.20177918389E+04  0.20177918389E+04  0.50400000000E-02 0.  1.
    8880023    1    1    2    0    0  0.44020669646E+03 -0.24376240632E+03 -0.18337202421E+04  0.20123474300E+04  0.65864270000E+03 0.  0.
    8880022    1    1    2    0    0 -0.44020669646E+03  0.24376240632E+03  0.63497904034E+03  0.82449504609E+03  0.15294330000E+03 0.  0.
<mgrwt>
<rscale>  0 0.73976191E+03</rscale>
<asrwt>0</asrwt>
<pdfrwt beam="1">  1        1 0.12600779E+00 0.82886202E+03</pdfrwt>
<pdfrwt beam="2">  1       -1 0.31042951E+00 0.82886202E+03</pdfrwt>
<totfact> 0.62836485E-01</totfact>
</mgrwt>
</event>
<event>
 4    5  0.7214169E-008  0.1240862E+04  0.7818608E-02  0.9118390E-01
         -1   -1    0    0    0  501 -0.00000000000E+00  0.00000000000E+00  0.38761442991E+04  0.38761442991E+04  0.50400000000E-02 0.  1.
          1   -1    0    0  501    0  0.00000000000E+00 -0.00000000000E+00 -0.96275038598E+03  0.96275038600E+03  0.50400000000E-02 0. -1.
    8880023    1    1    2    0    0  0.75429042866E+03  0.73278544335E+03  0.34370519829E+04  0.36541846008E+04  0.65864270000E+03 0.  0.
    8880022    1    1    2    0    0 -0.75429042866E+03 -0.73278544335E+03 -0.52365806985E+03  0.11847100843E+04  0.15294330000E+03 0.  0.
<mgrwt>
<rscale>  0 0.11936989E+04</rscale>
<asrwt>0</asrwt>
<pdfrwt beam="1">  1        1 0.14811545E+00 0.12408621E+04</pdfrwt>
<pdfrwt beam="2">  1       -1 0.59632989E+00 0.12408621E+04</pdfrwt>
<totfact> 0.70247612E-03</totfact>
</mgrwt>
</event>
<event>
 4    5  0.7214169E-008  0.8568707E+03  0.7818608E-02  0.9599154E-01
         -1   -1    0    0    0  501 -0.00000000000E+00  0.00000000000E+00  0.30688759690E+03  0.30688759695E+03  0.50400000000E-02 0.  1.
          1   -1    0    0  501    0  0.00000000000E+00 -0.00000000000E+00 -0.18505580835E+04  0.18505580835E+04  0.50400000000E-02 0. -1.
    8880023    1    1    2    0    0 -0.52809163232E+03  0.14675280713E+03 -0.56823923691E+03  0.10281649650E+04  0.65864270000E+03 0.  0.
    8880022    1    1    2    0    0  0.52809163232E+03 -0.14675280713E+03 -0.97543124968E+03  0.11292807155E+04  0.15294330000E+03 0.  0.
<mgrwt>
<rscale>  0 0.77352178E+03</rscale>
<asrwt>0</asrwt>
<pdfrwt beam="1">  1        1 0.28470124E+00 0.85687068E+03</pdfrwt>
<pdfrwt beam="2">  1       -1 0.47213478E-01 0.85687068E+03</pdfrwt>
<totfact> 0.17271975E+01</totfact>
</mgrwt>
</event>
<event>
 4    5  0.7214169E-008  0.9717120E+03  0.7818608E-02  0.9419540E-01
         -1   -1    0    0    0  501 -0.00000000000E+00  0.00000000000E+00  0.14268678767E+04  0.14268678767E+04  0.50400000000E-02 0.  1.
          1   -1    0    0  501    0  0.00000000000E+00 -0.00000000000E+00 -0.23212814111E+04  0.23212814111E+04  0.50400000000E-02 0. -1.
    8880023    1    1    2    0    0  0.52160099723E+02 -0.71252601389E+03  0.11917820892E+04  0.15377154323E+04  0.65864270000E+03 0.  1.
    8880022    1    1    2    0    0 -0.52160099723E+02  0.71252601389E+03 -0.20861956236E+04  0.22104338554E+04  0.15294330000E+03 0.  0.
<mgrwt>
<rscale>  0 0.90484891E+03</rscale>
<asrwt>0</asrwt>
<pdfrwt beam="1">  1        1 0.35712022E+00 0.97171200E+03</pdfrwt>
<pdfrwt beam="2">  1       -1 0.21951813E+00 0.97171200E+03</pdfrwt>
<totfact> 0.20437240E-01</totfact>
</mgrwt>
</event>
<event>
 4    5  0.7214169E-008  0.1143644E+04  0.7818608E-02  0.9213952E-01
          1   -1    0    0  501    0  0.00000000000E+00  0.00000000000E+00  0.25443515998E+04  0.25443515998E+04  0.50400000000E-02 0. -1.
         -1   -1    0    0    0  501 -0.00000000000E+00 -0.00000000000E+00 -0.70814800362E+03  0.70814800364E+03  0.50400000000E-02 0.  1.
    8880023    1    1    2    0    0 -0.87460038359E+03  0.33043348482E+03 -0.46807148135E+02  0.11446017798E+04  0.65864270000E+03 0.  0.
    8880022    1    1    2    0    0  0.87460038359E+03 -0.33043348482E+03  0.18830107443E+04  0.21078978237E+04  0.15294330000E+03 0.  0.
<mgrwt>
<rscale>  0 0.10910578E+04</rscale>
<asrwt>0</asrwt>
<pdfrwt beam="1">  1        1 0.39143871E+00 0.11436443E+04</pdfrwt>
<pdfrwt beam="2">  1       -1 0.10894585E+00 0.11436443E+04</pdfrwt>
<totfact> 0.98280690E-01</totfact>
</mgrwt>
</event>
<event>
 4    5  0.7214169E-008  0.9014992E+03  0.7818608E-02  0.9523629E-01
         -1   -1    0    0    0  501 -0.00000000000E+00  0.00000000000E+00  0.10394584749E+04  0.10394584749E+04  0.50400000000E-02 0.  1.
          1   -1    0    0  501    0  0.00000000000E+00 -0.00000000000E+00 -0.66938741112E+03  0.66938741114E+03  0.50400000000E-02 0. -1.
    8880023    1    1    2    0    0  0.10437394560E+03 -0.60662736707E+03  0.54175890275E+03  0.10517621394E+04  0.65864270000E+03 0.  1.
    8880022    1    1    2    0    0 -0.10437394560E+03  0.60662736707E+03 -0.17168783895E+03  0.65708374661E+03  0.15294330000E+03 0.  0.
<mgrwt>
<rscale>  0 0.82563937E+03</rscale>
<asrwt>0</asrwt>
<pdfrwt beam="1">  1        1 0.10298268E+00 0.90149925E+03</pdfrwt>
<pdfrwt beam="2">  1       -1 0.15991669E+00 0.90149925E+03</pdfrwt>
<totfact> 0.86411273E+00</totfact>
</mgrwt>
</event>
<event>
 4    5  0.7214169E-008  0.6743437E+03  0.7818608E-02  0.1012723E+00
         -1   -1    0    0    0  501 -0.00000000000E+00  0.00000000000E+00  0.46475184278E+03  0.46475184280E+03  0.50400000000E-02 0.  1.
          1   -1    0    0  501    0  0.00000000000E+00 -0.00000000000E+00 -0.67369896576E+03  0.67369896577E+03  0.50400000000E-02 0. -1.
    8880023    1    1    2    0    0  0.11926005345E+03  0.81891575280E+02  0.17844122380E+03  0.69755334353E+03  0.65864270000E+03 0.  1.
    8880022    1    1    2    0    0 -0.11926005345E+03 -0.81891575280E+02 -0.38738834678E+03  0.44089746505E+03  0.15294330000E+03 0.  0.
<mgrwt>
<rscale>  0 0.50406550E+03</rscale>
<asrwt>0</asrwt>
<pdfrwt beam="1">  1        1 0.10364599E+00 0.67434368E+03</pdfrwt>
<pdfrwt beam="2">  1       -1 0.71500283E-01 0.67434368E+03</pdfrwt>
<totfact> 0.58632474E+01</totfact>
</mgrwt>
</event>
<event>
 4    5  0.7214169E-008  0.1139323E+04  0.7818608E-02  0.9218488E-01
          1   -1    0    0  501    0  0.00000000000E+00  0.00000000000E+00  0.16152563166E+04  0.16152563166E+04  0.50400000000E-02 0. -1.
         -1   -1    0    0    0  501 -0.00000000000E+00 -0.00000000000E+00 -0.88660525888E+03  0.88660525890E+03  0.50400000000E-02 0.  1.
    8880023    1    1    2    0    0  0.21513238479E+03 -0.90441371246E+03 -0.22497683957E+03  0.11613229055E+04  0.65864270000E+03 0.  1.
    8880022    1    1    2    0    0 -0.21513238479E+03  0.90441371246E+03  0.95362789729E+03  0.13405386700E+04  0.15294330000E+03 0.  0.
<mgrwt>
<rscale>  0 0.10864620E+04</rscale>
<asrwt>0</asrwt>
<pdfrwt beam="1">  1        1 0.24850097E+00 0.11393227E+04</pdfrwt>
<pdfrwt beam="2">  1       -1 0.13640081E+00 0.11393227E+04</pdfrwt>
<totfact> 0.24161362E+00</totfact>
</mgrwt>
</event>
<event>
 4    5  0.7214169E-008  0.2138233E+04  0.7818608E-02  0.8555433E-01
          1   -1    0    0  501    0  0.00000000000E+00  0.00000000000E+00  0.27763732395E+04  0.27763732395E+04  0.50400000000E-02 0. -1.
         -1   -1    0    0    0  501 -0.00000000000E+00 -0.00000000000E+00 -0.21750180168E+04  0.21750180168E+04  0.50400000000E-02 0.  1.
    8880023    1    1    2    0    0 -0.14727935232E+04 -0.14032489596E+04  0.16091021242E+04  0.26760508697E+04  0.65864270000E+03 0.  0.
    8880022    1    1    2    0    0  0.14727935232E+04  0.14032489596E+04 -0.10077469015E+04  0.22753403866E+04  0.15294330000E+03 0.  0.
<mgrwt>
<rscale>  0 0.21132409E+04</rscale>
<asrwt>0</asrwt>
<pdfrwt beam="1">  1        1 0.42713434E+00 0.21382326E+04</pdfrwt>
<pdfrwt beam="2">  1       -1 0.33461816E+00 0.21382326E+04</pdfrwt>
<totfact> 0.14820066E-02</totfact>
</mgrwt>
</event>
<event>
 4    5  0.7214169E-008  0.6804701E+03  0.7818608E-02  0.1009059E+00
          1   -1    0    0  501    0  0.00000000000E+00  0.00000000000E+00  0.22109071867E+04  0.22109071867E+04  0.50400000000E-02 0. -1.
         -1   -1    0    0    0  501 -0.00000000000E+00 -0.00000000000E+00 -0.66970057654E+03  0.66970057656E+03  0.50400000000E-02 0.  1.
    8880023    1    1    2    0    0 -0.94361949988E+02  0.14256636695E+03 -0.48870359152E+03  0.83777726945E+03  0.65864270000E+03 0.  1.
    8880022    1    1    2    0    0  0.94361949988E+02 -0.14256636695E+03  0.20299102016E+04  0.20428304938E+04  0.15294330000E+03 0.  0.
<mgrwt>
<rscale>  0 0.51850347E+03</rscale>
<asrwt>0</asrwt>
<pdfrwt beam="1">  1        1 0.34013956E+00 0.68047010E+03</pdfrwt>
<pdfrwt beam="2">  1       -1 0.10303086E+00 0.68047010E+03</pdfrwt>
<totfact> 0.20462463E+00</totfact>
</mgrwt>
</event>
<event>
 4    5  0.7214169E-008  0.7928556E+03  0.7818608E-02  0.9726462E-01
         -1   -1    0    0    0  501 -0.00000000000E+00  0.00000000000E+00  0.44831607221E+03  0.44831607224E+03  0.50400000000E-02 0.  1.
          1   -1    0    0  501    0  0.00000000000E+00 -0.00000000000E+00 -0.16133458003E+04  0.16133458003E+04  0.50400000000E-02 0. -1.
    8880023    1    1    2    0    0 -0.33043337017E+03  0.29261496878E+03  0.14517159871E+02  0.79298845280E+03  0.65864270000E+03 0.  1.
    8880022    1    1    2    0    0  0.33043337017E+03 -0.29261496878E+03 -0.11795468880E+04  0.12686734198E+04  0.15294330000E+03 0.  0.
<mgrwt>
<rscale>  0 0.69462873E+03</rscale>
<asrwt>0</asrwt>
<pdfrwt beam="1">  1        1 0.24820704E+00 0.79285556E+03</pdfrwt>
<pdfrwt beam="2">  1       -1 0.68971704E-01 0.79285556E+03</pdfrwt>
<totfact> 0.12000754E+01</totfact>
</mgrwt>
</event>
<event>
 4    5  0.7214169E-008  0.7077822E+03  0.7818608E-02  0.9966330E-01
          1   -1    0    0  501    0  0.00000000000E+00  0.00000000000E+00  0.38310634283E+04  0.38310634283E+04  0.50400000000E-02 0. -1.
         -1   -1    0    0    0  501 -0.00000000000E+00 -0.00000000000E+00 -0.34579707791E+03  0.34579707795E+03  0.50400000000E-02 0.  1.
    8880023    1    1    2    0    0 -0.17197488981E+02 -0.25855309822E+03  0.29895320370E+02  0.70841329369E+03  0.65864270000E+03 0.  0.
    8880022    1    1    2    0    0  0.17197488981E+02  0.25855309822E+03  0.34553710300E+04  0.34684472125E+04  0.15294330000E+03 0. -1.
<mgrwt>
<rscale>  0 0.57151557E+03</rscale>
<asrwt>0</asrwt>
<pdfrwt beam="1">  1        1 0.58939440E+00 0.70778222E+03</pdfrwt>
<pdfrwt beam="2">  1       -1 0.53199548E-01 0.70778222E+03</pdfrwt>
<totfact> 0.53425317E-01</totfact>
</mgrwt>
</event>
<event>
 4    5  0.7214169E-008  0.7145728E+03  0.7818608E-02  0.9941397E-01
          1   -1    0    0  501    0  0.00000000000E+00  0.00000000000E+00  0.25492580703E+04  0.25492580703E+04  0.50400000000E-02 0. -1.
         -1   -1    0    0    0  501 -0.00000000000E+00 -0.00000000000E+00 -0.10992271520E+03  0.10992271532E+03  0.50400000000E-02 0.  1.
    8880023    1    1    2    0    0 -0.27709337399E+03 -0.48341610208E+01  0.13867275945E+04  0.15600088893E+04  0.65864270000E+03 0.  0.
    8880022    1    1    2    0    0  0.27709337399E+03  0.48341610208E+01  0.10526077606E+04  0.10991718963E+04  0.15294330000E+03 0.  0.
<mgrwt>
<rscale>  0 0.58296306E+03</rscale>
<asrwt>0</asrwt>
<pdfrwt beam="1">  1        1 0.39219351E+00 0.71457282E+03</pdfrwt>
<pdfrwt beam="2">  1       -1 0.16911189E-01 0.71457282E+03</pdfrwt>
<totfact> 0.35536533E+01</totfact>
</mgrwt>
</event>
<event>
 4    5  0.7214169E-008  0.7309797E+03  0.7818608E-02  0.9887047E-01
          1   -1    0    0  501    0  0.00000000000E+00  0.00000000000E+00  0.20285392082E+04  0.20285392083E+04  0.50400000000E-02 0. -1.
         -1   -1    0    0    0  501 -0.00000000000E+00 -0.00000000000E+00 -0.24172296468E+03  0.24172296473E+03  0.50400000000E-02 0.  1.
    8880023    1    1    2    0    0  0.22248884337E+03  0.22587571562E+03  0.38747756549E+03  0.82732713866E+03  0.65864270000E+03 0.  1.
    8880022    1    1    2    0    0 -0.22248884337E+03 -0.22587571562E+03  0.13993386781E+04  0.14429350343E+04  0.15294330000E+03 0.  0.
<mgrwt>
<rscale>  0 0.60893159E+03</rscale>
<asrwt>0</asrwt>
<pdfrwt beam="1">  1        1 0.31208294E+00 0.73097971E+03</pdfrwt>
<pdfrwt beam="2">  1       -1 0.37188150E-01 0.73097971E+03</pdfrwt>
<totfact> 0.20691230E+01</totfact>
</mgrwt>
</event>
<event>
 4    5  0.7214169E-008  0.9068790E+03  0.7818608E-02  0.9515078E-01
         -1   -1    0    0    0  501 -0.00000000000E+00  0.00000000000E+00  0.51644121954E+03  0.51644121956E+03  0.50400000000E-02 0.  1.
          1   -1    0    0  501    0  0.00000000000E+00 -0.00000000000E+00 -0.17377127499E+04  0.17377127499E+04  0.50400000000E-02 0. -1.
    8880023    1    1    2    0    0  0.63043198748E+02  0.62019739912E+03 -0.37616879118E+02  0.90765879858E+03  0.65864270000E+03 0.  1.
    8880022    1    1    2    0    0 -0.63043198748E+02 -0.62019739912E+03 -0.11836546513E+04  0.13464951709E+04  0.15294330000E+03 0.  0.
<mgrwt>
<rscale>  0 0.83181278E+03</rscale>
<asrwt>0</asrwt>
<pdfrwt beam="1">  1        1 0.26734042E+00 0.90687897E+03</pdfrwt>
<pdfrwt beam="2">  1       -1 0.79452496E-01 0.90687897E+03</pdfrwt>
<totfact> 0.72522507E+00</totfact>
</mgrwt>
</event>
<event>
 4    5  0.7214169E-008  0.1336935E+04  0.7818608E-02  0.9034303E-01
          1   -1    0    0  501    0  0.00000000000E+00  0.00000000000E+00  0.88843349504E+03  0.88843349506E+03  0.50400000000E-02 0. -1.
         -1   -1    0    0    0  501 -0.00000000000E+00 -0.00000000000E+00 -0.45775050787E+04  0.45775050787E+04  0.50400000000E-02 0.  1.
    8880023    1    1    2    0    0 -0.59673711183E+03 -0.99874428871E+03 -0.40283667196E+04  0.42444238677E+04  0.65864270000E+03 0.  0.
    8880022    1    1    2    0    0  0.59673711183E+03  0.99874428871E+03  0.33929513593E+03  0.12215147061E+04  0.15294330000E+03 0.  0.
<mgrwt>
<rscale>  0 0.12940426E+04</rscale>
<asrwt>0</asrwt>
<pdfrwt beam="1">  1        1 0.13668208E+00 0.13369351E+04</pdfrwt>
<pdfrwt beam="2">  1       -1 0.70423154E+00 0.13369351E+04</pdfrwt>
<totfact> 0.34483945E-03</totfact>
</mgrwt>
</event>
<event>
 4    5  0.7214169E-008  0.1169755E+04  0.7818608E-02  0.9187098E-01
         -1   -1    0    0    0  501 -0.00000000000E+00  0.00000000000E+00  0.92076999984E+03  0.92076999985E+03  0.50400000000E-02 0.  1.
          1   -1    0    0  501    0  0.00000000000E+00 -0.00000000000E+00 -0.25228779404E+04  0.25228779404E+04  0.50400000000E-02 0. -1.
    8880023    1    1    2    0    0  0.94002910003E+03  0.22552469098E+03  0.38260178969E+03  0.12307357275E+04  0.65864270000E+03 0.  0.
    8880022    1    1    2    0    0 -0.94002910003E+03 -0.22552469098E+03 -0.19847097303E+04  0.22129122128E+04  0.15294330000E+03 0.  0.
<mgrwt>
<rscale>  0 0.11187591E+04</rscale>
<asrwt>0</asrwt>
<pdfrwt beam="1">  1        1 0.38813507E+00 0.11697548E+04</pdfrwt>
<pdfrwt beam="2">  1       -1 0.14165692E+00 0.11697548E+04</pdfrwt>
<totfact> 0.52644768E-01</totfact>
</mgrwt>
</event>
<event>
 4    5  0.7214169E-008  0.6786050E+03  0.7818608E-02  0.1010124E+00
          1   -1    0    0  501    0  0.00000000000E+00  0.00000000000E+00  0.84736176264E+03  0.84736176265E+03  0.50400000000E-02 0. -1.
         -1   -1    0    0    0  501 -0.00000000000E+00 -0.00000000000E+00 -0.64959005080E+03  0.64959005082E+03  0.50400000000E-02 0.  1.
    8880023    1    1    2    0    0  0.16331341365E+03  0.48227041904E+01 -0.44823524619E+03  0.81327705718E+03  0.65864270000E+03 0.  1.
    8880022    1    1    2    0    0 -0.16331341365E+03 -0.48227041904E+01  0.64600695803E+03  0.68367475629E+03  0.15294330000E+03 0.  0.
<mgrwt>
<rscale>  0 0.51425382E+03</rscale>
<asrwt>0</asrwt>
<pdfrwt beam="1">  1        1 0.13036335E+00 0.67860499E+03</pdfrwt>
<pdfrwt beam="2">  1       -1 0.99936932E-01 0.67860499E+03</pdfrwt>
<totfact> 0.19926477E+01</totfact>
</mgrwt>
</event>
<event>
 4    5  0.7214169E-008  0.1820827E+04  0.7818608E-02  0.8711103E-01
         -1   -1    0    0    0  501 -0.00000000000E+00  0.00000000000E+00  0.10645572362E+04  0.10645572363E+04  0.50400000000E-02 0.  1.
          1   -1    0    0  501    0  0.00000000000E+00 -0.00000000000E+00 -0.32218677472E+04  0.32218677472E+04  0.50400000000E-02 0. -1.
    8880023    1    1    2    0    0  0.13680334650E+04 -0.10050293448E+04 -0.45349622665E+03  0.18764510596E+04  0.65864270000E+03 0.  0.
    8880022    1    1    2    0    0 -0.13680334650E+04  0.10050293448E+04 -0.17038142843E+04  0.24099739239E+04  0.15294330000E+03 0.  0.
<mgrwt>
<rscale>  0 0.17909958E+04</rscale>
<asrwt>0</asrwt>
<pdfrwt beam="1">  1        1 0.49567196E+00 0.18208267E+04</pdfrwt>
<pdfrwt beam="2">  1       -1 0.16377804E+00 0.18208267E+04</pdfrwt>
<totfact> 0.10266861E-01</totfact>
</mgrwt>
</event>
<event>
 4    5  0.7214169E-008  0.9743496E+03  0.7818608E-02  0.9415913E-01
          1   -1    0    0  501    0  0.00000000000E+00  0.00000000000E+00  0.73426423579E+03  0.73426423581E+03  0.50400000000E-02 0. -1.
         -1   -1    0    0    0  501 -0.00000000000E+00 -0.00000000000E+00 -0.14859938246E+04  0.14859938247E+04  0.50400000000E-02 0.  1.
    8880023    1    1    2    0    0 -0.29004673940E+03  0.65682559975E+03 -0.10458642237E+04  0.14294016791E+04  0.65864270000E+03 0.  1.
    8880022    1    1    2    0    0  0.29004673940E+03 -0.65682559975E+03  0.29413463485E+03  0.79085638137E+03  0.15294330000E+03 0.  0.
<mgrwt>
<rscale>  0 0.90777565E+03</rscale>
<asrwt>0</asrwt>
<pdfrwt beam="1">  1        1 0.11296373E+00 0.97434962E+03</pdfrwt>
<pdfrwt beam="2">  1       -1 0.22861443E+00 0.97434962E+03</pdfrwt>
<totfact> 0.24634072E+00</totfact>
</mgrwt>
</event>
<event>
 4    5  0.7214169E-008  0.9401240E+03  0.7818608E-02  0.9464468E-01
          1   -1    0    0  501    0  0.00000000000E+00  0.00000000000E+00  0.12407790141E+04  0.12407790141E+04  0.50400000000E-02 0. -1.
         -1   -1    0    0    0  501 -0.00000000000E+00 -0.00000000000E+00 -0.61420563536E+03  0.61420563538E+03  0.50400000000E-02 0.  1.
    8880023    1    1    2    0    0  0.64956213811E+03 -0.16760663330E+03  0.24086021042E+02  0.94043250554E+03  0.65864270000E+03 0.  0.
    8880022    1    1    2    0    0 -0.64956213811E+03  0.16760663330E+03  0.60248735771E+03  0.91455214395E+03  0.15294330000E+03 0.  0.
<mgrwt>
<rscale>  0 0.86954901E+03</rscale>
<asrwt>0</asrwt>
<pdfrwt beam="1">  1        1 0.19088908E+00 0.94012401E+03</pdfrwt>
<pdfrwt beam="2">  1       -1 0.94493174E-01 0.94012401E+03</pdfrwt>
<totfact> 0.10925711E+01</totfact>
</mgrwt>
</event>
<event>
 4    5  0.7214169E-008  0.9586902E+03  0.7818608E-02  0.9437720E-01
          1   -1    0    0  501    0  0.00000000000E+00  0.00000000000E+00  0.14401016912E+04  0.14401016912E+04  0.50400000000E-02 0. -1.
         -1   -1    0    0    0  501 -0.00000000000E+00 -0.00000000000E+00 -0.10202651967E+04  0.10202651967E+04  0.50400000000E-02 0.  1.
    8880023    1    1    2    0    0 -0.35425775641E+03  0.59981501629E+03 -0.66167519606E+03  0.11648608857E+04  0.65864270000E+03 0.  0.
    8880022    1    1    2    0    0  0.35425775641E+03 -0.59981501629E+03  0.10815116906E+04  0.12955060022E+04  0.15294330000E+03 0.  0.
<mgrwt>
<rscale>  0 0.89035465E+03</rscale>
<asrwt>0</asrwt>
<pdfrwt beam="1">  1        1 0.22155411E+00 0.95869016E+03</pdfrwt>
<pdfrwt beam="2">  1       -1 0.15696388E+00 0.95869016E+03</pdfrwt>
<totfact> 0.22439522E+00</totfact>
</mgrwt>
</event>
<event>
 4    5  0.7214169E-008  0.8402186E+03  0.7818608E-02  0.9629768E-01
          1   -1    0    0  501    0  0.00000000000E+00  0.00000000000E+00  0.79069286293E+03  0.79069286294E+03  0.50400000000E-02 0. -1.
         -1   -1    0    0    0  501 -0.00000000000E+00 -0.00000000000E+00 -0.60705641203E+03  0.60705641205E+03  0.50400000000E-02 0.  1.
    8880023    1    1    2    0    0 -0.49457051891E+03 -0.16600349553E+03  0.14595035401E+03  0.85280060436E+03  0.65864270000E+03 0. -1.
    8880022    1    1    2    0    0  0.49457051891E+03  0.16600349553E+03  0.37686096893E+02  0.54494867063E+03  0.15294330000E+03 0.  1.
<mgrwt>
<rscale>  0 0.75356876E+03</rscale>
<asrwt>0</asrwt>
<pdfrwt beam="1">  1        1 0.12164506E+00 0.84021864E+03</pdfrwt>
<pdfrwt beam="2">  1       -1 0.93393294E-01 0.84021864E+03</pdfrwt>
<totfact> 0.25483708E+01</totfact>
</mgrwt>
</event>
<event>
 4    5  0.7214169E-008  0.7480053E+03  0.7818608E-02  0.9837213E-01
         -1   -1    0    0    0  501 -0.00000000000E+00  0.00000000000E+00  0.42166642150E+03  0.42166642153E+03  0.50400000000E-02 0.  1.
          1   -1    0    0  501    0  0.00000000000E+00 -0.00000000000E+00 -0.23628125321E+04  0.23628125321E+04  0.50400000000E-02 0. -1.
    8880023    1    1    2    0    0 -0.35055213856E+03  0.53056412673E+02  0.56236612066E+02  0.75011635602E+03  0.65864270000E+03 0.  0.
    8880022    1    1    2    0    0  0.35055213856E+03 -0.53056412673E+02 -0.19973827227E+04  0.20343625977E+04  0.15294330000E+03 0.  0.
<mgrwt>
<rscale>  0 0.63403151E+03</rscale>
<asrwt>0</asrwt>
<pdfrwt beam="1">  1        1 0.36350961E+00 0.74800534E+03</pdfrwt>
<pdfrwt beam="2">  1       -1 0.64871758E-01 0.74800534E+03</pdfrwt>
<totfact> 0.42938584E+00</totfact>
</mgrwt>
</event>
<event>
 4    5  0.7214169E-008  0.1041554E+04  0.7818608E-02  0.9329104E-01
         -1   -1    0    0    0  501 -0.00000000000E+00  0.00000000000E+00  0.12185643026E+04  0.12185643026E+04  0.50400000000E-02 0.  1.
          1   -1    0    0  501    0  0.00000000000E+00 -0.00000000000E+00 -0.12005651164E+04  0.12005651164E+04  0.50400000000E-02 0. -1.
    8880023    1    1    2    0    0 -0.25116167148E+03 -0.76677400023E+03  0.77811574612E+03  0.13001149462E+04  0.65864270000E+03 0.  0.
    8880022    1    1    2    0    0  0.25116167148E+03  0.76677400023E+03 -0.76011655989E+03  0.11190144728E+04  0.15294330000E+03 0.  0.
<mgrwt>
<rscale>  0 0.98147072E+03</rscale>
<asrwt>0</asrwt>
<pdfrwt beam="1">  1        1 0.18470233E+00 0.10415540E+04</pdfrwt>
<pdfrwt beam="2">  1       -1 0.18747143E+00 0.10415540E+04</pdfrwt>
<totfact> 0.19632470E+00</totfact>
</mgrwt>
</event>
<event>
 4    5  0.7214169E-008  0.6857956E+03  0.7818608E-02  0.1006219E+00
          1   -1    0    0  501    0  0.00000000000E+00  0.00000000000E+00  0.45340037305E+03  0.45340037307E+03  0.50400000000E-02 0. -1.
         -1   -1    0    0    0  501 -0.00000000000E+00 -0.00000000000E+00 -0.71514021962E+03  0.71514021964E+03  0.50400000000E-02 0.  1.
    8880023    1    1    2    0    0 -0.18103729887E+03 -0.61080670042E+02 -0.48283977901E+03  0.83871914864E+03  0.65864270000E+03 0.  1.
    8880022    1    1    2    0    0  0.18103729887E+03  0.61080670042E+02  0.22109993244E+03  0.32982144408E+03  0.15294330000E+03 0.  0.
<mgrwt>
<rscale>  0 0.53005586E+03</rscale>
<asrwt>0</asrwt>
<pdfrwt beam="1">  1        1 0.69753904E-01 0.68579557E+03</pdfrwt>
<pdfrwt beam="2">  1       -1 0.11002157E+00 0.68579557E+03</pdfrwt>
<totfact> 0.39759151E+01</totfact>
</mgrwt>
</event>
<event>
 4    5  0.7214169E-008  0.8093256E+03  0.7818608E-02  0.9690983E-01
          1   -1    0    0  501    0  0.00000000000E+00  0.00000000000E+00  0.41399626714E+03  0.41399626717E+03  0.50400000000E-02 0. -1.
         -1   -1    0    0    0  501 -0.00000000000E+00 -0.00000000000E+00 -0.16475496045E+04  0.16475496045E+04  0.50400000000E-02 0.  1.
    8880023    1    1    2    0    0 -0.28914241977E+03 -0.37093717389E+03 -0.13307445068E+04  0.15575265245E+04  0.65864270000E+03 0.  1.
    8880022    1    1    2    0    0  0.28914241977E+03  0.37093717389E+03  0.97191169451E+02  0.50401934716E+03  0.15294330000E+03 0.  0.
<mgrwt>
<rscale>  0 0.71556182E+03</rscale>
<asrwt>0</asrwt>
<pdfrwt beam="1">  1        1 0.63691734E-01 0.80932560E+03</pdfrwt>
<pdfrwt beam="2">  1       -1 0.25346917E+00 0.80932560E+03</pdfrwt>
<totfact> 0.39163905E+00</totfact>
</mgrwt>
</event>
<event>
 4    5  0.7214169E-008  0.1729860E+04  0.7818608E-02  0.8762361E-01
          1   -1    0    0  501    0  0.00000000000E+00  0.00000000000E+00  0.20661301924E+04  0.20661301924E+04  0.50400000000E-02 0. -1.
         -1   -1    0    0    0  501 -0.00000000000E+00 -0.00000000000E+00 -0.15025678059E+04  0.15025678059E+04  0.50400000000E-02 0.  1.
    8880023    1    1    2    0    0  0.12198275432E+04 -0.10347108764E+04 -0.28239246930E+03  0.17527582680E+04  0.65864270000E+03 0.  0.
    8880022    1    1    2    0    0 -0.12198275432E+04  0.10347108764E+04  0.84595485586E+03  0.18159397303E+04  0.15294330000E+03 0.  0.
<mgrwt>
<rscale>  0 0.16982543E+04</rscale>
<asrwt>0</asrwt>
<pdfrwt beam="1">  1        1 0.31786618E+00 0.17298601E+04</pdfrwt>
<pdfrwt beam="2">  1       -1 0.23116428E+00 0.17298601E+04</pdfrwt>
<totfact> 0.22932012E-01</totfact>
</mgrwt>
</event>
<event>
 4    5  0.9053216E-008  0.1428880E+04  0.7818608E-02  0.8961561E-01
         -1   -1    0    0    0  501 -0.00000000000E+00  0.00000000000E+00  0.23747475005E+04  0.23747475005E+04  0.50400000000E-02 0.  1.
          1   -1    0    0  501    0  0.00000000000E+00 -0.00000000000E+00 -0.30116728512E+04  0.30116728512E+04  0.50400000000E-02 0. -1.
    8880023    1    1    2    0    0  0.23901203247E+03 -0.12452958244E+04  0.19991102713E+04  0.24572628116E+04  0.65864270000E+03 0.  0.
    8880022    1    1    2    0    0 -0.23901203247E+03  0.12452958244E+04 -0.26360356219E+04  0.29291575402E+04  0.15294330000E+03 0.  0.
<mgrwt>
<rscale>  0 0.13893541E+04</rscale>
<asrwt>0</asrwt>
<pdfrwt beam="1">  1        1 0.46333429E+00 0.14288802E+04</pdfrwt>
<pdfrwt beam="2">  1       -1 0.36534577E+00 0.14288802E+04</pdfrwt>
<totfact> 0.68952754E-03</totfact>
</mgrwt>
</event>
<event>
 4    5  0.7214169E-008  0.1197424E+04  0.7818608E-02  0.9159630E-01
          1   -1    0    0  501    0  0.00000000000E+00  0.00000000000E+00  0.10070356462E+04  0.10070356462E+04  0.50400000000E-02 0. -1.
         -1   -1    0    0    0  501 -0.00000000000E+00 -0.00000000000E+00 -0.20594607231E+04  0.20594607231E+04  0.50400000000E-02 0.  1.
    8880023    1    1    2    0    0 -0.64379637701E+03 -0.76520631008E+03 -0.15340565418E+04  0.19460611891E+04  0.65864270000E+03 0.  0.
    8880022    1    1    2    0    0  0.64379637701E+03  0.76520631008E+03  0.48163146489E+03  0.11204351802E+04  0.15294330000E+03 0.  0.
<mgrwt>
<rscale>  0 0.11480004E+04</rscale>
<asrwt>0</asrwt>
<pdfrwt beam="1">  1        1 0.15492856E+00 0.11974242E+04</pdfrwt>
<pdfrwt beam="2">  1       -1 0.31684011E+00 0.11974242E+04</pdfrwt>
<totfact> 0.37841855E-01</totfact>
</mgrwt>
</event>
<event>
 4    5  0.7214169E-008  0.7305568E+03  0.7818608E-02  0.9888361E-01
          1   -1    0    0  501    0  0.00000000000E+00  0.00000000000E+00  0.28017874244E+04  0.28017874244E+04  0.50400000000E-02 0. -1.
         -1   -1    0    0    0  501 -0.00000000000E+00 -0.00000000000E+00 -0.56207020690E+03  0.56207020692E+03  0.50400000000E-02 0.  1.
    8880023    1    1    2    0    0 -0.14948768479E+03  0.27848967649E+03 -0.30744045585E+03  0.79261144830E+03  0.65864270000E+03 0.  1.
    8880022    1    1    2    0    0  0.14948768479E+03 -0.27848967649E+03  0.25471576733E+04  0.25712461830E+04  0.15294330000E+03 0.  0.
<mgrwt>
<rscale>  0 0.60828704E+03</rscale>
<asrwt>0</asrwt>
<pdfrwt beam="1">  1        1 0.43104424E+00 0.73055682E+03</pdfrwt>
<pdfrwt beam="2">  1       -1 0.86472336E-01 0.73055682E+03</pdfrwt>
<totfact> 0.11812502E+00</totfact>
</mgrwt>
</event>
<event>
 4    5  0.7214169E-008  0.7098098E+03  0.7818608E-02  0.9958708E-01
          1   -1    0    0  501    0  0.00000000000E+00  0.00000000000E+00  0.16812594193E+04  0.16812594193E+04  0.50400000000E-02 0. -1.
         -1   -1    0    0    0  501 -0.00000000000E+00 -0.00000000000E+00 -0.89178951998E+03  0.89178951999E+03  0.50400000000E-02 0.  1.
    8880023    1    1    2    0    0  0.72285961357E+02  0.25454765029E+03 -0.73291292153E+03  0.10202898232E+04  0.65864270000E+03 0.  0.
    8880022    1    1    2    0    0 -0.72285961357E+02 -0.25454765029E+03  0.15223828208E+04  0.15527591161E+04  0.15294330000E+03 0. -1.
<mgrwt>
<rscale>  0 0.57498498E+03</rscale>
<asrwt>0</asrwt>
<pdfrwt beam="1">  1        1 0.25865529E+00 0.70980981E+03</pdfrwt>
<pdfrwt beam="2">  1       -1 0.13719839E+00 0.70980981E+03</pdfrwt>
<totfact> 0.22924342E+00</totfact>
</mgrwt>
</event>
<event>
 4    5  0.8023757E-008  0.7724202E+03  0.7818608E-02  0.9773953E-01
          1   -1    0    0  501    0  0.00000000000E+00  0.00000000000E+00  0.12048383152E+04  0.12048383152E+04  0.50400000000E-02 0. -1.
         -1   -1    0    0    0  501 -0.00000000000E+00 -0.00000000000E+00 -0.10777490721E+04  0.10777490721E+04  0.50400000000E-02 0.  1.
    8880023    1    1    2    0    0  0.36391897505E+03  0.17431496119E+03 -0.88957996762E+03  0.11781279435E+04  0.65864270000E+03 0.  0.
    8880022    1    1    2    0    0 -0.36391897505E+03 -0.17431496119E+03  0.10166692107E+04  0.11044594439E+04  0.15294330000E+03 0.  0.
<mgrwt>
<rscale>  0 0.66779300E+03</rscale>
<asrwt>0</asrwt>
<pdfrwt beam="1">  1        1 0.18535974E+00 0.77242018E+03</pdfrwt>
<pdfrwt beam="2">  1       -1 0.16580755E+00 0.77242018E+03</pdfrwt>
<totfact> 0.29071857E+00</totfact>
</mgrwt>
</event>
<event>
 4    5  0.7214169E-008  0.1318072E+04  0.7818608E-02  0.9050109E-01
          1   -1    0    0  501    0  0.00000000000E+00  0.00000000000E+00  0.22139979663E+04  0.22139979663E+04  0.50400000000E-02 0. -1.
         -1   -1    0    0    0  501 -0.00000000000E+00 -0.00000000000E+00 -0.80891968105E+03  0.80891968106E+03  0.50400000000E-02 0.  1.
    8880023    1    1    2    0    0 -0.10375568266E+04 -0.47642371546E+03  0.16169126802E+03  0.13279525584E+04  0.65864270000E+03 0.  0.
    8880022    1    1    2    0    0  0.10375568266E+04  0.47642371546E+03  0.12433870172E+04  0.16949650889E+04  0.15294330000E+03 0.  0.
<mgrwt>
<rscale>  0 0.12744093E+04</rscale>
<asrwt>0</asrwt>
<pdfrwt beam="1">  1        1 0.34061507E+00 0.13180721E+04</pdfrwt>
<pdfrwt beam="2">  1       -1 0.12444918E+00 0.13180721E+04</pdfrwt>
<totfact> 0.11717739E+00</totfact>
</mgrwt>
</event>
<event>
 4    5  0.7214169E-008  0.6644547E+03  0.7818608E-02  0.1019995E+00
          1   -1    0    0  501    0  0.00000000000E+00  0.00000000000E+00  0.17339824484E+04  0.17339824484E+04  0.50400000000E-02 0. -1.
         -1   -1    0    0    0  501 -0.00000000000E+00 -0.00000000000E+00 -0.33720256469E+03  0.33720256473E+03  0.50400000000E-02 0.  1.
    8880023    1    1    2    0    0  0.85635137493E+02 -0.18879956493E+02  0.11416933685E+01  0.66445567140E+03  0.65864270000E+03 0.  1.
    8880022    1    1    2    0    0 -0.85635137493E+02  0.18879956493E+02  0.13956381903E+04  0.14067293417E+04  0.15294330000E+03 0.  0.
<mgrwt>
<rscale>  0 0.47688289E+03</rscale>
<asrwt>0</asrwt>
<pdfrwt beam="1">  1        1 0.26676653E+00 0.66445469E+03</pdfrwt>
<pdfrwt beam="2">  1       -1 0.51877317E-01 0.66445469E+03</pdfrwt>
<totfact> 0.17773757E+01</totfact>
</mgrwt>
</event>
<event>
 4    5  0.7214169E-008  0.9096500E+03  0.7818608E-02  0.9510714E-01
          1   -1    0    0  501    0  0.00000000000E+00  0.00000000000E+00  0.55412761810E+03  0.55412761813E+03  0.50400000000E-02 0. -1.
         -1   -1    0    0    0  501 -0.00000000000E+00 -0.00000000000E+00 -0.16088838421E+04  0.16088838421E+04  0.50400000000E-02 0.  1.
    8880023    1    1    2    0    0  0.55701232725E+03  0.28877369783E+03 -0.11953378013E+04  0.15020970830E+04  0.65864270000E+03 0.  0.
    8880022    1    1    2    0    0 -0.55701232725E+03 -0.28877369783E+03  0.14058157723E+03  0.66091437731E+03  0.15294330000E+03 0.  0.
<mgrwt>
<rscale>  0 0.83498481E+03</rscale>
<asrwt>0</asrwt>
<pdfrwt beam="1">  1        1 0.85250403E-01 0.90965004E+03</pdfrwt>
<pdfrwt beam="2">  1       -1 0.24752059E+00 0.90965004E+03</pdfrwt>
<totfact> 0.28318780E+00</totfact>
</mgrwt>
</event>
<event>
 4    5  0.7214169E-008  0.1419328E+04  0.7818608E-02  0.8968808E-01
          1   -1    0    0  501    0  0.00000000000E+00  0.00000000000E+00  0.17376959753E+04  0.17376959753E+04  0.50400000000E-02 0. -1.
         -1   -1    0    0    0  501 -0.00000000000E+00 -0.00000000000E+00 -0.13799163796E+04  0.13799163796E+04  0.50400000000E-02 0.  1.
    8880023    1    1    2    0    0 -0.12004755351E+04  0.37355221568E+03 -0.58863016079E+03  0.15365475719E+04  0.65864270000E+03 0.  0.
    8880022    1    1    2    0    0  0.12004755351E+04 -0.37355221568E+03  0.94640975650E+03  0.15810647831E+04  0.15294330000E+03 0.  0.
<mgrwt>
<rscale>  0 0.13794794E+04</rscale>
<asrwt>0</asrwt>
<pdfrwt beam="1">  1        1 0.26733784E+00 0.14193284E+04</pdfrwt>
<pdfrwt beam="2">  1       -1 0.21229483E+00 0.14193284E+04</pdfrwt>
<totfact> 0.53159199E-01</totfact>
</mgrwt>
</event>
<event>
 4    5  0.7214169E-008  0.1431887E+04  0.7818608E-02  0.8959294E-01
          1   -1    0    0  501    0  0.00000000000E+00  0.00000000000E+00  0.24016972063E+04  0.24016972063E+04  0.50400000000E-02 0. -1.
         -1   -1    0    0    0  501 -0.00000000000E+00 -0.00000000000E+00 -0.20313062194E+04  0.20313062195E+04  0.50400000000E-02 0.  1.
    8880023    1    1    2    0    0  0.11947910268E+04  0.43470068061E+03 -0.15593346610E+04  0.21170321374E+04  0.65864270000E+03 0.  1.
    8880022    1    1    2    0    0 -0.11947910268E+04 -0.43470068061E+03  0.19297256479E+04  0.23159712884E+04  0.15294330000E+03 0.  0.
<mgrwt>
<rscale>  0 0.13924613E+04</rscale>
<asrwt>0</asrwt>
<pdfrwt beam="1">  1        1 0.36949188E+00 0.14318870E+04</pdfrwt>
<pdfrwt beam="2">  1       -1 0.31250865E+00 0.14318870E+04</pdfrwt>
<totfact> 0.41350006E-02</totfact>
</mgrwt>
</event>
<event>
 4    5  0.7214169E-008  0.8076584E+03  0.7818608E-02  0.9694475E-01
         -1   -1    0    0    0  501 -0.00000000000E+00  0.00000000000E+00  0.13561438111E+04  0.13561438112E+04  0.50400000000E-02 0.  1.
          1   -1    0    0  501    0  0.00000000000E+00 -0.00000000000E+00 -0.12100389697E+04  0.12100389697E+04  0.50400000000E-02 0. -1.
    8880023    1    1    2    0    0  0.20967538650E+03  0.41777753934E+03  0.11749819744E+04  0.14257961588E+04  0.65864270000E+03 0.  0.
    8880022    1    1    2    0    0 -0.20967538650E+03 -0.41777753934E+03 -0.10288771330E+04  0.11403866221E+04  0.15294330000E+03 0. -1.
<mgrwt>
<rscale>  0 0.71346685E+03</rscale>
<asrwt>0</asrwt>
<pdfrwt beam="1">  1        1 0.18615984E+00 0.80765837E+03</pdfrwt>
<pdfrwt beam="2">  1       -1 0.20863751E+00 0.80765837E+03</pdfrwt>
<totfact> 0.14306659E+00</totfact>
</mgrwt>
</event>
<event>
 4    5  0.7214169E-008  0.7940198E+03  0.7818608E-02  0.9723879E-01
         -1   -1    0    0    0  501 -0.00000000000E+00  0.00000000000E+00  0.84429675908E+03  0.84429675909E+03  0.50400000000E-02 0.  1.
          1   -1    0    0  501    0  0.00000000000E+00 -0.00000000000E+00 -0.86073992628E+03  0.86073992630E+03  0.50400000000E-02 0. -1.
    8880023    1    1    2    0    0  0.35945528222E+03  0.25970971346E+03  0.55273661950E+03  0.96746328715E+03  0.65864270000E+03 0.  1.
    8880022    1    1    2    0    0 -0.35945528222E+03 -0.25970971346E+03 -0.56917978671E+03  0.73757339824E+03  0.15294330000E+03 0.  0.
<mgrwt>
<rscale>  0 0.69612687E+03</rscale>
<asrwt>0</asrwt>
<pdfrwt beam="1">  1        1 0.13242153E+00 0.79401980E+03</pdfrwt>
<pdfrwt beam="2">  1       -1 0.12989181E+00 0.79401980E+03</pdfrwt>
<totfact> 0.10222870E+01</totfact>
</mgrwt>
</event>
<event>
 4    5  0.7214169E-008  0.8542985E+03  0.7818608E-02  0.9603787E-01
          1   -1    0    0  501    0  0.00000000000E+00  0.00000000000E+00  0.33956036885E+04  0.33956036885E+04  0.50400000000E-02 0. -1.
         -1   -1    0    0    0  501 -0.00000000000E+00 -0.00000000000E+00 -0.43258027930E+03  0.43258027933E+03  0.50400000000E-02 0.  1.
    8880023    1    1    2    0    0 -0.48258952927E+03 -0.25124298232E+03  0.44514247634E+02  0.85545742993E+03  0.65864270000E+03 0.  0.
    8880022    1    1    2    0    0  0.48258952927E+03  0.25124298232E+03  0.29185091615E+04  0.29727265379E+04  0.15294330000E+03 0.  0.
<mgrwt>
<rscale>  0 0.77046043E+03</rscale>
<asrwt>0</asrwt>
<pdfrwt beam="1">  1        1 0.52240058E+00 0.85429848E+03</pdfrwt>
<pdfrwt beam="2">  1       -1 0.66550811E-01 0.85429848E+03</pdfrwt>
<totfact> 0.73529950E-01</totfact>
</mgrwt>
</event>
<event>
 4    5  0.7214169E-008  0.8476797E+03  0.7818608E-02  0.9615866E-01
         -1   -1    0    0    0  501 -0.00000000000E+00  0.00000000000E+00  0.61223659103E+03  0.61223659105E+03  0.50400000000E-02 0.  1.
          1   -1    0    0  501    0  0.00000000000E+00 -0.00000000000E+00 -0.11751746347E+04  0.11751746347E+04  0.50400000000E-02 0. -1.
    8880023    1    1    2    0    0  0.53687426114E+02  0.53091268805E+03 -0.81665925803E+03  0.11770697397E+04  0.65864270000E+03 0. -1.
    8880022    1    1    2    0    0 -0.53687426114E+02 -0.53091268805E+03  0.25372121433E+03  0.61034148611E+03  0.15294330000E+03 0.  0.
<mgrwt>
<rscale>  0 0.76254897E+03</rscale>
<asrwt>0</asrwt>
<pdfrwt beam="1">  1        1 0.18079610E+00 0.84767967E+03</pdfrwt>
<pdfrwt beam="2">  1       -1 0.94190245E-01 0.84767967E+03</pdfrwt>
<totfact> 0.12412055E+01</totfact>
</mgrwt>
</event>
<event>
 4    5  0.7214169E-008  0.6713424E+03  0.7818608E-02  0.1014718E+00
         -1   -1    0    0    0  501 -0.00000000000E+00  0.00000000000E+00  0.35028694222E+03  0.35028694226E+03  0.50400000000E-02 0.  1.
          1   -1    0    0  501    0  0.00000000000E+00 -0.00000000000E+00 -0.19957830553E+04  0.19957830553E+04  0.50400000000E-02 0. -1.
    8880023    1    1    2    0    0 -0.12982703308E+03 -0.59427298771E+01  0.16946177890E+02  0.67155621787E+03  0.65864270000E+03 0.  1.
    8880022    1    1    2    0    0  0.12982703308E+03  0.59427298771E+01 -0.16624422909E+04  0.16745137796E+04  0.15294330000E+03 0.  0.
<mgrwt>
<rscale>  0 0.49641736E+03</rscale>
<asrwt>0</asrwt>
<pdfrwt beam="1">  1        1 0.30704354E+00 0.67134237E+03</pdfrwt>
<pdfrwt beam="2">  1       -1 0.53890300E-01 0.67134237E+03</pdfrwt>
<totfact> 0.11040377E+01</totfact>
</mgrwt>
</event>
<event>
 4    5  0.7214169E-008  0.1170812E+04  0.7818608E-02  0.9186030E-01
         -1   -1    0    0    0  501 -0.00000000000E+00  0.00000000000E+00  0.22343604507E+04  0.22343604507E+04  0.50400000000E-02 0.  1.
          1   -1    0    0  501    0  0.00000000000E+00 -0.00000000000E+00 -0.94542607514E+03  0.94542607515E+03  0.50400000000E-02 0. -1.
    8880023    1    1    2    0    0 -0.46979795218E+03  0.84633403792E+03  0.17429894052E+04  0.20997175268E+04  0.65864270000E+03 0.  1.
    8880022    1    1    2    0    0  0.46979795218E+03 -0.84633403792E+03 -0.45405502966E+03  0.10800689990E+04  0.15294330000E+03 0. -1.
<mgrwt>
<rscale>  0 0.11198788E+04</rscale>
<asrwt>0</asrwt>
<pdfrwt beam="1">  1        1 0.14545017E+00 0.11708124E+04</pdfrwt>
<pdfrwt beam="2">  1       -1 0.34374776E+00 0.11708124E+04</pdfrwt>
<totfact> 0.28373016E-01</totfact>
</mgrwt>
</event>
<event>
 4    5  0.7214169E-008  0.7908254E+03  0.7818608E-02  0.9730996E-01
          1   -1    0    0  501    0  0.00000000000E+00  0.00000000000E+00  0.14819934367E+04  0.14819934367E+04  0.50400000000E-02 0. -1.
         -1   -1    0    0    0  501 -0.00000000000E+00 -0.00000000000E+00 -0.35968503908E+03  0.35968503911E+03  0.50400000000E-02 0.  1.
    8880023    1    1    2    0    0  0.37395732830E+03 -0.22748742296E+03  0.20988588314E+03  0.81820345954E+03  0.65864270000E+03 0.  0.
    8880022    1    1    2    0    0 -0.37395732830E+03  0.22748742296E+03  0.91242251448E+03  0.10234750163E+04  0.15294330000E+03 0.  0.
<mgrwt>
<rscale>  0 0.69200909E+03</rscale>
<asrwt>0</asrwt>
<pdfrwt beam="1">  1        1 0.22799900E+00 0.79082540E+03</pdfrwt>
<pdfrwt beam="2">  1       -1 0.55336158E-01 0.79082540E+03</pdfrwt>
<totfact> 0.22858348E+01</totfact>
</mgrwt>
</event>
<event>
 4    5  0.7214169E-008  0.8915740E+03  0.7818608E-02  0.9539696E-01
          1   -1    0    0  501    0  0.00000000000E+00  0.00000000000E+00  0.11507365045E+04  0.11507365045E+04  0.50400000000E-02 0. -1.
         -1   -1    0    0    0  501 -0.00000000000E+00 -0.00000000000E+00 -0.64264695894E+03  0.64264695896E+03  0.50400000000E-02 0.  1.
    8880023    1    1    2    0    0  0.30256641240E+03 -0.51917969536E+03 -0.13305342136E+03  0.90144739679E+03  0.65864270000E+03 0.  1.
    8880022    1    1    2    0    0 -0.30256641240E+03  0.51917969536E+03  0.64114296689E+03  0.89193606665E+03  0.15294330000E+03 0.  0.
<mgrwt>
<rscale>  0 0.81419431E+03</rscale>
<asrwt>0</asrwt>
<pdfrwt beam="1">  1        1 0.17703638E+00 0.89157400E+03</pdfrwt>
<pdfrwt beam="2">  1       -1 0.98868764E-01 0.89157400E+03</pdfrwt>
<totfact> 0.11535972E+01</totfact>
</mgrwt>
</event>
<event>
 4    5  0.7214169E-008  0.7455953E+03  0.7818608E-02  0.9843938E-01
          1   -1    0    0  501    0  0.00000000000E+00  0.00000000000E+00  0.10963057955E+04  0.10963057955E+04  0.50400000000E-02 0. -1.
         -1   -1    0    0    0  501 -0.00000000000E+00 -0.00000000000E+00 -0.92360852092E+03  0.92360852094E+03  0.50400000000E-02 0.  1.
    8880023    1    1    2    0    0 -0.16516193220E+03 -0.30793463652E+03 -0.72782406112E+03  0.10419406290E+04  0.65864270000E+03 0.  0.
    8880022    1    1    2    0    0  0.16516193220E+03  0.30793463652E+03  0.90052133569E+03  0.97797368741E+03  0.15294330000E+03 0.  0.
<mgrwt>
<rscale>  0 0.63056951E+03</rscale>
<asrwt>0</asrwt>
<pdfrwt beam="1">  1        1 0.16866243E+00 0.74559534E+03</pdfrwt>
<pdfrwt beam="2">  1       -1 0.14209362E+00 0.74559534E+03</pdfrwt>
<totfact> 0.53375898E+00</totfact>
</mgrwt>
</event>
<event>
 4    5  0.7214169E-008  0.7931580E+03  0.7818608E-02  0.9725790E-01
         -1   -1    0    0    0  501 -0.00000000000E+00  0.00000000000E+00  0.10777216711E+04  0.10777216711E+04  0.50400000000E-02 0.  1.
          1   -1    0    0  501    0  0.00000000000E+00 -0.00000000000E+00 -0.55402878579E+03  0.55402878582E+03  0.50400000000E-02 0. -1.
    8880023    1    1    2    0    0  0.40523252267E+02 -0.44005379063E+03  0.76808339782E+03  0.11041067815E+04  0.65864270000E+03 0.  0.
    8880022    1    1    2    0    0 -0.40523252267E+02  0.44005379063E+03 -0.24439051252E+03  0.52764367545E+03  0.15294330000E+03 0.  0.
<mgrwt>
<rscale>  0 0.69501825E+03</rscale>
<asrwt>0</asrwt>
<pdfrwt beam="1">  1        1 0.85235198E-01 0.79315804E+03</pdfrwt>
<pdfrwt beam="2">  1       -1 0.16580333E+00 0.79315804E+03</pdfrwt>
<totfact> 0.10400195E+01</totfact>
</mgrwt>
</event>
<event>
 4    5  0.7214169E-008  0.1134356E+04  0.7818608E-02  0.9223736E-01
          1   -1    0    0  501    0  0.00000000000E+00  0.00000000000E+00  0.11961520133E+04  0.11961520133E+04  0.50400000000E-02 0. -1.
         -1   -1    0    0    0  501 -0.00000000000E+00 -0.00000000000E+00 -0.11143734024E+04  0.11143734024E+04  0.50400000000E-02 0.  1.
    8880023    1    1    2    0    0  0.79789796188E+03 -0.46509305435E+03  0.55357536987E+03  0.12622236740E+04  0.65864270000E+03 0.  0.
    8880022    1    1    2    0    0 -0.79789796188E+03  0.46509305435E+03 -0.47179675898E+03  0.10483017417E+04  0.15294330000E+03 0.  0.
<mgrwt>
<rscale>  0 0.10811758E+04</rscale>
<asrwt>0</asrwt>
<pdfrwt beam="1">  1        1 0.18402339E+00 0.11343557E+04</pdfrwt>
<pdfrwt beam="2">  1       -1 0.17144206E+00 0.11343557E+04</pdfrwt>
<totfact> 0.25508810E+00</totfact>
</mgrwt>
</event>
<event>
 4    5  0.7214169E-008  0.8536997E+03  0.7818608E-02  0.9604870E-01
          1   -1    0    0  501    0  0.00000000000E+00  0.00000000000E+00  0.21370468794E+04  0.21370468794E+04  0.50400000000E-02 0. -1.
         -1   -1    0    0    0  501 -0.00000000000E+00 -0.00000000000E+00 -0.34647982729E+03  0.34647982732E+03  0.50400000000E-02 0.  1.
    8880023    1    1    2    0    0 -0.47726430151E+03  0.25925238406E+03  0.32565920830E+03  0.91370517037E+03  0.65864270000E+03 0.  1.
    8880022    1    1    2    0    0  0.47726430151E+03 -0.25925238406E+03  0.14649078438E+04  0.15698215364E+04  0.15294330000E+03 0.  0.
<mgrwt>
<rscale>  0 0.76974677E+03</rscale>
<asrwt>0</asrwt>
<pdfrwt beam="1">  1        1 0.32877645E+00 0.85369972E+03</pdfrwt>
<pdfrwt beam="2">  1       -1 0.53304588E-01 0.85369972E+03</pdfrwt>
<totfact> 0.88132932E+00</totfact>
</mgrwt>
</event>
<event>
 4    5  0.7214169E-008  0.8362957E+03  0.7818608E-02  0.9637205E-01
         -1   -1    0    0    0  501 -0.00000000000E+00  0.00000000000E+00  0.77701426124E+03  0.77701426125E+03  0.50400000000E-02 0.  1.
          1   -1    0    0  501    0  0.00000000000E+00 -0.00000000000E+00 -0.27699574897E+04  0.27699574897E+04  0.50400000000E-02 0. -1.
    8880023    1    1    2    0    0 -0.51514724327E+03 -0.14270528046E+02  0.51494386530E+03  0.98211899528E+03  0.65864270000E+03 0.  1.
    8880022    1    1    2    0    0  0.51514724327E+03  0.14270528046E+02 -0.25078870938E+04  0.25648527557E+04  0.15294330000E+03 0.  0.
<mgrwt>
<rscale>  0 0.74881903E+03</rscale>
<asrwt>0</asrwt>
<pdfrwt beam="1">  1        1 0.42614730E+00 0.83629572E+03</pdfrwt>
<pdfrwt beam="2">  1       -1 0.11954066E+00 0.83629572E+03</pdfrwt>
<totfact> 0.57757869E-01</totfact>
</mgrwt>
</event>
<event>
 4    5  0.7214169E-008  0.1765289E+04  0.7818608E-02  0.8741984E-01
          1   -1    0    0  501    0  0.00000000000E+00  0.00000000000E+00  0.31117422853E+04  0.31117422853E+04  0.50400000000E-02 0. -1.
         -1   -1    0    0    0  501 -0.00000000000E+00 -0.00000000000E+00 -0.14750860036E+04  0.14750860036E+04  0.50400000000E-02 0.  1.
    8880023    1    1    2    0    0  0.16611324597E+03 -0.16293688632E+04  0.22246551153E+04  0.28399537129E+04  0.65864270000E+03 0.  0.
    8880022    1    1    2    0    0 -0.16611324597E+03  0.16293688632E+04 -0.58799883362E+03  0.17468745760E+04  0.15294330000E+03 0.  0.
<mgrwt>
<rscale>  0 0.17344008E+04</rscale>
<asrwt>0</asrwt>
<pdfrwt beam="1">  1        1 0.47872958E+00 0.17652894E+04</pdfrwt>
<pdfrwt beam="2">  1       -1 0.22693631E+00 0.17652894E+04</pdfrwt>
<totfact> 0.44770513E-02</totfact>
</mgrwt>
</event>
<event>
 4    5  0.7214169E-008  0.8308905E+03  0.7818608E-02  0.9647602E-01
          1   -1    0    0  501    0  0.00000000000E+00  0.00000000000E+00  0.95047599992E+03  0.95047599994E+03  0.50400000000E-02 0. -1.
         -1   -1    0    0    0  501 -0.00000000000E+00 -0.00000000000E+00 -0.86677310564E+03  0.86677310565E+03  0.50400000000E-02 0.  1.
    8880023    1    1    2    0    0 -0.32167606049E+03 -0.39127141025E+03 -0.54640336673E+03  0.99445243717E+03  0.65864270000E+03 0.  0.
    8880022    1    1    2    0    0  0.32167606049E+03  0.39127141025E+03  0.63010626101E+03  0.82279666841E+03  0.15294330000E+03 0.  0.
<mgrwt>
<rscale>  0 0.74224098E+03</rscale>
<asrwt>0</asrwt>
<pdfrwt beam="1">  1        1 0.14622708E+00 0.83089049E+03</pdfrwt>
<pdfrwt beam="2">  1       -1 0.13334971E+00 0.83089049E+03</pdfrwt>
<totfact> 0.80466215E+00</totfact>
</mgrwt>
</event>
<event>
 4    5  0.7214169E-008  0.1290695E+04  0.7818608E-02  0.9073637E-01
          1   -1    0    0  501    0  0.00000000000E+00  0.00000000000E+00  0.93546753613E+03  0.93546753614E+03  0.50400000000E-02 0. -1.
         -1   -1    0    0    0  501 -0.00000000000E+00 -0.00000000000E+00 -0.16706894038E+04  0.16706894038E+04  0.50400000000E-02 0.  1.
    8880023    1    1    2    0    0  0.84699754535E+03 -0.71741169125E+03 -0.73575825581E+03  0.14856765441E+04  0.65864270000E+03 0.  0.
    8880022    1    1    2    0    0 -0.84699754535E+03  0.71741169125E+03  0.53638818745E+00  0.11204803958E+04  0.15294330000E+03 0.  0.
<mgrwt>
<rscale>  0 0.12458589E+04</rscale>
<asrwt>0</asrwt>
<pdfrwt beam="1">  1        1 0.14391808E+00 0.12906954E+04</pdfrwt>
<pdfrwt beam="2">  1       -1 0.25702914E+00 0.12906954E+04</pdfrwt>
<totfact> 0.10392146E+00</totfact>
</mgrwt>
</event>
<event>
 4    5  0.7214169E-008  0.8634196E+03  0.7818608E-02  0.9587509E-01
         -1   -1    0    0    0  501 -0.00000000000E+00  0.00000000000E+00  0.36551548285E+03  0.36551548288E+03  0.50400000000E-02 0.  1.
          1   -1    0    0  501    0  0.00000000000E+00 -0.00000000000E+00 -0.16973793363E+04  0.16973793363E+04  0.50400000000E-02 0. -1.
    8880023    1    1    2    0    0  0.73939910890E+02  0.55336801603E+03 -0.36800644812E+03  0.93857457014E+03  0.65864270000E+03 0.  1.
    8880022    1    1    2    0    0 -0.73939910890E+02 -0.55336801603E+03 -0.96385740530E+03  0.11243202490E+04  0.15294330000E+03 0. -1.
<mgrwt>
<rscale>  0 0.78128446E+03</rscale>
<asrwt>0</asrwt>
<pdfrwt beam="1">  1        1 0.26113528E+00 0.86341964E+03</pdfrwt>
<pdfrwt beam="2">  1       -1 0.56233152E-01 0.86341964E+03</pdfrwt>
<totfact> 0.15668509E+01</totfact>
</mgrwt>
</event>
<event>
 4    5  0.7214169E-008  0.7274532E+03  0.7818608E-02  0.9898129E-01
          1   -1    0    0  501    0  0.00000000000E+00  0.00000000000E+00  0.16918952219E+04  0.16918952219E+04  0.50400000000E-02 0. -1.
         -1   -1    0    0    0  501 -0.00000000000E+00 -0.00000000000E+00 -0.32442474808E+03  0.32442474812E+03  0.50400000000E-02 0.  1.
    8880023    1    1    2    0    0 -0.69361772713E+01  0.30875540266E+03  0.13924468426E+03  0.74066004184E+03  0.65864270000E+03 0.  1.
    8880022    1    1    2    0    0  0.69361772713E+01 -0.30875540266E+03  0.12282257896E+04  0.12756599282E+04  0.15294330000E+03 0.  0.
<mgrwt>
<rscale>  0 0.60352047E+03</rscale>
<asrwt>0</asrwt>
<pdfrwt beam="1">  1        1 0.26029157E+00 0.72745324E+03</pdfrwt>
<pdfrwt beam="2">  1       -1 0.49911501E-01 0.72745324E+03</pdfrwt>
<totfact> 0.20220397E+01</totfact>
</mgrwt>
</event>
<event>
 4    5  0.7214169E-008  0.8168714E+03  0.7818608E-02  0.9675438E-01
          1   -1    0    0  501    0  0.00000000000E+00  0.00000000000E+00  0.15218990957E+04  0.15218990958E+04  0.50400000000E-02 0. -1.
         -1   -1    0    0    0  501 -0.00000000000E+00 -0.00000000000E+00 -0.64951875201E+03  0.64951875203E+03  0.50400000000E-02 0.  1.
    8880023    1    1    2    0    0  0.48130628802E+03 -0.42579090940E+02 -0.31881996464E+03  0.87688374257E+03  0.65864270000E+03 0.  1.
    8880022    1    1    2    0    0 -0.48130628802E+03  0.42579090940E+02  0.11912003084E+04  0.12945341052E+04  0.15294330000E+03 0.  0.
<mgrwt>
<rscale>  0 0.72498232E+03</rscale>
<asrwt>0</asrwt>
<pdfrwt beam="1">  1        1 0.23413832E+00 0.81687143E+03</pdfrwt>
<pdfrwt beam="2">  1       -1 0.99925961E-01 0.81687143E+03</pdfrwt>
<totfact> 0.62147126E+00</totfact>
</mgrwt>
</event>
<event>
 4    5  0.7214169E-008  0.8034136E+03  0.7818608E-02  0.9703463E-01
          1   -1    0    0  501    0  0.00000000000E+00  0.00000000000E+00  0.77326635012E+03  0.77326635013E+03  0.50400000000E-02 0. -1.
         -1   -1    0    0    0  501 -0.00000000000E+00 -0.00000000000E+00 -0.57517459327E+03  0.57517459329E+03  0.50400000000E-02 0.  1.
    8880023    1    1    2    0    0  0.38528918043E+03 -0.25142675020E+03 -0.47783171815E+02  0.80483327531E+03  0.65864270000E+03 0.  0.
    8880022    1    1    2    0    0 -0.38528918043E+03  0.25142675020E+03  0.24587492866E+03  0.54360766811E+03  0.15294330000E+03 0.  0.
<mgrwt>
<rscale>  0 0.70810966E+03</rscale>
<asrwt>0</asrwt>
<pdfrwt beam="1">  1        1 0.11896405E+00 0.80341357E+03</pdfrwt>
<pdfrwt beam="2">  1       -1 0.88488398E-01 0.80341357E+03</pdfrwt>
<totfact> 0.29850351E+01</totfact>
</mgrwt>
</event>
<event>
 4    5  0.7214169E-008  0.1165133E+04  0.7818608E-02  0.9191784E-01
         -1   -1    0    0    0  501 -0.00000000000E+00  0.00000000000E+00  0.15231709429E+04  0.15231709429E+04  0.50400000000E-02 0.  1.
          1   -1    0    0  501    0  0.00000000000E+00 -0.00000000000E+00 -0.15257276236E+04  0.15257276236E+04  0.50400000000E-02 0. -1.
    8880023    1    1    2    0    0  0.45670986994E+03  0.84565955767E+03  0.10831697116E+04  0.15908459458E+04  0.65864270000E+03 0.  1.
    8880022    1    1    2    0    0 -0.45670986994E+03 -0.84565955767E+03 -0.10857263923E+04  0.14580526207E+04  0.15294330000E+03 0.  0.
<mgrwt>
<rscale>  0 0.11138634E+04</rscale>
<asrwt>0</asrwt>
<pdfrwt beam="1">  1        1 0.23472733E+00 0.11651327E+04</pdfrwt>
<pdfrwt beam="2">  1       -1 0.23433399E+00 0.11651327E+04</pdfrwt>
<totfact> 0.54651259E-01</totfact>
</mgrwt>
</event>
<event>
 4    5  0.7214169E-008  0.8448832E+03  0.7818608E-02  0.9621040E-01
          1   -1    0    0  501    0  0.00000000000E+00  0.00000000000E+00  0.13137676249E+04  0.13137676249E+04  0.50400000000E-02 0. -1.
         -1   -1    0    0    0  501 -0.00000000000E+00 -0.00000000000E+00 -0.12552294717E+04  0.12552294717E+04  0.50400000000E-02 0.  1.
    8880023    1    1    2    0    0 -0.21988847195E+03  0.48131744736E+03 -0.10400966639E+04  0.13400107095E+04  0.65864270000E+03 0.  1.
    8880022    1    1    2    0    0  0.21988847195E+03 -0.48131744736E+03  0.10986348171E+04  0.12289863870E+04  0.15294330000E+03 0.  0.
<mgrwt>
<rscale>  0 0.75919105E+03</rscale>
<asrwt>0</asrwt>
<pdfrwt beam="1">  1        1 0.20211810E+00 0.84488321E+03</pdfrwt>
<pdfrwt beam="2">  1       -1 0.19311223E+00 0.84488321E+03</pdfrwt>
<totfact> 0.15303512E+00</totfact>
</mgrwt>
</event>
<event>
 4    5  0.7214169E-008  0.8984357E+03  0.7818608E-02  0.9528548E-01
          1   -1    0    0  501    0  0.00000000000E+00  0.00000000000E+00  0.78341781783E+03  0.78341781785E+03  0.50400000000E-02 0. -1.
         -1   -1    0    0    0  501 -0.00000000000E+00 -0.00000000000E+00 -0.12642520226E+04  0.12642520226E+04  0.50400000000E-02 0.  1.
    8880023    1    1    2    0    0  0.60965733731E+03  0.41162417052E+02 -0.91523071742E+03  0.12825107742E+04  0.65864270000E+03 0.  0.
    8880022    1    1    2    0    0 -0.60965733731E+03 -0.41162417052E+02  0.43439651265E+03  0.76515906629E+03  0.15294330000E+03 0.  0.
<mgrwt>
<rscale>  0 0.82211453E+03</rscale>
<asrwt>0</asrwt>
<pdfrwt beam="1">  1        1 0.12052582E+00 0.89843565E+03</pdfrwt>
<pdfrwt beam="2">  1       -1 0.19450031E+00 0.89843565E+03</pdfrwt>
<totfact> 0.38183842E+00</totfact>
</mgrwt>
</event>
<event>
 4    5  0.8952474E-008  0.1031119E+04  0.7818608E-02  0.9341932E-01
         -1   -1    0    0    0  501 -0.00000000000E+00  0.00000000000E+00  0.13497607242E+04  0.13497607242E+04  0.50400000000E-02 0.  1.
          1   -1    0    0  501    0  0.00000000000E+00 -0.00000000000E+00 -0.21642711557E+04  0.21642711557E+04  0.50400000000E-02 0. -1.
    8880023    1    1    2    0    0  0.17457678977E+03 -0.77389799643E+03  0.10563457304E+04  0.14761679013E+04  0.65864270000E+03 0.  0.
    8880022    1    1    2    0    0 -0.17457678977E+03  0.77389799643E+03 -0.18708561619E+04  0.20378639787E+04  0.15294330000E+03 0.  0.
<mgrwt>
<rscale>  0 0.97012536E+03</rscale>
<asrwt>0</asrwt>
<pdfrwt beam="1">  1        1 0.33296479E+00 0.10311185E+04</pdfrwt>
<pdfrwt beam="2">  1       -1 0.20765550E+00 0.10311185E+04</pdfrwt>
<totfact> 0.31032786E-01</totfact>
</mgrwt>
</event>
<event>
 4    5  0.7214169E-008  0.7556102E+03  0.7818608E-02  0.9816608E-01
          1   -1    0    0  501    0  0.00000000000E+00  0.00000000000E+00  0.58818369030E+03  0.58818369032E+03  0.50400000000E-02 0. -1.
         -1   -1    0    0    0  501 -0.00000000000E+00 -0.00000000000E+00 -0.12147186975E+04  0.12147186975E+04  0.50400000000E-02 0.  1.
    8880023    1    1    2    0    0  0.35915289939E+01  0.37030220213E+03 -0.10012169588E+04  0.12543453372E+04  0.65864270000E+03 0.  1.
    8880022    1    1    2    0    0 -0.35915289939E+01 -0.37030220213E+03  0.37468195160E+03  0.54855705069E+03  0.15294330000E+03 0.  0.
<mgrwt>
<rscale>  0 0.64478855E+03</rscale>
<asrwt>0</asrwt>
<pdfrwt beam="1">  1        1 0.90489799E-01 0.75561023E+03</pdfrwt>
<pdfrwt beam="2">  1       -1 0.18687980E+00 0.75561023E+03</pdfrwt>
<totfact> 0.67667230E+00</totfact>
</mgrwt>
</event>
<event>
 4    5  0.7214169E-008  0.9654339E+03  0.7818608E-02  0.9428247E-01
          1   -1    0    0  501    0  0.00000000000E+00  0.00000000000E+00  0.12768549756E+04  0.12768549756E+04  0.50400000000E-02 0. -1.
         -1   -1    0    0    0  501 -0.00000000000E+00 -0.00000000000E+00 -0.19850195383E+04  0.19850195383E+04  0.50400000000E-02 0.  1.
    8880023    1    1    2    0    0 -0.60582444282E+03  0.36225555114E+03 -0.17473679819E+04  0.19963359963E+04  0.65864270000E+03 0.  1.
    8880022    1    1    2    0    0  0.60582444282E+03 -0.36225555114E+03  0.10392034192E+04  0.12655385175E+04  0.15294330000E+03 0.  0.
<mgrwt>
<rscale>  0 0.89787044E+03</rscale>
<asrwt>0</asrwt>
<pdfrwt beam="1">  1        1 0.19643923E+00 0.96543386E+03</pdfrwt>
<pdfrwt beam="2">  1       -1 0.30538762E+00 0.96543386E+03</pdfrwt>
<totfact> 0.29276181E-01</totfact>
</mgrwt>
</event>
<event>
 4    5  0.7214169E-008  0.6623904E+03  0.7818608E-02  0.1021831E+00
         -1   -1    0    0    0  501 -0.00000000000E+00  0.00000000000E+00  0.62240378158E+03  0.62240378160E+03  0.50400000000E-02 0.  1.
          1   -1    0    0  501    0  0.00000000000E+00 -0.00000000000E+00 -0.46987128811E+03  0.46987128814E+03  0.50400000000E-02 0. -1.
    8880023    1    1    2    0    0 -0.69374112827E+02  0.11750310388E+02  0.41412464648E+03  0.78119156832E+03  0.65864270000E+03 0.  1.
    8880022    1    1    2    0    0  0.69374112827E+02 -0.11750310388E+02 -0.26159215301E+03  0.31108350142E+03  0.15294330000E+03 0.  0.
<mgrwt>
<rscale>  0 0.47031656E+03</rscale>
<asrwt>0</asrwt>
<pdfrwt beam="1">  1        1 0.72287891E-01 0.66239040E+03</pdfrwt>
<pdfrwt beam="2">  1       -1 0.95754428E-01 0.66239040E+03</pdfrwt>
<totfact> 0.52245848E+01</totfact>
</mgrwt>
</event>
<event>
 4    5  0.7214169E-008  0.7856386E+03  0.7818608E-02  0.9742755E-01
          1   -1    0    0  501    0  0.00000000000E+00  0.00000000000E+00  0.63720551927E+03  0.63720551929E+03  0.50400000000E-02 0. -1.
         -1   -1    0    0    0  501 -0.00000000000E+00 -0.00000000000E+00 -0.84485262581E+03  0.84485262582E+03  0.50400000000E-02 0.  1.
    8880023    1    1    2    0    0 -0.16115112922E+03  0.39679735661E+03 -0.50936111582E+03  0.93631019498E+03  0.65864270000E+03 0.  1.
    8880022    1    1    2    0    0  0.16115112922E+03 -0.39679735661E+03  0.30171400928E+03  0.54574795013E+03  0.15294330000E+03 0. -1.
<mgrwt>
<rscale>  0 0.68527269E+03</rscale>
<asrwt>0</asrwt>
<pdfrwt beam="1">  1        1 0.98031618E-01 0.78563862E+03</pdfrwt>
<pdfrwt beam="2">  1       -1 0.12997733E+00 0.78563862E+03</pdfrwt>
<totfact> 0.16288344E+01</totfact>
</mgrwt>
</event>
<event>
 4    5  0.7214169E-008  0.7135041E+03  0.7818608E-02  0.9945212E-01
          1   -1    0    0  501    0  0.00000000000E+00  0.00000000000E+00  0.18259511977E+04  0.18259511978E+04  0.50400000000E-02 0. -1.
         -1   -1    0    0    0  501 -0.00000000000E+00 -0.00000000000E+00 -0.23222241362E+03  0.23222241367E+03  0.50400000000E-02 0.  1.
    8880023    1    1    2    0    0 -0.97166126861E+01 -0.27419613414E+03  0.38795490971E+03  0.81215586606E+03  0.65864270000E+03 0.  1.
    8880022    1    1    2    0    0  0.97166126861E+01  0.27419613414E+03  0.12057738744E+04  0.12460177454E+04  0.15294330000E+03 0.  0.
<mgrwt>
<rscale>  0 0.58119287E+03</rscale>
<asrwt>0</asrwt>
<pdfrwt beam="1">  1        1 0.28091557E+00 0.71350413E+03</pdfrwt>
<pdfrwt beam="2">  1       -1 0.35726525E-01 0.71350413E+03</pdfrwt>
<totfact> 0.30432855E+01</totfact>
</mgrwt>
</event>
<event>
 4    5  0.7214169E-008  0.8057545E+03  0.7818608E-02  0.9698489E-01
          1   -1    0    0  501    0  0.00000000000E+00  0.00000000000E+00  0.30190184233E+04  0.30190184233E+04  0.50400000000E-02 0. -1.
         -1   -1    0    0    0  501 -0.00000000000E+00 -0.00000000000E+00 -0.59869374368E+03  0.59869374370E+03  0.50400000000E-02 0.  1.
    8880023    1    1    2    0    0 -0.10638054887E+03 -0.45178895914E+03 -0.29552872175E+03  0.85824094311E+03  0.65864270000E+03 0.  1.
    8880022    1    1    2    0    0  0.10638054887E+03  0.45178895914E+03  0.27158534013E+04  0.27594712239E+04  0.15294330000E+03 0.  0.
<mgrwt>
<rscale>  0 0.71106824E+03</rscale>
<asrwt>0</asrwt>
<pdfrwt beam="1">  1        1 0.46446437E+00 0.80575449E+03</pdfrwt>
<pdfrwt beam="2">  1       -1 0.92106731E-01 0.80575449E+03</pdfrwt>
<totfact> 0.70917851E-01</totfact>
</mgrwt>
</event>
<event>
 4    5  0.7214169E-008  0.1204962E+04  0.7818608E-02  0.9152314E-01
          1   -1    0    0  501    0  0.00000000000E+00  0.00000000000E+00  0.20093340510E+04  0.20093340510E+04  0.50400000000E-02 0. -1.
         -1   -1    0    0    0  501 -0.00000000000E+00 -0.00000000000E+00 -0.63236328197E+03  0.63236328199E+03  0.50400000000E-02 0.  1.
    8880023    1    1    2    0    0 -0.52259030683E+03 -0.86314688878E+03  0.95431718706E+03  0.15370929315E+04  0.65864270000E+03 0. -1.
    8880022    1    1    2    0    0  0.52259030683E+03  0.86314688878E+03  0.42265358201E+03  0.11046044015E+04  0.15294330000E+03 0.  0.
<mgrwt>
<rscale>  0 0.11559477E+04</rscale>
<asrwt>0</asrwt>
<pdfrwt beam="1">  1        1 0.30912832E+00 0.12049620E+04</pdfrwt>
<pdfrwt beam="2">  1       -1 0.97286659E-01 0.12049620E+04</pdfrwt>
<totfact> 0.29382522E+00</totfact>
</mgrwt>
</event>
<event>
 4    5  0.7214169E-008  0.1077155E+04  0.7818608E-02  0.9286927E-01
         -1   -1    0    0    0  501 -0.00000000000E+00  0.00000000000E+00  0.96079462749E+03  0.96079462751E+03  0.50400000000E-02 0.  1.
          1   -1    0    0  501    0  0.00000000000E+00 -0.00000000000E+00 -0.21697480231E+04  0.21697480231E+04  0.50400000000E-02 0. -1.
    8880023    1    1    2    0    0  0.61816071255E+03 -0.58679706438E+03  0.52056986570E+03  0.11963513918E+04  0.65864270000E+03 0.  1.
    8880022    1    1    2    0    0 -0.61816071255E+03  0.58679706438E+03 -0.17295232613E+04  0.19341912588E+04  0.15294330000E+03 0.  0.
<mgrwt>
<rscale>  0 0.10199531E+04</rscale>
<asrwt>0</asrwt>
<pdfrwt beam="1">  1        1 0.33380739E+00 0.10771554E+04</pdfrwt>
<pdfrwt beam="2">  1       -1 0.14781456E+00 0.10771554E+04</pdfrwt>
<totfact> 0.83022625E-01</totfact>
</mgrwt>
</event>
<event>
 4    5  0.7214169E-008  0.8710424E+03  0.7818608E-02  0.9574215E-01
          1   -1    0    0  501    0  0.00000000000E+00  0.00000000000E+00  0.30014629831E+04  0.30014629831E+04  0.50400000000E-02 0. -1.
         -1   -1    0    0    0  501 -0.00000000000E+00 -0.00000000000E+00 -0.34281007074E+03  0.34281007077E+03  0.50400000000E-02 0.  1.
    8880023    1    1    2    0    0  0.26658701178E+03  0.50382149376E+03  0.31308845946E+03  0.92560214031E+03  0.65864270000E+03 0.  1.
    8880022    1    1    2    0    0 -0.26658701178E+03 -0.50382149376E+03  0.23455644529E+04  0.24186709136E+04  0.15294330000E+03 0.  0.
<mgrwt>
<rscale>  0 0.79026566E+03</rscale>
<asrwt>0</asrwt>
<pdfrwt beam="1">  1        1 0.46176353E+00 0.87104244E+03</pdfrwt>
<pdfrwt beam="2">  1       -1 0.52740011E-01 0.87104244E+03</pdfrwt>
<totfact> 0.22676001E+00</totfact>
</mgrwt>
</event>
<event>
 4    5  0.7214169E-008  0.7445653E+03  0.7818608E-02  0.9846843E-01
          1   -1    0    0  501    0  0.00000000000E+00  0.00000000000E+00  0.25518931225E+04  0.25518931225E+04  0.50400000000E-02 0. -1.
         -1   -1    0    0    0  501 -0.00000000000E+00 -0.00000000000E+00 -0.22769624705E+03  0.22769624710E+03  0.50400000000E-02 0.  1.
    8880023    1    1    2    0    0 -0.17039517235E+03 -0.30254370409E+03  0.45567813822E+03  0.87293755765E+03  0.65864270000E+03 0.  1.
    8880022    1    1    2    0    0  0.17039517235E+03  0.30254370409E+03  0.18685187372E+04  0.19066518119E+04  0.15294330000E+03 0.  0.
<mgrwt>
<rscale>  0 0.62908144E+03</rscale>
<asrwt>0</asrwt>
<pdfrwt beam="1">  1        1 0.39259897E+00 0.74456525E+03</pdfrwt>
<pdfrwt beam="2">  1       -1 0.35030189E-01 0.74456525E+03</pdfrwt>
<totfact> 0.10190910E+01</totfact>
</mgrwt>
</event>
<event>
 4    5  0.7214169E-008  0.9601796E+03  0.7818608E-02  0.9435617E-01
          1   -1    0    0  501    0  0.00000000000E+00  0.00000000000E+00  0.43112243986E+04  0.43112243986E+04  0.50400000000E-02 0. -1.
         -1   -1    0    0    0  501 -0.00000000000E+00 -0.00000000000E+00 -0.52585498326E+03  0.52585498328E+03  0.50400000000E-02 0.  1.
    8880023    1    1    2    0    0  0.58928690319E+03 -0.37533400349E+03 -0.24665951675E+02  0.96049637370E+03  0.65864270000E+03 0.  0.
    8880022    1    1    2    0    0 -0.58928690319E+03  0.37533400349E+03  0.38100353670E+04  0.38765830082E+04  0.15294330000E+03 0.  0.
<mgrwt>
<rscale>  0 0.89201643E+03</rscale>
<asrwt>0</asrwt>
<pdfrwt beam="1">  1        1 0.66326533E+00 0.96017961E+03</pdfrwt>
<pdfrwt beam="2">  1       -1 0.80900762E-01 0.96017961E+03</pdfrwt>
<totfact> 0.81271041E-02</totfact>
</mgrwt>
</event>
<event>
 4    5  0.7214169E-008  0.6753951E+03  0.7818608E-02  0.1012058E+00
          1   -1    0    0  501    0  0.00000000000E+00  0.00000000000E+00  0.30645558409E+03  0.30645558413E+03  0.50400000000E-02 0. -1.
         -1   -1    0    0    0  501 -0.00000000000E+00 -0.00000000000E+00 -0.68426242925E+03  0.68426242927E+03  0.50400000000E-02 0.  1.
    8880023    1    1    2    0    0  0.14789551028E+03 -0.21799890358E+02 -0.38368022607E+03  0.77676833053E+03  0.65864270000E+03 0.  0.
    8880022    1    1    2    0    0 -0.14789551028E+03  0.21799890358E+02  0.58733809048E+01  0.21394968287E+03  0.15294330000E+03 0.  1.
<mgrwt>
<rscale>  0 0.50664692E+03</rscale>
<asrwt>0</asrwt>
<pdfrwt beam="1">  1        1 0.47147013E-01 0.67539509E+03</pdfrwt>
<pdfrwt beam="2">  1       -1 0.10527114E+00 0.67539509E+03</pdfrwt>
<totfact> 0.73864709E+01</totfact>
</mgrwt>
</event>
<event>
 4    5  0.7214169E-008  0.1430127E+04  0.7818608E-02  0.8960620E-01
         -1   -1    0    0    0  501 -0.00000000000E+00  0.00000000000E+00  0.13099814638E+04  0.13099814638E+04  0.50400000000E-02 0.  1.
          1   -1    0    0  501    0  0.00000000000E+00 -0.00000000000E+00 -0.19576134145E+04  0.19576134145E+04  0.50400000000E-02 0. -1.
    8880023    1    1    2    0    0 -0.58675280723E+03  0.11256878340E+04  0.53401883201E+03  0.15265773075E+04  0.65864270000E+03 0.  0.
    8880022    1    1    2    0    0  0.58675280723E+03 -0.11256878340E+04 -0.11816507827E+04  0.17410175708E+04  0.15294330000E+03 0.  0.
<mgrwt>
<rscale>  0 0.13906422E+04</rscale>
<asrwt>0</asrwt>
<pdfrwt beam="1">  1        1 0.30117129E+00 0.14301266E+04</pdfrwt>
<pdfrwt beam="2">  1       -1 0.20153561E+00 0.14301266E+04</pdfrwt>
<totfact> 0.44571208E-01</totfact>
</mgrwt>
</event>
<event>
 4    5  0.7214169E-008  0.8157351E+03  0.7818608E-02  0.9677752E-01
          1   -1    0    0  501    0  0.00000000000E+00  0.00000000000E+00  0.11822123327E+04  0.11822123327E+04  0.50400000000E-02 0. -1.
         -1   -1    0    0    0  501 -0.00000000000E+00 -0.00000000000E+00 -0.75272377320E+03  0.75272377321E+03  0.50400000000E-02 0.  1.
    8880023    1    1    2    0    0 -0.29960322020E+03  0.37663174637E+03 -0.44194554228E+03  0.92776054590E+03  0.65864270000E+03 0.  1.
    8880022    1    1    2    0    0  0.29960322020E+03 -0.37663174637E+03  0.87143410178E+03  0.10071755600E+04  0.15294330000E+03 0.  0.
<mgrwt>
<rscale>  0 0.72356991E+03</rscale>
<asrwt>0</asrwt>
<pdfrwt beam="1">  1        1 0.18187882E+00 0.81573511E+03</pdfrwt>
<pdfrwt beam="2">  1       -1 0.11580366E+00 0.81573511E+03</pdfrwt>
<totfact> 0.76270292E+00</totfact>
</mgrwt>
</event>
<event>
 4    5  0.7214169E-008  0.7999979E+03  0.7818608E-02  0.9710801E-01
          1   -1    0    0  501    0  0.00000000000E+00  0.00000000000E+00  0.81056855526E+03  0.81056855528E+03  0.50400000000E-02 0. -1.
         -1   -1    0    0    0  501 -0.00000000000E+00 -0.00000000000E+00 -0.84541364837E+03  0.84541364839E+03  0.50400000000E-02 0.  1.
    8880023    1    1    2    0    0 -0.40970246878E+03 -0.19578115217E+03 -0.53574348161E+03  0.96281756155E+03  0.65864270000E+03 0.  1.
    8880022    1    1    2    0    0  0.40970246878E+03  0.19578115217E+03  0.50089838850E+03  0.69316464212E+03  0.15294330000E+03 0.  0.
<mgrwt>
<rscale>  0 0.70377350E+03</rscale>
<asrwt>0</asrwt>
<pdfrwt beam="1">  1        1 0.12470286E+00 0.79999786E+03</pdfrwt>
<pdfrwt beam="2">  1       -1 0.13006364E+00 0.79999786E+03</pdfrwt>
<totfact> 0.11228364E+01</totfact>
</mgrwt>
</event>
<event>
 4    5  0.7214169E-008  0.9229195E+03  0.7818608E-02  0.9490197E-01
          1   -1    0    0  501    0  0.00000000000E+00  0.00000000000E+00  0.11643609707E+04  0.11643609707E+04  0.50400000000E-02 0. -1.
         -1   -1    0    0    0  501 -0.00000000000E+00 -0.00000000000E+00 -0.60198640764E+03  0.60198640766E+03  0.50400000000E-02 0.  1.
    8880023    1    1    2    0    0  0.53734026183E+03 -0.35949352144E+03  0.44492378900E+02  0.92399130244E+03  0.65864270000E+03 0.  0.
    8880022    1    1    2    0    0 -0.53734026183E+03  0.35949352144E+03  0.51788218413E+03  0.84235607589E+03  0.15294330000E+03 0.  0.
<mgrwt>
<rscale>  0 0.85010428E+03</rscale>
<asrwt>0</asrwt>
<pdfrwt beam="1">  1        1 0.17913246E+00 0.92291947E+03</pdfrwt>
<pdfrwt beam="2">  1       -1 0.92613293E-01 0.92291947E+03</pdfrwt>
<totfact> 0.13014583E+01</totfact>
</mgrwt>
</event>
<event>
 4    5  0.7214169E-008  0.8157346E+03  0.7818608E-02  0.9677753E-01
         -1   -1    0    0    0  501 -0.00000000000E+00  0.00000000000E+00  0.64745940339E+03  0.64745940341E+03  0.50400000000E-02 0.  1.
          1   -1    0    0  501    0  0.00000000000E+00 -0.00000000000E+00 -0.29719589709E+04  0.29719589709E+04  0.50400000000E-02 0. -1.
    8880023    1    1    2    0    0  0.39220089753E+03 -0.27891063842E+03  0.35725343058E+03  0.89053518076E+03  0.65864270000E+03 0.  1.
    8880022    1    1    2    0    0 -0.39220089753E+03  0.27891063842E+03 -0.26817529981E+04  0.27288831935E+04  0.15294330000E+03 0.  0.
<mgrwt>
<rscale>  0 0.72356924E+03</rscale>
<asrwt>0</asrwt>
<pdfrwt beam="1">  1        1 0.45722445E+00 0.81573457E+03</pdfrwt>
<pdfrwt beam="2">  1       -1 0.99609140E-01 0.81573457E+03</pdfrwt>
<totfact> 0.64142614E-01</totfact>
</mgrwt>
</event>
<event>
 4    5  0.7214169E-008  0.7711363E+03  0.7818608E-02  0.9777086E-01
          1   -1    0    0  501    0  0.00000000000E+00  0.00000000000E+00  0.63139785261E+03  0.63139785263E+03  0.50400000000E-02 0. -1.
         -1   -1    0    0    0  501 -0.00000000000E+00 -0.00000000000E+00 -0.81604423991E+03  0.81604423992E+03  0.50400000000E-02 0.  1.
    8880023    1    1    2    0    0 -0.36090519489E+01  0.40103363156E+03 -0.49627017495E+03  0.91702524050E+03  0.65864270000E+03 0.  1.
    8880022    1    1    2    0    0  0.36090519489E+01 -0.40103363156E+03  0.31162378766E+03  0.53041685206E+03  0.15294330000E+03 0.  0.
<mgrwt>
<rscale>  0 0.66606895E+03</rscale>
<asrwt>0</asrwt>
<pdfrwt beam="1">  1        1 0.97138131E-01 0.77113631E+03</pdfrwt>
<pdfrwt beam="2">  1       -1 0.12554527E+00 0.77113631E+03</pdfrwt>
<totfact> 0.18033566E+01</totfact>
</mgrwt>
</event>
<event>
 4    5  0.7214169E-008  0.1145023E+04  0.7818608E-02  0.9212510E-01
         -1   -1    0    0    0  501 -0.00000000000E+00  0.00000000000E+00  0.90739775732E+03  0.90739775733E+03  0.50400000000E-02 0.  1.
          1   -1    0    0  501    0  0.00000000000E+00 -0.00000000000E+00 -0.25867182665E+04  0.25867182665E+04  0.50400000000E-02 0. -1.
    8880023    1    1    2    0    0 -0.37839366672E+03 -0.85678797947E+03  0.39642836325E+03  0.12117066733E+04  0.65864270000E+03 0.  0.
    8880022    1    1    2    0    0  0.37839366672E+03  0.85678797947E+03 -0.20757488725E+04  0.22824093505E+04  0.15294330000E+03 0.  0.
<mgrwt>
<rscale>  0 0.10925233E+04</rscale>
<asrwt>0</asrwt>
<pdfrwt beam="1">  1        1 0.39795665E+00 0.11450230E+04</pdfrwt>
<pdfrwt beam="2">  1       -1 0.13959966E+00 0.11450230E+04</pdfrwt>
<totfact> 0.49598137E-01</totfact>
</mgrwt>
</event>
<event>
 4    5  0.7214169E-008  0.6946640E+03  0.7818608E-02  0.1002010E+00
          1   -1    0    0  501    0  0.00000000000E+00  0.00000000000E+00  0.14575238326E+04  0.14575238326E+04  0.50400000000E-02 0. -1.
         -1   -1    0    0    0  501 -0.00000000000E+00 -0.00000000000E+00 -0.24265506452E+03  0.24265506457E+03  0.50400000000E-02 0.  1.
    8880023    1    1    2    0    0  0.13676111149E+03  0.17333271165E+03  0.31806411801E+03  0.76401755214E+03  0.65864270000E+03 0.  1.
    8880022    1    1    2    0    0 -0.13676111149E+03 -0.17333271165E+03  0.89680465004E+03  0.93616134501E+03  0.15294330000E+03 0.  0.
<mgrwt>
<rscale>  0 0.54777564E+03</rscale>
<asrwt>0</asrwt>
<pdfrwt beam="1">  1        1 0.22423443E+00 0.69466397E+03</pdfrwt>
<pdfrwt beam="2">  1       -1 0.37331549E-01 0.69466397E+03</pdfrwt>
<totfact> 0.50016378E+01</totfact>
</mgrwt>
</event>
<event>
 4    5  0.7214169E-008  0.9995447E+03  0.7818608E-02  0.9382154E-01
         -1   -1    0    0    0  501 -0.00000000000E+00  0.00000000000E+00  0.19922900828E+04  0.19922900828E+04  0.50400000000E-02 0.  1.
          1   -1    0    0  501    0  0.00000000000E+00 -0.00000000000E+00 -0.15606442020E+04  0.15606442020E+04  0.50400000000E-02 0. -1.
    8880023    1    1    2    0    0  0.72132966921E+03  0.21204481355E+03  0.17570567284E+04  0.20214692794E+04  0.65864270000E+03 0.  0.
    8880022    1    1    2    0    0 -0.72132966921E+03 -0.21204481355E+03 -0.13254108476E+04  0.15314650054E+04  0.15294330000E+03 0.  0.
<mgrwt>
<rscale>  0 0.93559044E+03</rscale>
<asrwt>0</asrwt>
<pdfrwt beam="1">  1        1 0.24009911E+00 0.99954475E+03</pdfrwt>
<pdfrwt beam="2">  1       -1 0.30650616E+00 0.99954475E+03</pdfrwt>
<totfact> 0.18127093E-01</totfact>
</mgrwt>
</event>
<event>
 4    5  0.7214169E-008  0.7746978E+03  0.7818608E-02  0.9768443E-01
         -1   -1    0    0    0  501 -0.00000000000E+00  0.00000000000E+00  0.18605264091E+03  0.18605264098E+03  0.50400000000E-02 0.  1.
          1   -1    0    0  501    0  0.00000000000E+00 -0.00000000000E+00 -0.32804421288E+04  0.32804421288E+04  0.50400000000E-02 0. -1.
    8880023    1    1    2    0    0 -0.32732106980E+03 -0.24332579415E+03 -0.73721884696E+03  0.10694149613E+04  0.65864270000E+03 0.  1.
    8880022    1    1    2    0    0  0.32732106980E+03  0.24332579415E+03 -0.23571706409E+04  0.23970798085E+04  0.15294330000E+03 0.  0.
<mgrwt>
<rscale>  0 0.67083945E+03</rscale>
<asrwt>0</asrwt>
<pdfrwt beam="1">  1        1 0.50468336E+00 0.77469783E+03</pdfrwt>
<pdfrwt beam="2">  1       -1 0.28623486E-01 0.77469783E+03</pdfrwt>
<totfact> 0.43788122E+00</totfact>
</mgrwt>
</event>
<event>
 4    5  0.7214169E-008  0.7276332E+03  0.7818608E-02  0.9897556E-01
          1   -1    0    0  501    0  0.00000000000E+00  0.00000000000E+00  0.12905605506E+04  0.12905605507E+04  0.50400000000E-02 0. -1.
         -1   -1    0    0    0  501 -0.00000000000E+00 -0.00000000000E+00 -0.66039831058E+03  0.66039831060E+03  0.50400000000E-02 0.  1.
    8880023    1    1    2    0    0  0.35190046815E+02 -0.30724825469E+03 -0.42373799105E+03  0.84202370556E+03  0.65864270000E+03 0.  1.
    8880022    1    1    2    0    0 -0.35190046815E+02  0.30724825469E+03  0.10539002311E+04  0.11089351557E+04  0.15294330000E+03 0.  0.
<mgrwt>
<rscale>  0 0.60379860E+03</rscale>
<asrwt>0</asrwt>
<pdfrwt beam="1">  1        1 0.19854778E+00 0.72763317E+03</pdfrwt>
<pdfrwt beam="2">  1       -1 0.10159974E+00 0.72763317E+03</pdfrwt>
<totfact> 0.87791741E+00</totfact>
</mgrwt>
</event>
<event>
 4    5  0.7214169E-008  0.6704463E+03  0.7818608E-02  0.1015345E+00
          1   -1    0    0  501    0  0.00000000000E+00  0.00000000000E+00  0.20378818944E+04  0.20378818944E+04  0.50400000000E-02 0. -1.
         -1   -1    0    0    0  501 -0.00000000000E+00 -0.00000000000E+00 -0.12521718590E+03  0.12521718600E+03  0.50400000000E-02 0.  1.
    8880023    1    1    2    0    0 -0.13899141652E+02 -0.12447854717E+03  0.85195119718E+03  0.10841213694E+04  0.65864270000E+03 0.  1.
    8880022    1    1    2    0    0  0.13899141652E+02  0.12447854717E+03  0.10607135113E+04  0.10789777111E+04  0.15294330000E+03 0.  1.
<mgrwt>
<rscale>  0 0.49404555E+03</rscale>
<asrwt>0</asrwt>
<pdfrwt beam="1">  1        1 0.31352030E+00 0.67044634E+03</pdfrwt>
<pdfrwt beam="2">  1       -1 0.19264182E-01 0.67044634E+03</pdfrwt>
<totfact> 0.63750296E+01</totfact>
</mgrwt>
</event>
<event>
 4    5  0.7214169E-008  0.9197300E+03  0.7818608E-02  0.9495073E-01
         -1   -1    0    0    0  501 -0.00000000000E+00  0.00000000000E+00  0.40290757513E+03  0.40290757517E+03  0.50400000000E-02 0.  1.
          1   -1    0    0  501    0  0.00000000000E+00 -0.00000000000E+00 -0.16674661963E+04  0.16674661963E+04  0.50400000000E-02 0. -1.
    8880023    1    1    2    0    0 -0.63528846845E+03 -0.92204723083E+02 -0.45559275313E+03  0.10263859469E+04  0.65864270000E+03 0.  0.
    8880022    1    1    2    0    0  0.63528846845E+03  0.92204723083E+02 -0.80896586801E+03  0.10439878245E+04  0.15294330000E+03 0.  0.
<mgrwt>
<rscale>  0 0.84648040E+03</rscale>
<asrwt>0</asrwt>
<pdfrwt beam="1">  1        1 0.25653326E+00 0.91973004E+03</pdfrwt>
<pdfrwt beam="2">  1       -1 0.61985781E-01 0.91973004E+03</pdfrwt>
<totfact> 0.13460399E+01</totfact>
</mgrwt>
</event>
<event>
 4    5  0.7214169E-008  0.1157197E+04  0.7818608E-02  0.9199896E-01
          1   -1    0    0  501    0  0.00000000000E+00  0.00000000000E+00  0.25417588833E+04  0.25417588833E+04  0.50400000000E-02 0. -1.
         -1   -1    0    0    0  501 -0.00000000000E+00 -0.00000000000E+00 -0.81481948078E+03  0.81481948080E+03  0.50400000000E-02 0.  1.
    8880023    1    1    2    0    0 -0.94711190133E+03 -0.90956470734E+02 -0.22577476384E+03  0.11790158962E+04  0.65864270000E+03 0.  1.
    8880022    1    1    2    0    0  0.94711190133E+03  0.90956470734E+02  0.19527141664E+04  0.21775624679E+04  0.15294330000E+03 0.  0.
<mgrwt>
<rscale>  0 0.11054497E+04</rscale>
<asrwt>0</asrwt>
<pdfrwt beam="1">  1        1 0.39103983E+00 0.11571967E+04</pdfrwt>
<pdfrwt beam="2">  1       -1 0.12535684E+00 0.11571967E+04</pdfrwt>
<totfact> 0.70033491E-01</totfact>
</mgrwt>
</event>
<event>
 4    5  0.7214169E-008  0.7794379E+03  0.7818608E-02  0.9757159E-01
          1   -1    0    0  501    0  0.00000000000E+00  0.00000000000E+00  0.11922795690E+04  0.11922795690E+04  0.50400000000E-02 0. -1.
         -1   -1    0    0    0  501 -0.00000000000E+00 -0.00000000000E+00 -0.45342845041E+03  0.45342845044E+03  0.50400000000E-02 0.  1.
    8880023    1    1    2    0    0 -0.21175354194E+03  0.35898981992E+03 -0.49844677336E+01  0.77945385015E+03  0.65864270000E+03 0.  1.
    8880022    1    1    2    0    0  0.21175354194E+03 -0.35898981992E+03  0.74383558634E+03  0.86625416932E+03  0.15294330000E+03 0.  0.
<mgrwt>
<rscale>  0 0.67713198E+03</rscale>
<asrwt>0</asrwt>
<pdfrwt beam="1">  1        1 0.18342762E+00 0.77943791E+03</pdfrwt>
<pdfrwt beam="2">  1       -1 0.69758224E-01 0.77943791E+03</pdfrwt>
<totfact> 0.23095298E+01</totfact>
</mgrwt>
</event>
<event>
 4    5  0.8750074E-008  0.7882103E+03  0.7818608E-02  0.9736893E-01
          1   -1    0    0  501    0  0.00000000000E+00  0.00000000000E+00  0.14941686395E+04  0.14941686395E+04  0.50400000000E-02 0. -1.
         -1   -1    0    0    0  501 -0.00000000000E+00 -0.00000000000E+00 -0.15814614873E+04  0.15814614874E+04  0.50400000000E-02 0.  1.
    8880023    1    1    2    0    0 -0.33923666848E+03 -0.26904229687E+03 -0.14430152171E+04  0.16442531429E+04  0.65864270000E+03 0.  1.
    8880022    1    1    2    0    0  0.33923666848E+03  0.26904229687E+03  0.13557223692E+04  0.14313769840E+04  0.15294330000E+03 0.  0.
<mgrwt>
<rscale>  0 0.68862069E+03</rscale>
<asrwt>0</asrwt>
<pdfrwt beam="1">  1        1 0.22987210E+00 0.78821030E+03</pdfrwt>
<pdfrwt beam="2">  1       -1 0.24330177E+00 0.78821030E+03</pdfrwt>
<totfact> 0.53541623E-01</totfact>
</mgrwt>
</event>
<event>
 4    5  0.7214169E-008  0.6639945E+03  0.7818608E-02  0.1020392E+00
          1   -1    0    0  501    0  0.00000000000E+00  0.00000000000E+00  0.94500779581E+03  0.94500779583E+03  0.50400000000E-02 0. -1.
         -1   -1    0    0    0  501 -0.00000000000E+00 -0.00000000000E+00 -0.37084706841E+03  0.37084706844E+03  0.50400000000E-02 0.  1.
    8880023    1    1    2    0    0  0.73900124181E+02  0.40215566153E+02 -0.51799083666E+02  0.66601191539E+03  0.65864270000E+03 0.  1.
    8880022    1    1    2    0    0 -0.73900124181E+02 -0.40215566153E+02  0.62595981107E+03  0.64984294888E+03  0.15294330000E+03 0.  0.
<mgrwt>
<rscale>  0 0.47545316E+03</rscale>
<asrwt>0</asrwt>
<pdfrwt beam="1">  1        1 0.14538581E+00 0.66399452E+03</pdfrwt>
<pdfrwt beam="2">  1       -1 0.57053395E-01 0.66399452E+03</pdfrwt>
<totfact> 0.53711661E+01</totfact>
</mgrwt>
</event>
<event>
 4    5  0.7329345E-008  0.8854644E+03  0.7818608E-02  0.9549781E-01
          1   -1    0    0  501    0  0.00000000000E+00  0.00000000000E+00  0.29364652273E+04  0.29364652273E+04  0.50400000000E-02 0. -1.
         -1   -1    0    0    0  501 -0.00000000000E+00 -0.00000000000E+00 -0.81683633466E+03  0.81683633468E+03  0.50400000000E-02 0.  1.
    8880023    1    1    2    0    0 -0.58652815222E+03  0.78877741860E+02 -0.53142286912E+03  0.10326942643E+04  0.65864270000E+03 0.  1.
    8880022    1    1    2    0    0  0.58652815222E+03 -0.78877741860E+02  0.26510517617E+04  0.27206072976E+04  0.15294330000E+03 0.  0.
<mgrwt>
<rscale>  0 0.80711114E+03</rscale>
<asrwt>0</asrwt>
<pdfrwt beam="1">  1        1 0.45176388E+00 0.88546439E+03</pdfrwt>
<pdfrwt beam="2">  1       -1 0.12566713E+00 0.88546439E+03</pdfrwt>
<totfact> 0.38532033E-01</totfact>
</mgrwt>
</event>
<event>
 4    5  0.7214169E-008  0.1281266E+04  0.7818608E-02  0.9081909E-01
         -1   -1    0    0    0  501 -0.00000000000E+00  0.00000000000E+00  0.92664292917E+03  0.92664292918E+03  0.50400000000E-02 0.  1.
          1   -1    0    0  501    0  0.00000000000E+00 -0.00000000000E+00 -0.18446888619E+04  0.18446888619E+04  0.50400000000E-02 0. -1.
    8880023    1    1    2    0    0 -0.20933670234E+03 -0.10788934590E+04  0.73330207183E+02  0.12833629558E+04  0.65864270000E+03 0.  1.
    8880022    1    1    2    0    0  0.20933670234E+03  0.10788934590E+04 -0.99137613992E+03  0.14879688353E+04  0.15294330000E+03 0.  0.
<mgrwt>
<rscale>  0 0.12360092E+04</rscale>
<asrwt>0</asrwt>
<pdfrwt beam="1">  1        1 0.28379829E+00 0.12812662E+04</pdfrwt>
<pdfrwt beam="2">  1       -1 0.14256045E+00 0.12812662E+04</pdfrwt>
<totfact> 0.14772708E+00</totfact>
</mgrwt>
</event>
<event>
 4    5  0.7214169E-008  0.8886295E+03  0.7818608E-02  0.9544537E-01
         -1   -1    0    0    0  501 -0.00000000000E+00  0.00000000000E+00  0.92388647409E+03  0.92388647410E+03  0.50400000000E-02 0.  1.
          1   -1    0    0  501    0  0.00000000000E+00 -0.00000000000E+00 -0.19498360333E+04  0.19498360333E+04  0.50400000000E-02 0. -1.
    8880023    1    1    2    0    0 -0.43195542336E+03 -0.41142034649E+03  0.64163225048E+03  0.10960631097E+04  0.65864270000E+03 0.  0.
    8880022    1    1    2    0    0  0.43195542336E+03  0.41142034649E+03 -0.16675818097E+04  0.17776593977E+04  0.15294330000E+03 0.  0.
<mgrwt>
<rscale>  0 0.81078436E+03</rscale>
<asrwt>0</asrwt>
<pdfrwt beam="1">  1        1 0.29997477E+00 0.88862950E+03</pdfrwt>
<pdfrwt beam="2">  1       -1 0.14213638E+00 0.88862950E+03</pdfrwt>
<totfact> 0.13354226E+00</totfact>
</mgrwt>
</event>
<event>
 4    5  0.7214169E-008  0.8412307E+03  0.7818608E-02  0.9627864E-01
          1   -1    0    0  501    0  0.00000000000E+00  0.00000000000E+00  0.10293209674E+04  0.10293209674E+04  0.50400000000E-02 0. -1.
         -1   -1    0    0    0  501 -0.00000000000E+00 -0.00000000000E+00 -0.14854441770E+04  0.14854441770E+04  0.50400000000E-02 0.  1.
    8880023    1    1    2    0    0  0.10453911781E+03  0.51276747970E+03 -0.12770865350E+04  0.15292544391E+04  0.65864270000E+03 0.  1.
    8880022    1    1    2    0    0 -0.10453911781E+03 -0.51276747970E+03  0.82096332548E+03  0.98551070526E+03  0.15294330000E+03 0.  0.
<mgrwt>
<rscale>  0 0.75479094E+03</rscale>
<asrwt>0</asrwt>
<pdfrwt beam="1">  1        1 0.15835707E+00 0.84123072E+03</pdfrwt>
<pdfrwt beam="2">  1       -1 0.22852987E+00 0.84123072E+03</pdfrwt>
<totfact> 0.14289154E+00</totfact>
</mgrwt>
</event>
<event>
 4    5  0.7214169E-008  0.1050489E+04  0.7818608E-02  0.9318294E-01
         -1   -1    0    0    0  501 -0.00000000000E+00  0.00000000000E+00  0.77037540951E+03  0.77037540953E+03  0.50400000000E-02 0.  1.
          1   -1    0    0  501    0  0.00000000000E+00 -0.00000000000E+00 -0.18923605042E+04  0.18923605042E+04  0.50400000000E-02 0. -1.
    8880023    1    1    2    0    0  0.68048999378E+03  0.45458713524E+03  0.22963062604E+03  0.10752936928E+04  0.65864270000E+03 0.  0.
    8880022    1    1    2    0    0 -0.68048999378E+03 -0.45458713524E+03 -0.13516157207E+04  0.15874422209E+04  0.15294330000E+03 0.  0.
<mgrwt>
<rscale>  0 0.99115962E+03</rscale>
<asrwt>0</asrwt>
<pdfrwt beam="1">  1        1 0.29113238E+00 0.10504886E+04</pdfrwt>
<pdfrwt beam="2">  1       -1 0.11851929E+00 0.10504886E+04</pdfrwt>
<totfact> 0.22559944E+00</totfact>
</mgrwt>
</event>
<event>
 4    5  0.7214169E-008  0.1028848E+04  0.7818608E-02  0.9344752E-01
          1   -1    0    0  501    0  0.00000000000E+00  0.00000000000E+00  0.82523284396E+03  0.82523284397E+03  0.50400000000E-02 0. -1.
         -1   -1    0    0    0  501 -0.00000000000E+00 -0.00000000000E+00 -0.22391895135E+04  0.22391895135E+04  0.50400000000E-02 0.  1.
    8880023    1    1    2    0    0 -0.69955750628E+03  0.36788263521E+03 -0.18735227262E+04  0.21374320925E+04  0.65864270000E+03 0.  1.
    8880022    1    1    2    0    0  0.69955750628E+03 -0.36788263521E+03  0.45956605672E+03  0.92699026499E+03  0.15294330000E+03 0.  0.
<mgrwt>
<rscale>  0 0.96765279E+03</rscale>
<asrwt>0</asrwt>
<pdfrwt beam="1">  1        1 0.12695890E+00 0.10288482E+04</pdfrwt>
<pdfrwt beam="2">  1       -1 0.34449069E+00 0.10288482E+04</pdfrwt>
<totfact> 0.36061207E-01</totfact>
</mgrwt>
</event>
<event>
 4    5  0.8744036E-008  0.7170432E+03  0.7818608E-02  0.9932721E-01
         -1   -1    0    0    0  501 -0.00000000000E+00  0.00000000000E+00  0.94294293778E+03  0.94294293779E+03  0.50400000000E-02 0.  1.
          1   -1    0    0  501    0  0.00000000000E+00 -0.00000000000E+00 -0.32596556103E+04  0.32596556103E+04  0.50400000000E-02 0. -1.
    8880023    1    1    2    0    0  0.46387500568E+02 -0.27962280456E+03  0.79710977419E+03  0.10721636589E+04  0.65864270000E+03 0.  1.
    8880022    1    1    2    0    0 -0.46387500568E+02  0.27962280456E+03 -0.31138224467E+04  0.31304348893E+04  0.15294330000E+03 0.  0.
<mgrwt>
<rscale>  0 0.58701374E+03</rscale>
<asrwt>0</asrwt>
<pdfrwt beam="1">  1        1 0.50148547E+00 0.71704318E+03</pdfrwt>
<pdfrwt beam="2">  1       -1 0.14506815E+00 0.71704318E+03</pdfrwt>
<totfact> 0.16165926E-01</totfact>
</mgrwt>
</event>
<event>
 4    5  0.7214169E-008  0.7076566E+03  0.7818608E-02  0.9966808E-01
         -1   -1    0    0    0  501 -0.00000000000E+00  0.00000000000E+00  0.14081740299E+03  0.14081740308E+03  0.50400000000E-02 0.  1.
          1   -1    0    0  501    0  0.00000000000E+00 -0.00000000000E+00 -0.51019164717E+04  0.51019164717E+04  0.50400000000E-02 0. -1.
    8880023    1    1    2    0    0 -0.11350111742E+03 -0.23256201894E+03 -0.78915056387E+03  0.10599700067E+04  0.65864270000E+03 0.  1.
    8880022    1    1    2    0    0  0.11350111742E+03  0.23256201894E+03 -0.41719485049E+04  0.41827638681E+04  0.15294330000E+03 0.  0.
<mgrwt>
<rscale>  0 0.57129902E+03</rscale>
<asrwt>0</asrwt>
<pdfrwt beam="1">  1        1 0.78491009E+00 0.70765656E+03</pdfrwt>
<pdfrwt beam="2">  1       -1 0.21664220E-01 0.70765656E+03</pdfrwt>
<totfact> 0.13449914E-01</totfact>
</mgrwt>
</event>
<event>
 4    5  0.7214169E-008  0.9687361E+03  0.7818608E-02  0.9423654E-01
         -1   -1    0    0    0  501 -0.00000000000E+00  0.00000000000E+00  0.16796749196E+04  0.16796749196E+04  0.50400000000E-02 0.  1.
          1   -1    0    0  501    0  0.00000000000E+00 -0.00000000000E+00 -0.54121923651E+03  0.54121923654E+03  0.50400000000E-02 0. -1.
    8880023    1    1    2    0    0  0.69177362662E+03 -0.16151960962E+03  0.12928038578E+03  0.97732438790E+03  0.65864270000E+03 0.  1.
    8880022    1    1    2    0    0 -0.69177362662E+03  0.16151960962E+03  0.10091752973E+04  0.12435697683E+04  0.15294330000E+03 0.  0.
<mgrwt>
<rscale>  0 0.90154316E+03</rscale>
<asrwt>0</asrwt>
<pdfrwt beam="1">  1        1 0.83264498E-01 0.96873605E+03</pdfrwt>
<pdfrwt beam="2">  1       -1 0.25841152E+00 0.96873605E+03</pdfrwt>
<totfact> 0.24704520E+00</totfact>
</mgrwt>
</event>
<event>
 4    5  0.7214169E-008  0.1526757E+04  0.7818608E-02  0.8890970E-01
         -1   -1    0    0    0  501 -0.00000000000E+00  0.00000000000E+00  0.75117791436E+03  0.75117791437E+03  0.50400000000E-02 0.  1.
          1   -1    0    0  501    0  0.00000000000E+00 -0.00000000000E+00 -0.33510635273E+04  0.33510635273E+04  0.50400000000E-02 0. -1.
    8880023    1    1    2    0    0  0.92657462582E+03  0.10191344014E+04 -0.53975349973E+03  0.16193577468E+04  0.65864270000E+03 0.  0.
    8880022    1    1    2    0    0 -0.92657462582E+03 -0.10191344014E+04 -0.20601321132E+04  0.24828836948E+04  0.15294330000E+03 0.  0.
<mgrwt>
<rscale>  0 0.14902394E+04</rscale>
<asrwt>0</asrwt>
<pdfrwt beam="1">  1        1 0.51554823E+00 0.15267566E+04</pdfrwt>
<pdfrwt beam="2">  1       -1 0.11556583E+00 0.15267566E+04</pdfrwt>
<totfact> 0.21166300E-01</totfact>
</mgrwt>
</event>
<event>
 4    5  0.7214169E-008  0.9450958E+03  0.7818608E-02  0.9457206E-01
          1   -1    0    0  501    0  0.00000000000E+00  0.00000000000E+00  0.15722355499E+04  0.15722355499E+04  0.50400000000E-02 0. -1.
         -1   -1    0    0    0  501 -0.00000000000E+00 -0.00000000000E+00 -0.10191692817E+04  0.10191692818E+04  0.50400000000E-02 0.  1.
    8880023    1    1    2    0    0 -0.11280264699E+03 -0.66833475739E+03  0.12765326579E+04  0.15883140804E+04  0.65864270000E+03 0. -1.
    8880022    1    1    2    0    0  0.11280264699E+03  0.66833475739E+03 -0.72346638975E+03  0.10030907512E+04  0.15294330000E+03 0.  0.
<mgrwt>
<rscale>  0 0.87513762E+03</rscale>
<asrwt>0</asrwt>
<pdfrwt beam="1">  1        1 0.24188239E+00 0.94509576E+03</pdfrwt>
<pdfrwt beam="2">  1       -1 0.15679527E+00 0.94509576E+03</pdfrwt>
<totfact> 0.18286498E+00</totfact>
</mgrwt>
</event>
<event>
 4    5  0.7214169E-008  0.7267502E+03  0.7818608E-02  0.9900374E-01
         -1   -1    0    0    0  501 -0.00000000000E+00  0.00000000000E+00  0.77893975957E+03  0.77893975959E+03  0.50400000000E-02 0.  1.
          1   -1    0    0  501    0  0.00000000000E+00 -0.00000000000E+00 -0.54277033297E+03  0.54277033299E+03  0.50400000000E-02 0. -1.
    8880023    1    1    2    0    0  0.33631397108E+02 -0.30532707810E+03  0.50568992965E+03  0.88537461377E+03  0.65864270000E+03 0.  0.
    8880022    1    1    2    0    0 -0.33631397108E+02  0.30532707810E+03 -0.26952050305E+03  0.43633547881E+03  0.15294330000E+03 0.  0.
<mgrwt>
<rscale>  0 0.60243165E+03</rscale>
<asrwt>0</asrwt>
<pdfrwt beam="1">  1        1 0.83503128E-01 0.72675023E+03</pdfrwt>
<pdfrwt beam="2">  1       -1 0.11983689E+00 0.72675023E+03</pdfrwt>
<totfact> 0.25222553E+01</totfact>
</mgrwt>
</event>
<event>
 4    5  0.7214169E-008  0.7492586E+03  0.7818608E-02  0.9833754E-01
         -1   -1    0    0    0  501 -0.00000000000E+00  0.00000000000E+00  0.53925675865E+03  0.53925675867E+03  0.50400000000E-02 0.  1.
          1   -1    0    0  501    0  0.00000000000E+00 -0.00000000000E+00 -0.12565499354E+04  0.12565499354E+04  0.50400000000E-02 0. -1.
    8880023    1    1    2    0    0  0.21763103502E+03 -0.28322237650E+03  0.22023237421E+03  0.78095498389E+03  0.65864270000E+03 0.  1.
    8880022    1    1    2    0    0 -0.21763103502E+03  0.28322237650E+03 -0.93752555091E+03  0.10148517101E+04  0.15294330000E+03 0.  0.
<mgrwt>
<rscale>  0 0.63582128E+03</rscale>
<asrwt>0</asrwt>
<pdfrwt beam="1">  1        1 0.19331537E+00 0.74925856E+03</pdfrwt>
<pdfrwt beam="2">  1       -1 0.82962579E-01 0.74925856E+03</pdfrwt>
<totfact> 0.14495684E+01</totfact>
</mgrwt>
</event>
<event>
 4    5  0.7214169E-008  0.9064551E+03  0.7818608E-02  0.9515748E-01
          1   -1    0    0  501    0  0.00000000000E+00  0.00000000000E+00  0.74111426379E+03  0.74111426380E+03  0.50400000000E-02 0. -1.
         -1   -1    0    0    0  501 -0.00000000000E+00 -0.00000000000E+00 -0.81276705909E+03  0.81276705911E+03  0.50400000000E-02 0.  1.
    8880023    1    1    2    0    0 -0.55608716880E+03 -0.28038842220E+03 -0.10012323373E+03  0.91196791326E+03  0.65864270000E+03 0. -1.
    8880022    1    1    2    0    0  0.55608716880E+03  0.28038842220E+03  0.28470438429E+02  0.64191340965E+03  0.15294330000E+03 0.  1.
<mgrwt>
<rscale>  0 0.83132709E+03</rscale>
<asrwt>0</asrwt>
<pdfrwt beam="1">  1        1 0.11401758E+00 0.90645508E+03</pdfrwt>
<pdfrwt beam="2">  1       -1 0.12504109E+00 0.90645508E+03</pdfrwt>
<totfact> 0.14109173E+01</totfact>
</mgrwt>
</event>
<event>
 4    5  0.7214169E-008  0.8889548E+03  0.7818608E-02  0.9544001E-01
         -1   -1    0    0    0  501 -0.00000000000E+00  0.00000000000E+00  0.85836105841E+03  0.85836105843E+03  0.50400000000E-02 0.  1.
          1   -1    0    0  501    0  0.00000000000E+00 -0.00000000000E+00 -0.17342790739E+04  0.17342790739E+04  0.50400000000E-02 0. -1.
    8880023    1    1    2    0    0 -0.50476289176E+03  0.31881776067E+03  0.54576658713E+03  0.10431211412E+04  0.65864270000E+03 0.  0.
    8880022    1    1    2    0    0  0.50476289176E+03 -0.31881776067E+03 -0.14216846026E+04  0.15495189911E+04  0.15294330000E+03 0.  0.
<mgrwt>
<rscale>  0 0.81116136E+03</rscale>
<asrwt>0</asrwt>
<pdfrwt beam="1">  1        1 0.26681217E+00 0.88895475E+03</pdfrwt>
<pdfrwt beam="2">  1       -1 0.13205555E+00 0.88895475E+03</pdfrwt>
<totfact> 0.22548282E+00</totfact>
</mgrwt>
</event>
<event>
 4    5  0.7214169E-008  0.1421247E+04  0.7818608E-02  0.8967346E-01
         -1   -1    0    0    0  501 -0.00000000000E+00  0.00000000000E+00  0.72921020765E+03  0.72921020767E+03  0.50400000000E-02 0.  1.
          1   -1    0    0  501    0  0.00000000000E+00 -0.00000000000E+00 -0.36440318862E+04  0.36440318862E+04  0.50400000000E-02 0. -1.
    8880023    1    1    2    0    0  0.93163922843E+03 -0.84745644760E+03 -0.27478344505E+04  0.30936286875E+04  0.65864270000E+03 0.  0.
    8880022    1    1    2    0    0 -0.93163922843E+03  0.84745644760E+03 -0.16698722811E+03  0.12796134064E+04  0.15294330000E+03 0.  0.
<mgrwt>
<rscale>  0 0.13814638E+04</rscale>
<asrwt>0</asrwt>
<pdfrwt beam="1">  1        1 0.56062028E+00 0.14212474E+04</pdfrwt>
<pdfrwt beam="2">  1       -1 0.11218619E+00 0.14212474E+04</pdfrwt>
<totfact> 0.13583203E-01</totfact>
</mgrwt>
</event>
<event>
 4    5  0.7214169E-008  0.8273725E+03  0.7818608E-02  0.9654466E-01
          1   -1    0    0  501    0  0.00000000000E+00  0.00000000000E+00  0.39466680178E+03  0.39466680181E+03  0.50400000000E-02 0. -1.
         -1   -1    0    0    0  501 -0.00000000000E+00 -0.00000000000E+00 -0.13603798021E+04  0.13603798021E+04  0.50400000000E-02 0.  1.
    8880023    1    1    2    0    0 -0.61792358507E+02  0.49690723373E+03 -0.90782018316E+03  0.12282844889E+04  0.65864270000E+03 0.  1.
    8880022    1    1    2    0    0  0.61792358507E+02 -0.49690723373E+03 -0.57892817159E+02  0.52676211500E+03  0.15294330000E+03 0.  0.
<mgrwt>
<rscale>  0 0.73793779E+03</rscale>
<asrwt>0</asrwt>
<pdfrwt beam="1">  1        1 0.60717970E-01 0.82737253E+03</pdfrwt>
<pdfrwt beam="2">  1       -1 0.20928920E+00 0.82737253E+03</pdfrwt>
<totfact> 0.81274960E+00</totfact>
</mgrwt>
</event>
<event>
 4    5  0.7214169E-008  0.1377080E+04  0.7818608E-02  0.9001700E-01
         -1   -1    0    0    0  501 -0.00000000000E+00  0.00000000000E+00  0.79290719969E+03  0.79290719970E+03  0.50400000000E-02 0.  1.
          1   -1    0    0  501    0  0.00000000000E+00 -0.00000000000E+00 -0.24053249188E+04  0.24053249188E+04  0.50400000000E-02 0. -1.
    8880023    1    1    2    0    0 -0.10039047619E+04 -0.67432535180E+03 -0.30451929248E+03  0.14103480623E+04  0.65864270000E+03 0.  1.
    8880022    1    1    2    0    0  0.10039047619E+04  0.67432535180E+03 -0.13078984266E+04  0.17878840562E+04  0.15294330000E+03 0.  0.
<mgrwt>
<rscale>  0 0.13357317E+04</rscale>
<asrwt>0</asrwt>
<pdfrwt beam="1">  1        1 0.37004998E+00 0.13770801E+04</pdfrwt>
<pdfrwt beam="2">  1       -1 0.12198572E+00 0.13770801E+04</pdfrwt>
<totfact> 0.90507302E-01</totfact>
</mgrwt>
</event>
<event>
 4    5  0.7214169E-008  0.1097274E+04  0.7818608E-02  0.9264097E-01
         -1   -1    0    0    0  501 -0.00000000000E+00  0.00000000000E+00  0.10030715933E+04  0.10030715934E+04  0.50400000000E-02 0.  1.
          1   -1    0    0  501    0  0.00000000000E+00 -0.00000000000E+00 -0.16890026089E+04  0.16890026089E+04  0.50400000000E-02 0. -1.
    8880023    1    1    2    0    0 -0.82046680250E+03 -0.31150361255E+03  0.50247067768E+03  0.12068501410E+04  0.65864270000E+03 0.  1.
    8880022    1    1    2    0    0  0.82046680250E+03  0.31150361255E+03 -0.11884016932E+04  0.14852240612E+04  0.15294330000E+03 0.  0.
<mgrwt>
<rscale>  0 0.10415641E+04</rscale>
<asrwt>0</asrwt>
<pdfrwt beam="1">  1        1 0.25984655E+00 0.10972741E+04</pdfrwt>
<pdfrwt beam="2">  1       -1 0.15431871E+00 0.10972741E+04</pdfrwt>
<totfact> 0.15568135E+00</totfact>
</mgrwt>
</event>
<event>
 4    5  0.7214169E-008  0.7611856E+03  0.7818608E-02  0.9802048E-01
          1   -1    0    0  501    0  0.00000000000E+00  0.00000000000E+00  0.59916955682E+03  0.59916955684E+03  0.50400000000E-02 0. -1.
         -1   -1    0    0    0  501 -0.00000000000E+00 -0.00000000000E+00 -0.64923818978E+03  0.64923818979E+03  0.50400000000E-02 0.  1.
    8880023    1    1    2    0    0  0.82286624187E+01  0.38147811941E+03 -0.23643071353E+03  0.79705894076E+03  0.65864270000E+03 0.  0.
    8880022    1    1    2    0    0 -0.82286624187E+01 -0.38147811941E+03  0.18636208058E+03  0.45134880588E+03  0.15294330000E+03 0.  0.
<mgrwt>
<rscale>  0 0.65252763E+03</rscale>
<asrwt>0</asrwt>
<pdfrwt beam="1">  1        1 0.92179931E-01 0.76118557E+03</pdfrwt>
<pdfrwt beam="2">  1       -1 0.99882799E-01 0.76118557E+03</pdfrwt>
<totfact> 0.33540835E+01</totfact>
</mgrwt>
</event>
<event>
 4    5  0.7214169E-008  0.1228510E+04  0.7818608E-02  0.9129895E-01
          1   -1    0    0  501    0  0.00000000000E+00  0.00000000000E+00  0.10059225895E+04  0.10059225895E+04  0.50400000000E-02 0. -1.
         -1   -1    0    0    0  501 -0.00000000000E+00 -0.00000000000E+00 -0.14885242542E+04  0.14885242542E+04  0.50400000000E-02 0.  1.
    8880023    1    1    2    0    0  0.38425705657E+02 -0.10363157143E+04 -0.71405294347E+03  0.14209534147E+04  0.65864270000E+03 0.  0.
    8880022    1    1    2    0    0 -0.38425705657E+02  0.10363157143E+04  0.23145127876E+03  0.10734934289E+04  0.15294330000E+03 0.  0.
<mgrwt>
<rscale>  0 0.11807278E+04</rscale>
<asrwt>0</asrwt>
<pdfrwt beam="1">  1        1 0.15475732E+00 0.12285101E+04</pdfrwt>
<pdfrwt beam="2">  1       -1 0.22900373E+00 0.12285101E+04</pdfrwt>
<totfact> 0.14036407E+00</totfact>
</mgrwt>
</event>
<event>
 4    5  0.7214169E-008  0.7476867E+03  0.7818608E-02  0.9838097E-01
          1   -1    0    0  501    0  0.00000000000E+00  0.00000000000E+00  0.15780903674E+04  0.15780903674E+04  0.50400000000E-02 0. -1.
         -1   -1    0    0    0  501 -0.00000000000E+00 -0.00000000000E+00 -0.29944959408E+03  0.29944959412E+03  0.50400000000E-02 0.  1.
    8880023    1    1    2    0    0 -0.11840352794E+03 -0.33347524271E+03  0.26532244840E+03  0.79336709083E+03  0.65864270000E+03 0.  0.
    8880022    1    1    2    0    0  0.11840352794E+03  0.33347524271E+03  0.10133183249E+04  0.10841728707E+04  0.15294330000E+03 0.  0.
<mgrwt>
<rscale>  0 0.63357525E+03</rscale>
<asrwt>0</asrwt>
<pdfrwt beam="1">  1        1 0.24278313E+00 0.74768666E+03</pdfrwt>
<pdfrwt beam="2">  1       -1 0.46069168E-01 0.74768666E+03</pdfrwt>
<totfact> 0.27983102E+01</totfact>
</mgrwt>
</event>
<event>
 4    5  0.7214169E-008  0.1454425E+04  0.7818608E-02  0.8942507E-01
          1   -1    0    0  501    0  0.00000000000E+00  0.00000000000E+00  0.20018597128E+04  0.20018597128E+04  0.50400000000E-02 0. -1.
         -1   -1    0    0    0  501 -0.00000000000E+00 -0.00000000000E+00 -0.14785410982E+04  0.14785410983E+04  0.50400000000E-02 0.  1.
    8880023    1    1    2    0    0 -0.12945794856E+04  0.74866010814E+02 -0.76735009240E+03  0.16444383037E+04  0.65864270000E+03 0.  0.
    8880022    1    1    2    0    0  0.12945794856E+04 -0.74866010814E+02  0.12906687069E+04  0.18359625073E+04  0.15294330000E+03 0.  0.
<mgrwt>
<rscale>  0 0.14157345E+04</rscale>
<asrwt>0</asrwt>
<pdfrwt beam="1">  1        1 0.30797842E+00 0.14544247E+04</pdfrwt>
<pdfrwt beam="2">  1       -1 0.22746786E+00 0.14544247E+04</pdfrwt>
<totfact> 0.27674558E-01</totfact>
</mgrwt>
</event>
<event>
 4    5  0.7214169E-008  0.1116524E+04  0.7818608E-02  0.9242878E-01
          1   -1    0    0  501    0  0.00000000000E+00  0.00000000000E+00  0.19274977945E+04  0.19274977945E+04  0.50400000000E-02 0. -1.
         -1   -1    0    0    0  501 -0.00000000000E+00 -0.00000000000E+00 -0.70141525581E+03  0.70141525583E+03  0.50400000000E-02 0.  1.
    8880023    1    1    2    0    0 -0.40162892857E+03 -0.80716110517E+03  0.12974073418E+04  0.17116923972E+04  0.65864270000E+03 0.  0.
    8880022    1    1    2    0    0  0.40162892857E+03  0.80716110517E+03 -0.71324803062E+02  0.91722065312E+03  0.15294330000E+03 0.  0.
<mgrwt>
<rscale>  0 0.10621605E+04</rscale>
<asrwt>0</asrwt>
<pdfrwt beam="1">  1        1 0.29653812E+00 0.11165236E+04</pdfrwt>
<pdfrwt beam="2">  1       -1 0.10791004E+00 0.11165236E+04</pdfrwt>
<totfact> 0.26516255E+00</totfact>
</mgrwt>
</event>
<event>
 4    5  0.7214169E-008  0.1703031E+04  0.7818608E-02  0.8778162E-01
         -1   -1    0    0    0  501 -0.00000000000E+00  0.00000000000E+00  0.27533883113E+04  0.27533883113E+04  0.50400000000E-02 0.  1.
          1   -1    0    0  501    0  0.00000000000E+00 -0.00000000000E+00 -0.15174718270E+04  0.15174718270E+04  0.50400000000E-02 0. -1.
    8880023    1    1    2    0    0  0.13145383379E+04 -0.85935578372E+03 -0.64020212234E+03  0.18193879104E+04  0.65864270000E+03 0.  0.
    8880022    1    1    2    0    0 -0.13145383379E+04  0.85935578372E+03  0.18761186067E+04  0.24514722279E+04  0.15294330000E+03 0.  0.
<mgrwt>
<rscale>  0 0.16708578E+04</rscale>
<asrwt>0</asrwt>
<pdfrwt beam="1">  1        1 0.23345721E+00 0.17030307E+04</pdfrwt>
<pdfrwt beam="2">  1       -1 0.42359820E+00 0.17030307E+04</pdfrwt>
<totfact> 0.28888071E-02</totfact>
</mgrwt>
</event>
<event>
 4    5  0.7214169E-008  0.6762235E+03  0.7818608E-02  0.1011546E+00
         -1   -1    0    0    0  501 -0.00000000000E+00  0.00000000000E+00  0.62546391848E+03  0.62546391850E+03  0.50400000000E-02 0.  1.
          1   -1    0    0  501    0  0.00000000000E+00 -0.00000000000E+00 -0.91485092345E+03  0.91485092346E+03  0.50400000000E-02 0. -1.
    8880023    1    1    2    0    0 -0.15117285270E+03  0.24795393116E+02  0.42174783775E+03  0.79696266401E+03  0.65864270000E+03 0.  1.
    8880022    1    1    2    0    0  0.15117285270E+03 -0.24795393116E+02 -0.71113484272E+03  0.74335217795E+03  0.15294330000E+03 0.  0.
<mgrwt>
<rscale>  0 0.50864835E+03</rscale>
<asrwt>0</asrwt>
<pdfrwt beam="1">  1        1 0.14074630E+00 0.67622352E+03</pdfrwt>
<pdfrwt beam="2">  1       -1 0.96225218E-01 0.67622352E+03</pdfrwt>
<totfact> 0.19112478E+01</totfact>
</mgrwt>
</event>
<event>
 4    5  0.7214169E-008  0.6759907E+03  0.7818608E-02  0.1011689E+00
          1   -1    0    0  501    0  0.00000000000E+00  0.00000000000E+00  0.75298398524E+03  0.75298398525E+03  0.50400000000E-02 0. -1.
         -1   -1    0    0    0  501 -0.00000000000E+00 -0.00000000000E+00 -0.28206599851E+03  0.28206599855E+03  0.50400000000E-02 0.  1.
    8880023    1    1    2    0    0  0.14800647609E+03 -0.35317535783E+02  0.46264596826E+03  0.81914879205E+03  0.65864270000E+03 0. -1.
    8880022    1    1    2    0    0 -0.14800647609E+03  0.35317535783E+02  0.82720184660E+01  0.21590119176E+03  0.15294330000E+03 0.  1.
<mgrwt>
<rscale>  0 0.50808873E+03</rscale>
<asrwt>0</asrwt>
<pdfrwt beam="1">  1        1 0.11584369E+00 0.67599072E+03</pdfrwt>
<pdfrwt beam="2">  1       -1 0.43394769E-01 0.67599072E+03</pdfrwt>
<totfact> 0.13035579E+02</totfact>
</mgrwt>
</event>
<event>
 4    5  0.7214169E-008  0.7210665E+03  0.7818608E-02  0.9918994E-01
          1   -1    0    0  501    0  0.00000000000E+00  0.00000000000E+00  0.92266778328E+03  0.92266778329E+03  0.50400000000E-02 0. -1.
         -1   -1    0    0    0  501 -0.00000000000E+00 -0.00000000000E+00 -0.34004432328E+03  0.34004432331E+03  0.50400000000E-02 0.  1.
    8880023    1    1    2    0    0  0.28285792794E+03 -0.78218090326E+02  0.18314382277E+03  0.74396138551E+03  0.65864270000E+03 0.  0.
    8880022    1    1    2    0    0 -0.28285792794E+03  0.78218090326E+02  0.39947963723E+03  0.51875072109E+03  0.15294330000E+03 0.  0.
<mgrwt>
<rscale>  0 0.59349537E+03</rscale>
<asrwt>0</asrwt>
<pdfrwt beam="1">  1        1 0.14194889E+00 0.72106649E+03</pdfrwt>
<pdfrwt beam="2">  1       -1 0.52314512E-01 0.72106649E+03</pdfrwt>
<totfact> 0.65757124E+01</totfact>
</mgrwt>
</event>
<event>
 4    5  0.7214169E-008  0.8036964E+03  0.7818608E-02  0.9702860E-01
          1   -1    0    0  501    0  0.00000000000E+00  0.00000000000E+00  0.92361601576E+03  0.92361601577E+03  0.50400000000E-02 0. -1.
         -1   -1    0    0    0  501 -0.00000000000E+00 -0.00000000000E+00 -0.22882224913E+04  0.22882224913E+04  0.50400000000E-02 0.  1.
    8880023    1    1    2    0    0  0.18343413917E+03 -0.42245655007E+03 -0.21462521806E+04  0.22917954204E+04  0.65864270000E+03 0.  1.
    8880022    1    1    2    0    0 -0.18343413917E+03  0.42245655007E+03  0.78164570504E+03  0.92004308667E+03  0.15294330000E+03 0.  0.
<mgrwt>
<rscale>  0 0.70846761E+03</rscale>
<asrwt>0</asrwt>
<pdfrwt beam="1">  1        1 0.14209477E+00 0.80369635E+03</pdfrwt>
<pdfrwt beam="2">  1       -1 0.35203423E+00 0.80369635E+03</pdfrwt>
<totfact> 0.27782236E-01</totfact>
</mgrwt>
</event>
<event>
 4    5  0.9915951E-008  0.1332896E+04  0.7818608E-02  0.9037660E-01
         -1   -1    0    0    0  501 -0.00000000000E+00  0.00000000000E+00  0.18717966138E+04  0.18717966138E+04  0.50400000000E-02 0.  1.
          1   -1    0    0  501    0  0.00000000000E+00 -0.00000000000E+00 -0.20726990662E+04  0.20726990662E+04  0.50400000000E-02 0. -1.
    8880023    1    1    2    0    0 -0.11328867772E+04  0.24365815761E+03  0.14190592059E+04  0.19468798073E+04  0.65864270000E+03 0.  0.
    8880022    1    1    2    0    0  0.11328867772E+04 -0.24365815761E+03 -0.16199616583E+04  0.19976158728E+04  0.15294330000E+03 0.  0.
<mgrwt>
<rscale>  0 0.12898412E+04</rscale>
<asrwt>0</asrwt>
<pdfrwt beam="1">  1        1 0.31887678E+00 0.13328961E+04</pdfrwt>
<pdfrwt beam="2">  1       -1 0.28796871E+00 0.13328961E+04</pdfrwt>
<totfact> 0.10146059E-01</totfact>
</mgrwt>
</event>
<event>
 4    5  0.7214169E-008  0.1254870E+04  0.7818608E-02  0.9105546E-01
         -1   -1    0    0    0  501 -0.00000000000E+00  0.00000000000E+00  0.19830058369E+04  0.19830058369E+04  0.50400000000E-02 0.  1.
          1   -1    0    0  501    0  0.00000000000E+00 -0.00000000000E+00 -0.90065412029E+03  0.90065412030E+03  0.50400000000E-02 0. -1.
    8880023    1    1    2    0    0 -0.10629950931E+04  0.10454736212E+03 -0.12892883869E+03  0.12614759493E+04  0.65864270000E+03 0.  0.
    8880022    1    1    2    0    0  0.10629950931E+04 -0.10454736212E+03  0.12112805553E+04  0.16221840079E+04  0.15294330000E+03 0.  0.
<mgrwt>
<rscale>  0 0.12083876E+04</rscale>
<asrwt>0</asrwt>
<pdfrwt beam="1">  1        1 0.13856217E+00 0.12548701E+04</pdfrwt>
<pdfrwt beam="2">  1       -1 0.30507782E+00 0.12548701E+04</pdfrwt>
<totfact> 0.54497875E-01</totfact>
</mgrwt>
</event>
<event>
 4    5  0.7214169E-008  0.6992622E+03  0.7818608E-02  0.1000028E+00
          1   -1    0    0  501    0  0.00000000000E+00  0.00000000000E+00  0.57125882688E+03  0.57125882690E+03  0.50400000000E-02 0. -1.
         -1   -1    0    0    0  501 -0.00000000000E+00 -0.00000000000E+00 -0.65874287261E+03  0.65874287263E+03  0.50400000000E-02 0.  1.
    8880023    1    1    2    0    0 -0.13928696869E+03  0.18909393177E+03 -0.40372492465E+03  0.80744126457E+03  0.65864270000E+03 0.  0.
    8880022    1    1    2    0    0  0.13928696869E+03 -0.18909393177E+03  0.31624087892E+03  0.42256043496E+03  0.15294330000E+03 0.  0.
<mgrwt>
<rscale>  0 0.55638143E+03</rscale>
<asrwt>0</asrwt>
<pdfrwt beam="1">  1        1 0.87885973E-01 0.69926217E+03</pdfrwt>
<pdfrwt beam="2">  1       -1 0.10134506E+00 0.69926217E+03</pdfrwt>
<totfact> 0.34942797E+01</totfact>
</mgrwt>
</event>
<event>
 4    5  0.7214169E-008  0.1081199E+04  0.7818608E-02  0.9282283E-01
          1   -1    0    0  501    0  0.00000000000E+00  0.00000000000E+00  0.48475799199E+03  0.48475799201E+03  0.50400000000E-02 0. -1.
         -1   -1    0    0    0  501 -0.00000000000E+00 -0.00000000000E+00 -0.20419731476E+04  0.20419731476E+04  0.50400000000E-02 0.  1.
    8880023    1    1    2    0    0  0.98854407940E+02  0.85170950424E+03 -0.11026300712E+04  0.15442747663E+04  0.65864270000E+03 0.  0.
    8880022    1    1    2    0    0 -0.98854407940E+02 -0.85170950424E+03 -0.45458508447E+03  0.98245637339E+03  0.15294330000E+03 0.  0.
<mgrwt>
<rscale>  0 0.10243041E+04</rscale>
<asrwt>0</asrwt>
<pdfrwt beam="1">  1        1 0.74578153E-01 0.10811991E+04</pdfrwt>
<pdfrwt beam="2">  1       -1 0.31414971E+00 0.10811991E+04</pdfrwt>
<totfact> 0.12432210E+00</totfact>
</mgrwt>
</event>
<event>
 4    5  0.7214169E-008  0.8819085E+03  0.7818608E-02  0.9555721E-01
          1   -1    0    0  501    0  0.00000000000E+00  0.00000000000E+00  0.35716444959E+04  0.35716444959E+04  0.50400000000E-02 0. -1.
         -1   -1    0    0    0  501 -0.00000000000E+00 -0.00000000000E+00 -0.34491985234E+03  0.34491985237E+03  0.50400000000E-02 0.  1.
    8880023    1    1    2    0    0  0.15254493479E+03 -0.56628834991E+03  0.30580142760E+03  0.93342229015E+03  0.65864270000E+03 0.  1.
    8880022    1    1    2    0    0 -0.15254493479E+03  0.56628834991E+03  0.29209232160E+04  0.29831420582E+04  0.15294330000E+03 0.  0.
<mgrwt>
<rscale>  0 0.80297457E+03</rscale>
<asrwt>0</asrwt>
<pdfrwt beam="1">  1        1 0.54948371E+00 0.88190853E+03</pdfrwt>
<pdfrwt beam="2">  1       -1 0.53064598E-01 0.88190853E+03</pdfrwt>
<totfact> 0.83528928E-01</totfact>
</mgrwt>
</event>
<event>
 4    5  0.7214169E-008  0.7362103E+03  0.7818608E-02  0.9871127E-01
         -1   -1    0    0    0  501 -0.00000000000E+00  0.00000000000E+00  0.71129421568E+03  0.71129421570E+03  0.50400000000E-02 0.  1.
          1   -1    0    0  501    0  0.00000000000E+00 -0.00000000000E+00 -0.23141689902E+04  0.23141689902E+04  0.50400000000E-02 0. -1.
    8880023    1    1    2    0    0 -0.27847829868E+03  0.17505794835E+03  0.50102305482E+03  0.89052218156E+03  0.65864270000E+03 0.  1.
    8880022    1    1    2    0    0  0.27847829868E+03 -0.17505794835E+03 -0.21038978293E+04  0.21349410243E+04  0.15294330000E+03 0.  0.
<mgrwt>
<rscale>  0 0.61681240E+03</rscale>
<asrwt>0</asrwt>
<pdfrwt beam="1">  1        1 0.35602600E+00 0.73621033E+03</pdfrwt>
<pdfrwt beam="2">  1       -1 0.10942988E+00 0.73621033E+03</pdfrwt>
<totfact> 0.14974495E+00</totfact>
</mgrwt>
</event>
<event>
 4    5  0.7214169E-008  0.1117143E+04  0.7818608E-02  0.9242205E-01
         -1   -1    0    0    0  501 -0.00000000000E+00  0.00000000000E+00  0.71361040221E+03  0.71361040223E+03  0.50400000000E-02 0.  1.
          1   -1    0    0  501    0  0.00000000000E+00 -0.00000000000E+00 -0.17326706871E+04  0.17326706871E+04  0.50400000000E-02 0. -1.
    8880023    1    1    2    0    0 -0.12392741348E+03  0.89377915868E+03 -0.57226345980E+02  0.11186081750E+04  0.65864270000E+03 0.  0.
    8880022    1    1    2    0    0  0.12392741348E+03 -0.89377915868E+03 -0.96183393887E+03  0.13276729143E+04  0.15294330000E+03 0.  0.
<mgrwt>
<rscale>  0 0.10628224E+04</rscale>
<asrwt>0</asrwt>
<pdfrwt beam="1">  1        1 0.26656472E+00 0.11171434E+04</pdfrwt>
<pdfrwt beam="2">  1       -1 0.10978622E+00 0.11171434E+04</pdfrwt>
<totfact> 0.34481398E+00</totfact>
</mgrwt>
</event>
<event>
 4    5  0.7214169E-008  0.7864092E+03  0.7818608E-02  0.9740991E-01
          1   -1    0    0  501    0  0.00000000000E+00  0.00000000000E+00  0.22526213641E+04  0.22526213641E+04  0.50400000000E-02 0. -1.
         -1   -1    0    0    0  501 -0.00000000000E+00 -0.00000000000E+00 -0.68094554646E+03  0.68094554648E+03  0.50400000000E-02 0.  1.
    8880023    1    1    2    0    0 -0.34903018695E+03  0.25061364723E+03 -0.41916849524E+03  0.89114628723E+03  0.65864270000E+03 0.  0.
    8880022    1    1    2    0    0  0.34903018695E+03 -0.25061364723E+03  0.19908443129E+04  0.20424206234E+04  0.15294330000E+03 0.  0.
<mgrwt>
<rscale>  0 0.68627761E+03</rscale>
<asrwt>0</asrwt>
<pdfrwt beam="1">  1        1 0.34655714E+00 0.78640923E+03</pdfrwt>
<pdfrwt beam="2">  1       -1 0.10476085E+00 0.78640923E+03</pdfrwt>
<totfact> 0.18058971E+00</totfact>
</mgrwt>
</event>
<event>
 4    5  0.7214169E-008  0.7773707E+03  0.7818608E-02  0.9762050E-01
         -1   -1    0    0    0  501 -0.00000000000E+00  0.00000000000E+00  0.13679836769E+04  0.13679836770E+04  0.50400000000E-02 0.  1.
          1   -1    0    0  501    0  0.00000000000E+00 -0.00000000000E+00 -0.10242789039E+04  0.10242789040E+04  0.50400000000E-02 0. -1.
    8880023    1    1    2    0    0 -0.94488633331E+02  0.40195378777E+03  0.11997660807E+04  0.14295956785E+04  0.65864270000E+03 0.  1.
    8880022    1    1    2    0    0  0.94488633331E+02 -0.40195378777E+03 -0.85606130772E+03  0.96266690238E+03  0.15294330000E+03 0.  0.
<mgrwt>
<rscale>  0 0.67439538E+03</rscale>
<asrwt>0</asrwt>
<pdfrwt beam="1">  1        1 0.15758137E+00 0.77737067E+03</pdfrwt>
<pdfrwt beam="2">  1       -1 0.21045903E+00 0.77737067E+03</pdfrwt>
<totfact> 0.19222983E+00</totfact>
</mgrwt>
</event>
<event>
 4    5  0.7214169E-008  0.8522171E+03  0.7818608E-02  0.9607560E-01
          1   -1    0    0  501    0  0.00000000000E+00  0.00000000000E+00  0.94773434299E+03  0.94773434300E+03  0.50400000000E-02 0. -1.
         -1   -1    0    0    0  501 -0.00000000000E+00 -0.00000000000E+00 -0.60451387439E+03  0.60451387441E+03  0.50400000000E-02 0.  1.
    8880023    1    1    2    0    0  0.32682922115E+03  0.43086712226E+03 -0.69390024306E+02  0.85503742525E+03  0.65864270000E+03 0.  1.
    8880022    1    1    2    0    0 -0.32682922115E+03 -0.43086712226E+03  0.41261049290E+03  0.69721079216E+03  0.15294330000E+03 0. -1.
<mgrwt>
<rscale>  0 0.76797793E+03</rscale>
<asrwt>0</asrwt>
<pdfrwt beam="1">  1        1 0.14580528E+00 0.85221712E+03</pdfrwt>
<pdfrwt beam="2">  1       -1 0.93002134E-01 0.85221712E+03</pdfrwt>
<totfact> 0.19010969E+01</totfact>
</mgrwt>
</event>
<event>
 4    5  0.7214169E-008  0.7878594E+03  0.7818608E-02  0.9737689E-01
         -1   -1    0    0    0  501 -0.00000000000E+00  0.00000000000E+00  0.70355210931E+03  0.70355210932E+03  0.50400000000E-02 0.  1.
          1   -1    0    0  501    0  0.00000000000E+00 -0.00000000000E+00 -0.19391341223E+04  0.19391341223E+04  0.50400000000E-02 0. -1.
    8880023    1    1    2    0    0 -0.40381322052E+03 -0.15442486891E+03  0.44212227367E+03  0.90343481688E+03  0.65864270000E+03 0.  1.
    8880022    1    1    2    0    0  0.40381322052E+03  0.15442486891E+03 -0.16777042867E+04  0.17392514148E+04  0.15294330000E+03 0.  0.
<mgrwt>
<rscale>  0 0.68816474E+03</rscale>
<asrwt>0</asrwt>
<pdfrwt beam="1">  1        1 0.29832832E+00 0.78785936E+03</pdfrwt>
<pdfrwt beam="2">  1       -1 0.10823879E+00 0.78785936E+03</pdfrwt>
<totfact> 0.27144175E+00</totfact>
</mgrwt>
</event>
<event>
 4    5  0.7214169E-008  0.8731816E+03  0.7818608E-02  0.9570533E-01
         -1   -1    0    0    0  501 -0.00000000000E+00  0.00000000000E+00  0.44893376862E+03  0.44893376865E+03  0.50400000000E-02 0.  1.
          1   -1    0    0  501    0  0.00000000000E+00 -0.00000000000E+00 -0.19047808147E+04  0.19047808147E+04  0.50400000000E-02 0. -1.
    8880023    1    1    2    0    0  0.52286959852E+03 -0.23503887306E+03 -0.10645972144E+03  0.87964752455E+03  0.65864270000E+03 0.  1.
    8880022    1    1    2    0    0 -0.52286959852E+03  0.23503887306E+03 -0.13493873247E+04  0.14740670588E+04  0.15294330000E+03 0.  0.
<mgrwt>
<rscale>  0 0.79277603E+03</rscale>
<asrwt>0</asrwt>
<pdfrwt beam="1">  1        1 0.29304320E+00 0.87318159E+03</pdfrwt>
<pdfrwt beam="2">  1       -1 0.69066734E-01 0.87318159E+03</pdfrwt>
<totfact> 0.75307820E+00</totfact>
</mgrwt>
</event>
<event>
 4    5  0.7214169E-008  0.1615208E+04  0.7818608E-02  0.8832296E-01
          1   -1    0    0  501    0  0.00000000000E+00  0.00000000000E+00  0.31090186825E+04  0.31090186825E+04  0.50400000000E-02 0. -1.
         -1   -1    0    0    0  501 -0.00000000000E+00 -0.00000000000E+00 -0.91056170471E+03  0.91056170472E+03  0.50400000000E-02 0.  1.
    8880023    1    1    2    0    0 -0.48167571988E+03 -0.13939417909E+04  0.35488842783E+03  0.16537355345E+04  0.65864270000E+03 0.  0.
    8880022    1    1    2    0    0  0.48167571988E+03  0.13939417909E+04  0.18435685499E+04  0.23658448527E+04  0.15294330000E+03 0.  0.
<mgrwt>
<rscale>  0 0.15810168E+04</rscale>
<asrwt>0</asrwt>
<pdfrwt beam="1">  1        1 0.47831057E+00 0.16152075E+04</pdfrwt>
<pdfrwt beam="2">  1       -1 0.14008641E+00 0.16152075E+04</pdfrwt>
<totfact> 0.19568746E-01</totfact>
</mgrwt>
</event>
<event>
 4    5  0.7214169E-008  0.7963145E+03  0.7818608E-02  0.9718822E-01
         -1   -1    0    0    0  501 -0.00000000000E+00  0.00000000000E+00  0.68715694107E+03  0.68715694109E+03  0.50400000000E-02 0.  1.
          1   -1    0    0  501    0  0.00000000000E+00 -0.00000000000E+00 -0.72424290730E+03  0.72424290732E+03  0.50400000000E-02 0. -1.
    8880023    1    1    2    0    0  0.38641062822E+03  0.22581708185E+03  0.27759611141E+03  0.84331271507E+03  0.65864270000E+03 0.  0.
    8880022    1    1    2    0    0 -0.38641062822E+03 -0.22581708185E+03 -0.31468207765E+03  0.56808713334E+03  0.15294330000E+03 0.  0.
<mgrwt>
<rscale>  0 0.69907096E+03</rscale>
<asrwt>0</asrwt>
<pdfrwt beam="1">  1        1 0.11142199E+00 0.79631447E+03</pdfrwt>
<pdfrwt beam="2">  1       -1 0.10571645E+00 0.79631447E+03</pdfrwt>
<totfact> 0.22133066E+01</totfact>
</mgrwt>
</event>
<event>
 4    5  0.8226574E-008  0.9144096E+03  0.7818608E-02  0.9503285E-01
          1   -1    0    0  501    0  0.00000000000E+00  0.00000000000E+00  0.14318299290E+04  0.14318299290E+04  0.50400000000E-02 0. -1.
         -1   -1    0    0    0  501 -0.00000000000E+00 -0.00000000000E+00 -0.19547929268E+04  0.19547929268E+04  0.50400000000E-02 0.  1.
    8880023    1    1    2    0    0 -0.63426756564E+03  0.62691730449E+01 -0.17626462749E+04  0.19857156755E+04  0.65864270000E+03 0.  0.
    8880022    1    1    2    0    0  0.63426756564E+03 -0.62691730449E+01  0.12396832771E+04  0.14009071803E+04  0.15294330000E+03 0.  0.
<mgrwt>
<rscale>  0 0.84042097E+03</rscale>
<asrwt>0</asrwt>
<pdfrwt beam="1">  1        1 0.22028153E+00 0.91440957E+03</pdfrwt>
<pdfrwt beam="2">  1       -1 0.30073737E+00 0.91440957E+03</pdfrwt>
<totfact> 0.24626600E-01</totfact>
</mgrwt>
</event>
<event>
 4    5  0.7214169E-008  0.6793566E+03  0.7818608E-02  0.1009690E+00
          1   -1    0    0  501    0  0.00000000000E+00  0.00000000000E+00  0.49221063070E+03  0.49221063072E+03  0.50400000000E-02 0. -1.
         -1   -1    0    0    0  501 -0.00000000000E+00 -0.00000000000E+00 -0.15604074734E+04  0.15604074734E+04  0.50400000000E-02 0.  1.
    8880023    1    1    2    0    0  0.15039023679E+03  0.71400033097E+02 -0.14543272659E+04  0.16051769966E+04  0.65864270000E+03 0.  1.
    8880022    1    1    2    0    0 -0.15039023679E+03 -0.71400033097E+02  0.38613042311E+03  0.44744110754E+03  0.15294330000E+03 0.  0.
<mgrwt>
<rscale>  0 0.51598043E+03</rscale>
<asrwt>0</asrwt>
<pdfrwt beam="1">  1        1 0.75724713E-01 0.67935660E+03</pdfrwt>
<pdfrwt beam="2">  1       -1 0.24006269E+00 0.67935660E+03</pdfrwt>
<totfact> 0.38607531E+00</totfact>
</mgrwt>
</event>
<event>
 4    5  0.7214169E-008  0.7023327E+03  0.7818608E-02  0.9987658E-01
         -1   -1    0    0    0  501 -0.00000000000E+00  0.00000000000E+00  0.27725918700E+03  0.27725918704E+03  0.50400000000E-02 0.  1.
          1   -1    0    0  501    0  0.00000000000E+00 -0.00000000000E+00 -0.18506359949E+04  0.18506359949E+04  0.50400000000E-02 0. -1.
    8880023    1    1    2    0    0 -0.24344833020E+03  0.13925279410E+02 -0.20796836822E+03  0.73247665582E+03  0.65864270000E+03 0.  1.
    8880022    1    1    2    0    0  0.24344833020E+03 -0.13925279410E+02 -0.13654084397E+04  0.13954185262E+04  0.15294330000E+03 0.  0.
<mgrwt>
<rscale>  0 0.56194714E+03</rscale>
<asrwt>0</asrwt>
<pdfrwt beam="1">  1        1 0.28471322E+00 0.70233269E+03</pdfrwt>
<pdfrwt beam="2">  1       -1 0.42655261E-01 0.70233269E+03</pdfrwt>
<totfact> 0.21290142E+01</totfact>
</mgrwt>
</event>
<event>
 4    5  0.7214169E-008  0.7365442E+03  0.7818608E-02  0.9870130E-01
          1   -1    0    0  501    0  0.00000000000E+00  0.00000000000E+00  0.64841160416E+03  0.64841160418E+03  0.50400000000E-02 0. -1.
         -1   -1    0    0    0  501 -0.00000000000E+00 -0.00000000000E+00 -0.66829161208E+03  0.66829161210E+03  0.50400000000E-02 0.  1.
    8880023    1    1    2    0    0 -0.31299424101E+03 -0.10354563612E+03 -0.35922656964E+03  0.81947606937E+03  0.65864270000E+03 0.  1.
    8880022    1    1    2    0    0  0.31299424101E+03  0.10354563612E+03  0.33934656171E+03  0.49722714691E+03  0.15294330000E+03 0.  0.
<mgrwt>
<rscale>  0 0.61730985E+03</rscale>
<asrwt>0</asrwt>
<pdfrwt beam="1">  1        1 0.99755631E-01 0.73654416E+03</pdfrwt>
<pdfrwt beam="2">  1       -1 0.10281409E+00 0.73654416E+03</pdfrwt>
<totfact> 0.28049186E+01</totfact>
</mgrwt>
</event>
<event>
 4    5  0.7214169E-008  0.9535169E+03  0.7818608E-02  0.9445072E-01
          1   -1    0    0  501    0  0.00000000000E+00  0.00000000000E+00  0.16563946655E+04  0.16563946655E+04  0.50400000000E-02 0. -1.
         -1   -1    0    0    0  501 -0.00000000000E+00 -0.00000000000E+00 -0.11273431714E+04  0.11273431714E+04  0.50400000000E-02 0.  1.
    8880023    1    1    2    0    0  0.10629236643E+03 -0.68123870365E+03 -0.82220341840E+03  0.12590523841E+04  0.65864270000E+03 0.  1.
    8880022    1    1    2    0    0 -0.10629236643E+03  0.68123870365E+03  0.13512549125E+04  0.15246854528E+04  0.15294330000E+03 0.  0.
<mgrwt>
<rscale>  0 0.88457461E+03</rscale>
<asrwt>0</asrwt>
<pdfrwt beam="1">  1        1 0.25482995E+00 0.95351688E+03</pdfrwt>
<pdfrwt beam="2">  1       -1 0.17343741E+00 0.95351688E+03</pdfrwt>
<totfact> 0.12028742E+00</totfact>
</mgrwt>
</event>
<event>
 4    5  0.8876234E-008  0.7443220E+03  0.7818608E-02  0.9847532E-01
          1   -1    0    0  501    0  0.00000000000E+00  0.00000000000E+00  0.25709926482E+04  0.25709926482E+04  0.50400000000E-02 0. -1.
         -1   -1    0    0    0  501 -0.00000000000E+00 -0.00000000000E+00 -0.97893812645E+03  0.97893812646E+03  0.50400000000E-02 0.  1.
    8880023    1    1    2    0    0 -0.34265560563E+03 -0.52840598804E+02 -0.82049461643E+03  0.11078026064E+04  0.65864270000E+03 0.  1.
    8880022    1    1    2    0    0  0.34265560563E+03  0.52840598804E+02  0.24125491382E+04  0.24421281683E+04  0.15294330000E+03 0.  0.
<mgrwt>
<rscale>  0 0.62872925E+03</rscale>
<asrwt>0</asrwt>
<pdfrwt beam="1">  1        1 0.39553733E+00 0.74432197E+03</pdfrwt>
<pdfrwt beam="2">  1       -1 0.15060587E+00 0.74432197E+03</pdfrwt>
<totfact> 0.44861868E-01</totfact>
</mgrwt>
</event>
<event>
 4    5  0.7409279E-008  0.1028717E+04  0.7818608E-02  0.9344915E-01
         -1   -1    0    0    0  501 -0.00000000000E+00  0.00000000000E+00  0.13025374084E+04  0.13025374084E+04  0.50400000000E-02 0.  1.
          1   -1    0    0  501    0  0.00000000000E+00 -0.00000000000E+00 -0.27241139916E+04  0.27241139916E+04  0.50400000000E-02 0. -1.
    8880023    1    1    2    0    0  0.25445888205E+03 -0.74813058349E+03  0.10243226195E+04  0.14517216426E+04  0.65864270000E+03 0.  1.
    8880022    1    1    2    0    0 -0.25445888205E+03  0.74813058349E+03 -0.24458992027E+04  0.25749297574E+04  0.15294330000E+03 0.  0.
<mgrwt>
<rscale>  0 0.96751002E+03</rscale>
<asrwt>0</asrwt>
<pdfrwt beam="1">  1        1 0.41909446E+00 0.10287171E+04</pdfrwt>
<pdfrwt beam="2">  1       -1 0.20039037E+00 0.10287171E+04</pdfrwt>
<totfact> 0.14373642E-01</totfact>
</mgrwt>
</event>
<event>
 4    5  0.7214169E-008  0.7126207E+03  0.7818608E-02  0.9948395E-01
         -1   -1    0    0    0  501 -0.00000000000E+00  0.00000000000E+00  0.62609684911E+03  0.62609684913E+03  0.50400000000E-02 0.  1.
          1   -1    0    0  501    0  0.00000000000E+00 -0.00000000000E+00 -0.16242462675E+04  0.16242462675E+04  0.50400000000E-02 0. -1.
    8880023    1    1    2    0    0 -0.11688121830E+03 -0.24567627540E+03  0.40039187726E+03  0.81739948197E+03  0.65864270000E+03 0.  1.
    8880022    1    1    2    0    0  0.11688121830E+03  0.24567627540E+03 -0.13985412956E+04  0.14329436346E+04  0.15294330000E+03 0.  0.
<mgrwt>
<rscale>  0 0.57972109E+03</rscale>
<asrwt>0</asrwt>
<pdfrwt beam="1">  1        1 0.24988404E+00 0.71262070E+03</pdfrwt>
<pdfrwt beam="2">  1       -1 0.96322593E-01 0.71262070E+03</pdfrwt>
<totfact> 0.58501150E+00</totfact>
</mgrwt>
</event>
<event>
 4    5  0.7214169E-008  0.1094555E+04  0.7818608E-02  0.9267143E-01
         -1   -1    0    0    0  501 -0.00000000000E+00  0.00000000000E+00  0.21537553572E+04  0.21537553572E+04  0.50400000000E-02 0.  1.
          1   -1    0    0  501    0  0.00000000000E+00 -0.00000000000E+00 -0.58218606791E+03  0.58218606793E+03  0.50400000000E-02 0. -1.
    8880023    1    1    2    0    0 -0.87074184711E+03 -0.77777799637E+02  0.14842163792E+04  0.18441662661E+04  0.65864270000E+03 0.  0.
    8880022    1    1    2    0    0  0.87074184711E+03  0.77777799637E+02  0.87352910124E+02  0.89177515908E+03  0.15294330000E+03 0.  0.
<mgrwt>
<rscale>  0 0.10386487E+04</rscale>
<asrwt>0</asrwt>
<pdfrwt beam="1">  1        1 0.89567088E-01 0.10945551E+04</pdfrwt>
<pdfrwt beam="2">  1       -1 0.33134698E+00 0.10945551E+04</pdfrwt>
<totfact> 0.74162573E-01</totfact>
</mgrwt>
</event>
<event>
 4    5  0.7214169E-008  0.1396530E+04  0.7818608E-02  0.8986384E-01
          1   -1    0    0  501    0  0.00000000000E+00  0.00000000000E+00  0.19473115855E+04  0.19473115855E+04  0.50400000000E-02 0. -1.
         -1   -1    0    0    0  501 -0.00000000000E+00 -0.00000000000E+00 -0.21077971358E+04  0.21077971358E+04  0.50400000000E-02 0.  1.
    8880023    1    1    2    0    0  0.45279647526E+02 -0.12306239396E+04  0.14558415663E+04  0.20173671950E+04  0.65864270000E+03 0.  0.
    8880022    1    1    2    0    0 -0.45279647526E+02  0.12306239396E+04 -0.16163271165E+04  0.20377415263E+04  0.15294330000E+03 0.  0.
<mgrwt>
<rscale>  0 0.13558868E+04</rscale>
<asrwt>0</asrwt>
<pdfrwt beam="1">  1        1 0.29958640E+00 0.13965299E+04</pdfrwt>
<pdfrwt beam="2">  1       -1 0.32427648E+00 0.13965299E+04</pdfrwt>
<totfact> 0.71109085E-02</totfact>
</mgrwt>
</event>
<event>
 4    5  0.7214169E-008  0.8085945E+03  0.7818608E-02  0.9692512E-01
         -1   -1    0    0    0  501 -0.00000000000E+00  0.00000000000E+00  0.55433483391E+03  0.55433483393E+03  0.50400000000E-02 0.  1.
          1   -1    0    0  501    0  0.00000000000E+00 -0.00000000000E+00 -0.10584317355E+04  0.10584317356E+04  0.50400000000E-02 0. -1.
    8880023    1    1    2    0    0  0.45017054414E+03  0.13176235866E+03  0.11974648023E+03  0.81741315365E+03  0.65864270000E+03 0.  1.
    8880022    1    1    2    0    0 -0.45017054414E+03 -0.13176235866E+03 -0.62384338186E+03  0.79535341583E+03  0.15294330000E+03 0.  0.
<mgrwt>
<rscale>  0 0.71464375E+03</rscale>
<asrwt>0</asrwt>
<pdfrwt beam="1">  1        1 0.16283565E+00 0.80859449E+03</pdfrwt>
<pdfrwt beam="2">  1       -1 0.85282282E-01 0.80859449E+03</pdfrwt>
<totfact> 0.18955912E+01</totfact>
</mgrwt>
</event>
<event>
 4    5  0.7214169E-008  0.7690625E+03  0.7818608E-02  0.9782186E-01
          1   -1    0    0  501    0  0.00000000000E+00  0.00000000000E+00  0.37094797430E+03  0.37094797433E+03  0.50400000000E-02 0. -1.
         -1   -1    0    0    0  501 -0.00000000000E+00 -0.00000000000E+00 -0.14104960513E+04  0.14104960513E+04  0.50400000000E-02 0.  1.
    8880023    1    1    2    0    0  0.38705605299E+03  0.88513315251E+02 -0.11097694472E+04  0.13502019950E+04  0.65864270000E+03 0. -1.
    8880022    1    1    2    0    0 -0.38705605299E+03 -0.88513315251E+02  0.70221370201E+02  0.43124203063E+03  0.15294330000E+03 0.  0.
<mgrwt>
<rscale>  0 0.66327352E+03</rscale>
<asrwt>0</asrwt>
<pdfrwt beam="1">  1        1 0.57068920E-01 0.76906255E+03</pdfrwt>
<pdfrwt beam="2">  1       -1 0.21699939E+00 0.76906255E+03</pdfrwt>
<totfact> 0.78858502E+00</totfact>
</mgrwt>
</event>
<event>
 4    5  0.7214169E-008  0.7840880E+03  0.7818608E-02  0.9746320E-01
          1   -1    0    0  501    0  0.00000000000E+00  0.00000000000E+00  0.15622604365E+04  0.15622604365E+04  0.50400000000E-02 0. -1.
         -1   -1    0    0    0  501 -0.00000000000E+00 -0.00000000000E+00 -0.32312301434E+03  0.32312301438E+03  0.50400000000E-02 0.  1.
    8880023    1    1    2    0    0  0.42072777619E+03  0.63023461869E+02  0.29346339358E+03  0.83720653846E+03  0.65864270000E+03 0.  0.
    8880022    1    1    2    0    0 -0.42072777619E+03 -0.63023461869E+02  0.94567402856E+03  0.10481769124E+04  0.15294330000E+03 0.  0.
<mgrwt>
<rscale>  0 0.68324618E+03</rscale>
<asrwt>0</asrwt>
<pdfrwt beam="1">  1        1 0.24034776E+00 0.78408802E+03</pdfrwt>
<pdfrwt beam="2">  1       -1 0.49711233E-01 0.78408802E+03</pdfrwt>
<totfact> 0.24752615E+01</totfact>
</mgrwt>
</event>
<event>
 4    5  0.7214169E-008  0.1157549E+04  0.7818608E-02  0.9199535E-01
          1   -1    0    0  501    0  0.00000000000E+00  0.00000000000E+00  0.13870125294E+04  0.13870125294E+04  0.50400000000E-02 0. -1.
         -1   -1    0    0    0  501 -0.00000000000E+00 -0.00000000000E+00 -0.15186846848E+04  0.15186846848E+04  0.50400000000E-02 0.  1.
    8880023    1    1    2    0    0  0.91790909476E+03 -0.25209415377E+03 -0.10583522452E+04  0.15684477198E+04  0.65864270000E+03 0.  1.
    8880022    1    1    2    0    0 -0.91790909476E+03  0.25209415377E+03  0.92668008974E+03  0.13372494944E+04  0.15294330000E+03 0.  0.
<mgrwt>
<rscale>  0 0.11058230E+04</rscale>
<asrwt>0</asrwt>
<pdfrwt beam="1">  1        1 0.21338654E+00 0.11575486E+04</pdfrwt>
<pdfrwt beam="2">  1       -1 0.23364380E+00 0.11575486E+04</pdfrwt>
<totfact> 0.69070992E-01</totfact>
</mgrwt>
</event>
<event>
 4    5  0.7214169E-008  0.6603075E+03  0.7818608E-02  0.1023844E+00
          1   -1    0    0  501    0  0.00000000000E+00  0.00000000000E+00  0.24426554226E+04  0.24426554226E+04  0.50400000000E-02 0. -1.
         -1   -1    0    0    0  501 -0.00000000000E+00 -0.00000000000E+00 -0.18355953935E+04  0.18355953935E+04  0.50400000000E-02 0.  1.
    8880023    1    1    2    0    0 -0.27221044296E+02 -0.38141115076E+02 -0.17734421901E+04  0.18923802836E+04  0.65864270000E+03 0.  1.
    8880022    1    1    2    0    0  0.27221044296E+02  0.38141115076E+02  0.23805022191E+04  0.23858705325E+04  0.15294330000E+03 0.  0.
<mgrwt>
<rscale>  0 0.46324729E+03</rscale>
<asrwt>0</asrwt>
<pdfrwt beam="1">  1        1 0.37579314E+00 0.66030746E+03</pdfrwt>
<pdfrwt beam="2">  1       -1 0.28239929E+00 0.66030746E+03</pdfrwt>
<totfact> 0.71650419E-02</totfact>
</mgrwt>
</event>
<event>
 4    5  0.7214169E-008  0.8423622E+03  0.7818608E-02  0.9625742E-01
          1   -1    0    0  501    0  0.00000000000E+00  0.00000000000E+00  0.12483606833E+04  0.12483606833E+04  0.50400000000E-02 0. -1.
         -1   -1    0    0    0  501 -0.00000000000E+00 -0.00000000000E+00 -0.50158956801E+03  0.50158956804E+03  0.50400000000E-02 0.  1.
    8880023    1    1    2    0    0  0.37064112395E+03 -0.37200679430E+03  0.22895506788E+02  0.84267331052E+03  0.65864270000E+03 0.  0.
    8880022    1    1    2    0    0 -0.37064112395E+03  0.37200679430E+03  0.72387560853E+03  0.90727694085E+03  0.15294330000E+03 0.  0.
<mgrwt>
<rscale>  0 0.75615581E+03</rscale>
<asrwt>0</asrwt>
<pdfrwt beam="1">  1        1 0.19205549E+00 0.84236222E+03</pdfrwt>
<pdfrwt beam="2">  1       -1 0.77167627E-01 0.84236222E+03</pdfrwt>
<totfact> 0.16938492E+01</totfact>
</mgrwt>
</event>
<event>
 4    5  0.7214169E-008  0.1312026E+04  0.7818608E-02  0.9055243E-01
         -1   -1    0    0    0  501 -0.00000000000E+00  0.00000000000E+00  0.11110766518E+04  0.11110766518E+04  0.50400000000E-02 0.  1.
          1   -1    0    0  501    0  0.00000000000E+00 -0.00000000000E+00 -0.17072610286E+04  0.17072610286E+04  0.50400000000E-02 0. -1.
    8880023    1    1    2    0    0 -0.92649978506E+03 -0.65513440102E+03  0.32165901427E+03  0.13508803288E+04  0.65864270000E+03 0.  0.
    8880022    1    1    2    0    0  0.92649978506E+03  0.65513440102E+03 -0.91784339104E+03  0.14674573515E+04  0.15294330000E+03 0.  0.
<mgrwt>
<rscale>  0 0.12681103E+04</rscale>
<asrwt>0</asrwt>
<pdfrwt beam="1">  1        1 0.26265554E+00 0.13120263E+04</pdfrwt>
<pdfrwt beam="2">  1       -1 0.17093487E+00 0.13120263E+04</pdfrwt>
<totfact> 0.11044106E+00</totfact>
</mgrwt>
</event>
<event>
 4    5  0.1169645E-007  0.9728540E+03  0.7818608E-02  0.9417968E-01
          1   -1    0    0  501    0  0.00000000000E+00  0.00000000000E+00  0.21384039556E+04  0.21384039556E+04  0.50400000000E-02 0. -1.
         -1   -1    0    0    0  501 -0.00000000000E+00 -0.00000000000E+00 -0.13001069059E+04  0.13001069059E+04  0.50400000000E-02 0.  1.
    8880023    1    1    2    0    0  0.71369795343E+03  0.57183730732E+02 -0.10390813867E+04  0.14234237184E+04  0.65864270000E+03 0.  0.
    8880022    1    1    2    0    0 -0.71369795343E+03 -0.57183730732E+02  0.18773784364E+04  0.20150871431E+04  0.15294330000E+03 0.  0.
<mgrwt>
<rscale>  0 0.90611649E+03</rscale>
<asrwt>0</asrwt>
<pdfrwt beam="1">  1        1 0.32898522E+00 0.97285403E+03</pdfrwt>
<pdfrwt beam="2">  1       -1 0.20001645E+00 0.97285403E+03</pdfrwt>
<totfact> 0.36815523E-01</totfact>
</mgrwt>
</event>
<event>
 4    5  0.7214169E-008  0.8761984E+03  0.7818608E-02  0.9565375E-01
          1   -1    0    0  501    0  0.00000000000E+00  0.00000000000E+00  0.37989692381E+04  0.37989692381E+04  0.50400000000E-02 0. -1.
         -1   -1    0    0    0  501 -0.00000000000E+00 -0.00000000000E+00 -0.12584687482E+04  0.12584687482E+04  0.50400000000E-02 0.  1.
    8880023    1    1    2    0    0  0.45076858685E+03  0.36155371323E+03 -0.10784099797E+04  0.13894933239E+04  0.65864270000E+03 0.  1.
    8880022    1    1    2    0    0 -0.45076858685E+03 -0.36155371323E+03  0.36189104696E+04  0.36679446624E+04  0.15294330000E+03 0.  0.
<mgrwt>
<rscale>  0 0.79630920E+03</rscale>
<asrwt>0</asrwt>
<pdfrwt beam="1">  1        1 0.58445680E+00 0.87619839E+03</pdfrwt>
<pdfrwt beam="2">  1       -1 0.19361058E+00 0.87619839E+03</pdfrwt>
<totfact> 0.25769043E-02</totfact>
</mgrwt>
</event>
<event>
 4    5  0.7214169E-008  0.8103834E+03  0.7818608E-02  0.9688779E-01
          1   -1    0    0  501    0  0.00000000000E+00  0.00000000000E+00  0.12705344706E+04  0.12705344706E+04  0.50400000000E-02 0. -1.
         -1   -1    0    0    0  501 -0.00000000000E+00 -0.00000000000E+00 -0.12306020842E+04  0.12306020842E+04  0.50400000000E-02 0.  1.
    8880023    1    1    2    0    0 -0.40446818680E+03 -0.24354973048E+03 -0.10365652280E+04  0.13157464282E+04  0.65864270000E+03 0.  0.
    8880022    1    1    2    0    0  0.40446818680E+03  0.24354973048E+03  0.10764976144E+04  0.11853901266E+04  0.15294330000E+03 0.  0.
<mgrwt>
<rscale>  0 0.71688834E+03</rscale>
<asrwt>0</asrwt>
<pdfrwt beam="1">  1        1 0.19546684E+00 0.81038336E+03</pdfrwt>
<pdfrwt beam="2">  1       -1 0.18932340E+00 0.81038336E+03</pdfrwt>
<totfact> 0.17558446E+00</totfact>
</mgrwt>
</event>
<event>
 4    5  0.7214169E-008  0.6846929E+03  0.7818608E-02  0.1006785E+00
         -1   -1    0    0    0  501 -0.00000000000E+00  0.00000000000E+00  0.36172721106E+03  0.36172721110E+03  0.50400000000E-02 0.  1.
          1   -1    0    0  501    0  0.00000000000E+00 -0.00000000000E+00 -0.12327231614E+04  0.12327231614E+04  0.50400000000E-02 0. -1.
    8880023    1    1    2    0    0  0.18014425331E+03 -0.50419994259E+02  0.60582989482E+01  0.68471967773E+03  0.65864270000E+03 0.  1.
    8880022    1    1    2    0    0 -0.18014425331E+03  0.50419994259E+02 -0.87705424926E+03  0.90973069476E+03  0.15294330000E+03 0.  0.
<mgrwt>
<rscale>  0 0.52772813E+03</rscale>
<asrwt>0</asrwt>
<pdfrwt beam="1">  1        1 0.18964972E+00 0.68469288E+03</pdfrwt>
<pdfrwt beam="2">  1       -1 0.55650341E-01 0.68469288E+03</pdfrwt>
<totfact> 0.34230347E+01</totfact>
</mgrwt>
</event>
<event>
 4    5  0.7214169E-008  0.1447361E+04  0.7818608E-02  0.8947729E-01
          1   -1    0    0  501    0  0.00000000000E+00  0.00000000000E+00  0.35594885500E+04  0.35594885500E+04  0.50400000000E-02 0. -1.
         -1   -1    0    0    0  501 -0.00000000000E+00 -0.00000000000E+00 -0.99480915900E+03  0.99480915901E+03  0.50400000000E-02 0.  1.
    8880023    1    1    2    0    0 -0.12796550023E+04  0.15338534612E+03 -0.23697083615E+03  0.14666319827E+04  0.65864270000E+03 0.  0.
    8880022    1    1    2    0    0  0.12796550023E+04 -0.15338534612E+03  0.28016502271E+04  0.30876657263E+04  0.15294330000E+03 0.  0.
<mgrwt>
<rscale>  0 0.14084437E+04</rscale>
<asrwt>0</asrwt>
<pdfrwt beam="1">  1        1 0.54761362E+00 0.14473611E+04</pdfrwt>
<pdfrwt beam="2">  1       -1 0.15304756E+00 0.14473611E+04</pdfrwt>
<totfact> 0.71356615E-02</totfact>
</mgrwt>
</event>
<event>
 4    5  0.7214169E-008  0.1288250E+04  0.7818608E-02  0.9075774E-01
          1   -1    0    0  501    0  0.00000000000E+00  0.00000000000E+00  0.14518193767E+04  0.14518193767E+04  0.50400000000E-02 0. -1.
         -1   -1    0    0    0  501 -0.00000000000E+00 -0.00000000000E+00 -0.12156274696E+04  0.12156274696E+04  0.50400000000E-02 0.  1.
    8880023    1    1    2    0    0  0.10890533595E+04  0.19934967359E+03  0.68972625708E+03  0.14612700053E+04  0.65864270000E+03 0.  0.
    8880022    1    1    2    0    0 -0.10890533595E+04 -0.19934967359E+03 -0.45353434995E+03  0.12061768411E+04  0.15294330000E+03 0.  0.
<mgrwt>
<rscale>  0 0.12433052E+04</rscale>
<asrwt>0</asrwt>
<pdfrwt beam="1">  1        1 0.22335683E+00 0.12882499E+04</pdfrwt>
<pdfrwt beam="2">  1       -1 0.18701961E+00 0.12882499E+04</pdfrwt>
<totfact> 0.12711731E+00</totfact>
</mgrwt>
</event>
<event>
 4    5  0.7214169E-008  0.9225305E+03  0.7818608E-02  0.9490790E-01
         -1   -1    0    0    0  501 -0.00000000000E+00  0.00000000000E+00  0.43280401077E+03  0.43280401080E+03  0.50400000000E-02 0.  1.
          1   -1    0    0  501    0  0.00000000000E+00 -0.00000000000E+00 -0.17387329377E+04  0.17387329377E+04  0.50400000000E-02 0. -1.
    8880023    1    1    2    0    0  0.54863679235E+03 -0.34095451145E+03 -0.30721362305E+03  0.97233879139E+03  0.65864270000E+03 0.  0.
    8880022    1    1    2    0    0 -0.54863679235E+03  0.34095451145E+03 -0.99871530383E+03  0.11991981571E+04  0.15294330000E+03 0.  0.
<mgrwt>
<rscale>  0 0.84966265E+03</rscale>
<asrwt>0</asrwt>
<pdfrwt beam="1">  1        1 0.26749737E+00 0.92253050E+03</pdfrwt>
<pdfrwt beam="2">  1       -1 0.66585233E-01 0.92253050E+03</pdfrwt>
<totfact> 0.10427556E+01</totfact>
</mgrwt>
</event>
<event>
 4    5  0.7214169E-008  0.7724440E+03  0.7818608E-02  0.9773895E-01
          1   -1    0    0  501    0  0.00000000000E+00  0.00000000000E+00  0.16928869680E+04  0.16928869681E+04  0.50400000000E-02 0. -1.
         -1   -1    0    0    0  501 -0.00000000000E+00 -0.00000000000E+00 -0.32486998935E+03  0.32486998939E+03  0.50400000000E-02 0.  1.
    8880023    1    1    2    0    0  0.28725032267E+03  0.28345496155E+03  0.23822663118E+03  0.80834497411E+03  0.65864270000E+03 0.  1.
    8880022    1    1    2    0    0 -0.28725032267E+03 -0.28345496155E+03  0.11297903475E+04  0.12094119833E+04  0.15294330000E+03 0.  0.
<mgrwt>
<rscale>  0 0.66782488E+03</rscale>
<asrwt>0</asrwt>
<pdfrwt beam="1">  1        1 0.26044415E+00 0.77244396E+03</pdfrwt>
<pdfrwt beam="2">  1       -1 0.49979998E-01 0.77244396E+03</pdfrwt>
<totfact> 0.20015586E+01</totfact>
</mgrwt>
</event>
<event>
 4    5  0.7214169E-008  0.6743488E+03  0.7818608E-02  0.1012720E+00
          1   -1    0    0  501    0  0.00000000000E+00  0.00000000000E+00  0.11820031217E+04  0.11820031217E+04  0.50400000000E-02 0. -1.
         -1   -1    0    0    0  501 -0.00000000000E+00 -0.00000000000E+00 -0.25721814247E+03  0.25721814252E+03  0.50400000000E-02 0.  1.
    8880023    1    1    2    0    0  0.91753635928E+02  0.11188128945E+03  0.22882936275E+03  0.71211602717E+03  0.65864270000E+03 0.  1.
    8880022    1    1    2    0    0 -0.91753635928E+02 -0.11188128945E+03  0.69595561649E+03  0.72710523707E+03  0.15294330000E+03 0.  0.
<mgrwt>
<rscale>  0 0.50407829E+03</rscale>
<asrwt>0</asrwt>
<pdfrwt beam="1">  1        1 0.18184664E+00 0.67434884E+03</pdfrwt>
<pdfrwt beam="2">  1       -1 0.39572022E-01 0.67434884E+03</pdfrwt>
<totfact> 0.70521964E+01</totfact>
</mgrwt>
</event>
<event>
 4    5  0.7214169E-008  0.8346039E+03  0.7818608E-02  0.9640440E-01
          1   -1    0    0  501    0  0.00000000000E+00  0.00000000000E+00  0.17474856541E+04  0.17474856541E+04  0.50400000000E-02 0. -1.
         -1   -1    0    0    0  501 -0.00000000000E+00 -0.00000000000E+00 -0.28840764528E+03  0.28840764533E+03  0.50400000000E-02 0.  1.
    8880023    1    1    2    0    0  0.88190692381E+02  0.50495141110E+03  0.61552973344E+03  0.10370345148E+04  0.65864270000E+03 0.  1.
    8880022    1    1    2    0    0 -0.88190692381E+02 -0.50495141110E+03  0.84354827537E+03  0.99885878466E+03  0.15294330000E+03 0.  0.
<mgrwt>
<rscale>  0 0.74676443E+03</rscale>
<asrwt>0</asrwt>
<pdfrwt beam="1">  1        1 0.26884395E+00 0.83460394E+03</pdfrwt>
<pdfrwt beam="2">  1       -1 0.44370407E-01 0.83460394E+03</pdfrwt>
<totfact> 0.22812504E+01</totfact>
</mgrwt>
</event>
<event>
 4    5  0.7214169E-008  0.1349906E+04  0.7818608E-02  0.9023618E-01
         -1   -1    0    0    0  501 -0.00000000000E+00  0.00000000000E+00  0.15272844308E+04  0.15272844308E+04  0.50400000000E-02 0.  1.
          1   -1    0    0  501    0  0.00000000000E+00 -0.00000000000E+00 -0.16311559940E+04  0.16311559940E+04  0.50400000000E-02 0. -1.
    8880023    1    1    2    0    0 -0.11748005016E+04  0.90998541175E+02  0.88367688619E+03  0.16134224489E+04  0.65864270000E+03 0.  0.
    8880022    1    1    2    0    0  0.11748005016E+04 -0.90998541175E+02 -0.98754844940E+03  0.15450179760E+04  0.15294330000E+03 0.  0.
<mgrwt>
<rscale>  0 0.13075264E+04</rscale>
<asrwt>0</asrwt>
<pdfrwt beam="1">  1        1 0.25094708E+00 0.13499064E+04</pdfrwt>
<pdfrwt beam="2">  1       -1 0.23496683E+00 0.13499064E+04</pdfrwt>
<totfact> 0.44708326E-01</totfact>
</mgrwt>
</event>
<event>
 4    5  0.7214169E-008  0.8256592E+03  0.7818608E-02  0.9657838E-01
          1   -1    0    0  501    0  0.00000000000E+00  0.00000000000E+00  0.32327116820E+04  0.32327116820E+04  0.50400000000E-02 0. -1.
         -1   -1    0    0    0  501 -0.00000000000E+00 -0.00000000000E+00 -0.37104815328E+03  0.37104815332E+03  0.50400000000E-02 0.  1.
    8880023    1    1    2    0    0 -0.76600886409E+02  0.49197077032E+03  0.14584020500E+03  0.83844052044E+03  0.65864270000E+03 0.  1.
    8880022    1    1    2    0    0  0.76600886409E+02 -0.49197077032E+03  0.27158233237E+04  0.27653193149E+04  0.15294330000E+03 0.  0.
<mgrwt>
<rscale>  0 0.73583555E+03</rscale>
<asrwt>0</asrwt>
<pdfrwt beam="1">  1        1 0.49734025E+00 0.82565922E+03</pdfrwt>
<pdfrwt beam="2">  1       -1 0.57084332E-01 0.82565922E+03</pdfrwt>
<totfact> 0.13300509E+00</totfact>
</mgrwt>
</event>
<event>
 4    5  0.7214169E-008  0.1983672E+04  0.7818608E-02  0.8627211E-01
          1   -1    0    0  501    0  0.00000000000E+00  0.00000000000E+00  0.27733061368E+04  0.27733061368E+04  0.50400000000E-02 0. -1.
         -1   -1    0    0    0  501 -0.00000000000E+00 -0.00000000000E+00 -0.24437315001E+04  0.24437315001E+04  0.50400000000E-02 0.  1.
    8880023    1    1    2    0    0 -0.16588781841E+04 -0.86560200746E+03 -0.15823581548E+04  0.25374812712E+04  0.65864270000E+03 0.  0.
    8880022    1    1    2    0    0  0.16588781841E+04  0.86560200746E+03  0.19119327915E+04  0.26795563658E+04  0.15294330000E+03 0.  0.
<mgrwt>
<rscale>  0 0.19565462E+04</rscale>
<asrwt>0</asrwt>
<pdfrwt beam="1">  1        1 0.42666248E+00 0.19836718E+04</pdfrwt>
<pdfrwt beam="2">  1       -1 0.37595869E+00 0.19836718E+04</pdfrwt>
<totfact> 0.80235492E-03</totfact>
</mgrwt>
</event>
<event>
 4    5  0.7214169E-008  0.8453296E+03  0.7818608E-02  0.9620211E-01
          1   -1    0    0  501    0  0.00000000000E+00  0.00000000000E+00  0.41651908802E+03  0.41651908805E+03  0.50400000000E-02 0. -1.
         -1   -1    0    0    0  501 -0.00000000000E+00 -0.00000000000E+00 -0.12757634955E+04  0.12757634955E+04  0.50400000000E-02 0.  1.
    8880023    1    1    2    0    0 -0.29917058509E+03 -0.43734306531E+03 -0.74994895084E+03  0.11300467384E+04  0.65864270000E+03 0.  0.
    8880022    1    1    2    0    0  0.29917058509E+03  0.43734306531E+03 -0.10929545664E+03  0.56223584519E+03  0.15294330000E+03 0.  0.
<mgrwt>
<rscale>  0 0.75972774E+03</rscale>
<asrwt>0</asrwt>
<pdfrwt beam="1">  1        1 0.64079860E-01 0.84532964E+03</pdfrwt>
<pdfrwt beam="2">  1       -1 0.19627131E+00 0.84532964E+03</pdfrwt>
<totfact> 0.92621028E+00</totfact>
</mgrwt>
</event>
<event>
 4    5  0.7214169E-008  0.6613839E+03  0.7818608E-02  0.1022781E+00
         -1   -1    0    0    0  501 -0.00000000000E+00  0.00000000000E+00  0.75755653654E+03  0.75755653656E+03  0.50400000000E-02 0.  1.
          1   -1    0    0  501    0  0.00000000000E+00 -0.00000000000E+00 -0.22306626053E+04  0.22306626053E+04  0.50400000000E-02 0. -1.
    8880023    1    1    2    0    0 -0.40787786035E+02  0.44213730026E+02  0.60934426636E+03  0.89929368875E+03  0.65864270000E+03 0.  1.
    8880022    1    1    2    0    0  0.40787786035E+02 -0.44213730026E+02 -0.20824503351E+04  0.20889254531E+04  0.15294330000E+03 0.  0.
<mgrwt>
<rscale>  0 0.46696153E+03</rscale>
<asrwt>0</asrwt>
<pdfrwt beam="1">  1        1 0.34317886E+00 0.66138393E+03</pdfrwt>
<pdfrwt beam="2">  1       -1 0.11654716E+00 0.66138393E+03</pdfrwt>
<totfact> 0.14923670E+00</totfact>
</mgrwt>
</event>
<event>
 4    5  0.7214169E-008  0.6868772E+03  0.7818608E-02  0.1005674E+00
          1   -1    0    0  501    0  0.00000000000E+00  0.00000000000E+00  0.22000809843E+04  0.22000809843E+04  0.50400000000E-02 0. -1.
         -1   -1    0    0    0  501 -0.00000000000E+00 -0.00000000000E+00 -0.78800443806E+03  0.78800443808E+03  0.50400000000E-02 0.  1.
    8880023    1    1    2    0    0 -0.44226539474E+02 -0.18982642334E+03 -0.62939683191E+03  0.93163331632E+03  0.65864270000E+03 0.  1.
    8880022    1    1    2    0    0  0.44226539474E+02  0.18982642334E+03  0.20414733781E+04  0.20564521060E+04  0.15294330000E+03 0.  0.
<mgrwt>
<rscale>  0 0.53230947E+03</rscale>
<asrwt>0</asrwt>
<pdfrwt beam="1">  1        1 0.33847399E+00 0.68687718E+03</pdfrwt>
<pdfrwt beam="2">  1       -1 0.12123145E+00 0.68687718E+03</pdfrwt>
<totfact> 0.14134939E+00</totfact>
</mgrwt>
</event>
<event>
 4    5  0.7214169E-008  0.1015887E+04  0.7818608E-02  0.9361061E-01
          1   -1    0    0  501    0  0.00000000000E+00  0.00000000000E+00  0.11465310349E+04  0.11465310349E+04  0.50400000000E-02 0. -1.
         -1   -1    0    0    0  501 -0.00000000000E+00 -0.00000000000E+00 -0.77490941374E+03  0.77490941375E+03  0.50400000000E-02 0.  1.
    8880023    1    1    2    0    0  0.17340410043E+02  0.77325005992E+03 -0.69037804217E+02  0.10182302145E+04  0.65864270000E+03 0.  0.
    8880022    1    1    2    0    0 -0.17340410043E+02 -0.77325005992E+03  0.44065942540E+03  0.90321023422E+03  0.15294330000E+03 0.  0.
<mgrwt>
<rscale>  0 0.95350648E+03</rscale>
<asrwt>0</asrwt>
<pdfrwt beam="1">  1        1 0.17638939E+00 0.10158871E+04</pdfrwt>
<pdfrwt beam="2">  1       -1 0.11921683E+00 0.10158871E+04</pdfrwt>
<totfact> 0.73711038E+00</totfact>
</mgrwt>
</event>
<event>
 4    5  0.7214169E-008  0.9001421E+03  0.7818608E-02  0.9525804E-01
          1   -1    0    0  501    0  0.00000000000E+00  0.00000000000E+00  0.58320527036E+03  0.58320527038E+03  0.50400000000E-02 0. -1.
         -1   -1    0    0    0  501 -0.00000000000E+00 -0.00000000000E+00 -0.23301896881E+04  0.23301896881E+04  0.50400000000E-02 0.  1.
    8880023    1    1    2    0    0 -0.52246045039E+03 -0.32168401106E+03 -0.20300007369E+04  0.22206212472E+04  0.65864270000E+03 0.  1.
    8880022    1    1    2    0    0  0.52246045039E+03  0.32168401106E+03  0.28301631917E+03  0.69277371134E+03  0.15294330000E+03 0.  0.
<mgrwt>
<rscale>  0 0.82407870E+03</rscale>
<asrwt>0</asrwt>
<pdfrwt beam="1">  1        1 0.89723889E-01 0.90014206E+03</pdfrwt>
<pdfrwt beam="2">  1       -1 0.35849072E+00 0.90014206E+03</pdfrwt>
<totfact> 0.50540451E-01</totfact>
</mgrwt>
</event>
<event>
 4    5  0.7246655E-008  0.9882061E+03  0.7818608E-02  0.9397153E-01
         -1   -1    0    0    0  501 -0.00000000000E+00  0.00000000000E+00  0.15479696994E+04  0.15479696994E+04  0.50400000000E-02 0.  1.
          1   -1    0    0  501    0  0.00000000000E+00 -0.00000000000E+00 -0.33908162917E+04  0.33908162917E+04  0.50400000000E-02 0. -1.
    8880023    1    1    2    0    0  0.37547604542E+03 -0.63384449392E+03  0.13418195438E+04  0.16664426175E+04  0.65864270000E+03 0.  1.
    8880022    1    1    2    0    0 -0.37547604542E+03  0.63384449392E+03 -0.31846661361E+04  0.32723433736E+04  0.15294330000E+03 0.  0.
<mgrwt>
<rscale>  0 0.92310358E+03</rscale>
<asrwt>0</asrwt>
<pdfrwt beam="1">  1        1 0.52166404E+00 0.98820611E+03</pdfrwt>
<pdfrwt beam="2">  1       -1 0.23814919E+00 0.98820611E+03</pdfrwt>
<totfact> 0.26484207E-02</totfact>
</mgrwt>
</event>
<event>
 4    5  0.7214169E-008  0.1163137E+04  0.7818608E-02  0.9193816E-01
          1   -1    0    0  501    0  0.00000000000E+00  0.00000000000E+00  0.15169285620E+04  0.15169285620E+04  0.50400000000E-02 0. -1.
         -1   -1    0    0    0  501 -0.00000000000E+00 -0.00000000000E+00 -0.99472529383E+03  0.99472529384E+03  0.50400000000E-02 0.  1.
    8880023    1    1    2    0    0 -0.48803979203E+03  0.82516357387E+03 -0.34151640091E+03  0.12122381864E+04  0.65864270000E+03 0.  1.
    8880022    1    1    2    0    0  0.48803979203E+03 -0.82516357387E+03  0.86371966911E+03  0.12994156695E+04  0.15294330000E+03 0.  0.
<mgrwt>
<rscale>  0 0.11117486E+04</rscale>
<asrwt>0</asrwt>
<pdfrwt beam="1">  1        1 0.23337362E+00 0.11631371E+04</pdfrwt>
<pdfrwt beam="2">  1       -1 0.15303466E+00 0.11631371E+04</pdfrwt>
<totfact> 0.20727658E+00</totfact>
</mgrwt>
</event>
<event>
 4    5  0.7214169E-008  0.1691220E+04  0.7818608E-02  0.8785223E-01
          1   -1    0    0  501    0  0.00000000000E+00  0.00000000000E+00  0.32847185843E+04  0.32847185843E+04  0.50400000000E-02 0. -1.
         -1   -1    0    0    0  501 -0.00000000000E+00 -0.00000000000E+00 -0.19174598843E+04  0.19174598843E+04  0.50400000000E-02 0.  1.
    8880023    1    1    2    0    0  0.15526895220E+04  0.12478471359E+03 -0.12839797622E+04  0.21234006246E+04  0.65864270000E+03 0.  0.
    8880022    1    1    2    0    0 -0.15526895220E+04 -0.12478471359E+03  0.26512384622E+04  0.30787778441E+04  0.15294330000E+03 0.  0.
<mgrwt>
<rscale>  0 0.16587909E+04</rscale>
<asrwt>0</asrwt>
<pdfrwt beam="1">  1        1 0.50534132E+00 0.16912203E+04</pdfrwt>
<pdfrwt beam="2">  1       -1 0.29499383E+00 0.16912203E+04</pdfrwt>
<totfact> 0.12023551E-02</totfact>
</mgrwt>
</event>
<event>
 4    5  0.7214169E-008  0.9358032E+03  0.7818608E-02  0.9470841E-01
         -1   -1    0    0    0  501 -0.00000000000E+00  0.00000000000E+00  0.81161030010E+03  0.81161030011E+03  0.50400000000E-02 0.  1.
          1   -1    0    0  501    0  0.00000000000E+00 -0.00000000000E+00 -0.20543954604E+04  0.20543954604E+04  0.50400000000E-02 0. -1.
    8880023    1    1    2    0    0  0.48011466901E+03  0.45979057081E+03  0.45188879475E+03  0.10391973602E+04  0.65864270000E+03 0.  0.
    8880022    1    1    2    0    0 -0.48011466901E+03 -0.45979057081E+03 -0.16946739550E+04  0.18268084003E+04  0.15294330000E+03 0.  0.
<mgrwt>
<rscale>  0 0.86468136E+03</rscale>
<asrwt>0</asrwt>
<pdfrwt beam="1">  1        1 0.31606084E+00 0.93580322E+03</pdfrwt>
<pdfrwt beam="2">  1       -1 0.12486312E+00 0.93580322E+03</pdfrwt>
<totfact> 0.15693927E+00</totfact>
</mgrwt>
</event>
<event>
 4    5  0.7214169E-008  0.6773029E+03  0.7818608E-02  0.1010892E+00
          1   -1    0    0  501    0  0.00000000000E+00  0.00000000000E+00  0.65288462653E+03  0.65288462655E+03  0.50400000000E-02 0. -1.
         -1   -1    0    0    0  501 -0.00000000000E+00 -0.00000000000E+00 -0.90207864463E+03  0.90207864464E+03  0.50400000000E-02 0.  1.
    8880023    1    1    2    0    0 -0.14361546874E+03 -0.65602065717E+02 -0.74847587736E+03  0.10094331970E+04  0.65864270000E+03 0.  1.
    8880022    1    1    2    0    0  0.14361546874E+03  0.65602065717E+02  0.49928185926E+03  0.54553007423E+03  0.15294330000E+03 0.  0.
<mgrwt>
<rscale>  0 0.51121530E+03</rscale>
<asrwt>0</asrwt>
<pdfrwt beam="1">  1        1 0.10044379E+00 0.67730292E+03</pdfrwt>
<pdfrwt beam="2">  1       -1 0.13878133E+00 0.67730292E+03</pdfrwt>
<totfact> 0.13474725E+01</totfact>
</mgrwt>
</event>
<event>
 4    5  0.7214169E-008  0.7022700E+03  0.7818608E-02  0.9987911E-01
         -1   -1    0    0    0  501 -0.00000000000E+00  0.00000000000E+00  0.30365159865E+03  0.30365159869E+03  0.50400000000E-02 0.  1.
          1   -1    0    0  501    0  0.00000000000E+00 -0.00000000000E+00 -0.93561040926E+03  0.93561040927E+03  0.50400000000E-02 0. -1.
    8880023    1    1    2    0    0  0.17613414006E+02 -0.24302827788E+03 -0.21833481279E+03  0.73542727237E+03  0.65864270000E+03 0.  1.
    8880022    1    1    2    0    0 -0.17613414006E+02  0.24302827788E+03 -0.41362399782E+03  0.50383473559E+03  0.15294330000E+03 0.  0.
<mgrwt>
<rscale>  0 0.56183487E+03</rscale>
<asrwt>0</asrwt>
<pdfrwt beam="1">  1        1 0.14394006E+00 0.70227002E+03</pdfrwt>
<pdfrwt beam="2">  1       -1 0.46715631E-01 0.70227002E+03</pdfrwt>
<totfact> 0.79646693E+01</totfact>
</mgrwt>
</event>
<event>
 4    5  0.7214169E-008  0.9203873E+03  0.7818608E-02  0.9494065E-01
         -1   -1    0    0    0  501 -0.00000000000E+00  0.00000000000E+00  0.11571632581E+04  0.11571632581E+04  0.50400000000E-02 0.  1.
          1   -1    0    0  501    0  0.00000000000E+00 -0.00000000000E+00 -0.16903617069E+04  0.16903617069E+04  0.50400000000E-02 0. -1.
    8880023    1    1    2    0    0 -0.64136052592E+03  0.44263588296E+02  0.88879600777E+03  0.12794808084E+04  0.65864270000E+03 0.  1.
    8880022    1    1    2    0    0  0.64136052592E+03 -0.44263588296E+02 -0.14219944566E+04  0.15680441566E+04  0.15294330000E+03 0.  0.
<mgrwt>
<rscale>  0 0.84722770E+03</rscale>
<asrwt>0</asrwt>
<pdfrwt beam="1">  1        1 0.26005565E+00 0.92038731E+03</pdfrwt>
<pdfrwt beam="2">  1       -1 0.17802512E+00 0.92038731E+03</pdfrwt>
<totfact> 0.10624020E+00</totfact>
</mgrwt>
</event>
<event>
 4    5  0.7214169E-008  0.1028756E+04  0.7818608E-02  0.9344866E-01
         -1   -1    0    0    0  501 -0.00000000000E+00  0.00000000000E+00  0.77297747850E+03  0.77297747852E+03  0.50400000000E-02 0.  1.
          1   -1    0    0  501    0  0.00000000000E+00 -0.00000000000E+00 -0.14500690750E+04  0.14500690750E+04  0.50400000000E-02 0. -1.
    8880023    1    1    2    0    0  0.20997301182E+02 -0.78999282378E+03 -0.92223023454E+03  0.13816107846E+04  0.65864270000E+03 0.  0.
    8880022    1    1    2    0    0 -0.20997301182E+02  0.78999282378E+03  0.24513863809E+03  0.84143576890E+03  0.15294330000E+03 0.  0.
<mgrwt>
<rscale>  0 0.96755284E+03</rscale>
<asrwt>0</asrwt>
<pdfrwt beam="1">  1        1 0.22308755E+00 0.10287564E+04</pdfrwt>
<pdfrwt beam="2">  1       -1 0.11891961E+00 0.10287564E+04</pdfrwt>
<totfact> 0.44922418E+00</totfact>
</mgrwt>
</event>
<event>
 4    5  0.7214169E-008  0.9083037E+03  0.7818608E-02  0.9512831E-01
          1   -1    0    0  501    0  0.00000000000E+00  0.00000000000E+00  0.10457296526E+04  0.10457296526E+04  0.50400000000E-02 0. -1.
         -1   -1    0    0    0  501 -0.00000000000E+00 -0.00000000000E+00 -0.16977098205E+04  0.16977098205E+04  0.50400000000E-02 0.  1.
    8880023    1    1    2    0    0  0.59242164868E+03 -0.20060397663E+03 -0.14543316391E+04  0.17146708395E+04  0.65864270000E+03 0.  1.
    8880022    1    1    2    0    0 -0.59242164868E+03  0.20060397663E+03  0.80235147118E+03  0.10287686336E+04  0.15294330000E+03 0.  0.
<mgrwt>
<rscale>  0 0.83344429E+03</rscale>
<asrwt>0</asrwt>
<pdfrwt beam="1">  1        1 0.16088149E+00 0.90830368E+03</pdfrwt>
<pdfrwt beam="2">  1       -1 0.26118613E+00 0.90830368E+03</pdfrwt>
<totfact> 0.84190403E-01</totfact>
</mgrwt>
</event>
<event>
 4    5  0.7214169E-008  0.1005902E+04  0.7818608E-02  0.9373876E-01
          1   -1    0    0  501    0  0.00000000000E+00  0.00000000000E+00  0.29217433769E+04  0.29217433769E+04  0.50400000000E-02 0. -1.
         -1   -1    0    0    0  501 -0.00000000000E+00 -0.00000000000E+00 -0.46823569905E+03  0.46823569908E+03  0.50400000000E-02 0.  1.
    8880023    1    1    2    0    0  0.61344291501E+02  0.75780336067E+03  0.22551034052E+03  0.10308705910E+04  0.65864270000E+03 0.  0.
    8880022    1    1    2    0    0 -0.61344291501E+02 -0.75780336067E+03  0.22279973373E+04  0.23591084849E+04  0.15294330000E+03 0.  0.
<mgrwt>
<rscale>  0 0.94257110E+03</rscale>
<asrwt>0</asrwt>
<pdfrwt beam="1">  1        1 0.44949899E+00 0.10059022E+04</pdfrwt>
<pdfrwt beam="2">  1       -1 0.72036261E-01 0.10059022E+04</pdfrwt>
<totfact> 0.13590532E+00</totfact>
</mgrwt>
</event>
<event>
 4    5  0.7214169E-008  0.1104383E+04  0.7818608E-02  0.9256192E-01
          1   -1    0    0  501    0  0.00000000000E+00  0.00000000000E+00  0.12261616089E+04  0.12261616089E+04  0.50400000000E-02 0. -1.
         -1   -1    0    0    0  501 -0.00000000000E+00 -0.00000000000E+00 -0.28420267920E+04  0.28420267920E+04  0.50400000000E-02 0.  1.
    8880023    1    1    2    0    0 -0.75899651142E+02  0.88322781962E+03 -0.25453867139E+04  0.27746451788E+04  0.65864270000E+03 0.  0.
    8880022    1    1    2    0    0  0.75899651142E+02 -0.88322781962E+03  0.92952153075E+03  0.12935432221E+04  0.15294330000E+03 0.  0.
<mgrwt>
<rscale>  0 0.10491795E+04</rscale>
<asrwt>0</asrwt>
<pdfrwt beam="1">  1        1 0.18864025E+00 0.11043832E+04</pdfrwt>
<pdfrwt beam="2">  1       -1 0.43723489E+00 0.11043832E+04</pdfrwt>
<totfact> 0.40849925E-02</totfact>
</mgrwt>
</event>
<event>
 4    5  0.7214169E-008  0.1470758E+04  0.7818608E-02  0.8930565E-01
         -1   -1    0    0    0  501 -0.00000000000E+00  0.00000000000E+00  0.67131652096E+03  0.67131652098E+03  0.50400000000E-02 0.  1.
          1   -1    0    0  501    0  0.00000000000E+00 -0.00000000000E+00 -0.30555396596E+04  0.30555396596E+04  0.50400000000E-02 0. -1.
    8880023    1    1    2    0    0 -0.43626730945E+03 -0.12405606901E+04 -0.84351351071E+03  0.16954778796E+04  0.65864270000E+03 0.  0.
    8880022    1    1    2    0    0  0.43626730945E+03  0.12405606901E+04 -0.15407096279E+04  0.20313783010E+04  0.15294330000E+03 0.  0.
<mgrwt>
<rscale>  0 0.14325830E+04</rscale>
<asrwt>0</asrwt>
<pdfrwt beam="1">  1        1 0.47008302E+00 0.14707584E+04</pdfrwt>
<pdfrwt beam="2">  1       -1 0.10327947E+00 0.14707584E+04</pdfrwt>
<totfact> 0.46327852E-01</totfact>
</mgrwt>
</event>
<event>
 4    5  0.7214169E-008  0.7314939E+03  0.7818608E-02  0.9885456E-01
          1   -1    0    0  501    0  0.00000000000E+00  0.00000000000E+00  0.12760890469E+04  0.12760890469E+04  0.50400000000E-02 0. -1.
         -1   -1    0    0    0  501 -0.00000000000E+00 -0.00000000000E+00 -0.25683726114E+03  0.25683726119E+03  0.50400000000E-02 0.  1.
    8880023    1    1    2    0    0  0.54877921147E+02 -0.31346689434E+03  0.43730001927E+03  0.85224092438E+03  0.65864270000E+03 0.  1.
    8880022    1    1    2    0    0 -0.54877921147E+02  0.31346689434E+03  0.58195176651E+03  0.68068538374E+03  0.15294330000E+03 0.  0.
<mgrwt>
<rscale>  0 0.60971372E+03</rscale>
<asrwt>0</asrwt>
<pdfrwt beam="1">  1        1 0.19632139E+00 0.73149387E+03</pdfrwt>
<pdfrwt beam="2">  1       -1 0.39513425E-01 0.73149387E+03</pdfrwt>
<totfact> 0.60174700E+01</totfact>
</mgrwt>
</event>
<event>
 4    5  0.7214169E-008  0.1020186E+04  0.7818608E-02  0.9355612E-01
          1   -1    0    0  501    0  0.00000000000E+00  0.00000000000E+00  0.12112649982E+04  0.12112649982E+04  0.50400000000E-02 0. -1.
         -1   -1    0    0    0  501 -0.00000000000E+00 -0.00000000000E+00 -0.84563443663E+03  0.84563443665E+03  0.50400000000E-02 0.  1.
    8880023    1    1    2    0    0 -0.46410345896E+02  0.77769895696E+03 -0.25217959310E+03  0.10508921645E+04  0.65864270000E+03 0.  0.
    8880022    1    1    2    0    0  0.46410345896E+02 -0.77769895696E+03  0.61781015465E+03  0.10060072704E+04  0.15294330000E+03 0.  0.
<mgrwt>
<rscale>  0 0.95820461E+03</rscale>
<asrwt>0</asrwt>
<pdfrwt beam="1">  1        1 0.18634846E+00 0.10201862E+04</pdfrwt>
<pdfrwt beam="2">  1       -1 0.13009761E+00 0.10201862E+04</pdfrwt>
<totfact> 0.53126332E+00</totfact>
</mgrwt>
</event>
<event>
 4    5  0.7214169E-008  0.1455521E+04  0.7818608E-02  0.8941700E-01
          1   -1    0    0  501    0  0.00000000000E+00  0.00000000000E+00  0.15918214096E+04  0.15918214096E+04  0.50400000000E-02 0. -1.
         -1   -1    0    0    0  501 -0.00000000000E+00 -0.00000000000E+00 -0.12388859617E+04  0.12388859617E+04  0.50400000000E-02 0.  1.
    8880023    1    1    2    0    0  0.61280332817E+03 -0.11442047414E+04 -0.69502374534E+02  0.14571798775E+04  0.65864270000E+03 0.  0.
    8880022    1    1    2    0    0 -0.61280332817E+03  0.11442047414E+04  0.42243782251E+03  0.13735274938E+04  0.15294330000E+03 0.  0.
<mgrwt>
<rscale>  0 0.14168663E+04</rscale>
<asrwt>0</asrwt>
<pdfrwt beam="1">  1        1 0.24489560E+00 0.14555214E+04</pdfrwt>
<pdfrwt beam="2">  1       -1 0.19059784E+00 0.14555214E+04</pdfrwt>
<totfact> 0.94183366E-01</totfact>
</mgrwt>
</event>
<event>
 4    5  0.7214169E-008  0.1000921E+04  0.7818608E-02  0.9380353E-01
         -1   -1    0    0    0  501 -0.00000000000E+00  0.00000000000E+00  0.16471673120E+04  0.16471673120E+04  0.50400000000E-02 0.  1.
          1   -1    0    0  501    0  0.00000000000E+00 -0.00000000000E+00 -0.24953462863E+04  0.24953462863E+04  0.50400000000E-02 0. -1.
    8880023    1    1    2    0    0 -0.75057900268E+03 -0.68294716150E+02  0.14257770887E+04  0.17420343052E+04  0.65864270000E+03 0.  1.
    8880022    1    1    2    0    0  0.75057900268E+03  0.68294716150E+02 -0.22739560629E+04  0.24004792931E+04  0.15294330000E+03 0.  0.
<mgrwt>
<rscale>  0 0.93710302E+03</rscale>
<asrwt>0</asrwt>
<pdfrwt beam="1">  1        1 0.38389943E+00 0.10009212E+04</pdfrwt>
<pdfrwt beam="2">  1       -1 0.25341035E+00 0.10009212E+04</pdfrwt>
<totfact> 0.92600797E-02</totfact>
</mgrwt>
</event>
<event>
 4    5  0.1091494E-007  0.1185254E+04  0.7818608E-02  0.9171591E-01
          1   -1    0    0  501    0  0.00000000000E+00  0.00000000000E+00  0.23846446111E+04  0.23846446111E+04  0.50400000000E-02 0. -1.
         -1   -1    0    0    0  501 -0.00000000000E+00 -0.00000000000E+00 -0.11654696535E+04  0.11654696535E+04  0.50400000000E-02 0.  1.
    8880023    1    1    2    0    0 -0.74452615207E+03 -0.64552104639E+03 -0.70772469078E+03  0.13804713169E+04  0.65864270000E+03 0.  0.
    8880022    1    1    2    0    0  0.74452615207E+03  0.64552104639E+03  0.19268996485E+04  0.21696429477E+04  0.15294330000E+03 0.  0.
<mgrwt>
<rscale>  0 0.11351523E+04</rscale>
<asrwt>0</asrwt>
<pdfrwt beam="1">  1        1 0.36686840E+00 0.11852539E+04</pdfrwt>
<pdfrwt beam="2">  1       -1 0.17930303E+00 0.11852539E+04</pdfrwt>
<totfact> 0.33825021E-01</totfact>
</mgrwt>
</event>
<event>
 4    5  0.7214169E-008  0.1951198E+04  0.7818608E-02  0.8643210E-01
         -1   -1    0    0    0  501 -0.00000000000E+00  0.00000000000E+00  0.28491662928E+04  0.28491662928E+04  0.50400000000E-02 0.  1.
          1   -1    0    0  501    0  0.00000000000E+00 -0.00000000000E+00 -0.16286100108E+04  0.16286100108E+04  0.50400000000E-02 0. -1.
    8880023    1    1    2    0    0 -0.54772522242E+03  0.17530997257E+04  0.16839617329E+04  0.25773821780E+04  0.65864270000E+03 0.  0.
    8880022    1    1    2    0    0  0.54772522242E+03 -0.17530997257E+04 -0.46340545094E+03  0.19003941256E+04  0.15294330000E+03 0.  0.
<mgrwt>
<rscale>  0 0.19235741E+04</rscale>
<asrwt>0</asrwt>
<pdfrwt beam="1">  1        1 0.25055539E+00 0.19511975E+04</pdfrwt>
<pdfrwt beam="2">  1       -1 0.43833327E+00 0.19511975E+04</pdfrwt>
<totfact> 0.18581891E-02</totfact>
</mgrwt>
</event>
<event>
 4    5  0.7214169E-008  0.2117294E+04  0.7818608E-02  0.8564761E-01
         -1   -1    0    0    0  501 -0.00000000000E+00  0.00000000000E+00  0.17341768953E+04  0.17341768953E+04  0.50400000000E-02 0.  1.
          1   -1    0    0  501    0  0.00000000000E+00 -0.00000000000E+00 -0.26578272965E+04  0.26578272965E+04  0.50400000000E-02 0. -1.
    8880023    1    1    2    0    0 -0.19716423556E+04  0.40218289499E+03 -0.10629890221E+04  0.23691518581E+04  0.65864270000E+03 0.  0.
    8880022    1    1    2    0    0  0.19716423556E+04 -0.40218289499E+03  0.13933862084E+03  0.20228523337E+04  0.15294330000E+03 0.  0.
<mgrwt>
<rscale>  0 0.20920341E+04</rscale>
<asrwt>0</asrwt>
<pdfrwt beam="1">  1        1 0.40889651E+00 0.21172942E+04</pdfrwt>
<pdfrwt beam="2">  1       -1 0.26679645E+00 0.21172942E+04</pdfrwt>
<totfact> 0.50070102E-02</totfact>
</mgrwt>
</event>
<event>
 4    5  0.7214169E-008  0.8501945E+03  0.7818608E-02  0.9611249E-01
         -1   -1    0    0    0  501 -0.00000000000E+00  0.00000000000E+00  0.92681253705E+03  0.92681253706E+03  0.50400000000E-02 0.  1.
          1   -1    0    0  501    0  0.00000000000E+00 -0.00000000000E+00 -0.18544450916E+04  0.18544450916E+04  0.50400000000E-02 0. -1.
    8880023    1    1    2    0    0  0.19510418953E+03  0.50095397951E+03  0.67396908318E+03  0.10849262951E+04  0.65864270000E+03 0.  1.
    8880022    1    1    2    0    0 -0.19510418953E+03 -0.50095397951E+03 -0.16016016378E+04  0.16963313336E+04  0.15294330000E+03 0.  0.
<mgrwt>
<rscale>  0 0.76556087E+03</rscale>
<asrwt>0</asrwt>
<pdfrwt beam="1">  1        1 0.28529924E+00 0.85019453E+03</pdfrwt>
<pdfrwt beam="2">  1       -1 0.14258654E+00 0.85019453E+03</pdfrwt>
<totfact> 0.15450247E+00</totfact>
</mgrwt>
</event>
<event>
 4    5  0.7214169E-008  0.7432144E+03  0.7818608E-02  0.9850681E-01
          1   -1    0    0  501    0  0.00000000000E+00  0.00000000000E+00  0.27248419474E+04  0.27248419474E+04  0.50400000000E-02 0. -1.
         -1   -1    0    0    0  501 -0.00000000000E+00 -0.00000000000E+00 -0.18155403838E+03  0.18155403845E+03  0.50400000000E-02 0.  1.
    8880023    1    1    2    0    0 -0.28959807981E+03 -0.18625336507E+03  0.68645532887E+03  0.10117255006E+04  0.65864270000E+03 0.  1.
    8880022    1    1    2    0    0  0.28959807981E+03  0.18625336507E+03  0.18568325801E+04  0.18946704852E+04  0.15294330000E+03 0.  0.
<mgrwt>
<rscale>  0 0.62712211E+03</rscale>
<asrwt>0</asrwt>
<pdfrwt beam="1">  1        1 0.41920638E+00 0.74321435E+03</pdfrwt>
<pdfrwt beam="2">  1       -1 0.27931395E-01 0.74321435E+03</pdfrwt>
<totfact> 0.11518458E+01</totfact>
</mgrwt>
</event>
<event>
 4    5  0.7214169E-008  0.8667731E+03  0.7818608E-02  0.9581627E-01
          1   -1    0    0  501    0  0.00000000000E+00  0.00000000000E+00  0.23670297956E+04  0.23670297956E+04  0.50400000000E-02 0. -1.
         -1   -1    0    0    0  501 -0.00000000000E+00 -0.00000000000E+00 -0.25026485221E+03  0.25026485226E+03  0.50400000000E-02 0.  1.
    8880023    1    1    2    0    0  0.50261340416E+03 -0.25468633704E+03  0.81132530501E+03  0.11872423178E+04  0.65864270000E+03 0.  0.
    8880022    1    1    2    0    0 -0.50261340416E+03  0.25468633704E+03  0.13054396384E+04  0.14300523301E+04  0.15294330000E+03 0.  0.
<mgrwt>
<rscale>  0 0.78524246E+03</rscale>
<asrwt>0</asrwt>
<pdfrwt beam="1">  1        1 0.36415843E+00 0.86677308E+03</pdfrwt>
<pdfrwt beam="2">  1       -1 0.38502285E-01 0.86677308E+03</pdfrwt>
<totfact> 0.11287354E+01</totfact>
</mgrwt>
</event>
<event>
 4    5  0.7214169E-008  0.6635994E+03  0.7818608E-02  0.1020739E+00
         -1   -1    0    0    0  501 -0.00000000000E+00  0.00000000000E+00  0.71356877838E+03  0.71356877840E+03  0.50400000000E-02 0.  1.
          1   -1    0    0  501    0  0.00000000000E+00 -0.00000000000E+00 -0.86047922502E+03  0.86047922503E+03  0.50400000000E-02 0. -1.
    8880023    1    1    2    0    0 -0.32202389147E+02 -0.74276135225E+02  0.54631584144E+03  0.85954938369E+03  0.65864270000E+03 0.  1.
    8880022    1    1    2    0    0  0.32202389147E+02  0.74276135225E+02 -0.69322628807E+03  0.71449861975E+03  0.15294330000E+03 0.  0.
<mgrwt>
<rscale>  0 0.47421042E+03</rscale>
<asrwt>0</asrwt>
<pdfrwt beam="1">  1        1 0.13238142E+00 0.66359939E+03</pdfrwt>
<pdfrwt beam="2">  1       -1 0.10977981E+00 0.66359939E+03</pdfrwt>
<totfact> 0.15665886E+01</totfact>
</mgrwt>
</event>
<event>
 4    5  0.7214169E-008  0.6981478E+03  0.7818608E-02  0.1000497E+00
          1   -1    0    0  501    0  0.00000000000E+00  0.00000000000E+00  0.13524060661E+04  0.13524060661E+04  0.50400000000E-02 0. -1.
         -1   -1    0    0    0  501 -0.00000000000E+00 -0.00000000000E+00 -0.30259502835E+03  0.30259502839E+03  0.50400000000E-02 0.  1.
    8880023    1    1    2    0    0 -0.21359072291E+03  0.89325823204E+02  0.15094080235E+03  0.71427825928E+03  0.65864270000E+03 0.  0.
    8880022    1    1    2    0    0  0.21359072291E+03 -0.89325823204E+02  0.89887023535E+03  0.94072283517E+03  0.15294330000E+03 0.  0.
<mgrwt>
<rscale>  0 0.55432701E+03</rscale>
<asrwt>0</asrwt>
<pdfrwt beam="1">  1        1 0.20806247E+00 0.69814777E+03</pdfrwt>
<pdfrwt beam="2">  1       -1 0.46553081E-01 0.69814777E+03</pdfrwt>
<totfact> 0.39470229E+01</totfact>
</mgrwt>
</event>
<event>
 4    5  0.7214169E-008  0.9294038E+03  0.7818608E-02  0.9480388E-01
          1   -1    0    0  501    0  0.00000000000E+00  0.00000000000E+00  0.24642935933E+04  0.24642935933E+04  0.50400000000E-02 0. -1.
         -1   -1    0    0    0  501 -0.00000000000E+00 -0.00000000000E+00 -0.50602797582E+03  0.50602797584E+03  0.50400000000E-02 0.  1.
    8880023    1    1    2    0    0 -0.27572386432E+03  0.59494330840E+03  0.32208637511E+02  0.92996171543E+03  0.65864270000E+03 0.  0.
    8880022    1    1    2    0    0  0.27572386432E+03 -0.59494330840E+03  0.19260569799E+04  0.20403598537E+04  0.15294330000E+03 0.  0.
<mgrwt>
<rscale>  0 0.85745288E+03</rscale>
<asrwt>0</asrwt>
<pdfrwt beam="1">  1        1 0.37912209E+00 0.92940379E+03</pdfrwt>
<pdfrwt beam="2">  1       -1 0.77850458E-01 0.92940379E+03</pdfrwt>
<totfact> 0.24397138E+00</totfact>
</mgrwt>
</event>
<event>
 4    5  0.7214169E-008  0.7261614E+03  0.7818608E-02  0.9902264E-01
         -1   -1    0    0    0  501 -0.00000000000E+00  0.00000000000E+00  0.70622985150E+03  0.70622985152E+03  0.50400000000E-02 0.  1.
          1   -1    0    0  501    0  0.00000000000E+00 -0.00000000000E+00 -0.25656553091E+04  0.25656553091E+04  0.50400000000E-02 0. -1.
    8880023    1    1    2    0    0 -0.85156235008E+02  0.29368108865E+03  0.50395624107E+03  0.88390172834E+03  0.65864270000E+03 0.  1.
    8880022    1    1    2    0    0  0.85156235008E+02 -0.29368108865E+03 -0.23633816987E+04  0.23879834323E+04  0.15294330000E+03 0.  0.
<mgrwt>
<rscale>  0 0.60151697E+03</rscale>
<asrwt>0</asrwt>
<pdfrwt beam="1">  1        1 0.39471620E+00 0.72616140E+03</pdfrwt>
<pdfrwt beam="2">  1       -1 0.10865075E+00 0.72616140E+03</pdfrwt>
<totfact> 0.10296108E+00</totfact>
</mgrwt>
</event>
<event>
 4    5  0.7214169E-008  0.7949559E+03  0.7818608E-02  0.9721810E-01
         -1   -1    0    0    0  501 -0.00000000000E+00  0.00000000000E+00  0.10601966621E+04  0.10601966621E+04  0.50400000000E-02 0.  1.
          1   -1    0    0  501    0  0.00000000000E+00 -0.00000000000E+00 -0.11815164768E+04  0.11815164768E+04  0.50400000000E-02 0. -1.
    8880023    1    1    2    0    0 -0.11612592507E+03  0.42972023934E+03  0.84911144057E+03  0.11631617082E+04  0.65864270000E+03 0.  1.
    8880022    1    1    2    0    0  0.11612592507E+03 -0.42972023934E+03 -0.97043125526E+03  0.10785514308E+04  0.15294330000E+03 0.  0.
<mgrwt>
<rscale>  0 0.69732930E+03</rscale>
<asrwt>0</asrwt>
<pdfrwt beam="1">  1        1 0.18177177E+00 0.79495592E+03</pdfrwt>
<pdfrwt beam="2">  1       -1 0.16310718E+00 0.79495592E+03</pdfrwt>
<totfact> 0.31541217E+00</totfact>
</mgrwt>
</event>
<event>
 4    5  0.7214169E-008  0.7637253E+03  0.7818608E-02  0.9795557E-01
         -1   -1    0    0    0  501 -0.00000000000E+00  0.00000000000E+00  0.49891000545E+03  0.49891000548E+03  0.50400000000E-02 0.  1.
          1   -1    0    0  501    0  0.00000000000E+00 -0.00000000000E+00 -0.13754099885E+04  0.13754099886E+04  0.50400000000E-02 0. -1.
    8880023    1    1    2    0    0  0.16835405001E+03 -0.34802733643E+03  0.13966480912E+03  0.77639073811E+03  0.65864270000E+03 0.  1.
    8880022    1    1    2    0    0 -0.16835405001E+03  0.34802733643E+03 -0.10161647922E+04  0.10979292559E+04  0.15294330000E+03 0.  0.
<mgrwt>
<rscale>  0 0.65601533E+03</rscale>
<asrwt>0</asrwt>
<pdfrwt beam="1">  1        1 0.21160153E+00 0.76372529E+03</pdfrwt>
<pdfrwt beam="2">  1       -1 0.76755386E-01 0.76372529E+03</pdfrwt>
<totfact> 0.14067397E+01</totfact>
</mgrwt>
</event>
<event>
 4    5  0.7214169E-008  0.6843967E+03  0.7818608E-02  0.1006938E+00
         -1   -1    0    0    0  501 -0.00000000000E+00  0.00000000000E+00  0.20719867136E+03  0.20719867142E+03  0.50400000000E-02 0.  1.
          1   -1    0    0  501    0  0.00000000000E+00 -0.00000000000E+00 -0.21818843941E+04  0.21818843941E+04  0.50400000000E-02 0. -1.
    8880023    1    1    2    0    0 -0.18164091079E+03 -0.39939848428E+02 -0.39306805000E+03  0.78924097091E+03  0.65864270000E+03 0.  1.
    8880022    1    1    2    0    0  0.18164091079E+03  0.39939848428E+02 -0.15816176728E+04  0.15998420946E+04  0.15294330000E+03 0.  0.
<mgrwt>
<rscale>  0 0.52709749E+03</rscale>
<asrwt>0</asrwt>
<pdfrwt beam="1">  1        1 0.33567451E+00 0.68439668E+03</pdfrwt>
<pdfrwt beam="2">  1       -1 0.31876720E-01 0.68439668E+03</pdfrwt>
<totfact> 0.21632554E+01</totfact>
</mgrwt>
</event>
<event>
 4    5  0.7214169E-008  0.7767133E+03  0.7818608E-02  0.9763615E-01
         -1   -1    0    0    0  501 -0.00000000000E+00  0.00000000000E+00  0.21023206097E+03  0.21023206103E+03  0.50400000000E-02 0.  1.
          1   -1    0    0  501    0  0.00000000000E+00 -0.00000000000E+00 -0.19427843977E+04  0.19427843977E+04  0.50400000000E-02 0. -1.
    8880023    1    1    2    0    0  0.36376613868E+03  0.19273708176E+03 -0.76368929936E+03  0.10892680747E+04  0.65864270000E+03 0.  0.
    8880022    1    1    2    0    0 -0.36376613868E+03 -0.19273708176E+03 -0.96886303740E+03  0.10637483841E+04  0.15294330000E+03 0.  0.
<mgrwt>
<rscale>  0 0.67352273E+03</rscale>
<asrwt>0</asrwt>
<pdfrwt beam="1">  1        1 0.29888990E+00 0.77671333E+03</pdfrwt>
<pdfrwt beam="2">  1       -1 0.32343395E-01 0.77671333E+03</pdfrwt>
<totfact> 0.30083031E+01</totfact>
</mgrwt>
</event>
<event>
 4    5  0.7214169E-008  0.8409743E+03  0.7818608E-02  0.9628346E-01
         -1   -1    0    0    0  501 -0.00000000000E+00  0.00000000000E+00  0.71024697679E+03  0.71024697681E+03  0.50400000000E-02 0.  1.
          1   -1    0    0  501    0  0.00000000000E+00 -0.00000000000E+00 -0.92833682773E+03  0.92833682774E+03  0.50400000000E-02 0. -1.
    8880023    1    1    2    0    0  0.45004581604E+03  0.26624480179E+03  0.29400017908E+03  0.89088374246E+03  0.65864270000E+03 0.  0.
    8880022    1    1    2    0    0 -0.45004581604E+03 -0.26624480179E+03 -0.51209003001E+03  0.74770006210E+03  0.15294330000E+03 0.  0.
<mgrwt>
<rscale>  0 0.75448139E+03</rscale>
<asrwt>0</asrwt>
<pdfrwt beam="1">  1        1 0.14282105E+00 0.84097428E+03</pdfrwt>
<pdfrwt beam="2">  1       -1 0.10926877E+00 0.84097428E+03</pdfrwt>
<totfact> 0.13632955E+01</totfact>
</mgrwt>
</event>
<event>
 4    5  0.7214169E-008  0.1034929E+04  0.7818608E-02  0.9337223E-01
          1   -1    0    0  501    0  0.00000000000E+00  0.00000000000E+00  0.14360017802E+04  0.14360017802E+04  0.50400000000E-02 0. -1.
         -1   -1    0    0    0  501 -0.00000000000E+00 -0.00000000000E+00 -0.94854622506E+03  0.94854622507E+03  0.50400000000E-02 0.  1.
    8880023    1    1    2    0    0  0.52237146173E+03  0.60365127892E+03 -0.46313979861E+03  0.11338322142E+04  0.65864270000E+03 0. -1.
    8880022    1    1    2    0    0 -0.52237146173E+03 -0.60365127892E+03  0.95059535375E+03  0.12507157911E+04  0.15294330000E+03 0. -1.
<mgrwt>
<rscale>  0 0.97427125E+03</rscale>
<asrwt>0</asrwt>
<pdfrwt beam="1">  1        1 0.22092335E+00 0.10349285E+04</pdfrwt>
<pdfrwt beam="2">  1       -1 0.14593019E+00 0.10349285E+04</pdfrwt>
<totfact> 0.27239403E+00</totfact>
</mgrwt>
</event>
<event>
 4    5  0.7214169E-008  0.6710791E+03  0.7818608E-02  0.1014901E+00
         -1   -1    0    0    0  501 -0.00000000000E+00  0.00000000000E+00  0.24676229855E+03  0.24676229861E+03  0.50400000000E-02 0.  1.
          1   -1    0    0  501    0  0.00000000000E+00 -0.00000000000E+00 -0.23596948954E+04  0.23596948954E+04  0.50400000000E-02 0. -1.
    8880023    1    1    2    0    0  0.55856343411E+02  0.11583205302E+03 -0.22472596462E+03  0.70770683270E+03  0.65864270000E+03 0.  1.
    8880022    1    1    2    0    0 -0.55856343411E+02 -0.11583205302E+03 -0.18882066323E+04  0.18987503614E+04  0.15294330000E+03 0.  0.
<mgrwt>
<rscale>  0 0.49572506E+03</rscale>
<asrwt>0</asrwt>
<pdfrwt beam="1">  1        1 0.36302997E+00 0.67107913E+03</pdfrwt>
<pdfrwt beam="2">  1       -1 0.37963432E-01 0.67107913E+03</pdfrwt>
<totfact> 0.12072627E+01</totfact>
</mgrwt>
</event>
<event>
 4    5  0.7214169E-008  0.1527168E+04  0.7818608E-02  0.8890686E-01
          1   -1    0    0  501    0  0.00000000000E+00  0.00000000000E+00  0.23985911177E+04  0.23985911177E+04  0.50400000000E-02 0. -1.
         -1   -1    0    0    0  501 -0.00000000000E+00 -0.00000000000E+00 -0.13057817871E+04  0.13057817871E+04  0.50400000000E-02 0.  1.
    8880023    1    1    2    0    0  0.86743099858E+03  0.10705117406E+04 -0.48664073486E+03  0.16028291660E+04  0.65864270000E+03 0.  0.
    8880022    1    1    2    0    0 -0.86743099858E+03 -0.10705117406E+04  0.15794500654E+04  0.21015437389E+04  0.15294330000E+03 0.  0.
<mgrwt>
<rscale>  0 0.14906624E+04</rscale>
<asrwt>0</asrwt>
<pdfrwt beam="1">  1        1 0.36901401E+00 0.15271680E+04</pdfrwt>
<pdfrwt beam="2">  1       -1 0.20088951E+00 0.15271680E+04</pdfrwt>
<totfact> 0.22261567E-01</totfact>
</mgrwt>
</event>
<event>
 4    5  0.7214169E-008  0.9897452E+03  0.7818608E-02  0.9395099E-01
          1   -1    0    0  501    0  0.00000000000E+00  0.00000000000E+00  0.16829105635E+04  0.16829105635E+04  0.50400000000E-02 0. -1.
         -1   -1    0    0    0  501 -0.00000000000E+00 -0.00000000000E+00 -0.72940778666E+03  0.72940778667E+03  0.50400000000E-02 0.  1.
    8880023    1    1    2    0    0 -0.13364349988E+03 -0.72658435412E+03 -0.22313569966E+03  0.10145861991E+04  0.65864270000E+03 0.  0.
    8880022    1    1    2    0    0  0.13364349988E+03  0.72658435412E+03  0.11766384765E+04  0.13977321510E+04  0.15294330000E+03 0.  0.
<mgrwt>
<rscale>  0 0.92480142E+03</rscale>
<asrwt>0</asrwt>
<pdfrwt beam="1">  1        1 0.25890931E+00 0.98974523E+03</pdfrwt>
<pdfrwt beam="2">  1       -1 0.11221658E+00 0.98974523E+03</pdfrwt>
<totfact> 0.35942398E+00</totfact>
</mgrwt>
</event>
<event>
 4    5  0.7214169E-008  0.1005771E+04  0.7818608E-02  0.9374047E-01
         -1   -1    0    0    0  501 -0.00000000000E+00  0.00000000000E+00  0.77743033232E+03  0.77743033234E+03  0.50400000000E-02 0.  1.
          1   -1    0    0  501    0  0.00000000000E+00 -0.00000000000E+00 -0.17205114913E+04  0.17205114913E+04  0.50400000000E-02 0. -1.
    8880023    1    1    2    0    0 -0.65063725555E+03 -0.39298296982E+03  0.28519200954E+03  0.10454229486E+04  0.65864270000E+03 0.  1.
    8880022    1    1    2    0    0  0.65063725555E+03  0.39298296982E+03 -0.12282731685E+04  0.14525188751E+04  0.15294330000E+03 0.  0.
<mgrwt>
<rscale>  0 0.94242682E+03</rscale>
<asrwt>0</asrwt>
<pdfrwt beam="1">  1        1 0.26469408E+00 0.10057707E+04</pdfrwt>
<pdfrwt beam="2">  1       -1 0.11960467E+00 0.10057707E+04</pdfrwt>
<totfact> 0.28998178E+00</totfact>
</mgrwt>
</event>
<event>
 4    5  0.7214169E-008  0.9765634E+03  0.7818608E-02  0.9412883E-01
         -1   -1    0    0    0  501 -0.00000000000E+00  0.00000000000E+00  0.11665752418E+04  0.11665752418E+04  0.50400000000E-02 0.  1.
          1   -1    0    0  501    0  0.00000000000E+00 -0.00000000000E+00 -0.11093514533E+04  0.11093514533E+04  0.50400000000E-02 0. -1.
    8880023    1    1    2    0    0 -0.36061377333E+03  0.62435849153E+03  0.77529987200E+03  0.12469025292E+04  0.65864270000E+03 0.  0.
    8880022    1    1    2    0    0  0.36061377333E+03 -0.62435849153E+03 -0.71807608343E+03  0.10290241659E+04  0.15294330000E+03 0.  0.
<mgrwt>
<rscale>  0 0.91022978E+03</rscale>
<asrwt>0</asrwt>
<pdfrwt beam="1">  1        1 0.17066945E+00 0.97656338E+03</pdfrwt>
<pdfrwt beam="2">  1       -1 0.17947311E+00 0.97656338E+03</pdfrwt>
<totfact> 0.26366680E+00</totfact>
</mgrwt>
</event>
<event>
 4    5  0.7214169E-008  0.1112326E+04  0.7818608E-02  0.9247456E-01
          1   -1    0    0  501    0  0.00000000000E+00  0.00000000000E+00  0.12808319736E+04  0.12808319736E+04  0.50400000000E-02 0. -1.
         -1   -1    0    0    0  501 -0.00000000000E+00 -0.00000000000E+00 -0.97196319295E+03  0.97196319296E+03  0.50400000000E-02 0.  1.
    8880023    1    1    2    0    0  0.12443187341E+03  0.88767933836E+03  0.64209340962E+03  0.12843488824E+04  0.65864270000E+03 0.  0.
    8880022    1    1    2    0    0 -0.12443187341E+03 -0.88767933836E+03 -0.33322462898E+03  0.96844628413E+03  0.15294330000E+03 0.  0.
<mgrwt>
<rscale>  0 0.10576750E+04</rscale>
<asrwt>0</asrwt>
<pdfrwt beam="1">  1        1 0.19705107E+00 0.11123255E+04</pdfrwt>
<pdfrwt beam="2">  1       -1 0.14953280E+00 0.11123255E+04</pdfrwt>
<totfact> 0.32539255E+00</totfact>
</mgrwt>
</event>
<event>
 4    5  0.7214169E-008  0.1912654E+04  0.7818608E-02  0.8662653E-01
          1   -1    0    0  501    0  0.00000000000E+00  0.00000000000E+00  0.24013516996E+04  0.24013516996E+04  0.50400000000E-02 0. -1.
         -1   -1    0    0    0  501 -0.00000000000E+00 -0.00000000000E+00 -0.15210209854E+04  0.15210209854E+04  0.50400000000E-02 0.  1.
    8880023    1    1    2    0    0 -0.15677954952E+04 -0.87547295248E+03  0.91414246306E+03  0.21198826039E+04  0.65864270000E+03 0.  0.
    8880022    1    1    2    0    0  0.15677954952E+04  0.87547295248E+03 -0.33811748788E+02  0.18024900811E+04  0.15294330000E+03 0.  0.
<mgrwt>
<rscale>  0 0.18844145E+04</rscale>
<asrwt>0</asrwt>
<pdfrwt beam="1">  1        1 0.36943872E+00 0.19126541E+04</pdfrwt>
<pdfrwt beam="2">  1       -1 0.23400323E+00 0.19126541E+04</pdfrwt>
<totfact> 0.12688716E-01</totfact>
</mgrwt>
</event>
<event>
 4    5  0.7214169E-008  0.9782752E+03  0.7818608E-02  0.9410549E-01
         -1   -1    0    0    0  501 -0.00000000000E+00  0.00000000000E+00  0.59775097339E+03  0.59775097342E+03  0.50400000000E-02 0.  1.
          1   -1    0    0  501    0  0.00000000000E+00 -0.00000000000E+00 -0.27891820650E+04  0.27891820650E+04  0.50400000000E-02 0. -1.
    8880023    1    1    2    0    0 -0.10302482048E+03 -0.71595948541E+03  0.96014527023E+02  0.98297563248E+03  0.65864270000E+03 0.  0.
    8880022    1    1    2    0    0  0.10302482048E+03  0.71595948541E+03 -0.22874456186E+04  0.24039574059E+04  0.15294330000E+03 0.  0.
<mgrwt>
<rscale>  0 0.91212603E+03</rscale>
<asrwt>0</asrwt>
<pdfrwt beam="1">  1        1 0.42910492E+00 0.97827517E+03</pdfrwt>
<pdfrwt beam="2">  1       -1 0.91961690E-01 0.97827517E+03</pdfrwt>
<totfact> 0.10038248E+00</totfact>
</mgrwt>
</event>
<event>
 4    5  0.7214169E-008  0.1888846E+04  0.7818608E-02  0.8674919E-01
          1   -1    0    0  501    0  0.00000000000E+00  0.00000000000E+00  0.45636788472E+04  0.45636788472E+04  0.50400000000E-02 0. -1.
         -1   -1    0    0    0  501 -0.00000000000E+00 -0.00000000000E+00 -0.11588261509E+04  0.11588261510E+04  0.50400000000E-02 0.  1.
    8880023    1    1    2    0    0  0.17179990606E+04  0.42709366856E+03  0.34630418653E+04  0.39446671522E+04  0.65864270000E+03 0. -1.
    8880022    1    1    2    0    0 -0.17179990606E+04 -0.42709366856E+03 -0.58189169101E+02  0.17778378460E+04  0.15294330000E+03 0.  0.
<mgrwt>
<rscale>  0 0.18602114E+04</rscale>
<asrwt>0</asrwt>
<pdfrwt beam="1">  1        1 0.70210444E+00 0.18888462E+04</pdfrwt>
<pdfrwt beam="2">  1       -1 0.17828095E+00 0.18888462E+04</pdfrwt>
<totfact> 0.54217006E-03</totfact>
</mgrwt>
</event>
<event>
 4    5  0.7214169E-008  0.7610033E+03  0.7818608E-02  0.9802517E-01
          1   -1    0    0  501    0  0.00000000000E+00  0.00000000000E+00  0.19800534506E+04  0.19800534506E+04  0.50400000000E-02 0. -1.
         -1   -1    0    0    0  501 -0.00000000000E+00 -0.00000000000E+00 -0.34401947765E+03  0.34401947768E+03  0.50400000000E-02 0.  1.
    8880023    1    1    2    0    0  0.34856630148E+03 -0.15432894120E+03  0.14140016387E+03  0.77402848864E+03  0.65864270000E+03 0.  1.
    8880022    1    1    2    0    0 -0.34856630148E+03  0.15432894120E+03  0.14946338091E+04  0.15500444396E+04  0.15294330000E+03 0.  0.
<mgrwt>
<rscale>  0 0.65227651E+03</rscale>
<asrwt>0</asrwt>
<pdfrwt beam="1">  1        1 0.30462361E+00 0.76100335E+03</pdfrwt>
<pdfrwt beam="2">  1       -1 0.52926073E-01 0.76100335E+03</pdfrwt>
<totfact> 0.11539683E+01</totfact>
</mgrwt>
</event>
<event>
 4    5  0.7214169E-008  0.8346923E+03  0.7818608E-02  0.9640271E-01
         -1   -1    0    0    0  501 -0.00000000000E+00  0.00000000000E+00  0.10261236555E+04  0.10261236555E+04  0.50400000000E-02 0.  1.
          1   -1    0    0  501    0  0.00000000000E+00 -0.00000000000E+00 -0.87145552071E+03  0.87145552072E+03  0.50400000000E-02 0. -1.
    8880023    1    1    2    0    0  0.12700974308E+03 -0.49675899041E+03  0.73216759051E+03  0.11103065146E+04  0.65864270000E+03 0.  1.
    8880022    1    1    2    0    0 -0.12700974308E+03  0.49675899041E+03 -0.57749945575E+03  0.78727266166E+03  0.15294330000E+03 0.  0.
<mgrwt>
<rscale>  0 0.74687180E+03</rscale>
<asrwt>0</asrwt>
<pdfrwt beam="1">  1        1 0.13407008E+00 0.83469226E+03</pdfrwt>
<pdfrwt beam="2">  1       -1 0.15786518E+00 0.83469226E+03</pdfrwt>
<totfact> 0.59604208E+00</totfact>
</mgrwt>
</event>
<event>
 4    5  0.7214169E-008  0.1324295E+04  0.7818608E-02  0.9044858E-01
         -1   -1    0    0    0  501 -0.00000000000E+00  0.00000000000E+00  0.14342315483E+04  0.14342315484E+04  0.50400000000E-02 0.  1.
          1   -1    0    0  501    0  0.00000000000E+00 -0.00000000000E+00 -0.14837616955E+04  0.14837616955E+04  0.50400000000E-02 0. -1.
    8880023    1    1    2    0    0 -0.92824028906E+03  0.67699181335E+03  0.73864828641E+03  0.15163638900E+04  0.65864270000E+03 0.  0.
    8880022    1    1    2    0    0  0.92824028906E+03 -0.67699181335E+03 -0.78817843360E+03  0.14016293539E+04  0.15294330000E+03 0.  0.
<mgrwt>
<rscale>  0 0.12808901E+04</rscale>
<asrwt>0</asrwt>
<pdfrwt beam="1">  1        1 0.22827103E+00 0.13242953E+04</pdfrwt>
<pdfrwt beam="2">  1       -1 0.22065101E+00 0.13242953E+04</pdfrwt>
<totfact> 0.70600552E-01</totfact>
</mgrwt>
</event>
<event>
 4    5  0.7214169E-008  0.1069238E+04  0.7818608E-02  0.9296104E-01
          1   -1    0    0  501    0  0.00000000000E+00  0.00000000000E+00  0.72471076779E+03  0.72471076781E+03  0.50400000000E-02 0. -1.
         -1   -1    0    0    0  501 -0.00000000000E+00 -0.00000000000E+00 -0.19535164742E+04  0.19535164742E+04  0.50400000000E-02 0.  1.
    8880023    1    1    2    0    0  0.33861335615E+03 -0.77123364558E+03 -0.14428055788E+04  0.17958169410E+04  0.65864270000E+03 0.  1.
    8880022    1    1    2    0    0 -0.33861335615E+03  0.77123364558E+03  0.21399987236E+03  0.88241030106E+03  0.15294330000E+03 0.  0.
<mgrwt>
<rscale>  0 0.10114232E+04</rscale>
<asrwt>0</asrwt>
<pdfrwt beam="1">  1        1 0.11149397E+00 0.10692383E+04</pdfrwt>
<pdfrwt beam="2">  1       -1 0.30054099E+00 0.10692383E+04</pdfrwt>
<totfact> 0.84981975E-01</totfact>
</mgrwt>
</event>
<event>
 4    5  0.7214169E-008  0.9842570E+03  0.7818608E-02  0.9402450E-01
          1   -1    0    0  501    0  0.00000000000E+00  0.00000000000E+00  0.84292501709E+03  0.84292501710E+03  0.50400000000E-02 0. -1.
         -1   -1    0    0    0  501 -0.00000000000E+00 -0.00000000000E+00 -0.23402955979E+04  0.23402955979E+04  0.50400000000E-02 0.  1.
    8880023    1    1    2    0    0  0.64660063522E+03  0.34184684263E+03 -0.20364516186E+04  0.22618348849E+04  0.65864270000E+03 0.  0.
    8880022    1    1    2    0    0 -0.64660063522E+03 -0.34184684263E+03  0.53908103782E+03  0.92138573010E+03  0.15294330000E+03 0.  0.
<mgrwt>
<rscale>  0 0.91874301E+03</rscale>
<asrwt>0</asrwt>
<pdfrwt beam="1">  1        1 0.12968077E+00 0.98425700E+03</pdfrwt>
<pdfrwt beam="2">  1       -1 0.36004547E+00 0.98425700E+03</pdfrwt>
<totfact> 0.27709334E-01</totfact>
</mgrwt>
</event>
<event>
 4    5  0.7214169E-008  0.7545331E+03  0.7818608E-02  0.9819472E-01
         -1   -1    0    0    0  501 -0.00000000000E+00  0.00000000000E+00  0.52713003704E+03  0.52713003707E+03  0.50400000000E-02 0.  1.
          1   -1    0    0  501    0  0.00000000000E+00 -0.00000000000E+00 -0.84436442544E+03  0.84436442545E+03  0.50400000000E-02 0. -1.
    8880023    1    1    2    0    0  0.72156961680E+02 -0.36097550549E+03  0.13730276577E+03  0.76692385439E+03  0.65864270000E+03 0.  0.
    8880022    1    1    2    0    0 -0.72156961680E+02  0.36097550549E+03 -0.45453715416E+03  0.60457060813E+03  0.15294330000E+03 0.  0.
<mgrwt>
<rscale>  0 0.64327954E+03</rscale>
<asrwt>0</asrwt>
<pdfrwt beam="1">  1        1 0.12990222E+00 0.75453307E+03</pdfrwt>
<pdfrwt beam="2">  1       -1 0.81096929E-01 0.75453307E+03</pdfrwt>
<totfact> 0.31450799E+01</totfact>
</mgrwt>
</event>
<event>
 4    5  0.7214169E-008  0.1701481E+04  0.7818608E-02  0.8779085E-01
         -1   -1    0    0    0  501 -0.00000000000E+00  0.00000000000E+00  0.15723075572E+04  0.15723075572E+04  0.50400000000E-02 0.  1.
          1   -1    0    0  501    0  0.00000000000E+00 -0.00000000000E+00 -0.28051821528E+04  0.28051821528E+04  0.50400000000E-02 0. -1.
    8880023    1    1    2    0    0  0.11191968237E+04 -0.10993744387E+04  0.73729721915E+03  0.18543578626E+04  0.65864270000E+03 0.  1.
    8880022    1    1    2    0    0 -0.11191968237E+04  0.10993744387E+04 -0.19701718147E+04  0.25231318474E+04  0.15294330000E+03 0.  0.
<mgrwt>
<rscale>  0 0.16692742E+04</rscale>
<asrwt>0</asrwt>
<pdfrwt beam="1">  1        1 0.43156648E+00 0.17014805E+04</pdfrwt>
<pdfrwt beam="2">  1       -1 0.24189347E+00 0.17014805E+04</pdfrwt>
<totfact> 0.59933656E-02</totfact>
</mgrwt>
</event>
<event>
 4    5  0.7214169E-008  0.6663214E+03  0.7818608E-02  0.1018450E+00
          1   -1    0    0  501    0  0.00000000000E+00  0.00000000000E+00  0.23848774288E+04  0.23848774288E+04  0.50400000000E-02 0. -1.
         -1   -1    0    0    0  501 -0.00000000000E+00 -0.00000000000E+00 -0.83401667480E+02  0.83401667632E+02  0.50400000000E-02 0.  1.
    8880023    1    1    2    0    0  0.90184711052E+02  0.45174355189E+02  0.14281500026E+04  0.15759430956E+04  0.65864270000E+03 0.  1.
    8880022    1    1    2    0    0 -0.90184711052E+02 -0.45174355189E+02  0.87332575877E+03  0.89233600085E+03  0.15294330000E+03 0.  0.
<mgrwt>
<rscale>  0 0.48250267E+03</rscale>
<asrwt>0</asrwt>
<pdfrwt beam="1">  1        1 0.36690420E+00 0.66632140E+03</pdfrwt>
<pdfrwt beam="2">  1       -1 0.12831027E-01 0.66632140E+03</pdfrwt>
<totfact> 0.72409629E+01</totfact>
</mgrwt>
</event>
<event>
 4    5  0.7214169E-008  0.8705198E+03  0.7818608E-02  0.9575118E-01
          1   -1    0    0  501    0  0.00000000000E+00  0.00000000000E+00  0.36175816820E+04  0.36175816820E+04  0.50400000000E-02 0. -1.
         -1   -1    0    0    0  501 -0.00000000000E+00 -0.00000000000E+00 -0.17310840222E+03  0.17310840230E+03  0.50400000000E-02 0.  1.
    8880023    1    1    2    0    0  0.47918854683E+03  0.30720171074E+03  0.12840988373E+04  0.15513589478E+04  0.65864270000E+03 0.  0.
    8880022    1    1    2    0    0 -0.47918854683E+03 -0.30720171074E+03  0.21603744424E+04  0.22393311365E+04  0.15294330000E+03 0.  0.
<mgrwt>
<rscale>  0 0.78965169E+03</rscale>
<asrwt>0</asrwt>
<pdfrwt beam="1">  1        1 0.55655098E+00 0.87051982E+03</pdfrwt>
<pdfrwt beam="2">  1       -1 0.26632064E-01 0.87051982E+03</pdfrwt>
<totfact> 0.26847047E+00</totfact>
</mgrwt>
</event>
<event>
 4    5  0.7214169E-008  0.8750303E+03  0.7818608E-02  0.9567367E-01
          1   -1    0    0  501    0  0.00000000000E+00  0.00000000000E+00  0.25379606357E+04  0.25379606357E+04  0.50400000000E-02 0. -1.
         -1   -1    0    0    0  501 -0.00000000000E+00 -0.00000000000E+00 -0.63178561084E+03  0.63178561086E+03  0.50400000000E-02 0.  1.
    8880023    1    1    2    0    0 -0.15881046306E+03  0.55375715863E+03 -0.26815906273E+03  0.91519792564E+03  0.65864270000E+03 0.  1.
    8880022    1    1    2    0    0  0.15881046306E+03 -0.55375715863E+03  0.21743340875E+04  0.22545483209E+04  0.15294330000E+03 0.  0.
<mgrwt>
<rscale>  0 0.79494211E+03</rscale>
<asrwt>0</asrwt>
<pdfrwt beam="1">  1        1 0.39045549E+00 0.87503026E+03</pdfrwt>
<pdfrwt beam="2">  1       -1 0.97197785E-01 0.87503026E+03</pdfrwt>
<totfact> 0.13493029E+00</totfact>
</mgrwt>
</event>
<event>
 4    5  0.7214169E-008  0.1113834E+04  0.7818608E-02  0.9245808E-01
         -1   -1    0    0    0  501 -0.00000000000E+00  0.00000000000E+00  0.21968378945E+04  0.21968378945E+04  0.50400000000E-02 0.  1.
          1   -1    0    0  501    0  0.00000000000E+00 -0.00000000000E+00 -0.17630407244E+04  0.17630407244E+04  0.50400000000E-02 0. -1.
    8880023    1    1    2    0    0 -0.26824013426E+03 -0.85724103269E+03  0.19182029334E+04  0.22181360774E+04  0.65864270000E+03 0.  0.
    8880022    1    1    2    0    0  0.26824013426E+03  0.85724103269E+03 -0.14844057634E+04  0.17417425416E+04  0.15294330000E+03 0.  0.
<mgrwt>
<rscale>  0 0.10592866E+04</rscale>
<asrwt>0</asrwt>
<pdfrwt beam="1">  1        1 0.27123704E+00 0.11138335E+04</pdfrwt>
<pdfrwt beam="2">  1       -1 0.33797506E+00 0.11138335E+04</pdfrwt>
<totfact> 0.80757132E-02</totfact>
</mgrwt>
</event>
<event>
 4    5  0.7214169E-008  0.7089752E+03  0.7818608E-02  0.9961826E-01
          1   -1    0    0  501    0  0.00000000000E+00  0.00000000000E+00  0.22803556708E+04  0.22803556708E+04  0.50400000000E-02 0. -1.
         -1   -1    0    0    0  501 -0.00000000000E+00 -0.00000000000E+00 -0.17034348053E+03  0.17034348060E+03  0.50400000000E-02 0.  1.
    8880023    1    1    2    0    0 -0.22389304340E+03  0.13677571133E+03  0.65800295353E+03  0.96727130796E+03  0.65864270000E+03 0.  0.
    8880022    1    1    2    0    0  0.22389304340E+03 -0.13677571133E+03  0.14520092367E+04  0.14834278434E+04  0.15294330000E+03 0.  0.
<mgrwt>
<rscale>  0 0.57356252E+03</rscale>
<asrwt>0</asrwt>
<pdfrwt beam="1">  1        1 0.35082394E+00 0.70897524E+03</pdfrwt>
<pdfrwt beam="2">  1       -1 0.26206690E-01 0.70897524E+03</pdfrwt>
<totfact> 0.25992390E+01</totfact>
</mgrwt>
</event>
<event>
 4    5  0.7214169E-008  0.9782709E+03  0.7818608E-02  0.9410555E-01
         -1   -1    0    0    0  501 -0.00000000000E+00  0.00000000000E+00  0.12402560516E+04  0.12402560517E+04  0.50400000000E-02 0.  1.
          1   -1    0    0  501    0  0.00000000000E+00 -0.00000000000E+00 -0.77431237535E+03  0.77431237536E+03  0.50400000000E-02 0. -1.
    8880023    1    1    2    0    0 -0.59501306486E+03  0.41129445121E+03  0.73943228921E+03  0.12262846283E+04  0.65864270000E+03 0.  0.
    8880022    1    1    2    0    0  0.59501306486E+03 -0.41129445121E+03 -0.27348861291E+03  0.78828379874E+03  0.15294330000E+03 0.  0.
<mgrwt>
<rscale>  0 0.91212126E+03</rscale>
<asrwt>0</asrwt>
<pdfrwt beam="1">  1        1 0.11912498E+00 0.97827086E+03</pdfrwt>
<pdfrwt beam="2">  1       -1 0.19080862E+00 0.97827086E+03</pdfrwt>
<totfact> 0.40870844E+00</totfact>
</mgrwt>
</event>
<event>
 4    5  0.7214169E-008  0.1048424E+04  0.7818608E-02  0.9320778E-01
         -1   -1    0    0    0  501 -0.00000000000E+00  0.00000000000E+00  0.29186779723E+03  0.29186779728E+03  0.50400000000E-02 0.  1.
          1   -1    0    0  501    0  0.00000000000E+00 -0.00000000000E+00 -0.32963816633E+04  0.32963816633E+04  0.50400000000E-02 0. -1.
    8880023    1    1    2    0    0  0.22732471931E+03  0.78339393727E+03 -0.11481419203E+04  0.15548063109E+04  0.65864270000E+03 0.  1.
    8880022    1    1    2    0    0 -0.22732471931E+03 -0.78339393727E+03 -0.18563719458E+04  0.20334431498E+04  0.15294330000E+03 0.  0.
<mgrwt>
<rscale>  0 0.98892263E+03</rscale>
<asrwt>0</asrwt>
<pdfrwt beam="1">  1        1 0.50713562E+00 0.10484240E+04</pdfrwt>
<pdfrwt beam="2">  1       -1 0.44902740E-01 0.10484240E+04</pdfrwt>
<totfact> 0.18140143E+00</totfact>
</mgrwt>
</event>
<event>
 4    5  0.7214169E-008  0.1567719E+04  0.7818608E-02  0.8863240E-01
         -1   -1    0    0    0  501 -0.00000000000E+00  0.00000000000E+00  0.86935377985E+03  0.86935377986E+03  0.50400000000E-02 0.  1.
          1   -1    0    0  501    0  0.00000000000E+00 -0.00000000000E+00 -0.33136853090E+04  0.33136853090E+04  0.50400000000E-02 0. -1.
    8880023    1    1    2    0    0 -0.11297546154E+04  0.86463132467E+03 -0.28614438906E+03  0.15936190373E+04  0.65864270000E+03 0.  0.
    8880022    1    1    2    0    0  0.11297546154E+04 -0.86463132467E+03 -0.21581871401E+04  0.25894200515E+04  0.15294330000E+03 0.  0.
<mgrwt>
<rscale>  0 0.15323201E+04</rscale>
<asrwt>0</asrwt>
<pdfrwt beam="1">  1        1 0.50979774E+00 0.15677191E+04</pdfrwt>
<pdfrwt beam="2">  1       -1 0.13374674E+00 0.15677191E+04</pdfrwt>
<totfact> 0.15598125E-01</totfact>
</mgrwt>
</event>
<event>
 4    5  0.7214169E-008  0.6800040E+03  0.7818608E-02  0.1009321E+00
         -1   -1    0    0    0  501 -0.00000000000E+00  0.00000000000E+00  0.27505664242E+03  0.27505664247E+03  0.50400000000E-02 0.  1.
          1   -1    0    0  501    0  0.00000000000E+00 -0.00000000000E+00 -0.28459877693E+04  0.28459877693E+04  0.50400000000E-02 0. -1.
    8880023    1    1    2    0    0 -0.15605910764E+03  0.65120911158E+02 -0.15898075413E+03  0.69834108042E+03  0.65864270000E+03 0.  1.
    8880022    1    1    2    0    0  0.15605910764E+03 -0.65120911158E+02 -0.24119503727E+04  0.24227033313E+04  0.15294330000E+03 0.  0.
<mgrwt>
<rscale>  0 0.51745221E+03</rscale>
<asrwt>0</asrwt>
<pdfrwt beam="1">  1        1 0.43784425E+00 0.68000396E+03</pdfrwt>
<pdfrwt beam="2">  1       -1 0.42316409E-01 0.68000396E+03</pdfrwt>
<totfact> 0.45836328E+00</totfact>
</mgrwt>
</event>
<event>
 4    5  0.7214169E-008  0.7145848E+03  0.7818608E-02  0.9941354E-01
         -1   -1    0    0    0  501 -0.00000000000E+00  0.00000000000E+00  0.15279534355E+03  0.15279534363E+03  0.50400000000E-02 0.  1.
          1   -1    0    0  501    0  0.00000000000E+00 -0.00000000000E+00 -0.21917342376E+04  0.21917342376E+04  0.50400000000E-02 0. -1.
    8880023    1    1    2    0    0 -0.10240129875E+03  0.25755620377E+03 -0.83191292112E+03  0.10966816031E+04  0.65864270000E+03 0.  0.
    8880022    1    1    2    0    0  0.10240129875E+03 -0.25755620377E+03 -0.12070259729E+04  0.12478479781E+04  0.15294330000E+03 0.  0.
<mgrwt>
<rscale>  0 0.58298284E+03</rscale>
<asrwt>0</asrwt>
<pdfrwt beam="1">  1        1 0.33718986E+00 0.71458480E+03</pdfrwt>
<pdfrwt beam="2">  1       -1 0.23506977E-01 0.71458480E+03</pdfrwt>
<totfact> 0.35841048E+01</totfact>
</mgrwt>
</event>
<event>
 4    5  0.7214169E-008  0.1372982E+04  0.7818608E-02  0.9004966E-01
         -1   -1    0    0    0  501 -0.00000000000E+00  0.00000000000E+00  0.29985838611E+04  0.29985838611E+04  0.50400000000E-02 0.  1.
          1   -1    0    0  501    0  0.00000000000E+00 -0.00000000000E+00 -0.86553873248E+03  0.86553873249E+03  0.50400000000E-02 0. -1.
    8880023    1    1    2    0    0 -0.10197972296E+04 -0.64131409201E+03  0.22587267536E+04  0.26432795742E+04  0.65864270000E+03 0.  0.
    8880022    1    1    2    0    0  0.10197972296E+04  0.64131409201E+03 -0.12568162496E+03  0.12208430193E+04  0.15294330000E+03 0.  0.
<mgrwt>
<rscale>  0 0.13314819E+04</rscale>
<asrwt>0</asrwt>
<pdfrwt beam="1">  1        1 0.13315981E+00 0.13729823E+04</pdfrwt>
<pdfrwt beam="2">  1       -1 0.46132059E+00 0.13729823E+04</pdfrwt>
<totfact> 0.50874895E-02</totfact>
</mgrwt>
</event>
<event>
 4    5  0.7214169E-008  0.6729658E+03  0.7818608E-02  0.1013620E+00
         -1   -1    0    0    0  501 -0.00000000000E+00  0.00000000000E+00  0.35433186455E+03  0.35433186459E+03  0.50400000000E-02 0.  1.
          1   -1    0    0  501    0  0.00000000000E+00 -0.00000000000E+00 -0.16953871392E+04  0.16953871392E+04  0.50400000000E-02 0. -1.
    8880023    1    1    2    0    0  0.13730069273E+03 -0.14873858812E+02  0.19891427072E+02  0.67325967281E+03  0.65864270000E+03 0.  1.
    8880022    1    1    2    0    0 -0.13730069273E+03  0.14873858812E+02 -0.13609467017E+04  0.13764593310E+04  0.15294330000E+03 0.  0.
<mgrwt>
<rscale>  0 0.50060802E+03</rscale>
<asrwt>0</asrwt>
<pdfrwt beam="1">  1        1 0.26082879E+00 0.67296576E+03</pdfrwt>
<pdfrwt beam="2">  1       -1 0.54512596E-01 0.67296576E+03</pdfrwt>
<totfact> 0.17135160E+01</totfact>
</mgrwt>
</event>
<event>
 4    5  0.7214169E-008  0.1139616E+04  0.7818608E-02  0.9218179E-01
          1   -1    0    0  501    0  0.00000000000E+00  0.00000000000E+00  0.11596262109E+04  0.11596262109E+04  0.50400000000E-02 0. -1.
         -1   -1    0    0    0  501 -0.00000000000E+00 -0.00000000000E+00 -0.11240316820E+04  0.11240316820E+04  0.50400000000E-02 0.  1.
    8880023    1    1    2    0    0 -0.70776891140E+03  0.60330630464E+03  0.48617796515E+03  0.12389893257E+04  0.65864270000E+03 0. -1.
    8880022    1    1    2    0    0  0.70776891140E+03 -0.60330630464E+03 -0.45058343630E+03  0.10446685672E+04  0.15294330000E+03 0.  0.
<mgrwt>
<rscale>  0 0.10867744E+04</rscale>
<asrwt>0</asrwt>
<pdfrwt beam="1">  1        1 0.17840403E+00 0.11396164E+04</pdfrwt>
<pdfrwt beam="2">  1       -1 0.17292795E+00 0.11396164E+04</pdfrwt>
<totfact> 0.26453273E+00</totfact>
</mgrwt>
</event>
<event>
 4    5  0.7214169E-008  0.8130645E+03  0.7818608E-02  0.9683229E-01
          1   -1    0    0  501    0  0.00000000000E+00  0.00000000000E+00  0.11124253921E+04  0.11124253921E+04  0.50400000000E-02 0. -1.
         -1   -1    0    0    0  501 -0.00000000000E+00 -0.00000000000E+00 -0.65755025508E+03  0.65755025510E+03  0.50400000000E-02 0.  1.
    8880023    1    1    2    0    0 -0.38970100039E+03 -0.27458476263E+03 -0.29789531098E+03  0.86591886695E+03  0.65864270000E+03 0.  0.
    8880022    1    1    2    0    0  0.38970100039E+03  0.27458476263E+03  0.75277044802E+03  0.90405678029E+03  0.15294330000E+03 0.  0.
<mgrwt>
<rscale>  0 0.72024186E+03</rscale>
<asrwt>0</asrwt>
<pdfrwt beam="1">  1        1 0.17114237E+00 0.81306449E+03</pdfrwt>
<pdfrwt beam="2">  1       -1 0.10116158E+00 0.81306449E+03</pdfrwt>
<totfact> 0.11797438E+01</totfact>
</mgrwt>
</event>
<event>
 4    5  0.7214169E-008  0.1100788E+04  0.7818608E-02  0.9260179E-01
          1   -1    0    0  501    0  0.00000000000E+00  0.00000000000E+00  0.13888954080E+04  0.13888954080E+04  0.50400000000E-02 0. -1.
         -1   -1    0    0    0  501 -0.00000000000E+00 -0.00000000000E+00 -0.16244823016E+04  0.16244823016E+04  0.50400000000E-02 0.  1.
    8880023    1    1    2    0    0 -0.61760870303E+03  0.62966949870E+03 -0.12465784826E+04  0.16630370733E+04  0.65864270000E+03 0.  1.
    8880022    1    1    2    0    0  0.61760870303E+03 -0.62966949870E+03  0.10109915891E+04  0.13503406363E+04  0.15294330000E+03 0.  0.
<mgrwt>
<rscale>  0 0.10453296E+04</rscale>
<asrwt>0</asrwt>
<pdfrwt beam="1">  1        1 0.21367622E+00 0.11007881E+04</pdfrwt>
<pdfrwt beam="2">  1       -1 0.24992036E+00 0.11007881E+04</pdfrwt>
<totfact> 0.54312966E-01</totfact>
</mgrwt>
</event>
<event>
 4    5  0.7214169E-008  0.9285033E+03  0.7818608E-02  0.9481742E-01
          1   -1    0    0  501    0  0.00000000000E+00  0.00000000000E+00  0.12322093362E+04  0.12322093362E+04  0.50400000000E-02 0. -1.
         -1   -1    0    0    0  501 -0.00000000000E+00 -0.00000000000E+00 -0.56549423463E+03  0.56549423465E+03  0.50400000000E-02 0.  1.
    8880023    1    1    2    0    0  0.19561696115E+03  0.62453360686E+03  0.12989906885E+03  0.93754583672E+03  0.65864270000E+03 0.  0.
    8880022    1    1    2    0    0 -0.19561696115E+03 -0.62453360686E+03  0.53681603268E+03  0.86015773411E+03  0.15294330000E+03 0.  0.
<mgrwt>
<rscale>  0 0.85643389E+03</rscale>
<asrwt>0</asrwt>
<pdfrwt beam="1">  1        1 0.18957067E+00 0.92850333E+03</pdfrwt>
<pdfrwt beam="2">  1       -1 0.86999112E-01 0.92850333E+03</pdfrwt>
<totfact> 0.13324283E+01</totfact>
</mgrwt>
</event>
<event>
 4    5  0.7214169E-008  0.1287362E+04  0.7818608E-02  0.9076551E-01
          1   -1    0    0  501    0  0.00000000000E+00  0.00000000000E+00  0.24048547193E+04  0.24048547193E+04  0.50400000000E-02 0. -1.
         -1   -1    0    0    0  501 -0.00000000000E+00 -0.00000000000E+00 -0.83151204871E+03  0.83151204872E+03  0.50400000000E-02 0.  1.
    8880023    1    1    2    0    0  0.87590246607E+02  0.11026412911E+04 -0.23805263118E+02  0.12875817508E+04  0.65864270000E+03 0.  0.
    8880022    1    1    2    0    0 -0.87590246607E+02 -0.11026412911E+04  0.15971479337E+04  0.19487850172E+04  0.15294330000E+03 0.  0.
<mgrwt>
<rscale>  0 0.12423775E+04</rscale>
<asrwt>0</asrwt>
<pdfrwt beam="1">  1        1 0.36997764E+00 0.12873617E+04</pdfrwt>
<pdfrwt beam="2">  1       -1 0.12792493E+00 0.12873617E+04</pdfrwt>
<totfact> 0.81266680E-01</totfact>
</mgrwt>
</event>
<event>
 4    5  0.7214169E-008  0.7173857E+03  0.7818608E-02  0.9931533E-01
         -1   -1    0    0    0  501 -0.00000000000E+00  0.00000000000E+00  0.27886613692E+03  0.27886613697E+03  0.50400000000E-02 0.  1.
          1   -1    0    0  501    0  0.00000000000E+00 -0.00000000000E+00 -0.14273430619E+04  0.14273430619E+04  0.50400000000E-02 0. -1.
    8880023    1    1    2    0    0  0.14651160231E+02 -0.28393193776E+03 -0.26360376464E+03  0.76428342437E+03  0.65864270000E+03 0.  0.
    8880022    1    1    2    0    0 -0.14651160231E+02  0.28393193776E+03 -0.88487316035E+03  0.94192577452E+03  0.15294330000E+03 0.  0.
<mgrwt>
<rscale>  0 0.58757095E+03</rscale>
<asrwt>0</asrwt>
<pdfrwt beam="1">  1        1 0.21959124E+00 0.71738568E+03</pdfrwt>
<pdfrwt beam="2">  1       -1 0.42902483E-01 0.71738568E+03</pdfrwt>
<totfact> 0.40638780E+01</totfact>
</mgrwt>
</event>
<event>
 4    5  0.7214169E-008  0.1588283E+04  0.7818608E-02  0.8849687E-01
          1   -1    0    0  501    0  0.00000000000E+00  0.00000000000E+00  0.31898826492E+04  0.31898826492E+04  0.50400000000E-02 0. -1.
         -1   -1    0    0    0  501 -0.00000000000E+00 -0.00000000000E+00 -0.14860449145E+04  0.14860449145E+04  0.50400000000E-02 0.  1.
    8880023    1    1    2    0    0  0.14278933908E+04 -0.22350121737E+03  0.25426001729E+04  0.29979089671E+04  0.65864270000E+03 0. -1.
    8880022    1    1    2    0    0 -0.14278933908E+04  0.22350121737E+03 -0.83876243817E+03  0.16780185966E+04  0.15294330000E+03 0.  0.
<mgrwt>
<rscale>  0 0.15534182E+04</rscale>
<asrwt>0</asrwt>
<pdfrwt beam="1">  1        1 0.49075117E+00 0.15882829E+04</pdfrwt>
<pdfrwt beam="2">  1       -1 0.22862230E+00 0.15882829E+04</pdfrwt>
<totfact> 0.39028660E-02</totfact>
</mgrwt>
</event>
<event>
 4    5  0.7214169E-008  0.9393119E+03  0.7818608E-02  0.9465662E-01
          1   -1    0    0  501    0  0.00000000000E+00  0.00000000000E+00  0.11308528317E+04  0.11308528317E+04  0.50400000000E-02 0. -1.
         -1   -1    0    0    0  501 -0.00000000000E+00 -0.00000000000E+00 -0.80456699193E+03  0.80456699195E+03  0.50400000000E-02 0.  1.
    8880023    1    1    2    0    0  0.65813802450E+03 -0.12389899643E+03 -0.31992432312E+03  0.99229955124E+03  0.65864270000E+03 0.  1.
    8880022    1    1    2    0    0 -0.65813802450E+03  0.12389899643E+03  0.64621016287E+03  0.94312027240E+03  0.15294330000E+03 0.  0.
<mgrwt>
<rscale>  0 0.86863488E+03</rscale>
<asrwt>0</asrwt>
<pdfrwt beam="1">  1        1 0.17397736E+00 0.93931189E+03</pdfrwt>
<pdfrwt beam="2">  1       -1 0.12377954E+00 0.93931189E+03</pdfrwt>
<totfact> 0.69618563E+00</totfact>
</mgrwt>
</event>
<event>
 4    5  0.7214169E-008  0.1597587E+04  0.7818608E-02  0.8843633E-01
          1   -1    0    0  501    0  0.00000000000E+00  0.00000000000E+00  0.13793057266E+04  0.13793057266E+04  0.50400000000E-02 0. -1.
         -1   -1    0    0    0  501 -0.00000000000E+00 -0.00000000000E+00 -0.23355575837E+04  0.23355575837E+04  0.50400000000E-02 0.  1.
    8880023    1    1    2    0    0  0.10179093798E+04 -0.10403531535E+04  0.47614080557E+03  0.16670316321E+04  0.65864270000E+03 0.  0.
    8880022    1    1    2    0    0 -0.10179093798E+04  0.10403531535E+04 -0.14323926627E+04  0.20478316783E+04  0.15294330000E+03 0.  0.
<mgrwt>
<rscale>  0 0.15629584E+04</rscale>
<asrwt>0</asrwt>
<pdfrwt beam="1">  1        1 0.21220088E+00 0.15975871E+04</pdfrwt>
<pdfrwt beam="2">  1       -1 0.35931655E+00 0.15975871E+04</pdfrwt>
<totfact> 0.10025373E-01</totfact>
</mgrwt>
</event>
<event>
 4    5  0.7214169E-008  0.6636430E+03  0.7818608E-02  0.1020700E+00
          1   -1    0    0  501    0  0.00000000000E+00  0.00000000000E+00  0.56261433695E+03  0.56261433697E+03  0.50400000000E-02 0. -1.
         -1   -1    0    0    0  501 -0.00000000000E+00 -0.00000000000E+00 -0.35711403071E+03  0.35711403074E+03  0.50400000000E-02 0.  1.
    8880023    1    1    2    0    0  0.19865926767E+02  0.78849180899E+02  0.17185935451E+02  0.66386550672E+03  0.65864270000E+03 0.  1.
    8880022    1    1    2    0    0 -0.19865926767E+02 -0.78849180899E+02  0.18831437079E+03  0.25586286099E+03  0.15294330000E+03 0.  1.
<mgrwt>
<rscale>  0 0.47434834E+03</rscale>
<asrwt>0</asrwt>
<pdfrwt beam="1">  1        1 0.86556052E-01 0.66364302E+03</pdfrwt>
<pdfrwt beam="2">  1       -1 0.54940620E-01 0.66364302E+03</pdfrwt>
<totfact> 0.12856511E+02</totfact>
</mgrwt>
</event>
<event>
 4    5  0.7214169E-008  0.1409790E+04  0.7818608E-02  0.8976113E-01
          1   -1    0    0  501    0  0.00000000000E+00  0.00000000000E+00  0.26876478406E+04  0.26876478406E+04  0.50400000000E-02 0. -1.
         -1   -1    0    0    0  501 -0.00000000000E+00 -0.00000000000E+00 -0.75180180247E+03  0.75180180249E+03  0.50400000000E-02 0.  1.
    8880023    1    1    2    0    0 -0.11301463825E+03  0.12413398678E+04  0.16140575926E+04  0.21430560175E+04  0.65864270000E+03 0.  0.
    8880022    1    1    2    0    0  0.11301463825E+03 -0.12413398678E+04  0.32178844558E+03  0.12963936256E+04  0.15294330000E+03 0.  0.
<mgrwt>
<rscale>  0 0.13696127E+04</rscale>
<asrwt>0</asrwt>
<pdfrwt beam="1">  1        1 0.41348428E+00 0.14097898E+04</pdfrwt>
<pdfrwt beam="2">  1       -1 0.11566182E+00 0.14097898E+04</pdfrwt>
<totfact> 0.65404504E-01</totfact>
</mgrwt>
</event>
<event>
 4    5  0.7214169E-008  0.1140593E+04  0.7818608E-02  0.9217152E-01
          1   -1    0    0  501    0  0.00000000000E+00  0.00000000000E+00  0.12089914952E+04  0.12089914953E+04  0.50400000000E-02 0. -1.
         -1   -1    0    0    0  501 -0.00000000000E+00 -0.00000000000E+00 -0.22049235837E+04  0.22049235837E+04  0.50400000000E-02 0.  1.
    8880023    1    1    2    0    0  0.92814065644E+03 -0.75485347717E+02 -0.18287536262E+04  0.21552942136E+04  0.65864270000E+03 0.  1.
    8880022    1    1    2    0    0 -0.92814065644E+03  0.75485347717E+02  0.83282153773E+03  0.12586208653E+04  0.15294330000E+03 0.  0.
<mgrwt>
<rscale>  0 0.10878136E+04</rscale>
<asrwt>0</asrwt>
<pdfrwt beam="1">  1        1 0.18599869E+00 0.11405934E+04</pdfrwt>
<pdfrwt beam="2">  1       -1 0.33921901E+00 0.11405934E+04</pdfrwt>
<totfact> 0.19201127E-01</totfact>
</mgrwt>
</event>
<event>
 4    5  0.7214169E-008  0.7654703E+03  0.7818608E-02  0.9791146E-01
         -1   -1    0    0    0  501 -0.00000000000E+00  0.00000000000E+00  0.21534952251E+04  0.21534952251E+04  0.50400000000E-02 0.  1.
          1   -1    0    0  501    0  0.00000000000E+00 -0.00000000000E+00 -0.49741503797E+03  0.49741503800E+03  0.50400000000E-02 0. -1.
    8880023    1    1    2    0    0 -0.61623394279E+02 -0.38514557380E+03  0.19790409490E+04  0.21219207902E+04  0.65864270000E+03 0.  0.
    8880022    1    1    2    0    0  0.61623394279E+02  0.38514557380E+03 -0.32296076187E+03  0.52898947292E+03  0.15294330000E+03 0.  0.
<mgrwt>
<rscale>  0 0.65839875E+03</rscale>
<asrwt>0</asrwt>
<pdfrwt beam="1">  1        1 0.76525389E-01 0.76547029E+03</pdfrwt>
<pdfrwt beam="2">  1       -1 0.33130697E+00 0.76547029E+03</pdfrwt>
<totfact> 0.97417123E-01</totfact>
</mgrwt>
</event>
<event>
 4    5  0.7214169E-008  0.7684333E+03  0.7818608E-02  0.9783744E-01
          1   -1    0    0  501    0  0.00000000000E+00  0.00000000000E+00  0.10899077536E+04  0.10899077536E+04  0.50400000000E-02 0. -1.
         -1   -1    0    0    0  501 -0.00000000000E+00 -0.00000000000E+00 -0.54005018921E+03  0.54005018923E+03  0.50400000000E-02 0.  1.
    8880023    1    1    2    0    0 -0.14162001737E+02 -0.39557424903E+03 -0.17676298967E+03  0.78850168647E+03  0.65864270000E+03 0.  1.
    8880022    1    1    2    0    0  0.14162001737E+02  0.39557424903E+03  0.72662055405E+03  0.84145625636E+03  0.15294330000E+03 0.  0.
<mgrwt>
<rscale>  0 0.66242265E+03</rscale>
<asrwt>0</asrwt>
<pdfrwt beam="1">  1        1 0.16767812E+00 0.76843331E+03</pdfrwt>
<pdfrwt beam="2">  1       -1 0.83084644E-01 0.76843331E+03</pdfrwt>
<totfact> 0.19077029E+01</totfact>
</mgrwt>
</event>
<event>
 4    5  0.7214169E-008  0.7153215E+03  0.7818608E-02  0.9938746E-01
          1   -1    0    0  501    0  0.00000000000E+00  0.00000000000E+00  0.12836220528E+04  0.12836220528E+04  0.50400000000E-02 0. -1.
         -1   -1    0    0    0  501 -0.00000000000E+00 -0.00000000000E+00 -0.42241373879E+03  0.42241373882E+03  0.50400000000E-02 0.  1.
    8880023    1    1    2    0    0  0.13250815257E+03 -0.24559371377E+03 -0.73075177271E+02  0.71904441486E+03  0.65864270000E+03 0.  1.
    8880022    1    1    2    0    0 -0.13250815257E+03  0.24559371377E+03  0.93428349130E+03  0.98699137679E+03  0.15294330000E+03 0.  0.
<mgrwt>
<rscale>  0 0.58419671E+03</rscale>
<asrwt>0</asrwt>
<pdfrwt beam="1">  1        1 0.19748032E+00 0.71532153E+03</pdfrwt>
<pdfrwt beam="2">  1       -1 0.64986728E-01 0.71532153E+03</pdfrwt>
<totfact> 0.23109195E+01</totfact>
</mgrwt>
</event>
<event>
 4    5  0.7214169E-008  0.1231078E+04  0.7818608E-02  0.9127489E-01
          1   -1    0    0  501    0  0.00000000000E+00  0.00000000000E+00  0.22686741943E+04  0.22686741943E+04  0.50400000000E-02 0. -1.
         -1   -1    0    0    0  501 -0.00000000000E+00 -0.00000000000E+00 -0.14330640180E+04  0.14330640181E+04  0.50400000000E-02 0.  1.
    8880023    1    1    2    0    0  0.27764666827E+03 -0.10023250742E+04 -0.10002426988E+04  0.15862026634E+04  0.65864270000E+03 0.  0.
    8880022    1    1    2    0    0 -0.27764666827E+03  0.10023250742E+04  0.18358528751E+04  0.21155355489E+04  0.15294330000E+03 0.  0.
<mgrwt>
<rscale>  0 0.11834261E+04</rscale>
<asrwt>0</asrwt>
<pdfrwt beam="1">  1        1 0.34902680E+00 0.12310782E+04</pdfrwt>
<pdfrwt beam="2">  1       -1 0.22047139E+00 0.12310782E+04</pdfrwt>
<totfact> 0.20916939E-01</totfact>
</mgrwt>
</event>
<event>
 4    5  0.7214169E-008  0.1243031E+04  0.7818608E-02  0.9116387E-01
         -1   -1    0    0    0  501 -0.00000000000E+00  0.00000000000E+00  0.15158411066E+04  0.15158411066E+04  0.50400000000E-02 0.  1.
          1   -1    0    0  501    0  0.00000000000E+00 -0.00000000000E+00 -0.11925175625E+04  0.11925175625E+04  0.50400000000E-02 0. -1.
    8880023    1    1    2    0    0 -0.10226648315E+04 -0.25587606093E+03  0.86396188507E+03  0.15137887109E+04  0.65864270000E+03 0.  0.
    8880022    1    1    2    0    0  0.10226648315E+04  0.25587606093E+03 -0.54063834101E+03  0.11945699582E+04  0.15294330000E+03 0.  0.
<mgrwt>
<rscale>  0 0.11959746E+04</rscale>
<asrwt>0</asrwt>
<pdfrwt beam="1">  1        1 0.18346424E+00 0.12430310E+04</pdfrwt>
<pdfrwt beam="2">  1       -1 0.23320632E+00 0.12430310E+04</pdfrwt>
<totfact> 0.94897444E-01</totfact>
</mgrwt>
</event>
<event>
 4    5  0.7214169E-008  0.9368196E+03  0.7818608E-02  0.9469337E-01
         -1   -1    0    0    0  501 -0.00000000000E+00  0.00000000000E+00  0.87629919463E+03  0.87629919464E+03  0.50400000000E-02 0.  1.
          1   -1    0    0  501    0  0.00000000000E+00 -0.00000000000E+00 -0.15469261590E+04  0.15469261590E+04  0.50400000000E-02 0. -1.
    8880023    1    1    2    0    0  0.12137954884E+03 -0.65504788532E+03  0.50430414140E+03  0.10639330807E+04  0.65864270000E+03 0.  1.
    8880022    1    1    2    0    0 -0.12137954884E+03  0.65504788532E+03 -0.11749311057E+04  0.13592922729E+04  0.15294330000E+03 0.  0.
<mgrwt>
<rscale>  0 0.86582728E+03</rscale>
<asrwt>0</asrwt>
<pdfrwt beam="1">  1        1 0.23798864E+00 0.93681958E+03</pdfrwt>
<pdfrwt beam="2">  1       -1 0.13481526E+00 0.93681958E+03</pdfrwt>
<totfact> 0.28471309E+00</totfact>
</mgrwt>
</event>
<event>
 4    5  0.7214169E-008  0.9327375E+03  0.7818608E-02  0.9475399E-01
         -1   -1    0    0    0  501 -0.00000000000E+00  0.00000000000E+00  0.15896579069E+04  0.15896579069E+04  0.50400000000E-02 0.  1.
          1   -1    0    0  501    0  0.00000000000E+00 -0.00000000000E+00 -0.96491536775E+03  0.96491536777E+03  0.50400000000E-02 0. -1.
    8880023    1    1    2    0    0 -0.23562241492E+02 -0.66002568340E+03  0.12985029350E+04  0.15987836503E+04  0.65864270000E+03 0.  0.
    8880022    1    1    2    0    0  0.23562241492E+02  0.66002568340E+03 -0.67376039587E+03  0.95578962436E+03  0.15294330000E+03 0.  0.
<mgrwt>
<rscale>  0 0.86122140E+03</rscale>
<asrwt>0</asrwt>
<pdfrwt beam="1">  1        1 0.14844852E+00 0.93273752E+03</pdfrwt>
<pdfrwt beam="2">  1       -1 0.24456275E+00 0.93273752E+03</pdfrwt>
<totfact> 0.12418177E+00</totfact>
</mgrwt>
</event>
<event>
 4    5  0.7214169E-008  0.9103065E+03  0.7818608E-02  0.9509685E-01
          1   -1    0    0  501    0  0.00000000000E+00  0.00000000000E+00  0.61196500498E+03  0.61196500500E+03  0.50400000000E-02 0. -1.
         -1   -1    0    0    0  501 -0.00000000000E+00 -0.00000000000E+00 -0.13343933715E+04  0.13343933715E+04  0.50400000000E-02 0.  1.
    8880023    1    1    2    0    0  0.15144354742E+03 -0.60984630475E+03 -0.89544289576E+03  0.12769008769E+04  0.65864270000E+03 0.  1.
    8880022    1    1    2    0    0 -0.15144354742E+03  0.60984630475E+03  0.17301452926E+03  0.66945749964E+03  0.15294330000E+03 0.  0.
<mgrwt>
<rscale>  0 0.83573546E+03</rscale>
<asrwt>0</asrwt>
<pdfrwt beam="1">  1        1 0.94148463E-01 0.91030647E+03</pdfrwt>
<pdfrwt beam="2">  1       -1 0.20529129E+00 0.91030647E+03</pdfrwt>
<totfact> 0.46752519E+00</totfact>
</mgrwt>
</event>
<event>
 4    5  0.7214169E-008  0.9376709E+03  0.7818608E-02  0.9468079E-01
          1   -1    0    0  501    0  0.00000000000E+00  0.00000000000E+00  0.13143790485E+04  0.13143790485E+04  0.50400000000E-02 0. -1.
         -1   -1    0    0    0  501 -0.00000000000E+00 -0.00000000000E+00 -0.68749826681E+03  0.68749826683E+03  0.50400000000E-02 0.  1.
    8880023    1    1    2    0    0 -0.94128103175E+02  0.66072418640E+03 -0.16817080942E+03  0.95263223633E+03  0.65864270000E+03 0.  0.
    8880022    1    1    2    0    0  0.94128103175E+02 -0.66072418640E+03  0.79505159112E+03  0.10492450790E+04  0.15294330000E+03 0.  0.
<mgrwt>
<rscale>  0 0.86678669E+03</rscale>
<asrwt>0</asrwt>
<pdfrwt beam="1">  1        1 0.20221216E+00 0.93767092E+03</pdfrwt>
<pdfrwt beam="2">  1       -1 0.10576897E+00 0.93767092E+03</pdfrwt>
<totfact> 0.74784921E+00</totfact>
</mgrwt>
</event>
<event>
 4    5  0.7214169E-008  0.7941105E+03  0.7818608E-02  0.9723678E-01
          1   -1    0    0  501    0  0.00000000000E+00  0.00000000000E+00  0.12770253424E+04  0.12770253424E+04  0.50400000000E-02 0. -1.
         -1   -1    0    0    0  501 -0.00000000000E+00 -0.00000000000E+00 -0.64180598540E+03  0.64180598542E+03  0.50400000000E-02 0.  1.
    8880023    1    1    2    0    0  0.44217501573E+03  0.35812131926E+02 -0.31875353440E+03  0.85569578431E+03  0.65864270000E+03 0.  0.
    8880022    1    1    2    0    0 -0.44217501573E+03 -0.35812131926E+02  0.95397289141E+03  0.10631355435E+04  0.15294330000E+03 0. -1.
<mgrwt>
<rscale>  0 0.69624343E+03</rscale>
<asrwt>0</asrwt>
<pdfrwt beam="1">  1        1 0.19646544E+00 0.79411048E+03</pdfrwt>
<pdfrwt beam="2">  1       -1 0.98739383E-01 0.79411048E+03</pdfrwt>
<totfact> 0.94888897E+00</totfact>
</mgrwt>
</event>
<event>
 4    5  0.7214169E-008  0.8574138E+03  0.7818608E-02  0.9598180E-01
         -1   -1    0    0    0  501 -0.00000000000E+00  0.00000000000E+00  0.39542124955E+03  0.39542124958E+03  0.50400000000E-02 0.  1.
          1   -1    0    0  501    0  0.00000000000E+00 -0.00000000000E+00 -0.21705066366E+04  0.21705066366E+04  0.50400000000E-02 0. -1.
    8880023    1    1    2    0    0 -0.45551939351E+03  0.30635005681E+03 -0.18545573372E+03  0.87724130694E+03  0.65864270000E+03 0.  0.
    8880022    1    1    2    0    0  0.45551939351E+03 -0.30635005681E+03 -0.15896296534E+04  0.16886865793E+04  0.15294330000E+03 0.  0.
<mgrwt>
<rscale>  0 0.77416730E+03</rscale>
<asrwt>0</asrwt>
<pdfrwt beam="1">  1        1 0.33392409E+00 0.85741383E+03</pdfrwt>
<pdfrwt beam="2">  1       -1 0.60834040E-01 0.85741383E+03</pdfrwt>
<totfact> 0.64622433E+00</totfact>
</mgrwt>
</event>
<event>
 4    5  0.7214169E-008  0.1117832E+04  0.7818608E-02  0.9241458E-01
         -1   -1    0    0    0  501 -0.00000000000E+00  0.00000000000E+00  0.14918178875E+04  0.14918178875E+04  0.50400000000E-02 0.  1.
          1   -1    0    0  501    0  0.00000000000E+00 -0.00000000000E+00 -0.14355333820E+04  0.14355333820E+04  0.50400000000E-02 0. -1.
    8880023    1    1    2    0    0  0.26205567027E+03  0.86432857797E+03  0.10795095807E+04  0.15539910573E+04  0.65864270000E+03 0.  0.
    8880022    1    1    2    0    0 -0.26205567027E+03 -0.86432857797E+03 -0.10232250751E+04  0.13733602122E+04  0.15294330000E+03 0.  0.
<mgrwt>
<rscale>  0 0.10635572E+04</rscale>
<asrwt>0</asrwt>
<pdfrwt beam="1">  1        1 0.22085129E+00 0.11178315E+04</pdfrwt>
<pdfrwt beam="2">  1       -1 0.22951044E+00 0.11178315E+04</pdfrwt>
<totfact> 0.68383863E-01</totfact>
</mgrwt>
</event>
<event>
 4    5  0.7214169E-008  0.9335267E+03  0.7818608E-02  0.9474223E-01
          1   -1    0    0  501    0  0.00000000000E+00  0.00000000000E+00  0.15880207876E+04  0.15880207876E+04  0.50400000000E-02 0. -1.
         -1   -1    0    0    0  501 -0.00000000000E+00 -0.00000000000E+00 -0.46017771610E+03  0.46017771612E+03  0.50400000000E-02 0.  1.
    8880023    1    1    2    0    0 -0.65996785395E+03  0.45872723050E+02  0.30656330536E+03  0.98257475106E+03  0.65864270000E+03 0.  0.
    8880022    1    1    2    0    0  0.65996785395E+03 -0.45872723050E+02  0.82127976613E+03  0.10656237527E+04  0.15294330000E+03 0.  0.
<mgrwt>
<rscale>  0 0.86211256E+03</rscale>
<asrwt>0</asrwt>
<pdfrwt beam="1">  1        1 0.24431089E+00 0.93352669E+03</pdfrwt>
<pdfrwt beam="2">  1       -1 0.70796571E-01 0.93352669E+03</pdfrwt>
<totfact> 0.11626290E+01</totfact>
</mgrwt>
</event>
<event>
 4    5  0.7214169E-008  0.1004738E+04  0.7818608E-02  0.9375385E-01
          1   -1    0    0  501    0  0.00000000000E+00  0.00000000000E+00  0.14095236660E+04  0.14095236660E+04  0.50400000000E-02 0. -1.
         -1   -1    0    0    0  501 -0.00000000000E+00 -0.00000000000E+00 -0.15082948044E+04  0.15082948044E+04  0.50400000000E-02 0.  1.
    8880023    1    1    2    0    0  0.49294014888E+02 -0.75713857304E+03 -0.12042279006E+04  0.15683315216E+04  0.65864270000E+03 0.  1.
    8880022    1    1    2    0    0 -0.49294014888E+02  0.75713857304E+03  0.11054567623E+04  0.13494869488E+04  0.15294330000E+03 0.  0.
<mgrwt>
<rscale>  0 0.94129409E+03</rscale>
<asrwt>0</asrwt>
<pdfrwt beam="1">  1        1 0.21684979E+00 0.10047382E+04</pdfrwt>
<pdfrwt beam="2">  1       -1 0.23204536E+00 0.10047382E+04</pdfrwt>
<totfact> 0.69770313E-01</totfact>
</mgrwt>
</event>
<event>
 4    5  0.7214169E-008  0.1726936E+04  0.7818608E-02  0.8764067E-01
          1   -1    0    0  501    0  0.00000000000E+00  0.00000000000E+00  0.24586694103E+04  0.24586694103E+04  0.50400000000E-02 0. -1.
         -1   -1    0    0    0  501 -0.00000000000E+00 -0.00000000000E+00 -0.12149605778E+04  0.12149605778E+04  0.50400000000E-02 0.  1.
    8880023    1    1    2    0    0  0.15952069569E+04  0.61731564873E+02  0.15202478124E+03  0.17336140752E+04  0.65864270000E+03 0.  0.
    8880022    1    1    2    0    0 -0.15952069569E+04 -0.61731564873E+02  0.10916840513E+04  0.19400159129E+04  0.15294330000E+03 0.  0.
<mgrwt>
<rscale>  0 0.16952689E+04</rscale>
<asrwt>0</asrwt>
<pdfrwt beam="1">  1        1 0.37825683E+00 0.17269355E+04</pdfrwt>
<pdfrwt beam="2">  1       -1 0.18691701E+00 0.17269355E+04</pdfrwt>
<totfact> 0.24811911E-01</totfact>
</mgrwt>
</event>
<event>
 4    5  0.7214169E-008  0.1483204E+04  0.7818608E-02  0.8921588E-01
          1   -1    0    0  501    0  0.00000000000E+00  0.00000000000E+00  0.24426875915E+04  0.24426875915E+04  0.50400000000E-02 0. -1.
         -1   -1    0    0    0  501 -0.00000000000E+00 -0.00000000000E+00 -0.10136840208E+04  0.10136840208E+04  0.50400000000E-02 0.  1.
    8880023    1    1    2    0    0 -0.37438598272E+03 -0.12751148148E+04 -0.21277620148E+02  0.14833561941E+04  0.65864270000E+03 0.  0.
    8880022    1    1    2    0    0  0.37438598272E+03  0.12751148148E+04  0.14502811908E+04  0.19730154182E+04  0.15294330000E+03 0.  0.
<mgrwt>
<rscale>  0 0.14454107E+04</rscale>
<asrwt>0</asrwt>
<pdfrwt beam="1">  1        1 0.37579809E+00 0.14832036E+04</pdfrwt>
<pdfrwt beam="2">  1       -1 0.15595139E+00 0.14832036E+04</pdfrwt>
<totfact> 0.44298336E-01</totfact>
</mgrwt>
</event>
<event>
 4    5  0.7214169E-008  0.1608526E+04  0.7818608E-02  0.8836575E-01
         -1   -1    0    0    0  501 -0.00000000000E+00  0.00000000000E+00  0.20783623088E+04  0.20783623088E+04  0.50400000000E-02 0.  1.
          1   -1    0    0  501    0  0.00000000000E+00 -0.00000000000E+00 -0.20625182194E+04  0.20625182194E+04  0.50400000000E-02 0. -1.
    8880023    1    1    2    0    0  0.44649101539E+03  0.13979245464E+04  0.13890518439E+04  0.21252817450E+04  0.65864270000E+03 0.  0.
    8880022    1    1    2    0    0 -0.44649101539E+03 -0.13979245464E+04 -0.13732077546E+04  0.20155987831E+04  0.15294330000E+03 0.  0.
<mgrwt>
<rscale>  0 0.15741711E+04</rscale>
<asrwt>0</asrwt>
<pdfrwt beam="1">  1        1 0.31731049E+00 0.16085265E+04</pdfrwt>
<pdfrwt beam="2">  1       -1 0.31974805E+00 0.16085265E+04</pdfrwt>
<totfact> 0.61766023E-02</totfact>
</mgrwt>
</event>
<event>
 4    5  0.7214169E-008  0.9983902E+03  0.7818608E-02  0.9383667E-01
          1   -1    0    0  501    0  0.00000000000E+00  0.00000000000E+00  0.19393363728E+04  0.19393363728E+04  0.50400000000E-02 0. -1.
         -1   -1    0    0    0  501 -0.00000000000E+00 -0.00000000000E+00 -0.55366848921E+03  0.55366848923E+03  0.50400000000E-02 0.  1.
    8880023    1    1    2    0    0  0.69182912790E+03  0.29042245703E+03  0.10903161532E+03  0.10043260652E+04  0.65864270000E+03 0.  1.
    8880022    1    1    2    0    0 -0.69182912790E+03 -0.29042245703E+03  0.12766362682E+04  0.14886787968E+04  0.15294330000E+03 0.  0.
<mgrwt>
<rscale>  0 0.93432114E+03</rscale>
<asrwt>0</asrwt>
<pdfrwt beam="1">  1        1 0.29835944E+00 0.99839018E+03</pdfrwt>
<pdfrwt beam="2">  1       -1 0.85179769E-01 0.99839018E+03</pdfrwt>
<totfact> 0.45130902E+00</totfact>
</mgrwt>
</event>
<event>
 4    5  0.7214169E-008  0.6681224E+03  0.7818608E-02  0.1017046E+00
         -1   -1    0    0    0  501 -0.00000000000E+00  0.00000000000E+00  0.85314966403E+03  0.85314966405E+03  0.50400000000E-02 0.  1.
          1   -1    0    0  501    0  0.00000000000E+00 -0.00000000000E+00 -0.44009037607E+03  0.44009037610E+03  0.50400000000E-02 0. -1.
    8880023    1    1    2    0    0 -0.10840838997E+03  0.28722733543E+02  0.68813341877E+03  0.95912208958E+03  0.65864270000E+03 0.  1.
    8880022    1    1    2    0    0  0.10840838997E+03 -0.28722733543E+02 -0.27507413081E+03  0.33411795057E+03  0.15294330000E+03 0.  0.
<mgrwt>
<rscale>  0 0.48767796E+03</rscale>
<asrwt>0</asrwt>
<pdfrwt beam="1">  1        1 0.67706212E-01 0.66812243E+03</pdfrwt>
<pdfrwt beam="2">  1       -1 0.13125379E+00 0.66812243E+03</pdfrwt>
<totfact> 0.26980769E+01</totfact>
</mgrwt>
</event>
<event>
 4    5  0.7214169E-008  0.6783338E+03  0.7818608E-02  0.1010282E+00
         -1   -1    0    0    0  501 -0.00000000000E+00  0.00000000000E+00  0.85428399765E+03  0.85428399767E+03  0.50400000000E-02 0.  1.
          1   -1    0    0  501    0  0.00000000000E+00 -0.00000000000E+00 -0.45706012730E+03  0.45706012733E+03  0.50400000000E-02 0. -1.
    8880023    1    1    2    0    0 -0.88033777211E+00  0.16225236037E+03  0.67378084784E+03  0.95609489101E+03  0.65864270000E+03 0.  1.
    8880022    1    1    2    0    0  0.88033777211E+00 -0.16225236037E+03 -0.27655697749E+03  0.35524923399E+03  0.15294330000E+03 0.  0.
<mgrwt>
<rscale>  0 0.51362612E+03</rscale>
<asrwt>0</asrwt>
<pdfrwt beam="1">  1        1 0.70316943E-01 0.67833385E+03</pdfrwt>
<pdfrwt beam="2">  1       -1 0.13142831E+00 0.67833385E+03</pdfrwt>
<totfact> 0.25528787E+01</totfact>
</mgrwt>
</event>
<event>
 4    5  0.7214169E-008  0.7889352E+03  0.7818608E-02  0.9735252E-01
          1   -1    0    0  501    0  0.00000000000E+00  0.00000000000E+00  0.15607094923E+04  0.15607094923E+04  0.50400000000E-02 0. -1.
         -1   -1    0    0    0  501 -0.00000000000E+00 -0.00000000000E+00 -0.10087628859E+04  0.10087628859E+04  0.50400000000E-02 0.  1.
    8880023    1    1    2    0    0  0.16729027724E+03 -0.40077744473E+03 -0.81065210483E+03  0.11311832912E+04  0.65864270000E+03 0.  0.
    8880022    1    1    2    0    0 -0.16729027724E+03  0.40077744473E+03  0.13625987112E+04  0.14382890870E+04  0.15294330000E+03 0. -1.
<mgrwt>
<rscale>  0 0.68956159E+03</rscale>
<asrwt>0</asrwt>
<pdfrwt beam="1">  1        1 0.24010915E+00 0.78893523E+03</pdfrwt>
<pdfrwt beam="2">  1       -1 0.15519429E+00 0.78893523E+03</pdfrwt>
<totfact> 0.19652270E+00</totfact>
</mgrwt>
</event>
<event>
 4    5  0.7214169E-008  0.8822580E+03  0.7818608E-02  0.9555135E-01
         -1   -1    0    0    0  501 -0.00000000000E+00  0.00000000000E+00  0.28696745535E+03  0.28696745539E+03  0.50400000000E-02 0.  1.
          1   -1    0    0  501    0  0.00000000000E+00 -0.00000000000E+00 -0.22124192164E+04  0.22124192164E+04  0.50400000000E-02 0. -1.
    8880023    1    1    2    0    0 -0.35510603268E+03 -0.46740629874E+03 -0.67943102903E+03  0.11135554194E+04  0.65864270000E+03 0.  1.
    8880022    1    1    2    0    0  0.35510603268E+03  0.46740629874E+03 -0.12460207320E+04  0.13858312524E+04  0.15294330000E+03 0.  0.
<mgrwt>
<rscale>  0 0.80338156E+03</rscale>
<asrwt>0</asrwt>
<pdfrwt beam="1">  1        1 0.34037218E+00 0.88225798E+03</pdfrwt>
<pdfrwt beam="2">  1       -1 0.44148841E-01 0.88225798E+03</pdfrwt>
<totfact> 0.11150476E+01</totfact>
</mgrwt>
</event>
<event>
 4    5  0.7214169E-008  0.1289497E+04  0.7818608E-02  0.9074683E-01
         -1   -1    0    0    0  501 -0.00000000000E+00  0.00000000000E+00  0.63283007612E+03  0.63283007614E+03  0.50400000000E-02 0.  1.
          1   -1    0    0  501    0  0.00000000000E+00 -0.00000000000E+00 -0.29458057325E+04  0.29458057325E+04  0.50400000000E-02 0. -1.
    8880023    1    1    2    0    0 -0.56526761035E+03  0.95365856085E+03 -0.37870360137E+03  0.13439563780E+04  0.65864270000E+03 0.  1.
    8880022    1    1    2    0    0  0.56526761035E+03 -0.95365856085E+03 -0.19342720550E+04  0.22346794307E+04  0.15294330000E+03 0.  0.
<mgrwt>
<rscale>  0 0.12446075E+04</rscale>
<asrwt>0</asrwt>
<pdfrwt beam="1">  1        1 0.45320087E+00 0.12894969E+04</pdfrwt>
<pdfrwt beam="2">  1       -1 0.97358475E-01 0.12894969E+04</pdfrwt>
<totfact> 0.65226630E-01</totfact>
</mgrwt>
</event>
<event>
 4    5  0.7214169E-008  0.8200857E+03  0.7818608E-02  0.9668939E-01
          1   -1    0    0  501    0  0.00000000000E+00  0.00000000000E+00  0.28906598420E+04  0.28906598420E+04  0.50400000000E-02 0. -1.
         -1   -1    0    0    0  501 -0.00000000000E+00 -0.00000000000E+00 -0.60366134192E+03  0.60366134194E+03  0.50400000000E-02 0.  1.
    8880023    1    1    2    0    0  0.27504208256E+03 -0.40383442506E+03 -0.28779598070E+03  0.86911858962E+03  0.65864270000E+03 0.  1.
    8880022    1    1    2    0    0 -0.27504208256E+03  0.40383442506E+03  0.25747944808E+04  0.26252025943E+04  0.15294330000E+03 0.  0.
<mgrwt>
<rscale>  0 0.72896618E+03</rscale>
<asrwt>0</asrwt>
<pdfrwt beam="1">  1        1 0.44471690E+00 0.82008572E+03</pdfrwt>
<pdfrwt beam="2">  1       -1 0.92870975E-01 0.82008572E+03</pdfrwt>
<totfact> 0.85737730E-01</totfact>
</mgrwt>
</event>
<event>
 4    5  0.7214169E-008  0.7581662E+03  0.7818608E-02  0.9809878E-01
         -1   -1    0    0    0  501 -0.00000000000E+00  0.00000000000E+00  0.85200615554E+03  0.85200615556E+03  0.50400000000E-02 0.  1.
          1   -1    0    0  501    0  0.00000000000E+00 -0.00000000000E+00 -0.22549001111E+04  0.22549001112E+04  0.50400000000E-02 0. -1.
    8880023    1    1    2    0    0  0.36062479023E+03  0.10466899712E+03  0.65960250728E+03  0.10049335859E+04  0.65864270000E+03 0.  0.
    8880022    1    1    2    0    0 -0.36062479023E+03 -0.10466899712E+03 -0.20624964629E+04  0.21019726808E+04  0.15294330000E+03 0.  0.
<mgrwt>
<rscale>  0 0.64835107E+03</rscale>
<asrwt>0</asrwt>
<pdfrwt beam="1">  1        1 0.34690771E+00 0.75816624E+03</pdfrwt>
<pdfrwt beam="2">  1       -1 0.13107787E+00 0.75816624E+03</pdfrwt>
<totfact> 0.10527313E+00</totfact>
</mgrwt>
</event>
<event>
 4    5  0.7214169E-008  0.1827246E+04  0.7818608E-02  0.8707613E-01
         -1   -1    0    0    0  501 -0.00000000000E+00  0.00000000000E+00  0.17129377918E+04  0.17129377918E+04  0.50400000000E-02 0.  1.
          1   -1    0    0  501    0  0.00000000000E+00 -0.00000000000E+00 -0.26626637035E+04  0.26626637035E+04  0.50400000000E-02 0. -1.
    8880023    1    1    2    0    0 -0.44151608237E+03 -0.16462326661E+04  0.73934171659E+03  0.19711557072E+04  0.65864270000E+03 0. -1.
    8880022    1    1    2    0    0  0.44151608237E+03  0.16462326661E+04 -0.16890676283E+04  0.24044457881E+04  0.15294330000E+03 0.  0.
<mgrwt>
<rscale>  0 0.17975326E+04</rscale>
<asrwt>0</asrwt>
<pdfrwt beam="1">  1        1 0.40964057E+00 0.18272462E+04</pdfrwt>
<pdfrwt beam="2">  1       -1 0.26352889E+00 0.18272462E+04</pdfrwt>
<totfact> 0.53769216E-02</totfact>
</mgrwt>
</event>
<event>
 4    5  0.7214169E-008  0.7515414E+03  0.7818608E-02  0.9827520E-01
          1   -1    0    0  501    0  0.00000000000E+00  0.00000000000E+00  0.73174032234E+03  0.73174032236E+03  0.50400000000E-02 0. -1.
         -1   -1    0    0    0  501 -0.00000000000E+00 -0.00000000000E+00 -0.76900306349E+03  0.76900306351E+03  0.50400000000E-02 0.  1.
    8880023    1    1    2    0    0 -0.30161084451E+03 -0.20008776512E+03 -0.49314555108E+03  0.89889207144E+03  0.65864270000E+03 0.  1.
    8880022    1    1    2    0    0  0.30161084451E+03  0.20008776512E+03  0.45588280993E+03  0.60185131443E+03  0.15294330000E+03 0.  0.
<mgrwt>
<rscale>  0 0.63906366E+03</rscale>
<asrwt>0</asrwt>
<pdfrwt beam="1">  1        1 0.11257543E+00 0.75154136E+03</pdfrwt>
<pdfrwt beam="2">  1       -1 0.11830816E+00 0.75154136E+03</pdfrwt>
<totfact> 0.16766093E+01</totfact>
</mgrwt>
</event>
<event>
 4    5  0.7214169E-008  0.7702245E+03  0.7818608E-02  0.9779322E-01
         -1   -1    0    0    0  501 -0.00000000000E+00  0.00000000000E+00  0.38445212183E+03  0.38445212187E+03  0.50400000000E-02 0.  1.
          1   -1    0    0  501    0  0.00000000000E+00 -0.00000000000E+00 -0.10581768801E+04  0.10581768801E+04  0.50400000000E-02 0. -1.
    8880023    1    1    2    0    0  0.23794900504E+03 -0.32064906594E+03 -0.18283096099E+03  0.79162675488E+03  0.65864270000E+03 0.  1.
    8880022    1    1    2    0    0 -0.23794900504E+03  0.32064906594E+03 -0.49089379723E+03  0.65100224704E+03  0.15294330000E+03 0.  0.
<mgrwt>
<rscale>  0 0.66484146E+03</rscale>
<asrwt>0</asrwt>
<pdfrwt beam="1">  1        1 0.16279644E+00 0.77022449E+03</pdfrwt>
<pdfrwt beam="2">  1       -1 0.59146481E-01 0.77022449E+03</pdfrwt>
<totfact> 0.40460961E+01</totfact>
</mgrwt>
</event>
<event>
 4    5  0.7214169E-008  0.1175042E+04  0.7818608E-02  0.9181773E-01
         -1   -1    0    0    0  501 -0.00000000000E+00  0.00000000000E+00  0.19449330702E+04  0.19449330702E+04  0.50400000000E-02 0.  1.
          1   -1    0    0  501    0  0.00000000000E+00 -0.00000000000E+00 -0.11461039138E+04  0.11461039139E+04  0.50400000000E-02 0. -1.
    8880023    1    1    2    0    0  0.82558825815E+03  0.51509052850E+03  0.14827144457E+04  0.18918685362E+04  0.65864270000E+03 0.  0.
    8880022    1    1    2    0    0 -0.82558825815E+03 -0.51509052850E+03 -0.68388528927E+03  0.11991684479E+04  0.15294330000E+03 0.  0.
<mgrwt>
<rscale>  0 0.11243557E+04</rscale>
<asrwt>0</asrwt>
<pdfrwt beam="1">  1        1 0.17632368E+00 0.11750423E+04</pdfrwt>
<pdfrwt beam="2">  1       -1 0.29922047E+00 0.11750423E+04</pdfrwt>
<totfact> 0.38652735E-01</totfact>
</mgrwt>
</event>
<event>
 4    5  0.7214169E-008  0.6909703E+03  0.7818608E-02  0.1003695E+00
          1   -1    0    0  501    0  0.00000000000E+00  0.00000000000E+00  0.12909477272E+04  0.12909477272E+04  0.50400000000E-02 0. -1.
         -1   -1    0    0    0  501 -0.00000000000E+00 -0.00000000000E+00 -0.11322787205E+04  0.11322787205E+04  0.50400000000E-02 0.  1.
    8880023    1    1    2    0    0  0.77034989282E+02 -0.19415306779E+03 -0.10113798940E+04  0.12248793000E+04  0.65864270000E+03 0.  1.
    8880022    1    1    2    0    0 -0.77034989282E+02  0.19415306779E+03  0.11700489007E+04  0.11983471477E+04  0.15294330000E+03 0.  0.
<mgrwt>
<rscale>  0 0.54059408E+03</rscale>
<asrwt>0</asrwt>
<pdfrwt beam="1">  1        1 0.19860734E+00 0.69097034E+03</pdfrwt>
<pdfrwt beam="2">  1       -1 0.17419673E+00 0.69097034E+03</pdfrwt>
<totfact> 0.22238109E+00</totfact>
</mgrwt>
</event>
<event>
 4    5  0.7214169E-008  0.1043553E+04  0.7818608E-02  0.9326671E-01
          1   -1    0    0  501    0  0.00000000000E+00  0.00000000000E+00  0.20524129399E+04  0.20524129399E+04  0.50400000000E-02 0. -1.
         -1   -1    0    0    0  501 -0.00000000000E+00 -0.00000000000E+00 -0.85713130750E+03  0.85713130752E+03  0.50400000000E-02 0.  1.
    8880023    1    1    2    0    0  0.15822670273E+03  0.79382474897E+03 -0.39722352495E+03  0.11165975804E+04  0.65864270000E+03 0.  0.
    8880022    1    1    2    0    0 -0.15822670273E+03 -0.79382474897E+03  0.15925051573E+04  0.17929466670E+04  0.15294330000E+03 0.  0.
<mgrwt>
<rscale>  0 0.98364080E+03</rscale>
<asrwt>0</asrwt>
<pdfrwt beam="1">  1        1 0.31575583E+00 0.10435534E+04</pdfrwt>
<pdfrwt beam="2">  1       -1 0.13186636E+00 0.10435534E+04</pdfrwt>
<totfact> 0.13496985E+00</totfact>
</mgrwt>
</event>
<event>
 4    5  0.7214169E-008  0.1444727E+04  0.7818608E-02  0.8949685E-01
          1   -1    0    0  501    0  0.00000000000E+00  0.00000000000E+00  0.38951326631E+04  0.38951326631E+04  0.50400000000E-02 0. -1.
         -1   -1    0    0    0  501 -0.00000000000E+00 -0.00000000000E+00 -0.96582364625E+03  0.96582364627E+03  0.50400000000E-02 0.  1.
    8880023    1    1    2    0    0 -0.71376009424E+03 -0.10695669875E+04 -0.21481745471E+03  0.14606107483E+04  0.65864270000E+03 0.  0.
    8880022    1    1    2    0    0  0.71376009424E+03  0.10695669875E+04  0.31441264716E+04  0.34003455611E+04  0.15294330000E+03 0.  0.
<mgrwt>
<rscale>  0 0.14057244E+04</rscale>
<asrwt>0</asrwt>
<pdfrwt beam="1">  1        1 0.59925118E+00 0.14447274E+04</pdfrwt>
<pdfrwt beam="2">  1       -1 0.14858825E+00 0.14447274E+04</pdfrwt>
<totfact> 0.41046483E-02</totfact>
</mgrwt>
</event>
<event>
 4    5  0.7214169E-008  0.6704022E+03  0.7818608E-02  0.1015376E+00
         -1   -1    0    0    0  501 -0.00000000000E+00  0.00000000000E+00  0.34960683488E+03  0.34960683491E+03  0.50400000000E-02 0.  1.
          1   -1    0    0  501    0  0.00000000000E+00 -0.00000000000E+00 -0.17058492745E+04  0.17058492745E+04  0.50400000000E-02 0. -1.
    8880023    1    1    2    0    0 -0.46612701381E+02  0.11600043188E+03  0.14494581080E+02  0.67055882909E+03  0.65864270000E+03 0.  1.
    8880022    1    1    2    0    0  0.46612701381E+02 -0.11600043188E+03 -0.13707370207E+04  0.13848972804E+04  0.15294330000E+03 0.  0.
<mgrwt>
<rscale>  0 0.49392744E+03</rscale>
<asrwt>0</asrwt>
<pdfrwt beam="1">  1        1 0.26243834E+00 0.67040216E+03</pdfrwt>
<pdfrwt beam="2">  1       -1 0.53785668E-01 0.67040216E+03</pdfrwt>
<totfact> 0.17307869E+01</totfact>
</mgrwt>
</event>
<event>
 4    5  0.7214169E-008  0.8115437E+03  0.7818608E-02  0.9686370E-01
         -1   -1    0    0    0  501 -0.00000000000E+00  0.00000000000E+00  0.40810452104E+03  0.40810452107E+03  0.50400000000E-02 0.  1.
          1   -1    0    0  501    0  0.00000000000E+00 -0.00000000000E+00 -0.20286086026E+04  0.20286086026E+04  0.50400000000E-02 0. -1.
    8880023    1    1    2    0    0 -0.23785641849E+01  0.47411737678E+03 -0.77448688940E+02  0.81523091834E+03  0.65864270000E+03 0.  0.
    8880022    1    1    2    0    0  0.23785641849E+01 -0.47411737678E+03 -0.15430553926E+04  0.16214822054E+04  0.15294330000E+03 0. -1.
<mgrwt>
<rscale>  0 0.71834121E+03</rscale>
<asrwt>0</asrwt>
<pdfrwt beam="1">  1        1 0.31209363E+00 0.81154368E+03</pdfrwt>
<pdfrwt beam="2">  1       -1 0.62785312E-01 0.81154368E+03</pdfrwt>
<totfact> 0.76096852E+00</totfact>
</mgrwt>
</event>
<event>
 4    5  0.7214169E-008  0.1647718E+04  0.7818608E-02  0.8811808E-01
         -1   -1    0    0    0  501 -0.00000000000E+00  0.00000000000E+00  0.25642965300E+04  0.25642965300E+04  0.50400000000E-02 0.  1.
          1   -1    0    0  501    0  0.00000000000E+00 -0.00000000000E+00 -0.25364148412E+04  0.25364148412E+04  0.50400000000E-02 0. -1.
    8880023    1    1    2    0    0 -0.14969096797E+04  0.20105798053E+03  0.20131840198E+04  0.26015155207E+04  0.65864270000E+03 0.  0.
    8880022    1    1    2    0    0  0.14969096797E+04 -0.20105798053E+03 -0.19853023309E+04  0.24991958505E+04  0.15294330000E+03 0.  0.
<mgrwt>
<rscale>  0 0.16143045E+04</rscale>
<asrwt>0</asrwt>
<pdfrwt beam="1">  1        1 0.39021767E+00 0.16477175E+04</pdfrwt>
<pdfrwt beam="2">  1       -1 0.39450716E+00 0.16477175E+04</pdfrwt>
<totfact> 0.92101657E-03</totfact>
</mgrwt>
</event>
<event>
 4    5  0.7214169E-008  0.8720829E+03  0.7818608E-02  0.9572421E-01
          1   -1    0    0  501    0  0.00000000000E+00  0.00000000000E+00  0.10470629614E+04  0.10470629614E+04  0.50400000000E-02 0. -1.
         -1   -1    0    0    0  501 -0.00000000000E+00 -0.00000000000E+00 -0.74257059420E+03  0.74257059422E+03  0.50400000000E-02 0.  1.
    8880023    1    1    2    0    0  0.25008760100E+03  0.51397908192E+03 -0.32037645618E+03  0.92906920343E+03  0.65864270000E+03 0.  0.
    8880022    1    1    2    0    0 -0.25008760100E+03 -0.51397908192E+03  0.62486882338E+03  0.86056435220E+03  0.15294330000E+03 0.  0.
<mgrwt>
<rscale>  0 0.79148715E+03</rscale>
<asrwt>0</asrwt>
<pdfrwt beam="1">  1        1 0.16108661E+00 0.87208286E+03</pdfrwt>
<pdfrwt beam="2">  1       -1 0.11424163E+00 0.87208286E+03</pdfrwt>
<totfact> 0.98658451E+00</totfact>
</mgrwt>
</event>
<event>
 4    5  0.7214169E-008  0.1000695E+04  0.7818608E-02  0.9380649E-01
          1   -1    0    0  501    0  0.00000000000E+00  0.00000000000E+00  0.30142145468E+04  0.30142145468E+04  0.50400000000E-02 0. -1.
         -1   -1    0    0    0  501 -0.00000000000E+00 -0.00000000000E+00 -0.47958999488E+03  0.47958999490E+03  0.50400000000E-02 0.  1.
    8880023    1    1    2    0    0 -0.35589323657E+03  0.66401791624E+03  0.25346696835E+04  0.27250578708E+04  0.65864270000E+03 0.  0.
    8880022    1    1    2    0    0  0.35589323657E+03 -0.66401791624E+03 -0.45131536661E-01  0.76874667087E+03  0.15294330000E+03 0.  0.
<mgrwt>
<rscale>  0 0.93685425E+03</rscale>
<asrwt>0</asrwt>
<pdfrwt beam="1">  1        1 0.46372532E+00 0.10006948E+04</pdfrwt>
<pdfrwt beam="2">  1       -1 0.73783076E-01 0.10006948E+04</pdfrwt>
<totfact> 0.11104265E+00</totfact>
</mgrwt>
</event>
<event>
 4    5  0.7214169E-008  0.1447380E+04  0.7818608E-02  0.8947715E-01
          1   -1    0    0  501    0  0.00000000000E+00  0.00000000000E+00  0.17234878946E+04  0.17234878946E+04  0.50400000000E-02 0. -1.
         -1   -1    0    0    0  501 -0.00000000000E+00 -0.00000000000E+00 -0.11054053044E+04  0.11054053044E+04  0.50400000000E-02 0.  1.
    8880023    1    1    2    0    0  0.11416478647E+04  0.59811336067E+03  0.47410972940E+03  0.15230527506E+04  0.65864270000E+03 0.  1.
    8880022    1    1    2    0    0 -0.11416478647E+04 -0.59811336067E+03  0.14397286076E+03  0.13058404485E+04  0.15294330000E+03 0. -1.
<mgrwt>
<rscale>  0 0.14084634E+04</rscale>
<asrwt>0</asrwt>
<pdfrwt beam="1">  1        1 0.26515198E+00 0.14473803E+04</pdfrwt>
<pdfrwt beam="2">  1       -1 0.17006236E+00 0.14473803E+04</pdfrwt>
<totfact> 0.10768829E+00</totfact>
</mgrwt>
</event>
<event>
 4    5  0.7214169E-008  0.1906759E+04  0.7818608E-02  0.8665672E-01
         -1   -1    0    0    0  501 -0.00000000000E+00  0.00000000000E+00  0.23436356945E+04  0.23436356945E+04  0.50400000000E-02 0.  1.
          1   -1    0    0  501    0  0.00000000000E+00 -0.00000000000E+00 -0.19864872831E+04  0.19864872831E+04  0.50400000000E-02 0. -1.
    8880023    1    1    2    0    0  0.11822108447E+04  0.13432418006E+04  0.12941520883E+04  0.23044654153E+04  0.65864270000E+03 0.  0.
    8880022    1    1    2    0    0 -0.11822108447E+04 -0.13432418006E+04 -0.93700367696E+03  0.20256575623E+04  0.15294330000E+03 0.  0.
<mgrwt>
<rscale>  0 0.18784230E+04</rscale>
<asrwt>0</asrwt>
<pdfrwt beam="1">  1        1 0.30561343E+00 0.19067594E+04</pdfrwt>
<pdfrwt beam="2">  1       -1 0.36055934E+00 0.19067594E+04</pdfrwt>
<totfact> 0.36130575E-02</totfact>
</mgrwt>
</event>
<event>
 4    5  0.7214169E-008  0.9675211E+03  0.7818608E-02  0.9425341E-01
          1   -1    0    0  501    0  0.00000000000E+00  0.00000000000E+00  0.19499352635E+04  0.19499352636E+04  0.50400000000E-02 0. -1.
         -1   -1    0    0    0  501 -0.00000000000E+00 -0.00000000000E+00 -0.45469999853E+03  0.45469999856E+03  0.50400000000E-02 0.  1.
    8880023    1    1    2    0    0  0.63057190151E+03  0.32352113053E+03  0.31136350140E+03  0.10163878596E+04  0.65864270000E+03 0.  0.
    8880022    1    1    2    0    0 -0.63057190151E+03 -0.32352113053E+03  0.11838717636E+04  0.13882474025E+04  0.15294330000E+03 0.  0.
<mgrwt>
<rscale>  0 0.90019243E+03</rscale>
<asrwt>0</asrwt>
<pdfrwt beam="1">  1        1 0.29999004E+00 0.96752109E+03</pdfrwt>
<pdfrwt beam="2">  1       -1 0.69953845E-01 0.96752109E+03</pdfrwt>
<totfact> 0.67568342E+00</totfact>
</mgrwt>
</event>
<event>
 4    5  0.7214169E-008  0.8692856E+03  0.7818608E-02  0.9577255E-01
          1   -1    0    0  501    0  0.00000000000E+00  0.00000000000E+00  0.15670011884E+04  0.15670011884E+04  0.50400000000E-02 0. -1.
         -1   -1    0    0    0  501 -0.00000000000E+00 -0.00000000000E+00 -0.90265242120E+03  0.90265242122E+03  0.50400000000E-02 0.  1.
    8880023    1    1    2    0    0  0.48536711437E+03 -0.29371078741E+03 -0.61297318231E+03  0.10636698693E+04  0.65864270000E+03 0.  1.
    8880022    1    1    2    0    0 -0.48536711437E+03  0.29371078741E+03  0.12773219495E+04  0.14059837403E+04  0.15294330000E+03 0.  0.
<mgrwt>
<rscale>  0 0.78820073E+03</rscale>
<asrwt>0</asrwt>
<pdfrwt beam="1">  1        1 0.24107711E+00 0.86928561E+03</pdfrwt>
<pdfrwt beam="2">  1       -1 0.13886960E+00 0.86928561E+03</pdfrwt>
<totfact> 0.25810360E+00</totfact>
</mgrwt>
</event>
<event>
 4    5  0.7214169E-008  0.9532783E+03  0.7818608E-02  0.9445413E-01
         -1   -1    0    0    0  501 -0.00000000000E+00  0.00000000000E+00  0.72821788550E+03  0.72821788551E+03  0.50400000000E-02 0.  1.
          1   -1    0    0  501    0  0.00000000000E+00 -0.00000000000E+00 -0.16598015755E+04  0.16598015755E+04  0.50400000000E-02 0. -1.
    8880023    1    1    2    0    0 -0.30581394684E+03  0.61758175841E+03  0.27320359977E+03  0.99165508701E+03  0.65864270000E+03 0.  1.
    8880022    1    1    2    0    0  0.30581394684E+03 -0.61758175841E+03 -0.12047872898E+04  0.13963643740E+04  0.15294330000E+03 0.  0.
<mgrwt>
<rscale>  0 0.88430779E+03</rscale>
<asrwt>0</asrwt>
<pdfrwt beam="1">  1        1 0.25535409E+00 0.95327835E+03</pdfrwt>
<pdfrwt beam="2">  1       -1 0.11203352E+00 0.95327835E+03</pdfrwt>
<totfact> 0.37593389E+00</totfact>
</mgrwt>
</event>
<event>
 4    5  0.7214169E-008  0.1291009E+04  0.7818608E-02  0.9073363E-01
         -1   -1    0    0    0  501 -0.00000000000E+00  0.00000000000E+00  0.33072057630E+04  0.33072057630E+04  0.50400000000E-02 0.  1.
          1   -1    0    0  501    0  0.00000000000E+00 -0.00000000000E+00 -0.13541589717E+04  0.13541589717E+04  0.50400000000E-02 0. -1.
    8880023    1    1    2    0    0 -0.96382182416E+03 -0.55130846061E+03  0.29125948448E+04  0.31858927263E+04  0.65864270000E+03 0.  1.
    8880022    1    1    2    0    0  0.96382182416E+03  0.55130846061E+03 -0.95954805347E+03  0.14754720083E+04  0.15294330000E+03 0.  0.
<mgrwt>
<rscale>  0 0.12461862E+04</rscale>
<asrwt>0</asrwt>
<pdfrwt beam="1">  1        1 0.20833215E+00 0.12910088E+04</pdfrwt>
<pdfrwt beam="2">  1       -1 0.50880088E+00 0.12910088E+04</pdfrwt>
<totfact> 0.10471040E-02</totfact>
</mgrwt>
</event>
<event>
 4    5  0.7214169E-008  0.6625444E+03  0.7818608E-02  0.1021689E+00
          1   -1    0    0  501    0  0.00000000000E+00  0.00000000000E+00  0.30841225194E+04  0.30841225194E+04  0.50400000000E-02 0. -1.
         -1   -1    0    0    0  501 -0.00000000000E+00 -0.00000000000E+00 -0.79804835162E+02  0.79804835321E+02  0.50400000000E-02 0.  1.
    8880023    1    1    2    0    0 -0.55637352534E+02 -0.45380489918E+02  0.13795633381E+04  0.15304117465E+04  0.65864270000E+03 0.  1.
    8880022    1    1    2    0    0  0.55637352534E+02  0.45380489918E+02  0.16247543462E+04  0.16335156082E+04  0.15294330000E+03 0.  0.
<mgrwt>
<rscale>  0 0.47082061E+03</rscale>
<asrwt>0</asrwt>
<pdfrwt beam="1">  1        1 0.47448049E+00 0.66254442E+03</pdfrwt>
<pdfrwt beam="2">  1       -1 0.12277664E-01 0.66254442E+03</pdfrwt>
<totfact> 0.25351012E+01</totfact>
</mgrwt>
</event>
<event>
 4    5  0.7214169E-008  0.1145536E+04  0.7818608E-02  0.9211974E-01
          1   -1    0    0  501    0  0.00000000000E+00  0.00000000000E+00  0.21542216563E+04  0.21542216564E+04  0.50400000000E-02 0. -1.
         -1   -1    0    0    0  501 -0.00000000000E+00 -0.00000000000E+00 -0.57476714286E+03  0.57476714288E+03  0.50400000000E-02 0.  1.
    8880023    1    1    2    0    0  0.72597114183E+03 -0.59279765210E+03  0.39694722381E+03  0.12123615219E+04  0.65864270000E+03 0.  0.
    8880022    1    1    2    0    0 -0.72597114183E+03  0.59279765210E+03  0.11825072897E+04  0.15166272773E+04  0.15294330000E+03 0.  0.
<mgrwt>
<rscale>  0 0.10930688E+04</rscale>
<asrwt>0</asrwt>
<pdfrwt beam="1">  1        1 0.33141872E+00 0.11455363E+04</pdfrwt>
<pdfrwt beam="2">  1       -1 0.88425714E-01 0.11455363E+04</pdfrwt>
<totfact> 0.29238231E+00</totfact>
</mgrwt>
</event>
<event>
 4    5  0.7214169E-008  0.7599748E+03  0.7818608E-02  0.9805173E-01
          1   -1    0    0  501    0  0.00000000000E+00  0.00000000000E+00  0.86093582561E+03  0.86093582562E+03  0.50400000000E-02 0. -1.
         -1   -1    0    0    0  501 -0.00000000000E+00 -0.00000000000E+00 -0.18279148722E+04  0.18279148722E+04  0.50400000000E-02 0.  1.
    8880023    1    1    2    0    0 -0.23748499613E+03  0.29555438171E+03 -0.16929347212E+04  0.18556911630E+04  0.65864270000E+03 0.  1.
    8880022    1    1    2    0    0  0.23748499613E+03 -0.29555438171E+03  0.72595567462E+03  0.83315953482E+03  0.15294330000E+03 0.  0.
<mgrwt>
<rscale>  0 0.65085685E+03</rscale>
<asrwt>0</asrwt>
<pdfrwt beam="1">  1        1 0.13245167E+00 0.75997482E+03</pdfrwt>
<pdfrwt beam="2">  1       -1 0.28121767E+00 0.75997482E+03</pdfrwt>
<totfact> 0.90270294E-01</totfact>
</mgrwt>
</event>
<event>
 4    5  0.7214169E-008  0.8177701E+03  0.7818608E-02  0.9673614E-01
          1   -1    0    0  501    0  0.00000000000E+00  0.00000000000E+00  0.86505447630E+03  0.86505447632E+03  0.50400000000E-02 0. -1.
         -1   -1    0    0    0  501 -0.00000000000E+00 -0.00000000000E+00 -0.56923332925E+03  0.56923332927E+03  0.50400000000E-02 0.  1.
    8880023    1    1    2    0    0  0.20380543402E+03 -0.43977383351E+03 -0.50380336928E+02  0.81932048930E+03  0.65864270000E+03 0.  0.
    8880022    1    1    2    0    0 -0.20380543402E+03  0.43977383351E+03  0.34620148398E+03  0.61496731629E+03  0.15294330000E+03 0.  0.
<mgrwt>
<rscale>  0 0.72609780E+03</rscale>
<asrwt>0</asrwt>
<pdfrwt beam="1">  1        1 0.13308530E+00 0.81777007E+03</pdfrwt>
<pdfrwt beam="2">  1       -1 0.87574358E-01 0.81777007E+03</pdfrwt>
<totfact> 0.25438215E+01</totfact>
</mgrwt>
</event>
<event>
 4    5  0.7214169E-008  0.1285385E+04  0.7818608E-02  0.9078285E-01
          1   -1    0    0  501    0  0.00000000000E+00  0.00000000000E+00  0.28934685800E+04  0.28934685800E+04  0.50400000000E-02 0. -1.
         -1   -1    0    0    0  501 -0.00000000000E+00 -0.00000000000E+00 -0.59800442987E+03  0.59800442989E+03  0.50400000000E-02 0.  1.
    8880023    1    1    2    0    0 -0.11032021404E+04  0.36731728864E+02  0.50186022807E+03  0.13798833564E+04  0.65864270000E+03 0.  0.
    8880022    1    1    2    0    0  0.11032021404E+04 -0.36731728864E+02  0.17936039221E+04  0.21115896535E+04  0.15294330000E+03 0.  0.
<mgrwt>
<rscale>  0 0.12403127E+04</rscale>
<asrwt>0</asrwt>
<pdfrwt beam="1">  1        1 0.44514901E+00 0.12853849E+04</pdfrwt>
<pdfrwt beam="2">  1       -1 0.92000682E-01 0.12853849E+04</pdfrwt>
<totfact> 0.80864483E-01</totfact>
</mgrwt>
</event>
<event>
 4    5  0.7214169E-008  0.1290901E+04  0.7818608E-02  0.9073458E-01
         -1   -1    0    0    0  501 -0.00000000000E+00  0.00000000000E+00  0.84024716966E+03  0.84024716967E+03  0.50400000000E-02 0.  1.
          1   -1    0    0  501    0  0.00000000000E+00 -0.00000000000E+00 -0.23148660657E+04  0.23148660657E+04  0.50400000000E-02 0. -1.
    8880023    1    1    2    0    0 -0.82559199711E+03 -0.74230189975E+03  0.14997792698E+02  0.12909877599E+04  0.65864270000E+03 0.  0.
    8880022    1    1    2    0    0  0.82559199711E+03  0.74230189975E+03 -0.14896166887E+04  0.18641254755E+04  0.15294330000E+03 0.  0.
<mgrwt>
<rscale>  0 0.12460732E+04</rscale>
<asrwt>0</asrwt>
<pdfrwt beam="1">  1        1 0.35613324E+00 0.12909006E+04</pdfrwt>
<pdfrwt beam="2">  1       -1 0.12926880E+00 0.12909006E+04</pdfrwt>
<totfact> 0.91176605E-01</totfact>
</mgrwt>
</event>
<event>
 4    5  0.7214169E-008  0.8083701E+03  0.7818608E-02  0.9692982E-01
         -1   -1    0    0    0  501 -0.00000000000E+00  0.00000000000E+00  0.96072448274E+03  0.96072448276E+03  0.50400000000E-02 0.  1.
          1   -1    0    0  501    0  0.00000000000E+00 -0.00000000000E+00 -0.44550070556E+03  0.44550070559E+03  0.50400000000E-02 0. -1.
    8880023    1    1    2    0    0  0.19773396178E+03  0.42491570672E+03  0.24850403230E+03  0.84570475805E+03  0.65864270000E+03 0.  0.
    8880022    1    1    2    0    0 -0.19773396178E+03 -0.42491570672E+03  0.26671974488E+03  0.56052043030E+03  0.15294330000E+03 0. -1.
<mgrwt>
<rscale>  0 0.71436184E+03</rscale>
<asrwt>0</asrwt>
<pdfrwt beam="1">  1        1 0.68538571E-01 0.80837014E+03</pdfrwt>
<pdfrwt beam="2">  1       -1 0.14780376E+00 0.80837014E+03</pdfrwt>
<totfact> 0.19221117E+01</totfact>
</mgrwt>
</event>
<event>
 4    5  0.7214169E-008  0.1023917E+04  0.7818608E-02  0.9350914E-01
          1   -1    0    0  501    0  0.00000000000E+00  0.00000000000E+00  0.77471206009E+03  0.77471206010E+03  0.50400000000E-02 0. -1.
         -1   -1    0    0    0  501 -0.00000000000E+00 -0.00000000000E+00 -0.18237895116E+04  0.18237895116E+04  0.50400000000E-02 0.  1.
    8880023    1    1    2    0    0  0.66884983566E+03 -0.40894515577E+03 -0.13930272241E+04  0.17288525953E+04  0.65864270000E+03 0.  0.
    8880022    1    1    2    0    0 -0.66884983566E+03  0.40894515577E+03  0.34394977255E+03  0.86964897639E+03  0.15294330000E+03 0.  0.
<mgrwt>
<rscale>  0 0.96227718E+03</rscale>
<asrwt>0</asrwt>
<pdfrwt beam="1">  1        1 0.11918647E+00 0.10239172E+04</pdfrwt>
<pdfrwt beam="2">  1       -1 0.28058300E+00 0.10239172E+04</pdfrwt>
<totfact> 0.10351070E+00</totfact>
</mgrwt>
</event>
<event>
 4    5  0.7214169E-008  0.1135360E+04  0.7818608E-02  0.9222673E-01
         -1   -1    0    0    0  501 -0.00000000000E+00  0.00000000000E+00  0.80871004892E+03  0.80871004893E+03  0.50400000000E-02 0.  1.
          1   -1    0    0  501    0  0.00000000000E+00 -0.00000000000E+00 -0.30993379913E+04  0.30993379913E+04  0.50400000000E-02 0. -1.
    8880023    1    1    2    0    0  0.49427221039E+03 -0.78161755789E+03  0.28210105067E+03  0.11698812905E+04  0.65864270000E+03 0.  1.
    8880022    1    1    2    0    0 -0.49427221039E+03  0.78161755789E+03 -0.25727289931E+04  0.27381667498E+04  0.15294330000E+03 0.  0.
<mgrwt>
<rscale>  0 0.10822444E+04</rscale>
<asrwt>0</asrwt>
<pdfrwt beam="1">  1        1 0.47682122E+00 0.11353595E+04</pdfrwt>
<pdfrwt beam="2">  1       -1 0.12441693E+00 0.11353595E+04</pdfrwt>
<totfact> 0.28774948E-01</totfact>
</mgrwt>
</event>
<event>
 4    5  0.7214169E-008  0.1087587E+04  0.7818608E-02  0.9275004E-01
         -1   -1    0    0    0  501 -0.00000000000E+00  0.00000000000E+00  0.11742544895E+04  0.11742544895E+04  0.50400000000E-02 0.  1.
          1   -1    0    0  501    0  0.00000000000E+00 -0.00000000000E+00 -0.13950195573E+04  0.13950195573E+04  0.50400000000E-02 0. -1.
    8880023    1    1    2    0    0 -0.58335357275E+03 -0.63932281833E+03  0.70237369070E+03  0.12946714118E+04  0.65864270000E+03 0.  1.
    8880022    1    1    2    0    0  0.58335357275E+03  0.63932281833E+03 -0.92313875851E+03  0.12746026351E+04  0.15294330000E+03 0.  0.
<mgrwt>
<rscale>  0 0.10311697E+04</rscale>
<asrwt>0</asrwt>
<pdfrwt beam="1">  1        1 0.21461839E+00 0.10875869E+04</pdfrwt>
<pdfrwt beam="2">  1       -1 0.18065454E+00 0.10875869E+04</pdfrwt>
<totfact> 0.15842890E+00</totfact>
</mgrwt>
</event>
<event>
 4    5  0.7214169E-008  0.7879984E+03  0.7818608E-02  0.9737373E-01
         -1   -1    0    0    0  501 -0.00000000000E+00  0.00000000000E+00  0.43006788423E+03  0.43006788426E+03  0.50400000000E-02 0.  1.
          1   -1    0    0  501    0  0.00000000000E+00 -0.00000000000E+00 -0.22394788669E+04  0.22394788669E+04  0.50400000000E-02 0. -1.
    8880023    1    1    2    0    0  0.42312999129E+03  0.89957544069E+02  0.15185001324E+02  0.78814474546E+03  0.65864270000E+03 0.  1.
    8880022    1    1    2    0    0 -0.42312999129E+03 -0.89957544069E+02 -0.18245959840E+04  0.18814020057E+04  0.15294330000E+03 0.  0.
<mgrwt>
<rscale>  0 0.68834548E+03</rscale>
<asrwt>0</asrwt>
<pdfrwt beam="1">  1        1 0.34453521E+00 0.78799845E+03</pdfrwt>
<pdfrwt beam="2">  1       -1 0.66164291E-01 0.78799845E+03</pdfrwt>
<totfact> 0.49633659E+00</totfact>
</mgrwt>
</event>
<event>
 4    5  0.7214169E-008  0.6877450E+03  0.7818608E-02  0.1005243E+00
          1   -1    0    0  501    0  0.00000000000E+00  0.00000000000E+00  0.65190715873E+03  0.65190715875E+03  0.50400000000E-02 0. -1.
         -1   -1    0    0    0  501 -0.00000000000E+00 -0.00000000000E+00 -0.33763088193E+03  0.33763088197E+03  0.50400000000E-02 0.  1.
    8880023    1    1    2    0    0  0.71731797432E+02  0.18449274547E+03  0.24333501291E+03  0.72952392604E+03  0.65864270000E+03 0. -1.
    8880022    1    1    2    0    0 -0.71731797432E+02 -0.18449274547E+03  0.70941263890E+02  0.26001411468E+03  0.15294330000E+03 0.  1.
<mgrwt>
<rscale>  0 0.53409735E+03</rscale>
<asrwt>0</asrwt>
<pdfrwt beam="1">  1        1 0.10029341E+00 0.68774503E+03</pdfrwt>
<pdfrwt beam="2">  1       -1 0.51943213E-01 0.68774503E+03</pdfrwt>
<totfact> 0.11561298E+02</totfact>
</mgrwt>
</event>
<event>
 4    5  0.7214169E-008  0.1106203E+04  0.7818608E-02  0.9254182E-01
         -1   -1    0    0    0  501 -0.00000000000E+00  0.00000000000E+00  0.53366807826E+03  0.53366807829E+03  0.50400000000E-02 0.  1.
          1   -1    0    0  501    0  0.00000000000E+00 -0.00000000000E+00 -0.39526598947E+04  0.39526598947E+04  0.50400000000E-02 0. -1.
    8880023    1    1    2    0    0 -0.87258778879E+03 -0.16871422688E+03 -0.34095028845E+04  0.35844656596E+04  0.65864270000E+03 0.  0.
    8880022    1    1    2    0    0  0.87258778879E+03  0.16871422688E+03 -0.94889320064E+01  0.90186231341E+03  0.15294330000E+03 0.  0.
<mgrwt>
<rscale>  0 0.10511267E+04</rscale>
<asrwt>0</asrwt>
<pdfrwt beam="1">  1        1 0.60810150E+00 0.11062026E+04</pdfrwt>
<pdfrwt beam="2">  1       -1 0.82102784E-01 0.11062026E+04</pdfrwt>
<totfact> 0.16075119E-01</totfact>
</mgrwt>
</event>
<event>
 4    5  0.7214169E-008  0.8308096E+03  0.7818608E-02  0.9647759E-01
          1   -1    0    0  501    0  0.00000000000E+00  0.00000000000E+00  0.76198547807E+03  0.76198547809E+03  0.50400000000E-02 0. -1.
         -1   -1    0    0    0  501 -0.00000000000E+00 -0.00000000000E+00 -0.74479168574E+03  0.74479168576E+03  0.50400000000E-02 0.  1.
    8880023    1    1    2    0    0 -0.27663441247E+03  0.42415546670E+03 -0.30773023088E+03  0.88596984111E+03  0.65864270000E+03 0.  0.
    8880022    1    1    2    0    0  0.27663441247E+03 -0.42415546670E+03  0.32492402321E+03  0.62080732274E+03  0.15294330000E+03 0.  0.
<mgrwt>
<rscale>  0 0.74214228E+03</rscale>
<asrwt>0</asrwt>
<pdfrwt beam="1">  1        1 0.11722853E+00 0.83080964E+03</pdfrwt>
<pdfrwt beam="2">  1       -1 0.11458334E+00 0.83080964E+03</pdfrwt>
<totfact> 0.16853561E+01</totfact>
</mgrwt>
</event>
<event>
 4    5  0.7214169E-008  0.9894713E+03  0.7818608E-02  0.9395464E-01
          1   -1    0    0  501    0  0.00000000000E+00  0.00000000000E+00  0.78026060873E+03  0.78026060875E+03  0.50400000000E-02 0. -1.
         -1   -1    0    0    0  501 -0.00000000000E+00 -0.00000000000E+00 -0.22498504391E+04  0.22498504391E+04  0.50400000000E-02 0.  1.
    8880023    1    1    2    0    0 -0.72497798877E+03 -0.14017909265E+03 -0.19141325628E+04  0.21547521751E+04  0.65864270000E+03 0.  0.
    8880022    1    1    2    0    0  0.72497798877E+03  0.14017909265E+03  0.44454273234E+03  0.87535887275E+03  0.15294330000E+03 0.  0.
<mgrwt>
<rscale>  0 0.92449932E+03</rscale>
<asrwt>0</asrwt>
<pdfrwt beam="1">  1        1 0.12004009E+00 0.98947131E+03</pdfrwt>
<pdfrwt beam="2">  1       -1 0.34613083E+00 0.98947131E+03</pdfrwt>
<totfact> 0.38748876E-01</totfact>
</mgrwt>
</event>
<event>
 4    5  0.7214169E-008  0.9424830E+03  0.7818608E-02  0.9461013E-01
          1   -1    0    0  501    0  0.00000000000E+00  0.00000000000E+00  0.94311299381E+03  0.94311299383E+03  0.50400000000E-02 0. -1.
         -1   -1    0    0    0  501 -0.00000000000E+00 -0.00000000000E+00 -0.11948253471E+04  0.11948253471E+04  0.50400000000E-02 0.  1.
    8880023    1    1    2    0    0  0.26546534261E+02  0.67361652450E+03 -0.81518202983E+03  0.12461123098E+04  0.65864270000E+03 0.  1.
    8880022    1    1    2    0    0 -0.26546534261E+02 -0.67361652450E+03  0.56346967651E+03  0.89182603120E+03  0.15294330000E+03 0.  0.
<mgrwt>
<rscale>  0 0.87220228E+03</rscale>
<asrwt>0</asrwt>
<pdfrwt beam="1">  1        1 0.14509431E+00 0.94248297E+03</pdfrwt>
<pdfrwt beam="2">  1       -1 0.18381928E+00 0.94248297E+03</pdfrwt>
<totfact> 0.33152780E+00</totfact>
</mgrwt>
</event>
<event>
 4    5  0.1064848E-007  0.1159036E+04  0.7818608E-02  0.9198009E-01
          1   -1    0    0  501    0  0.00000000000E+00  0.00000000000E+00  0.16721141021E+04  0.16721141021E+04  0.50400000000E-02 0. -1.
         -1   -1    0    0    0  501 -0.00000000000E+00 -0.00000000000E+00 -0.17094817526E+04  0.17094817526E+04  0.50400000000E-02 0.  1.
    8880023    1    1    2    0    0  0.68447308035E+03 -0.66411604224E+03 -0.13324377484E+04  0.17659994549E+04  0.65864270000E+03 0.  1.
    8880022    1    1    2    0    0 -0.68447308035E+03  0.66411604224E+03  0.12950700979E+04  0.16155963997E+04  0.15294330000E+03 0.  0.
<mgrwt>
<rscale>  0 0.11074003E+04</rscale>
<asrwt>0</asrwt>
<pdfrwt beam="1">  1        1 0.25724832E+00 0.11590357E+04</pdfrwt>
<pdfrwt beam="2">  1       -1 0.26299719E+00 0.11590357E+04</pdfrwt>
<totfact> 0.28228144E-01</totfact>
</mgrwt>
</event>
<event>
 4    5  0.7214169E-008  0.1555429E+04  0.7818608E-02  0.8871455E-01
          1   -1    0    0  501    0  0.00000000000E+00  0.00000000000E+00  0.18253743761E+04  0.18253743761E+04  0.50400000000E-02 0. -1.
         -1   -1    0    0    0  501 -0.00000000000E+00 -0.00000000000E+00 -0.21236253216E+04  0.21236253216E+04  0.50400000000E-02 0.  1.
    8880023    1    1    2    0    0  0.13125556017E+04  0.51258980451E+03 -0.14471079738E+04  0.21244957542E+04  0.65864270000E+03 0.  0.
    8880022    1    1    2    0    0 -0.13125556017E+04 -0.51258980451E+03  0.11488570284E+04  0.18245039435E+04  0.15294330000E+03 0.  0.
<mgrwt>
<rscale>  0 0.15197028E+04</rscale>
<asrwt>0</asrwt>
<pdfrwt beam="1">  1        1 0.28082683E+00 0.15554294E+04</pdfrwt>
<pdfrwt beam="2">  1       -1 0.32671159E+00 0.15554294E+04</pdfrwt>
<totfact> 0.81206965E-02</totfact>
</mgrwt>
</event>
<event>
 4    5  0.7214169E-008  0.1202012E+04  0.7818608E-02  0.9155169E-01
          1   -1    0    0  501    0  0.00000000000E+00  0.00000000000E+00  0.13787459657E+04  0.13787459657E+04  0.50400000000E-02 0. -1.
         -1   -1    0    0    0  501 -0.00000000000E+00 -0.00000000000E+00 -0.11494096293E+04  0.11494096293E+04  0.50400000000E-02 0.  1.
    8880023    1    1    2    0    0 -0.99793652616E+03  0.12306885415E+03 -0.47345902387E+03  0.12918966316E+04  0.65864270000E+03 0.  0.
    8880022    1    1    2    0    0  0.99793652616E+03 -0.12306885415E+03  0.70279536028E+03  0.12362589634E+04  0.15294330000E+03 0.  0.
<mgrwt>
<rscale>  0 0.11528386E+04</rscale>
<asrwt>0</asrwt>
<pdfrwt beam="1">  1        1 0.21211476E+00 0.12020123E+04</pdfrwt>
<pdfrwt beam="2">  1       -1 0.17683225E+00 0.12020123E+04</pdfrwt>
<totfact> 0.17093202E+00</totfact>
</mgrwt>
</event>
<event>
 4    5  0.1053996E-007  0.9387208E+03  0.7818608E-02  0.9466532E-01
         -1   -1    0    0    0  501 -0.00000000000E+00  0.00000000000E+00  0.10150974959E+04  0.10150974959E+04  0.50400000000E-02 0.  1.
          1   -1    0    0  501    0  0.00000000000E+00 -0.00000000000E+00 -0.26303726453E+04  0.26303726453E+04  0.50400000000E-02 0. -1.
    8880023    1    1    2    0    0  0.62010259684E+03 -0.25071764126E+03  0.73807797734E+03  0.11941339427E+04  0.65864270000E+03 0.  1.
    8880022    1    1    2    0    0 -0.62010259684E+03  0.25071764126E+03 -0.23533531267E+04  0.24513361985E+04  0.15294330000E+03 0.  0.
<mgrwt>
<rscale>  0 0.86796933E+03</rscale>
<asrwt>0</asrwt>
<pdfrwt beam="1">  1        1 0.40467271E+00 0.93872082E+03</pdfrwt>
<pdfrwt beam="2">  1       -1 0.15616885E+00 0.93872082E+03</pdfrwt>
<totfact> 0.35465656E-01</totfact>
</mgrwt>
</event>
<event>
 4    5  0.7214169E-008  0.8492239E+03  0.7818608E-02  0.9613027E-01
          1   -1    0    0  501    0  0.00000000000E+00  0.00000000000E+00  0.33180151935E+04  0.33180151935E+04  0.50400000000E-02 0. -1.
         -1   -1    0    0    0  501 -0.00000000000E+00 -0.00000000000E+00 -0.13328464503E+04  0.13328464503E+04  0.50400000000E-02 0.  1.
    8880023    1    1    2    0    0  0.53210477432E+03  0.65081502843E+02 -0.11706205751E+04  0.14462136184E+04  0.65864270000E+03 0.  1.
    8880022    1    1    2    0    0 -0.53210477432E+03 -0.65081502843E+02  0.31557893183E+04  0.32046480255E+04  0.15294330000E+03 0.  0.
<mgrwt>
<rscale>  0 0.76439932E+03</rscale>
<asrwt>0</asrwt>
<pdfrwt beam="1">  1        1 0.51046387E+00 0.84922394E+03</pdfrwt>
<pdfrwt beam="2">  1       -1 0.20505330E+00 0.84922394E+03</pdfrwt>
<totfact> 0.51692671E-02</totfact>
</mgrwt>
</event>
<event>
 4    5  0.7214169E-008  0.8140300E+03  0.7818608E-02  0.9681243E-01
          1   -1    0    0  501    0  0.00000000000E+00  0.00000000000E+00  0.91733979670E+03  0.91733979671E+03  0.50400000000E-02 0. -1.
         -1   -1    0    0    0  501 -0.00000000000E+00 -0.00000000000E+00 -0.18993790390E+04  0.18993790390E+04  0.50400000000E-02 0.  1.
    8880023    1    1    2    0    0 -0.45424303743E+03  0.14999272590E+03 -0.17322141918E+04  0.19139516106E+04  0.65864270000E+03 0.  0.
    8880022    1    1    2    0    0  0.45424303743E+03 -0.14999272590E+03  0.75017494955E+03  0.90276722516E+03  0.15294330000E+03 0.  0.
<mgrwt>
<rscale>  0 0.72144639E+03</rscale>
<asrwt>0</asrwt>
<pdfrwt beam="1">  1        1 0.14112920E+00 0.81402995E+03</pdfrwt>
<pdfrwt beam="2">  1       -1 0.29221216E+00 0.81402995E+03</pdfrwt>
<totfact> 0.68306222E-01</totfact>
</mgrwt>
</event>
<event>
 4    5  0.7214169E-008  0.1434338E+04  0.7818608E-02  0.8957451E-01
         -1   -1    0    0    0  501 -0.00000000000E+00  0.00000000000E+00  0.17788721082E+04  0.17788721082E+04  0.50400000000E-02 0.  1.
          1   -1    0    0  501    0  0.00000000000E+00 -0.00000000000E+00 -0.13444878635E+04  0.13444878635E+04  0.50400000000E-02 0. -1.
    8880023    1    1    2    0    0  0.12506769084E+04  0.24356007573E+03  0.97128325479E+03  0.17322573732E+04  0.65864270000E+03 0.  0.
    8880022    1    1    2    0    0 -0.12506769084E+04 -0.24356007573E+03 -0.53689901002E+03  0.13911025985E+04  0.15294330000E+03 0.  0.
<mgrwt>
<rscale>  0 0.13949934E+04</rscale>
<asrwt>0</asrwt>
<pdfrwt beam="1">  1        1 0.20684429E+00 0.14343376E+04</pdfrwt>
<pdfrwt beam="2">  1       -1 0.27367263E+00 0.14343376E+04</pdfrwt>
<totfact> 0.39233802E-01</totfact>
</mgrwt>
</event>
<event>
 4    5  0.7214169E-008  0.9305896E+03  0.7818608E-02  0.9478609E-01
          1   -1    0    0  501    0  0.00000000000E+00  0.00000000000E+00  0.16235833162E+04  0.16235833162E+04  0.50400000000E-02 0. -1.
         -1   -1    0    0    0  501 -0.00000000000E+00 -0.00000000000E+00 -0.78548343201E+03  0.78548343202E+03  0.50400000000E-02 0.  1.
    8880023    1    1    2    0    0 -0.28751103062E+03 -0.59120570968E+03 -0.38896984311E+03  0.10086101968E+04  0.65864270000E+03 0.  0.
    8880022    1    1    2    0    0  0.28751103062E+03  0.59120570968E+03  0.12270697273E+04  0.14004565515E+04  0.15294330000E+03 0.  0.
<mgrwt>
<rscale>  0 0.85879407E+03</rscale>
<asrwt>0</asrwt>
<pdfrwt beam="1">  1        1 0.24978205E+00 0.93058959E+03</pdfrwt>
<pdfrwt beam="2">  1       -1 0.12084360E+00 0.93058959E+03</pdfrwt>
<totfact> 0.33242068E+00</totfact>
</mgrwt>
</event>
<event>
 4    5  0.7214169E-008  0.7982404E+03  0.7818608E-02  0.9714614E-01
          1   -1    0    0  501    0  0.00000000000E+00  0.00000000000E+00  0.94041282345E+03  0.94041282347E+03  0.50400000000E-02 0. -1.
         -1   -1    0    0    0  501 -0.00000000000E+00 -0.00000000000E+00 -0.21875518772E+04  0.21875518772E+04  0.50400000000E-02 0.  1.
    8880023    1    1    2    0    0 -0.39936301040E+03  0.20949169195E+03 -0.20469698449E+04  0.21971056723E+04  0.65864270000E+03 0.  0.
    8880022    1    1    2    0    0  0.39936301040E+03 -0.20949169195E+03  0.79983079119E+03  0.93085902833E+03  0.15294330000E+03 0.  0.
<mgrwt>
<rscale>  0 0.70153333E+03</rscale>
<asrwt>0</asrwt>
<pdfrwt beam="1">  1        1 0.14467890E+00 0.79824043E+03</pdfrwt>
<pdfrwt beam="2">  1       -1 0.33654644E+00 0.79824043E+03</pdfrwt>
<totfact> 0.34036631E-01</totfact>
</mgrwt>
</event>
<event>
 4    5  0.7214169E-008  0.6813111E+03  0.7818608E-02  0.1008592E+00
          1   -1    0    0  501    0  0.00000000000E+00  0.00000000000E+00  0.12298424088E+04  0.12298424088E+04  0.50400000000E-02 0. -1.
         -1   -1    0    0    0  501 -0.00000000000E+00 -0.00000000000E+00 -0.17587259215E+03  0.17587259222E+03  0.50400000000E-02 0.  1.
    8880023    1    1    2    0    0 -0.16316903481E+03 -0.61241331235E+02  0.65997927435E+03  0.94855547197E+03  0.65864270000E+03 0.  1.
    8880022    1    1    2    0    0  0.16316903481E+03  0.61241331235E+02  0.39399054228E+03  0.45715952904E+03  0.15294330000E+03 0.  1.
<mgrwt>
<rscale>  0 0.52038272E+03</rscale>
<asrwt>0</asrwt>
<pdfrwt beam="1">  1        1 0.18920653E+00 0.68131112E+03</pdfrwt>
<pdfrwt beam="2">  1       -1 0.27057322E-01 0.68131112E+03</pdfrwt>
<totfact> 0.12719959E+02</totfact>
</mgrwt>
</event>
<event>
 4    5  0.7214169E-008  0.1560893E+04  0.7818608E-02  0.8867792E-01
          1   -1    0    0  501    0  0.00000000000E+00  0.00000000000E+00  0.26488730295E+04  0.26488730295E+04  0.50400000000E-02 0. -1.
         -1   -1    0    0    0  501 -0.00000000000E+00 -0.00000000000E+00 -0.20178780897E+04  0.20178780897E+04  0.50400000000E-02 0.  1.
    8880023    1    1    2    0    0 -0.72822464104E+03  0.12133700740E+04 -0.14599958092E+04  0.21372823944E+04  0.65864270000E+03 0.  0.
    8880022    1    1    2    0    0  0.72822464104E+03 -0.12133700740E+04  0.20909907490E+04  0.25294687248E+04  0.15294330000E+03 0.  0.
<mgrwt>
<rscale>  0 0.15253133E+04</rscale>
<asrwt>0</asrwt>
<pdfrwt beam="1">  1        1 0.40751893E+00 0.15608934E+04</pdfrwt>
<pdfrwt beam="2">  1       -1 0.31044278E+00 0.15608934E+04</pdfrwt>
<totfact> 0.28184039E-02</totfact>
</mgrwt>
</event>
<event>
 4    5  0.7214169E-008  0.9744986E+03  0.7818608E-02  0.9415709E-01
         -1   -1    0    0    0  501 -0.00000000000E+00  0.00000000000E+00  0.20038094468E+04  0.20038094468E+04  0.50400000000E-02 0.  1.
          1   -1    0    0  501    0  0.00000000000E+00 -0.00000000000E+00 -0.59247267116E+03  0.59247267118E+03  0.50400000000E-02 0. -1.
    8880023    1    1    2    0    0 -0.40845732652E+03  0.59076221885E+03  0.15673227874E+04  0.18455753339E+04  0.65864270000E+03 0.  1.
    8880022    1    1    2    0    0  0.40845732652E+03 -0.59076221885E+03 -0.15598601178E+03  0.75070678410E+03  0.15294330000E+03 0.  0.
<mgrwt>
<rscale>  0 0.90794091E+03</rscale>
<asrwt>0</asrwt>
<pdfrwt beam="1">  1        1 0.91149642E-01 0.97449864E+03</pdfrwt>
<pdfrwt beam="2">  1       -1 0.30827837E+00 0.97449864E+03</pdfrwt>
<totfact> 0.10369666E+00</totfact>
</mgrwt>
</event>
<event>
 4    5  0.7214169E-008  0.7203261E+03  0.7818608E-02  0.9921484E-01
          1   -1    0    0  501    0  0.00000000000E+00  0.00000000000E+00  0.23481102940E+04  0.23481102940E+04  0.50400000000E-02 0. -1.
         -1   -1    0    0    0  501 -0.00000000000E+00 -0.00000000000E+00 -0.17340398042E+03  0.17340398049E+03  0.50400000000E-02 0.  1.
    8880023    1    1    2    0    0  0.11704351410E+03 -0.26713361349E+03  0.67873033982E+03  0.98971947142E+03  0.65864270000E+03 0.  1.
    8880022    1    1    2    0    0 -0.11704351410E+03  0.26713361349E+03  0.14959759738E+04  0.15317948031E+04  0.15294330000E+03 0.  0.
<mgrwt>
<rscale>  0 0.59231289E+03</rscale>
<asrwt>0</asrwt>
<pdfrwt beam="1">  1        1 0.36124774E+00 0.72032615E+03</pdfrwt>
<pdfrwt beam="2">  1       -1 0.26677535E-01 0.72032615E+03</pdfrwt>
<totfact> 0.22656126E+01</totfact>
</mgrwt>
</event>
<event>
 4    5  0.7214169E-008  0.1250244E+04  0.7818608E-02  0.9109765E-01
          1   -1    0    0  501    0  0.00000000000E+00  0.00000000000E+00  0.22959212439E+04  0.22959212439E+04  0.50400000000E-02 0. -1.
         -1   -1    0    0    0  501 -0.00000000000E+00 -0.00000000000E+00 -0.76323792527E+03  0.76323792528E+03  0.50400000000E-02 0.  1.
    8880023    1    1    2    0    0  0.10358778322E+04  0.23718393978E+03  0.80018041543E+02  0.12528017392E+04  0.65864270000E+03 0.  0.
    8880022    1    1    2    0    0 -0.10358778322E+04 -0.23718393978E+03  0.14526652771E+04  0.18063574299E+04  0.15294330000E+03 0.  0.
<mgrwt>
<rscale>  0 0.12035388E+04</rscale>
<asrwt>0</asrwt>
<pdfrwt beam="1">  1        1 0.35321865E+00 0.12502437E+04</pdfrwt>
<pdfrwt beam="2">  1       -1 0.11742122E+00 0.12502437E+04</pdfrwt>
<totfact> 0.11991445E+00</totfact>
</mgrwt>
</event>
<event>
 4    5  0.7214169E-008  0.8460626E+03  0.7818608E-02  0.9618853E-01
          1   -1    0    0  501    0  0.00000000000E+00  0.00000000000E+00  0.97666811386E+03  0.97666811388E+03  0.50400000000E-02 0. -1.
         -1   -1    0    0    0  501 -0.00000000000E+00 -0.00000000000E+00 -0.57097863623E+03  0.57097863626E+03  0.50400000000E-02 0.  1.
    8880023    1    1    2    0    0  0.26068341050E+03  0.46266167262E+03  0.50622402706E+03  0.98594352559E+03  0.65864270000E+03 0. -1.
    8880022    1    1    2    0    0 -0.26068341050E+03 -0.46266167262E+03 -0.10053454943E+03  0.56170322454E+03  0.15294330000E+03 0.  0.
<mgrwt>
<rscale>  0 0.76060833E+03</rscale>
<asrwt>0</asrwt>
<pdfrwt beam="1">  1        1 0.15025663E+00 0.84606257E+03</pdfrwt>
<pdfrwt beam="2">  1       -1 0.87842869E-01 0.84606257E+03</pdfrwt>
<totfact> 0.20469747E+01</totfact>
</mgrwt>
</event>
<event>
 4    5  0.7214169E-008  0.9760371E+03  0.7818608E-02  0.9413602E-01
         -1   -1    0    0    0  501 -0.00000000000E+00  0.00000000000E+00  0.79281749968E+03  0.79281749970E+03  0.50400000000E-02 0.  1.
          1   -1    0    0  501    0  0.00000000000E+00 -0.00000000000E+00 -0.16304185805E+04  0.16304185805E+04  0.50400000000E-02 0. -1.
    8880023    1    1    2    0    0  0.30238404866E+03 -0.65376004669E+03  0.34067941821E+03  0.10337847860E+04  0.65864270000E+03 0.  1.
    8880022    1    1    2    0    0 -0.30238404866E+03  0.65376004669E+03 -0.11782804991E+04  0.13894512942E+04  0.15294330000E+03 0.  0.
<mgrwt>
<rscale>  0 0.90964660E+03</rscale>
<asrwt>0</asrwt>
<pdfrwt beam="1">  1        1 0.25083363E+00 0.97603715E+03</pdfrwt>
<pdfrwt beam="2">  1       -1 0.12197192E+00 0.97603715E+03</pdfrwt>
<totfact> 0.31941988E+00</totfact>
</mgrwt>
</event>
<event>
 4    5  0.7214169E-008  0.1263507E+04  0.7818608E-02  0.9097733E-01
          1   -1    0    0  501    0  0.00000000000E+00  0.00000000000E+00  0.20038088499E+04  0.20038088499E+04  0.50400000000E-02 0. -1.
         -1   -1    0    0    0  501 -0.00000000000E+00 -0.00000000000E+00 -0.71441839032E+03  0.71441839033E+03  0.50400000000E-02 0.  1.
    8880023    1    1    2    0    0  0.27032145327E+02 -0.10779183369E+04  0.93892142373E+03  0.15741735369E+04  0.65864270000E+03 0.  0.
    8880022    1    1    2    0    0 -0.27032145327E+02  0.10779183369E+04  0.35046903580E+03  0.11440537033E+04  0.15294330000E+03 0.  0.
<mgrwt>
<rscale>  0 0.12174331E+04</rscale>
<asrwt>0</asrwt>
<pdfrwt beam="1">  1        1 0.30827828E+00 0.12635066E+04</pdfrwt>
<pdfrwt beam="2">  1       -1 0.10991052E+00 0.12635066E+04</pdfrwt>
<totfact> 0.22158902E+00</totfact>
</mgrwt>
</event>
<event>
 4    5  0.7214169E-008  0.6938742E+03  0.7818608E-02  0.1002363E+00
         -1   -1    0    0    0  501 -0.00000000000E+00  0.00000000000E+00  0.10454098394E+04  0.10454098394E+04  0.50400000000E-02 0.  1.
          1   -1    0    0  501    0  0.00000000000E+00 -0.00000000000E+00 -0.19415305307E+04  0.19415305307E+04  0.50400000000E-02 0. -1.
    8880023    1    1    2    0    0  0.21049444696E+03 -0.57820626920E+02  0.91946091528E+03  0.11518983107E+04  0.65864270000E+03 0.  1.
    8880022    1    1    2    0    0 -0.21049444696E+03  0.57820626920E+02 -0.18155816066E+04  0.18350420595E+04  0.15294330000E+03 0.  0.
<mgrwt>
<rscale>  0 0.54626143E+03</rscale>
<asrwt>0</asrwt>
<pdfrwt beam="1">  1        1 0.29869700E+00 0.69387416E+03</pdfrwt>
<pdfrwt beam="2">  1       -1 0.16083228E+00 0.69387416E+03</pdfrwt>
<totfact> 0.10074151E+00</totfact>
</mgrwt>
</event>
<event>
 4    5  0.7214169E-008  0.8311423E+03  0.7818608E-02  0.9647114E-01
         -1   -1    0    0    0  501 -0.00000000000E+00  0.00000000000E+00  0.66152303655E+03  0.66152303657E+03  0.50400000000E-02 0.  1.
          1   -1    0    0  501    0  0.00000000000E+00 -0.00000000000E+00 -0.15791608703E+04  0.15791608703E+04  0.50400000000E-02 0. -1.
    8880023    1    1    2    0    0 -0.30438084066E+02  0.50602450584E+03  0.32305784166E+03  0.89171960436E+03  0.65864270000E+03 0.  0.
    8880022    1    1    2    0    0  0.30438084066E+02 -0.50602450584E+03 -0.12406956754E+04  0.13489643025E+04  0.15294330000E+03 0.  0.
<mgrwt>
<rscale>  0 0.74254829E+03</rscale>
<asrwt>0</asrwt>
<pdfrwt beam="1">  1        1 0.24294783E+00 0.83114228E+03</pdfrwt>
<pdfrwt beam="2">  1       -1 0.10177278E+00 0.83114228E+03</pdfrwt>
<totfact> 0.54344269E+00</totfact>
</mgrwt>
</event>
<event>
 4    5  0.7214169E-008  0.1080984E+04  0.7818608E-02  0.9282529E-01
          1   -1    0    0  501    0  0.00000000000E+00  0.00000000000E+00  0.12203841871E+04  0.12203841871E+04  0.50400000000E-02 0. -1.
         -1   -1    0    0    0  501 -0.00000000000E+00 -0.00000000000E+00 -0.10179680529E+04  0.10179680529E+04  0.50400000000E-02 0.  1.
    8880023    1    1    2    0    0  0.44131453142E+03 -0.73481871375E+03 -0.42879963174E+03  0.11629257879E+04  0.65864270000E+03 0.  0.
    8880022    1    1    2    0    0 -0.44131453142E+03  0.73481871375E+03  0.63121576598E+03  0.10754264521E+04  0.15294330000E+03 0.  0.
<mgrwt>
<rscale>  0 0.10240732E+04</rscale>
<asrwt>0</asrwt>
<pdfrwt beam="1">  1        1 0.18775141E+00 0.10809844E+04</pdfrwt>
<pdfrwt beam="2">  1       -1 0.15661047E+00 0.10809844E+04</pdfrwt>
<totfact> 0.31828660E+00</totfact>
</mgrwt>
</event>
<event>
 4    5  0.7214169E-008  0.1132500E+04  0.7818608E-02  0.9225706E-01
          1   -1    0    0  501    0  0.00000000000E+00  0.00000000000E+00  0.23703752526E+04  0.23703752526E+04  0.50400000000E-02 0. -1.
         -1   -1    0    0    0  501 -0.00000000000E+00 -0.00000000000E+00 -0.93448513803E+03  0.93448513805E+03  0.50400000000E-02 0.  1.
    8880023    1    1    2    0    0 -0.89284932621E+03 -0.22708105903E+03 -0.43553449289E+03  0.12133615403E+04  0.65864270000E+03 0.  0.
    8880022    1    1    2    0    0  0.89284932621E+03  0.22708105903E+03  0.18714246075E+04  0.20914988504E+04  0.15294330000E+03 0.  0.
<mgrwt>
<rscale>  0 0.10791995E+04</rscale>
<asrwt>0</asrwt>
<pdfrwt beam="1">  1        1 0.36467311E+00 0.11324999E+04</pdfrwt>
<pdfrwt beam="2">  1       -1 0.14376695E+00 0.11324999E+04</pdfrwt>
<totfact> 0.64786074E-01</totfact>
</mgrwt>
</event>
<event>
 4    5  0.7214169E-008  0.1826434E+04  0.7818608E-02  0.8708054E-01
          1   -1    0    0  501    0  0.00000000000E+00  0.00000000000E+00  0.30422316134E+04  0.30422316134E+04  0.50400000000E-02 0. -1.
         -1   -1    0    0    0  501 -0.00000000000E+00 -0.00000000000E+00 -0.14906233545E+04  0.14906233545E+04  0.50400000000E-02 0.  1.
    8880023    1    1    2    0    0 -0.14537240513E+03  0.16973261321E+04  0.20555642192E+04  0.27497642809E+04  0.65864270000E+03 0. -1.
    8880022    1    1    2    0    0  0.14537240513E+03 -0.16973261321E+04 -0.50395596026E+03  0.17830906870E+04  0.15294330000E+03 0.  0.
<mgrwt>
<rscale>  0 0.17967052E+04</rscale>
<asrwt>0</asrwt>
<pdfrwt beam="1">  1        1 0.46803563E+00 0.18264335E+04</pdfrwt>
<pdfrwt beam="2">  1       -1 0.22932667E+00 0.18264335E+04</pdfrwt>
<totfact> 0.48210047E-02</totfact>
</mgrwt>
</event>
<event>
 4    5  0.7214169E-008  0.7220337E+03  0.7818608E-02  0.9915764E-01
         -1   -1    0    0    0  501 -0.00000000000E+00  0.00000000000E+00  0.33335872051E+03  0.33335872055E+03  0.50400000000E-02 0.  1.
          1   -1    0    0  501    0  0.00000000000E+00 -0.00000000000E+00 -0.30643241502E+04  0.30643241502E+04  0.50400000000E-02 0. -1.
    8880023    1    1    2    0    0  0.15071225575E+03 -0.25457462713E+03 -0.80649147794E+02  0.72652385791E+03  0.65864270000E+03 0.  1.
    8880022    1    1    2    0    0 -0.15071225575E+03  0.25457462713E+03 -0.26503162819E+04  0.26711590129E+04  0.15294330000E+03 0.  0.
<mgrwt>
<rscale>  0 0.59503351E+03</rscale>
<asrwt>0</asrwt>
<pdfrwt beam="1">  1        1 0.47143447E+00 0.72203368E+03</pdfrwt>
<pdfrwt beam="2">  1       -1 0.51285959E-01 0.72203368E+03</pdfrwt>
<totfact> 0.22177662E+00</totfact>
</mgrwt>
</event>
<event>
 4    5  0.7214169E-008  0.7128411E+03  0.7818608E-02  0.9947598E-01
          1   -1    0    0  501    0  0.00000000000E+00  0.00000000000E+00  0.30917747605E+03  0.30917747609E+03  0.50400000000E-02 0. -1.
         -1   -1    0    0    0  501 -0.00000000000E+00 -0.00000000000E+00 -0.21443648282E+04  0.21443648282E+04  0.50400000000E-02 0.  1.
    8880023    1    1    2    0    0  0.26998698200E+03 -0.37937186740E+02 -0.19833774524E+04  0.21075883197E+04  0.65864270000E+03 0.  1.
    8880022    1    1    2    0    0 -0.26998698200E+03  0.37937186740E+02  0.14819010026E+03  0.34595398454E+03  0.15294330000E+03 0.  0.
<mgrwt>
<rscale>  0 0.58008898E+03</rscale>
<asrwt>0</asrwt>
<pdfrwt beam="1">  1        1 0.47565767E-01 0.71284108E+03</pdfrwt>
<pdfrwt beam="2">  1       -1 0.32990227E+00 0.71284108E+03</pdfrwt>
<totfact> 0.18874165E+00</totfact>
</mgrwt>
</event>
<event>
 4    5  0.7214169E-008  0.9928936E+03  0.7818608E-02  0.9390915E-01
          1   -1    0    0  501    0  0.00000000000E+00  0.00000000000E+00  0.10949685514E+04  0.10949685514E+04  0.50400000000E-02 0. -1.
         -1   -1    0    0    0  501 -0.00000000000E+00 -0.00000000000E+00 -0.13650860858E+04  0.13650860858E+04  0.50400000000E-02 0.  1.
    8880023    1    1    2    0    0  0.61688306902E+03 -0.41410480340E+03 -0.99869597811E+03  0.14082724779E+04  0.65864270000E+03 0.  1.
    8880022    1    1    2    0    0 -0.61688306902E+03  0.41410480340E+03  0.72857844367E+03  0.10517821593E+04  0.15294330000E+03 0.  0.
<mgrwt>
<rscale>  0 0.92827163E+03</rscale>
<asrwt>0</asrwt>
<pdfrwt beam="1">  1        1 0.16845670E+00 0.99289361E+03</pdfrwt>
<pdfrwt beam="2">  1       -1 0.21001324E+00 0.99289361E+03</pdfrwt>
<totfact> 0.16541488E+00</totfact>
</mgrwt>
</event>
<event>
 4    5  0.7214169E-008  0.8352748E+03  0.7818608E-02  0.9639155E-01
          1   -1    0    0  501    0  0.00000000000E+00  0.00000000000E+00  0.20869936568E+04  0.20869936568E+04  0.50400000000E-02 0. -1.
         -1   -1    0    0    0  501 -0.00000000000E+00 -0.00000000000E+00 -0.34541216059E+03  0.34541216063E+03  0.50400000000E-02 0.  1.
    8880023    1    1    2    0    0  0.19509359498E+01  0.51368276607E+03  0.28860820772E+03  0.88372998938E+03  0.65864270000E+03 0.  1.
    8880022    1    1    2    0    0 -0.19509359498E+01 -0.51368276607E+03  0.14529732885E+04  0.15486758280E+04  0.15294330000E+03 0.  0.
<mgrwt>
<rscale>  0 0.74757963E+03</rscale>
<asrwt>0</asrwt>
<pdfrwt beam="1">  1        1 0.32107595E+00 0.83527480E+03</pdfrwt>
<pdfrwt beam="2">  1       -1 0.53140333E-01 0.83527480E+03</pdfrwt>
<totfact> 0.96044834E+00</totfact>
</mgrwt>
</event>
<event>
 4    5  0.7214169E-008  0.8551292E+03  0.7818608E-02  0.9602287E-01
         -1   -1    0    0    0  501 -0.00000000000E+00  0.00000000000E+00  0.16932078567E+04  0.16932078567E+04  0.50400000000E-02 0.  1.
          1   -1    0    0  501    0  0.00000000000E+00 -0.00000000000E+00 -0.53993115512E+03  0.53993115514E+03  0.50400000000E-02 0. -1.
    8880023    1    1    2    0    0 -0.41216475920E+03  0.35714970721E+03  0.13796434734E+04  0.16231642005E+04  0.65864270000E+03 0.  1.
    8880022    1    1    2    0    0  0.41216475920E+03 -0.35714970721E+03 -0.22636677175E+03  0.60997481133E+03  0.15294330000E+03 0.  0.
<mgrwt>
<rscale>  0 0.77144988E+03</rscale>
<asrwt>0</asrwt>
<pdfrwt beam="1">  1        1 0.83066333E-01 0.85512918E+03</pdfrwt>
<pdfrwt beam="2">  1       -1 0.26049351E+00 0.85512918E+03</pdfrwt>
<totfact> 0.24398223E+00</totfact>
</mgrwt>
</event>
<event>
 4    5  0.7214169E-008  0.9893234E+03  0.7818608E-02  0.9395661E-01
          1   -1    0    0  501    0  0.00000000000E+00  0.00000000000E+00  0.21152809069E+04  0.21152809069E+04  0.50400000000E-02 0. -1.
         -1   -1    0    0    0  501 -0.00000000000E+00 -0.00000000000E+00 -0.42586580046E+03  0.42586580049E+03  0.50400000000E-02 0.  1.
    8880023    1    1    2    0    0  0.21844804364E+03  0.70514615413E+03  0.44189134900E+03  0.10835261035E+04  0.65864270000E+03 0.  0.
    8880022    1    1    2    0    0 -0.21844804364E+03 -0.70514615413E+03  0.12475237575E+04  0.14576206039E+04  0.15294330000E+03 0.  0.
<mgrwt>
<rscale>  0 0.92433622E+03</rscale>
<asrwt>0</asrwt>
<pdfrwt beam="1">  1        1 0.32542783E+00 0.98932343E+03</pdfrwt>
<pdfrwt beam="2">  1       -1 0.65517816E-01 0.98932343E+03</pdfrwt>
<totfact> 0.59600239E+00</totfact>
</mgrwt>
</event>
<event>
 4    5  0.7214169E-008  0.7334335E+03  0.7818608E-02  0.9879505E-01
          1   -1    0    0  501    0  0.00000000000E+00  0.00000000000E+00  0.18383706092E+04  0.18383706093E+04  0.50400000000E-02 0. -1.
         -1   -1    0    0    0  501 -0.00000000000E+00 -0.00000000000E+00 -0.30123027267E+03  0.30123027271E+03  0.50400000000E-02 0.  1.
    8880023    1    1    2    0    0 -0.12330794655E+03 -0.29817720232E+03  0.20659735054E+03  0.76197582978E+03  0.65864270000E+03 0.  1.
    8880022    1    1    2    0    0  0.12330794655E+03  0.29817720232E+03  0.13305429860E+04  0.13776250522E+04  0.15294330000E+03 0.  0.
<mgrwt>
<rscale>  0 0.61264931E+03</rscale>
<asrwt>0</asrwt>
<pdfrwt beam="1">  1        1 0.28282625E+00 0.73343350E+03</pdfrwt>
<pdfrwt beam="2">  1       -1 0.46343119E-01 0.73343350E+03</pdfrwt>
<totfact> 0.18524200E+01</totfact>
</mgrwt>
</event>
<event>
 4    5  0.7214169E-008  0.9065121E+03  0.7818608E-02  0.9515657E-01
         -1   -1    0    0    0  501 -0.00000000000E+00  0.00000000000E+00  0.10932898026E+04  0.10932898026E+04  0.50400000000E-02 0.  1.
          1   -1    0    0  501    0  0.00000000000E+00 -0.00000000000E+00 -0.10430236811E+04  0.10430236811E+04  0.50400000000E-02 0. -1.
    8880023    1    1    2    0    0 -0.79684274497E+02  0.61774132222E+03  0.75766823070E+03  0.11814504978E+04  0.65864270000E+03 0.  0.
    8880022    1    1    2    0    0  0.79684274497E+02 -0.61774132222E+03 -0.70740210917E+03  0.95486298591E+03  0.15294330000E+03 0. -1.
<mgrwt>
<rscale>  0 0.83139239E+03</rscale>
<asrwt>0</asrwt>
<pdfrwt beam="1">  1        1 0.16046518E+00 0.90651207E+03</pdfrwt>
<pdfrwt beam="2">  1       -1 0.16819843E+00 0.90651207E+03</pdfrwt>
<totfact> 0.36085999E+00</totfact>
</mgrwt>
</event>
<event>
 4    5  0.7214169E-008  0.9158966E+03  0.7818608E-02  0.9500980E-01
         -1   -1    0    0    0  501 -0.00000000000E+00  0.00000000000E+00  0.70137546298E+03  0.70137546299E+03  0.50400000000E-02 0.  1.
          1   -1    0    0  501    0  0.00000000000E+00 -0.00000000000E+00 -0.18250025594E+04  0.18250025594E+04  0.50400000000E-02 0. -1.
    8880023    1    1    2    0    0 -0.43993875315E+03  0.45990254475E+03  0.29647370251E+03  0.96268547290E+03  0.65864270000E+03 0.  1.
    8880022    1    1    2    0    0  0.43993875315E+03 -0.45990254475E+03 -0.14201007989E+04  0.15636925495E+04  0.15294330000E+03 0.  0.
<mgrwt>
<rscale>  0 0.84211641E+03</rscale>
<asrwt>0</asrwt>
<pdfrwt beam="1">  1        1 0.28076962E+00 0.91589664E+03</pdfrwt>
<pdfrwt beam="2">  1       -1 0.10790392E+00 0.91589664E+03</pdfrwt>
<totfact> 0.31942637E+00</totfact>
</mgrwt>
</event>
<event>
 4    5  0.7214169E-008  0.7406158E+03  0.7818608E-02  0.9858157E-01
          1   -1    0    0  501    0  0.00000000000E+00  0.00000000000E+00  0.22141184695E+04  0.22141184695E+04  0.50400000000E-02 0. -1.
         -1   -1    0    0    0  501 -0.00000000000E+00 -0.00000000000E+00 -0.53051228792E+03  0.53051228794E+03  0.50400000000E-02 0.  1.
    8880023    1    1    2    0    0  0.32872797202E+03  0.81483268940E+02 -0.24535629837E+03  0.78019966811E+03  0.65864270000E+03 0.  0.
    8880022    1    1    2    0    0 -0.32872797202E+03 -0.81483268940E+02  0.19289624800E+04  0.19644310893E+04  0.15294330000E+03 0. -1.
<mgrwt>
<rscale>  0 0.62332752E+03</rscale>
<asrwt>0</asrwt>
<pdfrwt beam="1">  1        1 0.34063360E+00 0.74061583E+03</pdfrwt>
<pdfrwt beam="2">  1       -1 0.81617277E-01 0.74061583E+03</pdfrwt>
<totfact> 0.33679763E+00</totfact>
</mgrwt>
</event>
<event>
 4    5  0.7214169E-008  0.6603781E+03  0.7818608E-02  0.1023772E+00
          1   -1    0    0  501    0  0.00000000000E+00  0.00000000000E+00  0.90151565190E+03  0.90151565191E+03  0.50400000000E-02 0. -1.
         -1   -1    0    0    0  501 -0.00000000000E+00 -0.00000000000E+00 -0.54614971456E+03  0.54614971458E+03  0.50400000000E-02 0.  1.
    8880023    1    1    2    0    0  0.34661139038E+02  0.32980000426E+02 -0.33391636758E+03  0.73999960932E+03  0.65864270000E+03 0.  1.
    8880022    1    1    2    0    0 -0.34661139038E+02 -0.32980000426E+02  0.68928230492E+03  0.70766575718E+03  0.15294330000E+03 0.  0.
<mgrwt>
<rscale>  0 0.46349540E+03</rscale>
<asrwt>0</asrwt>
<pdfrwt beam="1">  1        1 0.13869472E+00 0.66037814E+03</pdfrwt>
<pdfrwt beam="2">  1       -1 0.84023033E-01 0.66037814E+03</pdfrwt>
<totfact> 0.26439410E+01</totfact>
</mgrwt>
</event>
<event>
 4    5  0.7214169E-008  0.8222592E+03  0.7818608E-02  0.9664586E-01
         -1   -1    0    0    0  501 -0.00000000000E+00  0.00000000000E+00  0.42710121606E+03  0.42710121609E+03  0.50400000000E-02 0.  1.
          1   -1    0    0  501    0  0.00000000000E+00 -0.00000000000E+00 -0.21048861910E+04  0.21048861910E+04  0.50400000000E-02 0. -1.
    8880023    1    1    2    0    0 -0.44801721921E+03  0.20391294283E+03 -0.49146449741E+02  0.82372659102E+03  0.65864270000E+03 0.  1.
    8880022    1    1    2    0    0  0.44801721921E+03 -0.20391294283E+03 -0.16286385252E+04  0.17082608161E+04  0.15294330000E+03 0.  0.
<mgrwt>
<rscale>  0 0.73165065E+03</rscale>
<asrwt>0</asrwt>
<pdfrwt beam="1">  1        1 0.32382864E+00 0.82225916E+03</pdfrwt>
<pdfrwt beam="2">  1       -1 0.65707880E-01 0.82225916E+03</pdfrwt>
<totfact> 0.61641589E+00</totfact>
</mgrwt>
</event>
<event>
 4    5  0.7214169E-008  0.1225456E+04  0.7818608E-02  0.9132766E-01
          1   -1    0    0  501    0  0.00000000000E+00  0.00000000000E+00  0.11528002545E+04  0.11528002545E+04  0.50400000000E-02 0. -1.
         -1   -1    0    0    0  501 -0.00000000000E+00 -0.00000000000E+00 -0.17841849389E+04  0.17841849389E+04  0.50400000000E-02 0.  1.
    8880023    1    1    2    0    0 -0.18019377261E+03  0.10175763025E+04 -0.12272543089E+04  0.17343283057E+04  0.65864270000E+03 0.  0.
    8880022    1    1    2    0    0  0.18019377261E+03 -0.10175763025E+04  0.59586962450E+03  0.12026568877E+04  0.15294330000E+03 0.  0.
<mgrwt>
<rscale>  0 0.11775175E+04</rscale>
<asrwt>0</asrwt>
<pdfrwt beam="1">  1        1 0.17735389E+00 0.12254556E+04</pdfrwt>
<pdfrwt beam="2">  1       -1 0.27448999E+00 0.12254556E+04</pdfrwt>
<totfact> 0.54792997E-01</totfact>
</mgrwt>
</event>
<event>
 4    5  0.7214169E-008  0.7241676E+03  0.7818608E-02  0.9908729E-01
          1   -1    0    0  501    0  0.00000000000E+00  0.00000000000E+00  0.37838539939E+03  0.37838539942E+03  0.50400000000E-02 0. -1.
         -1   -1    0    0    0  501 -0.00000000000E+00 -0.00000000000E+00 -0.26750775516E+04  0.26750775516E+04  0.50400000000E-02 0.  1.
    8880023    1    1    2    0    0  0.28018638310E+03  0.11001839975E+03 -0.25374589448E+04  0.26387717901E+04  0.65864270000E+03 0.  1.
    8880022    1    1    2    0    0 -0.28018638310E+03 -0.11001839975E+03  0.24076679254E+03  0.41469116094E+03  0.15294330000E+03 0.  0.
<mgrwt>
<rscale>  0 0.59840121E+03</rscale>
<asrwt>0</asrwt>
<pdfrwt beam="1">  1        1 0.58213140E-01 0.72416757E+03</pdfrwt>
<pdfrwt beam="2">  1       -1 0.41155038E+00 0.72416757E+03</pdfrwt>
<totfact> 0.41510303E-01</totfact>
</mgrwt>
</event>
<event>
 4    5  0.7214169E-008  0.1430331E+04  0.7818608E-02  0.8960466E-01
         -1   -1    0    0    0  501 -0.00000000000E+00  0.00000000000E+00  0.73963562739E+03  0.73963562741E+03  0.50400000000E-02 0.  1.
          1   -1    0    0  501    0  0.00000000000E+00 -0.00000000000E+00 -0.29260404408E+04  0.29260404408E+04  0.50400000000E-02 0. -1.
    8880023    1    1    2    0    0 -0.11779900854E+04 -0.47368277772E+03 -0.43103253970E+03  0.14938658814E+04  0.65864270000E+03 0.  0.
    8880022    1    1    2    0    0  0.11779900854E+04  0.47368277772E+03 -0.17553722737E+04  0.21718101868E+04  0.15294330000E+03 0.  0.
<mgrwt>
<rscale>  0 0.13908532E+04</rscale>
<asrwt>0</asrwt>
<pdfrwt beam="1">  1        1 0.45016006E+00 0.14303308E+04</pdfrwt>
<pdfrwt beam="2">  1       -1 0.11379010E+00 0.14303308E+04</pdfrwt>
<totfact> 0.45929574E-01</totfact>
</mgrwt>
</event>
<event>
 4    5  0.7214169E-008  0.6799816E+03  0.7818608E-02  0.1009334E+00
          1   -1    0    0  501    0  0.00000000000E+00  0.00000000000E+00  0.14722482255E+04  0.14722482256E+04  0.50400000000E-02 0. -1.
         -1   -1    0    0    0  501 -0.00000000000E+00 -0.00000000000E+00 -0.72026999589E+03  0.72026999591E+03  0.50400000000E-02 0.  1.
    8880023    1    1    2    0    0 -0.62637749963E+02 -0.15697536420E+03 -0.54762338917E+03  0.87307865357E+03  0.65864270000E+03 0.  1.
    8880022    1    1    2    0    0  0.62637749963E+02  0.15697536420E+03  0.12996016188E+04  0.13194395679E+04  0.15294330000E+03 0.  0.
<mgrwt>
<rscale>  0 0.51740158E+03</rscale>
<asrwt>0</asrwt>
<pdfrwt beam="1">  1        1 0.22649973E+00 0.67998159E+03</pdfrwt>
<pdfrwt beam="2">  1       -1 0.11081077E+00 0.67998159E+03</pdfrwt>
<totfact> 0.54057332E+00</totfact>
</mgrwt>
</event>
<event>
 4    5  0.7214169E-008  0.6623266E+03  0.7818608E-02  0.1021890E+00
         -1   -1    0    0    0  501 -0.00000000000E+00  0.00000000000E+00  0.34724489302E+03  0.34724489306E+03  0.50400000000E-02 0.  1.
          1   -1    0    0  501    0  0.00000000000E+00 -0.00000000000E+00 -0.25958057600E+04  0.25958057600E+04  0.50400000000E-02 0. -1.
    8880023    1    1    2    0    0  0.34134259706E+02 -0.60837633953E+02  0.25468906640E+02  0.66281614107E+03  0.65864270000E+03 0.  1.
    8880022    1    1    2    0    0 -0.34134259706E+02  0.60837633953E+02 -0.22740297736E+04  0.22802345120E+04  0.15294330000E+03 0.  0.
<mgrwt>
<rscale>  0 0.47010717E+03</rscale>
<asrwt>0</asrwt>
<pdfrwt beam="1">  1        1 0.39935472E+00 0.66232664E+03</pdfrwt>
<pdfrwt beam="2">  1       -1 0.53422293E-01 0.66232664E+03</pdfrwt>
<totfact> 0.44348163E+00</totfact>
</mgrwt>
</event>
<event>
 4    5  0.7439902E-008  0.8587453E+03  0.7818608E-02  0.9595799E-01
          1   -1    0    0  501    0  0.00000000000E+00  0.00000000000E+00  0.16106476069E+04  0.16106476069E+04  0.50400000000E-02 0. -1.
         -1   -1    0    0    0  501 -0.00000000000E+00 -0.00000000000E+00 -0.15040386789E+04  0.15040386789E+04  0.50400000000E-02 0.  1.
    8880023    1    1    2    0    0 -0.20162848402E+03  0.51281496141E+03 -0.13216851317E+04  0.15761646564E+04  0.65864270000E+03 0.  1.
    8880022    1    1    2    0    0  0.20162848402E+03 -0.51281496141E+03  0.14282940598E+04  0.15385216295E+04  0.15294330000E+03 0.  0.
<mgrwt>
<rscale>  0 0.77574836E+03</rscale>
<asrwt>0</asrwt>
<pdfrwt beam="1">  1        1 0.24779194E+00 0.85874527E+03</pdfrwt>
<pdfrwt beam="2">  1       -1 0.23139057E+00 0.85874527E+03</pdfrwt>
<totfact> 0.52554402E-01</totfact>
</mgrwt>
</event>
<event>
 4    5  0.7214169E-008  0.6913759E+03  0.7818608E-02  0.1003505E+00
          1   -1    0    0  501    0  0.00000000000E+00  0.00000000000E+00  0.31549041600E+03  0.31549041604E+03  0.50400000000E-02 0. -1.
         -1   -1    0    0    0  501 -0.00000000000E+00 -0.00000000000E+00 -0.17409025860E+04  0.17409025860E+04  0.50400000000E-02 0.  1.
    8880023    1    1    2    0    0 -0.20133663907E+03  0.60448012091E+02 -0.16001740282E+04  0.17431458720E+04  0.65864270000E+03 0.  1.
    8880022    1    1    2    0    0  0.20133663907E+03 -0.60448012091E+02  0.17476185816E+03  0.31324713005E+03  0.15294330000E+03 0.  0.
<mgrwt>
<rscale>  0 0.54139544E+03</rscale>
<asrwt>0</asrwt>
<pdfrwt beam="1">  1        1 0.48536988E-01 0.69137588E+03</pdfrwt>
<pdfrwt beam="2">  1       -1 0.26783116E+00 0.69137588E+03</pdfrwt>
<totfact> 0.46047048E+00</totfact>
</mgrwt>
</event>
<event>
 4    5  0.7214169E-008  0.1116266E+04  0.7818608E-02  0.9243158E-01
         -1   -1    0    0    0  501 -0.00000000000E+00  0.00000000000E+00  0.45049694305E+03  0.45049694308E+03  0.50400000000E-02 0.  1.
          1   -1    0    0  501    0  0.00000000000E+00 -0.00000000000E+00 -0.47204103788E+04  0.47204103788E+04  0.50400000000E-02 0. -1.
    8880023    1    1    2    0    0  0.37571682568E+03 -0.81919312359E+03 -0.38639168169E+03  0.11812490190E+04  0.65864270000E+03 0.  0.
    8880022    1    1    2    0    0 -0.37571682568E+03  0.81919312359E+03 -0.38835217540E+04  0.39896583029E+04  0.15294330000E+03 0.  0.
<mgrwt>
<rscale>  0 0.10618857E+04</rscale>
<asrwt>0</asrwt>
<pdfrwt beam="1">  1        1 0.72621695E+00 0.11162664E+04</pdfrwt>
<pdfrwt beam="2">  1       -1 0.69307225E-01 0.11162664E+04</pdfrwt>
<totfact> 0.41600548E-02</totfact>
</mgrwt>
</event>
<event>
 4    5  0.7214169E-008  0.8799385E+03  0.7818608E-02  0.9559036E-01
          1   -1    0    0  501    0  0.00000000000E+00  0.00000000000E+00  0.18053725934E+04  0.18053725934E+04  0.50400000000E-02 0. -1.
         -1   -1    0    0    0  501 -0.00000000000E+00 -0.00000000000E+00 -0.33010114179E+03  0.33010114183E+03  0.50400000000E-02 0.  1.
    8880023    1    1    2    0    0  0.58326617798E+03 -0.16798449361E+02  0.11565263789E+04  0.14532188733E+04  0.65864270000E+03 0. -1.
    8880022    1    1    2    0    0 -0.58326617798E+03  0.16798449361E+02  0.31874507269E+03  0.68225486195E+03  0.15294330000E+03 0.  0.
<mgrwt>
<rscale>  0 0.80067824E+03</rscale>
<asrwt>0</asrwt>
<pdfrwt beam="1">  1        1 0.27774963E+00 0.87993854E+03</pdfrwt>
<pdfrwt beam="2">  1       -1 0.50784791E-01 0.87993854E+03</pdfrwt>
<totfact> 0.16091046E+01</totfact>
</mgrwt>
</event>
<event>
 4    5  0.7214169E-008  0.9789391E+03  0.7818608E-02  0.9409646E-01
          1   -1    0    0  501    0  0.00000000000E+00  0.00000000000E+00  0.17494474094E+04  0.17494474095E+04  0.50400000000E-02 0. -1.
         -1   -1    0    0    0  501 -0.00000000000E+00 -0.00000000000E+00 -0.73131526292E+03  0.73131526294E+03  0.50400000000E-02 0.  1.
    8880023    1    1    2    0    0  0.71506485628E+03  0.11486457900E+03  0.13516288634E+04  0.16688985622E+04  0.65864270000E+03 0. -1.
    8880022    1    1    2    0    0 -0.71506485628E+03 -0.11486457900E+03 -0.33349671692E+03  0.81186411018E+03  0.15294330000E+03 0.  0.
<mgrwt>
<rscale>  0 0.91286121E+03</rscale>
<asrwt>0</asrwt>
<pdfrwt beam="1">  1        1 0.26914575E+00 0.97893913E+03</pdfrwt>
<pdfrwt beam="2">  1       -1 0.11251004E+00 0.97893913E+03</pdfrwt>
<totfact> 0.32245185E+00</totfact>
</mgrwt>
</event>
<event>
 4    5  0.7214169E-008  0.8017460E+03  0.7818608E-02  0.9707034E-01
         -1   -1    0    0    0  501 -0.00000000000E+00  0.00000000000E+00  0.14238487378E+04  0.14238487378E+04  0.50400000000E-02 0.  1.
          1   -1    0    0  501    0  0.00000000000E+00 -0.00000000000E+00 -0.11498895601E+04  0.11498895601E+04  0.50400000000E-02 0. -1.
    8880023    1    1    2    0    0 -0.74052894355E+02  0.45111261971E+03  0.12500699608E+04  0.14850830078E+04  0.65864270000E+03 0.  1.
    8880022    1    1    2    0    0  0.74052894355E+02 -0.45111261971E+03 -0.97611078310E+03  0.10886552901E+04  0.15294330000E+03 0.  0.
<mgrwt>
<rscale>  0 0.70599560E+03</rscale>
<asrwt>0</asrwt>
<pdfrwt beam="1">  1        1 0.17690609E+00 0.80174599E+03</pdfrwt>
<pdfrwt beam="2">  1       -1 0.21905365E+00 0.80174599E+03</pdfrwt>
<totfact> 0.13492171E+00</totfact>
</mgrwt>
</event>
<event>
 4    5  0.7214169E-008  0.9905239E+03  0.7818608E-02  0.9394062E-01
          1   -1    0    0  501    0  0.00000000000E+00  0.00000000000E+00  0.12615445374E+04  0.12615445374E+04  0.50400000000E-02 0. -1.
         -1   -1    0    0    0  501 -0.00000000000E+00 -0.00000000000E+00 -0.10834115513E+04  0.10834115513E+04  0.50400000000E-02 0.  1.
    8880023    1    1    2    0    0 -0.71940592748E+03  0.17257614958E+03 -0.68014681822E+03  0.12015562061E+04  0.65864270000E+03 0.  0.
    8880022    1    1    2    0    0  0.71940592748E+03 -0.17257614958E+03  0.85827980431E+03  0.11433998825E+04  0.15294330000E+03 0.  0.
<mgrwt>
<rscale>  0 0.92566005E+03</rscale>
<asrwt>0</asrwt>
<pdfrwt beam="1">  1        1 0.19408377E+00 0.99052391E+03</pdfrwt>
<pdfrwt beam="2">  1       -1 0.16667870E+00 0.99052391E+03</pdfrwt>
<totfact> 0.25234879E+00</totfact>
</mgrwt>
</event>
<event>
 4    5  0.7214169E-008  0.8715779E+03  0.7818608E-02  0.9573291E-01
          1   -1    0    0  501    0  0.00000000000E+00  0.00000000000E+00  0.44346827909E+03  0.44346827911E+03  0.50400000000E-02 0. -1.
         -1   -1    0    0    0  501 -0.00000000000E+00 -0.00000000000E+00 -0.13547900702E+04  0.13547900702E+04  0.50400000000E-02 0.  1.
    8880023    1    1    2    0    0 -0.29479639412E+03 -0.48880760233E+03 -0.82668354227E+03  0.12012716893E+04  0.65864270000E+03 0.  1.
    8880022    1    1    2    0    0  0.29479639412E+03  0.48880760233E+03 -0.84638248802E+02  0.59698666003E+03  0.15294330000E+03 0. -1.
<mgrwt>
<rscale>  0 0.79089441E+03</rscale>
<asrwt>0</asrwt>
<pdfrwt beam="1">  1        1 0.68225890E-01 0.87157788E+03</pdfrwt>
<pdfrwt beam="2">  1       -1 0.20842924E+00 0.87157788E+03</pdfrwt>
<totfact> 0.70113754E+00</totfact>
</mgrwt>
</event>
<event>
 4    5  0.7214169E-008  0.1380132E+04  0.7818608E-02  0.8999276E-01
          1   -1    0    0  501    0  0.00000000000E+00  0.00000000000E+00  0.28781068007E+04  0.28781068007E+04  0.50400000000E-02 0. -1.
         -1   -1    0    0    0  501 -0.00000000000E+00 -0.00000000000E+00 -0.65304721433E+03  0.65304721435E+03  0.50400000000E-02 0.  1.
    8880023    1    1    2    0    0 -0.11695154501E+04 -0.32123017615E+03  0.61846880732E+03  0.15123720064E+04  0.65864270000E+03 0.  0.
    8880022    1    1    2    0    0  0.11695154501E+04  0.32123017615E+03  0.16065907791E+04  0.20187820086E+04  0.15294330000E+03 0.  0.
<mgrwt>
<rscale>  0 0.13388964E+04</rscale>
<asrwt>0</asrwt>
<pdfrwt beam="1">  1        1 0.44278566E+00 0.13801324E+04</pdfrwt>
<pdfrwt beam="2">  1       -1 0.10046880E+00 0.13801324E+04</pdfrwt>
<totfact> 0.67120130E-01</totfact>
</mgrwt>
</event>
<event>
 4    5  0.7214169E-008  0.1180632E+04  0.7818608E-02  0.9176183E-01
         -1   -1    0    0    0  501 -0.00000000000E+00  0.00000000000E+00  0.19109303281E+04  0.19109303281E+04  0.50400000000E-02 0.  1.
          1   -1    0    0  501    0  0.00000000000E+00 -0.00000000000E+00 -0.11339395850E+04  0.11339395850E+04  0.50400000000E-02 0. -1.
    8880023    1    1    2    0    0 -0.92301045319E+03 -0.32883614082E+03  0.14323314850E+04  0.18561964318E+04  0.65864270000E+03 0.  0.
    8880022    1    1    2    0    0  0.92301045319E+03  0.32883614082E+03 -0.65534074192E+03  0.11886734813E+04  0.15294330000E+03 0.  0.
<mgrwt>
<rscale>  0 0.11302674E+04</rscale>
<asrwt>0</asrwt>
<pdfrwt beam="1">  1        1 0.17445225E+00 0.11806319E+04</pdfrwt>
<pdfrwt beam="2">  1       -1 0.29398928E+00 0.11806319E+04</pdfrwt>
<totfact> 0.42623420E-01</totfact>
</mgrwt>
</event>
<event>
 4    5  0.7214169E-008  0.1256440E+04  0.7818608E-02  0.9104120E-01
         -1   -1    0    0    0  501 -0.00000000000E+00  0.00000000000E+00  0.85308307062E+03  0.85308307064E+03  0.50400000000E-02 0.  1.
          1   -1    0    0  501    0  0.00000000000E+00 -0.00000000000E+00 -0.24941157501E+04  0.24941157501E+04  0.50400000000E-02 0. -1.
    8880023    1    1    2    0    0  0.94651060644E+03  0.49894784795E+03  0.13963158896E+03  0.12641750156E+04  0.65864270000E+03 0.  0.
    8880022    1    1    2    0    0 -0.94651060644E+03 -0.49894784795E+03 -0.17806642684E+04  0.20830238052E+04  0.15294330000E+03 0.  0.
<mgrwt>
<rscale>  0 0.12100325E+04</rscale>
<asrwt>0</asrwt>
<pdfrwt beam="1">  1        1 0.38371011E+00 0.12564400E+04</pdfrwt>
<pdfrwt beam="2">  1       -1 0.13124355E+00 0.12564400E+04</pdfrwt>
<totfact> 0.66364837E-01</totfact>
</mgrwt>
</event>
<event>
 4    5  0.7214169E-008  0.6732901E+03  0.7818608E-02  0.1013406E+00
          1   -1    0    0  501    0  0.00000000000E+00  0.00000000000E+00  0.15633758951E+04  0.15633758951E+04  0.50400000000E-02 0. -1.
         -1   -1    0    0    0  501 -0.00000000000E+00 -0.00000000000E+00 -0.13309667933E+03  0.13309667943E+03  0.50400000000E-02 0.  1.
    8880023    1    1    2    0    0 -0.85388937061E+02 -0.11053515991E+03  0.87664799607E+03  0.11053647395E+04  0.65864270000E+03 0.  1.
    8880022    1    1    2    0    0  0.85388937061E+02  0.11053515991E+03  0.55363121973E+03  0.59110783503E+03  0.15294330000E+03 0. -1.
<mgrwt>
<rscale>  0 0.50142965E+03</rscale>
<asrwt>0</asrwt>
<pdfrwt beam="1">  1        1 0.24051937E+00 0.67329006E+03</pdfrwt>
<pdfrwt beam="2">  1       -1 0.20476412E-01 0.67329006E+03</pdfrwt>
<totfact> 0.11966552E+02</totfact>
</mgrwt>
</event>
<event>
 4    5  0.7214169E-008  0.2508507E+04  0.7818608E-02  0.8407471E-01
         -1   -1    0    0    0  501 -0.00000000000E+00  0.00000000000E+00  0.18671671805E+04  0.18671671805E+04  0.50400000000E-02 0.  1.
          1   -1    0    0  501    0  0.00000000000E+00 -0.00000000000E+00 -0.41333884983E+04  0.41333884983E+04  0.50400000000E-02 0. -1.
    8880023    1    1    2    0    0  0.23838548587E+04 -0.41956032771E+03  0.23137148811E+03  0.25191541890E+04  0.65864270000E+03 0.  0.
    8880022    1    1    2    0    0 -0.23838548587E+04  0.41956032771E+03 -0.24975928059E+04  0.34814014898E+04  0.15294330000E+03 0.  0.
<mgrwt>
<rscale>  0 0.24874467E+04</rscale>
<asrwt>0</asrwt>
<pdfrwt beam="1">  1        1 0.63590592E+00 0.25085065E+04</pdfrwt>
<pdfrwt beam="2">  1       -1 0.28725649E+00 0.25085065E+04</pdfrwt>
<totfact> 0.24373858E-03</totfact>
</mgrwt>
</event>
<event>
 4    5  0.7214169E-008  0.7116462E+03  0.7818608E-02  0.9951938E-01
          1   -1    0    0  501    0  0.00000000000E+00  0.00000000000E+00  0.89870879978E+03  0.89870879979E+03  0.50400000000E-02 0. -1.
         -1   -1    0    0    0  501 -0.00000000000E+00 -0.00000000000E+00 -0.67589080591E+03  0.67589080593E+03  0.50400000000E-02 0.  1.
    8880023    1    1    2    0    0  0.26640537838E+03  0.40721246465E+02 -0.44435076035E+03  0.83898024412E+03  0.65864270000E+03 0.  1.
    8880022    1    1    2    0    0 -0.26640537838E+03 -0.40721246465E+02  0.66716875421E+03  0.73561936160E+03  0.15294330000E+03 0.  0.
<mgrwt>
<rscale>  0 0.57808840E+03</rscale>
<asrwt>0</asrwt>
<pdfrwt beam="1">  1        1 0.13826289E+00 0.71164616E+03</pdfrwt>
<pdfrwt beam="2">  1       -1 0.10398320E+00 0.71164616E+03</pdfrwt>
<totfact> 0.16430061E+01</totfact>
</mgrwt>
</event>
<event>
 4    5  0.7214169E-008  0.7517104E+03  0.7818608E-02  0.9827061E-01
          1   -1    0    0  501    0  0.00000000000E+00  0.00000000000E+00  0.89135887253E+03  0.89135887254E+03  0.50400000000E-02 0. -1.
         -1   -1    0    0    0  501 -0.00000000000E+00 -0.00000000000E+00 -0.98531233442E+03  0.98531233444E+03  0.50400000000E-02 0.  1.
    8880023    1    1    2    0    0  0.21664711453E+03 -0.29038300248E+03 -0.78166120974E+03  0.10844642518E+04  0.65864270000E+03 0.  1.
    8880022    1    1    2    0    0 -0.21664711453E+03  0.29038300248E+03  0.68770774784E+03  0.79220695517E+03  0.15294330000E+03 0.  0.
<mgrwt>
<rscale>  0 0.63930281E+03</rscale>
<asrwt>0</asrwt>
<pdfrwt beam="1">  1        1 0.13713213E+00 0.75171036E+03</pdfrwt>
<pdfrwt beam="2">  1       -1 0.15158651E+00 0.75171036E+03</pdfrwt>
<totfact> 0.64859136E+00</totfact>
</mgrwt>
</event>
<event>
 4    5  0.7214169E-008  0.9698455E+03  0.7818608E-02  0.9422118E-01
         -1   -1    0    0    0  501 -0.00000000000E+00  0.00000000000E+00  0.14870899344E+04  0.14870899344E+04  0.50400000000E-02 0.  1.
          1   -1    0    0  501    0  0.00000000000E+00 -0.00000000000E+00 -0.12727458660E+04  0.12727458660E+04  0.50400000000E-02 0. -1.
    8880023    1    1    2    0    0  0.21020485371E+03 -0.68014994294E+03  0.11946083937E+04  0.15387298158E+04  0.65864270000E+03 0.  0.
    8880022    1    1    2    0    0 -0.21020485371E+03  0.68014994294E+03 -0.98026432528E+03  0.12211059847E+04  0.15294330000E+03 0.  0.
<mgrwt>
<rscale>  0 0.90277598E+03</rscale>
<asrwt>0</asrwt>
<pdfrwt beam="1">  1        1 0.19580706E+00 0.96984547E+03</pdfrwt>
<pdfrwt beam="2">  1       -1 0.22878306E+00 0.96984547E+03</pdfrwt>
<totfact> 0.92107412E-01</totfact>
</mgrwt>
</event>
<event>
 4    5  0.7214169E-008  0.1492486E+04  0.7818608E-02  0.8914960E-01
          1   -1    0    0  501    0  0.00000000000E+00  0.00000000000E+00  0.35738942558E+04  0.35738942558E+04  0.50400000000E-02 0. -1.
         -1   -1    0    0    0  501 -0.00000000000E+00 -0.00000000000E+00 -0.24322481435E+04  0.24322481435E+04  0.50400000000E-02 0.  1.
    8880023    1    1    2    0    0  0.13047591770E+04 -0.30216955711E+03 -0.20533294580E+04  0.25384394853E+04  0.65864270000E+03 0.  0.
    8880022    1    1    2    0    0 -0.13047591770E+04  0.30216955711E+03  0.31949755703E+04  0.34677029139E+04  0.15294330000E+03 0.  0.
<mgrwt>
<rscale>  0 0.14549725E+04</rscale>
<asrwt>0</asrwt>
<pdfrwt beam="1">  1        1 0.54982988E+00 0.14924856E+04</pdfrwt>
<pdfrwt beam="2">  1       -1 0.37419202E+00 0.14924856E+04</pdfrwt>
<totfact> 0.22271313E-03</totfact>
</mgrwt>
</event>
<event>
 4    5  0.7214169E-008  0.1578218E+04  0.7818608E-02  0.8856291E-01
         -1   -1    0    0    0  501 -0.00000000000E+00  0.00000000000E+00  0.12785651117E+04  0.12785651117E+04  0.50400000000E-02 0.  1.
          1   -1    0    0  501    0  0.00000000000E+00 -0.00000000000E+00 -0.31503226946E+04  0.31503226946E+04  0.50400000000E-02 0. -1.
    8880023    1    1    2    0    0 -0.48854172246E+02  0.14333791117E+04  0.49780726068E+03  0.16548669684E+04  0.65864270000E+03 0.  0.
    8880022    1    1    2    0    0  0.48854172246E+02 -0.14333791117E+04 -0.23695648436E+04  0.27740208379E+04  0.15294330000E+03 0.  0.
<mgrwt>
<rscale>  0 0.15430942E+04</rscale>
<asrwt>0</asrwt>
<pdfrwt beam="1">  1        1 0.48466503E+00 0.15782182E+04</pdfrwt>
<pdfrwt beam="2">  1       -1 0.19670233E+00 0.15782182E+04</pdfrwt>
<totfact> 0.68975333E-02</totfact>
</mgrwt>
</event>
<event>
 4    5  0.7214169E-008  0.1249788E+04  0.7818608E-02  0.9110182E-01
          1   -1    0    0  501    0  0.00000000000E+00  0.00000000000E+00  0.83363580690E+03  0.83363580692E+03  0.50400000000E-02 0. -1.
         -1   -1    0    0    0  501 -0.00000000000E+00 -0.00000000000E+00 -0.20491806581E+04  0.20491806581E+04  0.50400000000E-02 0.  1.
    8880023    1    1    2    0    0 -0.10152612867E+04 -0.31209507235E+03 -0.13038338760E+04  0.18060874279E+04  0.65864270000E+03 0.  1.
    8880022    1    1    2    0    0  0.10152612867E+04  0.31209507235E+03  0.88289024839E+02  0.10767290372E+04  0.15294330000E+03 0.  0.
<mgrwt>
<rscale>  0 0.12030607E+04</rscale>
<asrwt>0</asrwt>
<pdfrwt beam="1">  1        1 0.12825166E+00 0.12497876E+04</pdfrwt>
<pdfrwt beam="2">  1       -1 0.31525856E+00 0.12497876E+04</pdfrwt>
<totfact> 0.53347315E-01</totfact>
</mgrwt>
</event>
<event>
 4    5  0.7214169E-008  0.1397414E+04  0.7818608E-02  0.8985695E-01
         -1   -1    0    0    0  501 -0.00000000000E+00  0.00000000000E+00  0.86265811829E+03  0.86265811831E+03  0.50400000000E-02 0.  1.
          1   -1    0    0  501    0  0.00000000000E+00 -0.00000000000E+00 -0.26243092549E+04  0.26243092549E+04  0.50400000000E-02 0. -1.
    8880023    1    1    2    0    0  0.12163944913E+04 -0.19834176922E+03 -0.84373938695E+02  0.13999586364E+04  0.65864270000E+03 0.  0.
    8880022    1    1    2    0    0 -0.12163944913E+04  0.19834176922E+03 -0.16772771979E+04  0.20870087368E+04  0.15294330000E+03 0.  0.
<mgrwt>
<rscale>  0 0.13568021E+04</rscale>
<asrwt>0</asrwt>
<pdfrwt beam="1">  1        1 0.40373988E+00 0.13974138E+04</pdfrwt>
<pdfrwt beam="2">  1       -1 0.13271663E+00 0.13974138E+04</pdfrwt>
<totfact> 0.51458313E-01</totfact>
</mgrwt>
</event>
<event>
 4    5  0.7214169E-008  0.7326463E+03  0.7818608E-02  0.9881910E-01
          1   -1    0    0  501    0  0.00000000000E+00  0.00000000000E+00  0.28182562096E+03  0.28182562101E+03  0.50400000000E-02 0. -1.
         -1   -1    0    0    0  501 -0.00000000000E+00 -0.00000000000E+00 -0.16312076498E+04  0.16312076498E+04  0.50400000000E-02 0.  1.
    8880023    1    1    2    0    0  0.31935556911E+03  0.31183625986E+02 -0.13735728045E+04  0.15567507359E+04  0.65864270000E+03 0.  0.
    8880022    1    1    2    0    0 -0.31935556911E+03 -0.31183625986E+02  0.24190775697E+02  0.35628253493E+03  0.15294330000E+03 0.  0.
<mgrwt>
<rscale>  0 0.61146071E+03</rscale>
<asrwt>0</asrwt>
<pdfrwt beam="1">  1        1 0.43357789E-01 0.73264630E+03</pdfrwt>
<pdfrwt beam="2">  1       -1 0.25095502E+00 0.73264630E+03</pdfrwt>
<totfact> 0.67979914E+00</totfact>
</mgrwt>
</event>
<event>
 4    5  0.7214169E-008  0.6719617E+03  0.7818608E-02  0.1014294E+00
          1   -1    0    0  501    0  0.00000000000E+00  0.00000000000E+00  0.41380551990E+03  0.41380551993E+03  0.50400000000E-02 0. -1.
         -1   -1    0    0    0  501 -0.00000000000E+00 -0.00000000000E+00 -0.13586176255E+04  0.13586176255E+04  0.50400000000E-02 0.  1.
    8880023    1    1    2    0    0  0.48967747291E+02 -0.12379184721E+03 -0.12423096560E+04  0.14123971642E+04  0.65864270000E+03 0.  1.
    8880022    1    1    2    0    0 -0.48967747291E+02  0.12379184721E+03  0.29749755037E+03  0.36002598129E+03  0.15294330000E+03 0.  0.
<mgrwt>
<rscale>  0 0.49803168E+03</rscale>
<asrwt>0</asrwt>
<pdfrwt beam="1">  1        1 0.63662389E-01 0.67196166E+03</pdfrwt>
<pdfrwt beam="2">  1       -1 0.20901809E+00 0.67196166E+03</pdfrwt>
<totfact> 0.78196670E+00</totfact>
</mgrwt>
</event>
<event>
 4    5  0.7214169E-008  0.9709375E+03  0.7818608E-02  0.9420609E-01
          1   -1    0    0  501    0  0.00000000000E+00  0.00000000000E+00  0.79954922483E+03  0.79954922484E+03  0.50400000000E-02 0. -1.
         -1   -1    0    0    0  501 -0.00000000000E+00 -0.00000000000E+00 -0.18867925905E+04  0.18867925905E+04  0.50400000000E-02 0.  1.
    8880023    1    1    2    0    0 -0.48964571045E+03  0.51880303844E+03 -0.15452033911E+04  0.18249310235E+04  0.65864270000E+03 0.  1.
    8880022    1    1    2    0    0  0.48964571045E+03 -0.51880303844E+03  0.45796002540E+03  0.86141079186E+03  0.15294330000E+03 0.  0.
<mgrwt>
<rscale>  0 0.90398901E+03</rscale>
<asrwt>0</asrwt>
<pdfrwt beam="1">  1        1 0.12300757E+00 0.97093755E+03</pdfrwt>
<pdfrwt beam="2">  1       -1 0.29027578E+00 0.97093755E+03</pdfrwt>
<totfact> 0.85932998E-01</totfact>
</mgrwt>
</event>
<event>
 4    5  0.7214169E-008  0.8824929E+03  0.7818608E-02  0.9554742E-01
          1   -1    0    0  501    0  0.00000000000E+00  0.00000000000E+00  0.14759988880E+04  0.14759988880E+04  0.50400000000E-02 0. -1.
         -1   -1    0    0    0  501 -0.00000000000E+00 -0.00000000000E+00 -0.54508242420E+03  0.54508242422E+03  0.50400000000E-02 0.  1.
    8880023    1    1    2    0    0 -0.26497888271E+03  0.52418477508E+03 -0.31740979236E+02  0.88306352135E+03  0.65864270000E+03 0.  1.
    8880022    1    1    2    0    0  0.26497888271E+03 -0.52418477508E+03  0.96265744301E+03  0.11380177909E+04  0.15294330000E+03 0.  0.
<mgrwt>
<rscale>  0 0.80365509E+03</rscale>
<asrwt>0</asrwt>
<pdfrwt beam="1">  1        1 0.22707675E+00 0.88249289E+03</pdfrwt>
<pdfrwt beam="2">  1       -1 0.83858834E-01 0.88249289E+03</pdfrwt>
<totfact> 0.97705915E+00</totfact>
</mgrwt>
</event>
<event>
 4    5  0.7214169E-008  0.8555002E+03  0.7818608E-02  0.9601618E-01
          1   -1    0    0  501    0  0.00000000000E+00  0.00000000000E+00  0.22797511066E+04  0.22797511066E+04  0.50400000000E-02 0. -1.
         -1   -1    0    0    0  501 -0.00000000000E+00 -0.00000000000E+00 -0.38195408952E+03  0.38195408955E+03  0.50400000000E-02 0.  1.
    8880023    1    1    2    0    0  0.54417159311E+03  0.44132972208E+02  0.20954320759E+03  0.88078885330E+03  0.65864270000E+03 0.  0.
    8880022    1    1    2    0    0 -0.54417159311E+03 -0.44132972208E+02  0.16882538095E+04  0.17809163429E+04  0.15294330000E+03 0.  0.
<mgrwt>
<rscale>  0 0.77189161E+03</rscale>
<asrwt>0</asrwt>
<pdfrwt beam="1">  1        1 0.35073094E+00 0.85550023E+03</pdfrwt>
<pdfrwt beam="2">  1       -1 0.58762167E-01 0.85550023E+03</pdfrwt>
<totfact> 0.58419849E+00</totfact>
</mgrwt>
</event>
<event>
 4    5  0.7214169E-008  0.1348037E+04  0.7818608E-02  0.9025149E-01
         -1   -1    0    0    0  501 -0.00000000000E+00  0.00000000000E+00  0.10914056920E+04  0.10914056920E+04  0.50400000000E-02 0.  1.
          1   -1    0    0  501    0  0.00000000000E+00 -0.00000000000E+00 -0.17631698327E+04  0.17631698327E+04  0.50400000000E-02 0. -1.
    8880023    1    1    2    0    0  0.11394518770E+04 -0.29162126356E+03  0.22624505799E+03  0.13668908420E+04  0.65864270000E+03 0.  0.
    8880022    1    1    2    0    0 -0.11394518770E+04  0.29162126356E+03 -0.89800919871E+03  0.14876846828E+04  0.15294330000E+03 0.  0.
<mgrwt>
<rscale>  0 0.13055840E+04</rscale>
<asrwt>0</asrwt>
<pdfrwt beam="1">  1        1 0.27125690E+00 0.13480370E+04</pdfrwt>
<pdfrwt beam="2">  1       -1 0.16790857E+00 0.13480370E+04</pdfrwt>
<totfact> 0.10608615E+00</totfact>
</mgrwt>
</event>
<event>
 4    5  0.7214169E-008  0.9013082E+03  0.7818608E-02  0.9523935E-01
          1   -1    0    0  501    0  0.00000000000E+00  0.00000000000E+00  0.84491114724E+03  0.84491114725E+03  0.50400000000E-02 0. -1.
         -1   -1    0    0    0  501 -0.00000000000E+00 -0.00000000000E+00 -0.89716702234E+03  0.89716702235E+03  0.50400000000E-02 0.  1.
    8880023    1    1    2    0    0 -0.56889157145E+03  0.23432610905E+03 -0.43576287606E+03  0.10011222882E+04  0.65864270000E+03 0.  1.
    8880022    1    1    2    0    0  0.56889157145E+03 -0.23432610905E+03  0.38350700096E+03  0.74095588144E+03  0.15294330000E+03 0.  0.
<mgrwt>
<rscale>  0 0.82541982E+03</rscale>
<asrwt>0</asrwt>
<pdfrwt beam="1">  1        1 0.12998633E+00 0.90130824E+03</pdfrwt>
<pdfrwt beam="2">  1       -1 0.13802570E+00 0.90130824E+03</pdfrwt>
<totfact> 0.89117049E+00</totfact>
</mgrwt>
</event>
<event>
 4    5  0.7214169E-008  0.6733315E+03  0.7818608E-02  0.1013379E+00
          1   -1    0    0  501    0  0.00000000000E+00  0.00000000000E+00  0.13271566981E+04  0.13271566981E+04  0.50400000000E-02 0. -1.
         -1   -1    0    0    0  501 -0.00000000000E+00 -0.00000000000E+00 -0.46052052648E+03  0.46052052651E+03  0.50400000000E-02 0.  1.
    8880023    1    1    2    0    0  0.89277216956E+02  0.10767830323E+03 -0.19896051299E+03  0.70211148007E+03  0.65864270000E+03 0.  1.
    8880022    1    1    2    0    0 -0.89277216956E+02 -0.10767830323E+03  0.10655966846E+04  0.10855657445E+04  0.15294330000E+03 0.  0.
<mgrwt>
<rscale>  0 0.50153417E+03</rscale>
<asrwt>0</asrwt>
<pdfrwt beam="1">  1        1 0.20417795E+00 0.67333145E+03</pdfrwt>
<pdfrwt beam="2">  1       -1 0.70849312E-01 0.67333145E+03</pdfrwt>
<totfact> 0.18179550E+01</totfact>
</mgrwt>
</event>
<event>
 4    5  0.7214169E-008  0.9888016E+03  0.7818608E-02  0.9396357E-01
          1   -1    0    0  501    0  0.00000000000E+00  0.00000000000E+00  0.30944511727E+04  0.30944511727E+04  0.50400000000E-02 0. -1.
         -1   -1    0    0    0  501 -0.00000000000E+00 -0.00000000000E+00 -0.32449525290E+03  0.32449525294E+03  0.50400000000E-02 0.  1.
    8880023    1    1    2    0    0 -0.35780324564E+02 -0.73663971633E+03  0.68710841535E+03  0.12040957121E+04  0.65864270000E+03 0.  1.
    8880022    1    1    2    0    0  0.35780324564E+02  0.73663971633E+03  0.20828475044E+04  0.22148507135E+04  0.15294330000E+03 0.  0.
<mgrwt>
<rscale>  0 0.92376054E+03</rscale>
<asrwt>0</asrwt>
<pdfrwt beam="1">  1        1 0.47606942E+00 0.98880155E+03</pdfrwt>
<pdfrwt beam="2">  1       -1 0.49922346E-01 0.98880155E+03</pdfrwt>
<totfact> 0.21157258E+00</totfact>
</mgrwt>
</event>
<event>
 4    5  0.7214169E-008  0.8992971E+03  0.7818608E-02  0.9527161E-01
          1   -1    0    0  501    0  0.00000000000E+00  0.00000000000E+00  0.15465338734E+04  0.15465338734E+04  0.50400000000E-02 0. -1.
         -1   -1    0    0    0  501 -0.00000000000E+00 -0.00000000000E+00 -0.97342710798E+03  0.97342710799E+03  0.50400000000E-02 0.  1.
    8880023    1    1    2    0    0  0.50759111603E+03  0.34245618939E+03 -0.67293654434E+03  0.11232002411E+04  0.65864270000E+03 0.  1.
    8880022    1    1    2    0    0 -0.50759111603E+03 -0.34245618939E+03  0.12460433098E+04  0.13967607403E+04  0.15294330000E+03 0.  0.
<mgrwt>
<rscale>  0 0.82310631E+03</rscale>
<asrwt>0</asrwt>
<pdfrwt beam="1">  1        1 0.23792829E+00 0.89929705E+03</pdfrwt>
<pdfrwt beam="2">  1       -1 0.14975802E+00 0.89929705E+03</pdfrwt>
<totfact> 0.21728510E+00</totfact>
</mgrwt>
</event>
<event>
 4    5  0.7214169E-008  0.1073755E+04  0.7818608E-02  0.9290855E-01
          1   -1    0    0  501    0  0.00000000000E+00  0.00000000000E+00  0.23480347358E+04  0.23480347358E+04  0.50400000000E-02 0. -1.
         -1   -1    0    0    0  501 -0.00000000000E+00 -0.00000000000E+00 -0.10320166498E+04  0.10320166498E+04  0.50400000000E-02 0.  1.
    8880023    1    1    2    0    0  0.69947256402E+03  0.47945580297E+03 -0.63482074933E+03  0.12473761762E+04  0.65864270000E+03 0.  0.
    8880022    1    1    2    0    0 -0.69947256402E+03 -0.47945580297E+03  0.19508388353E+04  0.21326752095E+04  0.15294330000E+03 0.  0.
<mgrwt>
<rscale>  0 0.10162914E+04</rscale>
<asrwt>0</asrwt>
<pdfrwt beam="1">  1        1 0.36123612E+00 0.10737551E+04</pdfrwt>
<pdfrwt beam="2">  1       -1 0.15877179E+00 0.10737551E+04</pdfrwt>
<totfact> 0.51707702E-01</totfact>
</mgrwt>
</event>
<event>
 4    5  0.7214169E-008  0.6827107E+03  0.7818608E-02  0.1007830E+00
          1   -1    0    0  501    0  0.00000000000E+00  0.00000000000E+00  0.11329083025E+04  0.11329083025E+04  0.50400000000E-02 0. -1.
         -1   -1    0    0    0  501 -0.00000000000E+00 -0.00000000000E+00 -0.40730335508E+03  0.40730335511E+03  0.50400000000E-02 0.  1.
    8880023    1    1    2    0    0  0.94520817166E+02  0.15280525887E+03 -0.92327242692E+02  0.68892536462E+03  0.65864270000E+03 0.  1.
    8880022    1    1    2    0    0 -0.94520817166E+02 -0.15280525887E+03  0.81793219007E+03  0.85128629297E+03  0.15294330000E+03 0.  0.
<mgrwt>
<rscale>  0 0.52346219E+03</rscale>
<asrwt>0</asrwt>
<pdfrwt beam="1">  1        1 0.17429358E+00 0.68271065E+03</pdfrwt>
<pdfrwt beam="2">  1       -1 0.62662055E-01 0.68271065E+03</pdfrwt>
<totfact> 0.32057659E+01</totfact>
</mgrwt>
</event>
<event>
 4    5  0.7214169E-008  0.1029088E+04  0.7818608E-02  0.9344453E-01
         -1   -1    0    0    0  501 -0.00000000000E+00  0.00000000000E+00  0.38737468522E+03  0.38737468525E+03  0.50400000000E-02 0.  1.
          1   -1    0    0  501    0  0.00000000000E+00 -0.00000000000E+00 -0.29198237260E+04  0.29198237260E+04  0.50400000000E-02 0. -1.
    8880023    1    1    2    0    0  0.66695970202E+03 -0.42470781837E+03 -0.54876187387E+03  0.11662597376E+04  0.65864270000E+03 0.  0.
    8880022    1    1    2    0    0 -0.66695970202E+03  0.42470781837E+03 -0.19836871669E+04  0.21409386736E+04  0.15294330000E+03 0. -1.
<mgrwt>
<rscale>  0 0.96791410E+03</rscale>
<asrwt>0</asrwt>
<pdfrwt beam="1">  1        1 0.44920364E+00 0.10290880E+04</pdfrwt>
<pdfrwt beam="2">  1       -1 0.59596107E-01 0.10290880E+04</pdfrwt>
<totfact> 0.19941737E+00</totfact>
</mgrwt>
</event>
<event>
 4    5  0.7214169E-008  0.7254801E+03  0.7818608E-02  0.9904461E-01
          1   -1    0    0  501    0  0.00000000000E+00  0.00000000000E+00  0.48220726090E+03  0.48220726092E+03  0.50400000000E-02 0. -1.
         -1   -1    0    0    0  501 -0.00000000000E+00 -0.00000000000E+00 -0.14638627609E+04  0.14638627609E+04  0.50400000000E-02 0.  1.
    8880023    1    1    2    0    0  0.20829820020E+03 -0.22163700526E+03 -0.12943588840E+04  0.14838080163E+04  0.65864270000E+03 0.  1.
    8880022    1    1    2    0    0 -0.20829820020E+03  0.22163700526E+03  0.31270338406E+03  0.46226200550E+03  0.15294330000E+03 0.  0.
<mgrwt>
<rscale>  0 0.60045550E+03</rscale>
<asrwt>0</asrwt>
<pdfrwt beam="1">  1        1 0.74185733E-01 0.72548005E+03</pdfrwt>
<pdfrwt beam="2">  1       -1 0.22520965E+00 0.72548005E+03</pdfrwt>
<totfact> 0.49285118E+00</totfact>
</mgrwt>
</event>
<event>
 4    5  0.7214169E-008  0.7753476E+03  0.7818608E-02  0.9766881E-01
          1   -1    0    0  501    0  0.00000000000E+00  0.00000000000E+00  0.23250756154E+04  0.23250756154E+04  0.50400000000E-02 0. -1.
         -1   -1    0    0    0  501 -0.00000000000E+00 -0.00000000000E+00 -0.32243896890E+04  0.32243896890E+04  0.50400000000E-02 0.  1.
    8880023    1    1    2    0    0 -0.31947531719E+03  0.25551768861E+03 -0.31565424904E+04  0.32503729736E+04  0.65864270000E+03 0.  1.
    8880022    1    1    2    0    0  0.31947531719E+03 -0.25551768861E+03  0.22572284167E+04  0.22990923309E+04  0.15294330000E+03 0.  0.
<mgrwt>
<rscale>  0 0.67170583E+03</rscale>
<asrwt>0</asrwt>
<pdfrwt beam="1">  1        1 0.35770394E+00 0.77534765E+03</pdfrwt>
<pdfrwt beam="2">  1       -1 0.49605995E+00 0.77534765E+03</pdfrwt>
<totfact> 0.31136069E-03</totfact>
</mgrwt>
</event>
<event>
 4    5  0.7214169E-008  0.8716752E+03  0.7818608E-02  0.9573124E-01
          1   -1    0    0  501    0  0.00000000000E+00  0.00000000000E+00  0.72170526078E+03  0.72170526080E+03  0.50400000000E-02 0. -1.
         -1   -1    0    0    0  501 -0.00000000000E+00 -0.00000000000E+00 -0.93381462093E+03  0.93381462095E+03  0.50400000000E-02 0.  1.
    8880023    1    1    2    0    0 -0.38036774005E+03  0.42582600688E+03 -0.49261169921E+03  0.10012411789E+04  0.65864270000E+03 0. -1.
    8880022    1    1    2    0    0  0.38036774005E+03 -0.42582600688E+03  0.28050233905E+03  0.65427870287E+03  0.15294330000E+03 0. -1.
<mgrwt>
<rscale>  0 0.79100864E+03</rscale>
<asrwt>0</asrwt>
<pdfrwt beam="1">  1        1 0.11103158E+00 0.87167518E+03</pdfrwt>
<pdfrwt beam="2">  1       -1 0.14366379E+00 0.87167518E+03</pdfrwt>
<totfact> 0.10339873E+01</totfact>
</mgrwt>
</event>
<event>
 4    5  0.7214169E-008  0.1547839E+04  0.7818608E-02  0.8876573E-01
          1   -1    0    0  501    0  0.00000000000E+00  0.00000000000E+00  0.37421450596E+04  0.37421450596E+04  0.50400000000E-02 0. -1.
         -1   -1    0    0    0  501 -0.00000000000E+00 -0.00000000000E+00 -0.73260197998E+03  0.73260198000E+03  0.50400000000E-02 0.  1.
    8880023    1    1    2    0    0  0.11502071857E+04 -0.79938735963E+03  0.55464259473E+03  0.16442126794E+04  0.65864270000E+03 0.  0.
    8880022    1    1    2    0    0 -0.11502071857E+04  0.79938735963E+03  0.24549004849E+04  0.28305343603E+04  0.15294330000E+03 0.  0.
<mgrwt>
<rscale>  0 0.15119071E+04</rscale>
<asrwt>0</asrwt>
<pdfrwt beam="1">  1        1 0.57571463E+00 0.15478394E+04</pdfrwt>
<pdfrwt beam="2">  1       -1 0.11270800E+00 0.15478394E+04</pdfrwt>
<totfact> 0.10988381E-01</totfact>
</mgrwt>
</event>
<event>
 4    5  0.7214169E-008  0.8262982E+03  0.7818608E-02  0.9656578E-01
         -1   -1    0    0    0  501 -0.00000000000E+00  0.00000000000E+00  0.45326102982E+03  0.45326102985E+03  0.50400000000E-02 0.  1.
          1   -1    0    0  501    0  0.00000000000E+00 -0.00000000000E+00 -0.26884514200E+04  0.26884514200E+04  0.50400000000E-02 0. -1.
    8880023    1    1    2    0    0  0.49055689443E+03 -0.91172539768E+02  0.20386836717E+02  0.82654965251E+03  0.65864270000E+03 0.  0.
    8880022    1    1    2    0    0 -0.49055689443E+03  0.91172539768E+02 -0.22555772269E+04  0.23151627973E+04  0.15294330000E+03 0.  0.
<mgrwt>
<rscale>  0 0.73662008E+03</rscale>
<asrwt>0</asrwt>
<pdfrwt beam="1">  1        1 0.41360790E+00 0.82629819E+03</pdfrwt>
<pdfrwt beam="2">  1       -1 0.69732468E-01 0.82629819E+03</pdfrwt>
<totfact> 0.21873086E+00</totfact>
</mgrwt>
</event>
<event>
 4    5  0.7214169E-008  0.7528867E+03  0.7818608E-02  0.9823884E-01
         -1   -1    0    0    0  501 -0.00000000000E+00  0.00000000000E+00  0.21344738390E+04  0.21344738390E+04  0.50400000000E-02 0.  1.
          1   -1    0    0  501    0  0.00000000000E+00 -0.00000000000E+00 -0.97158287750E+03  0.97158287752E+03  0.50400000000E-02 0. -1.
    8880023    1    1    2    0    0 -0.32003079243E+03 -0.17495258658E+03  0.20234429910E+04  0.21589719451E+04  0.65864270000E+03 0.  1.
    8880022    1    1    2    0    0  0.32003079243E+03  0.17495258658E+03 -0.86055202953E+03  0.94708477139E+03  0.15294330000E+03 0.  0.
<mgrwt>
<rscale>  0 0.64096403E+03</rscale>
<asrwt>0</asrwt>
<pdfrwt beam="1">  1        1 0.14947429E+00 0.75288666E+03</pdfrwt>
<pdfrwt beam="2">  1       -1 0.32838059E+00 0.75288666E+03</pdfrwt>
<totfact> 0.36682747E-01</totfact>
</mgrwt>
</event>
<event>
 4    5  0.7214169E-008  0.8133901E+03  0.7818608E-02  0.9682558E-01
          1   -1    0    0  501    0  0.00000000000E+00  0.00000000000E+00  0.11667378990E+04  0.11667378990E+04  0.50400000000E-02 0. -1.
         -1   -1    0    0    0  501 -0.00000000000E+00 -0.00000000000E+00 -0.38534942809E+03  0.38534942812E+03  0.50400000000E-02 0.  1.
    8880023    1    1    2    0    0 -0.38035026202E+03  0.28831753453E+03  0.62907613105E+03  0.10282705420E+04  0.65864270000E+03 0. -1.
    8880022    1    1    2    0    0  0.38035026202E+03 -0.28831753453E+03  0.15231233986E+03  0.52381678517E+03  0.15294330000E+03 0.  0.
<mgrwt>
<rscale>  0 0.72064833E+03</rscale>
<asrwt>0</asrwt>
<pdfrwt beam="1">  1        1 0.17949813E+00 0.81339015E+03</pdfrwt>
<pdfrwt beam="2">  1       -1 0.59284529E-01 0.81339015E+03</pdfrwt>
<totfact> 0.33288007E+01</totfact>
</mgrwt>
</event>
<event>
 4    5  0.7214169E-008  0.9115946E+03  0.7818608E-02  0.9507669E-01
          1   -1    0    0  501    0  0.00000000000E+00  0.00000000000E+00  0.16303776371E+04  0.16303776371E+04  0.50400000000E-02 0. -1.
         -1   -1    0    0    0  501 -0.00000000000E+00 -0.00000000000E+00 -0.81720183155E+03  0.81720183157E+03  0.50400000000E-02 0.  1.
    8880023    1    1    2    0    0 -0.57951132688E+03 -0.24771196449E+03 -0.45825960920E+03  0.10202973444E+04  0.65864270000E+03 0.  1.
    8880022    1    1    2    0    0  0.57951132688E+03  0.24771196449E+03  0.12714354148E+04  0.14272821243E+04  0.15294330000E+03 0.  0.
<mgrwt>
<rscale>  0 0.83720769E+03</rscale>
<asrwt>0</asrwt>
<pdfrwt beam="1">  1        1 0.25082732E+00 0.91159465E+03</pdfrwt>
<pdfrwt beam="2">  1       -1 0.12572336E+00 0.91159465E+03</pdfrwt>
<totfact> 0.29901076E+00</totfact>
</mgrwt>
</event>
<event>
 4    5  0.7214169E-008  0.8099602E+03  0.7818608E-02  0.9689660E-01
          1   -1    0    0  501    0  0.00000000000E+00  0.00000000000E+00  0.22698504585E+04  0.22698504585E+04  0.50400000000E-02 0. -1.
         -1   -1    0    0    0  501 -0.00000000000E+00 -0.00000000000E+00 -0.42647388340E+03  0.42647388343E+03  0.50400000000E-02 0.  1.
    8880023    1    1    2    0    0 -0.46893174865E+03  0.48252095879E+02  0.23636999258E+02  0.81030498187E+03  0.65864270000E+03 0.  1.
    8880022    1    1    2    0    0  0.46893174865E+03 -0.48252095879E+02  0.18197395758E+04  0.18860193601E+04  0.15294330000E+03 0.  0.
<mgrwt>
<rscale>  0 0.71635785E+03</rscale>
<asrwt>0</asrwt>
<pdfrwt beam="1">  1        1 0.34920776E+00 0.80996016E+03</pdfrwt>
<pdfrwt beam="2">  1       -1 0.65611367E-01 0.80996016E+03</pdfrwt>
<totfact> 0.47980917E+00</totfact>
</mgrwt>
</event>
<event>
 4    5  0.7214169E-008  0.1174339E+04  0.7818608E-02  0.9182479E-01
          1   -1    0    0  501    0  0.00000000000E+00  0.00000000000E+00  0.22615773942E+04  0.22615773942E+04  0.50400000000E-02 0. -1.
         -1   -1    0    0    0  501 -0.00000000000E+00 -0.00000000000E+00 -0.10722155289E+04  0.10722155289E+04  0.50400000000E-02 0.  1.
    8880023    1    1    2    0    0  0.97221651376E+03 -0.75690080609E+01 -0.57951450195E+03  0.13095455333E+04  0.65864270000E+03 0.  0.
    8880022    1    1    2    0    0 -0.97221651376E+03  0.75690080609E+01  0.17688763673E+04  0.20242473898E+04  0.15294330000E+03 0.  0.
<mgrwt>
<rscale>  0 0.11236117E+04</rscale>
<asrwt>0</asrwt>
<pdfrwt beam="1">  1        1 0.34793499E+00 0.11743392E+04</pdfrwt>
<pdfrwt beam="2">  1       -1 0.16495623E+00 0.11743392E+04</pdfrwt>
<totfact> 0.52381222E-01</totfact>
</mgrwt>
</event>
<event>
 4    5  0.7214169E-008  0.1226238E+04  0.7818608E-02  0.9132030E-01
          1   -1    0    0  501    0  0.00000000000E+00  0.00000000000E+00  0.39988142066E+03  0.39988142069E+03  0.50400000000E-02 0. -1.
         -1   -1    0    0    0  501 -0.00000000000E+00 -0.00000000000E+00 -0.44261773366E+04  0.44261773366E+04  0.50400000000E-02 0.  1.
    8880023    1    1    2    0    0 -0.25226421600E+03  0.10031014167E+04 -0.33831180763E+04  0.35984924359E+04  0.65864270000E+03 0. -1.
    8880022    1    1    2    0    0  0.25226421600E+03 -0.10031014167E+04 -0.64317783963E+03  0.12275663214E+04  0.15294330000E+03 0.  0.
<mgrwt>
<rscale>  0 0.11783400E+04</rscale>
<asrwt>0</asrwt>
<pdfrwt beam="1">  1        1 0.61520222E-01 0.12262381E+04</pdfrwt>
<pdfrwt beam="2">  1       -1 0.68095032E+00 0.12262381E+04</pdfrwt>
<totfact> 0.13537325E-02</totfact>
</mgrwt>
</event>
<event>
 4    5  0.7214169E-008  0.1638010E+04  0.7818608E-02  0.8817869E-01
         -1   -1    0    0    0  501 -0.00000000000E+00  0.00000000000E+00  0.26501280460E+04  0.26501280460E+04  0.50400000000E-02 0.  1.
          1   -1    0    0  501    0  0.00000000000E+00 -0.00000000000E+00 -0.14259831040E+04  0.14259831040E+04  0.50400000000E-02 0. -1.
    8880023    1    1    2    0    0  0.75828705967E+03  0.12939350330E+04  0.18258635363E+04  0.24529278411E+04  0.65864270000E+03 0.  0.
    8880022    1    1    2    0    0 -0.75828705967E+03 -0.12939350330E+04 -0.60171859433E+03  0.16231833089E+04  0.15294330000E+03 0.  0.
<mgrwt>
<rscale>  0 0.16043689E+04</rscale>
<asrwt>0</asrwt>
<pdfrwt beam="1">  1        1 0.21938201E+00 0.16380102E+04</pdfrwt>
<pdfrwt beam="2">  1       -1 0.40771201E+00 0.16380102E+04</pdfrwt>
<totfact> 0.43447598E-02</totfact>
</mgrwt>
</event>
<event>
 4    5  0.7214169E-008  0.9953123E+03  0.7818608E-02  0.9387717E-01
         -1   -1    0    0    0  501 -0.00000000000E+00  0.00000000000E+00  0.22895786984E+04  0.22895786984E+04  0.50400000000E-02 0.  1.
          1   -1    0    0  501    0  0.00000000000E+00 -0.00000000000E+00 -0.78126952302E+03  0.78126952304E+03  0.50400000000E-02 0. -1.
    8880023    1    1    2    0    0  0.71466594446E+03 -0.21468318508E+03  0.19507186293E+04  0.21899656753E+04  0.65864270000E+03 0.  0.
    8880022    1    1    2    0    0 -0.71466594446E+03  0.21468318508E+03 -0.44240945392E+03  0.88088254612E+03  0.15294330000E+03 0.  0.
<mgrwt>
<rscale>  0 0.93093497E+03</rscale>
<asrwt>0</asrwt>
<pdfrwt beam="1">  1        1 0.12019531E+00 0.99531226E+03</pdfrwt>
<pdfrwt beam="2">  1       -1 0.35224288E+00 0.99531226E+03</pdfrwt>
<totfact> 0.35217751E-01</totfact>
</mgrwt>
</event>
<event>
 4    5  0.7214169E-008  0.1599746E+04  0.7818608E-02  0.8842234E-01
          1   -1    0    0  501    0  0.00000000000E+00  0.00000000000E+00  0.26178691811E+04  0.26178691811E+04  0.50400000000E-02 0. -1.
         -1   -1    0    0    0  501 -0.00000000000E+00 -0.00000000000E+00 -0.14141976962E+04  0.14141976962E+04  0.50400000000E-02 0.  1.
    8880023    1    1    2    0    0  0.33817116376E+03  0.14181038688E+04 -0.59936389160E+03  0.17083400128E+04  0.65864270000E+03 0.  0.
    8880022    1    1    2    0    0 -0.33817116376E+03 -0.14181038688E+04  0.18030353766E+04  0.23237268645E+04  0.15294330000E+03 0.  0.
<mgrwt>
<rscale>  0 0.15651721E+04</rscale>
<asrwt>0</asrwt>
<pdfrwt beam="1">  1        1 0.40274910E+00 0.15997464E+04</pdfrwt>
<pdfrwt beam="2">  1       -1 0.21756888E+00 0.15997464E+04</pdfrwt>
<totfact> 0.11955013E-01</totfact>
</mgrwt>
</event>
<event>
 4    5  0.7214169E-008  0.9361021E+03  0.7818608E-02  0.9470399E-01
         -1   -1    0    0    0  501 -0.00000000000E+00  0.00000000000E+00  0.24195706689E+04  0.24195706689E+04  0.50400000000E-02 0.  1.
          1   -1    0    0  501    0  0.00000000000E+00 -0.00000000000E+00 -0.50563479888E+03  0.50563479890E+03  0.50400000000E-02 0. -1.
    8880023    1    1    2    0    0 -0.50972869038E+03 -0.42737993363E+03  0.20276005427E+04  0.22332601981E+04  0.65864270000E+03 0.  0.
    8880022    1    1    2    0    0  0.50972869038E+03  0.42737993363E+03 -0.11366467265E+03  0.69194526972E+03  0.15294330000E+03 0.  0.
<mgrwt>
<rscale>  0 0.86501840E+03</rscale>
<asrwt>0</asrwt>
<pdfrwt beam="1">  1        1 0.77789969E-01 0.93610211E+03</pdfrwt>
<pdfrwt beam="2">  1       -1 0.37224164E+00 0.93610211E+03</pdfrwt>
<totfact> 0.49786860E-01</totfact>
</mgrwt>
</event>
<event>
 4    5  0.7214169E-008  0.8252909E+03  0.7818608E-02  0.9658565E-01
         -1   -1    0    0    0  501 -0.00000000000E+00  0.00000000000E+00  0.10943923708E+04  0.10943923708E+04  0.50400000000E-02 0.  1.
          1   -1    0    0  501    0  0.00000000000E+00 -0.00000000000E+00 -0.16764873775E+04  0.16764873775E+04  0.50400000000E-02 0. -1.
    8880023    1    1    2    0    0 -0.47254561324E+03 -0.15490494856E+03  0.88748946157E+03  0.12119169321E+04  0.65864270000E+03 0.  1.
    8880022    1    1    2    0    0  0.47254561324E+03  0.15490494856E+03 -0.14695844683E+04  0.15589628162E+04  0.15294330000E+03 0.  0.
<mgrwt>
<rscale>  0 0.73538308E+03</rscale>
<asrwt>0</asrwt>
<pdfrwt beam="1">  1        1 0.25792113E+00 0.82529092E+03</pdfrwt>
<pdfrwt beam="2">  1       -1 0.16836806E+00 0.82529092E+03</pdfrwt>
<totfact> 0.12976224E+00</totfact>
</mgrwt>
</event>
<event>
 4    5  0.7214169E-008  0.1439541E+04  0.7818608E-02  0.8953552E-01
         -1   -1    0    0    0  501 -0.00000000000E+00  0.00000000000E+00  0.13941343551E+04  0.13941343551E+04  0.50400000000E-02 0.  1.
          1   -1    0    0  501    0  0.00000000000E+00 -0.00000000000E+00 -0.18494058499E+04  0.18494058500E+04  0.50400000000E-02 0. -1.
    8880023    1    1    2    0    0 -0.12784363558E+04  0.63793174438E+02 -0.10909251145E+04  0.18062106457E+04  0.65864270000E+03 0.  0.
    8880022    1    1    2    0    0  0.12784363558E+04 -0.63793174438E+02  0.63565361962E+03  0.14373295593E+04  0.15294330000E+03 0.  0.
<mgrwt>
<rscale>  0 0.14003688E+04</rscale>
<asrwt>0</asrwt>
<pdfrwt beam="1">  1        1 0.28452398E+00 0.14395413E+04</pdfrwt>
<pdfrwt beam="2">  1       -1 0.21448221E+00 0.14395413E+04</pdfrwt>
<totfact> 0.43014601E-01</totfact>
</mgrwt>
</event>
<event>
 4    5  0.7214169E-008  0.7542665E+03  0.7818608E-02  0.9820184E-01
          1   -1    0    0  501    0  0.00000000000E+00  0.00000000000E+00  0.21407273056E+04  0.21407273056E+04  0.50400000000E-02 0. -1.
         -1   -1    0    0    0  501 -0.00000000000E+00 -0.00000000000E+00 -0.26120034384E+03  0.26120034389E+03  0.50400000000E-02 0.  1.
    8880023    1    1    2    0    0 -0.67249860039E+02  0.36136569036E+03  0.36875971399E+03  0.83958420589E+03  0.65864270000E+03 0.  1.
    8880022    1    1    2    0    0  0.67249860039E+02 -0.36136569036E+03  0.15107672478E+04  0.15623434436E+04  0.15294330000E+03 0.  0.
<mgrwt>
<rscale>  0 0.64290535E+03</rscale>
<asrwt>0</asrwt>
<pdfrwt beam="1">  1        1 0.32934266E+00 0.75426647E+03</pdfrwt>
<pdfrwt beam="2">  1       -1 0.40184668E-01 0.75426647E+03</pdfrwt>
<totfact> 0.15080005E+01</totfact>
</mgrwt>
</event>
<event>
 4    5  0.7214169E-008  0.8222556E+03  0.7818608E-02  0.9664593E-01
         -1   -1    0    0    0  501 -0.00000000000E+00  0.00000000000E+00  0.54925903375E+03  0.54925903378E+03  0.50400000000E-02 0.  1.
          1   -1    0    0  501    0  0.00000000000E+00 -0.00000000000E+00 -0.10553149601E+04  0.10553149601E+04  0.50400000000E-02 0. -1.
    8880023    1    1    2    0    0  0.32446646642E+03  0.37015618367E+03  0.77583887600E+02  0.82590771519E+03  0.65864270000E+03 0.  1.
    8880022    1    1    2    0    0 -0.32446646642E+03 -0.37015618367E+03 -0.58363981394E+03  0.77866627869E+03  0.15294330000E+03 0.  0.
<mgrwt>
<rscale>  0 0.73164628E+03</rscale>
<asrwt>0</asrwt>
<pdfrwt beam="1">  1        1 0.16235615E+00 0.82225561E+03</pdfrwt>
<pdfrwt beam="2">  1       -1 0.84501390E-01 0.82225561E+03</pdfrwt>
<totfact> 0.19412701E+01</totfact>
</mgrwt>
</event>
<event>
 4    5  0.7214169E-008  0.7662055E+03  0.7818608E-02  0.9789299E-01
         -1   -1    0    0    0  501 -0.00000000000E+00  0.00000000000E+00  0.67650898421E+03  0.67650898423E+03  0.50400000000E-02 0.  1.
          1   -1    0    0  501    0  0.00000000000E+00 -0.00000000000E+00 -0.16083704672E+04  0.16083704672E+04  0.50400000000E-02 0. -1.
    8880023    1    1    2    0    0  0.30260530673E+01 -0.39147346104E+03  0.41680632500E+03  0.87223755165E+03  0.65864270000E+03 0.  0.
    8880022    1    1    2    0    0 -0.30260530673E+01  0.39147346104E+03 -0.13486678079E+04  0.14126418997E+04  0.15294330000E+03 0.  0.
<mgrwt>
<rscale>  0 0.65939985E+03</rscale>
<asrwt>0</asrwt>
<pdfrwt beam="1">  1        1 0.24744161E+00 0.76620548E+03</pdfrwt>
<pdfrwt beam="2">  1       -1 0.10407831E+00 0.76620548E+03</pdfrwt>
<totfact> 0.49803548E+00</totfact>
</mgrwt>
</event>
<event>
 4    5  0.7214169E-008  0.9488372E+03  0.7818608E-02  0.9451789E-01
         -1   -1    0    0    0  501 -0.00000000000E+00  0.00000000000E+00  0.18448420208E+04  0.18448420208E+04  0.50400000000E-02 0.  1.
          1   -1    0    0  501    0  0.00000000000E+00 -0.00000000000E+00 -0.38022017304E+03  0.38022017308E+03  0.50400000000E-02 0. -1.
    8880023    1    1    2    0    0 -0.68080978312E+03  0.54587641787E+02  0.10336252722E+04  0.14030941455E+04  0.65864270000E+03 0.  1.
    8880022    1    1    2    0    0  0.68080978312E+03 -0.54587641787E+02  0.43099657550E+03  0.82196804837E+03  0.15294330000E+03 0.  0.
<mgrwt>
<rscale>  0 0.87933478E+03</rscale>
<asrwt>0</asrwt>
<pdfrwt beam="1">  1        1 0.58495411E-01 0.94883717E+03</pdfrwt>
<pdfrwt beam="2">  1       -1 0.28382185E+00 0.94883717E+03</pdfrwt>
<totfact> 0.27492680E+00</totfact>
</mgrwt>
</event>
<event>
 4    5  0.7214169E-008  0.7105232E+03  0.7818608E-02  0.9956063E-01
         -1   -1    0    0    0  501 -0.00000000000E+00  0.00000000000E+00  0.15180637978E+04  0.15180637978E+04  0.50400000000E-02 0.  1.
          1   -1    0    0  501    0  0.00000000000E+00 -0.00000000000E+00 -0.11457421598E+04  0.11457421598E+04  0.50400000000E-02 0. -1.
    8880023    1    1    2    0    0 -0.17732290451E+03 -0.19897148841E+03  0.14114469605E+04  0.15801980237E+04  0.65864270000E+03 0.  1.
    8880022    1    1    2    0    0  0.17732290451E+03  0.19897148841E+03 -0.10391253225E+04  0.10836079340E+04  0.15294330000E+03 0.  0.
<mgrwt>
<rscale>  0 0.57619492E+03</rscale>
<asrwt>0</asrwt>
<pdfrwt beam="1">  1        1 0.17626803E+00 0.71052324E+03</pdfrwt>
<pdfrwt beam="2">  1       -1 0.23354828E+00 0.71052324E+03</pdfrwt>
<totfact> 0.11100843E+00</totfact>
</mgrwt>
</event>
<event>
 4    5  0.7214169E-008  0.1555460E+04  0.7818608E-02  0.8871435E-01
         -1   -1    0    0    0  501 -0.00000000000E+00  0.00000000000E+00  0.14975271731E+04  0.14975271732E+04  0.50400000000E-02 0.  1.
          1   -1    0    0  501    0  0.00000000000E+00 -0.00000000000E+00 -0.36068480642E+04  0.36068480642E+04  0.50400000000E-02 0. -1.
    8880023    1    1    2    0    0 -0.10771424240E+04 -0.90852113912E+03  0.88637152782E+03  0.17902824228E+04  0.65864270000E+03 0.  0.
    8880022    1    1    2    0    0  0.10771424240E+04  0.90852113912E+03 -0.29956924189E+04  0.33140928146E+04  0.15294330000E+03 0.  0.
<mgrwt>
<rscale>  0 0.15197345E+04</rscale>
<asrwt>0</asrwt>
<pdfrwt beam="1">  1        1 0.55489970E+00 0.15554603E+04</pdfrwt>
<pdfrwt beam="2">  1       -1 0.23038880E+00 0.15554603E+04</pdfrwt>
<totfact> 0.18181890E-02</totfact>
</mgrwt>
</event>
<event>
 4    5  0.7214169E-008  0.1324916E+04  0.7818608E-02  0.9044336E-01
         -1   -1    0    0    0  501 -0.00000000000E+00  0.00000000000E+00  0.81334316354E+03  0.81334316356E+03  0.50400000000E-02 0.  1.
          1   -1    0    0  501    0  0.00000000000E+00 -0.00000000000E+00 -0.29135973059E+04  0.29135973059E+04  0.50400000000E-02 0. -1.
    8880023    1    1    2    0    0  0.10530595862E+04  0.46114859299E+03  0.32471513970E+01  0.13249200984E+04  0.65864270000E+03 0.  1.
    8880022    1    1    2    0    0 -0.10530595862E+04 -0.46114859299E+03 -0.21035012938E+04  0.24020203710E+04  0.15294330000E+03 0.  0.
<mgrwt>
<rscale>  0 0.12815364E+04</rscale>
<asrwt>0</asrwt>
<pdfrwt beam="1">  1        1 0.44824574E+00 0.13249161E+04</pdfrwt>
<pdfrwt beam="2">  1       -1 0.12512972E+00 0.13249161E+04</pdfrwt>
<totfact> 0.37618819E-01</totfact>
</mgrwt>
</event>
<event>
 4    5  0.7214169E-008  0.1026204E+04  0.7818608E-02  0.9348050E-01
          1   -1    0    0  501    0  0.00000000000E+00  0.00000000000E+00  0.10314789373E+04  0.10314789373E+04  0.50400000000E-02 0. -1.
         -1   -1    0    0    0  501 -0.00000000000E+00 -0.00000000000E+00 -0.11076329261E+04  0.11076329261E+04  0.50400000000E-02 0.  1.
    8880023    1    1    2    0    0  0.61287344500E+03 -0.49363068780E+03 -0.59305272427E+03  0.11852454832E+04  0.65864270000E+03 0.  1.
    8880022    1    1    2    0    0 -0.61287344500E+03  0.49363068780E+03  0.51689873543E+03  0.95386638018E+03  0.15294330000E+03 0.  0.
<mgrwt>
<rscale>  0 0.96477148E+03</rscale>
<asrwt>0</asrwt>
<pdfrwt beam="1">  1        1 0.15868907E+00 0.10262043E+04</pdfrwt>
<pdfrwt beam="2">  1       -1 0.17040507E+00 0.10262043E+04</pdfrwt>
<totfact> 0.34948791E+00</totfact>
</mgrwt>
</event>
<event>
 4    5  0.7214169E-008  0.1313201E+04  0.7818608E-02  0.9054243E-01
          1   -1    0    0  501    0  0.00000000000E+00  0.00000000000E+00  0.30577990592E+04  0.30577990592E+04  0.50400000000E-02 0. -1.
         -1   -1    0    0    0  501 -0.00000000000E+00 -0.00000000000E+00 -0.88893957803E+03  0.88893957804E+03  0.50400000000E-02 0.  1.
    8880023    1    1    2    0    0 -0.11003372154E+04  0.28274489257E+03 -0.18732426284E+03  0.13264943451E+04  0.65864270000E+03 0.  1.
    8880022    1    1    2    0    0  0.11003372154E+04 -0.28274489257E+03  0.23561837440E+04  0.26202442921E+04  0.15294330000E+03 0.  0.
<mgrwt>
<rscale>  0 0.12693344E+04</rscale>
<asrwt>0</asrwt>
<pdfrwt beam="1">  1        1 0.47043062E+00 0.13132010E+04</pdfrwt>
<pdfrwt beam="2">  1       -1 0.13675994E+00 0.13132010E+04</pdfrwt>
<totfact> 0.23617654E-01</totfact>
</mgrwt>
</event>
<event>
 4    5  0.7214169E-008  0.7338291E+03  0.7818608E-02  0.9878301E-01
         -1   -1    0    0    0  501 -0.00000000000E+00  0.00000000000E+00  0.88066042130E+03  0.88066042132E+03  0.50400000000E-02 0.  1.
          1   -1    0    0  501    0  0.00000000000E+00 -0.00000000000E+00 -0.14186702278E+04  0.14186702278E+04  0.50400000000E-02 0. -1.
    8880023    1    1    2    0    0 -0.27435073830E+03  0.17154199522E+03  0.69786423729E+03  0.10126794575E+04  0.65864270000E+03 0.  0.
    8880022    1    1    2    0    0  0.27435073830E+03 -0.17154199522E+03 -0.12358740438E+04  0.12866511916E+04  0.15294330000E+03 0.  0.
<mgrwt>
<rscale>  0 0.61324524E+03</rscale>
<asrwt>0</asrwt>
<pdfrwt beam="1">  1        1 0.21825696E+00 0.73382913E+03</pdfrwt>
<pdfrwt beam="2">  1       -1 0.13548622E+00 0.73382913E+03</pdfrwt>
<totfact> 0.35574497E+00</totfact>
</mgrwt>
</event>
<event>
 4    5  0.7214169E-008  0.7698524E+03  0.7818608E-02  0.9780237E-01
         -1   -1    0    0    0  501 -0.00000000000E+00  0.00000000000E+00  0.26081224058E+04  0.26081224058E+04  0.50400000000E-02 0.  1.
          1   -1    0    0  501    0  0.00000000000E+00 -0.00000000000E+00 -0.14368801546E+04  0.14368801546E+04  0.50400000000E-02 0. -1.
    8880023    1    1    2    0    0  0.17942054284E+03 -0.35590844348E+03  0.25175505251E+04  0.26326286111E+04  0.65864270000E+03 0.  1.
    8880022    1    1    2    0    0 -0.17942054284E+03  0.35590844348E+03 -0.13463082739E+04  0.14123739493E+04  0.15294330000E+03 0.  0.
<mgrwt>
<rscale>  0 0.66433985E+03</rscale>
<asrwt>0</asrwt>
<pdfrwt beam="1">  1        1 0.22105849E+00 0.76985243E+03</pdfrwt>
<pdfrwt beam="2">  1       -1 0.40124960E+00 0.76985243E+03</pdfrwt>
<totfact> 0.55129554E-02</totfact>
</mgrwt>
</event>
<event>
 4    5  0.7214169E-008  0.9536959E+03  0.7818608E-02  0.9444816E-01
          1   -1    0    0  501    0  0.00000000000E+00  0.00000000000E+00  0.25196397741E+04  0.25196397741E+04  0.50400000000E-02 0. -1.
         -1   -1    0    0    0  501 -0.00000000000E+00 -0.00000000000E+00 -0.67660938222E+03  0.67660938224E+03  0.50400000000E-02 0.  1.
    8880023    1    1    2    0    0 -0.64130744972E+03  0.25387074470E+03 -0.25106717742E+03  0.98618990764E+03  0.65864270000E+03 0.  0.
    8880022    1    1    2    0    0  0.64130744972E+03 -0.25387074470E+03  0.20940975693E+04  0.22100592487E+04  0.15294330000E+03 0.  0.
<mgrwt>
<rscale>  0 0.88477481E+03</rscale>
<asrwt>0</asrwt>
<pdfrwt beam="1">  1        1 0.38763690E+00 0.95369587E+03</pdfrwt>
<pdfrwt beam="2">  1       -1 0.10409375E+00 0.95369587E+03</pdfrwt>
<totfact> 0.11708893E+00</totfact>
</mgrwt>
</event>
<event>
 4    5  0.7318368E-008  0.8128315E+03  0.7818608E-02  0.9683709E-01
         -1   -1    0    0    0  501 -0.00000000000E+00  0.00000000000E+00  0.10267728802E+04  0.10267728802E+04  0.50400000000E-02 0.  1.
          1   -1    0    0  501    0  0.00000000000E+00 -0.00000000000E+00 -0.12317903427E+04  0.12317903427E+04  0.50400000000E-02 0. -1.
    8880023    1    1    2    0    0  0.35252952258E+03 -0.32032448400E+03  0.79713991214E+03  0.11384757727E+04  0.65864270000E+03 0.  1.
    8880022    1    1    2    0    0 -0.35252952258E+03  0.32032448400E+03 -0.10021573747E+04  0.11200874502E+04  0.15294330000E+03 0.  0.
<mgrwt>
<rscale>  0 0.71995094E+03</rscale>
<asrwt>0</asrwt>
<pdfrwt beam="1">  1        1 0.18950621E+00 0.81283150E+03</pdfrwt>
<pdfrwt beam="2">  1       -1 0.15796506E+00 0.81283150E+03</pdfrwt>
<totfact> 0.31619021E+00</totfact>
</mgrwt>
</event>
<event>
 4    5  0.7214169E-008  0.1184168E+04  0.7818608E-02  0.9172668E-01
         -1   -1    0    0    0  501 -0.00000000000E+00  0.00000000000E+00  0.10497606900E+04  0.10497606900E+04  0.50400000000E-02 0.  1.
          1   -1    0    0  501    0  0.00000000000E+00 -0.00000000000E+00 -0.21061081751E+04  0.21061081751E+04  0.50400000000E-02 0. -1.
    8880023    1    1    2    0    0  0.65407028558E+03 -0.73527948197E+03  0.51836755694E+03  0.12926557877E+04  0.65864270000E+03 0.  1.
    8880022    1    1    2    0    0 -0.65407028558E+03  0.73527948197E+03 -0.15747150421E+04  0.18632130774E+04  0.15294330000E+03 0.  0.
<mgrwt>
<rscale>  0 0.11340050E+04</rscale>
<asrwt>0</asrwt>
<pdfrwt beam="1">  1        1 0.32401664E+00 0.11841681E+04</pdfrwt>
<pdfrwt beam="2">  1       -1 0.16150164E+00 0.11841681E+04</pdfrwt>
<totfact> 0.70799166E-01</totfact>
</mgrwt>
</event>
<event>
 4    5  0.7214169E-008  0.7658729E+03  0.7818608E-02  0.9790134E-01
         -1   -1    0    0    0  501 -0.00000000000E+00  0.00000000000E+00  0.64940480041E+03  0.64940480043E+03  0.50400000000E-02 0.  1.
          1   -1    0    0  501    0  0.00000000000E+00 -0.00000000000E+00 -0.18844750248E+04  0.18844750248E+04  0.50400000000E-02 0. -1.
    8880023    1    1    2    0    0  0.38566313932E+03  0.63364670482E+02  0.38720892828E+03  0.85819117853E+03  0.65864270000E+03 0.  1.
    8880022    1    1    2    0    0 -0.38566313932E+03 -0.63364670482E+02 -0.16222791526E+04  0.16756886467E+04  0.15294330000E+03 0.  0.
<mgrwt>
<rscale>  0 0.65894725E+03</rscale>
<asrwt>0</asrwt>
<pdfrwt beam="1">  1        1 0.28991923E+00 0.76587293E+03</pdfrwt>
<pdfrwt beam="2">  1       -1 0.99908431E-01 0.76587293E+03</pdfrwt>
<totfact> 0.35684850E+00</totfact>
</mgrwt>
</event>
<event>
 4    5  0.7214169E-008  0.6659479E+03  0.7818608E-02  0.1018751E+00
         -1   -1    0    0    0  501 -0.00000000000E+00  0.00000000000E+00  0.25259243648E+03  0.25259243653E+03  0.50400000000E-02 0.  1.
          1   -1    0    0  501    0  0.00000000000E+00 -0.00000000000E+00 -0.82724163362E+03  0.82724163363E+03  0.50400000000E-02 0. -1.
    8880023    1    1    2    0    0 -0.73196268548E+02  0.65717088306E+02 -0.25700288954E+03  0.71381868911E+03  0.65864270000E+03 0.  1.
    8880022    1    1    2    0    0  0.73196268548E+02 -0.65717088306E+02 -0.31764630760E+03  0.36601538106E+03  0.15294330000E+03 0. -1.
<mgrwt>
<rscale>  0 0.48140027E+03</rscale>
<asrwt>0</asrwt>
<pdfrwt beam="1">  1        1 0.12726794E+00 0.66594792E+03</pdfrwt>
<pdfrwt beam="2">  1       -1 0.38860375E-01 0.66594792E+03</pdfrwt>
<totfact> 0.13749312E+02</totfact>
</mgrwt>
</event>
<event>
 4    5  0.7214169E-008  0.9152104E+03  0.7818608E-02  0.9502042E-01
          1   -1    0    0  501    0  0.00000000000E+00  0.00000000000E+00  0.73908446030E+03  0.73908446031E+03  0.50400000000E-02 0. -1.
         -1   -1    0    0    0  501 -0.00000000000E+00 -0.00000000000E+00 -0.19292730072E+04  0.19292730072E+04  0.50400000000E-02 0.  1.
    8880023    1    1    2    0    0  0.63323016521E+03  0.53098326860E+02 -0.16378086709E+04  0.18761735856E+04  0.65864270000E+03 0.  0.
    8880022    1    1    2    0    0 -0.63323016521E+03 -0.53098326860E+02  0.44762012398E+03  0.79218388197E+03  0.15294330000E+03 0.  0.
<mgrwt>
<rscale>  0 0.84133419E+03</rscale>
<asrwt>0</asrwt>
<pdfrwt beam="1">  1        1 0.11370530E+00 0.91521040E+03</pdfrwt>
<pdfrwt beam="2">  1       -1 0.29681123E+00 0.91521040E+03</pdfrwt>
<totfact> 0.89095245E-01</totfact>
</mgrwt>
</event>
<event>
 4    5  0.7214169E-008  0.1016725E+04  0.7818608E-02  0.9359996E-01
          1   -1    0    0  501    0  0.00000000000E+00  0.00000000000E+00  0.14547737732E+04  0.14547737732E+04  0.50400000000E-02 0. -1.
         -1   -1    0    0    0  501 -0.00000000000E+00 -0.00000000000E+00 -0.11866855384E+04  0.11866855384E+04  0.50400000000E-02 0.  1.
    8880023    1    1    2    0    0  0.76267443323E+03  0.13508552110E+03 -0.81367941353E+03  0.13022306951E+04  0.65864270000E+03 0.  1.
    8880022    1    1    2    0    0 -0.76267443323E+03 -0.13508552110E+03  0.10817676484E+04  0.13392286165E+04  0.15294330000E+03 0.  0.
<mgrwt>
<rscale>  0 0.95442313E+03</rscale>
<asrwt>0</asrwt>
<pdfrwt beam="1">  1        1 0.22381135E+00 0.10167254E+04</pdfrwt>
<pdfrwt beam="2">  1       -1 0.18256701E+00 0.10167254E+04</pdfrwt>
<totfact> 0.14080079E+00</totfact>
</mgrwt>
</event>
<event>
 4    5  0.7214169E-008  0.8446172E+03  0.7818608E-02  0.9621535E-01
          1   -1    0    0  501    0  0.00000000000E+00  0.00000000000E+00  0.16057681878E+04  0.16057681878E+04  0.50400000000E-02 0. -1.
         -1   -1    0    0    0  501 -0.00000000000E+00 -0.00000000000E+00 -0.22384929182E+04  0.22384929182E+04  0.50400000000E-02 0.  1.
    8880023    1    1    2    0    0 -0.21648206955E+03 -0.48239344816E+03 -0.21073238595E+04  0.22702845593E+04  0.65864270000E+03 0.  1.
    8880022    1    1    2    0    0  0.21648206955E+03  0.48239344816E+03  0.14745991291E+04  0.15739765468E+04  0.15294330000E+03 0.  0.
<mgrwt>
<rscale>  0 0.75887109E+03</rscale>
<asrwt>0</asrwt>
<pdfrwt beam="1">  1        1 0.24704126E+00 0.84461715E+03</pdfrwt>
<pdfrwt beam="2">  1       -1 0.34438353E+00 0.84461715E+03</pdfrwt>
<totfact> 0.99132216E-02</totfact>
</mgrwt>
</event>
<event>
 4    5  0.7214169E-008  0.6625494E+03  0.7818608E-02  0.1021684E+00
          1   -1    0    0  501    0  0.00000000000E+00  0.00000000000E+00  0.16251497715E+04  0.16251497715E+04  0.50400000000E-02 0. -1.
         -1   -1    0    0    0  501 -0.00000000000E+00 -0.00000000000E+00 -0.33145341386E+03  0.33145341390E+03  0.50400000000E-02 0.  1.
    8880023    1    1    2    0    0  0.45655855012E+02 -0.55470717345E+02  0.10811365640E+02  0.66263757022E+03  0.65864270000E+03 0.  1.
    8880022    1    1    2    0    0 -0.45655855012E+02  0.55470717345E+02  0.12828849920E+04  0.12939656152E+04  0.15294330000E+03 0.  0.
<mgrwt>
<rscale>  0 0.47083676E+03</rscale>
<asrwt>0</asrwt>
<pdfrwt beam="1">  1        1 0.25002304E+00 0.66254937E+03</pdfrwt>
<pdfrwt beam="2">  1       -1 0.50992833E-01 0.66254937E+03</pdfrwt>
<totfact> 0.21737316E+01</totfact>
</mgrwt>
</event>
<event>
 4    5  0.7214169E-008  0.1042113E+04  0.7818608E-02  0.9328424E-01
          1   -1    0    0  501    0  0.00000000000E+00  0.00000000000E+00  0.10083769095E+04  0.10083769095E+04  0.50400000000E-02 0. -1.
         -1   -1    0    0    0  501 -0.00000000000E+00 -0.00000000000E+00 -0.21880308454E+04  0.21880308454E+04  0.50400000000E-02 0.  1.
    8880023    1    1    2    0    0  0.22398083489E+03  0.77590009066E+03 -0.18582674084E+04  0.21305295896E+04  0.65864270000E+03 0.  0.
    8880022    1    1    2    0    0 -0.22398083489E+03 -0.77590009066E+03  0.67861347251E+03  0.10658781653E+04  0.15294330000E+03 0.  0.
<mgrwt>
<rscale>  0 0.98207707E+03</rscale>
<asrwt>0</asrwt>
<pdfrwt beam="1">  1        1 0.15513491E+00 0.10421126E+04</pdfrwt>
<pdfrwt beam="2">  1       -1 0.33662013E+00 0.10421126E+04</pdfrwt>
<totfact> 0.28720627E-01</totfact>
</mgrwt>
</event>
<event>
 4    5  0.7214169E-008  0.2049618E+04  0.7818608E-02  0.8595736E-01
          1   -1    0    0  501    0  0.00000000000E+00  0.00000000000E+00  0.17890699648E+04  0.17890699648E+04  0.50400000000E-02 0. -1.
         -1   -1    0    0    0  501 -0.00000000000E+00 -0.00000000000E+00 -0.24938233198E+04  0.24938233198E+04  0.50400000000E-02 0.  1.
    8880023    1    1    2    0    0 -0.17930198464E+04  0.74310336756E+03 -0.10542326164E+04  0.23048512751E+04  0.65864270000E+03 0.  0.
    8880022    1    1    2    0    0  0.17930198464E+04 -0.74310336756E+03  0.34947926133E+03  0.19780420095E+04  0.15294330000E+03 0.  0.
<mgrwt>
<rscale>  0 0.20234474E+04</rscale>
<asrwt>0</asrwt>
<pdfrwt beam="1">  1        1 0.27524153E+00 0.20496178E+04</pdfrwt>
<pdfrwt beam="2">  1       -1 0.38366513E+00 0.20496178E+04</pdfrwt>
<totfact> 0.33943399E-02</totfact>
</mgrwt>
</event>
<event>
 4    5  0.7214169E-008  0.1006630E+04  0.7818608E-02  0.9372934E-01
          1   -1    0    0  501    0  0.00000000000E+00  0.00000000000E+00  0.79215564379E+03  0.79215564381E+03  0.50400000000E-02 0. -1.
         -1   -1    0    0    0  501 -0.00000000000E+00 -0.00000000000E+00 -0.17761782167E+04  0.17761782167E+04  0.50400000000E-02 0.  1.
    8880023    1    1    2    0    0  0.58034246144E+03  0.49264249786E+03 -0.13709370614E+04  0.17008152856E+04  0.65864270000E+03 0.  0.
    8880022    1    1    2    0    0 -0.58034246144E+03 -0.49264249786E+03  0.38691448854E+03  0.86751857485E+03  0.15294330000E+03 0.  0.
<mgrwt>
<rscale>  0 0.94336946E+03</rscale>
<asrwt>0</asrwt>
<pdfrwt beam="1">  1        1 0.12187010E+00 0.10066301E+04</pdfrwt>
<pdfrwt beam="2">  1       -1 0.27325819E+00 0.10066301E+04</pdfrwt>
<totfact> 0.11160818E+00</totfact>
</mgrwt>
</event>
<event>
 4    5  0.7214169E-008  0.9361190E+03  0.7818608E-02  0.9470374E-01
         -1   -1    0    0    0  501 -0.00000000000E+00  0.00000000000E+00  0.58559381090E+03  0.58559381092E+03  0.50400000000E-02 0.  1.
          1   -1    0    0  501    0  0.00000000000E+00 -0.00000000000E+00 -0.15635387261E+04  0.15635387261E+04  0.50400000000E-02 0. -1.
    8880023    1    1    2    0    0 -0.42304052679E+03 -0.51336657973E+03  0.24416999297E+02  0.93643735968E+03  0.65864270000E+03 0. -1.
    8880022    1    1    2    0    0  0.42304052679E+03  0.51336657973E+03 -0.10023619145E+04  0.12126951773E+04  0.15294330000E+03 0.  0.
<mgrwt>
<rscale>  0 0.86503743E+03</rscale>
<asrwt>0</asrwt>
<pdfrwt beam="1">  1        1 0.24054442E+00 0.93611898E+03</pdfrwt>
<pdfrwt beam="2">  1       -1 0.90091356E-01 0.93611898E+03</pdfrwt>
<totfact> 0.72260055E+00</totfact>
</mgrwt>
</event>
<event>
 4    5  0.7214169E-008  0.1542269E+04  0.7818608E-02  0.8880351E-01
          1   -1    0    0  501    0  0.00000000000E+00  0.00000000000E+00  0.18489064619E+04  0.18489064619E+04  0.50400000000E-02 0. -1.
         -1   -1    0    0    0  501 -0.00000000000E+00 -0.00000000000E+00 -0.13086460405E+04  0.13086460405E+04  0.50400000000E-02 0.  1.
    8880023    1    1    2    0    0  0.13394848745E+04  0.38802382965E+03  0.78960875422E+03  0.17326495354E+04  0.65864270000E+03 0.  0.
    8880022    1    1    2    0    0 -0.13394848745E+04 -0.38802382965E+03 -0.24934833285E+03  0.14249029670E+04  0.15294330000E+03 0.  1.
<mgrwt>
<rscale>  0 0.15061837E+04</rscale>
<asrwt>0</asrwt>
<pdfrwt beam="1">  1        1 0.28444715E+00 0.15422686E+04</pdfrwt>
<pdfrwt beam="2">  1       -1 0.20133016E+00 0.15422686E+04</pdfrwt>
<totfact> 0.52359177E-01</totfact>
</mgrwt>
</event>
<event>
 4    5  0.9313835E-008  0.6907271E+03  0.7818608E-02  0.1003809E+00
          1   -1    0    0  501    0  0.00000000000E+00  0.00000000000E+00  0.33263387054E+04  0.33263387054E+04  0.50400000000E-02 0. -1.
         -1   -1    0    0    0  501 -0.00000000000E+00 -0.00000000000E+00 -0.75985484542E+03  0.75985484543E+03  0.50400000000E-02 0.  1.
    8880023    1    1    2    0    0  0.16636878208E+03 -0.12496045175E+03 -0.59652622533E+03  0.91265953669E+03  0.65864270000E+03 0.  1.
    8880022    1    1    2    0    0 -0.16636878208E+03  0.12496045175E+03  0.31630100853E+04  0.31735340142E+04  0.15294330000E+03 0.  0.
<mgrwt>
<rscale>  0 0.54011179E+03</rscale>
<asrwt>0</asrwt>
<pdfrwt beam="1">  1        1 0.51174443E+00 0.69072708E+03</pdfrwt>
<pdfrwt beam="2">  1       -1 0.11690074E+00 0.69072708E+03</pdfrwt>
<totfact> 0.25027714E-01</totfact>
</mgrwt>
</event>
<event>
 4    5  0.7214169E-008  0.1220442E+04  0.7818608E-02  0.9137503E-01
          1   -1    0    0  501    0  0.00000000000E+00  0.00000000000E+00  0.12563801273E+04  0.12563801273E+04  0.50400000000E-02 0. -1.
         -1   -1    0    0    0  501 -0.00000000000E+00 -0.00000000000E+00 -0.13659850302E+04  0.13659850302E+04  0.50400000000E-02 0.  1.
    8880023    1    1    2    0    0  0.80792650638E+03 -0.63476240437E+03 -0.72051973468E+03  0.14172605420E+04  0.65864270000E+03 0.  0.
    8880022    1    1    2    0    0 -0.80792650638E+03  0.63476240437E+03  0.61091483177E+03  0.12051046155E+04  0.15294330000E+03 0.  0.
<mgrwt>
<rscale>  0 0.11722455E+04</rscale>
<asrwt>0</asrwt>
<pdfrwt beam="1">  1        1 0.19328925E+00 0.12204420E+04</pdfrwt>
<pdfrwt beam="2">  1       -1 0.21015154E+00 0.12204420E+04</pdfrwt>
<totfact> 0.12192063E+00</totfact>
</mgrwt>
</event>
<event>
 4    5  0.7214169E-008  0.1041691E+04  0.7818608E-02  0.9328937E-01
         -1   -1    0    0    0  501 -0.00000000000E+00  0.00000000000E+00  0.76339128905E+03  0.76339128906E+03  0.50400000000E-02 0.  1.
          1   -1    0    0  501    0  0.00000000000E+00 -0.00000000000E+00 -0.13767840866E+04  0.13767840866E+04  0.50400000000E-02 0. -1.
    8880023    1    1    2    0    0  0.75605131937E+03  0.28230514053E+03  0.10759408646E+03  0.10472327743E+04  0.65864270000E+03 0.  0.
    8880022    1    1    2    0    0 -0.75605131937E+03 -0.28230514053E+03 -0.72098688399E+03  0.10929426013E+04  0.15294330000E+03 0.  0.
<mgrwt>
<rscale>  0 0.98161936E+03</rscale>
<asrwt>0</asrwt>
<pdfrwt beam="1">  1        1 0.21181294E+00 0.10416909E+04</pdfrwt>
<pdfrwt beam="2">  1       -1 0.11744481E+00 0.10416909E+04</pdfrwt>
<totfact> 0.52026800E+00</totfact>
</mgrwt>
</event>
<event>
 4    5  0.7214169E-008  0.6870048E+03  0.7818608E-02  0.1005610E+00
          1   -1    0    0  501    0  0.00000000000E+00  0.00000000000E+00  0.58209591123E+03  0.58209591125E+03  0.50400000000E-02 0. -1.
         -1   -1    0    0    0  501 -0.00000000000E+00 -0.00000000000E+00 -0.54890096858E+03  0.54890096861E+03  0.50400000000E-02 0.  1.
    8880023    1    1    2    0    0  0.88627627226E+02  0.17409925657E+03 -0.27093742832E+03  0.73850030722E+03  0.65864270000E+03 0.  1.
    8880022    1    1    2    0    0 -0.88627627226E+02 -0.17409925657E+03  0.30413237096E+03  0.39249657263E+03  0.15294330000E+03 0.  0.
<mgrwt>
<rscale>  0 0.53257352E+03</rscale>
<asrwt>0</asrwt>
<pdfrwt beam="1">  1        1 0.89553217E-01 0.68700481E+03</pdfrwt>
<pdfrwt beam="2">  1       -1 0.84446303E-01 0.68700481E+03</pdfrwt>
<totfact> 0.51047541E+01</totfact>
</mgrwt>
</event>
<event>
 4    5  0.7214169E-008  0.7787907E+03  0.7818608E-02  0.9758685E-01
         -1   -1    0    0    0  501 -0.00000000000E+00  0.00000000000E+00  0.93555821694E+03  0.93555821695E+03  0.50400000000E-02 0.  1.
          1   -1    0    0  501    0  0.00000000000E+00 -0.00000000000E+00 -0.18174840283E+04  0.18174840283E+04  0.50400000000E-02 0. -1.
    8880023    1    1    2    0    0  0.40703884524E+03 -0.83810002628E+02  0.73845970765E+03  0.10732370121E+04  0.65864270000E+03 0.  0.
    8880022    1    1    2    0    0 -0.40703884524E+03  0.83810002628E+02 -0.16203855190E+04  0.16798052332E+04  0.15294330000E+03 0.  0.
<mgrwt>
<rscale>  0 0.67627645E+03</rscale>
<asrwt>0</asrwt>
<pdfrwt beam="1">  1        1 0.27961293E+00 0.77879069E+03</pdfrwt>
<pdfrwt beam="2">  1       -1 0.14393203E+00 0.77879069E+03</pdfrwt>
<totfact> 0.16170180E+00</totfact>
</mgrwt>
</event>
<event>
 4    5  0.7214169E-008  0.7767999E+03  0.7818608E-02  0.9763409E-01
         -1   -1    0    0    0  501 -0.00000000000E+00  0.00000000000E+00  0.37727622674E+03  0.37727622677E+03  0.50400000000E-02 0.  1.
          1   -1    0    0  501    0  0.00000000000E+00 -0.00000000000E+00 -0.14761365530E+04  0.14761365530E+04  0.50400000000E-02 0. -1.
    8880023    1    1    2    0    0 -0.33230146943E+03 -0.24327667112E+03 -0.12732329818E+03  0.78716531543E+03  0.65864270000E+03 0.  1.
    8880022    1    1    2    0    0  0.33230146943E+03  0.24327667112E+03 -0.97153702811E+03  0.10662474644E+04  0.15294330000E+03 0.  0.
<mgrwt>
<rscale>  0 0.67363767E+03</rscale>
<asrwt>0</asrwt>
<pdfrwt beam="1">  1        1 0.22709793E+00 0.77679985E+03</pdfrwt>
<pdfrwt beam="2">  1       -1 0.58042497E-01 0.77679985E+03</pdfrwt>
<totfact> 0.21060127E+01</totfact>
</mgrwt>
</event>
<event>
 4    5  0.7214169E-008  0.6726517E+03  0.7818608E-02  0.1013829E+00
         -1   -1    0    0    0  501 -0.00000000000E+00  0.00000000000E+00  0.56610947907E+03  0.56610947909E+03  0.50400000000E-02 0.  1.
          1   -1    0    0  501    0  0.00000000000E+00 -0.00000000000E+00 -0.68780753125E+03  0.68780753127E+03  0.50400000000E-02 0. -1.
    8880023    1    1    2    0    0  0.93561614408E+02  0.99479998155E+02  0.33635917439E+03  0.75206232866E+03  0.65864270000E+03 0.  1.
    8880022    1    1    2    0    0 -0.93561614408E+02 -0.99479998155E+02 -0.45805722657E+03  0.50185468171E+03  0.15294330000E+03 0.  0.
<mgrwt>
<rscale>  0 0.49980741E+03</rscale>
<asrwt>0</asrwt>
<pdfrwt beam="1">  1        1 0.10581654E+00 0.67265166E+03</pdfrwt>
<pdfrwt beam="2">  1       -1 0.87093766E-01 0.67265166E+03</pdfrwt>
<totfact> 0.37488750E+01</totfact>
</mgrwt>
</event>
<event>
 4    5  0.1275904E-007  0.1206859E+04  0.7818608E-02  0.9150483E-01
         -1   -1    0    0    0  501 -0.00000000000E+00  0.00000000000E+00  0.15682563808E+04  0.15682563809E+04  0.50400000000E-02 0.  1.
          1   -1    0    0  501    0  0.00000000000E+00 -0.00000000000E+00 -0.18901701401E+04  0.18901701401E+04  0.50400000000E-02 0. -1.
    8880023    1    1    2    0    0 -0.95063081467E+03 -0.34496344098E+03  0.11493461515E+04  0.16665849824E+04  0.65864270000E+03 0.  0.
    8880022    1    1    2    0    0  0.95063081467E+03  0.34496344098E+03 -0.14712599107E+04  0.17918415385E+04  0.15294330000E+03 0.  0.
<mgrwt>
<rscale>  0 0.11579467E+04</rscale>
<asrwt>0</asrwt>
<pdfrwt beam="1">  1        1 0.29079541E+00 0.12068591E+04</pdfrwt>
<pdfrwt beam="2">  1       -1 0.24127021E+00 0.12068591E+04</pdfrwt>
<totfact> 0.27600462E-01</totfact>
</mgrwt>
</event>
<event>
 4    5  0.7214169E-008  0.1018180E+04  0.7818608E-02  0.9358149E-01
          1   -1    0    0  501    0  0.00000000000E+00  0.00000000000E+00  0.30599758698E+04  0.30599758698E+04  0.50400000000E-02 0. -1.
         -1   -1    0    0    0  501 -0.00000000000E+00 -0.00000000000E+00 -0.46892491209E+03  0.46892491211E+03  0.50400000000E-02 0.  1.
    8880023    1    1    2    0    0 -0.12887251394E+03 -0.76568472768E+03  0.23701421872E+03  0.10454028760E+04  0.65864270000E+03 0.  1.
    8880022    1    1    2    0    0  0.12887251394E+03  0.76568472768E+03  0.23540367390E+04  0.24834979059E+04  0.15294330000E+03 0.  0.
<mgrwt>
<rscale>  0 0.95601348E+03</rscale>
<asrwt>0</asrwt>
<pdfrwt beam="1">  1        1 0.47076551E+00 0.10181805E+04</pdfrwt>
<pdfrwt beam="2">  1       -1 0.72142296E-01 0.10181805E+04</pdfrwt>
<totfact> 0.10749530E+00</totfact>
</mgrwt>
</event>
<event>
 4    5  0.7214169E-008  0.1146929E+04  0.7818608E-02  0.9210521E-01
         -1   -1    0    0    0  501 -0.00000000000E+00  0.00000000000E+00  0.12377002005E+04  0.12377002005E+04  0.50400000000E-02 0.  1.
          1   -1    0    0  501    0  0.00000000000E+00 -0.00000000000E+00 -0.12485543933E+04  0.12485543933E+04  0.50400000000E-02 0. -1.
    8880023    1    1    2    0    0  0.35255677629E+03 -0.87025309381E+03  0.65898271960E+03  0.13227642113E+04  0.65864270000E+03 0.  1.
    8880022    1    1    2    0    0 -0.35255677629E+03  0.87025309381E+03 -0.66983691237E+03  0.11634903824E+04  0.15294330000E+03 0.  0.
<mgrwt>
<rscale>  0 0.10945492E+04</rscale>
<asrwt>0</asrwt>
<pdfrwt beam="1">  1        1 0.19208529E+00 0.11469294E+04</pdfrwt>
<pdfrwt beam="2">  1       -1 0.19041541E+00 0.11469294E+04</pdfrwt>
<totfact> 0.17049905E+00</totfact>
</mgrwt>
</event>
<event>
 4    5  0.7214169E-008  0.7316189E+03  0.7818608E-02  0.9885070E-01
          1   -1    0    0  501    0  0.00000000000E+00  0.00000000000E+00  0.10944952992E+04  0.10944952992E+04  0.50400000000E-02 0. -1.
         -1   -1    0    0    0  501 -0.00000000000E+00 -0.00000000000E+00 -0.60201753751E+03  0.60201753753E+03  0.50400000000E-02 0.  1.
    8880023    1    1    2    0    0  0.27976341966E+03 -0.15227735877E+03 -0.32905967130E+03  0.80221346194E+03  0.65864270000E+03 0.  1.
    8880022    1    1    2    0    0 -0.27976341966E+03  0.15227735877E+03  0.82153743298E+03  0.89429937480E+03  0.15294330000E+03 0.  0.
<mgrwt>
<rscale>  0 0.60990361E+03</rscale>
<asrwt>0</asrwt>
<pdfrwt beam="1">  1        1 0.16838389E+00 0.73161887E+03</pdfrwt>
<pdfrwt beam="2">  1       -1 0.92618083E-01 0.73161887E+03</pdfrwt>
<totfact> 0.15001639E+01</totfact>
</mgrwt>
</event>
<event>
 4    5  0.7214169E-008  0.6954153E+03  0.7818608E-02  0.1001678E+00
         -1   -1    0    0    0  501 -0.00000000000E+00  0.00000000000E+00  0.49547051707E+03  0.49547051710E+03  0.50400000000E-02 0.  1.
          1   -1    0    0  501    0  0.00000000000E+00 -0.00000000000E+00 -0.15671431349E+04  0.15671431349E+04  0.50400000000E-02 0. -1.
    8880023    1    1    2    0    0 -0.30427167642E+02  0.22105744144E+03  0.23051297378E+03  0.73262448928E+03  0.65864270000E+03 0.  1.
    8880022    1    1    2    0    0  0.30427167642E+02 -0.22105744144E+03 -0.13021855916E+04  0.13299891627E+04  0.15294330000E+03 0.  0.
<mgrwt>
<rscale>  0 0.54920576E+03</rscale>
<asrwt>0</asrwt>
<pdfrwt beam="1">  1        1 0.24109894E+00 0.69541528E+03</pdfrwt>
<pdfrwt beam="2">  1       -1 0.76226234E-01 0.69541528E+03</pdfrwt>
<totfact> 0.10645119E+01</totfact>
</mgrwt>
</event>
<event>
 4    5  0.7214169E-008  0.1433252E+04  0.7818608E-02  0.8958267E-01
          1   -1    0    0  501    0  0.00000000000E+00  0.00000000000E+00  0.19562883053E+04  0.19562883054E+04  0.50400000000E-02 0. -1.
         -1   -1    0    0    0  501 -0.00000000000E+00 -0.00000000000E+00 -0.17295317697E+04  0.17295317697E+04  0.50400000000E-02 0.  1.
    8880023    1    1    2    0    0  0.98218445175E+03  0.80976150334E+03  0.13591590494E+04  0.19752274597E+04  0.65864270000E+03 0.  0.
    8880022    1    1    2    0    0 -0.98218445175E+03 -0.80976150334E+03 -0.11324025138E+04  0.17105926154E+04  0.15294330000E+03 0.  0.
<mgrwt>
<rscale>  0 0.13938713E+04</rscale>
<asrwt>0</asrwt>
<pdfrwt beam="1">  1        1 0.30096743E+00 0.14332516E+04</pdfrwt>
<pdfrwt beam="2">  1       -1 0.26608181E+00 0.14332516E+04</pdfrwt>
<totfact> 0.16630264E-01</totfact>
</mgrwt>
</event>
<event>
 4    5  0.7214169E-008  0.1073892E+04  0.7818608E-02  0.9290696E-01
          1   -1    0    0  501    0  0.00000000000E+00  0.00000000000E+00  0.17424291099E+04  0.17424291100E+04  0.50400000000E-02 0. -1.
         -1   -1    0    0    0  501 -0.00000000000E+00 -0.00000000000E+00 -0.66032762323E+03  0.66032762325E+03  0.50400000000E-02 0.  1.
    8880023    1    1    2    0    0 -0.54425655429E+03  0.65055275037E+03  0.73986272089E+02  0.10764377607E+04  0.65864270000E+03 0.  0.
    8880022    1    1    2    0    0  0.54425655429E+03 -0.65055275037E+03  0.10081152146E+04  0.13263189725E+04  0.15294330000E+03 0.  0.
<mgrwt>
<rscale>  0 0.10164391E+04</rscale>
<asrwt>0</asrwt>
<pdfrwt beam="1">  1        1 0.26806601E+00 0.10738921E+04</pdfrwt>
<pdfrwt beam="2">  1       -1 0.10158887E+00 0.10738921E+04</pdfrwt>
<totfact> 0.40934879E+00</totfact>
</mgrwt>
</event>
<event>
 4    5  0.7214169E-008  0.9757554E+03  0.7818608E-02  0.9413988E-01
         -1   -1    0    0    0  501 -0.00000000000E+00  0.00000000000E+00  0.44974164796E+03  0.44974164799E+03  0.50400000000E-02 0.  1.
          1   -1    0    0  501    0  0.00000000000E+00 -0.00000000000E+00 -0.28202871927E+04  0.28202871927E+04  0.50400000000E-02 0. -1.
    8880023    1    1    2    0    0 -0.33353510044E+03 -0.63799893959E+03 -0.22444738053E+03  0.10012368067E+04  0.65864270000E+03 0.  0.
    8880022    1    1    2    0    0  0.33353510044E+03  0.63799893959E+03 -0.21460981642E+04  0.22687920340E+04  0.15294330000E+03 0.  0.
<mgrwt>
<rscale>  0 0.90933426E+03</rscale>
<asrwt>0</asrwt>
<pdfrwt beam="1">  1        1 0.43389033E+00 0.97575536E+03</pdfrwt>
<pdfrwt beam="2">  1       -1 0.69191024E-01 0.97575536E+03</pdfrwt>
<totfact> 0.17518372E+00</totfact>
</mgrwt>
</event>
<event>
 4    5  0.7214169E-008  0.8217395E+03  0.7818608E-02  0.9665624E-01
         -1   -1    0    0    0  501 -0.00000000000E+00  0.00000000000E+00  0.18821501875E+04  0.18821501875E+04  0.50400000000E-02 0.  1.
          1   -1    0    0  501    0  0.00000000000E+00 -0.00000000000E+00 -0.40884531197E+03  0.40884531200E+03  0.50400000000E-02 0. -1.
    8880023    1    1    2    0    0  0.26878012791E+02  0.49063548948E+03  0.15656093258E+04  0.17681596020E+04  0.65864270000E+03 0.  0.
    8880022    1    1    2    0    0 -0.26878012791E+02 -0.49063548948E+03 -0.92304450254E+02  0.52283589745E+03  0.15294330000E+03 0.  0.
<mgrwt>
<rscale>  0 0.73100948E+03</rscale>
<asrwt>0</asrwt>
<pdfrwt beam="1">  1        1 0.62899278E-01 0.82173951E+03</pdfrwt>
<pdfrwt beam="2">  1       -1 0.28956157E+00 0.82173951E+03</pdfrwt>
<totfact> 0.23330803E+00</totfact>
</mgrwt>
</event>
<event>
 4    5  0.7214169E-008  0.7836216E+03  0.7818608E-02  0.9747397E-01
         -1   -1    0    0    0  501 -0.00000000000E+00  0.00000000000E+00  0.89180507257E+03  0.89180507258E+03  0.50400000000E-02 0.  1.
          1   -1    0    0  501    0  0.00000000000E+00 -0.00000000000E+00 -0.87851872322E+03  0.87851872323E+03  0.50400000000E-02 0. -1.
    8880023    1    1    2    0    0 -0.85995478303E+02  0.41576126752E+03  0.63046828236E+03  0.10057599690E+04  0.65864270000E+03 0.  1.
    8880022    1    1    2    0    0  0.85995478303E+02 -0.41576126752E+03 -0.61718193302E+03  0.76456382684E+03  0.15294330000E+03 0.  0.
<mgrwt>
<rscale>  0 0.68263546E+03</rscale>
<asrwt>0</asrwt>
<pdfrwt beam="1">  1        1 0.13515673E+00 0.78362163E+03</pdfrwt>
<pdfrwt beam="2">  1       -1 0.13720078E+00 0.78362163E+03</pdfrwt>
<totfact> 0.86076963E+00</totfact>
</mgrwt>
</event>
<event>
 4    5  0.7214169E-008  0.6881050E+03  0.7818608E-02  0.1005067E+00
          1   -1    0    0  501    0  0.00000000000E+00  0.00000000000E+00  0.12530639323E+04  0.12530639323E+04  0.50400000000E-02 0. -1.
         -1   -1    0    0    0  501 -0.00000000000E+00 -0.00000000000E+00 -0.13238573400E+04  0.13238573400E+04  0.50400000000E-02 0.  1.
    8880023    1    1    2    0    0  0.90375502858E+02  0.17751198422E+03 -0.12199565958E+04  0.14006364761E+04  0.65864270000E+03 0.  1.
    8880022    1    1    2    0    0 -0.90375502858E+02 -0.17751198422E+03  0.11491631881E+04  0.11762847963E+04  0.15294330000E+03 0.  0.
<mgrwt>
<rscale>  0 0.53483372E+03</rscale>
<asrwt>0</asrwt>
<pdfrwt beam="1">  1        1 0.19277907E+00 0.68810496E+03</pdfrwt>
<pdfrwt beam="2">  1       -1 0.20367036E+00 0.68810496E+03</pdfrwt>
<totfact> 0.14733602E+00</totfact>
</mgrwt>
</event>
<event>
 4    5  0.7214169E-008  0.1519627E+04  0.7818608E-02  0.8895899E-01
         -1   -1    0    0    0  501 -0.00000000000E+00  0.00000000000E+00  0.29921045722E+04  0.29921045722E+04  0.50400000000E-02 0.  1.
          1   -1    0    0  501    0  0.00000000000E+00 -0.00000000000E+00 -0.21906769062E+04  0.21906769062E+04  0.50400000000E-02 0. -1.
    8880023    1    1    2    0    0  0.30053121541E+03 -0.13360906739E+04  0.25427181399E+04  0.29622091495E+04  0.65864270000E+03 0.  0.
    8880022    1    1    2    0    0 -0.30053121541E+03  0.13360906739E+04 -0.17412904739E+04  0.22205723289E+04  0.15294330000E+03 0.  0.
<mgrwt>
<rscale>  0 0.14829078E+04</rscale>
<asrwt>0</asrwt>
<pdfrwt beam="1">  1        1 0.33702722E+00 0.15196274E+04</pdfrwt>
<pdfrwt beam="2">  1       -1 0.46032378E+00 0.15196274E+04</pdfrwt>
<totfact> 0.57023482E-03</totfact>
</mgrwt>
</event>
<event>
 4    5  0.7214169E-008  0.1138958E+04  0.7818608E-02  0.9218873E-01
          1   -1    0    0  501    0  0.00000000000E+00  0.00000000000E+00  0.84989657576E+03  0.84989657577E+03  0.50400000000E-02 0. -1.
         -1   -1    0    0    0  501 -0.00000000000E+00 -0.00000000000E+00 -0.22689151035E+04  0.22689151035E+04  0.50400000000E-02 0.  1.
    8880023    1    1    2    0    0  0.14759199082E+03 -0.91740465418E+03 -0.17775717790E+04  0.21111575808E+04  0.65864270000E+03 0.  0.
    8880022    1    1    2    0    0 -0.14759199082E+03  0.91740465418E+03  0.35855325122E+03  0.10076540985E+04  0.15294330000E+03 0.  0.
<mgrwt>
<rscale>  0 0.10860738E+04</rscale>
<asrwt>0</asrwt>
<pdfrwt beam="1">  1        1 0.13075332E+00 0.11389578E+04</pdfrwt>
<pdfrwt beam="2">  1       -1 0.34906386E+00 0.11389578E+04</pdfrwt>
<totfact> 0.31532714E-01</totfact>
</mgrwt>
</event>
<event>
 4    5  0.7214169E-008  0.7436021E+03  0.7818608E-02  0.9849576E-01
          1   -1    0    0  501    0  0.00000000000E+00  0.00000000000E+00  0.17380777881E+04  0.17380777881E+04  0.50400000000E-02 0. -1.
         -1   -1    0    0    0  501 -0.00000000000E+00 -0.00000000000E+00 -0.58278988238E+03  0.58278988241E+03  0.50400000000E-02 0.  1.
    8880023    1    1    2    0    0  0.33455584305E+03  0.84889695675E+02 -0.31154684474E+03  0.80622919526E+03  0.65864270000E+03 0.  1.
    8880022    1    1    2    0    0 -0.33455584305E+03 -0.84889695675E+02  0.14668347504E+04  0.15146384752E+04  0.15294330000E+03 0.  0.
<mgrwt>
<rscale>  0 0.62768541E+03</rscale>
<asrwt>0</asrwt>
<pdfrwt beam="1">  1        1 0.26739658E+00 0.74360210E+03</pdfrwt>
<pdfrwt beam="2">  1       -1 0.89659982E-01 0.74360210E+03</pdfrwt>
<totfact> 0.57196438E+00</totfact>
</mgrwt>
</event>
<event>
 4    5  0.7214169E-008  0.9425234E+03  0.7818608E-02  0.9460954E-01
          1   -1    0    0  501    0  0.00000000000E+00  0.00000000000E+00  0.13859506628E+04  0.13859506628E+04  0.50400000000E-02 0. -1.
         -1   -1    0    0    0  501 -0.00000000000E+00 -0.00000000000E+00 -0.81706709758E+03  0.81706709760E+03  0.50400000000E-02 0.  1.
    8880023    1    1    2    0    0  0.49027211810E+03 -0.46278879753E+03 -0.39073766197E+03  0.10203069870E+04  0.65864270000E+03 0.  0.
    8880022    1    1    2    0    0 -0.49027211810E+03  0.46278879753E+03  0.95962122719E+03  0.11827107734E+04  0.15294330000E+03 0.  0.
<mgrwt>
<rscale>  0 0.87224777E+03</rscale>
<asrwt>0</asrwt>
<pdfrwt beam="1">  1        1 0.21322318E+00 0.94252344E+03</pdfrwt>
<pdfrwt beam="2">  1       -1 0.12570263E+00 0.94252344E+03</pdfrwt>
<totfact> 0.43889407E+00</totfact>
</mgrwt>
</event>
<event>
 4    5  0.7214169E-008  0.6807968E+03  0.7818608E-02  0.1008876E+00
          1   -1    0    0  501    0  0.00000000000E+00  0.00000000000E+00  0.12106216416E+04  0.12106216416E+04  0.50400000000E-02 0. -1.
         -1   -1    0    0    0  501 -0.00000000000E+00 -0.00000000000E+00 -0.24653196218E+03  0.24653196223E+03  0.50400000000E-02 0.  1.
    8880023    1    1    2    0    0  0.16212522475E+03 -0.58219090702E+02  0.28142709739E+03  0.73667188655E+03  0.65864270000E+03 0.  0.
    8880022    1    1    2    0    0 -0.16212522475E+03  0.58219090702E+02  0.68266258203E+03  0.72048171729E+03  0.15294330000E+03 0.  0.
<mgrwt>
<rscale>  0 0.51923608E+03</rscale>
<asrwt>0</asrwt>
<pdfrwt beam="1">  1        1 0.18624948E+00 0.68079678E+03</pdfrwt>
<pdfrwt beam="2">  1       -1 0.37927995E-01 0.68079678E+03</pdfrwt>
<totfact> 0.72548071E+01</totfact>
</mgrwt>
</event>
<event>
 4    5  0.7214169E-008  0.1076347E+04  0.7818608E-02  0.9287859E-01
         -1   -1    0    0    0  501 -0.00000000000E+00  0.00000000000E+00  0.85644644902E+03  0.85644644903E+03  0.50400000000E-02 0.  1.
          1   -1    0    0  501    0  0.00000000000E+00 -0.00000000000E+00 -0.18888038655E+04  0.18888038655E+04  0.50400000000E-02 0. -1.
    8880023    1    1    2    0    0  0.18266897378E+03 -0.83147111446E+03 -0.14328582367E+04  0.17920951707E+04  0.65864270000E+03 0.  0.
    8880022    1    1    2    0    0 -0.18266897378E+03  0.83147111446E+03  0.40050082023E+03  0.95315514382E+03  0.15294330000E+03 0.  0.
<mgrwt>
<rscale>  0 0.10190826E+04</rscale>
<asrwt>0</asrwt>
<pdfrwt beam="1">  1        1 0.29058521E+00 0.10763468E+04</pdfrwt>
<pdfrwt beam="2">  1       -1 0.13176099E+00 0.10763468E+04</pdfrwt>
<totfact> 0.17356721E+00</totfact>
</mgrwt>
</event>
<event>
 4    5  0.7214169E-008  0.8873506E+03  0.7818608E-02  0.9546651E-01
         -1   -1    0    0    0  501 -0.00000000000E+00  0.00000000000E+00  0.11644024147E+04  0.11644024147E+04  0.50400000000E-02 0.  1.
          1   -1    0    0  501    0  0.00000000000E+00 -0.00000000000E+00 -0.92817830272E+03  0.92817830273E+03  0.50400000000E-02 0. -1.
    8880023    1    1    2    0    0 -0.36857855886E+03  0.46661632026E+03  0.84688602762E+03  0.12266242678E+04  0.65864270000E+03 0.  0.
    8880022    1    1    2    0    0  0.36857855886E+03 -0.46661632026E+03 -0.61066191564E+03  0.86595644961E+03  0.15294330000E+03 0.  0.
<mgrwt>
<rscale>  0 0.80930118E+03</rscale>
<asrwt>0</asrwt>
<pdfrwt beam="1">  1        1 0.14279666E+00 0.88735064E+03</pdfrwt>
<pdfrwt beam="2">  1       -1 0.17913883E+00 0.88735064E+03</pdfrwt>
<totfact> 0.37072963E+00</totfact>
</mgrwt>
</event>
<event>
 4    5  0.7214169E-008  0.9136925E+03  0.7818608E-02  0.9504399E-01
          1   -1    0    0  501    0  0.00000000000E+00  0.00000000000E+00  0.27391563545E+04  0.27391563545E+04  0.50400000000E-02 0. -1.
         -1   -1    0    0    0  501 -0.00000000000E+00 -0.00000000000E+00 -0.35752042258E+03  0.35752042261E+03  0.50400000000E-02 0.  1.
    8880023    1    1    2    0    0  0.22675459284E+03  0.59127507234E+03  0.37625533051E+03  0.98813062726E+03  0.65864270000E+03 0.  0.
    8880022    1    1    2    0    0 -0.22675459284E+03 -0.59127507234E+03  0.20053806015E+04  0.21085461499E+04  0.15294330000E+03 0.  0.
<mgrwt>
<rscale>  0 0.83960297E+03</rscale>
<asrwt>0</asrwt>
<pdfrwt beam="1">  1        1 0.42140867E+00 0.91369254E+03</pdfrwt>
<pdfrwt beam="2">  1       -1 0.55003142E-01 0.91369254E+03</pdfrwt>
<totfact> 0.31870080E+00</totfact>
</mgrwt>
</event>
<event>
 4    5  0.7214169E-008  0.7182136E+03  0.7818608E-02  0.9928677E-01
          1   -1    0    0  501    0  0.00000000000E+00  0.00000000000E+00  0.22355865709E+04  0.22355865709E+04  0.50400000000E-02 0. -1.
         -1   -1    0    0    0  501 -0.00000000000E+00 -0.00000000000E+00 -0.12994071194E+03  0.12994071204E+03  0.50400000000E-02 0.  1.
    8880023    1    1    2    0    0 -0.15771801790E+03 -0.23905156731E+03  0.11461295447E+04  0.13525693196E+04  0.65864270000E+03 0.  0.
    8880022    1    1    2    0    0  0.15771801790E+03  0.23905156731E+03  0.95951631425E+03  0.10129579633E+04  0.15294330000E+03 0.  0.
<mgrwt>
<rscale>  0 0.58891367E+03</rscale>
<asrwt>0</asrwt>
<pdfrwt beam="1">  1        1 0.34393637E+00 0.71821364E+03</pdfrwt>
<pdfrwt beam="2">  1       -1 0.19990880E-01 0.71821364E+03</pdfrwt>
<totfact> 0.43939707E+01</totfact>
</mgrwt>
</event>
<event>
 4    5  0.7214169E-008  0.6744022E+03  0.7818608E-02  0.1012686E+00
         -1   -1    0    0    0  501 -0.00000000000E+00  0.00000000000E+00  0.14713607995E+03  0.14713608004E+03  0.50400000000E-02 0.  1.
          1   -1    0    0  501    0  0.00000000000E+00 -0.00000000000E+00 -0.21650227055E+04  0.21650227055E+04  0.50400000000E-02 0. -1.
    8880023    1    1    2    0    0 -0.80121218727E+02 -0.12078395396E+03 -0.67976482441E+03  0.95754822124E+03  0.65864270000E+03 0.  1.
    8880022    1    1    2    0    0  0.80121218727E+02  0.12078395396E+03 -0.13381218011E+04  0.13546105643E+04  0.15294330000E+03 0.  0.
<mgrwt>
<rscale>  0 0.50421053E+03</rscale>
<asrwt>0</asrwt>
<pdfrwt beam="1">  1        1 0.33308039E+00 0.67440224E+03</pdfrwt>
<pdfrwt beam="2">  1       -1 0.22636322E-01 0.67440224E+03</pdfrwt>
<totfact> 0.40026811E+01</totfact>
</mgrwt>
</event>
<event>
 4    5  0.7214169E-008  0.7654818E+03  0.7818608E-02  0.9791117E-01
         -1   -1    0    0    0  501 -0.00000000000E+00  0.00000000000E+00  0.40519527115E+03  0.40519527118E+03  0.50400000000E-02 0.  1.
          1   -1    0    0  501    0  0.00000000000E+00 -0.00000000000E+00 -0.15715790683E+04  0.15715790683E+04  0.50400000000E-02 0. -1.
    8880023    1    1    2    0    0 -0.19435269424E+03 -0.33820004988E+03 -0.30508021386E+02  0.76608954381E+03  0.65864270000E+03 0.  1.
    8880022    1    1    2    0    0  0.19435269424E+03  0.33820004988E+03 -0.11358757758E+04  0.12106847957E+04  0.15294330000E+03 0.  0.
<mgrwt>
<rscale>  0 0.65841450E+03</rscale>
<asrwt>0</asrwt>
<pdfrwt beam="1">  1        1 0.24178139E+00 0.76548184E+03</pdfrwt>
<pdfrwt beam="2">  1       -1 0.62337735E-01 0.76548184E+03</pdfrwt>
<totfact> 0.15764600E+01</totfact>
</mgrwt>
</event>
<event>
 4    5  0.1174216E-007  0.7490955E+03  0.7818608E-02  0.9834203E-01
          1   -1    0    0  501    0  0.00000000000E+00  0.00000000000E+00  0.20491064745E+04  0.20491064745E+04  0.50400000000E-02 0. -1.
         -1   -1    0    0    0  501 -0.00000000000E+00 -0.00000000000E+00 -0.12949945653E+04  0.12949945653E+04  0.50400000000E-02 0.  1.
    8880023    1    1    2    0    0 -0.34815189362E+03  0.78257085893E+02 -0.11655826755E+04  0.13855421655E+04  0.65864270000E+03 0.  1.
    8880022    1    1    2    0    0  0.34815189362E+03 -0.78257085893E+02  0.19196945847E+04  0.19585588743E+04  0.15294330000E+03 0.  0.
<mgrwt>
<rscale>  0 0.63558885E+03</rscale>
<asrwt>0</asrwt>
<pdfrwt beam="1">  1        1 0.31524715E+00 0.74909553E+03</pdfrwt>
<pdfrwt beam="2">  1       -1 0.19922993E+00 0.74909553E+03</pdfrwt>
<totfact> 0.44827170E-01</totfact>
</mgrwt>
</event>
<event>
 4    5  0.7214169E-008  0.1001861E+04  0.7818608E-02  0.9379127E-01
          1   -1    0    0  501    0  0.00000000000E+00  0.00000000000E+00  0.29262086157E+04  0.29262086157E+04  0.50400000000E-02 0. -1.
         -1   -1    0    0    0  501 -0.00000000000E+00 -0.00000000000E+00 -0.13523606426E+04  0.13523606426E+04  0.50400000000E-02 0.  1.
    8880023    1    1    2    0    0 -0.33186183248E+03 -0.67807242986E+03 -0.11047776767E+04  0.14913947892E+04  0.65864270000E+03 0.  1.
    8880022    1    1    2    0    0  0.33186183248E+03  0.67807242986E+03  0.26786256499E+04  0.27871744691E+04  0.15294330000E+03 0.  0.
<mgrwt>
<rscale>  0 0.93813499E+03</rscale>
<asrwt>0</asrwt>
<pdfrwt beam="1">  1        1 0.45018593E+00 0.10018606E+04</pdfrwt>
<pdfrwt beam="2">  1       -1 0.20805549E+00 0.10018606E+04</pdfrwt>
<totfact> 0.92164583E-02</totfact>
</mgrwt>
</event>
<event>
 4    5  0.7214169E-008  0.8434320E+03  0.7818608E-02  0.9623743E-01
          1   -1    0    0  501    0  0.00000000000E+00  0.00000000000E+00  0.79230008195E+03  0.79230008196E+03  0.50400000000E-02 0. -1.
         -1   -1    0    0    0  501 -0.00000000000E+00 -0.00000000000E+00 -0.84837388398E+03  0.84837388400E+03  0.50400000000E-02 0.  1.
    8880023    1    1    2    0    0 -0.34694134127E+03  0.39648329334E+03 -0.45878268955E+03  0.96013491691E+03  0.65864270000E+03 0.  0.
    8880022    1    1    2    0    0  0.34694134127E+03 -0.39648329334E+03  0.40270888751E+03  0.68053904905E+03  0.15294330000E+03 0.  0.
<mgrwt>
<rscale>  0 0.75744474E+03</rscale>
<asrwt>0</asrwt>
<pdfrwt beam="1">  1        1 0.12189232E+00 0.84343198E+03</pdfrwt>
<pdfrwt beam="2">  1       -1 0.13051906E+00 0.84343198E+03</pdfrwt>
<totfact> 0.11484497E+01</totfact>
</mgrwt>
</event>
<event>
 4    5  0.7214169E-008  0.1072078E+04  0.7818608E-02  0.9292800E-01
          1   -1    0    0  501    0  0.00000000000E+00  0.00000000000E+00  0.17311412685E+04  0.17311412685E+04  0.50400000000E-02 0. -1.
         -1   -1    0    0    0  501 -0.00000000000E+00 -0.00000000000E+00 -0.69530684307E+03  0.69530684309E+03  0.50400000000E-02 0.  1.
    8880023    1    1    2    0    0 -0.82728361565E+03  0.17647130545E+03 -0.10703976876E+02  0.10721310945E+04  0.65864270000E+03 0.  0.
    8880022    1    1    2    0    0  0.82728361565E+03 -0.17647130545E+03  0.10465384023E+04  0.13543170172E+04  0.15294330000E+03 0.  0.
<mgrwt>
<rscale>  0 0.10144841E+04</rscale>
<asrwt>0</asrwt>
<pdfrwt beam="1">  1        1 0.26632942E+00 0.10720777E+04</pdfrwt>
<pdfrwt beam="2">  1       -1 0.10697029E+00 0.10720777E+04</pdfrwt>
<totfact> 0.36947224E+00</totfact>
</mgrwt>
</event>
<event>
 4    5  0.7762914E-008  0.1250183E+04  0.7818608E-02  0.9109821E-01
         -1   -1    0    0    0  501 -0.00000000000E+00  0.00000000000E+00  0.11301497195E+04  0.11301497195E+04  0.50400000000E-02 0.  1.
          1   -1    0    0  501    0  0.00000000000E+00 -0.00000000000E+00 -0.26248410444E+04  0.26248410444E+04  0.50400000000E-02 0. -1.
    8880023    1    1    2    0    0  0.10053186149E+04 -0.34421022211E+03  0.61093733555E+03  0.13914743363E+04  0.65864270000E+03 0.  1.
    8880022    1    1    2    0    0 -0.10053186149E+04  0.34421022211E+03 -0.21056286605E+04  0.23635164275E+04  0.15294330000E+03 0.  0.
<mgrwt>
<rscale>  0 0.12034747E+04</rscale>
<asrwt>0</asrwt>
<pdfrwt beam="1">  1        1 0.40382170E+00 0.12501825E+04</pdfrwt>
<pdfrwt beam="2">  1       -1 0.17386919E+00 0.12501825E+04</pdfrwt>
<totfact> 0.25038029E-01</totfact>
</mgrwt>
</event>
<event>
 4    5  0.7214169E-008  0.1286075E+04  0.7818608E-02  0.9077679E-01
         -1   -1    0    0    0  501 -0.00000000000E+00  0.00000000000E+00  0.12540296278E+04  0.12540296278E+04  0.50400000000E-02 0.  1.
          1   -1    0    0  501    0  0.00000000000E+00 -0.00000000000E+00 -0.12594534850E+04  0.12594534850E+04  0.50400000000E-02 0. -1.
    8880023    1    1    2    0    0  0.87300308581E+03  0.67679025245E+03  0.36762226256E+03  0.13375857983E+04  0.65864270000E+03 0.  0.
    8880022    1    1    2    0    0 -0.87300308581E+03 -0.67679025245E+03 -0.37304611980E+03  0.11758973145E+04  0.15294330000E+03 0.  0.
<mgrwt>
<rscale>  0 0.12410338E+04</rscale>
<asrwt>0</asrwt>
<pdfrwt beam="1">  1        1 0.19376208E+00 0.12860753E+04</pdfrwt>
<pdfrwt beam="2">  1       -1 0.19292763E+00 0.12860753E+04</pdfrwt>
<totfact> 0.15826441E+00</totfact>
</mgrwt>
</event>
<event>
 4    5  0.7214169E-008  0.8475523E+03  0.7818608E-02  0.9616101E-01
         -1   -1    0    0    0  501 -0.00000000000E+00  0.00000000000E+00  0.10043435280E+04  0.10043435280E+04  0.50400000000E-02 0.  1.
          1   -1    0    0  501    0  0.00000000000E+00 -0.00000000000E+00 -0.17459458414E+04  0.17459458415E+04  0.50400000000E-02 0. -1.
    8880023    1    1    2    0    0 -0.20724167374E+03 -0.49151364621E+03  0.76686695521E+03  0.11429916487E+04  0.65864270000E+03 0.  1.
    8880022    1    1    2    0    0  0.20724167374E+03  0.49151364621E+03 -0.15084692686E+04  0.16072977208E+04  0.15294330000E+03 0.  0.
<mgrwt>
<rscale>  0 0.76239628E+03</rscale>
<asrwt>0</asrwt>
<pdfrwt beam="1">  1        1 0.26860705E+00 0.84755235E+03</pdfrwt>
<pdfrwt beam="2">  1       -1 0.15451439E+00 0.84755235E+03</pdfrwt>
<totfact> 0.14745391E+00</totfact>
</mgrwt>
</event>
<event>
 4    5  0.7214169E-008  0.1003373E+04  0.7818608E-02  0.9377158E-01
          1   -1    0    0  501    0  0.00000000000E+00  0.00000000000E+00  0.35839978666E+03  0.35839978670E+03  0.50400000000E-02 0. -1.
         -1   -1    0    0    0  501 -0.00000000000E+00 -0.00000000000E+00 -0.29163334307E+04  0.29163334307E+04  0.50400000000E-02 0.  1.
    8880023    1    1    2    0    0  0.37806246806E+03 -0.65575581506E+03 -0.22112626458E+04  0.24282585558E+04  0.65864270000E+03 0.  0.
    8880022    1    1    2    0    0 -0.37806246806E+03  0.65575581506E+03 -0.34667099823E+03  0.84647466163E+03  0.15294330000E+03 0.  0.
<mgrwt>
<rscale>  0 0.93979554E+03</rscale>
<asrwt>0</asrwt>
<pdfrwt beam="1">  1        1 0.55138430E-01 0.10033729E+04</pdfrwt>
<pdfrwt beam="2">  1       -1 0.44866667E+00 0.10033729E+04</pdfrwt>
<totfact> 0.23555957E-01</totfact>
</mgrwt>
</event>
<event>
 4    5  0.7214169E-008  0.1039525E+04  0.7818608E-02  0.9331581E-01
          1   -1    0    0  501    0  0.00000000000E+00  0.00000000000E+00  0.21920761617E+04  0.21920761617E+04  0.50400000000E-02 0. -1.
         -1   -1    0    0    0  501 -0.00000000000E+00 -0.00000000000E+00 -0.10376669477E+04  0.10376669477E+04  0.50400000000E-02 0.  1.
    8880023    1    1    2    0    0  0.79072699254E+03 -0.14680838503E+03 -0.66541723548E+03  0.12342577454E+04  0.65864270000E+03 0.  0.
    8880022    1    1    2    0    0 -0.79072699254E+03  0.14680838503E+03  0.18198264495E+04  0.19954853640E+04  0.15294330000E+03 0.  0.
<mgrwt>
<rscale>  0 0.97926721E+03</rscale>
<asrwt>0</asrwt>
<pdfrwt beam="1">  1        1 0.33724248E+00 0.10395249E+04</pdfrwt>
<pdfrwt beam="2">  1       -1 0.15964107E+00 0.10395249E+04</pdfrwt>
<totfact> 0.65341983E-01</totfact>
</mgrwt>
</event>
<event>
 4    5  0.7214169E-008  0.1689719E+04  0.7818608E-02  0.8786125E-01
         -1   -1    0    0    0  501 -0.00000000000E+00  0.00000000000E+00  0.11863658851E+04  0.11863658851E+04  0.50400000000E-02 0.  1.
          1   -1    0    0  501    0  0.00000000000E+00 -0.00000000000E+00 -0.25679138269E+04  0.25679138270E+04  0.50400000000E-02 0. -1.
    8880023    1    1    2    0    0  0.93578318754E+03 -0.12432423676E+04 -0.13942226668E+04  0.21906640111E+04  0.65864270000E+03 0.  0.
    8880022    1    1    2    0    0 -0.93578318754E+03  0.12432423676E+04  0.12674724954E+02  0.15636157010E+04  0.15294330000E+03 0.  0.
<mgrwt>
<rscale>  0 0.16572571E+04</rscale>
<asrwt>0</asrwt>
<pdfrwt beam="1">  1        1 0.39506366E+00 0.16897195E+04</pdfrwt>
<pdfrwt beam="2">  1       -1 0.18251783E+00 0.16897195E+04</pdfrwt>
<totfact> 0.22482304E-01</totfact>
</mgrwt>
</event>
<event>
 4    5  0.7214169E-008  0.1187672E+04  0.7818608E-02  0.9169200E-01
         -1   -1    0    0    0  501 -0.00000000000E+00  0.00000000000E+00  0.22075580507E+04  0.22075580507E+04  0.50400000000E-02 0.  1.
          1   -1    0    0  501    0  0.00000000000E+00 -0.00000000000E+00 -0.11145220287E+04  0.11145220287E+04  0.50400000000E-02 0. -1.
    8880023    1    1    2    0    0 -0.28370064636E+03 -0.94671439397E+03  0.17576572692E+04  0.21213023082E+04  0.65864270000E+03 0.  0.
    8880022    1    1    2    0    0  0.28370064636E+03  0.94671439397E+03 -0.66462124720E+03  0.12007777712E+04  0.15294330000E+03 0.  0.
<mgrwt>
<rscale>  0 0.11377066E+04</rscale>
<asrwt>0</asrwt>
<pdfrwt beam="1">  1        1 0.17146493E+00 0.11876718E+04</pdfrwt>
<pdfrwt beam="2">  1       -1 0.33962431E+00 0.11876718E+04</pdfrwt>
<totfact> 0.22263258E-01</totfact>
</mgrwt>
</event>
<event>
 4    5  0.7214169E-008  0.1528986E+04  0.7818608E-02  0.8889435E-01
          1   -1    0    0  501    0  0.00000000000E+00  0.00000000000E+00  0.21963997685E+04  0.21963997685E+04  0.50400000000E-02 0. -1.
         -1   -1    0    0    0  501 -0.00000000000E+00 -0.00000000000E+00 -0.13799922582E+04  0.13799922582E+04  0.50400000000E-02 0.  1.
    8880023    1    1    2    0    0  0.13674379929E+04 -0.18466406145E+03 -0.55341708961E+03  0.16260590891E+04  0.65864270000E+03 0.  0.
    8880022    1    1    2    0    0 -0.13674379929E+04  0.18466406145E+03  0.13698245999E+04  0.19503329376E+04  0.15294330000E+03 0.  0.
<mgrwt>
<rscale>  0 0.14925314E+04</rscale>
<asrwt>0</asrwt>
<pdfrwt beam="1">  1        1 0.33790766E+00 0.15289858E+04</pdfrwt>
<pdfrwt beam="2">  1       -1 0.21230650E+00 0.15289858E+04</pdfrwt>
<totfact> 0.25573454E-01</totfact>
</mgrwt>
</event>
<event>
 4    5  0.7214169E-008  0.7995936E+03  0.7818608E-02  0.9711676E-01
         -1   -1    0    0    0  501 -0.00000000000E+00  0.00000000000E+00  0.62831842042E+03  0.62831842044E+03  0.50400000000E-02 0.  1.
          1   -1    0    0  501    0  0.00000000000E+00 -0.00000000000E+00 -0.18738256895E+04  0.18738256895E+04  0.50400000000E-02 0. -1.
    8880023    1    1    2    0    0 -0.20653776256E+03 -0.40358617521E+03  0.32293557942E+03  0.86234403976E+03  0.65864270000E+03 0.  1.
    8880022    1    1    2    0    0  0.20653776256E+03  0.40358617521E+03 -0.15684428485E+04  0.16398000702E+04  0.15294330000E+03 0.  0.
<mgrwt>
<rscale>  0 0.70325870E+03</rscale>
<asrwt>0</asrwt>
<pdfrwt beam="1">  1        1 0.28828087E+00 0.79959356E+03</pdfrwt>
<pdfrwt beam="2">  1       -1 0.96664373E-01 0.79959356E+03</pdfrwt>
<totfact> 0.38866952E+00</totfact>
</mgrwt>
</event>
<event>
 4    5  0.7214169E-008  0.9940692E+03  0.7818608E-02  0.9389358E-01
         -1   -1    0    0    0  501 -0.00000000000E+00  0.00000000000E+00  0.15762052841E+04  0.15762052841E+04  0.50400000000E-02 0.  1.
          1   -1    0    0  501    0  0.00000000000E+00 -0.00000000000E+00 -0.12796756146E+04  0.12796756146E+04  0.50400000000E-02 0. -1.
    8880023    1    1    2    0    0 -0.72034611361E+03  0.18832132415E+03  0.12750891939E+04  0.16167950096E+04  0.65864270000E+03 0.  1.
    8880022    1    1    2    0    0  0.72034611361E+03 -0.18832132415E+03 -0.97855952439E+03  0.12390858890E+04  0.15294330000E+03 0.  0.
<mgrwt>
<rscale>  0 0.92956647E+03</rscale>
<asrwt>0</asrwt>
<pdfrwt beam="1">  1        1 0.19687317E+00 0.99406924E+03</pdfrwt>
<pdfrwt beam="2">  1       -1 0.24249312E+00 0.99406924E+03</pdfrwt>
<totfact> 0.73744613E-01</totfact>
</mgrwt>
</event>
<event>
 4    5  0.7214169E-008  0.1057425E+04  0.7818608E-02  0.9310009E-01
         -1   -1    0    0    0  501 -0.00000000000E+00  0.00000000000E+00  0.80654069115E+03  0.80654069116E+03  0.50400000000E-02 0.  1.
          1   -1    0    0  501    0  0.00000000000E+00 -0.00000000000E+00 -0.19929593253E+04  0.19929593253E+04  0.50400000000E-02 0. -1.
    8880023    1    1    2    0    0 -0.15207870605E+03  0.81314724692E+03  0.29330724084E+03  0.10973494073E+04  0.65864270000E+03 0.  0.
    8880022    1    1    2    0    0  0.15207870605E+03 -0.81314724692E+03 -0.14797258750E+04  0.17021506091E+04  0.15294330000E+03 0.  0.
<mgrwt>
<rscale>  0 0.99866615E+03</rscale>
<asrwt>0</asrwt>
<pdfrwt beam="1">  1        1 0.30660912E+00 0.10574245E+04</pdfrwt>
<pdfrwt beam="2">  1       -1 0.12408318E+00 0.10574245E+04</pdfrwt>
<totfact> 0.17217226E+00</totfact>
</mgrwt>
</event>
<event>
 4    5  0.7214169E-008  0.7367908E+03  0.7818608E-02  0.9869396E-01
         -1   -1    0    0    0  501 -0.00000000000E+00  0.00000000000E+00  0.74432915850E+03  0.74432915851E+03  0.50400000000E-02 0.  1.
          1   -1    0    0  501    0  0.00000000000E+00 -0.00000000000E+00 -0.13860226511E+04  0.13860226511E+04  0.50400000000E-02 0. -1.
    8880023    1    1    2    0    0  0.29767634484E+03  0.14296573466E+03  0.52728805328E+03  0.90603162470E+03  0.65864270000E+03 0.  1.
    8880022    1    1    2    0    0 -0.29767634484E+03 -0.14296573466E+03 -0.11689815459E+04  0.12243201849E+04  0.15294330000E+03 0.  0.
<mgrwt>
<rscale>  0 0.61767691E+03</rscale>
<asrwt>0</asrwt>
<pdfrwt beam="1">  1        1 0.21323425E+00 0.73679075E+03</pdfrwt>
<pdfrwt beam="2">  1       -1 0.11451218E+00 0.73679075E+03</pdfrwt>
<totfact> 0.56785032E+00</totfact>
</mgrwt>
</event>
<event>
 4    5  0.7214169E-008  0.6920176E+03  0.7818608E-02  0.1003208E+00
         -1   -1    0    0    0  501 -0.00000000000E+00  0.00000000000E+00  0.13859807869E+04  0.13859807869E+04  0.50400000000E-02 0.  1.
          1   -1    0    0  501    0  0.00000000000E+00 -0.00000000000E+00 -0.48470168032E+03  0.48470168035E+03  0.50400000000E-02 0. -1.
    8880023    1    1    2    0    0  0.21227673750E+03  0.40927981265E+01  0.12535393690E+04  0.14318691701E+04  0.65864270000E+03 0.  1.
    8880022    1    1    2    0    0 -0.21227673750E+03 -0.40927981265E+01 -0.35226026244E+03  0.43881329718E+03  0.15294330000E+03 0.  0.
<mgrwt>
<rscale>  0 0.54265681E+03</rscale>
<asrwt>0</asrwt>
<pdfrwt beam="1">  1        1 0.74569490E-01 0.69201761E+03</pdfrwt>
<pdfrwt beam="2">  1       -1 0.21322781E+00 0.69201761E+03</pdfrwt>
<totfact> 0.59065794E+00</totfact>
</mgrwt>
</event>
<event>
 4    5  0.7214169E-008  0.1081129E+04  0.7818608E-02  0.9282363E-01
          1   -1    0    0  501    0  0.00000000000E+00  0.00000000000E+00  0.26440664076E+04  0.26440664076E+04  0.50400000000E-02 0. -1.
         -1   -1    0    0    0  501 -0.00000000000E+00 -0.00000000000E+00 -0.70983922721E+03  0.70983922723E+03  0.50400000000E-02 0.  1.
    8880023    1    1    2    0    0 -0.40713841274E+03 -0.75449880621E+03 -0.15335818444E+03  0.10919519562E+04  0.65864270000E+03 0.  1.
    8880022    1    1    2    0    0  0.40713841274E+03  0.75449880621E+03  0.20875853648E+04  0.22619536786E+04  0.15294330000E+03 0. -1.
<mgrwt>
<rscale>  0 0.10242290E+04</rscale>
<asrwt>0</asrwt>
<pdfrwt beam="1">  1        1 0.40677945E+00 0.10811292E+04</pdfrwt>
<pdfrwt beam="2">  1       -1 0.10920603E+00 0.10811292E+04</pdfrwt>
<totfact> 0.84093412E-01</totfact>
</mgrwt>
</event>
<event>
 4    5  0.7214169E-008  0.8941024E+03  0.7818608E-02  0.9535566E-01
          1   -1    0    0  501    0  0.00000000000E+00  0.00000000000E+00  0.28896953264E+04  0.28896953264E+04  0.50400000000E-02 0. -1.
         -1   -1    0    0    0  501 -0.00000000000E+00 -0.00000000000E+00 -0.51630867887E+03  0.51630867890E+03  0.50400000000E-02 0.  1.
    8880023    1    1    2    0    0  0.48909188904E+03  0.35552498300E+03 -0.57917244461E+02  0.89597628480E+03  0.65864270000E+03 0.  0.
    8880022    1    1    2    0    0 -0.48909188904E+03 -0.35552498300E+03  0.24313038920E+04  0.25100277205E+04  0.15294330000E+03 0.  0.
<mgrwt>
<rscale>  0 0.81711695E+03</rscale>
<asrwt>0</asrwt>
<pdfrwt beam="1">  1        1 0.44456851E+00 0.89410240E+03</pdfrwt>
<pdfrwt beam="2">  1       -1 0.79432105E-01 0.89410240E+03</pdfrwt>
<totfact> 0.11890307E+00</totfact>
</mgrwt>
</event>
<event>
 4    5  0.7214169E-008  0.1230525E+04  0.7818608E-02  0.9128006E-01
         -1   -1    0    0    0  501 -0.00000000000E+00  0.00000000000E+00  0.14545551067E+04  0.14545551067E+04  0.50400000000E-02 0.  1.
          1   -1    0    0  501    0  0.00000000000E+00 -0.00000000000E+00 -0.12313166457E+04  0.12313166457E+04  0.50400000000E-02 0. -1.
    8880023    1    1    2    0    0 -0.10340249752E+04  0.10570492827E+03  0.81894734224E+03  0.14781292693E+04  0.65864270000E+03 0.  1.
    8880022    1    1    2    0    0  0.10340249752E+04 -0.10570492827E+03 -0.59570888126E+03  0.12077424831E+04  0.15294330000E+03 0.  0.
<mgrwt>
<rscale>  0 0.11828448E+04</rscale>
<asrwt>0</asrwt>
<pdfrwt beam="1">  1        1 0.18943333E+00 0.12305248E+04</pdfrwt>
<pdfrwt beam="2">  1       -1 0.22377771E+00 0.12305248E+04</pdfrwt>
<totfact> 0.10281629E+00</totfact>
</mgrwt>
</event>
<event>
 4    5  0.7214169E-008  0.1153770E+04  0.7818608E-02  0.9203426E-01
          1   -1    0    0  501    0  0.00000000000E+00  0.00000000000E+00  0.33354452827E+04  0.33354452827E+04  0.50400000000E-02 0. -1.
         -1   -1    0    0    0  501 -0.00000000000E+00 -0.00000000000E+00 -0.79779178735E+03  0.79779178737E+03  0.50400000000E-02 0.  1.
    8880023    1    1    2    0    0  0.83959980070E+03  0.43868707951E+03 -0.25389214424E+03  0.11813744564E+04  0.65864270000E+03 0.  0.
    8880022    1    1    2    0    0 -0.83959980070E+03 -0.43868707951E+03  0.27915456396E+04  0.29518626136E+04  0.15294330000E+03 0.  0.
<mgrwt>
<rscale>  0 0.11018132E+04</rscale>
<asrwt>0</asrwt>
<pdfrwt beam="1">  1        1 0.51314543E+00 0.11537696E+04</pdfrwt>
<pdfrwt beam="2">  1       -1 0.12273720E+00 0.11537696E+04</pdfrwt>
<totfact> 0.19788735E-01</totfact>
</mgrwt>
</event>
<event>
 4    5  0.7214169E-008  0.8271680E+03  0.7818608E-02  0.9654868E-01
          1   -1    0    0  501    0  0.00000000000E+00  0.00000000000E+00  0.16427834545E+04  0.16427834545E+04  0.50400000000E-02 0. -1.
         -1   -1    0    0    0  501 -0.00000000000E+00 -0.00000000000E+00 -0.51905025394E+03  0.51905025396E+03  0.50400000000E-02 0.  1.
    8880023    1    1    2    0    0 -0.42972198814E+03 -0.25638975430E+03 -0.97819740882E+02  0.83293193069E+03  0.65864270000E+03 0.  1.
    8880022    1    1    2    0    0  0.42972198814E+03  0.25638975430E+03  0.12215529414E+04  0.13289017778E+04  0.15294330000E+03 0.  0.
<mgrwt>
<rscale>  0 0.73768706E+03</rscale>
<asrwt>0</asrwt>
<pdfrwt beam="1">  1        1 0.25273591E+00 0.82716800E+03</pdfrwt>
<pdfrwt beam="2">  1       -1 0.79853888E-01 0.82716800E+03</pdfrwt>
<totfact> 0.84083867E+00</totfact>
</mgrwt>
</event>
<event>
 4    5  0.7214169E-008  0.1586729E+04  0.7818608E-02  0.8850703E-01
         -1   -1    0    0    0  501 -0.00000000000E+00  0.00000000000E+00  0.15104610094E+04  0.15104610094E+04  0.50400000000E-02 0.  1.
          1   -1    0    0  501    0  0.00000000000E+00 -0.00000000000E+00 -0.19814642416E+04  0.19814642417E+04  0.50400000000E-02 0. -1.
    8880023    1    1    2    0    0 -0.48565549993E+03 -0.13594259909E+04 -0.10782096482E+04  0.19183968675E+04  0.65864270000E+03 0.  0.
    8880022    1    1    2    0    0  0.48565549993E+03  0.13594259909E+04  0.60720641595E+03  0.15735283836E+04  0.15294330000E+03 0.  1.
<mgrwt>
<rscale>  0 0.15518251E+04</rscale>
<asrwt>0</asrwt>
<pdfrwt beam="1">  1        1 0.30484065E+00 0.15867295E+04</pdfrwt>
<pdfrwt beam="2">  1       -1 0.23237862E+00 0.15867295E+04</pdfrwt>
<totfact> 0.26100042E-01</totfact>
</mgrwt>
</event>
<event>
 4    5  0.7214169E-008  0.7474780E+03  0.7818608E-02  0.9838676E-01
         -1   -1    0    0    0  501 -0.00000000000E+00  0.00000000000E+00  0.74736186067E+03  0.74736186068E+03  0.50400000000E-02 0.  1.
          1   -1    0    0  501    0  0.00000000000E+00 -0.00000000000E+00 -0.17625229902E+04  0.17625229902E+04  0.50400000000E-02 0. -1.
    8880023    1    1    2    0    0 -0.30691730865E+03  0.17525680518E+03  0.53074043382E+03  0.91673812862E+03  0.65864270000E+03 0.  1.
    8880022    1    1    2    0    0  0.30691730865E+03 -0.17525680518E+03 -0.15459015633E+04  0.15931467222E+04  0.15294330000E+03 0.  0.
<mgrwt>
<rscale>  0 0.63327630E+03</rscale>
<asrwt>0</asrwt>
<pdfrwt beam="1">  1        1 0.27115738E+00 0.74747802E+03</pdfrwt>
<pdfrwt beam="2">  1       -1 0.11497875E+00 0.74747802E+03</pdfrwt>
<totfact> 0.31116028E+00</totfact>
</mgrwt>
</event>
<event>
 4    5  0.7214169E-008  0.7452286E+03  0.7818608E-02  0.9844970E-01
         -1   -1    0    0    0  501 -0.00000000000E+00  0.00000000000E+00  0.53471120769E+03  0.53471120772E+03  0.50400000000E-02 0.  1.
          1   -1    0    0  501    0  0.00000000000E+00 -0.00000000000E+00 -0.75648609301E+03  0.75648609303E+03  0.50400000000E-02 0. -1.
    8880023    1    1    2    0    0  0.24026738598E+02  0.34781915728E+03  0.14876066294E+03  0.75993117546E+03  0.65864270000E+03 0.  0.
    8880022    1    1    2    0    0 -0.24026738598E+02 -0.34781915728E+03 -0.37053554826E+03  0.53126612528E+03  0.15294330000E+03 0.  0.
<mgrwt>
<rscale>  0 0.63004029E+03</rscale>
<asrwt>0</asrwt>
<pdfrwt beam="1">  1        1 0.11638248E+00 0.74522859E+03</pdfrwt>
<pdfrwt beam="2">  1       -1 0.82263262E-01 0.74522859E+03</pdfrwt>
<totfact> 0.36387383E+01</totfact>
</mgrwt>
</event>
<event>
 4    5  0.7214169E-008  0.1036950E+04  0.7818608E-02  0.9334736E-01
         -1   -1    0    0    0  501 -0.00000000000E+00  0.00000000000E+00  0.10736229401E+04  0.10736229401E+04  0.50400000000E-02 0.  1.
          1   -1    0    0  501    0  0.00000000000E+00 -0.00000000000E+00 -0.21124798130E+04  0.21124798130E+04  0.50400000000E-02 0. -1.
    8880023    1    1    2    0    0  0.62817587407E+03  0.49684039485E+03  0.70984839020E+03  0.12566424512E+04  0.65864270000E+03 0.  1.
    8880022    1    1    2    0    0 -0.62817587407E+03 -0.49684039485E+03 -0.17487052630E+04  0.19294603019E+04  0.15294330000E+03 0.  0.
<mgrwt>
<rscale>  0 0.97646932E+03</rscale>
<asrwt>0</asrwt>
<pdfrwt beam="1">  1        1 0.32499689E+00 0.10369501E+04</pdfrwt>
<pdfrwt beam="2">  1       -1 0.16517276E+00 0.10369501E+04</pdfrwt>
<totfact> 0.67226243E-01</totfact>
</mgrwt>
</event>
<event>
 4    5  0.7214169E-008  0.8800773E+03  0.7818608E-02  0.9558802E-01
         -1   -1    0    0    0  501 -0.00000000000E+00  0.00000000000E+00  0.84848823172E+03  0.84848823173E+03  0.50400000000E-02 0.  1.
          1   -1    0    0  501    0  0.00000000000E+00 -0.00000000000E+00 -0.73786250416E+03  0.73786250418E+03  0.50400000000E-02 0. -1.
    8880023    1    1    2    0    0  0.11778005814E+01  0.58371612172E+03 -0.20749683598E+03  0.90420741049E+03  0.65864270000E+03 0.  0.
    8880022    1    1    2    0    0 -0.11778005814E+01 -0.58371612172E+03  0.31812256354E+03  0.68214332542E+03  0.15294330000E+03 0.  0.
<mgrwt>
<rscale>  0 0.80084013E+03</rscale>
<asrwt>0</asrwt>
<pdfrwt beam="1">  1        1 0.11351731E+00 0.88007733E+03</pdfrwt>
<pdfrwt beam="2">  1       -1 0.13053665E+00 0.88007733E+03</pdfrwt>
<totfact> 0.12787468E+01</totfact>
</mgrwt>
</event>
<event>
 4    5  0.7214169E-008  0.7111404E+03  0.7818608E-02  0.9953790E-01
         -1   -1    0    0    0  501 -0.00000000000E+00  0.00000000000E+00  0.87176068822E+03  0.87176068824E+03  0.50400000000E-02 0.  1.
          1   -1    0    0  501    0  0.00000000000E+00 -0.00000000000E+00 -0.54838938301E+03  0.54838938303E+03  0.50400000000E-02 0. -1.
    8880023    1    1    2    0    0 -0.20336234097E+03  0.17479760608E+03  0.65517707903E+03  0.96694242640E+03  0.65864270000E+03 0.  0.
    8880022    1    1    2    0    0  0.20336234097E+03 -0.17479760608E+03 -0.33180577381E+03  0.45320764487E+03  0.15294330000E+03 0.  0.
<mgrwt>
<rscale>  0 0.57723721E+03</rscale>
<asrwt>0</asrwt>
<pdfrwt beam="1">  1        1 0.84367598E-01 0.71114039E+03</pdfrwt>
<pdfrwt beam="2">  1       -1 0.13411703E+00 0.71114039E+03</pdfrwt>
<totfact> 0.18814032E+01</totfact>
</mgrwt>
</event>
<event>
 4    5  0.7214169E-008  0.1151059E+04  0.7818608E-02  0.9206230E-01
          1   -1    0    0  501    0  0.00000000000E+00  0.00000000000E+00  0.12513669666E+04  0.12513669666E+04  0.50400000000E-02 0. -1.
         -1   -1    0    0    0  501 -0.00000000000E+00 -0.00000000000E+00 -0.11600323325E+04  0.11600323325E+04  0.50400000000E-02 0.  1.
    8880023    1    1    2    0    0  0.92356148223E+03 -0.19534809960E+03 -0.53388960173E+03  0.12688479044E+04  0.65864270000E+03 0.  0.
    8880022    1    1    2    0    0 -0.92356148223E+03  0.19534809960E+03  0.62522423578E+03  0.11425513947E+04  0.15294330000E+03 0.  0.
<mgrwt>
<rscale>  0 0.10989356E+04</rscale>
<asrwt>0</asrwt>
<pdfrwt beam="1">  1        1 0.19251799E+00 0.11510590E+04</pdfrwt>
<pdfrwt beam="2">  1       -1 0.17846651E+00 0.11510590E+04</pdfrwt>
<totfact> 0.20630545E+00</totfact>
</mgrwt>
</event>
<event>
 4    5  0.7214169E-008  0.9349068E+03  0.7818608E-02  0.9472171E-01
         -1   -1    0    0    0  501 -0.00000000000E+00  0.00000000000E+00  0.11045500648E+04  0.11045500648E+04  0.50400000000E-02 0.  1.
          1   -1    0    0  501    0  0.00000000000E+00 -0.00000000000E+00 -0.30837612364E+04  0.30837612364E+04  0.50400000000E-02 0. -1.
    8880023    1    1    2    0    0 -0.39703423522E+03 -0.53160551541E+03  0.85896791880E+03  0.12695970620E+04  0.65864270000E+03 0.  1.
    8880022    1    1    2    0    0  0.39703423522E+03  0.53160551541E+03 -0.28381790904E+04  0.29187142392E+04  0.15294330000E+03 0.  0.
<mgrwt>
<rscale>  0 0.86367025E+03</rscale>
<asrwt>0</asrwt>
<pdfrwt beam="1">  1        1 0.47442480E+00 0.93490685E+03</pdfrwt>
<pdfrwt beam="2">  1       -1 0.16993078E+00 0.93490685E+03</pdfrwt>
<totfact> 0.13346302E-01</totfact>
</mgrwt>
</event>
<event>
 4    5  0.7214169E-008  0.1269450E+04  0.7818608E-02  0.9092401E-01
          1   -1    0    0  501    0  0.00000000000E+00  0.00000000000E+00  0.11563539899E+04  0.11563539899E+04  0.50400000000E-02 0. -1.
         -1   -1    0    0    0  501 -0.00000000000E+00 -0.00000000000E+00 -0.26068524855E+04  0.26068524855E+04  0.50400000000E-02 0.  1.
    8880023    1    1    2    0    0  0.95789613669E+03 -0.51002737616E+03 -0.21257461796E+04  0.24759442562E+04  0.65864270000E+03 0.  0.
    8880022    1    1    2    0    0 -0.95789613669E+03  0.51002737616E+03  0.67524768404E+03  0.12872622192E+04  0.15294330000E+03 0.  0.
<mgrwt>
<rscale>  0 0.12236533E+04</rscale>
<asrwt>0</asrwt>
<pdfrwt beam="1">  1        1 0.17790061E+00 0.12694499E+04</pdfrwt>
<pdfrwt beam="2">  1       -1 0.40105423E+00 0.12694499E+04</pdfrwt>
<totfact> 0.79391797E-02</totfact>
</mgrwt>
</event>
<event>
 4    5  0.7214169E-008  0.7667701E+03  0.7818608E-02  0.9787885E-01
         -1   -1    0    0    0  501 -0.00000000000E+00  0.00000000000E+00  0.32157115246E+03  0.32157115250E+03  0.50400000000E-02 0.  1.
          1   -1    0    0  501    0  0.00000000000E+00 -0.00000000000E+00 -0.12674147599E+04  0.12674147600E+04  0.50400000000E-02 0. -1.
    8880023    1    1    2    0    0  0.20076096472E+03 -0.33737405140E+03 -0.31185155746E+03  0.82776072368E+03  0.65864270000E+03 0.  1.
    8880022    1    1    2    0    0 -0.20076096472E+03  0.33737405140E+03 -0.63399205003E+03  0.76122518878E+03  0.15294330000E+03 0.  0.
<mgrwt>
<rscale>  0 0.66016751E+03</rscale>
<asrwt>0</asrwt>
<pdfrwt beam="1">  1        1 0.19498688E+00 0.76677012E+03</pdfrwt>
<pdfrwt beam="2">  1       -1 0.49472486E-01 0.76677012E+03</pdfrwt>
<totfact> 0.40106414E+01</totfact>
</mgrwt>
</event>
<event>
 4    5  0.7214169E-008  0.9543647E+03  0.7818608E-02  0.9443862E-01
         -1   -1    0    0    0  501 -0.00000000000E+00  0.00000000000E+00  0.82401155590E+03  0.82401155591E+03  0.50400000000E-02 0.  1.
          1   -1    0    0  501    0  0.00000000000E+00 -0.00000000000E+00 -0.10902861474E+04  0.10902861475E+04  0.50400000000E-02 0. -1.
    8880023    1    1    2    0    0 -0.60967158767E+03 -0.32450314331E+03  0.30834023771E+03  0.10029385042E+04  0.65864270000E+03 0.  1.
    8880022    1    1    2    0    0  0.60967158767E+03  0.32450314331E+03 -0.57461482926E+03  0.91135919913E+03  0.15294330000E+03 0.  0.
<mgrwt>
<rscale>  0 0.88552273E+03</rscale>
<asrwt>0</asrwt>
<pdfrwt beam="1">  1        1 0.16773633E+00 0.95436468E+03</pdfrwt>
<pdfrwt beam="2">  1       -1 0.12677101E+00 0.95436468E+03</pdfrwt>
<totfact> 0.70224236E+00</totfact>
</mgrwt>
</event>
<event>
 4    5  0.7214169E-008  0.8687674E+03  0.7818608E-02  0.9578154E-01
         -1   -1    0    0    0  501 -0.00000000000E+00  0.00000000000E+00  0.14292833596E+04  0.14292833596E+04  0.50400000000E-02 0.  1.
          1   -1    0    0  501    0  0.00000000000E+00 -0.00000000000E+00 -0.48586775336E+03  0.48586775339E+03  0.50400000000E-02 0. -1.
    8880023    1    1    2    0    0 -0.66379987212E+02  0.56261907035E+03  0.10011192355E+04  0.13255174277E+04  0.65864270000E+03 0.  0.
    8880022    1    1    2    0    0  0.66379987212E+02 -0.56261907035E+03 -0.57703629293E+02  0.58963368533E+03  0.15294330000E+03 0.  0.
<mgrwt>
<rscale>  0 0.78759104E+03</rscale>
<asrwt>0</asrwt>
<pdfrwt beam="1">  1        1 0.74748886E-01 0.86876736E+03</pdfrwt>
<pdfrwt beam="2">  1       -1 0.21988974E+00 0.86876736E+03</pdfrwt>
<totfact> 0.51890740E+00</totfact>
</mgrwt>
</event>
<event>
 4    5  0.7214169E-008  0.1513553E+04  0.7818608E-02  0.8900125E-01
         -1   -1    0    0    0  501 -0.00000000000E+00  0.00000000000E+00  0.18026937745E+04  0.18026937745E+04  0.50400000000E-02 0.  1.
          1   -1    0    0  501    0  0.00000000000E+00 -0.00000000000E+00 -0.12314112077E+04  0.12314112077E+04  0.50400000000E-02 0. -1.
    8880023    1    1    2    0    0  0.94974422588E+03  0.97725035601E+03 -0.80727182912E+02  0.15157042710E+04  0.65864270000E+03 0.  0.
    8880022    1    1    2    0    0 -0.94974422588E+03 -0.97725035601E+03  0.65200974971E+03  0.15184007112E+04  0.15294330000E+03 0.  0.
<mgrwt>
<rscale>  0 0.14766589E+04</rscale>
<asrwt>0</asrwt>
<pdfrwt beam="1">  1        1 0.18944788E+00 0.15135530E+04</pdfrwt>
<pdfrwt beam="2">  1       -1 0.27733750E+00 0.15135530E+04</pdfrwt>
<totfact> 0.44444224E-01</totfact>
</mgrwt>
</event>
<event>
 4    5  0.7214169E-008  0.6650794E+03  0.7818608E-02  0.1019467E+00
         -1   -1    0    0    0  501 -0.00000000000E+00  0.00000000000E+00  0.75129901010E+03  0.75129901012E+03  0.50400000000E-02 0.  1.
          1   -1    0    0  501    0  0.00000000000E+00 -0.00000000000E+00 -0.38541000610E+03  0.38541000613E+03  0.50400000000E-02 0. -1.
    8880023    1    1    2    0    0 -0.81097016516E+02 -0.44087246641E+02  0.56250555665E+03  0.87105861969E+03  0.65864270000E+03 0.  1.
    8880022    1    1    2    0    0  0.81097016516E+02  0.44087246641E+02 -0.19661655264E+03  0.26565039656E+03  0.15294330000E+03 0.  0.
<mgrwt>
<rscale>  0 0.47879487E+03</rscale>
<asrwt>0</asrwt>
<pdfrwt beam="1">  1        1 0.59293848E-01 0.66507941E+03</pdfrwt>
<pdfrwt beam="2">  1       -1 0.11558446E+00 0.66507941E+03</pdfrwt>
<totfact> 0.43992151E+01</totfact>
</mgrwt>
</event>
<event>
 4    5  0.7214169E-008  0.1282749E+04  0.7818608E-02  0.9080602E-01
         -1   -1    0    0    0  501 -0.00000000000E+00  0.00000000000E+00  0.71795908004E+03  0.71795908006E+03  0.50400000000E-02 0.  1.
          1   -1    0    0  501    0  0.00000000000E+00 -0.00000000000E+00 -0.25423596291E+04  0.25423596291E+04  0.50400000000E-02 0. -1.
    8880023    1    1    2    0    0  0.11006898288E+04 -0.10811297607E+02 -0.20914546732E+03  0.12996872763E+04  0.65864270000E+03 0.  0.
    8880022    1    1    2    0    0 -0.11006898288E+04  0.10811297607E+02 -0.16152550817E+04  0.19606314328E+04  0.15294330000E+03 0.  0.
<mgrwt>
<rscale>  0 0.12375587E+04</rscale>
<asrwt>0</asrwt>
<pdfrwt beam="1">  1        1 0.39113225E+00 0.12827491E+04</pdfrwt>
<pdfrwt beam="2">  1       -1 0.11045524E+00 0.12827491E+04</pdfrwt>
<totfact> 0.93684909E-01</totfact>
</mgrwt>
</event>
<event>
 4    5  0.7214169E-008  0.1124406E+04  0.7818608E-02  0.9234358E-01
          1   -1    0    0  501    0  0.00000000000E+00  0.00000000000E+00  0.88711107037E+03  0.88711107039E+03  0.50400000000E-02 0. -1.
         -1   -1    0    0    0  501 -0.00000000000E+00 -0.00000000000E+00 -0.19491764081E+04  0.19491764081E+04  0.50400000000E-02 0.  1.
    8880023    1    1    2    0    0 -0.68314349136E+03 -0.60315269927E+03 -0.14493434386E+04  0.18343622373E+04  0.65864270000E+03 0.  0.
    8880022    1    1    2    0    0  0.68314349136E+03  0.60315269927E+03  0.38727810089E+03  0.10019252412E+04  0.15294330000E+03 0.  0.
<mgrwt>
<rscale>  0 0.10705730E+04</rscale>
<asrwt>0</asrwt>
<pdfrwt beam="1">  1        1 0.13647863E+00 0.11244058E+04</pdfrwt>
<pdfrwt beam="2">  1       -1 0.29987329E+00 0.11244058E+04</pdfrwt>
<totfact> 0.61447032E-01</totfact>
</mgrwt>
</event>
<event>
 4    5  0.7214169E-008  0.6684133E+03  0.7818608E-02  0.1016827E+00
         -1   -1    0    0    0  501 -0.00000000000E+00  0.00000000000E+00  0.11560438991E+04  0.11560438991E+04  0.50400000000E-02 0.  1.
          1   -1    0    0  501    0  0.00000000000E+00 -0.00000000000E+00 -0.94575582944E+03  0.94575582946E+03  0.50400000000E-02 0. -1.
    8880023    1    1    2    0    0  0.35749652172E+02 -0.10811172198E+03  0.10478066791E+04  0.12428496390E+04  0.65864270000E+03 0.  1.
    8880022    1    1    2    0    0 -0.35749652172E+02  0.10811172198E+03 -0.83751860950E+03  0.85895008954E+03  0.15294330000E+03 0.  0.
<mgrwt>
<rscale>  0 0.48849327E+03</rscale>
<asrwt>0</asrwt>
<pdfrwt beam="1">  1        1 0.14550090E+00 0.66841334E+03</pdfrwt>
<pdfrwt beam="2">  1       -1 0.17785291E+00 0.66841334E+03</pdfrwt>
<totfact> 0.37941349E+00</totfact>
</mgrwt>
</event>
<event>
 4    5  0.7214169E-008  0.1600703E+04  0.7818608E-02  0.8841616E-01
         -1   -1    0    0    0  501 -0.00000000000E+00  0.00000000000E+00  0.15080886744E+04  0.15080886744E+04  0.50400000000E-02 0.  1.
          1   -1    0    0  501    0  0.00000000000E+00 -0.00000000000E+00 -0.20553115694E+04  0.20553115694E+04  0.50400000000E-02 0. -1.
    8880023    1    1    2    0    0  0.14580730779E+04  0.49632969149E+02  0.59138145821E+03  0.17064532714E+04  0.65864270000E+03 0.  0.
    8880022    1    1    2    0    0 -0.14580730779E+04 -0.49632969149E+02 -0.11386043533E+04  0.18569469724E+04  0.15294330000E+03 0.  0.
<mgrwt>
<rscale>  0 0.15661529E+04</rscale>
<asrwt>0</asrwt>
<pdfrwt beam="1">  1        1 0.31620178E+00 0.16007032E+04</pdfrwt>
<pdfrwt beam="2">  1       -1 0.23201364E+00 0.16007032E+04</pdfrwt>
<totfact> 0.23341212E-01</totfact>
</mgrwt>
</event>
<event>
 4    5  0.7214169E-008  0.8615627E+03  0.7818608E-02  0.9590790E-01
          1   -1    0    0  501    0  0.00000000000E+00  0.00000000000E+00  0.24171574567E+04  0.24171574567E+04  0.50400000000E-02 0. -1.
         -1   -1    0    0    0  501 -0.00000000000E+00 -0.00000000000E+00 -0.10117299798E+04  0.10117299798E+04  0.50400000000E-02 0.  1.
    8880023    1    1    2    0    0  0.39972010978E+03 -0.38562144589E+03 -0.78403549637E+03  0.11649042585E+04  0.65864270000E+03 0.  1.
    8880022    1    1    2    0    0 -0.39972010978E+03  0.38562144589E+03  0.21894629732E+04  0.22639831779E+04  0.15294330000E+03 0.  0.
<mgrwt>
<rscale>  0 0.77908787E+03</rscale>
<asrwt>0</asrwt>
<pdfrwt beam="1">  1        1 0.37187038E+00 0.86156269E+03</pdfrwt>
<pdfrwt beam="2">  1       -1 0.15565077E+00 0.86156269E+03</pdfrwt>
<totfact> 0.50914610E-01</totfact>
</mgrwt>
</event>
<event>
 4    5  0.7214169E-008  0.1225066E+04  0.7818608E-02  0.9133133E-01
          1   -1    0    0  501    0  0.00000000000E+00  0.00000000000E+00  0.59111774770E+03  0.59111774772E+03  0.50400000000E-02 0. -1.
         -1   -1    0    0    0  501 -0.00000000000E+00 -0.00000000000E+00 -0.23152274544E+04  0.23152274544E+04  0.50400000000E-02 0.  1.
    8880023    1    1    2    0    0 -0.34791719721E+03 -0.97258959365E+03 -0.12795301593E+04  0.17714357253E+04  0.65864270000E+03 0.  0.
    8880022    1    1    2    0    0  0.34791719721E+03  0.97258959365E+03 -0.44457954738E+03  0.11349094769E+04  0.15294330000E+03 0.  0.
<mgrwt>
<rscale>  0 0.11771080E+04</rscale>
<asrwt>0</asrwt>
<pdfrwt beam="1">  1        1 0.90941193E-01 0.12250662E+04</pdfrwt>
<pdfrwt beam="2">  1       -1 0.35618883E+00 0.12250662E+04</pdfrwt>
<totfact> 0.49000487E-01</totfact>
</mgrwt>
</event>
<event>
 4    5  0.7214169E-008  0.1044415E+04  0.7818608E-02  0.9325626E-01
          1   -1    0    0  501    0  0.00000000000E+00  0.00000000000E+00  0.19137237078E+04  0.19137237078E+04  0.50400000000E-02 0. -1.
         -1   -1    0    0    0  501 -0.00000000000E+00 -0.00000000000E+00 -0.52596601262E+03  0.52596601264E+03  0.50400000000E-02 0.  1.
    8880023    1    1    2    0    0 -0.57400055147E+03  0.57228960541E+03  0.32383583937E+03  0.10934678243E+04  0.65864270000E+03 0.  0.
    8880022    1    1    2    0    0  0.57400055147E+03 -0.57228960541E+03  0.10639218558E+04  0.13462218962E+04  0.15294330000E+03 0.  0.
<mgrwt>
<rscale>  0 0.98457543E+03</rscale>
<asrwt>0</asrwt>
<pdfrwt beam="1">  1        1 0.29441903E+00 0.10444148E+04</pdfrwt>
<pdfrwt beam="2">  1       -1 0.80917848E-01 0.10444148E+04</pdfrwt>
<totfact> 0.52157420E+00</totfact>
</mgrwt>
</event>
<event>
 4    5  0.7214169E-008  0.6601462E+03  0.7818608E-02  0.1024007E+00
          1   -1    0    0  501    0  0.00000000000E+00  0.00000000000E+00  0.32680193981E+03  0.32680193985E+03  0.50400000000E-02 0. -1.
         -1   -1    0    0    0  501 -0.00000000000E+00 -0.00000000000E+00 -0.17188029799E+04  0.17188029799E+04  0.50400000000E-02 0.  1.
    8880023    1    1    2    0    0  0.31762459184E+01  0.44414789008E+02 -0.16303479909E+04  0.17589279518E+04  0.65864270000E+03 0.  1.
    8880022    1    1    2    0    0 -0.31762459184E+01 -0.44414789008E+02  0.23834695076E+03  0.28667696798E+03  0.15294330000E+03 0.  0.
<mgrwt>
<rscale>  0 0.46267879E+03</rscale>
<asrwt>0</asrwt>
<pdfrwt beam="1">  1        1 0.50277222E-01 0.66014617E+03</pdfrwt>
<pdfrwt beam="2">  1       -1 0.26443122E+00 0.66014617E+03</pdfrwt>
<totfact> 0.46475848E+00</totfact>
</mgrwt>
</event>
<event>
 4    5  0.7214169E-008  0.8275023E+03  0.7818608E-02  0.9654212E-01
         -1   -1    0    0    0  501 -0.00000000000E+00  0.00000000000E+00  0.58044586213E+03  0.58044586215E+03  0.50400000000E-02 0.  1.
          1   -1    0    0  501    0  0.00000000000E+00 -0.00000000000E+00 -0.31335523541E+04  0.31335523541E+04  0.50400000000E-02 0. -1.
    8880023    1    1    2    0    0  0.46363690815E+02 -0.49879876642E+03  0.24837514901E+03  0.86397350777E+03  0.65864270000E+03 0.  0.
    8880022    1    1    2    0    0 -0.46363690815E+02  0.49879876642E+03 -0.28014816410E+04  0.28500247085E+04  0.15294330000E+03 0.  0.
<mgrwt>
<rscale>  0 0.73809680E+03</rscale>
<asrwt>0</asrwt>
<pdfrwt beam="1">  1        1 0.48208497E+00 0.82750227E+03</pdfrwt>
<pdfrwt beam="2">  1       -1 0.89299365E-01 0.82750227E+03</pdfrwt>
<totfact> 0.62417753E-01</totfact>
</mgrwt>
</event>
<event>
 4    5  0.7214169E-008  0.7651961E+03  0.7818608E-02  0.9791836E-01
         -1   -1    0    0    0  501 -0.00000000000E+00  0.00000000000E+00  0.61262929026E+03  0.61262929028E+03  0.50400000000E-02 0.  1.
          1   -1    0    0  501    0  0.00000000000E+00 -0.00000000000E+00 -0.14927285054E+04  0.14927285055E+04  0.50400000000E-02 0. -1.
    8880023    1    1    2    0    0  0.33306756689E+03  0.20194273113E+03  0.32374076955E+03  0.83086290259E+03  0.65864270000E+03 0.  1.
    8880022    1    1    2    0    0 -0.33306756689E+03 -0.20194273113E+03 -0.12038399847E+04  0.12744948931E+04  0.15294330000E+03 0.  0.
<mgrwt>
<rscale>  0 0.65802494E+03</rscale>
<asrwt>0</asrwt>
<pdfrwt beam="1">  1        1 0.22965054E+00 0.76519610E+03</pdfrwt>
<pdfrwt beam="2">  1       -1 0.94250661E-01 0.76519610E+03</pdfrwt>
<totfact> 0.74832006E+00</totfact>
</mgrwt>
</event>
<event>
 4    5  0.7747873E-008  0.8004251E+03  0.7818608E-02  0.9709878E-01
          1   -1    0    0  501    0  0.00000000000E+00  0.00000000000E+00  0.17447269029E+04  0.17447269029E+04  0.50400000000E-02 0. -1.
         -1   -1    0    0    0  501 -0.00000000000E+00 -0.00000000000E+00 -0.12799960443E+04  0.12799960443E+04  0.50400000000E-02 0.  1.
    8880023    1    1    2    0    0  0.38693545685E+03  0.23906287792E+03 -0.11156587477E+04  0.13730894927E+04  0.65864270000E+03 0.  0.
    8880022    1    1    2    0    0 -0.38693545685E+03 -0.23906287792E+03  0.15803896063E+04  0.16516334545E+04  0.15294330000E+03 0.  0.
<mgrwt>
<rscale>  0 0.70431712E+03</rscale>
<asrwt>0</asrwt>
<pdfrwt beam="1">  1        1 0.26841952E+00 0.80042508E+03</pdfrwt>
<pdfrwt beam="2">  1       -1 0.19692247E+00 0.80042508E+03</pdfrwt>
<totfact> 0.73507514E-01</totfact>
</mgrwt>
</event>
<event>
 4    5  0.7214169E-008  0.7630569E+03  0.7818608E-02  0.9797257E-01
         -1   -1    0    0    0  501 -0.00000000000E+00  0.00000000000E+00  0.28182829226E+03  0.28182829231E+03  0.50400000000E-02 0.  1.
          1   -1    0    0  501    0  0.00000000000E+00 -0.00000000000E+00 -0.20675966169E+04  0.20675966169E+04  0.50400000000E-02 0. -1.
    8880023    1    1    2    0    0  0.29072022082E+03  0.25283869558E+03 -0.32221500797E+03  0.82829847905E+03  0.65864270000E+03 0.  1.
    8880022    1    1    2    0    0 -0.29072022082E+03 -0.25283869558E+03 -0.14635533167E+04  0.15211264302E+04  0.15294330000E+03 0.  0.
<mgrwt>
<rscale>  0 0.65509967E+03</rscale>
<asrwt>0</asrwt>
<pdfrwt beam="1">  1        1 0.31809178E+00 0.76305692E+03</pdfrwt>
<pdfrwt beam="2">  1       -1 0.43358200E-01 0.76305692E+03</pdfrwt>
<totfact> 0.14665589E+01</totfact>
</mgrwt>
</event>
<event>
 4    5  0.7214169E-008  0.6622881E+03  0.7818608E-02  0.1021926E+00
         -1   -1    0    0    0  501 -0.00000000000E+00  0.00000000000E+00  0.86500096541E+03  0.86500096543E+03  0.50400000000E-02 0.  1.
          1   -1    0    0  501    0  0.00000000000E+00 -0.00000000000E+00 -0.43923299362E+03  0.43923299365E+03  0.50400000000E-02 0. -1.
    8880023    1    1    2    0    0 -0.69147232981E+02  0.58269693862E+01  0.71197677108E+03  0.97238697144E+03  0.65864270000E+03 0.  1.
    8880022    1    1    2    0    0  0.69147232981E+02 -0.58269693862E+01 -0.28620879929E+03  0.33184698764E+03  0.15294330000E+03 0.  0.
<mgrwt>
<rscale>  0 0.46998036E+03</rscale>
<asrwt>0</asrwt>
<pdfrwt beam="1">  1        1 0.67574307E-01 0.66228808E+03</pdfrwt>
<pdfrwt beam="2">  1       -1 0.13307707E+00 0.66228808E+03</pdfrwt>
<totfact> 0.26141551E+01</totfact>
</mgrwt>
</event>
<event>
 4    5  0.7214169E-008  0.6646522E+03  0.7818608E-02  0.1019827E+00
         -1   -1    0    0    0  501 -0.00000000000E+00  0.00000000000E+00  0.99555001806E+02  0.99555001933E+02  0.50400000000E-02 0.  1.
          1   -1    0    0  501    0  0.00000000000E+00 -0.00000000000E+00 -0.19698857617E+04  0.19698857617E+04  0.50400000000E-02 0. -1.
    8880023    1    1    2    0    0  0.84358694879E+02 -0.28912805176E+02 -0.11555766987E+04  0.13330866636E+04  0.65864270000E+03 0.  1.
    8880022    1    1    2    0    0 -0.84358694879E+02  0.28912805176E+02 -0.71475406116E+03  0.73635410006E+03  0.15294330000E+03 0.  0.
<mgrwt>
<rscale>  0 0.47749093E+03</rscale>
<asrwt>0</asrwt>
<pdfrwt beam="1">  1        1 0.30305932E+00 0.66465220E+03</pdfrwt>
<pdfrwt beam="2">  1       -1 0.15316156E-01 0.66465220E+03</pdfrwt>
<totfact> 0.10316416E+02</totfact>
</mgrwt>
</event>
<event>
 4    5  0.7214169E-008  0.7271070E+03  0.7818608E-02  0.9899233E-01
          1   -1    0    0  501    0  0.00000000000E+00  0.00000000000E+00  0.14509474455E+04  0.14509474455E+04  0.50400000000E-02 0. -1.
         -1   -1    0    0    0  501 -0.00000000000E+00 -0.00000000000E+00 -0.10627735736E+04  0.10627735736E+04  0.50400000000E-02 0.  1.
    8880023    1    1    2    0    0  0.30566470739E+03 -0.37992506489E+02 -0.91340715040E+03  0.11674746989E+04  0.65864270000E+03 0.  1.
    8880022    1    1    2    0    0 -0.30566470739E+03  0.37992506489E+02  0.13015810223E+04  0.13462463202E+04  0.15294330000E+03 0.  0.
<mgrwt>
<rscale>  0 0.60298460E+03</rscale>
<asrwt>0</asrwt>
<pdfrwt beam="1">  1        1 0.22322268E+00 0.72710697E+03</pdfrwt>
<pdfrwt beam="2">  1       -1 0.16350363E+00 0.72710697E+03</pdfrwt>
<totfact> 0.20455892E+00</totfact>
</mgrwt>
</event>
<event>
 4    5  0.7214169E-008  0.7541711E+03  0.7818608E-02  0.9820438E-01
          1   -1    0    0  501    0  0.00000000000E+00  0.00000000000E+00  0.99608265134E+03  0.99608265135E+03  0.50400000000E-02 0. -1.
         -1   -1    0    0    0  501 -0.00000000000E+00 -0.00000000000E+00 -0.69403674186E+03  0.69403674188E+03  0.50400000000E-02 0.  1.
    8880023    1    1    2    0    0  0.36600748088E+03  0.31660118442E+02 -0.42179115929E+03  0.86410753236E+03  0.65864270000E+03 0.  1.
    8880022    1    1    2    0    0 -0.36600748088E+03 -0.31660118442E+02  0.72383706877E+03  0.82601186087E+03  0.15294330000E+03 0.  0.
<mgrwt>
<rscale>  0 0.64277142E+03</rscale>
<asrwt>0</asrwt>
<pdfrwt beam="1">  1        1 0.15324348E+00 0.75417110E+03</pdfrwt>
<pdfrwt beam="2">  1       -1 0.10677488E+00 0.75417110E+03</pdfrwt>
<totfact> 0.12857955E+01</totfact>
</mgrwt>
</event>
<event>
 4    5  0.7214169E-008  0.9634201E+03  0.7818608E-02  0.9431063E-01
         -1   -1    0    0    0  501 -0.00000000000E+00  0.00000000000E+00  0.14346088842E+04  0.14346088842E+04  0.50400000000E-02 0.  1.
          1   -1    0    0  501    0  0.00000000000E+00 -0.00000000000E+00 -0.90510138572E+03  0.90510138574E+03  0.50400000000E-02 0. -1.
    8880023    1    1    2    0    0 -0.25714867620E+03 -0.65440251158E+03  0.10699639018E+04  0.14397920149E+04  0.65864270000E+03 0.  1.
    8880022    1    1    2    0    0  0.25714867620E+03  0.65440251158E+03 -0.54045640331E+03  0.89991825502E+03  0.15294330000E+03 0.  0.
<mgrwt>
<rscale>  0 0.89562831E+03</rscale>
<asrwt>0</asrwt>
<pdfrwt beam="1">  1        1 0.13924637E+00 0.96342010E+03</pdfrwt>
<pdfrwt beam="2">  1       -1 0.22070906E+00 0.96342010E+03</pdfrwt>
<totfact> 0.19821308E+00</totfact>
</mgrwt>
</event>
<event>
 4    5  0.7214169E-008  0.1233229E+04  0.7818608E-02  0.9125479E-01
         -1   -1    0    0    0  501 -0.00000000000E+00  0.00000000000E+00  0.15392620707E+04  0.15392620707E+04  0.50400000000E-02 0.  1.
          1   -1    0    0  501    0  0.00000000000E+00 -0.00000000000E+00 -0.87180044128E+03  0.87180044129E+03  0.50400000000E-02 0. -1.
    8880023    1    1    2    0    0 -0.69270083257E+03  0.77923693728E+03  0.16699408592E+03  0.12444845836E+04  0.65864270000E+03 0.  0.
    8880022    1    1    2    0    0  0.69270083257E+03 -0.77923693728E+03  0.50046754351E+03  0.11665779284E+04  0.15294330000E+03 0.  0.
<mgrwt>
<rscale>  0 0.11856858E+04</rscale>
<asrwt>0</asrwt>
<pdfrwt beam="1">  1        1 0.13412315E+00 0.12332294E+04</pdfrwt>
<pdfrwt beam="2">  1       -1 0.23680955E+00 0.12332294E+04</pdfrwt>
<totfact> 0.15997664E+00</totfact>
</mgrwt>
</event>
<event>
 4    5  0.7214169E-008  0.8023930E+03  0.7818608E-02  0.9705646E-01
          1   -1    0    0  501    0  0.00000000000E+00  0.00000000000E+00  0.18334227639E+04  0.18334227639E+04  0.50400000000E-02 0. -1.
         -1   -1    0    0    0  501 -0.00000000000E+00 -0.00000000000E+00 -0.41941308496E+03  0.41941308499E+03  0.50400000000E-02 0.  1.
    8880023    1    1    2    0    0 -0.16277992686E+03 -0.42840051331E+03  0.47911283090E+02  0.80382212069E+03  0.65864270000E+03 0.  1.
    8880022    1    1    2    0    0  0.16277992686E+03  0.42840051331E+03  0.13660983959E+04  0.14490137282E+04  0.15294330000E+03 0.  0.
<mgrwt>
<rscale>  0 0.70681647E+03</rscale>
<asrwt>0</asrwt>
<pdfrwt beam="1">  1        1 0.28206504E+00 0.80239299E+03</pdfrwt>
<pdfrwt beam="2">  1       -1 0.64525091E-01 0.80239299E+03</pdfrwt>
<totfact> 0.97486593E+00</totfact>
</mgrwt>
</event>
<event>
 4    5  0.7214169E-008  0.6682178E+03  0.7818608E-02  0.1016974E+00
         -1   -1    0    0    0  501 -0.00000000000E+00  0.00000000000E+00  0.34166067391E+03  0.34166067395E+03  0.50400000000E-02 0.  1.
          1   -1    0    0  501    0  0.00000000000E+00 -0.00000000000E+00 -0.15144081859E+04  0.15144081859E+04  0.50400000000E-02 0. -1.
    8880023    1    1    2    0    0  0.10921613326E+03 -0.27867970610E+02 -0.18890040399E+00  0.66821780094E+03  0.65864270000E+03 0.  1.
    8880022    1    1    2    0    0 -0.10921613326E+03  0.27867970610E+02 -0.11725586115E+04  0.11878510589E+04  0.15294330000E+03 0.  0.
<mgrwt>
<rscale>  0 0.48794578E+03</rscale>
<asrwt>0</asrwt>
<pdfrwt beam="1">  1        1 0.23298587E+00 0.66821777E+03</pdfrwt>
<pdfrwt beam="2">  1       -1 0.52563181E-01 0.66821777E+03</pdfrwt>
<totfact> 0.24367240E+01</totfact>
</mgrwt>
</event>
<event>
 4    5  0.7214169E-008  0.1252723E+04  0.7818608E-02  0.9107502E-01
         -1   -1    0    0    0  501 -0.00000000000E+00  0.00000000000E+00  0.17993012393E+04  0.17993012393E+04  0.50400000000E-02 0.  1.
          1   -1    0    0  501    0  0.00000000000E+00 -0.00000000000E+00 -0.11007548392E+04  0.11007548392E+04  0.50400000000E-02 0. -1.
    8880023    1    1    2    0    0  0.86682334815E+03  0.61977483853E+03  0.11798323868E+04  0.17208481149E+04  0.65864270000E+03 0.  0.
    8880022    1    1    2    0    0 -0.86682334815E+03 -0.61977483853E+03 -0.48128598667E+03  0.11792079636E+04  0.15294330000E+03 0.  0.
<mgrwt>
<rscale>  0 0.12061371E+04</rscale>
<asrwt>0</asrwt>
<pdfrwt beam="1">  1        1 0.16934690E+00 0.12527225E+04</pdfrwt>
<pdfrwt beam="2">  1       -1 0.27681558E+00 0.12527225E+04</pdfrwt>
<totfact> 0.57710608E-01</totfact>
</mgrwt>
</event>
<event>
 4    5  0.7214169E-008  0.1032843E+04  0.7818608E-02  0.9339796E-01
         -1   -1    0    0    0  501 -0.00000000000E+00  0.00000000000E+00  0.95536221819E+03  0.95536221820E+03  0.50400000000E-02 0.  1.
          1   -1    0    0  501    0  0.00000000000E+00 -0.00000000000E+00 -0.10843820906E+04  0.10843820906E+04  0.50400000000E-02 0. -1.
    8880023    1    1    2    0    0  0.33271814822E+03  0.72267118063E+03  0.35959519335E+03  0.10936516405E+04  0.65864270000E+03 0.  0.
    8880022    1    1    2    0    0 -0.33271814822E+03 -0.72267118063E+03 -0.48861506572E+03  0.94609266826E+03  0.15294330000E+03 0.  0.
<mgrwt>
<rscale>  0 0.97200271E+03</rscale>
<asrwt>0</asrwt>
<pdfrwt beam="1">  1        1 0.16682801E+00 0.10328433E+04</pdfrwt>
<pdfrwt beam="2">  1       -1 0.14697880E+00 0.10328433E+04</pdfrwt>
<totfact> 0.47965815E+00</totfact>
</mgrwt>
</event>
<event>
 4    5  0.7214169E-008  0.9616859E+03  0.7818608E-02  0.9433496E-01
          1   -1    0    0  501    0  0.00000000000E+00  0.00000000000E+00  0.21097842462E+04  0.21097842462E+04  0.50400000000E-02 0. -1.
         -1   -1    0    0    0  501 -0.00000000000E+00 -0.00000000000E+00 -0.63777829769E+03  0.63777829771E+03  0.50400000000E-02 0.  1.
    8880023    1    1    2    0    0 -0.31426826461E+03 -0.62631071285E+03 -0.15069442588E+03  0.97342111516E+03  0.65864270000E+03 0.  1.
    8880022    1    1    2    0    0  0.31426826461E+03  0.62631071285E+03  0.16227003744E+04  0.17741414288E+04  0.15294330000E+03 0.  0.
<mgrwt>
<rscale>  0 0.89369601E+03</rscale>
<asrwt>0</asrwt>
<pdfrwt beam="1">  1        1 0.32458219E+00 0.96168595E+03</pdfrwt>
<pdfrwt beam="2">  1       -1 0.98119738E-01 0.96168595E+03</pdfrwt>
<totfact> 0.25436196E+00</totfact>
</mgrwt>
</event>
<event>
 4    5  0.7214169E-008  0.1040874E+04  0.7818608E-02  0.9329933E-01
         -1   -1    0    0    0  501 -0.00000000000E+00  0.00000000000E+00  0.47632910347E+03  0.47632910350E+03  0.50400000000E-02 0.  1.
          1   -1    0    0  501    0  0.00000000000E+00 -0.00000000000E+00 -0.24812003131E+04  0.24812003131E+04  0.50400000000E-02 0. -1.
    8880023    1    1    2    0    0  0.70479599985E+03 -0.39098838497E+03 -0.32898755627E+03  0.10916282962E+04  0.65864270000E+03 0.  0.
    8880022    1    1    2    0    0 -0.70479599985E+03  0.39098838497E+03 -0.16758836534E+04  0.18659011204E+04  0.15294330000E+03 0.  0.
<mgrwt>
<rscale>  0 0.98073282E+03</rscale>
<asrwt>0</asrwt>
<pdfrwt beam="1">  1        1 0.38172312E+00 0.10408744E+04</pdfrwt>
<pdfrwt beam="2">  1       -1 0.73281402E-01 0.10408744E+04</pdfrwt>
<totfact> 0.26530042E+00</totfact>
</mgrwt>
</event>
<event>
 4    5  0.7214169E-008  0.1222052E+04  0.7818608E-02  0.9135979E-01
          1   -1    0    0  501    0  0.00000000000E+00  0.00000000000E+00  0.30939175255E+04  0.30939175255E+04  0.50400000000E-02 0. -1.
         -1   -1    0    0    0  501 -0.00000000000E+00 -0.00000000000E+00 -0.42471675854E+03  0.42471675857E+03  0.50400000000E-02 0.  1.
    8880023    1    1    2    0    0  0.10247733905E+04  0.97157192667E+02  0.11564425330E+04  0.16824890967E+04  0.65864270000E+03 0. -1.
    8880022    1    1    2    0    0 -0.10247733905E+04 -0.97157192667E+02  0.15127582339E+04  0.18361451874E+04  0.15294330000E+03 0.  0.
<mgrwt>
<rscale>  0 0.11739384E+04</rscale>
<asrwt>0</asrwt>
<pdfrwt beam="1">  1        1 0.47598731E+00 0.12220516E+04</pdfrwt>
<pdfrwt beam="2">  1       -1 0.65341040E-01 0.12220516E+04</pdfrwt>
<totfact> 0.12080642E+00</totfact>
</mgrwt>
</event>
<event>
 4    5  0.7214169E-008  0.9115173E+03  0.7818608E-02  0.9507790E-01
         -1   -1    0    0    0  501 -0.00000000000E+00  0.00000000000E+00  0.12417190285E+04  0.12417190285E+04  0.50400000000E-02 0.  1.
          1   -1    0    0  501    0  0.00000000000E+00 -0.00000000000E+00 -0.65548909374E+03  0.65548909376E+03  0.50400000000E-02 0. -1.
    8880023    1    1    2    0    0  0.40844432701E+03  0.47981953599E+03  0.80171395477E+03  0.12139229905E+04  0.65864270000E+03 0.  1.
    8880022    1    1    2    0    0 -0.40844432701E+03 -0.47981953599E+03 -0.21548402000E+03  0.68328513175E+03  0.15294330000E+03 0.  0.
<mgrwt>
<rscale>  0 0.83711931E+03</rscale>
<asrwt>0</asrwt>
<pdfrwt beam="1">  1        1 0.10084448E+00 0.91151729E+03</pdfrwt>
<pdfrwt beam="2">  1       -1 0.19103370E+00 0.91151729E+03</pdfrwt>
<totfact> 0.52985237E+00</totfact>
</mgrwt>
</event>
<event>
 4    5  0.7214169E-008  0.9032387E+03  0.7818608E-02  0.9520852E-01
         -1   -1    0    0    0  501 -0.00000000000E+00  0.00000000000E+00  0.18155795913E+04  0.18155795913E+04  0.50400000000E-02 0.  1.
          1   -1    0    0  501    0  0.00000000000E+00 -0.00000000000E+00 -0.71598020452E+03  0.71598020454E+03  0.50400000000E-02 0. -1.
    8880023    1    1    2    0    0 -0.35278010746E+03  0.50751951995E+03  0.15203184028E+04  0.17683913932E+04  0.65864270000E+03 0.  0.
    8880022    1    1    2    0    0  0.35278010746E+03 -0.50751951995E+03 -0.42071901602E+03  0.76316840265E+03  0.15294330000E+03 0.  0.
<mgrwt>
<rscale>  0 0.82763765E+03</rscale>
<asrwt>0</asrwt>
<pdfrwt beam="1">  1        1 0.11015080E+00 0.90323866E+03</pdfrwt>
<pdfrwt beam="2">  1       -1 0.27931993E+00 0.90323866E+03</pdfrwt>
<totfact> 0.12136447E+00</totfact>
</mgrwt>
</event>
<event>
 4    5  0.7214169E-008  0.1132576E+04  0.7818608E-02  0.9225625E-01
          1   -1    0    0  501    0  0.00000000000E+00  0.00000000000E+00  0.14684822611E+04  0.14684822611E+04  0.50400000000E-02 0. -1.
         -1   -1    0    0    0  501 -0.00000000000E+00 -0.00000000000E+00 -0.87352200438E+03  0.87352200440E+03  0.50400000000E-02 0.  1.
    8880023    1    1    2    0    0 -0.29900838619E+03  0.87149987494E+03 -0.15639072791E+03  0.11433224887E+04  0.65864270000E+03 0.  1.
    8880022    1    1    2    0    0  0.29900838619E+03 -0.87149987494E+03  0.75135098463E+03  0.11986817769E+04  0.15294330000E+03 0.  0.
<mgrwt>
<rscale>  0 0.10792805E+04</rscale>
<asrwt>0</asrwt>
<pdfrwt beam="1">  1        1 0.22592035E+00 0.11325759E+04</pdfrwt>
<pdfrwt beam="2">  1       -1 0.13438800E+00 0.11325759E+04</pdfrwt>
<totfact> 0.31716956E+00</totfact>
</mgrwt>
</event>
<event>
 4    5  0.7214169E-008  0.9884137E+03  0.7818608E-02  0.9396875E-01
         -1   -1    0    0    0  501 -0.00000000000E+00  0.00000000000E+00  0.30515174931E+03  0.30515174935E+03  0.50400000000E-02 0.  1.
          1   -1    0    0  501    0  0.00000000000E+00 -0.00000000000E+00 -0.35936601814E+04  0.35936601814E+04  0.50400000000E-02 0. -1.
    8880023    1    1    2    0    0  0.71975885408E+03 -0.15842551864E+03 -0.72151580580E+03  0.12237429131E+04  0.65864270000E+03 0.  0.
    8880022    1    1    2    0    0 -0.71975885408E+03  0.15842551864E+03 -0.25669926263E+04  0.26750690177E+04  0.15294330000E+03 0.  0.
<mgrwt>
<rscale>  0 0.92333264E+03</rscale>
<asrwt>0</asrwt>
<pdfrwt beam="1">  1        1 0.55287077E+00 0.98841371E+03</pdfrwt>
<pdfrwt beam="2">  1       -1 0.46946425E-01 0.98841371E+03</pdfrwt>
<totfact> 0.99375604E-01</totfact>
</mgrwt>
</event>
<event>
 4    5  0.7214169E-008  0.7343806E+03  0.7818608E-02  0.9876629E-01
         -1   -1    0    0    0  501 -0.00000000000E+00  0.00000000000E+00  0.47494843933E+03  0.47494843936E+03  0.50400000000E-02 0.  1.
          1   -1    0    0  501    0  0.00000000000E+00 -0.00000000000E+00 -0.12584267853E+04  0.12584267853E+04  0.50400000000E-02 0. -1.
    8880023    1    1    2    0    0  0.18291869607E+03 -0.26841274920E+03  0.13548159257E+03  0.74677313924E+03  0.65864270000E+03 0.  0.
    8880022    1    1    2    0    0 -0.18291869607E+03  0.26841274920E+03 -0.91895993853E+03  0.98660208541E+03  0.15294330000E+03 0.  0.
<mgrwt>
<rscale>  0 0.61407435E+03</rscale>
<asrwt>0</asrwt>
<pdfrwt beam="1">  1        1 0.19360412E+00 0.73438060E+03</pdfrwt>
<pdfrwt beam="2">  1       -1 0.73068991E-01 0.73438060E+03</pdfrwt>
<totfact> 0.18919289E+01</totfact>
</mgrwt>
</event>
<event>
 4    5  0.7214169E-008  0.9371006E+03  0.7818608E-02  0.9468922E-01
         -1   -1    0    0    0  501 -0.00000000000E+00  0.00000000000E+00  0.87229802114E+03  0.87229802116E+03  0.50400000000E-02 0.  1.
          1   -1    0    0  501    0  0.00000000000E+00 -0.00000000000E+00 -0.14153606490E+04  0.14153606490E+04  0.50400000000E-02 0. -1.
    8880023    1    1    2    0    0 -0.47890428423E+03  0.46367876949E+03  0.48323546686E+03  0.10543595390E+04  0.65864270000E+03 0.  1.
    8880022    1    1    2    0    0  0.47890428423E+03 -0.46367876949E+03 -0.10262980947E+04  0.12332991312E+04  0.15294330000E+03 0.  0.
<mgrwt>
<rscale>  0 0.86614400E+03</rscale>
<asrwt>0</asrwt>
<pdfrwt beam="1">  1        1 0.21774779E+00 0.93710059E+03</pdfrwt>
<pdfrwt beam="2">  1       -1 0.13419970E+00 0.93710059E+03</pdfrwt>
<totfact> 0.35510977E+00</totfact>
</mgrwt>
</event>
<event>
 4    5  0.7214169E-008  0.8048081E+03  0.7818608E-02  0.9700495E-01
          1   -1    0    0  501    0  0.00000000000E+00  0.00000000000E+00  0.34177764207E+04  0.34177764207E+04  0.50400000000E-02 0. -1.
         -1   -1    0    0    0  501 -0.00000000000E+00 -0.00000000000E+00 -0.52613332051E+03  0.52613332054E+03  0.50400000000E-02 0.  1.
    8880023    1    1    2    0    0 -0.23198607817E+03  0.40011030464E+03 -0.18759129483E+03  0.82638156835E+03  0.65864270000E+03 0.  1.
    8880022    1    1    2    0    0  0.23198607817E+03 -0.40011030464E+03  0.30792343950E+04  0.31175281729E+04  0.15294330000E+03 0.  0.
<mgrwt>
<rscale>  0 0.70987334E+03</rscale>
<asrwt>0</asrwt>
<pdfrwt beam="1">  1        1 0.52581175E+00 0.80480805E+03</pdfrwt>
<pdfrwt beam="2">  1       -1 0.80943588E-01 0.80480805E+03</pdfrwt>
<totfact> 0.47601858E-01</totfact>
</mgrwt>
</event>
<event>
 4    5  0.7214169E-008  0.7289888E+03  0.7818608E-02  0.9893267E-01
         -1   -1    0    0    0  501 -0.00000000000E+00  0.00000000000E+00  0.70285680357E+03  0.70285680359E+03  0.50400000000E-02 0.  1.
          1   -1    0    0  501    0  0.00000000000E+00 -0.00000000000E+00 -0.95989868388E+03  0.95989868389E+03  0.50400000000E-02 0. -1.
    8880023    1    1    2    0    0  0.31137626626E+03  0.25677070958E+02  0.46264879897E+03  0.86340524009E+03  0.65864270000E+03 0.  1.
    8880022    1    1    2    0    0 -0.31137626626E+03 -0.25677070958E+02 -0.71969067927E+03  0.79935024739E+03  0.15294330000E+03 0.  0.
<mgrwt>
<rscale>  0 0.60588692E+03</rscale>
<asrwt>0</asrwt>
<pdfrwt beam="1">  1        1 0.14767672E+00 0.72898882E+03</pdfrwt>
<pdfrwt beam="2">  1       -1 0.10813182E+00 0.72898882E+03</pdfrwt>
<totfact> 0.13369220E+01</totfact>
</mgrwt>
</event>
<event>
 4    5  0.7214169E-008  0.7873831E+03  0.7818608E-02  0.9738771E-01
         -1   -1    0    0    0  501 -0.00000000000E+00  0.00000000000E+00  0.43873305196E+03  0.43873305199E+03  0.50400000000E-02 0.  1.
          1   -1    0    0  501    0  0.00000000000E+00 -0.00000000000E+00 -0.28249744355E+04  0.28249744355E+04  0.50400000000E-02 0. -1.
    8880023    1    1    2    0    0  0.43018166120E+03  0.33251427396E+02  0.46035599680E+02  0.78872771078E+03  0.65864270000E+03 0.  0.
    8880022    1    1    2    0    0 -0.43018166120E+03 -0.33251427396E+02 -0.24322769832E+04  0.24749797767E+04  0.15294330000E+03 0. -1.
<mgrwt>
<rscale>  0 0.68754550E+03</rscale>
<asrwt>0</asrwt>
<pdfrwt beam="1">  1        1 0.43461144E+00 0.78738309E+03</pdfrwt>
<pdfrwt beam="2">  1       -1 0.67497394E-01 0.78738309E+03</pdfrwt>
<totfact> 0.18902753E+00</totfact>
</mgrwt>
</event>
<event>
 4    5  0.7214169E-008  0.1009780E+04  0.7818608E-02  0.9368873E-01
         -1   -1    0    0    0  501 -0.00000000000E+00  0.00000000000E+00  0.13137704848E+04  0.13137704848E+04  0.50400000000E-02 0.  1.
          1   -1    0    0  501    0  0.00000000000E+00 -0.00000000000E+00 -0.16949058438E+04  0.16949058438E+04  0.50400000000E-02 0. -1.
    8880023    1    1    2    0    0 -0.43589021642E+03  0.62916201358E+03  0.10006967125E+04  0.14216361126E+04  0.65864270000E+03 0.  1.
    8880022    1    1    2    0    0  0.43589021642E+03 -0.62916201358E+03 -0.13818320715E+04  0.15870402160E+04  0.15294330000E+03 0.  0.
<mgrwt>
<rscale>  0 0.94682188E+03</rscale>
<asrwt>0</asrwt>
<pdfrwt beam="1">  1        1 0.26075475E+00 0.10097798E+04</pdfrwt>
<pdfrwt beam="2">  1       -1 0.20211854E+00 0.10097798E+04</pdfrwt>
<totfact> 0.70451892E-01</totfact>
</mgrwt>
</event>
<event>
 4    5  0.7214169E-008  0.1710808E+04  0.7818608E-02  0.8773548E-01
         -1   -1    0    0    0  501 -0.00000000000E+00  0.00000000000E+00  0.59746933533E+03  0.59746933535E+03  0.50400000000E-02 0.  1.
          1   -1    0    0  501    0  0.00000000000E+00 -0.00000000000E+00 -0.48407335692E+04  0.48407335692E+04  0.50400000000E-02 0. -1.
    8880023    1    1    2    0    0  0.11533979940E+04 -0.10782979655E+04 -0.15296239381E+04  0.22949102451E+04  0.65864270000E+03 0.  0.
    8880022    1    1    2    0    0 -0.11533979940E+04  0.10782979655E+04 -0.27136402958E+04  0.31432926595E+04  0.15294330000E+03 0.  0.
<mgrwt>
<rscale>  0 0.16788016E+04</rscale>
<asrwt>0</asrwt>
<pdfrwt beam="1">  1        1 0.74472822E+00 0.17108079E+04</pdfrwt>
<pdfrwt beam="2">  1       -1 0.91918363E-01 0.17108079E+04</pdfrwt>
<totfact> 0.14997788E-02</totfact>
</mgrwt>
</event>
<event>
 4    5  0.7214169E-008  0.8312394E+03  0.7818608E-02  0.9646926E-01
          1   -1    0    0  501    0  0.00000000000E+00  0.00000000000E+00  0.26154657534E+04  0.26154657534E+04  0.50400000000E-02 0. -1.
         -1   -1    0    0    0  501 -0.00000000000E+00 -0.00000000000E+00 -0.26214552139E+03  0.26214552144E+03  0.50400000000E-02 0.  1.
    8880023    1    1    2    0    0 -0.16465988038E+03  0.47962056770E+03  0.54659739978E+03  0.99485058621E+03  0.65864270000E+03 0.  0.
    8880022    1    1    2    0    0  0.16465988038E+03 -0.47962056770E+03  0.18067228322E+04  0.18827606887E+04  0.15294330000E+03 0.  0.
<mgrwt>
<rscale>  0 0.74266683E+03</rscale>
<asrwt>0</asrwt>
<pdfrwt beam="1">  1        1 0.40237933E+00 0.83123942E+03</pdfrwt>
<pdfrwt beam="2">  1       -1 0.40330081E-01 0.83123942E+03</pdfrwt>
<totfact> 0.70500695E+00</totfact>
</mgrwt>
</event>
<event>
 4    5  0.7214169E-008  0.8255396E+03  0.7818608E-02  0.9658074E-01
         -1   -1    0    0    0  501 -0.00000000000E+00  0.00000000000E+00  0.32769172774E+04  0.32769172774E+04  0.50400000000E-02 0.  1.
          1   -1    0    0  501    0  0.00000000000E+00 -0.00000000000E+00 -0.23587111341E+03  0.23587111347E+03  0.50400000000E-02 0. -1.
    8880023    1    1    2    0    0  0.45672805511E+03  0.19774957922E+03  0.28351347512E+04  0.29528807419E+04  0.65864270000E+03 0.  0.
    8880022    1    1    2    0    0 -0.45672805511E+03 -0.19774957922E+03  0.20591141281E+03  0.55990764895E+03  0.15294330000E+03 0. -1.
<mgrwt>
<rscale>  0 0.73568861E+03</rscale>
<asrwt>0</asrwt>
<pdfrwt beam="1">  1        1 0.36287863E-01 0.82553959E+03</pdfrwt>
<pdfrwt beam="2">  1       -1 0.50414112E+00 0.82553959E+03</pdfrwt>
<totfact> 0.17581900E-01</totfact>
</mgrwt>
</event>
<event>
 4    5  0.7214169E-008  0.9167881E+03  0.7818608E-02  0.9499602E-01
          1   -1    0    0  501    0  0.00000000000E+00  0.00000000000E+00  0.18915299280E+04  0.18915299280E+04  0.50400000000E-02 0. -1.
         -1   -1    0    0    0  501 -0.00000000000E+00 -0.00000000000E+00 -0.75348071757E+03  0.75348071759E+03  0.50400000000E-02 0.  1.
    8880023    1    1    2    0    0  0.60060466326E+03 -0.21439261231E+03 -0.37918503123E+03  0.99210969550E+03  0.65864270000E+03 0.  0.
    8880022    1    1    2    0    0 -0.60060466326E+03  0.21439261231E+03  0.15172342416E+04  0.16529009500E+04  0.15294330000E+03 0.  0.
<mgrwt>
<rscale>  0 0.84313205E+03</rscale>
<asrwt>0</asrwt>
<pdfrwt beam="1">  1        1 0.29100460E+00 0.91678807E+03</pdfrwt>
<pdfrwt beam="2">  1       -1 0.11592011E+00 0.91678807E+03</pdfrwt>
<totfact> 0.24296966E+00</totfact>
</mgrwt>
</event>
<event>
 4    5  0.7214169E-008  0.7536625E+03  0.7818608E-02  0.9821800E-01
          1   -1    0    0  501    0  0.00000000000E+00  0.00000000000E+00  0.13923334580E+04  0.13923334580E+04  0.50400000000E-02 0. -1.
         -1   -1    0    0    0  501 -0.00000000000E+00 -0.00000000000E+00 -0.32543397129E+03  0.32543397133E+03  0.50400000000E-02 0.  1.
    8880023    1    1    2    0    0 -0.29022158153E+03 -0.22353621894E+03  0.22429153161E+03  0.78632938708E+03  0.65864270000E+03 0.  0.
    8880022    1    1    2    0    0  0.29022158153E+03  0.22353621894E+03  0.84260795509E+03  0.93143804226E+03  0.15294330000E+03 0.  1.
<mgrwt>
<rscale>  0 0.64205660E+03</rscale>
<asrwt>0</asrwt>
<pdfrwt beam="1">  1        1 0.21420515E+00 0.75366253E+03</pdfrwt>
<pdfrwt beam="2">  1       -1 0.50066764E-01 0.75366253E+03</pdfrwt>
<totfact> 0.32074412E+01</totfact>
</mgrwt>
</event>
<event>
 4    5  0.7214169E-008  0.7410735E+03  0.7818608E-02  0.9856831E-01
          1   -1    0    0  501    0  0.00000000000E+00  0.00000000000E+00  0.16413683840E+04  0.16413683840E+04  0.50400000000E-02 0. -1.
         -1   -1    0    0    0  501 -0.00000000000E+00 -0.00000000000E+00 -0.40325368381E+03  0.40325368384E+03  0.50400000000E-02 0.  1.
    8880023    1    1    2    0    0  0.29768563583E+03  0.16359388040E+03 -0.10987078346E+02  0.74115492148E+03  0.65864270000E+03 0.  1.
    8880022    1    1    2    0    0 -0.29768563583E+03 -0.16359388040E+03  0.12491017785E+04  0.13034671464E+04  0.15294330000E+03 0.  0.
<mgrwt>
<rscale>  0 0.62399833E+03</rscale>
<asrwt>0</asrwt>
<pdfrwt beam="1">  1        1 0.25251821E+00 0.74107348E+03</pdfrwt>
<pdfrwt beam="2">  1       -1 0.62039029E-01 0.74107348E+03</pdfrwt>
<totfact> 0.14322502E+01</totfact>
</mgrwt>
</event>
<event>
 4    5  0.7214169E-008  0.8240418E+03  0.7818608E-02  0.9661038E-01
          1   -1    0    0  501    0  0.00000000000E+00  0.00000000000E+00  0.87352240252E+03  0.87352240254E+03  0.50400000000E-02 0. -1.
         -1   -1    0    0    0  501 -0.00000000000E+00 -0.00000000000E+00 -0.28274586937E+04  0.28274586937E+04  0.50400000000E-02 0.  1.
    8880023    1    1    2    0    0  0.44291267348E+03  0.22150169237E+03 -0.26828700673E+04  0.28065702628E+04  0.65864270000E+03 0.  1.
    8880022    1    1    2    0    0 -0.44291267348E+03 -0.22150169237E+03  0.72893377607E+03  0.89441083344E+03  0.15294330000E+03 0.  0.
<mgrwt>
<rscale>  0 0.73384693E+03</rscale>
<asrwt>0</asrwt>
<pdfrwt beam="1">  1        1 0.13438806E+00 0.82404177E+03</pdfrwt>
<pdfrwt beam="2">  1       -1 0.43499364E+00 0.82404177E+03</pdfrwt>
<totfact> 0.83679914E-02</totfact>
</mgrwt>
</event>
<event>
 4    5  0.7214169E-008  0.7538342E+03  0.7818608E-02  0.9821340E-01
          1   -1    0    0  501    0  0.00000000000E+00  0.00000000000E+00  0.37636367564E+03  0.37636367568E+03  0.50400000000E-02 0. -1.
         -1   -1    0    0    0  501 -0.00000000000E+00 -0.00000000000E+00 -0.14931300268E+04  0.14931300268E+04  0.50400000000E-02 0.  1.
    8880023    1    1    2    0    0 -0.31624246958E+03  0.18559781042E+03 -0.12420464091E+04  0.14529092660E+04  0.65864270000E+03 0.  0.
    8880022    1    1    2    0    0  0.31624246958E+03 -0.18559781042E+03  0.12528005788E+03  0.41658443648E+03  0.15294330000E+03 0.  0.
<mgrwt>
<rscale>  0 0.64229805E+03</rscale>
<asrwt>0</asrwt>
<pdfrwt beam="1">  1        1 0.57902105E-01 0.75383423E+03</pdfrwt>
<pdfrwt beam="2">  1       -1 0.22971231E+00 0.75383423E+03</pdfrwt>
<totfact> 0.63884780E+00</totfact>
</mgrwt>
</event>
<event>
 4    5  0.7214169E-008  0.7244785E+03  0.7818608E-02  0.9907714E-01
          1   -1    0    0  501    0  0.00000000000E+00  0.00000000000E+00  0.30789566443E+04  0.30789566443E+04  0.50400000000E-02 0. -1.
         -1   -1    0    0    0  501 -0.00000000000E+00 -0.00000000000E+00 -0.11765627189E+03  0.11765627200E+03  0.50400000000E-02 0.  1.
    8880023    1    1    2    0    0 -0.96835671019E+02 -0.28580016152E+03  0.11891548931E+04  0.13924648813E+04  0.65864270000E+03 0.  0.
    8880022    1    1    2    0    0  0.96835671019E+02  0.28580016152E+03  0.17721454792E+04  0.18041480350E+04  0.15294330000E+03 0.  0.
<mgrwt>
<rscale>  0 0.59888902E+03</rscale>
<asrwt>0</asrwt>
<pdfrwt beam="1">  1        1 0.47368562E+00 0.72447849E+03</pdfrwt>
<pdfrwt beam="2">  1       -1 0.18100966E-01 0.72447849E+03</pdfrwt>
<totfact> 0.13471295E+01</totfact>
</mgrwt>
</event>
<event>
 4    5  0.7214169E-008  0.1271095E+04  0.7818608E-02  0.9090932E-01
          1   -1    0    0  501    0  0.00000000000E+00  0.00000000000E+00  0.13913966802E+04  0.13913966802E+04  0.50400000000E-02 0. -1.
         -1   -1    0    0    0  501 -0.00000000000E+00 -0.00000000000E+00 -0.18080875641E+04  0.18080875641E+04  0.50400000000E-02 0.  1.
    8880023    1    1    2    0    0  0.10871128295E+04 -0.76539574069E+01 -0.12792085780E+04  0.18033462450E+04  0.65864270000E+03 0.  0.
    8880022    1    1    2    0    0 -0.10871128295E+04  0.76539574069E+01  0.86251769415E+03  0.13961379992E+04  0.15294330000E+03 0.  0.
<mgrwt>
<rscale>  0 0.12253746E+04</rscale>
<asrwt>0</asrwt>
<pdfrwt beam="1">  1        1 0.21406103E+00 0.12710952E+04</pdfrwt>
<pdfrwt beam="2">  1       -1 0.27816732E+00 0.12710952E+04</pdfrwt>
<totfact> 0.34671690E-01</totfact>
</mgrwt>
</event>
<event>
 4    5  0.7214169E-008  0.7655027E+03  0.7818608E-02  0.9791064E-01
          1   -1    0    0  501    0  0.00000000000E+00  0.00000000000E+00  0.11471071473E+04  0.11471071473E+04  0.50400000000E-02 0. -1.
         -1   -1    0    0    0  501 -0.00000000000E+00 -0.00000000000E+00 -0.92719270259E+03  0.92719270260E+03  0.50400000000E-02 0.  1.
    8880023    1    1    2    0    0  0.85280409463E+02 -0.38067225001E+03 -0.71644001027E+03  0.10484658338E+04  0.65864270000E+03 0.  1.
    8880022    1    1    2    0    0 -0.85280409463E+02  0.38067225001E+03  0.93635445497E+03  0.10258340161E+04  0.15294330000E+03 0.  0.
<mgrwt>
<rscale>  0 0.65844287E+03</rscale>
<asrwt>0</asrwt>
<pdfrwt beam="1">  1        1 0.17647802E+00 0.76550266E+03</pdfrwt>
<pdfrwt beam="2">  1       -1 0.14264503E+00 0.76550266E+03</pdfrwt>
<totfact> 0.48298576E+00</totfact>
</mgrwt>
</event>
<event>
 4    5  0.7214169E-008  0.8220977E+03  0.7818608E-02  0.9664908E-01
         -1   -1    0    0    0  501 -0.00000000000E+00  0.00000000000E+00  0.14315290310E+04  0.14315290310E+04  0.50400000000E-02 0.  1.
          1   -1    0    0  501    0  0.00000000000E+00 -0.00000000000E+00 -0.60079044444E+03  0.60079044446E+03  0.50400000000E-02 0. -1.
    8880023    1    1    2    0    0  0.95120678595E+02  0.48268677683E+03  0.11593503272E+04  0.14212451778E+04  0.65864270000E+03 0.  0.
    8880022    1    1    2    0    0 -0.95120678595E+02 -0.48268677683E+03 -0.32861174071E+03  0.61107429759E+03  0.15294330000E+03 0.  0.
<mgrwt>
<rscale>  0 0.73145151E+03</rscale>
<asrwt>0</asrwt>
<pdfrwt beam="1">  1        1 0.92429301E-01 0.82209773E+03</pdfrwt>
<pdfrwt beam="2">  1       -1 0.22023523E+00 0.82209773E+03</pdfrwt>
<totfact> 0.38538814E+00</totfact>
</mgrwt>
</event>
<event>
 4    5  0.7214169E-008  0.8904148E+03  0.7818608E-02  0.9541597E-01
          1   -1    0    0  501    0  0.00000000000E+00  0.00000000000E+00  0.23875933608E+04  0.23875933608E+04  0.50400000000E-02 0. -1.
         -1   -1    0    0    0  501 -0.00000000000E+00 -0.00000000000E+00 -0.35723244094E+03  0.35723244098E+03  0.50400000000E-02 0.  1.
    8880023    1    1    2    0    0  0.24861469006E+01  0.59918452589E+03  0.35428919371E+03  0.95831065738E+03  0.65864270000E+03 0.  1.
    8880022    1    1    2    0    0 -0.24861469006E+01 -0.59918452589E+03  0.16760717261E+04  0.17865151444E+04  0.15294330000E+03 0.  0.
<mgrwt>
<rscale>  0 0.81285267E+03</rscale>
<asrwt>0</asrwt>
<pdfrwt beam="1">  1        1 0.36732205E+00 0.89041478E+03</pdfrwt>
<pdfrwt beam="2">  1       -1 0.54958837E-01 0.89041478E+03</pdfrwt>
<totfact> 0.55963397E+00</totfact>
</mgrwt>
</event>
<event>
 4    5  0.7214169E-008  0.7075737E+03  0.7818608E-02  0.9967124E-01
         -1   -1    0    0    0  501 -0.00000000000E+00  0.00000000000E+00  0.25262289046E+03  0.25262289051E+03  0.50400000000E-02 0.  1.
          1   -1    0    0  501    0  0.00000000000E+00 -0.00000000000E+00 -0.15274615680E+04  0.15274615680E+04  0.50400000000E-02 0. -1.
    8880023    1    1    2    0    0  0.11244865911E+03 -0.23282089037E+03 -0.31534314807E+03  0.77466236208E+03  0.65864270000E+03 0.  1.
    8880022    1    1    2    0    0 -0.11244865911E+03  0.23282089037E+03 -0.95949552950E+03  0.10054220965E+04  0.15294330000E+03 0.  0.
<mgrwt>
<rscale>  0 0.57115605E+03</rscale>
<asrwt>0</asrwt>
<pdfrwt beam="1">  1        1 0.23499408E+00 0.70757365E+03</pdfrwt>
<pdfrwt beam="2">  1       -1 0.38865061E-01 0.70757365E+03</pdfrwt>
<totfact> 0.41599513E+01</totfact>
</mgrwt>
</event>
<event>
 4    5  0.7214169E-008  0.6748851E+03  0.7818608E-02  0.1012379E+00
         -1   -1    0    0    0  501 -0.00000000000E+00  0.00000000000E+00  0.15436506979E+04  0.15436506979E+04  0.50400000000E-02 0.  1.
          1   -1    0    0  501    0  0.00000000000E+00 -0.00000000000E+00 -0.96810067097E+03  0.96810067099E+03  0.50400000000E-02 0. -1.
    8880023    1    1    2    0    0 -0.11323684957E+03 -0.94005991435E+02  0.14566763975E+04  0.16054208307E+04  0.65864270000E+03 0.  1.
    8880022    1    1    2    0    0  0.11323684957E+03  0.94005991435E+02 -0.88112637054E+03  0.90633053816E+03  0.15294330000E+03 0.  0.
<mgrwt>
<rscale>  0 0.50540075E+03</rscale>
<asrwt>0</asrwt>
<pdfrwt beam="1">  1        1 0.14893857E+00 0.67488511E+03</pdfrwt>
<pdfrwt beam="2">  1       -1 0.23748472E+00 0.67488511E+03</pdfrwt>
<totfact> 0.14371234E+00</totfact>
</mgrwt>
</event>
<event>
 4    5  0.7214169E-008  0.7247243E+03  0.7818608E-02  0.9906913E-01
          1   -1    0    0  501    0  0.00000000000E+00  0.00000000000E+00  0.22304129686E+04  0.22304129686E+04  0.50400000000E-02 0. -1.
         -1   -1    0    0    0  501 -0.00000000000E+00 -0.00000000000E+00 -0.62106464847E+03  0.62106464850E+03  0.50400000000E-02 0.  1.
    8880023    1    1    2    0    0  0.29066725199E+03 -0.83232935420E+02 -0.39042716800E+03  0.82320031140E+03  0.65864270000E+03 0.  1.
    8880022    1    1    2    0    0 -0.29066725199E+03  0.83232935420E+02  0.19997754882E+04  0.20282773057E+04  0.15294330000E+03 0.  0.
<mgrwt>
<rscale>  0 0.59927423E+03</rscale>
<asrwt>0</asrwt>
<pdfrwt beam="1">  1        1 0.34314046E+00 0.72472435E+03</pdfrwt>
<pdfrwt beam="2">  1       -1 0.95548407E-01 0.72472435E+03</pdfrwt>
<totfact> 0.23341069E+00</totfact>
</mgrwt>
</event>
<event>
 4    5  0.1082781E-007  0.1019796E+04  0.7818608E-02  0.9356105E-01
         -1   -1    0    0    0  501 -0.00000000000E+00  0.00000000000E+00  0.14393588025E+04  0.14393588025E+04  0.50400000000E-02 0.  1.
          1   -1    0    0  501    0  0.00000000000E+00 -0.00000000000E+00 -0.19522721381E+04  0.19522721381E+04  0.50400000000E-02 0. -1.
    8880023    1    1    2    0    0 -0.15732666321E+03 -0.76251001165E+03  0.11573136207E+04  0.15425168459E+04  0.65864270000E+03 0.  0.
    8880022    1    1    2    0    0  0.15732666321E+03  0.76251001165E+03 -0.16702269563E+04  0.18491140947E+04  0.15294330000E+03 0.  0.
<mgrwt>
<rscale>  0 0.95777823E+03</rscale>
<asrwt>0</asrwt>
<pdfrwt beam="1">  1        1 0.30034956E+00 0.10197958E+04</pdfrwt>
<pdfrwt beam="2">  1       -1 0.22143981E+00 0.10197958E+04</pdfrwt>
<totfact> 0.34905736E-01</totfact>
</mgrwt>
</event>
<event>
 4    5  0.9310361E-008  0.6688563E+03  0.7818608E-02  0.1016496E+00
         -1   -1    0    0    0  501 -0.00000000000E+00  0.00000000000E+00  0.13242414201E+04  0.13242414201E+04  0.50400000000E-02 0.  1.
          1   -1    0    0  501    0  0.00000000000E+00 -0.00000000000E+00 -0.17329448341E+04  0.17329448341E+04  0.50400000000E-02 0. -1.
    8880023    1    1    2    0    0 -0.11597283922E+03  0.10433854487E+02  0.12338200015E+04  0.14034530869E+04  0.65864270000E+03 0.  1.
    8880022    1    1    2    0    0  0.11597283922E+03 -0.10433854487E+02 -0.16425234156E+04  0.16537331672E+04  0.15294330000E+03 0.  0.
<mgrwt>
<rscale>  0 0.48972441E+03</rscale>
<asrwt>0</asrwt>
<pdfrwt beam="1">  1        1 0.26660690E+00 0.66885632E+03</pdfrwt>
<pdfrwt beam="2">  1       -1 0.20372945E+00 0.66885632E+03</pdfrwt>
<totfact> 0.69286899E-01</totfact>
</mgrwt>
</event>
<event>
 4    5  0.7214169E-008  0.1080116E+04  0.7818608E-02  0.9283524E-01
         -1   -1    0    0    0  501 -0.00000000000E+00  0.00000000000E+00  0.21504577373E+04  0.21504577373E+04  0.50400000000E-02 0.  1.
          1   -1    0    0  501    0  0.00000000000E+00 -0.00000000000E+00 -0.16299223392E+04  0.16299223392E+04  0.50400000000E-02 0. -1.
    8880023    1    1    2    0    0  0.11200584470E+03  0.84870180799E+03  0.18790532534E+04  0.21673696970E+04  0.65864270000E+03 0.  0.
    8880022    1    1    2    0    0 -0.11200584470E+03 -0.84870180799E+03 -0.13585178553E+04  0.16130103795E+04  0.15294330000E+03 0.  0.
<mgrwt>
<rscale>  0 0.10231390E+04</rscale>
<asrwt>0</asrwt>
<pdfrwt beam="1">  1        1 0.25075728E+00 0.10801159E+04</pdfrwt>
<pdfrwt beam="2">  1       -1 0.33083965E+00 0.10801159E+04</pdfrwt>
<totfact> 0.11140899E-01</totfact>
</mgrwt>
</event>
<event>
 4    5  0.7214169E-008  0.1182412E+04  0.7818608E-02  0.9174412E-01
         -1   -1    0    0    0  501 -0.00000000000E+00  0.00000000000E+00  0.10355515182E+04  0.10355515182E+04  0.50400000000E-02 0.  1.
          1   -1    0    0  501    0  0.00000000000E+00 -0.00000000000E+00 -0.13689237734E+04  0.13689237734E+04  0.50400000000E-02 0. -1.
    8880023    1    1    2    0    0  0.94141503474E+03  0.27932898419E+03  0.30774622106E+03  0.12218039499E+04  0.65864270000E+03 0.  0.
    8880022    1    1    2    0    0 -0.94141503474E+03 -0.27932898419E+03 -0.64111847622E+03  0.11826713418E+04  0.15294330000E+03 0. -1.
<mgrwt>
<rscale>  0 0.11321487E+04</rscale>
<asrwt>0</asrwt>
<pdfrwt beam="1">  1        1 0.21060366E+00 0.11824116E+04</pdfrwt>
<pdfrwt beam="2">  1       -1 0.15931562E+00 0.11824116E+04</pdfrwt>
<totfact> 0.23481261E+00</totfact>
</mgrwt>
</event>
<event>
 4    5  0.7214169E-008  0.7114331E+03  0.7818608E-02  0.9952717E-01
          1   -1    0    0  501    0  0.00000000000E+00  0.00000000000E+00  0.12494361761E+04  0.12494361761E+04  0.50400000000E-02 0. -1.
         -1   -1    0    0    0  501 -0.00000000000E+00 -0.00000000000E+00 -0.35569506069E+03  0.35569506073E+03  0.50400000000E-02 0.  1.
    8880023    1    1    2    0    0  0.26726238507E+03  0.29960212301E+02  0.57802565657E+02  0.71377737401E+03  0.65864270000E+03 0.  1.
    8880022    1    1    2    0    0 -0.26726238507E+03 -0.29960212301E+02  0.83593854974E+03  0.89135386281E+03  0.15294330000E+03 0.  0.
<mgrwt>
<rscale>  0 0.57773009E+03</rscale>
<asrwt>0</asrwt>
<pdfrwt beam="1">  1        1 0.19222095E+00 0.71143306E+03</pdfrwt>
<pdfrwt beam="2">  1       -1 0.54722316E-01 0.71143306E+03</pdfrwt>
<totfact> 0.34287325E+01</totfact>
</mgrwt>
</event>
<event>
 4    5  0.7214169E-008  0.1263576E+04  0.7818608E-02  0.9097670E-01
          1   -1    0    0  501    0  0.00000000000E+00  0.00000000000E+00  0.15412987639E+04  0.15412987639E+04  0.50400000000E-02 0. -1.
         -1   -1    0    0    0  501 -0.00000000000E+00 -0.00000000000E+00 -0.11531247054E+04  0.11531247055E+04  0.50400000000E-02 0.  1.
    8880023    1    1    2    0    0 -0.10783311026E+04  0.41450418843E+01 -0.42725984329E+03  0.13338576866E+04  0.65864270000E+03 0.  0.
    8880022    1    1    2    0    0  0.10783311026E+04 -0.41450418843E+01  0.81543390172E+03  0.13605657828E+04  0.15294330000E+03 0.  0.
<mgrwt>
<rscale>  0 0.12175062E+04</rscale>
<asrwt>0</asrwt>
<pdfrwt beam="1">  1        1 0.23712289E+00 0.12635764E+04</pdfrwt>
<pdfrwt beam="2">  1       -1 0.17740380E+00 0.12635764E+04</pdfrwt>
<totfact> 0.12946138E+00</totfact>
</mgrwt>
</event>
<event>
 4    5  0.7214169E-008  0.1249111E+04  0.7818608E-02  0.9110801E-01
         -1   -1    0    0    0  501 -0.00000000000E+00  0.00000000000E+00  0.32189630136E+03  0.32189630140E+03  0.50400000000E-02 0.  1.
          1   -1    0    0  501    0  0.00000000000E+00 -0.00000000000E+00 -0.46984572150E+04  0.46984572150E+04  0.50400000000E-02 0. -1.
    8880023    1    1    2    0    0 -0.99583495474E+03  0.36712542063E+03 -0.15093711213E+04  0.19592038484E+04  0.65864270000E+03 0.  0.
    8880022    1    1    2    0    0  0.99583495474E+03 -0.36712542063E+03 -0.28671897923E+04  0.30611496680E+04  0.15294330000E+03 0.  0.
<mgrwt>
<rscale>  0 0.12023514E+04</rscale>
<asrwt>0</asrwt>
<pdfrwt beam="1">  1        1 0.72283953E+00 0.12491111E+04</pdfrwt>
<pdfrwt beam="2">  1       -1 0.49522511E-01 0.12491111E+04</pdfrwt>
<totfact> 0.83416884E-02</totfact>
</mgrwt>
</event>
<event>
 4    5  0.7214169E-008  0.8331511E+03  0.7818608E-02  0.9643232E-01
         -1   -1    0    0    0  501 -0.00000000000E+00  0.00000000000E+00  0.12433527945E+04  0.12433527945E+04  0.50400000000E-02 0.  1.
          1   -1    0    0  501    0  0.00000000000E+00 -0.00000000000E+00 -0.13819244976E+04  0.13819244976E+04  0.50400000000E-02 0. -1.
    8880023    1    1    2    0    0  0.10613775830E+03 -0.49906446342E+03  0.10396206867E+04  0.13322732230E+04  0.65864270000E+03 0.  1.
    8880022    1    1    2    0    0 -0.10613775830E+03  0.49906446342E+03 -0.11781923897E+04  0.12930040691E+04  0.15294330000E+03 0.  0.
<mgrwt>
<rscale>  0 0.74499696E+03</rscale>
<asrwt>0</asrwt>
<pdfrwt beam="1">  1        1 0.21260377E+00 0.83315111E+03</pdfrwt>
<pdfrwt beam="2">  1       -1 0.19128504E+00 0.83315111E+03</pdfrwt>
<totfact> 0.14141273E+00</totfact>
</mgrwt>
</event>
<event>
 4    5  0.7214169E-008  0.1859889E+04  0.7818608E-02  0.8690112E-01
          1   -1    0    0  501    0  0.00000000000E+00  0.00000000000E+00  0.25647770959E+04  0.25647770959E+04  0.50400000000E-02 0. -1.
         -1   -1    0    0    0  501 -0.00000000000E+00 -0.00000000000E+00 -0.17496284202E+04  0.17496284202E+04  0.50400000000E-02 0.  1.
    8880023    1    1    2    0    0  0.14159279297E+04  0.10102097150E+04 -0.71515018690E+03  0.19926428598E+04  0.65864270000E+03 0.  0.
    8880022    1    1    2    0    0 -0.14159279297E+04 -0.10102097150E+04  0.15302988625E+04  0.23217626563E+04  0.15294330000E+03 0.  0.
<mgrwt>
<rscale>  0 0.18307572E+04</rscale>
<asrwt>0</asrwt>
<pdfrwt beam="1">  1        1 0.39458109E+00 0.18598886E+04</pdfrwt>
<pdfrwt beam="2">  1       -1 0.26917360E+00 0.18598886E+04</pdfrwt>
<totfact> 0.57665150E-02</totfact>
</mgrwt>
</event>
<event>
 4    5  0.7214169E-008  0.1326512E+04  0.7818608E-02  0.9042997E-01
         -1   -1    0    0    0  501 -0.00000000000E+00  0.00000000000E+00  0.17325438866E+04  0.17325438867E+04  0.50400000000E-02 0.  1.
          1   -1    0    0  501    0  0.00000000000E+00 -0.00000000000E+00 -0.12826356457E+04  0.12826356457E+04  0.50400000000E-02 0. -1.
    8880023    1    1    2    0    0 -0.96225004447E+02  0.11474161602E+04  0.10647085225E+04  0.17009519512E+04  0.65864270000E+03 0.  0.
    8880022    1    1    2    0    0  0.96225004447E+02 -0.11474161602E+04 -0.61480028156E+03  0.13142275812E+04  0.15294330000E+03 0.  0.
<mgrwt>
<rscale>  0 0.12831973E+04</rscale>
<asrwt>0</asrwt>
<pdfrwt beam="1">  1        1 0.19732856E+00 0.13265117E+04</pdfrwt>
<pdfrwt beam="2">  1       -1 0.26654521E+00 0.13265117E+04</pdfrwt>
<totfact> 0.48940131E-01</totfact>
</mgrwt>
</event>
<event>
 4    5  0.7214169E-008  0.1094597E+04  0.7818608E-02  0.9267096E-01
          1   -1    0    0  501    0  0.00000000000E+00  0.00000000000E+00  0.18325024826E+04  0.18325024826E+04  0.50400000000E-02 0. -1.
         -1   -1    0    0    0  501 -0.00000000000E+00 -0.00000000000E+00 -0.11826801528E+04  0.11826801528E+04  0.50400000000E-02 0.  1.
    8880023    1    1    2    0    0 -0.87158820542E+03 -0.68304500994E+02 -0.77174422704E+03  0.13393023792E+04  0.65864270000E+03 0.  0.
    8880022    1    1    2    0    0  0.87158820542E+03  0.68304500994E+02  0.14215665569E+04  0.16758802563E+04  0.15294330000E+03 0.  0.
<mgrwt>
<rscale>  0 0.10386932E+04</rscale>
<asrwt>0</asrwt>
<pdfrwt beam="1">  1        1 0.28192346E+00 0.10945966E+04</pdfrwt>
<pdfrwt beam="2">  1       -1 0.18195079E+00 0.10945966E+04</pdfrwt>
<totfact> 0.77661396E-01</totfact>
</mgrwt>
</event>
<event>
 4    5  0.7214169E-008  0.1199008E+04  0.7818608E-02  0.9158087E-01
          1   -1    0    0  501    0  0.00000000000E+00  0.00000000000E+00  0.21030685746E+04  0.21030685746E+04  0.50400000000E-02 0. -1.
         -1   -1    0    0    0  501 -0.00000000000E+00 -0.00000000000E+00 -0.92315939494E+03  0.92315939495E+03  0.50400000000E-02 0.  1.
    8880023    1    1    2    0    0 -0.53348174814E+03 -0.84806104855E+03 -0.29677934396E+03  0.12351916867E+04  0.65864270000E+03 0.  1.
    8880022    1    1    2    0    0  0.53348174814E+03  0.84806104855E+03  0.14766885236E+04  0.17910362829E+04  0.15294330000E+03 0.  0.
<mgrwt>
<rscale>  0 0.11496710E+04</rscale>
<asrwt>0</asrwt>
<pdfrwt beam="1">  1        1 0.32354901E+00 0.11990081E+04</pdfrwt>
<pdfrwt beam="2">  1       -1 0.14202452E+00 0.11990081E+04</pdfrwt>
<totfact> 0.10074083E+00</totfact>
</mgrwt>
</event>
<event>
 4    5  0.7214169E-008  0.1499052E+04  0.7818608E-02  0.8910306E-01
          1   -1    0    0  501    0  0.00000000000E+00  0.00000000000E+00  0.18238103521E+04  0.18238103521E+04  0.50400000000E-02 0. -1.
         -1   -1    0    0    0  501 -0.00000000000E+00 -0.00000000000E+00 -0.19212421471E+04  0.19212421471E+04  0.50400000000E-02 0.  1.
    8880023    1    1    2    0    0  0.76943874081E+03  0.11051294145E+04 -0.12609397332E+04  0.19588583960E+04  0.65864270000E+03 0.  1.
    8880022    1    1    2    0    0 -0.76943874081E+03 -0.11051294145E+04  0.11635079382E+04  0.17861941031E+04  0.15294330000E+03 0.  0.
<mgrwt>
<rscale>  0 0.14617344E+04</rscale>
<asrwt>0</asrwt>
<pdfrwt beam="1">  1        1 0.28058621E+00 0.14990521E+04</pdfrwt>
<pdfrwt beam="2">  1       -1 0.29557571E+00 0.14990521E+04</pdfrwt>
<totfact> 0.13070378E-01</totfact>
</mgrwt>
</event>
<event>
 4    5  0.7214169E-008  0.1092262E+04  0.7818608E-02  0.9269721E-01
          1   -1    0    0  501    0  0.00000000000E+00  0.00000000000E+00  0.27071611346E+04  0.27071611346E+04  0.50400000000E-02 0. -1.
         -1   -1    0    0    0  501 -0.00000000000E+00 -0.00000000000E+00 -0.60102287886E+03  0.60102287888E+03  0.50400000000E-02 0.  1.
    8880023    1    1    2    0    0 -0.49377606304E+03 -0.71792152595E+03  0.77458063910E+02  0.10950050574E+04  0.65864270000E+03 0.  0.
    8880022    1    1    2    0    0  0.49377606304E+03  0.71792152595E+03  0.20286801918E+04  0.22131789561E+04  0.15294330000E+03 0.  0.
<mgrwt>
<rscale>  0 0.10361887E+04</rscale>
<asrwt>0</asrwt>
<pdfrwt beam="1">  1        1 0.41648633E+00 0.10922620E+04</pdfrwt>
<pdfrwt beam="2">  1       -1 0.92465058E-01 0.10922620E+04</pdfrwt>
<totfact> 0.11123428E+00</totfact>
</mgrwt>
</event>
<event>
 4    5  0.7214169E-008  0.8413494E+03  0.7818608E-02  0.9627641E-01
          1   -1    0    0  501    0  0.00000000000E+00  0.00000000000E+00  0.26111684210E+04  0.26111684210E+04  0.50400000000E-02 0. -1.
         -1   -1    0    0    0  501 -0.00000000000E+00 -0.00000000000E+00 -0.22730255351E+03  0.22730255357E+03  0.50400000000E-02 0.  1.
    8880023    1    1    2    0    0  0.46025908082E+03  0.24943983624E+03  0.79089174874E+03  0.11547201470E+04  0.65864270000E+03 0.  1.
    8880022    1    1    2    0    0 -0.46025908082E+03 -0.24943983624E+03  0.15929741188E+04  0.16837508276E+04  0.15294330000E+03 0.  0.
<mgrwt>
<rscale>  0 0.75493421E+03</rscale>
<asrwt>0</asrwt>
<pdfrwt beam="1">  1        1 0.40171822E+00 0.84134943E+03</pdfrwt>
<pdfrwt beam="2">  1       -1 0.34969623E-01 0.84134943E+03</pdfrwt>
<totfact> 0.91673236E+00</totfact>
</mgrwt>
</event>
<event>
 4    5  0.7214169E-008  0.8938716E+03  0.7818608E-02  0.9535942E-01
          1   -1    0    0  501    0  0.00000000000E+00  0.00000000000E+00  0.17666794724E+04  0.17666794724E+04  0.50400000000E-02 0. -1.
         -1   -1    0    0    0  501 -0.00000000000E+00 -0.00000000000E+00 -0.12183757537E+04  0.12183757537E+04  0.50400000000E-02 0.  1.
    8880023    1    1    2    0    0  0.38981254250E+03  0.46178179106E+03 -0.98485268651E+03  0.13300155117E+04  0.65864270000E+03 0.  1.
    8880022    1    1    2    0    0 -0.38981254250E+03 -0.46178179106E+03  0.15331564051E+04  0.16550397145E+04  0.15294330000E+03 0.  0.
<mgrwt>
<rscale>  0 0.81685038E+03</rscale>
<asrwt>0</asrwt>
<pdfrwt beam="1">  1        1 0.27179684E+00 0.89387161E+03</pdfrwt>
<pdfrwt beam="2">  1       -1 0.18744243E+00 0.89387161E+03</pdfrwt>
<totfact> 0.81232991E-01</totfact>
</mgrwt>
</event>
<event>
 4    5  0.7214169E-008  0.1152497E+04  0.7818608E-02  0.9204741E-01
         -1   -1    0    0    0  501 -0.00000000000E+00  0.00000000000E+00  0.53680673385E+03  0.53680673387E+03  0.50400000000E-02 0.  1.
          1   -1    0    0  501    0  0.00000000000E+00 -0.00000000000E+00 -0.22839963298E+04  0.22839963298E+04  0.50400000000E-02 0. -1.
    8880023    1    1    2    0    0 -0.35796631987E+03 -0.87538508656E+03 -0.13722424444E+04  0.17920096173E+04  0.65864270000E+03 0.  0.
    8880022    1    1    2    0    0  0.35796631987E+03  0.87538508656E+03 -0.37494715158E+03  0.10287934464E+04  0.15294330000E+03 0.  0.
<mgrwt>
<rscale>  0 0.11004622E+04</rscale>
<asrwt>0</asrwt>
<pdfrwt beam="1">  1        1 0.35138405E+00 0.11524969E+04</pdfrwt>
<pdfrwt beam="2">  1       -1 0.82585652E-01 0.11524969E+04</pdfrwt>
<totfact> 0.27684319E+00</totfact>
</mgrwt>
</event>
<event>
 4    5  0.7214169E-008  0.7266769E+03  0.7818608E-02  0.9900609E-01
         -1   -1    0    0    0  501 -0.00000000000E+00  0.00000000000E+00  0.61918335193E+03  0.61918335195E+03  0.50400000000E-02 0.  1.
          1   -1    0    0  501    0  0.00000000000E+00 -0.00000000000E+00 -0.63193300787E+03  0.63193300789E+03  0.50400000000E-02 0. -1.
    8880023    1    1    2    0    0 -0.13428793071E+03 -0.27607226749E+03  0.30073805378E+03  0.78644944432E+03  0.65864270000E+03 0.  0.
    8880022    1    1    2    0    0  0.13428793071E+03  0.27607226749E+03 -0.31348770973E+03  0.46466691552E+03  0.15294330000E+03 0.  0.
<mgrwt>
<rscale>  0 0.60231790E+03</rscale>
<asrwt>0</asrwt>
<pdfrwt beam="1">  1        1 0.97220463E-01 0.72667692E+03</pdfrwt>
<pdfrwt beam="2">  1       -1 0.95258977E-01 0.72667692E+03</pdfrwt>
<totfact> 0.34675285E+01</totfact>
</mgrwt>
</event>
<event>
 4    5  0.7214169E-008  0.7084217E+03  0.7818608E-02  0.9963909E-01
          1   -1    0    0  501    0  0.00000000000E+00  0.00000000000E+00  0.77917614863E+03  0.77917614864E+03  0.50400000000E-02 0. -1.
         -1   -1    0    0    0  501 -0.00000000000E+00 -0.00000000000E+00 -0.75683933392E+03  0.75683933394E+03  0.50400000000E-02 0.  1.
    8880023    1    1    2    0    0  0.17749448401E+03 -0.19117203236E+03 -0.54454174813E+03  0.89352501897E+03  0.65864270000E+03 0.  1.
    8880022    1    1    2    0    0 -0.17749448401E+03  0.19117203236E+03  0.56687856284E+03  0.64249046361E+03  0.15294330000E+03 0.  0.
<mgrwt>
<rscale>  0 0.57261471E+03</rscale>
<asrwt>0</asrwt>
<pdfrwt beam="1">  1        1 0.11987325E+00 0.70842166E+03</pdfrwt>
<pdfrwt beam="2">  1       -1 0.11643682E+00 0.70842166E+03</pdfrwt>
<totfact> 0.15884298E+01</totfact>
</mgrwt>
</event>
<event>
 4    5  0.7214169E-008  0.7397559E+03  0.7818608E-02  0.9860659E-01
          1   -1    0    0  501    0  0.00000000000E+00  0.00000000000E+00  0.50040984235E+03  0.50040984237E+03  0.50400000000E-02 0. -1.
         -1   -1    0    0    0  501 -0.00000000000E+00 -0.00000000000E+00 -0.11646387354E+04  0.11646387355E+04  0.50400000000E-02 0.  1.
    8880023    1    1    2    0    0  0.12806680783E+03  0.31149236644E+03 -0.94539822700E+03  0.12004235151E+04  0.65864270000E+03 0.  1.
    8880022    1    1    2    0    0 -0.12806680783E+03 -0.31149236644E+03  0.28116933390E+03  0.46462506277E+03  0.15294330000E+03 0.  0.
<mgrwt>
<rscale>  0 0.62206409E+03</rscale>
<asrwt>0</asrwt>
<pdfrwt beam="1">  1        1 0.76986130E-01 0.73975591E+03</pdfrwt>
<pdfrwt beam="2">  1       -1 0.17917519E+00 0.73975591E+03</pdfrwt>
<totfact> 0.96423232E+00</totfact>
</mgrwt>
</event>
<event>
 4    5  0.7853460E-008  0.6840169E+03  0.7818608E-02  0.1007137E+00
          1   -1    0    0  501    0  0.00000000000E+00  0.00000000000E+00  0.14178878306E+04  0.14178878306E+04  0.50400000000E-02 0. -1.
         -1   -1    0    0    0  501 -0.00000000000E+00 -0.00000000000E+00 -0.16464732226E+04  0.16464732227E+04  0.50400000000E-02 0.  1.
    8880023    1    1    2    0    0 -0.11396436615E+03 -0.14519288322E+03 -0.15642978069E+04  0.17073097800E+04  0.65864270000E+03 0.  1.
    8880022    1    1    2    0    0  0.11396436615E+03  0.14519288322E+03  0.13357124148E+04  0.13570512732E+04  0.15294330000E+03 0.  0.
<mgrwt>
<rscale>  0 0.52628535E+03</rscale>
<asrwt>0</asrwt>
<pdfrwt beam="1">  1        1 0.21813659E+00 0.68401685E+03</pdfrwt>
<pdfrwt beam="2">  1       -1 0.25330357E+00 0.68401685E+03</pdfrwt>
<totfact> 0.53332312E-01</totfact>
</mgrwt>
</event>
<event>
 4    5  0.7214169E-008  0.2253575E+04  0.7818608E-02  0.8506060E-01
         -1   -1    0    0    0  501 -0.00000000000E+00  0.00000000000E+00  0.16743916311E+04  0.16743916311E+04  0.50400000000E-02 0.  1.
          1   -1    0    0  501    0  0.00000000000E+00 -0.00000000000E+00 -0.34463240250E+04  0.34463240250E+04  0.50400000000E-02 0. -1.
    8880023    1    1    2    0    0  0.13022059316E+04  0.17172791870E+04  0.10882954238E+03  0.22562008266E+04  0.65864270000E+03 0.  0.
    8880022    1    1    2    0    0 -0.13022059316E+04 -0.17172791870E+04 -0.18807619363E+04  0.28645148295E+04  0.15294330000E+03 0.  0.
<mgrwt>
<rscale>  0 0.22299617E+04</rscale>
<asrwt>0</asrwt>
<pdfrwt beam="1">  1        1 0.53020369E+00 0.22535746E+04</pdfrwt>
<pdfrwt beam="2">  1       -1 0.25759871E+00 0.22535746E+04</pdfrwt>
<totfact> 0.14805128E-02</totfact>
</mgrwt>
</event>
<event>
 4    5  0.7214169E-008  0.1114711E+04  0.7818608E-02  0.9244852E-01
         -1   -1    0    0    0  501 -0.00000000000E+00  0.00000000000E+00  0.89588730690E+03  0.89588730691E+03  0.50400000000E-02 0.  1.
          1   -1    0    0  501    0  0.00000000000E+00 -0.00000000000E+00 -0.21390641779E+04  0.21390641779E+04  0.50400000000E-02 0. -1.
    8880023    1    1    2    0    0  0.87182414315E+03 -0.22066353664E+03  0.37605803997E+03  0.11764351188E+04  0.65864270000E+03 0.  0.
    8880022    1    1    2    0    0 -0.87182414315E+03  0.22066353664E+03 -0.16192349109E+04  0.18585163660E+04  0.15294330000E+03 0.  0.
<mgrwt>
<rscale>  0 0.10602239E+04</rscale>
<asrwt>0</asrwt>
<pdfrwt beam="1">  1        1 0.32908680E+00 0.11147107E+04</pdfrwt>
<pdfrwt beam="2">  1       -1 0.13782882E+00 0.11147107E+04</pdfrwt>
<totfact> 0.10422099E+00</totfact>
</mgrwt>
</event>
<event>
 4    5  0.7214169E-008  0.7406572E+03  0.7818608E-02  0.9858037E-01
          1   -1    0    0  501    0  0.00000000000E+00  0.00000000000E+00  0.25106372650E+04  0.25106372651E+04  0.50400000000E-02 0. -1.
         -1   -1    0    0    0  501 -0.00000000000E+00 -0.00000000000E+00 -0.34905890778E+03  0.34905890782E+03  0.50400000000E-02 0.  1.
    8880023    1    1    2    0    0 -0.16312388534E+03 -0.29690653827E+03  0.79740098892E+02  0.74493730211E+03  0.65864270000E+03 0.  1.
    8880022    1    1    2    0    0  0.16312388534E+03  0.29690653827E+03  0.20818382584E+04  0.21147588708E+04  0.15294330000E+03 0.  0.
<mgrwt>
<rscale>  0 0.62338822E+03</rscale>
<asrwt>0</asrwt>
<pdfrwt beam="1">  1        1 0.38625190E+00 0.74065721E+03</pdfrwt>
<pdfrwt beam="2">  1       -1 0.53701369E-01 0.74065721E+03</pdfrwt>
<totfact> 0.49442441E+00</totfact>
</mgrwt>
</event>
<event>
 4    5  0.7214169E-008  0.8183700E+03  0.7818608E-02  0.9672399E-01
         -1   -1    0    0    0  501 -0.00000000000E+00  0.00000000000E+00  0.21449241322E+03  0.21449241328E+03  0.50400000000E-02 0.  1.
          1   -1    0    0  501    0  0.00000000000E+00 -0.00000000000E+00 -0.31201136980E+04  0.31201136980E+04  0.50400000000E-02 0. -1.
    8880023    1    1    2    0    0 -0.47626665584E+03 -0.95337696193E+02 -0.71861909075E+03  0.10891018353E+04  0.65864270000E+03 0. -1.
    8880022    1    1    2    0    0  0.47626665584E+03  0.95337696193E+02 -0.21870021941E+04  0.22455042760E+04  0.15294330000E+03 0.  0.
<mgrwt>
<rscale>  0 0.72684173E+03</rscale>
<asrwt>0</asrwt>
<pdfrwt beam="1">  1        1 0.48001746E+00 0.81836997E+03</pdfrwt>
<pdfrwt beam="2">  1       -1 0.32998835E-01 0.81836997E+03</pdfrwt>
<totfact> 0.44470895E+00</totfact>
</mgrwt>
</event>
<event>
 4    5  0.7214169E-008  0.8513139E+03  0.7818608E-02  0.9609205E-01
          1   -1    0    0  501    0  0.00000000000E+00  0.00000000000E+00  0.20218612034E+04  0.20218612034E+04  0.50400000000E-02 0. -1.
         -1   -1    0    0    0  501 -0.00000000000E+00 -0.00000000000E+00 -0.81743434731E+03  0.81743434733E+03  0.50400000000E-02 0.  1.
    8880023    1    1    2    0    0  0.41060199659E+03  0.34975862103E+03 -0.53923082429E+03  0.10077227698E+04  0.65864270000E+03 0.  1.
    8880022    1    1    2    0    0 -0.41060199659E+03 -0.34975862103E+03  0.17436576803E+04  0.18315727809E+04  0.15294330000E+03 0.  0.
<mgrwt>
<rscale>  0 0.76689909E+03</rscale>
<asrwt>0</asrwt>
<pdfrwt beam="1">  1        1 0.31105556E+00 0.85131387E+03</pdfrwt>
<pdfrwt beam="2">  1       -1 0.12575913E+00 0.85131387E+03</pdfrwt>
<totfact> 0.16443802E+00</totfact>
</mgrwt>
</event>
<event>
 4    5  0.7214169E-008  0.1603404E+04  0.7818608E-02  0.8839871E-01
         -1   -1    0    0    0  501 -0.00000000000E+00  0.00000000000E+00  0.17000458441E+04  0.17000458441E+04  0.50400000000E-02 0.  1.
          1   -1    0    0  501    0  0.00000000000E+00 -0.00000000000E+00 -0.14955021459E+04  0.14955021459E+04  0.50400000000E-02 0. -1.
    8880023    1    1    2    0    0 -0.12183920774E+04  0.80784660384E+03  0.53255741845E+03  0.16895333675E+04  0.65864270000E+03 0.  0.
    8880022    1    1    2    0    0  0.12183920774E+04 -0.80784660384E+03 -0.32801372023E+03  0.15060146226E+04  0.15294330000E+03 0.  0.
<mgrwt>
<rscale>  0 0.15689217E+04</rscale>
<asrwt>0</asrwt>
<pdfrwt beam="1">  1        1 0.23007725E+00 0.16034044E+04</pdfrwt>
<pdfrwt beam="2">  1       -1 0.26154551E+00 0.16034044E+04</pdfrwt>
<totfact> 0.36132474E-01</totfact>
</mgrwt>
</event>
<event>
 4    5  0.7214169E-008  0.1018411E+04  0.7818608E-02  0.9357857E-01
          1   -1    0    0  501    0  0.00000000000E+00  0.00000000000E+00  0.43518988035E+04  0.43518988035E+04  0.50400000000E-02 0. -1.
         -1   -1    0    0    0  501 -0.00000000000E+00 -0.00000000000E+00 -0.38131269858E+03  0.38131269862E+03  0.50400000000E-02 0.  1.
    8880023    1    1    2    0    0  0.77490024218E+03 -0.53671671516E+02  0.43046401642E+03  0.11056493609E+04  0.65864270000E+03 0.  0.
    8880022    1    1    2    0    0 -0.77490024218E+03  0.53671671516E+02  0.35401220885E+04  0.36275621412E+04  0.15294330000E+03 0.  0.
<mgrwt>
<rscale>  0 0.95626556E+03</rscale>
<asrwt>0</asrwt>
<pdfrwt beam="1">  1        1 0.66952283E+00 0.10184111E+04</pdfrwt>
<pdfrwt beam="2">  1       -1 0.58663498E-01 0.10184111E+04</pdfrwt>
<totfact> 0.14191090E-01</totfact>
</mgrwt>
</event>
<event>
 4    5  0.7214169E-008  0.9608270E+03  0.7818608E-02  0.9434705E-01
         -1   -1    0    0    0  501 -0.00000000000E+00  0.00000000000E+00  0.71705591383E+03  0.71705591385E+03  0.50400000000E-02 0.  1.
          1   -1    0    0  501    0  0.00000000000E+00 -0.00000000000E+00 -0.15517097810E+04  0.15517097810E+04  0.50400000000E-02 0. -1.
    8880023    1    1    2    0    0 -0.54206961407E+03  0.44219776505E+03  0.22785917396E+03  0.98747574113E+03  0.65864270000E+03 0.  1.
    8880022    1    1    2    0    0  0.54206961407E+03 -0.44219776505E+03 -0.10625130411E+04  0.12812899537E+04  0.15294330000E+03 0.  0.
<mgrwt>
<rscale>  0 0.89273842E+03</rscale>
<asrwt>0</asrwt>
<pdfrwt beam="1">  1        1 0.23872458E+00 0.96082701E+03</pdfrwt>
<pdfrwt beam="2">  1       -1 0.11031629E+00 0.96082701E+03</pdfrwt>
<totfact> 0.46167816E+00</totfact>
</mgrwt>
</event>
<event>
 4    5  0.7214169E-008  0.8138330E+03  0.7818608E-02  0.9681647E-01
          1   -1    0    0  501    0  0.00000000000E+00  0.00000000000E+00  0.62232692962E+03  0.62232692964E+03  0.50400000000E-02 0. -1.
         -1   -1    0    0    0  501 -0.00000000000E+00 -0.00000000000E+00 -0.91973195179E+03  0.91973195181E+03  0.50400000000E-02 0.  1.
    8880023    1    1    2    0    0 -0.44014232034E+03 -0.18651745655E+03 -0.54793858578E+03  0.98110189267E+03  0.65864270000E+03 0.  1.
    8880022    1    1    2    0    0  0.44014232034E+03  0.18651745655E+03  0.25053356361E+03  0.56095698878E+03  0.15294330000E+03 0.  0.
<mgrwt>
<rscale>  0 0.72120086E+03</rscale>
<asrwt>0</asrwt>
<pdfrwt beam="1">  1        1 0.95742605E-01 0.81383305E+03</pdfrwt>
<pdfrwt beam="2">  1       -1 0.14149722E+00 0.81383305E+03</pdfrwt>
<totfact> 0.13516331E+01</totfact>
</mgrwt>
</event>
<event>
 4    5  0.7214169E-008  0.9812184E+03  0.7818608E-02  0.9406553E-01
          1   -1    0    0  501    0  0.00000000000E+00  0.00000000000E+00  0.18871009141E+04  0.18871009141E+04  0.50400000000E-02 0. -1.
         -1   -1    0    0    0  501 -0.00000000000E+00 -0.00000000000E+00 -0.72057795506E+03  0.72057795508E+03  0.50400000000E-02 0.  1.
    8880023    1    1    2    0    0 -0.69383133870E+03 -0.21812243996E+03  0.15005217250E+04  0.17928622309E+04  0.65864270000E+03 0. -1.
    8880022    1    1    2    0    0  0.69383133870E+03  0.21812243996E+03 -0.33399876599E+03  0.81481663831E+03  0.15294330000E+03 0.  0.
<mgrwt>
<rscale>  0 0.91538358E+03</rscale>
<asrwt>0</asrwt>
<pdfrwt beam="1">  1        1 0.29032321E+00 0.98121839E+03</pdfrwt>
<pdfrwt beam="2">  1       -1 0.11085815E+00 0.98121839E+03</pdfrwt>
<totfact> 0.26963286E+00</totfact>
</mgrwt>
</event>
<event>
 4    5  0.7214169E-008  0.7055233E+03  0.7818608E-02  0.9975016E-01
         -1   -1    0    0    0  501 -0.00000000000E+00  0.00000000000E+00  0.43092570215E+03  0.43092570218E+03  0.50400000000E-02 0.  1.
          1   -1    0    0  501    0  0.00000000000E+00 -0.00000000000E+00 -0.17820654860E+04  0.17820654860E+04  0.50400000000E-02 0. -1.
    8880023    1    1    2    0    0 -0.22160278032E+03 -0.12184052636E+03  0.11721093413E+03  0.71519334131E+03  0.65864270000E+03 0.  1.
    8880022    1    1    2    0    0  0.22160278032E+03  0.12184052636E+03 -0.14683507180E+04  0.14977978469E+04  0.15294330000E+03 0.  0.
<mgrwt>
<rscale>  0 0.56759426E+03</rscale>
<asrwt>0</asrwt>
<pdfrwt beam="1">  1        1 0.27416392E+00 0.70552329E+03</pdfrwt>
<pdfrwt beam="2">  1       -1 0.66296263E-01 0.70552329E+03</pdfrwt>
<totfact> 0.10142804E+01</totfact>
</mgrwt>
</event>
<event>
 4    5  0.7327902E-008  0.7342952E+03  0.7818608E-02  0.9876888E-01
          1   -1    0    0  501    0  0.00000000000E+00  0.00000000000E+00  0.22638004893E+04  0.22638004893E+04  0.50400000000E-02 0. -1.
         -1   -1    0    0    0  501 -0.00000000000E+00 -0.00000000000E+00 -0.14602742679E+04  0.14602742679E+04  0.50400000000E-02 0.  1.
    8880023    1    1    2    0    0  0.17256811820E+03 -0.27495350277E+03 -0.13521858390E+04  0.15386994292E+04  0.65864270000E+03 0.  1.
    8880022    1    1    2    0    0 -0.17256811820E+03  0.27495350277E+03  0.21557120604E+04  0.21853753280E+04  0.15294330000E+03 0.  0.
<mgrwt>
<rscale>  0 0.61394602E+03</rscale>
<asrwt>0</asrwt>
<pdfrwt beam="1">  1        1 0.34827700E+00 0.73429517E+03</pdfrwt>
<pdfrwt beam="2">  1       -1 0.22465758E+00 0.73429517E+03</pdfrwt>
<totfact> 0.21805241E-01</totfact>
</mgrwt>
</event>
<event>
 4    5  0.7214169E-008  0.9803655E+03  0.7818608E-02  0.9407709E-01
          1   -1    0    0  501    0  0.00000000000E+00  0.00000000000E+00  0.21778207863E+04  0.21778207863E+04  0.50400000000E-02 0. -1.
         -1   -1    0    0    0  501 -0.00000000000E+00 -0.00000000000E+00 -0.49692362650E+03  0.49692362653E+03  0.50400000000E-02 0.  1.
    8880023    1    1    2    0    0 -0.65731440380E+03  0.30861639239E+03  0.17490863151E+03  0.99584614210E+03  0.65864270000E+03 0.  0.
    8880022    1    1    2    0    0  0.65731440380E+03 -0.30861639239E+03  0.15059885283E+04  0.16788982707E+04  0.15294330000E+03 0.  0.
<mgrwt>
<rscale>  0 0.91443996E+03</rscale>
<asrwt>0</asrwt>
<pdfrwt beam="1">  1        1 0.33504936E+00 0.98036550E+03</pdfrwt>
<pdfrwt beam="2">  1       -1 0.76449787E-01 0.98036550E+03</pdfrwt>
<totfact> 0.39382379E+00</totfact>
</mgrwt>
</event>
<event>
 4    5  0.7214169E-008  0.1232624E+04  0.7818608E-02  0.9126044E-01
         -1   -1    0    0    0  501 -0.00000000000E+00  0.00000000000E+00  0.10823351438E+04  0.10823351438E+04  0.50400000000E-02 0.  1.
          1   -1    0    0  501    0  0.00000000000E+00 -0.00000000000E+00 -0.20403359506E+04  0.20403359506E+04  0.50400000000E-02 0. -1.
    8880023    1    1    2    0    0  0.87170505035E+03  0.57068527851E+03  0.49490703844E+03  0.13282675050E+04  0.65864270000E+03 0.  0.
    8880022    1    1    2    0    0 -0.87170505035E+03 -0.57068527851E+03 -0.14529078452E+04  0.17944035894E+04  0.15294330000E+03 0.  0.
<mgrwt>
<rscale>  0 0.11850498E+04</rscale>
<asrwt>0</asrwt>
<pdfrwt beam="1">  1        1 0.31389784E+00 0.12326239E+04</pdfrwt>
<pdfrwt beam="2">  1       -1 0.16651310E+00 0.12326239E+04</pdfrwt>
<totfact> 0.71465819E-01</totfact>
</mgrwt>
</event>
<event>
 4    5  0.7214169E-008  0.9742401E+03  0.7818608E-02  0.9416064E-01
         -1   -1    0    0    0  501 -0.00000000000E+00  0.00000000000E+00  0.66518862196E+03  0.66518862198E+03  0.50400000000E-02 0.  1.
          1   -1    0    0  501    0  0.00000000000E+00 -0.00000000000E+00 -0.21037395687E+04  0.21037395688E+04  0.50400000000E-02 0. -1.
    8880023    1    1    2    0    0 -0.28442508675E+03 -0.65911759462E+03  0.18091620311E+03  0.99089581305E+03  0.65864270000E+03 0.  1.
    8880022    1    1    2    0    0  0.28442508675E+03  0.65911759462E+03 -0.16194671499E+04  0.17780323777E+04  0.15294330000E+03 0.  0.
<mgrwt>
<rscale>  0 0.90765422E+03</rscale>
<asrwt>0</asrwt>
<pdfrwt beam="1">  1        1 0.32365224E+00 0.97424013E+03</pdfrwt>
<pdfrwt beam="2">  1       -1 0.10233671E+00 0.97424013E+03</pdfrwt>
<totfact> 0.23270450E+00</totfact>
</mgrwt>
</event>
<event>
 4    5  0.7214169E-008  0.1061705E+04  0.7818608E-02  0.9304941E-01
         -1   -1    0    0    0  501 -0.00000000000E+00  0.00000000000E+00  0.63824261546E+03  0.63824261548E+03  0.50400000000E-02 0.  1.
          1   -1    0    0  501    0  0.00000000000E+00 -0.00000000000E+00 -0.14867098841E+04  0.14867098841E+04  0.50400000000E-02 0. -1.
    8880023    1    1    2    0    0  0.65453582691E+03 -0.51477231210E+03 -0.25757644595E+03  0.10925033244E+04  0.65864270000E+03 0.  0.
    8880022    1    1    2    0    0 -0.65453582691E+03  0.51477231210E+03 -0.59089082266E+03  0.10324491752E+04  0.15294330000E+03 0.  0.
<mgrwt>
<rscale>  0 0.10032927E+04</rscale>
<asrwt>0</asrwt>
<pdfrwt beam="1">  1        1 0.22872460E+00 0.10617052E+04</pdfrwt>
<pdfrwt beam="2">  1       -1 0.98191172E-01 0.10617052E+04</pdfrwt>
<totfact> 0.66299926E+00</totfact>
</mgrwt>
</event>
<event>
 4    5  0.7214169E-008  0.9509790E+03  0.7818608E-02  0.9448707E-01
         -1   -1    0    0    0  501 -0.00000000000E+00  0.00000000000E+00  0.33979447414E+03  0.33979447418E+03  0.50400000000E-02 0.  1.
          1   -1    0    0  501    0  0.00000000000E+00 -0.00000000000E+00 -0.22661586876E+04  0.22661586876E+04  0.50400000000E-02 0. -1.
    8880023    1    1    2    0    0  0.67667913242E+03  0.11250019278E+03 -0.65977103295E+03  0.11574363757E+04  0.65864270000E+03 0.  0.
    8880022    1    1    2    0    0 -0.67667913242E+03 -0.11250019278E+03 -0.12665931805E+04  0.14485167861E+04  0.15294330000E+03 0.  0.
<mgrwt>
<rscale>  0 0.88173437E+03</rscale>
<asrwt>0</asrwt>
<pdfrwt beam="1">  1        1 0.34863979E+00 0.95097905E+03</pdfrwt>
<pdfrwt beam="2">  1       -1 0.52276074E-01 0.95097905E+03</pdfrwt>
<totfact> 0.73893296E+00</totfact>
</mgrwt>
</event>
<event>
 4    5  0.7214169E-008  0.9374994E+03  0.7818608E-02  0.9468332E-01
         -1   -1    0    0    0  501 -0.00000000000E+00  0.00000000000E+00  0.26436732765E+04  0.26436732765E+04  0.50400000000E-02 0.  1.
          1   -1    0    0  501    0  0.00000000000E+00 -0.00000000000E+00 -0.72808007637E+03  0.72808007638E+03  0.50400000000E-02 0. -1.
    8880023    1    1    2    0    0  0.59689757851E+03 -0.29800719485E+03  0.23710108090E+04  0.25496269277E+04  0.65864270000E+03 0.  1.
    8880022    1    1    2    0    0 -0.59689757851E+03  0.29800719485E+03 -0.45541760895E+03  0.82212642518E+03  0.15294330000E+03 0.  0.
<mgrwt>
<rscale>  0 0.86659348E+03</rscale>
<asrwt>0</asrwt>
<pdfrwt beam="1">  1        1 0.11201232E+00 0.93749945E+03</pdfrwt>
<pdfrwt beam="2">  1       -1 0.40671896E+00 0.93749945E+03</pdfrwt>
<totfact> 0.17121521E-01</totfact>
</mgrwt>
</event>
<event>
 4    5  0.7214169E-008  0.8009326E+03  0.7818608E-02  0.9708783E-01
         -1   -1    0    0    0  501 -0.00000000000E+00  0.00000000000E+00  0.79124986607E+03  0.79124986608E+03  0.50400000000E-02 0.  1.
          1   -1    0    0  501    0  0.00000000000E+00 -0.00000000000E+00 -0.63119295713E+03  0.63119295715E+03  0.50400000000E-02 0. -1.
    8880023    1    1    2    0    0  0.41202392312E+03 -0.19472812121E+03  0.38854362608E+03  0.89020172435E+03  0.65864270000E+03 0.  1.
    8880022    1    1    2    0    0 -0.41202392312E+03  0.19472812121E+03 -0.22848671715E+03  0.53224109888E+03  0.15294330000E+03 0.  0.
<mgrwt>
<rscale>  0 0.70496238E+03</rscale>
<asrwt>0</asrwt>
<pdfrwt beam="1">  1        1 0.97106610E-01 0.80093256E+03</pdfrwt>
<pdfrwt beam="2">  1       -1 0.12173075E+00 0.80093256E+03</pdfrwt>
<totfact> 0.19409735E+01</totfact>
</mgrwt>
</event>
<event>
 4    5  0.7214169E-008  0.9557238E+03  0.7818608E-02  0.9441926E-01
         -1   -1    0    0    0  501 -0.00000000000E+00  0.00000000000E+00  0.64263778293E+03  0.64263778295E+03  0.50400000000E-02 0.  1.
          1   -1    0    0  501    0  0.00000000000E+00 -0.00000000000E+00 -0.16221548950E+04  0.16221548950E+04  0.50400000000E-02 0. -1.
    8880023    1    1    2    0    0 -0.69148007294E+03 -0.38120108180E+02  0.11287683822E+03  0.96236646907E+03  0.65864270000E+03 0.  1.
    8880022    1    1    2    0    0  0.69148007294E+03  0.38120108180E+02 -0.10923939502E+04  0.13024262088E+04  0.15294330000E+03 0.  0.
<mgrwt>
<rscale>  0 0.88704198E+03</rscale>
<asrwt>0</asrwt>
<pdfrwt beam="1">  1        1 0.24956229E+00 0.95572383E+03</pdfrwt>
<pdfrwt beam="2">  1       -1 0.98867352E-01 0.95572383E+03</pdfrwt>
<totfact> 0.53362599E+00</totfact>
</mgrwt>
</event>
<event>
 4    5  0.7214169E-008  0.1020973E+04  0.7818608E-02  0.9354618E-01
          1   -1    0    0  501    0  0.00000000000E+00  0.00000000000E+00  0.31482731089E+04  0.31482731090E+04  0.50400000000E-02 0. -1.
         -1   -1    0    0    0  501 -0.00000000000E+00 -0.00000000000E+00 -0.41038501504E+03  0.41038501507E+03  0.50400000000E-02 0.  1.
    8880023    1    1    2    0    0  0.63317995599E+03  0.45569676643E+03  0.41252754932E+03  0.11011655574E+04  0.65864270000E+03 0.  0.
    8880022    1    1    2    0    0 -0.63317995599E+03 -0.45569676643E+03  0.23253605446E+04  0.24574925666E+04  0.15294330000E+03 0.  0.
<mgrwt>
<rscale>  0 0.95906424E+03</rscale>
<asrwt>0</asrwt>
<pdfrwt beam="1">  1        1 0.48434968E+00 0.10209734E+04</pdfrwt>
<pdfrwt beam="2">  1       -1 0.63136160E-01 0.10209734E+04</pdfrwt>
<totfact> 0.12153398E+00</totfact>
</mgrwt>
</event>
<event>
 4    5  0.7214169E-008  0.1233587E+04  0.7818608E-02  0.9125145E-01
          1   -1    0    0  501    0  0.00000000000E+00  0.00000000000E+00  0.48214140288E+04  0.48214140288E+04  0.50400000000E-02 0. -1.
         -1   -1    0    0    0  501 -0.00000000000E+00 -0.00000000000E+00 -0.93305301660E+03  0.93305301662E+03  0.50400000000E-02 0.  1.
    8880023    1    1    2    0    0 -0.32357760087E+03 -0.99157708219E+03 -0.43223665726E+03  0.13071213822E+04  0.65864270000E+03 0.  0.
    8880022    1    1    2    0    0  0.32357760087E+03  0.99157708219E+03  0.43205976695E+04  0.44473456632E+04  0.15294330000E+03 0.  0.
<mgrwt>
<rscale>  0 0.11860617E+04</rscale>
<asrwt>0</asrwt>
<pdfrwt beam="1">  1        1 0.74175599E+00 0.12335874E+04</pdfrwt>
<pdfrwt beam="2">  1       -1 0.14354662E+00 0.12335874E+04</pdfrwt>
<totfact> 0.57859568E-03</totfact>
</mgrwt>
</event>
<event>
 4    5  0.7214169E-008  0.7986957E+03  0.7818608E-02  0.9713623E-01
          1   -1    0    0  501    0  0.00000000000E+00  0.00000000000E+00  0.18583795256E+04  0.18583795256E+04  0.50400000000E-02 0. -1.
         -1   -1    0    0    0  501 -0.00000000000E+00 -0.00000000000E+00 -0.26649934742E+03  0.26649934746E+03  0.50400000000E-02 0.  1.
    8880023    1    1    2    0    0  0.43465865760E+03  0.12319298271E+03  0.52378703422E+03  0.95512707170E+03  0.65864270000E+03 0.  1.
    8880022    1    1    2    0    0 -0.43465865760E+03 -0.12319298271E+03  0.10680931440E+04  0.11697518014E+04  0.15294330000E+03 0.  0.
<mgrwt>
<rscale>  0 0.70211430E+03</rscale>
<asrwt>0</asrwt>
<pdfrwt beam="1">  1        1 0.28590454E+00 0.79869573E+03</pdfrwt>
<pdfrwt beam="2">  1       -1 0.40999899E-01 0.79869573E+03</pdfrwt>
<totfact> 0.22327355E+01</totfact>
</mgrwt>
</event>
<event>
 4    5  0.7214169E-008  0.9002654E+03  0.7818608E-02  0.9525606E-01
          1   -1    0    0  501    0  0.00000000000E+00  0.00000000000E+00  0.19588217743E+04  0.19588217743E+04  0.50400000000E-02 0. -1.
         -1   -1    0    0    0  501 -0.00000000000E+00 -0.00000000000E+00 -0.58489131096E+03  0.58489131098E+03  0.50400000000E-02 0.  1.
    8880023    1    1    2    0    0  0.46559127096E+03  0.39986546877E+03 -0.13242683662E+03  0.90995312958E+03  0.65864270000E+03 0.  0.
    8880022    1    1    2    0    0 -0.46559127096E+03 -0.39986546877E+03  0.15063573000E+04  0.16337599557E+04  0.15294330000E+03 0.  0.
<mgrwt>
<rscale>  0 0.82422061E+03</rscale>
<asrwt>0</asrwt>
<pdfrwt beam="1">  1        1 0.30135720E+00 0.90026542E+03</pdfrwt>
<pdfrwt beam="2">  1       -1 0.89983278E-01 0.90026542E+03</pdfrwt>
<totfact> 0.39361510E+00</totfact>
</mgrwt>
</event>
<event>
 4    5  0.7214169E-008  0.6952210E+03  0.7818608E-02  0.1001763E+00
         -1   -1    0    0    0  501 -0.00000000000E+00  0.00000000000E+00  0.93170451522E+03  0.93170451523E+03  0.50400000000E-02 0.  1.
          1   -1    0    0  501    0  0.00000000000E+00 -0.00000000000E+00 -0.29027251208E+03  0.29027251212E+03  0.50400000000E-02 0. -1.
    8880023    1    1    2    0    0 -0.10084421645E+03 -0.19837470304E+03  0.65008880476E+03  0.95181286981E+03  0.65864270000E+03 0.  0.
    8880022    1    1    2    0    0  0.10084421645E+03  0.19837470304E+03 -0.86568016177E+01  0.27016415755E+03  0.15294330000E+03 0.  0.
<mgrwt>
<rscale>  0 0.54883695E+03</rscale>
<asrwt>0</asrwt>
<pdfrwt beam="1">  1        1 0.44657309E-01 0.69522103E+03</pdfrwt>
<pdfrwt beam="2">  1       -1 0.14333916E+00 0.69522103E+03</pdfrwt>
<totfact> 0.37018414E+01</totfact>
</mgrwt>
</event>
<event>
 4    5  0.7214169E-008  0.8317655E+03  0.7818608E-02  0.9645907E-01
          1   -1    0    0  501    0  0.00000000000E+00  0.00000000000E+00  0.31931719365E+04  0.31931719365E+04  0.50400000000E-02 0. -1.
         -1   -1    0    0    0  501 -0.00000000000E+00 -0.00000000000E+00 -0.37484966751E+03  0.37484966754E+03  0.50400000000E-02 0.  1.
    8880023    1    1    2    0    0 -0.44434907667E+03 -0.24612508849E+03  0.14714903884E+03  0.84468142339E+03  0.65864270000E+03 0.  1.
    8880022    1    1    2    0    0  0.44434907667E+03  0.24612508849E+03  0.26711732301E+04  0.27233401807E+04  0.15294330000E+03 0.  0.
<mgrwt>
<rscale>  0 0.74330858E+03</rscale>
<asrwt>0</asrwt>
<pdfrwt beam="1">  1        1 0.49125721E+00 0.83176551E+03</pdfrwt>
<pdfrwt beam="2">  1       -1 0.57669181E-01 0.83176551E+03</pdfrwt>
<totfact> 0.13929546E+00</totfact>
</mgrwt>
</event>
<event>
 4    5  0.7214169E-008  0.8503347E+03  0.7818608E-02  0.9610993E-01
         -1   -1    0    0    0  501 -0.00000000000E+00  0.00000000000E+00  0.53345729819E+03  0.53345729821E+03  0.50400000000E-02 0.  1.
          1   -1    0    0  501    0  0.00000000000E+00 -0.00000000000E+00 -0.95760655228E+03  0.95760655229E+03  0.50400000000E-02 0. -1.
    8880023    1    1    2    0    0  0.84077923802E+02 -0.53121544070E+03 -0.37627426542E+03  0.92986637255E+03  0.65864270000E+03 0.  0.
    8880022    1    1    2    0    0 -0.84077923802E+02  0.53121544070E+03 -0.47874988674E+02  0.56119747796E+03  0.15294330000E+03 0.  1.
<mgrwt>
<rscale>  0 0.76572856E+03</rscale>
<asrwt>0</asrwt>
<pdfrwt beam="1">  1        1 0.14732408E+00 0.85033473E+03</pdfrwt>
<pdfrwt beam="2">  1       -1 0.82070354E-01 0.85033473E+03</pdfrwt>
<totfact> 0.24541454E+01</totfact>
</mgrwt>
</event>
<event>
 4    5  0.7214169E-008  0.1153627E+04  0.7818608E-02  0.9203574E-01
          1   -1    0    0  501    0  0.00000000000E+00  0.00000000000E+00  0.14613793953E+04  0.14613793953E+04  0.50400000000E-02 0. -1.
         -1   -1    0    0    0  501 -0.00000000000E+00 -0.00000000000E+00 -0.12908280386E+04  0.12908280386E+04  0.50400000000E-02 0.  1.
    8880023    1    1    2    0    0  0.95008759225E+02  0.94234670550E+03 -0.78717186769E+03  0.13966007780E+04  0.65864270000E+03 0.  0.
    8880022    1    1    2    0    0 -0.95008759225E+02 -0.94234670550E+03  0.95772322444E+03  0.13556066558E+04  0.15294330000E+03 0.  0.
<mgrwt>
<rscale>  0 0.11016613E+04</rscale>
<asrwt>0</asrwt>
<pdfrwt beam="1">  1        1 0.22482760E+00 0.11536265E+04</pdfrwt>
<pdfrwt beam="2">  1       -1 0.19858893E+00 0.11536265E+04</pdfrwt>
<totfact> 0.10557407E+00</totfact>
</mgrwt>
</event>
<event>
 4    5  0.7616795E-008  0.1225398E+04  0.7818608E-02  0.9132821E-01
         -1   -1    0    0    0  501 -0.00000000000E+00  0.00000000000E+00  0.10415361859E+04  0.10415361859E+04  0.50400000000E-02 0.  1.
          1   -1    0    0  501    0  0.00000000000E+00 -0.00000000000E+00 -0.27149304000E+04  0.27149304000E+04  0.50400000000E-02 0. -1.
    8880023    1    1    2    0    0  0.92373606091E+02  0.10292020371E+04  0.51680087326E+03  0.13299184430E+04  0.65864270000E+03 0.  1.
    8880022    1    1    2    0    0 -0.92373606091E+02 -0.10292020371E+04 -0.21901950873E+04  0.24265481429E+04  0.15294330000E+03 0.  0.
<mgrwt>
<rscale>  0 0.11774567E+04</rscale>
<asrwt>0</asrwt>
<pdfrwt beam="1">  1        1 0.41768160E+00 0.12253979E+04</pdfrwt>
<pdfrwt beam="2">  1       -1 0.16023634E+00 0.12253979E+04</pdfrwt>
<totfact> 0.27455963E-01</totfact>
</mgrwt>
</event>
<event>
 4    5  0.7214169E-008  0.7065353E+03  0.7818608E-02  0.9971099E-01
         -1   -1    0    0    0  501 -0.00000000000E+00  0.00000000000E+00  0.39336956907E+03  0.39336956910E+03  0.50400000000E-02 0.  1.
          1   -1    0    0  501    0  0.00000000000E+00 -0.00000000000E+00 -0.16349407534E+04  0.16349407534E+04  0.50400000000E-02 0. -1.
    8880023    1    1    2    0    0  0.22226480139E+03  0.12641309606E+03  0.44732795384E+02  0.70794995730E+03  0.65864270000E+03 0.  0.
    8880022    1    1    2    0    0 -0.22226480139E+03 -0.12641309606E+03 -0.12863039797E+04  0.13203603652E+04  0.15294330000E+03 0. -1.
<mgrwt>
<rscale>  0 0.56935856E+03</rscale>
<asrwt>0</asrwt>
<pdfrwt beam="1">  1        1 0.25152934E+00 0.70653529E+03</pdfrwt>
<pdfrwt beam="2">  1       -1 0.60518396E-01 0.70653529E+03</pdfrwt>
<totfact> 0.15272121E+01</totfact>
</mgrwt>
</event>
<event>
 4    5  0.7214169E-008  0.7991761E+03  0.7818608E-02  0.9712580E-01
          1   -1    0    0  501    0  0.00000000000E+00  0.00000000000E+00  0.48985548214E+03  0.48985548217E+03  0.50400000000E-02 0. -1.
         -1   -1    0    0    0  501 -0.00000000000E+00 -0.00000000000E+00 -0.18216326287E+04  0.18216326287E+04  0.50400000000E-02 0.  1.
    8880023    1    1    2    0    0  0.41954005380E+03 -0.16987756980E+03 -0.15818216982E+04  0.17722421778E+04  0.65864270000E+03 0.  1.
    8880022    1    1    2    0    0 -0.41954005380E+03  0.16987756980E+03  0.25004455171E+03  0.53924593305E+03  0.15294330000E+03 0.  0.
<mgrwt>
<rscale>  0 0.70272681E+03</rscale>
<asrwt>0</asrwt>
<pdfrwt beam="1">  1        1 0.75362383E-01 0.79917611E+03</pdfrwt>
<pdfrwt beam="2">  1       -1 0.28025117E+00 0.79917611E+03</pdfrwt>
<totfact> 0.21035330E+00</totfact>
</mgrwt>
</event>
<event>
 4    5  0.7214169E-008  0.1044772E+04  0.7818608E-02  0.9325193E-01
          1   -1    0    0  501    0  0.00000000000E+00  0.00000000000E+00  0.34124800021E+04  0.34124800021E+04  0.50400000000E-02 0. -1.
         -1   -1    0    0    0  501 -0.00000000000E+00 -0.00000000000E+00 -0.35824891176E+03  0.35824891179E+03  0.50400000000E-02 0.  1.
    8880023    1    1    2    0    0 -0.36891246570E+03 -0.72224793196E+03  0.65402973174E+03  0.12326003322E+04  0.65864270000E+03 0.  0.
    8880022    1    1    2    0    0  0.36891246570E+03  0.72224793196E+03  0.24002013586E+04  0.25381285817E+04  0.15294330000E+03 0. -1.
<mgrwt>
<rscale>  0 0.98496303E+03</rscale>
<asrwt>0</asrwt>
<pdfrwt beam="1">  1        1 0.52499691E+00 0.10447721E+04</pdfrwt>
<pdfrwt beam="2">  1       -1 0.55115219E-01 0.10447721E+04</pdfrwt>
<totfact> 0.10027007E+00</totfact>
</mgrwt>
</event>
<event>
 4    5  0.7214169E-008  0.6648710E+03  0.7818608E-02  0.1019642E+00
          1   -1    0    0  501    0  0.00000000000E+00  0.00000000000E+00  0.15605238920E+04  0.15605238920E+04  0.50400000000E-02 0. -1.
         -1   -1    0    0    0  501 -0.00000000000E+00 -0.00000000000E+00 -0.13463571902E+03  0.13463571912E+03  0.50400000000E-02 0.  1.
    8880023    1    1    2    0    0 -0.72798802444E+02  0.54255115467E+02  0.77846130272E+03  0.10237458128E+04  0.65864270000E+03 0.  1.
    8880022    1    1    2    0    0  0.72798802444E+02 -0.54255115467E+02  0.64742687029E+03  0.67141379833E+03  0.15294330000E+03 0. -1.
<mgrwt>
<rscale>  0 0.47816076E+03</rscale>
<asrwt>0</asrwt>
<pdfrwt beam="1">  1        1 0.24008059E+00 0.66487103E+03</pdfrwt>
<pdfrwt beam="2">  1       -1 0.20713188E-01 0.66487103E+03</pdfrwt>
<totfact> 0.11801540E+02</totfact>
</mgrwt>
</event>
<event>
 4    5  0.7214169E-008  0.9307807E+03  0.7818608E-02  0.9478323E-01
         -1   -1    0    0    0  501 -0.00000000000E+00  0.00000000000E+00  0.32073942345E+03  0.32073942349E+03  0.50400000000E-02 0.  1.
          1   -1    0    0  501    0  0.00000000000E+00 -0.00000000000E+00 -0.29169876618E+04  0.29169876618E+04  0.50400000000E-02 0. -1.
    8880023    1    1    2    0    0 -0.32462786657E+03  0.57197843562E+03 -0.54589831668E+03  0.10790541048E+04  0.65864270000E+03 0.  0.
    8880022    1    1    2    0    0  0.32462786657E+03 -0.57197843562E+03 -0.20503499217E+04  0.21586729805E+04  0.15294330000E+03 0.  0.
<mgrwt>
<rscale>  0 0.85901019E+03</rscale>
<asrwt>0</asrwt>
<pdfrwt beam="1">  1        1 0.44876732E+00 0.93078074E+03</pdfrwt>
<pdfrwt beam="2">  1       -1 0.49344529E-01 0.93078074E+03</pdfrwt>
<totfact> 0.29310040E+00</totfact>
</mgrwt>
</event>
<event>
 4    5  0.7515162E-008  0.1151761E+04  0.7818608E-02  0.9205503E-01
          1   -1    0    0  501    0  0.00000000000E+00  0.00000000000E+00  0.20718025570E+04  0.20718025570E+04  0.50400000000E-02 0. -1.
         -1   -1    0    0    0  501 -0.00000000000E+00 -0.00000000000E+00 -0.14884533113E+04  0.14884533114E+04  0.50400000000E-02 0.  1.
    8880023    1    1    2    0    0  0.34897899055E+03 -0.87804165606E+03 -0.11199172481E+04  0.16064769947E+04  0.65864270000E+03 0.  1.
    8880022    1    1    2    0    0 -0.34897899055E+03  0.87804165606E+03  0.17032664938E+04  0.19537788737E+04  0.15294330000E+03 0.  0.
<mgrwt>
<rscale>  0 0.10996811E+04</rscale>
<asrwt>0</asrwt>
<pdfrwt beam="1">  1        1 0.31873885E+00 0.11517611E+04</pdfrwt>
<pdfrwt beam="2">  1       -1 0.22899282E+00 0.11517611E+04</pdfrwt>
<totfact> 0.25273695E-01</totfact>
</mgrwt>
</event>
<event>
 4    5  0.7214169E-008  0.6667386E+03  0.7818608E-02  0.1018117E+00
          1   -1    0    0  501    0  0.00000000000E+00  0.00000000000E+00  0.26548807332E+03  0.26548807337E+03  0.50400000000E-02 0. -1.
         -1   -1    0    0    0  501 -0.00000000000E+00 -0.00000000000E+00 -0.70711698171E+03  0.70711698173E+03  0.50400000000E-02 0.  1.
    8880023    1    1    2    0    0 -0.42136615715E+01 -0.10350076034E+03 -0.26638792129E+03  0.71798530153E+03  0.65864270000E+03 0.  0.
    8880022    1    1    2    0    0  0.42136615715E+01  0.10350076034E+03 -0.17524098710E+03  0.25461975357E+03  0.15294330000E+03 0.  0.
<mgrwt>
<rscale>  0 0.48372186E+03</rscale>
<asrwt>0</asrwt>
<pdfrwt beam="1">  1        1 0.40844319E-01 0.66673861E+03</pdfrwt>
<pdfrwt beam="2">  1       -1 0.10878723E+00 0.66673861E+03</pdfrwt>
<totfact> 0.82414638E+01</totfact>
</mgrwt>
</event>
<event>
 4    5  0.7214169E-008  0.7924043E+03  0.7818608E-02  0.9727467E-01
          1   -1    0    0  501    0  0.00000000000E+00  0.00000000000E+00  0.10017246262E+04  0.10017246262E+04  0.50400000000E-02 0. -1.
         -1   -1    0    0    0  501 -0.00000000000E+00 -0.00000000000E+00 -0.10330125585E+04  0.10330125585E+04  0.50400000000E-02 0.  1.
    8880023    1    1    2    0    0  0.39380833978E+03  0.19750798652E+03 -0.80613092278E+03  0.11303767886E+04  0.65864270000E+03 0.  1.
    8880022    1    1    2    0    0 -0.39380833978E+03 -0.19750798652E+03  0.77484299046E+03  0.90436039614E+03  0.15294330000E+03 0.  0.
<mgrwt>
<rscale>  0 0.69404728E+03</rscale>
<asrwt>0</asrwt>
<pdfrwt beam="1">  1        1 0.15411148E+00 0.79240433E+03</pdfrwt>
<pdfrwt beam="2">  1       -1 0.15892501E+00 0.79240433E+03</pdfrwt>
<totfact> 0.46284721E+00</totfact>
</mgrwt>
</event>
<event>
 4    5  0.7214169E-008  0.6851490E+03  0.7818608E-02  0.1006549E+00
          1   -1    0    0  501    0  0.00000000000E+00  0.00000000000E+00  0.12187329955E+04  0.12187329955E+04  0.50400000000E-02 0. -1.
         -1   -1    0    0    0  501 -0.00000000000E+00 -0.00000000000E+00 -0.17681377599E+03  0.17681377606E+03  0.50400000000E-02 0.  1.
    8880023    1    1    2    0    0 -0.18864733993E+03 -0.55809519568E+01  0.75228064325E+03  0.10175241218E+04  0.65864270000E+03 0.  1.
    8880022    1    1    2    0    0  0.18864733993E+03  0.55809519568E+01  0.28963857623E+03  0.37802264977E+03  0.15294330000E+03 0.  1.
<mgrwt>
<rscale>  0 0.52869481E+03</rscale>
<asrwt>0</asrwt>
<pdfrwt beam="1">  1        1 0.18749738E+00 0.68514901E+03</pdfrwt>
<pdfrwt beam="2">  1       -1 0.27202120E-01 0.68514901E+03</pdfrwt>
<totfact> 0.12833007E+02</totfact>
</mgrwt>
</event>
<event>
 4    5  0.7214169E-008  0.8484774E+03  0.7818608E-02  0.9614398E-01
         -1   -1    0    0    0  501 -0.00000000000E+00  0.00000000000E+00  0.24839224898E+03  0.24839224903E+03  0.50400000000E-02 0.  1.
          1   -1    0    0  501    0  0.00000000000E+00 -0.00000000000E+00 -0.25240579058E+04  0.25240579058E+04  0.50400000000E-02 0. -1.
    8880023    1    1    2    0    0 -0.18240097914E+03  0.50282550985E+03 -0.69514239612E+03  0.10968759126E+04  0.65864270000E+03 0.  1.
    8880022    1    1    2    0    0  0.18240097914E+03 -0.50282550985E+03 -0.15805232607E+04  0.16755742422E+04  0.15294330000E+03 0.  0.
<mgrwt>
<rscale>  0 0.76350510E+03</rscale>
<asrwt>0</asrwt>
<pdfrwt beam="1">  1        1 0.38831658E+00 0.84847735E+03</pdfrwt>
<pdfrwt beam="2">  1       -1 0.38214194E-01 0.84847735E+03</pdfrwt>
<totfact> 0.89637554E+00</totfact>
</mgrwt>
</event>
<event>
 4    5  0.7214169E-008  0.7148277E+03  0.7818608E-02  0.9940492E-01
          1   -1    0    0  501    0  0.00000000000E+00  0.00000000000E+00  0.26872039558E+04  0.26872039558E+04  0.50400000000E-02 0. -1.
         -1   -1    0    0    0  501 -0.00000000000E+00 -0.00000000000E+00 -0.27946522753E+03  0.27946522758E+03  0.50400000000E-02 0.  1.
    8880023    1    1    2    0    0  0.25494327475E+03  0.11032848689E+03  0.20839998881E+03  0.74458660340E+03  0.65864270000E+03 0.  0.
    8880022    1    1    2    0    0 -0.25494327475E+03 -0.11032848689E+03  0.21993387394E+04  0.22220825799E+04  0.15294330000E+03 0.  0.
<mgrwt>
<rscale>  0 0.58338364E+03</rscale>
<asrwt>0</asrwt>
<pdfrwt beam="1">  1        1 0.41341600E+00 0.71482771E+03</pdfrwt>
<pdfrwt beam="2">  1       -1 0.42994650E-01 0.71482771E+03</pdfrwt>
<totfact> 0.57051128E+00</totfact>
</mgrwt>
</event>
<event>
 4    5  0.7214169E-008  0.7050030E+03  0.7818608E-02  0.9977047E-01
         -1   -1    0    0    0  501 -0.00000000000E+00  0.00000000000E+00  0.58152070633E+03  0.58152070635E+03  0.50400000000E-02 0.  1.
          1   -1    0    0  501    0  0.00000000000E+00 -0.00000000000E+00 -0.23618099676E+04  0.23618099676E+04  0.50400000000E-02 0. -1.
    8880023    1    1    2    0    0  0.19557950543E+03 -0.15801146370E+03  0.35397089998E+03  0.78887550976E+03  0.65864270000E+03 0.  1.
    8880022    1    1    2    0    0 -0.19557950543E+03  0.15801146370E+03 -0.21342601612E+04  0.21544551642E+04  0.15294330000E+03 0.  0.
<mgrwt>
<rscale>  0 0.56668223E+03</rscale>
<asrwt>0</asrwt>
<pdfrwt beam="1">  1        1 0.36335537E+00 0.70500296E+03</pdfrwt>
<pdfrwt beam="2">  1       -1 0.89464725E-01 0.70500296E+03</pdfrwt>
<totfact> 0.22119402E+00</totfact>
</mgrwt>
</event>
<event>
 4    5  0.7214169E-008  0.9993517E+03  0.7818608E-02  0.9382406E-01
         -1   -1    0    0    0  501 -0.00000000000E+00  0.00000000000E+00  0.12025275527E+04  0.12025275527E+04  0.50400000000E-02 0.  1.
          1   -1    0    0  501    0  0.00000000000E+00 -0.00000000000E+00 -0.11276538781E+04  0.11276538781E+04  0.50400000000E-02 0. -1.
    8880023    1    1    2    0    0 -0.23351616815E+03 -0.71439745274E+03  0.79584440933E+03  0.12775257537E+04  0.65864270000E+03 0.  1.
    8880022    1    1    2    0    0  0.23351616815E+03  0.71439745274E+03 -0.72097073475E+03  0.10526556772E+04  0.15294330000E+03 0.  0.
<mgrwt>
<rscale>  0 0.93537819E+03</rscale>
<asrwt>0</asrwt>
<pdfrwt beam="1">  1        1 0.17348521E+00 0.99935165E+03</pdfrwt>
<pdfrwt beam="2">  1       -1 0.18500424E+00 0.99935165E+03</pdfrwt>
<totfact> 0.23260554E+00</totfact>
</mgrwt>
</event>
<event>
 4    5  0.7214169E-008  0.9716501E+03  0.7818608E-02  0.9419626E-01
         -1   -1    0    0    0  501 -0.00000000000E+00  0.00000000000E+00  0.59792928677E+03  0.59792928679E+03  0.50400000000E-02 0.  1.
          1   -1    0    0  501    0  0.00000000000E+00 -0.00000000000E+00 -0.23221690362E+04  0.23221690362E+04  0.50400000000E-02 0. -1.
    8880023    1    1    2    0    0 -0.71036833330E+03  0.75302408259E+02  0.78644862993E+02  0.97482759623E+03  0.65864270000E+03 0.  1.
    8880022    1    1    2    0    0  0.71036833330E+03 -0.75302408259E+02 -0.18028846125E+04  0.19452707268E+04  0.15294330000E+03 0.  0.
<mgrwt>
<rscale>  0 0.90478015E+03</rscale>
<asrwt>0</asrwt>
<pdfrwt beam="1">  1        1 0.35725677E+00 0.97165005E+03</pdfrwt>
<pdfrwt beam="2">  1       -1 0.91989122E-01 0.97165005E+03</pdfrwt>
<totfact> 0.21097790E+00</totfact>
</mgrwt>
</event>
<event>
 4    5  0.7214169E-008  0.1166395E+04  0.7818608E-02  0.9190502E-01
         -1   -1    0    0    0  501 -0.00000000000E+00  0.00000000000E+00  0.15919388009E+04  0.15919388009E+04  0.50400000000E-02 0.  1.
          1   -1    0    0  501    0  0.00000000000E+00 -0.00000000000E+00 -0.11221449909E+04  0.11221449909E+04  0.50400000000E-02 0. -1.
    8880023    1    1    2    0    0 -0.95255178992E+03 -0.13896628848E+03  0.10587512669E+04  0.15752558501E+04  0.65864270000E+03 0.  0.
    8880022    1    1    2    0    0  0.95255178992E+03  0.13896628848E+03 -0.58895745689E+03  0.11388279417E+04  0.15294330000E+03 0.  0.
<mgrwt>
<rscale>  0 0.11152005E+04</rscale>
<asrwt>0</asrwt>
<pdfrwt beam="1">  1        1 0.17263769E+00 0.11663948E+04</pdfrwt>
<pdfrwt beam="2">  1       -1 0.24491366E+00 0.11663948E+04</pdfrwt>
<totfact> 0.90517667E-01</totfact>
</mgrwt>
</event>
<event>
 4    5  0.7214169E-008  0.8529056E+03  0.7818608E-02  0.9606310E-01
         -1   -1    0    0    0  501 -0.00000000000E+00  0.00000000000E+00  0.30387908546E+03  0.30387908550E+03  0.50400000000E-02 0.  1.
          1   -1    0    0  501    0  0.00000000000E+00 -0.00000000000E+00 -0.43225619119E+04  0.43225619120E+04  0.50400000000E-02 0. -1.
    8880023    1    1    2    0    0 -0.14971954417E+03  0.52078956028E+03 -0.36180857967E+03  0.92647361678E+03  0.65864270000E+03 0.  1.
    8880022    1    1    2    0    0  0.14971954417E+03 -0.52078956028E+03 -0.36568742468E+04  0.36999673807E+04  0.15294330000E+03 0.  0.
<mgrwt>
<rscale>  0 0.76879960E+03</rscale>
<asrwt>0</asrwt>
<pdfrwt beam="1">  1        1 0.66500948E+00 0.85290557E+03</pdfrwt>
<pdfrwt beam="2">  1       -1 0.46750632E-01 0.85290557E+03</pdfrwt>
<totfact> 0.24256391E-01</totfact>
</mgrwt>
</event>
<event>
 4    5  0.7214169E-008  0.8814508E+03  0.7818608E-02  0.9556490E-01
         -1   -1    0    0    0  501 -0.00000000000E+00  0.00000000000E+00  0.63310967122E+03  0.63310967124E+03  0.50400000000E-02 0.  1.
          1   -1    0    0  501    0  0.00000000000E+00 -0.00000000000E+00 -0.15094883392E+04  0.15094883393E+04  0.50400000000E-02 0. -1.
    8880023    1    1    2    0    0 -0.36103084460E+03  0.46130463382E+03  0.20345332332E+03  0.90462627475E+03  0.65864270000E+03 0.  1.
    8880022    1    1    2    0    0  0.36103084460E+03 -0.46130463382E+03 -0.10798319914E+04  0.12379717357E+04  0.15294330000E+03 0.  0.
<mgrwt>
<rscale>  0 0.80244126E+03</rscale>
<asrwt>0</asrwt>
<pdfrwt beam="1">  1        1 0.23222897E+00 0.88145076E+03</pdfrwt>
<pdfrwt beam="2">  1       -1 0.97401488E-01 0.88145076E+03</pdfrwt>
<totfact> 0.66562658E+00</totfact>
</mgrwt>
</event>
<event>
 4    5  0.7214169E-008  0.7123192E+03  0.7818608E-02  0.9949488E-01
          1   -1    0    0  501    0  0.00000000000E+00  0.00000000000E+00  0.50301686127E+03  0.50301686129E+03  0.50400000000E-02 0. -1.
         -1   -1    0    0    0  501 -0.00000000000E+00 -0.00000000000E+00 -0.14102156843E+04  0.14102156843E+04  0.50400000000E-02 0.  1.
    8880023    1    1    2    0    0 -0.50780939183E+02  0.26647651455E+03 -0.12570580318E+04  0.14448506975E+04  0.65864270000E+03 0.  1.
    8880022    1    1    2    0    0  0.50780939183E+02 -0.26647651455E+03  0.34985920879E+03  0.46838184805E+03  0.15294330000E+03 0.  0.
<mgrwt>
<rscale>  0 0.57921701E+03</rscale>
<asrwt>0</asrwt>
<pdfrwt beam="1">  1        1 0.77387210E-01 0.71231920E+03</pdfrwt>
<pdfrwt beam="2">  1       -1 0.21695626E+00 0.71231920E+03</pdfrwt>
<totfact> 0.52853763E+00</totfact>
</mgrwt>
</event>
<event>
 4    5  0.7214169E-008  0.8748842E+03  0.7818608E-02  0.9567617E-01
          1   -1    0    0  501    0  0.00000000000E+00  0.00000000000E+00  0.95777962805E+03  0.95777962807E+03  0.50400000000E-02 0. -1.
         -1   -1    0    0    0  501 -0.00000000000E+00 -0.00000000000E+00 -0.73274359577E+03  0.73274359578E+03  0.50400000000E-02 0.  1.
    8880023    1    1    2    0    0  0.49494541523E+03  0.29434888336E+03 -0.27030548763E+03  0.91568962651E+03  0.65864270000E+03 0.  0.
    8880022    1    1    2    0    0 -0.49494541523E+03 -0.29434888336E+03  0.49534151992E+03  0.77483359734E+03  0.15294330000E+03 0.  0.
<mgrwt>
<rscale>  0 0.79477113E+03</rscale>
<asrwt>0</asrwt>
<pdfrwt beam="1">  1        1 0.14735071E+00 0.87488424E+03</pdfrwt>
<pdfrwt beam="2">  1       -1 0.11272978E+00 0.87488424E+03</pdfrwt>
<totfact> 0.11948097E+01</totfact>
</mgrwt>
</event>
<event>
 4    5  0.7214169E-008  0.7841585E+03  0.7818608E-02  0.9746158E-01
          1   -1    0    0  501    0  0.00000000000E+00  0.00000000000E+00  0.10056330650E+04  0.10056330650E+04  0.50400000000E-02 0. -1.
         -1   -1    0    0    0  501 -0.00000000000E+00 -0.00000000000E+00 -0.17087298516E+04  0.17087298516E+04  0.50400000000E-02 0.  1.
    8880023    1    1    2    0    0 -0.54500655407E+02  0.42204737863E+03 -0.15596992056E+04  0.17457279655E+04  0.65864270000E+03 0.  0.
    8880022    1    1    2    0    0  0.54500655407E+02 -0.42204737863E+03  0.85660241900E+03  0.96863495111E+03  0.15294330000E+03 0.  0.
<mgrwt>
<rscale>  0 0.68333839E+03</rscale>
<asrwt>0</asrwt>
<pdfrwt beam="1">  1        1 0.15471278E+00 0.78415848E+03</pdfrwt>
<pdfrwt beam="2">  1       -1 0.26288152E+00 0.78415848E+03</pdfrwt>
<totfact> 0.90131865E-01</totfact>
</mgrwt>
</event>
<event>
 4    5  0.7214169E-008  0.7862261E+03  0.7818608E-02  0.9741410E-01
          1   -1    0    0  501    0  0.00000000000E+00  0.00000000000E+00  0.10949143970E+04  0.10949143970E+04  0.50400000000E-02 0. -1.
         -1   -1    0    0    0  501 -0.00000000000E+00 -0.00000000000E+00 -0.88227133714E+03  0.88227133716E+03  0.50400000000E-02 0.  1.
    8880023    1    1    2    0    0 -0.42202762082E+03  0.78955863375E+02 -0.63774440644E+03  0.10123583730E+04  0.65864270000E+03 0.  1.
    8880022    1    1    2    0    0  0.42202762082E+03 -0.78955863375E+02  0.85038746632E+03  0.96482736123E+03  0.15294330000E+03 0.  0.
<mgrwt>
<rscale>  0 0.68603898E+03</rscale>
<asrwt>0</asrwt>
<pdfrwt beam="1">  1        1 0.16844837E+00 0.78622614E+03</pdfrwt>
<pdfrwt beam="2">  1       -1 0.13573405E+00 0.78622614E+03</pdfrwt>
<totfact> 0.59885447E+00</totfact>
</mgrwt>
</event>
<event>
 4    5  0.7214169E-008  0.7508632E+03  0.7818608E-02  0.9829363E-01
         -1   -1    0    0    0  501 -0.00000000000E+00  0.00000000000E+00  0.71565920584E+03  0.71565920586E+03  0.50400000000E-02 0.  1.
          1   -1    0    0  501    0  0.00000000000E+00 -0.00000000000E+00 -0.23012008965E+04  0.23012008965E+04  0.50400000000E-02 0. -1.
    8880023    1    1    2    0    0 -0.10982032625E+03 -0.34340185126E+03  0.49528363847E+03  0.89950065276E+03  0.65864270000E+03 0.  1.
    8880022    1    1    2    0    0  0.10982032625E+03  0.34340185126E+03 -0.20808253291E+04  0.21173594496E+04  0.15294330000E+03 0.  0.
<mgrwt>
<rscale>  0 0.63810278E+03</rscale>
<asrwt>0</asrwt>
<pdfrwt beam="1">  1        1 0.35403091E+00 0.75086320E+03</pdfrwt>
<pdfrwt beam="2">  1       -1 0.11010142E+00 0.75086320E+03</pdfrwt>
<totfact> 0.15014634E+00</totfact>
</mgrwt>
</event>
<event>
 4    5  0.7214169E-008  0.6717031E+03  0.7818608E-02  0.1014470E+00
         -1   -1    0    0    0  501 -0.00000000000E+00  0.00000000000E+00  0.20816497799E+03  0.20816497805E+03  0.50400000000E-02 0.  1.
          1   -1    0    0  501    0  0.00000000000E+00 -0.00000000000E+00 -0.12863471397E+04  0.12863471397E+04  0.50400000000E-02 0. -1.
    8880023    1    1    2    0    0  0.78173428598E+02  0.10613091554E+03 -0.38867281188E+03  0.77604872085E+03  0.65864270000E+03 0.  1.
    8880022    1    1    2    0    0 -0.78173428598E+02 -0.10613091554E+03 -0.68950934984E+03  0.71846339691E+03  0.15294330000E+03 0.  0.
<mgrwt>
<rscale>  0 0.49736012E+03</rscale>
<asrwt>0</asrwt>
<pdfrwt beam="1">  1        1 0.19789956E+00 0.67170311E+03</pdfrwt>
<pdfrwt beam="2">  1       -1 0.32025382E-01 0.67170311E+03</pdfrwt>
<totfact> 0.86607592E+01</totfact>
</mgrwt>
</event>
<event>
 4    5  0.7214169E-008  0.1523820E+04  0.7818608E-02  0.8892996E-01
          1   -1    0    0  501    0  0.00000000000E+00  0.00000000000E+00  0.28484571700E+04  0.28484571700E+04  0.50400000000E-02 0. -1.
         -1   -1    0    0    0  501 -0.00000000000E+00 -0.00000000000E+00 -0.88683642994E+03  0.88683642995E+03  0.50400000000E-02 0.  1.
    8880023    1    1    2    0    0  0.12345694693E+04 -0.60337017684E+03  0.26505632974E+03  0.15467004911E+04  0.65864270000E+03 0.  0.
    8880022    1    1    2    0    0 -0.12345694693E+04  0.60337017684E+03  0.16965644103E+04  0.21885931089E+04  0.15294330000E+03 0.  0.
<mgrwt>
<rscale>  0 0.14872198E+04</rscale>
<asrwt>0</asrwt>
<pdfrwt beam="1">  1        1 0.43822418E+00 0.15238201E+04</pdfrwt>
<pdfrwt beam="2">  1       -1 0.13643637E+00 0.15238201E+04</pdfrwt>
<totfact> 0.32771666E-01</totfact>
</mgrwt>
</event>
<event>
 4    5  0.7214169E-008  0.1216195E+04  0.7818608E-02  0.9141538E-01
          1   -1    0    0  501    0  0.00000000000E+00  0.00000000000E+00  0.16132692603E+04  0.16132692603E+04  0.50400000000E-02 0. -1.
         -1   -1    0    0    0  501 -0.00000000000E+00 -0.00000000000E+00 -0.92360066797E+03  0.92360066798E+03  0.50400000000E-02 0.  1.
    8880023    1    1    2    0    0  0.13837268763E+03 -0.10130023383E+04 -0.12230657785E+03  0.12223296786E+04  0.65864270000E+03 0. -1.
    8880022    1    1    2    0    0 -0.13837268763E+03  0.10130023383E+04  0.81197517021E+03  0.13145402497E+04  0.15294330000E+03 0.  0.
<mgrwt>
<rscale>  0 0.11677775E+04</rscale>
<asrwt>0</asrwt>
<pdfrwt beam="1">  1        1 0.24819527E+00 0.12161953E+04</pdfrwt>
<pdfrwt beam="2">  1       -1 0.14209241E+00 0.12161953E+04</pdfrwt>
<totfact> 0.21583520E+00</totfact>
</mgrwt>
</event>
<event>
 4    5  0.7214169E-008  0.6723708E+03  0.7818608E-02  0.1014017E+00
          1   -1    0    0  501    0  0.00000000000E+00  0.00000000000E+00  0.50575965999E+03  0.50575966001E+03  0.50400000000E-02 0. -1.
         -1   -1    0    0    0  501 -0.00000000000E+00 -0.00000000000E+00 -0.97436266178E+03  0.97436266179E+03  0.50400000000E-02 0.  1.
    8880023    1    1    2    0    0  0.90532072904E+02  0.10038073061E+03 -0.82811646457E+03  0.10667049416E+04  0.65864270000E+03 0.  1.
    8880022    1    1    2    0    0 -0.90532072904E+02 -0.10038073061E+03  0.35951346279E+03  0.41341738019E+03  0.15294330000E+03 0.  0.
<mgrwt>
<rscale>  0 0.49908760E+03</rscale>
<asrwt>0</asrwt>
<pdfrwt beam="1">  1        1 0.77809178E-01 0.67237085E+03</pdfrwt>
<pdfrwt beam="2">  1       -1 0.14990195E+00 0.67237085E+03</pdfrwt>
<totfact> 0.15813649E+01</totfact>
</mgrwt>
</event>
<event>
 4    5  0.1003380E-007  0.8565376E+03  0.7818608E-02  0.9599752E-01
          1   -1    0    0  501    0  0.00000000000E+00  0.00000000000E+00  0.14896335184E+04  0.14896335184E+04  0.50400000000E-02 0. -1.
         -1   -1    0    0    0  501 -0.00000000000E+00 -0.00000000000E+00 -0.17564621745E+04  0.17564621745E+04  0.50400000000E-02 0.  1.
    8880023    1    1    2    0    0 -0.29023309969E+03 -0.46433950973E+03 -0.15899534767E+04  0.18059924410E+04  0.65864270000E+03 0.  0.
    8880022    1    1    2    0    0  0.29023309969E+03  0.46433950973E+03  0.13231248206E+04  0.14401032519E+04  0.15294330000E+03 0.  0.
<mgrwt>
<rscale>  0 0.77312574E+03</rscale>
<asrwt>0</asrwt>
<pdfrwt beam="1">  1        1 0.22917439E+00 0.85653759E+03</pdfrwt>
<pdfrwt beam="2">  1       -1 0.27022495E+00 0.85653759E+03</pdfrwt>
<totfact> 0.35651125E-01</totfact>
</mgrwt>
</event>
<event>
 4    5  0.7214169E-008  0.7591559E+03  0.7818608E-02  0.9807298E-01
          1   -1    0    0  501    0  0.00000000000E+00  0.00000000000E+00  0.14474700380E+04  0.14474700380E+04  0.50400000000E-02 0. -1.
         -1   -1    0    0    0  501 -0.00000000000E+00 -0.00000000000E+00 -0.30196991555E+03  0.30196991559E+03  0.50400000000E-02 0.  1.
    8880023    1    1    2    0    0  0.24193709426E+03  0.28978245726E+03  0.31012489164E+03  0.82005797648E+03  0.65864270000E+03 0.  0.
    8880022    1    1    2    0    0 -0.24193709426E+03 -0.28978245726E+03  0.83537523084E+03  0.92938197714E+03  0.15294330000E+03 0.  0.
<mgrwt>
<rscale>  0 0.64972371E+03</rscale>
<asrwt>0</asrwt>
<pdfrwt beam="1">  1        1 0.22268770E+00 0.75915587E+03</pdfrwt>
<pdfrwt beam="2">  1       -1 0.46456910E-01 0.75915587E+03</pdfrwt>
<totfact> 0.33794913E+01</totfact>
</mgrwt>
</event>
<event>
 4    5  0.7214169E-008  0.1237849E+04  0.7818608E-02  0.9121180E-01
          1   -1    0    0  501    0  0.00000000000E+00  0.00000000000E+00  0.19664180960E+04  0.19664180960E+04  0.50400000000E-02 0. -1.
         -1   -1    0    0    0  501 -0.00000000000E+00 -0.00000000000E+00 -0.91736467854E+03  0.91736467856E+03  0.50400000000E-02 0.  1.
    8880023    1    1    2    0    0 -0.10395933243E+04  0.13306605313E+03 -0.19150489360E+03  0.12525754209E+04  0.65864270000E+03 0.  0.
    8880022    1    1    2    0    0  0.10395933243E+04 -0.13306605313E+03  0.12405583110E+04  0.16312073536E+04  0.15294330000E+03 0.  0.
<mgrwt>
<rscale>  0 0.11905368E+04</rscale>
<asrwt>0</asrwt>
<pdfrwt beam="1">  1        1 0.30252586E+00 0.12378494E+04</pdfrwt>
<pdfrwt beam="2">  1       -1 0.14113303E+00 0.12378494E+04</pdfrwt>
<totfact> 0.12611650E+00</totfact>
</mgrwt>
</event>
<event>
 4    5  0.8094516E-008  0.1023929E+04  0.7818608E-02  0.9350899E-01
          1   -1    0    0  501    0  0.00000000000E+00  0.00000000000E+00  0.19928231322E+04  0.19928231322E+04  0.50400000000E-02 0. -1.
         -1   -1    0    0    0  501 -0.00000000000E+00 -0.00000000000E+00 -0.16503203628E+04  0.16503203628E+04  0.50400000000E-02 0.  1.
    8880023    1    1    2    0    0 -0.42674976710E+03  0.65765138839E+03 -0.13952240563E+04  0.17306302569E+04  0.65864270000E+03 0.  0.
    8880022    1    1    2    0    0  0.42674976710E+03 -0.65765138839E+03  0.17377268257E+04  0.19125132381E+04  0.15294330000E+03 0.  0.
<mgrwt>
<rscale>  0 0.96229021E+03</rscale>
<asrwt>0</asrwt>
<pdfrwt beam="1">  1        1 0.30658817E+00 0.10239292E+04</pdfrwt>
<pdfrwt beam="2">  1       -1 0.25389544E+00 0.10239292E+04</pdfrwt>
<totfact> 0.20063266E-01</totfact>
</mgrwt>
</event>
<event>
 4    5  0.7214169E-008  0.9614541E+03  0.7818608E-02  0.9433822E-01
         -1   -1    0    0    0  501 -0.00000000000E+00  0.00000000000E+00  0.17072134011E+04  0.17072134012E+04  0.50400000000E-02 0.  1.
          1   -1    0    0  501    0  0.00000000000E+00 -0.00000000000E+00 -0.50142280892E+03  0.50142280894E+03  0.50400000000E-02 0. -1.
    8880023    1    1    2    0    0 -0.64881716805E+03  0.26385629137E+03  0.11361135977E+04  0.14883373856E+04  0.65864270000E+03 0.  0.
    8880022    1    1    2    0    0  0.64881716805E+03 -0.26385629137E+03  0.69676994500E+02  0.72029882454E+03  0.15294330000E+03 0.  0.
<mgrwt>
<rscale>  0 0.89343762E+03</rscale>
<asrwt>0</asrwt>
<pdfrwt beam="1">  1        1 0.77141970E-01 0.96145414E+03</pdfrwt>
<pdfrwt beam="2">  1       -1 0.26264822E+00 0.96145414E+03</pdfrwt>
<totfact> 0.25832355E+00</totfact>
</mgrwt>
</event>
<event>
 4    5  0.7214169E-008  0.1706992E+04  0.7818608E-02  0.8775808E-01
         -1   -1    0    0    0  501 -0.00000000000E+00  0.00000000000E+00  0.13374972514E+04  0.13374972514E+04  0.50400000000E-02 0.  1.
          1   -1    0    0  501    0  0.00000000000E+00 -0.00000000000E+00 -0.32300713455E+04  0.32300713456E+04  0.50400000000E-02 0. -1.
    8880023    1    1    2    0    0  0.15324098694E+04  0.36294824750E+03 -0.23646769698E+04  0.29164222630E+04  0.65864270000E+03 0.  0.
    8880022    1    1    2    0    0 -0.15324098694E+04 -0.36294824750E+03  0.47210287565E+03  0.16511463340E+04  0.15294330000E+03 0.  0.
<mgrwt>
<rscale>  0 0.16749042E+04</rscale>
<asrwt>0</asrwt>
<pdfrwt beam="1">  1        1 0.49693405E+00 0.17069920E+04</pdfrwt>
<pdfrwt beam="2">  1       -1 0.20576881E+00 0.17069920E+04</pdfrwt>
<totfact> 0.51197727E-02</totfact>
</mgrwt>
</event>
<event>
 4    5  0.7214169E-008  0.6603233E+03  0.7818608E-02  0.1023828E+00
         -1   -1    0    0    0  501 -0.00000000000E+00  0.00000000000E+00  0.34617154504E+03  0.34617154507E+03  0.50400000000E-02 0.  1.
          1   -1    0    0  501    0  0.00000000000E+00 -0.00000000000E+00 -0.19341700682E+04  0.19341700682E+04  0.50400000000E-02 0. -1.
    8880023    1    1    2    0    0 -0.29873200423E+02  0.36389640904E+02  0.23670542516E+02  0.66074739115E+03  0.65864270000E+03 0.  1.
    8880022    1    1    2    0    0  0.29873200423E+02 -0.36389640904E+02 -0.16116690657E+04  0.16195942222E+04  0.15294330000E+03 0.  0.
<mgrwt>
<rscale>  0 0.46330285E+03</rscale>
<asrwt>0</asrwt>
<pdfrwt beam="1">  1        1 0.29756462E+00 0.66032327E+03</pdfrwt>
<pdfrwt beam="2">  1       -1 0.53257162E-01 0.66032327E+03</pdfrwt>
<totfact> 0.12436733E+01</totfact>
</mgrwt>
</event>
<event>
 4    5  0.7214169E-008  0.6920232E+03  0.7818608E-02  0.1003205E+00
          1   -1    0    0  501    0  0.00000000000E+00  0.00000000000E+00  0.18664069307E+04  0.18664069307E+04  0.50400000000E-02 0. -1.
         -1   -1    0    0    0  501 -0.00000000000E+00 -0.00000000000E+00 -0.41711961573E+03  0.41711961577E+03  0.50400000000E-02 0.  1.
    8880023    1    1    2    0    0 -0.33778742593E+02 -0.20963025234E+03 -0.11150547688E+03  0.70094901654E+03  0.65864270000E+03 0.  1.
    8880022    1    1    2    0    0  0.33778742593E+02  0.20963025234E+03  0.15607927918E+04  0.15825775299E+04  0.15294330000E+03 0.  0.
<mgrwt>
<rscale>  0 0.54266768E+03</rscale>
<asrwt>0</asrwt>
<pdfrwt beam="1">  1        1 0.28713953E+00 0.69202316E+03</pdfrwt>
<pdfrwt beam="2">  1       -1 0.64172248E-01 0.69202316E+03</pdfrwt>
<totfact> 0.95317444E+00</totfact>
</mgrwt>
</event>
<event>
 4    5  0.7214169E-008  0.8887269E+03  0.7818608E-02  0.9544376E-01
          1   -1    0    0  501    0  0.00000000000E+00  0.00000000000E+00  0.14306794712E+04  0.14306794712E+04  0.50400000000E-02 0. -1.
         -1   -1    0    0    0  501 -0.00000000000E+00 -0.00000000000E+00 -0.12165125572E+04  0.12165125572E+04  0.50400000000E-02 0.  1.
    8880023    1    1    2    0    0  0.58833971516E+03  0.99406205715E+02 -0.96804580425E+03  0.13141339732E+04  0.65864270000E+03 0.  1.
    8880022    1    1    2    0    0 -0.58833971516E+03 -0.99406205715E+02  0.11822127183E+04  0.13330580551E+04  0.15294330000E+03 0.  0.
<mgrwt>
<rscale>  0 0.81089721E+03</rscale>
<asrwt>0</asrwt>
<pdfrwt beam="1">  1        1 0.22010453E+00 0.88872685E+03</pdfrwt>
<pdfrwt beam="2">  1       -1 0.18715578E+00 0.88872685E+03</pdfrwt>
<totfact> 0.13846097E+00</totfact>
</mgrwt>
</event>
<event>
 4    5  0.7214169E-008  0.9556059E+03  0.7818608E-02  0.9442094E-01
          1   -1    0    0  501    0  0.00000000000E+00  0.00000000000E+00  0.72619392598E+03  0.72619392599E+03  0.50400000000E-02 0. -1.
         -1   -1    0    0    0  501 -0.00000000000E+00 -0.00000000000E+00 -0.15682624345E+04  0.15682624345E+04  0.50400000000E-02 0.  1.
    8880023    1    1    2    0    0 -0.45582419499E+03  0.52114945329E+03 -0.11721585623E+04  0.15123287840E+04  0.65864270000E+03 0.  0.
    8880022    1    1    2    0    0  0.45582419499E+03 -0.52114945329E+03  0.33009005375E+03  0.78212757655E+03  0.15294330000E+03 0.  0.
<mgrwt>
<rscale>  0 0.88691021E+03</rscale>
<asrwt>0</asrwt>
<pdfrwt beam="1">  1        1 0.11172214E+00 0.95560591E+03</pdfrwt>
<pdfrwt beam="2">  1       -1 0.24127114E+00 0.95560591E+03</pdfrwt>
<totfact> 0.20746854E+00</totfact>
</mgrwt>
</event>
<event>
 4    5  0.7214169E-008  0.1147167E+04  0.7818608E-02  0.9210274E-01
          1   -1    0    0  501    0  0.00000000000E+00  0.00000000000E+00  0.18124045340E+04  0.18124045340E+04  0.50400000000E-02 0. -1.
         -1   -1    0    0    0  501 -0.00000000000E+00 -0.00000000000E+00 -0.61703787480E+03  0.61703787482E+03  0.50400000000E-02 0.  1.
    8880023    1    1    2    0    0  0.93567028812E+03 -0.81866978463E+02  0.80208504650E+03  0.13997613076E+04  0.65864270000E+03 0.  0.
    8880022    1    1    2    0    0 -0.93567028812E+03  0.81866978463E+02  0.39328161266E+03  0.10296811012E+04  0.15294330000E+03 0.  0.
<mgrwt>
<rscale>  0 0.10948013E+04</rscale>
<asrwt>0</asrwt>
<pdfrwt beam="1">  1        1 0.27883147E+00 0.11471666E+04</pdfrwt>
<pdfrwt beam="2">  1       -1 0.94928904E-01 0.11471666E+04</pdfrwt>
<totfact> 0.42484516E+00</totfact>
</mgrwt>
</event>
<event>
 4    5  0.7214169E-008  0.1020354E+04  0.7818608E-02  0.9355400E-01
          1   -1    0    0  501    0  0.00000000000E+00  0.00000000000E+00  0.86741073194E+03  0.86741073196E+03  0.50400000000E-02 0. -1.
         -1   -1    0    0    0  501 -0.00000000000E+00 -0.00000000000E+00 -0.12756593269E+04  0.12756593269E+04  0.50400000000E-02 0.  1.
    8880023    1    1    2    0    0 -0.60426216968E+03 -0.49211722551E+03 -0.76219033050E+03  0.12735997957E+04  0.65864270000E+03 0.  0.
    8880022    1    1    2    0    0  0.60426216968E+03  0.49211722551E+03  0.35394173557E+03  0.86947026317E+03  0.15294330000E+03 0.  0.
<mgrwt>
<rscale>  0 0.95838794E+03</rscale>
<asrwt>0</asrwt>
<pdfrwt beam="1">  1        1 0.13344781E+00 0.10203540E+04</pdfrwt>
<pdfrwt beam="2">  1       -1 0.19625528E+00 0.10203540E+04</pdfrwt>
<totfact> 0.30981042E+00</totfact>
</mgrwt>
</event>
<event>
 4    5  0.7214169E-008  0.9287567E+03  0.7818608E-02  0.9481361E-01
          1   -1    0    0  501    0  0.00000000000E+00  0.00000000000E+00  0.14729991186E+04  0.14729991186E+04  0.50400000000E-02 0. -1.
         -1   -1    0    0    0  501 -0.00000000000E+00 -0.00000000000E+00 -0.10808978662E+04  0.10808978662E+04  0.50400000000E-02 0.  1.
    8880023    1    1    2    0    0 -0.58432799123E+03 -0.29553274985E+03  0.11905809425E+04  0.15099907266E+04  0.65864270000E+03 0.  0.
    8880022    1    1    2    0    0  0.58432799123E+03  0.29553274985E+03 -0.79847969004E+03  0.10439062582E+04  0.15294330000E+03 0.  0.
<mgrwt>
<rscale>  0 0.85672067E+03</rscale>
<asrwt>0</asrwt>
<pdfrwt beam="1">  1        1 0.22661525E+00 0.92875670E+03</pdfrwt>
<pdfrwt beam="2">  1       -1 0.16629198E+00 0.92875670E+03</pdfrwt>
<totfact> 0.18192682E+00</totfact>
</mgrwt>
</event>
<event>
 4    5  0.7214169E-008  0.8446135E+03  0.7818608E-02  0.9621542E-01
          1   -1    0    0  501    0  0.00000000000E+00  0.00000000000E+00  0.13705671590E+04  0.13705671590E+04  0.50400000000E-02 0. -1.
         -1   -1    0    0    0  501 -0.00000000000E+00 -0.00000000000E+00 -0.69853939967E+03  0.69853939969E+03  0.50400000000E-02 0.  1.
    8880023    1    1    2    0    0  0.34669385005E+03 -0.39920566371E+03 -0.34526413868E+03  0.91245784523E+03  0.65864270000E+03 0.  1.
    8880022    1    1    2    0    0 -0.34669385005E+03  0.39920566371E+03  0.10172918980E+04  0.11566487135E+04  0.15294330000E+03 0.  0.
<mgrwt>
<rscale>  0 0.75886672E+03</rscale>
<asrwt>0</asrwt>
<pdfrwt beam="1">  1        1 0.21085649E+00 0.84461352E+03</pdfrwt>
<pdfrwt beam="2">  1       -1 0.10746760E+00 0.84461352E+03</pdfrwt>
<totfact> 0.66559389E+00</totfact>
</mgrwt>
</event>
<event>
 4    5  0.7214169E-008  0.6732894E+03  0.7818608E-02  0.1013407E+00
          1   -1    0    0  501    0  0.00000000000E+00  0.00000000000E+00  0.95073776077E+03  0.95073776079E+03  0.50400000000E-02 0. -1.
         -1   -1    0    0    0  501 -0.00000000000E+00 -0.00000000000E+00 -0.53064005541E+03  0.53064005543E+03  0.50400000000E-02 0.  1.
    8880023    1    1    2    0    0 -0.13631966420E+03 -0.30420420096E+02 -0.29632641331E+03  0.73561403079E+03  0.65864270000E+03 0.  1.
    8880022    1    1    2    0    0  0.13631966420E+03  0.30420420096E+02  0.71642411868E+03  0.74576378542E+03  0.15294330000E+03 0.  0.
<mgrwt>
<rscale>  0 0.50142807E+03</rscale>
<asrwt>0</asrwt>
<pdfrwt beam="1">  1        1 0.14626735E+00 0.67328943E+03</pdfrwt>
<pdfrwt beam="2">  1       -1 0.81636932E-01 0.67328943E+03</pdfrwt>
<totfact> 0.25640082E+01</totfact>
</mgrwt>
</event>
<event>
 4    5  0.7214169E-008  0.8265241E+03  0.7818608E-02  0.9656134E-01
          1   -1    0    0  501    0  0.00000000000E+00  0.00000000000E+00  0.91048433627E+03  0.91048433629E+03  0.50400000000E-02 0. -1.
         -1   -1    0    0    0  501 -0.00000000000E+00 -0.00000000000E+00 -0.69338768914E+03  0.69338768916E+03  0.50400000000E-02 0.  1.
    8880023    1    1    2    0    0 -0.49845573688E+03 -0.29559748848E+02 -0.29002565459E+03  0.87593206755E+03  0.65864270000E+03 0.  1.
    8880022    1    1    2    0    0  0.49845573688E+03  0.29559748848E+02  0.50712230172E+03  0.72793995789E+03  0.15294330000E+03 0.  0.
<mgrwt>
<rscale>  0 0.73689732E+03</rscale>
<asrwt>0</asrwt>
<pdfrwt beam="1">  1        1 0.14007451E+00 0.82652411E+03</pdfrwt>
<pdfrwt beam="2">  1       -1 0.10667503E+00 0.82652411E+03</pdfrwt>
<totfact> 0.14935585E+01</totfact>
</mgrwt>
</event>
<event>
 4    5  0.7214169E-008  0.6874712E+03  0.7818608E-02  0.1005378E+00
         -1   -1    0    0    0  501 -0.00000000000E+00  0.00000000000E+00  0.52892232354E+03  0.52892232357E+03  0.50400000000E-02 0.  1.
          1   -1    0    0  501    0  0.00000000000E+00 -0.00000000000E+00 -0.19102593434E+04  0.19102593434E+04  0.50400000000E-02 0. -1.
    8880023    1    1    2    0    0 -0.16835637225E+03  0.10228652703E+03  0.29232432384E+03  0.74704090803E+03  0.65864270000E+03 0.  1.
    8880022    1    1    2    0    0  0.16835637225E+03 -0.10228652703E+03 -0.16736613437E+04  0.16921407590E+04  0.15294330000E+03 0.  0.
<mgrwt>
<rscale>  0 0.53353506E+03</rscale>
<asrwt>0</asrwt>
<pdfrwt beam="1">  1        1 0.29388605E+00 0.68747117E+03</pdfrwt>
<pdfrwt beam="2">  1       -1 0.81372666E-01 0.68747117E+03</pdfrwt>
<totfact> 0.54656539E+00</totfact>
</mgrwt>
</event>
<event>
 4    5  0.7214169E-008  0.8998990E+03  0.7818608E-02  0.9526194E-01
         -1   -1    0    0    0  501 -0.00000000000E+00  0.00000000000E+00  0.10111656553E+04  0.10111656553E+04  0.50400000000E-02 0.  1.
          1   -1    0    0  501    0  0.00000000000E+00 -0.00000000000E+00 -0.16484818019E+04  0.16484818020E+04  0.50400000000E-02 0. -1.
    8880023    1    1    2    0    0  0.26102164679E+03 -0.55486540688E+03  0.72647653791E+03  0.11565406548E+04  0.65864270000E+03 0.  1.
    8880022    1    1    2    0    0 -0.26102164679E+03  0.55486540688E+03 -0.13637926846E+04  0.15031068024E+04  0.15294330000E+03 0.  0.
<mgrwt>
<rscale>  0 0.82379900E+03</rscale>
<asrwt>0</asrwt>
<pdfrwt beam="1">  1        1 0.25361259E+00 0.89989895E+03</pdfrwt>
<pdfrwt beam="2">  1       -1 0.15556395E+00 0.89989895E+03</pdfrwt>
<totfact> 0.16698141E+00</totfact>
</mgrwt>
</event>
<event>
 4    5  0.7214169E-008  0.8764236E+03  0.7818608E-02  0.9564991E-01
         -1   -1    0    0    0  501 -0.00000000000E+00  0.00000000000E+00  0.52017549268E+03  0.52017549270E+03  0.50400000000E-02 0.  1.
          1   -1    0    0  501    0  0.00000000000E+00 -0.00000000000E+00 -0.19706783901E+04  0.19706783901E+04  0.50400000000E-02 0. -1.
    8880023    1    1    2    0    0 -0.57817746134E+03  0.43597070266E+01  0.47664311665E+02  0.87771879136E+03  0.65864270000E+03 0.  1.
    8880022    1    1    2    0    0  0.57817746134E+03 -0.43597070266E+01 -0.14981672091E+04  0.16131350914E+04  0.15294330000E+03 0.  0.
<mgrwt>
<rscale>  0 0.79657267E+03</rscale>
<asrwt>0</asrwt>
<pdfrwt beam="1">  1        1 0.30318129E+00 0.87642364E+03</pdfrwt>
<pdfrwt beam="2">  1       -1 0.80027000E-01 0.87642364E+03</pdfrwt>
<totfact> 0.50002404E+00</totfact>
</mgrwt>
</event>
<event>
 4    5  0.7214169E-008  0.1493564E+04  0.7818608E-02  0.8914194E-01
          1   -1    0    0  501    0  0.00000000000E+00  0.00000000000E+00  0.94185992618E+03  0.94185992619E+03  0.50400000000E-02 0. -1.
         -1   -1    0    0    0  501 -0.00000000000E+00 -0.00000000000E+00 -0.23155365383E+04  0.23155365383E+04  0.50400000000E-02 0.  1.
    8880023    1    1    2    0    0  0.40477844444E+03 -0.12779187015E+04 -0.27770943188E+03  0.15191624441E+04  0.65864270000E+03 0.  0.
    8880022    1    1    2    0    0 -0.40477844444E+03  0.12779187015E+04 -0.10959671802E+04  0.17382340204E+04  0.15294330000E+03 0.  0.
<mgrwt>
<rscale>  0 0.14560827E+04</rscale>
<asrwt>0</asrwt>
<pdfrwt beam="1">  1        1 0.14490153E+00 0.14935635E+04</pdfrwt>
<pdfrwt beam="2">  1       -1 0.35623639E+00 0.14935635E+04</pdfrwt>
<totfact> 0.22676340E-01</totfact>
</mgrwt>
</event>
<event>
 4    5  0.7214169E-008  0.6701509E+03  0.7818608E-02  0.1015555E+00
         -1   -1    0    0    0  501 -0.00000000000E+00  0.00000000000E+00  0.11133231484E+04  0.11133231485E+04  0.50400000000E-02 0.  1.
          1   -1    0    0  501    0  0.00000000000E+00 -0.00000000000E+00 -0.93663772201E+03  0.93663772203E+03  0.50400000000E-02 0. -1.
    8880023    1    1    2    0    0  0.57975312231E+01  0.12352513365E+03  0.99982971301E+03  0.12036451850E+04  0.65864270000E+03 0.  1.
    8880022    1    1    2    0    0 -0.57975312231E+01 -0.12352513365E+03 -0.82314428658E+03  0.84631568552E+03  0.15294330000E+03 0.  0.
<mgrwt>
<rscale>  0 0.49325387E+03</rscale>
<asrwt>0</asrwt>
<pdfrwt beam="1">  1        1 0.14409811E+00 0.67015094E+03</pdfrwt>
<pdfrwt beam="2">  1       -1 0.17128048E+00 0.67015094E+03</pdfrwt>
<totfact> 0.43014844E+00</totfact>
</mgrwt>
</event>
<event>
 4    5  0.7214169E-008  0.8060239E+03  0.7818608E-02  0.9697919E-01
          1   -1    0    0  501    0  0.00000000000E+00  0.00000000000E+00  0.17715024149E+04  0.17715024149E+04  0.50400000000E-02 0. -1.
         -1   -1    0    0    0  501 -0.00000000000E+00 -0.00000000000E+00 -0.51855645742E+03  0.51855645745E+03  0.50400000000E-02 0.  1.
    8880023    1    1    2    0    0 -0.24453269432E+01  0.46460562546E+03 -0.13607562537E+03  0.81742959875E+03  0.65864270000E+03 0.  0.
    8880022    1    1    2    0    0  0.24453269432E+01 -0.46460562546E+03  0.13890215829E+04  0.14726292736E+04  0.15294330000E+03 0.  0.
<mgrwt>
<rscale>  0 0.71140811E+03</rscale>
<asrwt>0</asrwt>
<pdfrwt beam="1">  1        1 0.27253883E+00 0.80602393E+03</pdfrwt>
<pdfrwt beam="2">  1       -1 0.79777919E-01 0.80602393E+03</pdfrwt>
<totfact> 0.69202201E+00</totfact>
</mgrwt>
</event>
<event>
 4    5  0.7214169E-008  0.1073297E+04  0.7818608E-02  0.9291386E-01
         -1   -1    0    0    0  501 -0.00000000000E+00  0.00000000000E+00  0.16138588321E+04  0.16138588322E+04  0.50400000000E-02 0.  1.
          1   -1    0    0  501    0  0.00000000000E+00 -0.00000000000E+00 -0.76385612258E+03  0.76385612259E+03  0.50400000000E-02 0. -1.
    8880023    1    1    2    0    0  0.84536037974E+03  0.59342025372E+02  0.10414911267E+04  0.14955499393E+04  0.65864270000E+03 0.  1.
    8880022    1    1    2    0    0 -0.84536037974E+03 -0.59342025372E+02 -0.19148841714E+03  0.88216501547E+03  0.15294330000E+03 0.  0.
<mgrwt>
<rscale>  0 0.10157977E+04</rscale>
<asrwt>0</asrwt>
<pdfrwt beam="1">  1        1 0.11751633E+00 0.10732967E+04</pdfrwt>
<pdfrwt beam="2">  1       -1 0.24828597E+00 0.10732967E+04</pdfrwt>
<totfact> 0.17001120E+00</totfact>
</mgrwt>
</event>
<event>
 4    5  0.7214169E-008  0.7898019E+03  0.7818608E-02  0.9733296E-01
         -1   -1    0    0    0  501 -0.00000000000E+00  0.00000000000E+00  0.66503127150E+03  0.66503127151E+03  0.50400000000E-02 0.  1.
          1   -1    0    0  501    0  0.00000000000E+00 -0.00000000000E+00 -0.17105966954E+04  0.17105966954E+04  0.50400000000E-02 0. -1.
    8880023    1    1    2    0    0  0.17745860475E+03 -0.39810203336E+03  0.38045544846E+03  0.87666033325E+03  0.65864270000E+03 0.  1.
    8880022    1    1    2    0    0 -0.17745860475E+03  0.39810203336E+03 -0.14260208724E+04  0.14989676337E+04  0.15294330000E+03 0.  0.
<mgrwt>
<rscale>  0 0.69068479E+03</rscale>
<asrwt>0</asrwt>
<pdfrwt beam="1">  1        1 0.26316872E+00 0.78980187E+03</pdfrwt>
<pdfrwt beam="2">  1       -1 0.10231250E+00 0.78980187E+03</pdfrwt>
<totfact> 0.44023992E+00</totfact>
</mgrwt>
</event>
<event>
 4    5  0.7214169E-008  0.1127945E+04  0.7818608E-02  0.9230563E-01
          1   -1    0    0  501    0  0.00000000000E+00  0.00000000000E+00  0.20736088494E+04  0.20736088494E+04  0.50400000000E-02 0. -1.
         -1   -1    0    0    0  501 -0.00000000000E+00 -0.00000000000E+00 -0.60952235539E+03  0.60952235541E+03  0.50400000000E-02 0.  1.
    8880023    1    1    2    0    0  0.48334883051E+03  0.77770371168E+03  0.25092537641E+03  0.11555184576E+04  0.65864270000E+03 0.  0.
    8880022    1    1    2    0    0 -0.48334883051E+03 -0.77770371168E+03  0.12131611176E+04  0.15276127472E+04  0.15294330000E+03 0.  0.
<mgrwt>
<rscale>  0 0.10743462E+04</rscale>
<asrwt>0</asrwt>
<pdfrwt beam="1">  1        1 0.31901675E+00 0.11279448E+04</pdfrwt>
<pdfrwt beam="2">  1       -1 0.93772669E-01 0.11279448E+04</pdfrwt>
<totfact> 0.29152263E+00</totfact>
</mgrwt>
</event>
<event>
 4    5  0.7214169E-008  0.1053177E+04  0.7818608E-02  0.9315072E-01
         -1   -1    0    0    0  501 -0.00000000000E+00  0.00000000000E+00  0.28509477476E+04  0.28509477476E+04  0.50400000000E-02 0.  1.
          1   -1    0    0  501    0  0.00000000000E+00 -0.00000000000E+00 -0.48544449848E+03  0.48544449851E+03  0.50400000000E-02 0. -1.
    8880023    1    1    2    0    0 -0.79858987280E+03 -0.19397483368E+03  0.22606297652E+04  0.24939184355E+04  0.65864270000E+03 0.  0.
    8880022    1    1    2    0    0  0.79858987280E+03  0.19397483368E+03  0.10487348392E+03  0.84247381068E+03  0.15294330000E+03 0. -1.
<mgrwt>
<rscale>  0 0.99407094E+03</rscale>
<asrwt>0</asrwt>
<pdfrwt beam="1">  1        1 0.74683769E-01 0.10531772E+04</pdfrwt>
<pdfrwt beam="2">  1       -1 0.43860735E+00 0.10531772E+04</pdfrwt>
<totfact> 0.18240894E-01</totfact>
</mgrwt>
</event>
<event>
 4    5  0.7214169E-008  0.1429737E+04  0.7818608E-02  0.8960914E-01
         -1   -1    0    0    0  501 -0.00000000000E+00  0.00000000000E+00  0.16653880795E+04  0.16653880795E+04  0.50400000000E-02 0.  1.
          1   -1    0    0  501    0  0.00000000000E+00 -0.00000000000E+00 -0.12712642026E+04  0.12712642026E+04  0.50400000000E-02 0. -1.
    8880023    1    1    2    0    0  0.11893042477E+04 -0.44259757027E+03  0.74361965849E+03  0.16115575092E+04  0.65864270000E+03 0.  0.
    8880022    1    1    2    0    0 -0.11893042477E+04  0.44259757027E+03 -0.34949578164E+03  0.13250947729E+04  0.15294330000E+03 0.  0.
<mgrwt>
<rscale>  0 0.13902393E+04</rscale>
<asrwt>0</asrwt>
<pdfrwt beam="1">  1        1 0.19557911E+00 0.14297368E+04</pdfrwt>
<pdfrwt beam="2">  1       -1 0.25621355E+00 0.14297368E+04</pdfrwt>
<totfact> 0.57525750E-01</totfact>
</mgrwt>
</event>
<event>
 4    5  0.7214169E-008  0.6821097E+03  0.7818608E-02  0.1008155E+00
         -1   -1    0    0    0  501 -0.00000000000E+00  0.00000000000E+00  0.32451708542E+03  0.32451708546E+03  0.50400000000E-02 0.  1.
          1   -1    0    0  501    0  0.00000000000E+00 -0.00000000000E+00 -0.22080020044E+04  0.22080020044E+04  0.50400000000E-02 0. -1.
    8880023    1    1    2    0    0  0.17676336624E+03 -0.14768199263E+02 -0.49787031279E+02  0.68392422248E+03  0.65864270000E+03 0.  1.
    8880022    1    1    2    0    0 -0.17676336624E+03  0.14768199263E+02 -0.18336978877E+04  0.18485948674E+04  0.15294330000E+03 0.  0.
<mgrwt>
<rscale>  0 0.52214692E+03</rscale>
<asrwt>0</asrwt>
<pdfrwt beam="1">  1        1 0.33969261E+00 0.68210966E+03</pdfrwt>
<pdfrwt beam="2">  1       -1 0.49925707E-01 0.68210966E+03</pdfrwt>
<totfact> 0.91965370E+00</totfact>
</mgrwt>
</event>
<event>
 4    5  0.7214169E-008  0.9013672E+03  0.7818608E-02  0.9523840E-01
          1   -1    0    0  501    0  0.00000000000E+00  0.00000000000E+00  0.73618373560E+03  0.73618373562E+03  0.50400000000E-02 0. -1.
         -1   -1    0    0    0  501 -0.00000000000E+00 -0.00000000000E+00 -0.12570726815E+04  0.12570726815E+04  0.50400000000E-02 0.  1.
    8880023    1    1    2    0    0 -0.43494156719E+03  0.43529114143E+03 -0.88405936772E+03  0.12625465206E+04  0.65864270000E+03 0.  0.
    8880022    1    1    2    0    0  0.43494156719E+03 -0.43529114143E+03  0.36317042180E+03  0.73070989658E+03  0.15294330000E+03 0.  0.
<mgrwt>
<rscale>  0 0.82548754E+03</rscale>
<asrwt>0</asrwt>
<pdfrwt beam="1">  1        1 0.11325904E+00 0.90136716E+03</pdfrwt>
<pdfrwt beam="2">  1       -1 0.19339580E+00 0.90136716E+03</pdfrwt>
<totfact> 0.42830295E+00</totfact>
</mgrwt>
</event>
<event>
 4    5  0.7214169E-008  0.8887431E+03  0.7818608E-02  0.9544350E-01
         -1   -1    0    0    0  501 -0.00000000000E+00  0.00000000000E+00  0.14536262891E+04  0.14536262892E+04  0.50400000000E-02 0.  1.
          1   -1    0    0  501    0  0.00000000000E+00 -0.00000000000E+00 -0.44799591851E+03  0.44799591854E+03  0.50400000000E-02 0. -1.
    8880023    1    1    2    0    0 -0.59659859404E+03 -0.11144062340E+02  0.92093010599E+03  0.12798345748E+04  0.65864270000E+03 0.  1.
    8880022    1    1    2    0    0  0.59659859404E+03  0.11144062340E+02  0.84700264641E+02  0.62178763287E+03  0.15294330000E+03 0.  0.
<mgrwt>
<rscale>  0 0.81091603E+03</rscale>
<asrwt>0</asrwt>
<pdfrwt beam="1">  1        1 0.68922449E-01 0.88874309E+03</pdfrwt>
<pdfrwt beam="2">  1       -1 0.22363481E+00 0.88874309E+03</pdfrwt>
<totfact> 0.54603111E+00</totfact>
</mgrwt>
</event>
<event>
 4    5  0.8303356E-008  0.9805445E+03  0.7818608E-02  0.9407466E-01
         -1   -1    0    0    0  501 -0.00000000000E+00  0.00000000000E+00  0.16338299883E+04  0.16338299884E+04  0.50400000000E-02 0.  1.
          1   -1    0    0  501    0  0.00000000000E+00 -0.00000000000E+00 -0.27395940254E+04  0.27395940254E+04  0.50400000000E-02 0. -1.
    8880023    1    1    2    0    0 -0.50833162582E+03  0.51889901623E+03  0.14285147208E+04  0.17326631942E+04  0.65864270000E+03 0.  1.
    8880022    1    1    2    0    0  0.50833162582E+03 -0.51889901623E+03 -0.25342787578E+04  0.26407608196E+04  0.15294330000E+03 0.  0.
<mgrwt>
<rscale>  0 0.91463798E+03</rscale>
<asrwt>0</asrwt>
<pdfrwt beam="1">  1        1 0.42147600E+00 0.98054446E+03</pdfrwt>
<pdfrwt beam="2">  1       -1 0.25135846E+00 0.98054446E+03</pdfrwt>
<totfact> 0.64924998E-02</totfact>
</mgrwt>
</event>
<event>
 4    5  0.7214169E-008  0.9995707E+03  0.7818608E-02  0.9382120E-01
          1   -1    0    0  501    0  0.00000000000E+00  0.00000000000E+00  0.25570420206E+04  0.25570420206E+04  0.50400000000E-02 0. -1.
         -1   -1    0    0    0  501 -0.00000000000E+00 -0.00000000000E+00 -0.31988044627E+03  0.31988044631E+03  0.50400000000E-02 0.  1.
    8880023    1    1    2    0    0  0.65220227093E+03  0.37411703964E+03  0.95342759540E+03  0.13813637274E+04  0.65864270000E+03 0.  0.
    8880022    1    1    2    0    0 -0.65220227093E+03 -0.37411703964E+03  0.12837339789E+04  0.14955587394E+04  0.15294330000E+03 0.  0.
<mgrwt>
<rscale>  0 0.93561896E+03</rscale>
<asrwt>0</asrwt>
<pdfrwt beam="1">  1        1 0.39339108E+00 0.99957069E+03</pdfrwt>
<pdfrwt beam="2">  1       -1 0.49212376E-01 0.99957069E+03</pdfrwt>
<totfact> 0.52144980E+00</totfact>
</mgrwt>
</event>
<event>
 4    5  0.7214169E-008  0.1688145E+04  0.7818608E-02  0.8787072E-01
         -1   -1    0    0    0  501 -0.00000000000E+00  0.00000000000E+00  0.11891941433E+04  0.11891941433E+04  0.50400000000E-02 0.  1.
          1   -1    0    0  501    0  0.00000000000E+00 -0.00000000000E+00 -0.28690720668E+04  0.28690720668E+04  0.50400000000E-02 0. -1.
    8880023    1    1    2    0    0 -0.15543542900E+04 -0.23244246778E+01  0.98977660354E+02  0.16910438921E+04  0.65864270000E+03 0.  0.
    8880022    1    1    2    0    0  0.15543542900E+04  0.23244246778E+01 -0.17788555839E+04  0.23672223180E+04  0.15294330000E+03 0.  0.
<mgrwt>
<rscale>  0 0.16556478E+04</rscale>
<asrwt>0</asrwt>
<pdfrwt beam="1">  1        1 0.44139570E+00 0.16881448E+04</pdfrwt>
<pdfrwt beam="2">  1       -1 0.18295295E+00 0.16881448E+04</pdfrwt>
<totfact> 0.13665129E-01</totfact>
</mgrwt>
</event>
<event>
 4    5  0.7214169E-008  0.6747162E+03  0.7818608E-02  0.1012486E+00
         -1   -1    0    0    0  501 -0.00000000000E+00  0.00000000000E+00  0.12969237941E+04  0.12969237941E+04  0.50400000000E-02 0.  1.
          1   -1    0    0  501    0  0.00000000000E+00 -0.00000000000E+00 -0.51347522467E+03  0.51347522469E+03  0.50400000000E-02 0. -1.
    8880023    1    1    2    0    0 -0.90255902110E+02  0.11526318384E+03  0.11809082673E+04  0.13600684804E+04  0.65864270000E+03 0.  1.
    8880022    1    1    2    0    0  0.90255902110E+02 -0.11526318384E+03 -0.39745969783E+03  0.45033053841E+03  0.15294330000E+03 0.  0.
<mgrwt>
<rscale>  0 0.50498552E+03</rscale>
<asrwt>0</asrwt>
<pdfrwt beam="1">  1        1 0.78996190E-01 0.67471619E+03</pdfrwt>
<pdfrwt beam="2">  1       -1 0.19952673E+00 0.67471619E+03</pdfrwt>
<totfact> 0.67713473E+00</totfact>
</mgrwt>
</event>
<event>
 4    5  0.7214169E-008  0.1244568E+04  0.7818608E-02  0.9114971E-01
         -1   -1    0    0    0  501 -0.00000000000E+00  0.00000000000E+00  0.18244215032E+04  0.18244215032E+04  0.50400000000E-02 0.  1.
          1   -1    0    0  501    0  0.00000000000E+00 -0.00000000000E+00 -0.11478113430E+04  0.11478113430E+04  0.50400000000E-02 0. -1.
    8880023    1    1    2    0    0  0.90661547304E+03  0.54146815614E+03 -0.53767879575E+03  0.13557463161E+04  0.65864270000E+03 0.  0.
    8880022    1    1    2    0    0 -0.90661547304E+03 -0.54146815614E+03  0.12142889560E+04  0.16164865300E+04  0.15294330000E+03 0.  0.
<mgrwt>
<rscale>  0 0.11975870E+04</rscale>
<asrwt>0</asrwt>
<pdfrwt beam="1">  1        1 0.17658636E+00 0.12445680E+04</pdfrwt>
<pdfrwt beam="2">  1       -1 0.28068023E+00 0.12445680E+04</pdfrwt>
<totfact> 0.50283772E-01</totfact>
</mgrwt>
</event>
<event>
 4    5  0.7214169E-008  0.7060730E+03  0.7818608E-02  0.9972883E-01
          1   -1    0    0  501    0  0.00000000000E+00  0.00000000000E+00  0.21530536001E+04  0.21530536002E+04  0.50400000000E-02 0. -1.
         -1   -1    0    0    0  501 -0.00000000000E+00 -0.00000000000E+00 -0.49036717820E+03  0.49036717822E+03  0.50400000000E-02 0.  1.
    8880023    1    1    2    0    0  0.20271151905E+03  0.15374322852E+03 -0.21838180038E+03  0.73907358042E+03  0.65864270000E+03 0.  1.
    8880022    1    1    2    0    0 -0.20271151905E+03 -0.15374322852E+03  0.18810682223E+04  0.19043471980E+04  0.15294330000E+03 0.  0.
<mgrwt>
<rscale>  0 0.56855424E+03</rscale>
<asrwt>0</asrwt>
<pdfrwt beam="1">  1        1 0.33123900E+00 0.70607305E+03</pdfrwt>
<pdfrwt beam="2">  1       -1 0.75441107E-01 0.70607305E+03</pdfrwt>
<totfact> 0.43980459E+00</totfact>
</mgrwt>
</event>
<event>
 4    5  0.7214169E-008  0.8343604E+03  0.7818608E-02  0.9640907E-01
          1   -1    0    0  501    0  0.00000000000E+00  0.00000000000E+00  0.18019483667E+04  0.18019483667E+04  0.50400000000E-02 0. -1.
         -1   -1    0    0    0  501 -0.00000000000E+00 -0.00000000000E+00 -0.31966653949E+03  0.31966653953E+03  0.50400000000E-02 0.  1.
    8880023    1    1    2    0    0  0.13213839727E+03  0.49486002651E+03  0.13224969516E+04  0.15636992662E+04  0.65864270000E+03 0.  0.
    8880022    1    1    2    0    0 -0.13213839727E+03 -0.49486002651E+03  0.15978487557E+03  0.55791563999E+03  0.15294330000E+03 0.  0.
<mgrwt>
<rscale>  0 0.74646830E+03</rscale>
<asrwt>0</asrwt>
<pdfrwt beam="1">  1        1 0.27722282E+00 0.83436036E+03</pdfrwt>
<pdfrwt beam="2">  1       -1 0.49179468E-01 0.83436036E+03</pdfrwt>
<totfact> 0.17290939E+01</totfact>
</mgrwt>
</event>
<event>
 4    5  0.7214169E-008  0.8022294E+03  0.7818608E-02  0.9705996E-01
         -1   -1    0    0    0  501 -0.00000000000E+00  0.00000000000E+00  0.28641681659E+04  0.28641681659E+04  0.50400000000E-02 0.  1.
          1   -1    0    0  501    0  0.00000000000E+00 -0.00000000000E+00 -0.38547422857E+03  0.38547422860E+03  0.50400000000E-02 0. -1.
    8880023    1    1    2    0    0  0.58487429815E+02  0.45424778469E+03  0.26252044613E+04  0.27450447172E+04  0.65864270000E+03 0.  1.
    8880022    1    1    2    0    0 -0.58487429815E+02 -0.45424778469E+03 -0.14651052396E+03  0.50459767735E+03  0.15294330000E+03 0.  0.
<mgrwt>
<rscale>  0 0.70660902E+03</rscale>
<asrwt>0</asrwt>
<pdfrwt beam="1">  1        1 0.59303729E-01 0.80222942E+03</pdfrwt>
<pdfrwt beam="2">  1       -1 0.44064125E+00 0.80222942E+03</pdfrwt>
<totfact> 0.25159793E-01</totfact>
</mgrwt>
</event>
<event>
 4    5  0.7214169E-008  0.1187567E+04  0.7818608E-02  0.9169304E-01
         -1   -1    0    0    0  501 -0.00000000000E+00  0.00000000000E+00  0.12916318481E+04  0.12916318482E+04  0.50400000000E-02 0.  1.
          1   -1    0    0  501    0  0.00000000000E+00 -0.00000000000E+00 -0.10192267428E+04  0.10192267428E+04  0.50400000000E-02 0. -1.
    8880023    1    1    2    0    0  0.95308886798E+03 -0.26101061854E+03  0.49472433085E+03  0.12864941908E+04  0.65864270000E+03 0.  0.
    8880022    1    1    2    0    0 -0.95308886798E+03  0.26101061854E+03 -0.22231922554E+03  0.10243644002E+04  0.15294330000E+03 0.  0.
<mgrwt>
<rscale>  0 0.11375957E+04</rscale>
<asrwt>0</asrwt>
<pdfrwt beam="1">  1        1 0.15680411E+00 0.11875669E+04</pdfrwt>
<pdfrwt beam="2">  1       -1 0.19871259E+00 0.11875669E+04</pdfrwt>
<totfact> 0.22057655E+00</totfact>
</mgrwt>
</event>
<event>
 4    5  0.7214169E-008  0.6712011E+03  0.7818608E-02  0.1014816E+00
          1   -1    0    0  501    0  0.00000000000E+00  0.00000000000E+00  0.59162538417E+03  0.59162538420E+03  0.50400000000E-02 0. -1.
         -1   -1    0    0    0  501 -0.00000000000E+00 -0.00000000000E+00 -0.66490730579E+03  0.66490730581E+03  0.50400000000E-02 0.  1.
    8880023    1    1    2    0    0  0.12263869907E+03 -0.40748756912E+02 -0.46504595977E+03  0.81656516131E+03  0.65864270000E+03 0.  1.
    8880022    1    1    2    0    0 -0.12263869907E+03  0.40748756912E+02  0.39176403816E+03  0.43996752870E+03  0.15294330000E+03 0.  0.
<mgrwt>
<rscale>  0 0.49604629E+03</rscale>
<asrwt>0</asrwt>
<pdfrwt beam="1">  1        1 0.91019290E-01 0.67120110E+03</pdfrwt>
<pdfrwt beam="2">  1       -1 0.10229343E+00 0.67120110E+03</pdfrwt>
<totfact> 0.32638365E+01</totfact>
</mgrwt>
</event>
<event>
 4    5  0.7214169E-008  0.7247587E+03  0.7818608E-02  0.9906801E-01
         -1   -1    0    0    0  501 -0.00000000000E+00  0.00000000000E+00  0.10093678422E+04  0.10093678422E+04  0.50400000000E-02 0.  1.
          1   -1    0    0  501    0  0.00000000000E+00 -0.00000000000E+00 -0.10121788504E+04  0.10121788504E+04  0.50400000000E-02 0. -1.
    8880023    1    1    2    0    0  0.25677189300E+03  0.15979084075E+03  0.84219549428E+03  0.11111113242E+04  0.65864270000E+03 0.  1.
    8880022    1    1    2    0    0 -0.25677189300E+03 -0.15979084075E+03 -0.84500650245E+03  0.91043536840E+03  0.15294330000E+03 0.  0.
<mgrwt>
<rscale>  0 0.59932797E+03</rscale>
<asrwt>0</asrwt>
<pdfrwt beam="1">  1        1 0.15571982E+00 0.72475867E+03</pdfrwt>
<pdfrwt beam="2">  1       -1 0.15528736E+00 0.72475867E+03</pdfrwt>
<totfact> 0.48927841E+00</totfact>
</mgrwt>
</event>
<event>
 4    5  0.7214169E-008  0.7214879E+03  0.7818608E-02  0.9917583E-01
          1   -1    0    0  501    0  0.00000000000E+00  0.00000000000E+00  0.65853924846E+03  0.65853924848E+03  0.50400000000E-02 0. -1.
         -1   -1    0    0    0  501 -0.00000000000E+00 -0.00000000000E+00 -0.43198613322E+03  0.43198613325E+03  0.50400000000E-02 0.  1.
    8880023    1    1    2    0    0  0.76027175797E+02 -0.28452486730E+03  0.73953352653E+02  0.72526811332E+03  0.65864270000E+03 0.  1.
    8880022    1    1    2    0    0 -0.76027175797E+02  0.28452486730E+03  0.15259976259E+03  0.36525726841E+03  0.15294330000E+03 0. -1.
<mgrwt>
<rscale>  0 0.59416641E+03</rscale>
<asrwt>0</asrwt>
<pdfrwt beam="1">  1        1 0.10131373E+00 0.72148786E+03</pdfrwt>
<pdfrwt beam="2">  1       -1 0.66459405E-01 0.72148786E+03</pdfrwt>
<totfact> 0.70083430E+01</totfact>
</mgrwt>
</event>
<event>
 4    5  0.7214169E-008  0.6638923E+03  0.7818608E-02  0.1020481E+00
         -1   -1    0    0    0  501 -0.00000000000E+00  0.00000000000E+00  0.44107411789E+03  0.44107411792E+03  0.50400000000E-02 0.  1.
          1   -1    0    0  501    0  0.00000000000E+00 -0.00000000000E+00 -0.22291960865E+04  0.22291960865E+04  0.50400000000E-02 0. -1.
    8880023    1    1    2    0    0  0.83189632763E+02 -0.47127607650E+01  0.18522916253E+03  0.68924797717E+03  0.65864270000E+03 0.  1.
    8880022    1    1    2    0    0 -0.83189632763E+02  0.47127607650E+01 -0.19733511311E+04  0.19810222273E+04  0.15294330000E+03 0.  0.
<mgrwt>
<rscale>  0 0.47513289E+03</rscale>
<asrwt>0</asrwt>
<pdfrwt beam="1">  1        1 0.34295324E+00 0.66389226E+03</pdfrwt>
<pdfrwt beam="2">  1       -1 0.67857558E-01 0.66389226E+03</pdfrwt>
<totfact> 0.49030441E+00</totfact>
</mgrwt>
</event>
<event>
 4    5  0.7214169E-008  0.1122333E+04  0.7818608E-02  0.9236589E-01
          1   -1    0    0  501    0  0.00000000000E+00  0.00000000000E+00  0.28025317884E+04  0.28025317884E+04  0.50400000000E-02 0. -1.
         -1   -1    0    0    0  501 -0.00000000000E+00 -0.00000000000E+00 -0.47472773613E+03  0.47472773615E+03  0.50400000000E-02 0.  1.
    8880023    1    1    2    0    0 -0.21063409310E+03  0.88399966228E+03  0.49667600636E+03  0.12273220383E+04  0.65864270000E+03 0.  0.
    8880022    1    1    2    0    0  0.21063409310E+03 -0.88399966228E+03  0.18311280459E+04  0.20499374863E+04  0.15294330000E+03 0.  0.
<mgrwt>
<rscale>  0 0.10683623E+04</rscale>
<asrwt>0</asrwt>
<pdfrwt beam="1">  1        1 0.43115872E+00 0.11223334E+04</pdfrwt>
<pdfrwt beam="2">  1       -1 0.73035039E-01 0.11223334E+04</pdfrwt>
<totfact> 0.15782482E+00</totfact>
</mgrwt>
</event>
<event>
 4    5  0.7214169E-008  0.8160505E+03  0.7818608E-02  0.9677109E-01
          1   -1    0    0  501    0  0.00000000000E+00  0.00000000000E+00  0.55319795738E+03  0.55319795740E+03  0.50400000000E-02 0. -1.
         -1   -1    0    0    0  501 -0.00000000000E+00 -0.00000000000E+00 -0.12856542063E+04  0.12856542063E+04  0.50400000000E-02 0.  1.
    8880023    1    1    2    0    0  0.39481614207E+03  0.27613111515E+03 -0.98059940232E+03  0.12757404018E+04  0.65864270000E+03 0.  1.
    8880022    1    1    2    0    0 -0.39481614207E+03 -0.27613111515E+03  0.24814315338E+03  0.56311176189E+03  0.15294330000E+03 0.  0.
<mgrwt>
<rscale>  0 0.72396212E+03</rscale>
<asrwt>0</asrwt>
<pdfrwt beam="1">  1        1 0.85107378E-01 0.81605048E+03</pdfrwt>
<pdfrwt beam="2">  1       -1 0.19779295E+00 0.81605048E+03</pdfrwt>
<totfact> 0.61509767E+00</totfact>
</mgrwt>
</event>
<event>
 4    5  0.7214169E-008  0.7603654E+03  0.7818608E-02  0.9804162E-01
          1   -1    0    0  501    0  0.00000000000E+00  0.00000000000E+00  0.15084390180E+04  0.15084390180E+04  0.50400000000E-02 0. -1.
         -1   -1    0    0    0  501 -0.00000000000E+00 -0.00000000000E+00 -0.10200868613E+04  0.10200868613E+04  0.50400000000E-02 0.  1.
    8880023    1    1    2    0    0  0.36786768135E+03 -0.94966982565E+02 -0.84320442708E+03  0.11354070948E+04  0.65864270000E+03 0.  1.
    8880022    1    1    2    0    0 -0.36786768135E+03  0.94966982565E+02  0.13315565839E+04  0.13931187845E+04  0.15294330000E+03 0.  0.
<mgrwt>
<rscale>  0 0.65139644E+03</rscale>
<asrwt>0</asrwt>
<pdfrwt beam="1">  1        1 0.23206754E+00 0.76036542E+03</pdfrwt>
<pdfrwt beam="2">  1       -1 0.15693644E+00 0.76036542E+03</pdfrwt>
<totfact> 0.20800213E+00</totfact>
</mgrwt>
</event>
<event>
 4    5  0.7214169E-008  0.6756817E+03  0.7818608E-02  0.1011880E+00
          1   -1    0    0  501    0  0.00000000000E+00  0.00000000000E+00  0.17080173953E+04  0.17080173953E+04  0.50400000000E-02 0. -1.
         -1   -1    0    0    0  501 -0.00000000000E+00 -0.00000000000E+00 -0.46632069266E+03  0.46632069269E+03  0.50400000000E-02 0.  1.
    8880023    1    1    2    0    0  0.82101857558E+02  0.12647059044E+03 -0.20943749776E+03  0.70739649207E+03  0.65864270000E+03 0.  1.
    8880022    1    1    2    0    0 -0.82101857558E+02 -0.12647059044E+03  0.14511342004E+04  0.14669415959E+04  0.15294330000E+03 0.  0.
<mgrwt>
<rscale>  0 0.50734247E+03</rscale>
<asrwt>0</asrwt>
<pdfrwt beam="1">  1        1 0.26277190E+00 0.67568168E+03</pdfrwt>
<pdfrwt beam="2">  1       -1 0.71741646E-01 0.67568168E+03</pdfrwt>
<totfact> 0.97315225E+00</totfact>
</mgrwt>
</event>
<event>
 4    5  0.7214169E-008  0.7352930E+03  0.7818608E-02  0.9873877E-01
          1   -1    0    0  501    0  0.00000000000E+00  0.00000000000E+00  0.88685986748E+03  0.88685986750E+03  0.50400000000E-02 0. -1.
         -1   -1    0    0    0  501 -0.00000000000E+00 -0.00000000000E+00 -0.64251787633E+03  0.64251787635E+03  0.50400000000E-02 0.  1.
    8880023    1    1    2    0    0  0.32632814081E+03 -0.18855511110E+02 -0.36521761436E+03  0.82099920700E+03  0.65864270000E+03 0.  1.
    8880022    1    1    2    0    0 -0.32632814081E+03  0.18855511110E+02  0.60955960552E+03  0.70837853685E+03  0.15294330000E+03 0.  0.
<mgrwt>
<rscale>  0 0.61544213E+03</rscale>
<asrwt>0</asrwt>
<pdfrwt beam="1">  1        1 0.13643998E+00 0.73529300E+03</pdfrwt>
<pdfrwt beam="2">  1       -1 0.98848905E-01 0.73529300E+03</pdfrwt>
<totfact> 0.18811416E+01</totfact>
</mgrwt>
</event>
<event>
 4    5  0.7214169E-008  0.9369862E+03  0.7818608E-02  0.9469091E-01
          1   -1    0    0  501    0  0.00000000000E+00  0.00000000000E+00  0.11158030080E+04  0.11158030080E+04  0.50400000000E-02 0. -1.
         -1   -1    0    0    0  501 -0.00000000000E+00 -0.00000000000E+00 -0.76066027323E+03  0.76066027324E+03  0.50400000000E-02 0.  1.
    8880023    1    1    2    0    0  0.36576536625E+03 -0.55708942357E+03 -0.24302186187E+03  0.96798902918E+03  0.65864270000E+03 0.  1.
    8880022    1    1    2    0    0 -0.36576536625E+03  0.55708942357E+03  0.59816459667E+03  0.90847425210E+03  0.15294330000E+03 0.  0.
<mgrwt>
<rscale>  0 0.86601507E+03</rscale>
<asrwt>0</asrwt>
<pdfrwt beam="1">  1        1 0.17166200E+00 0.93698620E+03</pdfrwt>
<pdfrwt beam="2">  1       -1 0.11702466E+00 0.93698620E+03</pdfrwt>
<totfact> 0.81999974E+00</totfact>
</mgrwt>
</event>
<event>
 4    5  0.7214169E-008  0.6950955E+03  0.7818608E-02  0.1001819E+00
          1   -1    0    0  501    0  0.00000000000E+00  0.00000000000E+00  0.37701214610E+04  0.37701214611E+04  0.50400000000E-02 0. -1.
         -1   -1    0    0    0  501 -0.00000000000E+00 -0.00000000000E+00 -0.11830711322E+04  0.11830711322E+04  0.50400000000E-02 0.  1.
    8880023    1    1    2    0    0 -0.20268805766E+03  0.90912665480E+02 -0.10755849928E+04  0.12806407945E+04  0.65864270000E+03 0.  0.
    8880022    1    1    2    0    0  0.20268805766E+03 -0.90912665480E+02  0.36626353217E+04  0.36725517987E+04  0.15294330000E+03 0. -1.
<mgrwt>
<rscale>  0 0.54859828E+03</rscale>
<asrwt>0</asrwt>
<pdfrwt beam="1">  1        1 0.58001869E+00 0.69509551E+03</pdfrwt>
<pdfrwt beam="2">  1       -1 0.18201094E+00 0.69509551E+03</pdfrwt>
<totfact> 0.34671772E-02</totfact>
</mgrwt>
</event>
<event>
 4    5  0.7214169E-008  0.8677274E+03  0.7818608E-02  0.9579963E-01
          1   -1    0    0  501    0  0.00000000000E+00  0.00000000000E+00  0.18668396571E+04  0.18668396571E+04  0.50400000000E-02 0. -1.
         -1   -1    0    0    0  501 -0.00000000000E+00 -0.00000000000E+00 -0.29941687398E+03  0.29941687402E+03  0.50400000000E-02 0.  1.
    8880023    1    1    2    0    0  0.52169415676E+03  0.21673902201E+03  0.67640888031E+03  0.11002180586E+04  0.65864270000E+03 0.  1.
    8880022    1    1    2    0    0 -0.52169415676E+03 -0.21673902201E+03  0.89101390281E+03  0.10660384725E+04  0.15294330000E+03 0. -1.
<mgrwt>
<rscale>  0 0.78636678E+03</rscale>
<asrwt>0</asrwt>
<pdfrwt beam="1">  1        1 0.28720610E+00 0.86772738E+03</pdfrwt>
<pdfrwt beam="2">  1       -1 0.46064135E-01 0.86772738E+03</pdfrwt>
<totfact> 0.17615186E+01</totfact>
</mgrwt>
</event>
<event>
 4    5  0.7214169E-008  0.1028633E+04  0.7818608E-02  0.9345020E-01
          1   -1    0    0  501    0  0.00000000000E+00  0.00000000000E+00  0.17183088585E+04  0.17183088585E+04  0.50400000000E-02 0. -1.
         -1   -1    0    0    0  501 -0.00000000000E+00 -0.00000000000E+00 -0.12280885528E+04  0.12280885528E+04  0.50400000000E-02 0.  1.
    8880023    1    1    2    0    0 -0.75926446517E+03  0.21861676027E+03 -0.88239597099E+03  0.13552522539E+04  0.65864270000E+03 0.  1.
    8880022    1    1    2    0    0  0.75926446517E+03 -0.21861676027E+03  0.13726162767E+04  0.15911451574E+04  0.15294330000E+03 0.  0.
<mgrwt>
<rscale>  0 0.96741847E+03</rscale>
<asrwt>0</asrwt>
<pdfrwt beam="1">  1        1 0.26435521E+00 0.10286331E+04</pdfrwt>
<pdfrwt beam="2">  1       -1 0.18893670E+00 0.10286331E+04</pdfrwt>
<totfact> 0.83604670E-01</totfact>
</mgrwt>
</event>
<event>
 4    5  0.7214169E-008  0.6844446E+03  0.7818608E-02  0.1006914E+00
          1   -1    0    0  501    0  0.00000000000E+00  0.00000000000E+00  0.86058320665E+03  0.86058320667E+03  0.50400000000E-02 0. -1.
         -1   -1    0    0    0  501 -0.00000000000E+00 -0.00000000000E+00 -0.13115958934E+04  0.13115958934E+04  0.50400000000E-02 0.  1.
    8880023    1    1    2    0    0  0.56153358042E+02 -0.17748539190E+03 -0.12021549453E+04  0.13833441302E+04  0.65864270000E+03 0.  1.
    8880022    1    1    2    0    0 -0.56153358042E+02  0.17748539190E+03  0.75114225857E+03  0.78883496980E+03  0.15294330000E+03 0.  0.
<mgrwt>
<rscale>  0 0.52719976E+03</rscale>
<asrwt>0</asrwt>
<pdfrwt beam="1">  1        1 0.13239742E+00 0.68444464E+03</pdfrwt>
<pdfrwt beam="2">  1       -1 0.20178398E+00 0.68444464E+03</pdfrwt>
<totfact> 0.30208071E+00</totfact>
</mgrwt>
</event>
<event>
 4    5  0.7214169E-008  0.1227433E+04  0.7818608E-02  0.9130906E-01
          1   -1    0    0  501    0  0.00000000000E+00  0.00000000000E+00  0.11633987109E+04  0.11633987109E+04  0.50400000000E-02 0. -1.
         -1   -1    0    0    0  501 -0.00000000000E+00 -0.00000000000E+00 -0.18551751473E+04  0.18551751473E+04  0.50400000000E-02 0.  1.
    8880023    1    1    2    0    0 -0.68169090515E+03  0.77979481756E+03 -0.13160473846E+04  0.17996036709E+04  0.65864270000E+03 0.  1.
    8880022    1    1    2    0    0  0.68169090515E+03 -0.77979481756E+03  0.62427094820E+03  0.12189701873E+04  0.15294330000E+03 0.  0.
<mgrwt>
<rscale>  0 0.11795963E+04</rscale>
<asrwt>0</asrwt>
<pdfrwt beam="1">  1        1 0.17898442E+00 0.12274334E+04</pdfrwt>
<pdfrwt beam="2">  1       -1 0.28541156E+00 0.12274334E+04</pdfrwt>
<totfact> 0.45739520E-01</totfact>
</mgrwt>
</event>
<event>
 4    5  0.7214169E-008  0.1244565E+04  0.7818608E-02  0.9114974E-01
         -1   -1    0    0    0  501 -0.00000000000E+00  0.00000000000E+00  0.10490099046E+04  0.10490099046E+04  0.50400000000E-02 0.  1.
          1   -1    0    0  501    0  0.00000000000E+00 -0.00000000000E+00 -0.20300163185E+04  0.20300163185E+04  0.50400000000E-02 0. -1.
    8880023    1    1    2    0    0 -0.94552490433E+03 -0.47022697629E+03  0.42397585770E+03  0.13147990296E+04  0.65864270000E+03 0.  0.
    8880022    1    1    2    0    0  0.94552490433E+03  0.47022697629E+03 -0.14049822716E+04  0.17642271935E+04  0.15294330000E+03 0.  0.
<mgrwt>
<rscale>  0 0.11975834E+04</rscale>
<asrwt>0</asrwt>
<pdfrwt beam="1">  1        1 0.31231020E+00 0.12445646E+04</pdfrwt>
<pdfrwt beam="2">  1       -1 0.16138614E+00 0.12445646E+04</pdfrwt>
<totfact> 0.79235303E-01</totfact>
</mgrwt>
</event>
<event>
 4    5  0.7214169E-008  0.1619449E+04  0.7818608E-02  0.8829591E-01
          1   -1    0    0  501    0  0.00000000000E+00  0.00000000000E+00  0.35870212998E+04  0.35870212998E+04  0.50400000000E-02 0. -1.
         -1   -1    0    0    0  501 -0.00000000000E+00 -0.00000000000E+00 -0.10215989884E+04  0.10215989884E+04  0.50400000000E-02 0.  1.
    8880023    1    1    2    0    0 -0.13774577983E+04  0.53982961837E+03 -0.27179061176E+02  0.16196774094E+04  0.65864270000E+03 0.  0.
    8880022    1    1    2    0    0  0.13774577983E+04 -0.53982961837E+03  0.25926013726E+04  0.29889428788E+04  0.15294330000E+03 0.  0.
<mgrwt>
<rscale>  0 0.15853623E+04</rscale>
<asrwt>0</asrwt>
<pdfrwt beam="1">  1        1 0.55184943E+00 0.16194494E+04</pdfrwt>
<pdfrwt beam="2">  1       -1 0.15716907E+00 0.16194494E+04</pdfrwt>
<totfact> 0.61593523E-02</totfact>
</mgrwt>
</event>
<event>
 4    5  0.7214169E-008  0.7432201E+03  0.7818608E-02  0.9850664E-01
         -1   -1    0    0    0  501 -0.00000000000E+00  0.00000000000E+00  0.31356938382E+03  0.31356938386E+03  0.50400000000E-02 0.  1.
          1   -1    0    0  501    0  0.00000000000E+00 -0.00000000000E+00 -0.25326795553E+04  0.25326795553E+04  0.50400000000E-02 0. -1.
    8880023    1    1    2    0    0 -0.32683809768E+03  0.10836438666E+03 -0.16950957764E+03  0.76230550671E+03  0.65864270000E+03 0.  1.
    8880022    1    1    2    0    0  0.32683809768E+03 -0.10836438666E+03 -0.20496005939E+04  0.20839434325E+04  0.15294330000E+03 0.  0.
<mgrwt>
<rscale>  0 0.62713054E+03</rscale>
<asrwt>0</asrwt>
<pdfrwt beam="1">  1        1 0.38964299E+00 0.74322015E+03</pdfrwt>
<pdfrwt beam="2">  1       -1 0.48241445E-01 0.74322015E+03</pdfrwt>
<totfact> 0.58524955E+00</totfact>
</mgrwt>
</event>
<event>
 4    5  0.7214169E-008  0.9401982E+03  0.7818608E-02  0.9464359E-01
         -1   -1    0    0    0  501 -0.00000000000E+00  0.00000000000E+00  0.75158445576E+03  0.75158445578E+03  0.50400000000E-02 0.  1.
          1   -1    0    0  501    0  0.00000000000E+00 -0.00000000000E+00 -0.13620609700E+04  0.13620609700E+04  0.50400000000E-02 0. -1.
    8880023    1    1    2    0    0 -0.66971271027E+03 -0.40587020042E+02  0.28670682366E+03  0.98294121365E+03  0.65864270000E+03 0.  0.
    8880022    1    1    2    0    0  0.66971271027E+03  0.40587020042E+02 -0.89718333787E+03  0.11307042121E+04  0.15294330000E+03 0.  0.
<mgrwt>
<rscale>  0 0.86963248E+03</rscale>
<asrwt>0</asrwt>
<pdfrwt beam="1">  1        1 0.20954784E+00 0.94019818E+03</pdfrwt>
<pdfrwt beam="2">  1       -1 0.11562838E+00 0.94019818E+03</pdfrwt>
<totfact> 0.56006545E+00</totfact>
</mgrwt>
</event>
<event>
 4    5  0.7214169E-008  0.1211835E+04  0.7818608E-02  0.9145702E-01
          1   -1    0    0  501    0  0.00000000000E+00  0.00000000000E+00  0.12012091085E+04  0.12012091085E+04  0.50400000000E-02 0. -1.
         -1   -1    0    0    0  501 -0.00000000000E+00 -0.00000000000E+00 -0.12185541019E+04  0.12185541020E+04  0.50400000000E-02 0.  1.
    8880023    1    1    2    0    0 -0.92345785952E+03 -0.42656836172E+03 -0.46491775679E+03  0.12979575156E+04  0.65864270000E+03 0.  0.
    8880022    1    1    2    0    0  0.92345785952E+03  0.42656836172E+03  0.44757276337E+03  0.11218056949E+04  0.15294330000E+03 0.  0.
<mgrwt>
<rscale>  0 0.11631881E+04</rscale>
<asrwt>0</asrwt>
<pdfrwt beam="1">  1        1 0.18480140E+00 0.12118355E+04</pdfrwt>
<pdfrwt beam="2">  1       -1 0.18746986E+00 0.12118355E+04</pdfrwt>
<totfact> 0.19219157E+00</totfact>
</mgrwt>
</event>
<event>
 4    5  0.7214169E-008  0.1775100E+04  0.7818608E-02  0.8736437E-01
          1   -1    0    0  501    0  0.00000000000E+00  0.00000000000E+00  0.45915848131E+04  0.45915848131E+04  0.50400000000E-02 0. -1.
         -1   -1    0    0    0  501 -0.00000000000E+00 -0.00000000000E+00 -0.10761731614E+04  0.10761731614E+04  0.50400000000E-02 0.  1.
    8880023    1    1    2    0    0 -0.11564058700E+04  0.11746893060E+04 -0.76689100076E+01  0.17751164808E+04  0.65864270000E+03 0.  0.
    8880022    1    1    2    0    0  0.11564058700E+04 -0.11746893060E+04  0.35230805617E+04  0.38926414937E+04  0.15294330000E+03 0.  0.
<mgrwt>
<rscale>  0 0.17444039E+04</rscale>
<asrwt>0</asrwt>
<pdfrwt beam="1">  1        1 0.70639766E+00 0.17750999E+04</pdfrwt>
<pdfrwt beam="2">  1       -1 0.16556510E+00 0.17750999E+04</pdfrwt>
<totfact> 0.63909518E-03</totfact>
</mgrwt>
</event>
<event>
 4    5  0.7214169E-008  0.1246881E+04  0.7818608E-02  0.9112845E-01
         -1   -1    0    0    0  501 -0.00000000000E+00  0.00000000000E+00  0.15209297160E+04  0.15209297160E+04  0.50400000000E-02 0.  1.
          1   -1    0    0  501    0  0.00000000000E+00 -0.00000000000E+00 -0.14473090693E+04  0.14473090694E+04  0.50400000000E-02 0. -1.
    8880023    1    1    2    0    0 -0.10411592499E+04 -0.19206754063E+03  0.96430242242E+03  0.15762588277E+04  0.65864270000E+03 0.  0.
    8880022    1    1    2    0    0  0.10411592499E+04  0.19206754063E+03 -0.89068177578E+03  0.13919799576E+04  0.15294330000E+03 0.  0.
<mgrwt>
<rscale>  0 0.12000132E+04</rscale>
<asrwt>0</asrwt>
<pdfrwt beam="1">  1        1 0.22266293E+00 0.12468812E+04</pdfrwt>
<pdfrwt beam="2">  1       -1 0.23398919E+00 0.12468812E+04</pdfrwt>
<totfact> 0.61606329E-01</totfact>
</mgrwt>
</event>
<event>
 4    5  0.7214169E-008  0.1110140E+04  0.7818608E-02  0.9249850E-01
         -1   -1    0    0    0  501 -0.00000000000E+00  0.00000000000E+00  0.12308343925E+04  0.12308343925E+04  0.50400000000E-02 0.  1.
          1   -1    0    0  501    0  0.00000000000E+00 -0.00000000000E+00 -0.10959639015E+04  0.10959639015E+04  0.50400000000E-02 0. -1.
    8880023    1    1    2    0    0  0.58338055320E+03 -0.67695411314E+03  0.64759910215E+03  0.12852215935E+04  0.65864270000E+03 0.  0.
    8880022    1    1    2    0    0 -0.58338055320E+03  0.67695411314E+03 -0.51272861112E+03  0.10415767004E+04  0.15294330000E+03 0.  0.
<mgrwt>
<rscale>  0 0.10553381E+04</rscale>
<asrwt>0</asrwt>
<pdfrwt beam="1">  1        1 0.16860983E+00 0.11101396E+04</pdfrwt>
<pdfrwt beam="2">  1       -1 0.18935914E+00 0.11101396E+04</pdfrwt>
<totfact> 0.22580312E+00</totfact>
</mgrwt>
</event>
<event>
 4    5  0.7214169E-008  0.7559576E+03  0.7818608E-02  0.9815687E-01
         -1   -1    0    0    0  501 -0.00000000000E+00  0.00000000000E+00  0.22734758516E+03  0.22734758522E+03  0.50400000000E-02 0.  1.
          1   -1    0    0  501    0  0.00000000000E+00 -0.00000000000E+00 -0.21526769783E+04  0.21526769783E+04  0.50400000000E-02 0. -1.
    8880023    1    1    2    0    0  0.46377792996E+01 -0.37099891038E+03 -0.51752071139E+03  0.91613295622E+03  0.65864270000E+03 0.  1.
    8880022    1    1    2    0    0 -0.46377792996E+01  0.37099891038E+03 -0.14078086817E+04  0.14638916073E+04  0.15294330000E+03 0.  0.
<mgrwt>
<rscale>  0 0.64527420E+03</rscale>
<asrwt>0</asrwt>
<pdfrwt beam="1">  1        1 0.33118106E+00 0.75595761E+03</pdfrwt>
<pdfrwt beam="2">  1       -1 0.34976553E-01 0.75595761E+03</pdfrwt>
<totfact> 0.19002608E+01</totfact>
</mgrwt>
</event>
<event>
 4    5  0.7214169E-008  0.9221608E+03  0.7818608E-02  0.9491354E-01
          1   -1    0    0  501    0  0.00000000000E+00  0.00000000000E+00  0.41844583208E+04  0.41844583209E+04  0.50400000000E-02 0. -1.
         -1   -1    0    0    0  501 -0.00000000000E+00 -0.00000000000E+00 -0.73106140217E+03  0.73106140219E+03  0.50400000000E-02 0.  1.
    8880023    1    1    2    0    0 -0.32561163992E+03 -0.55726785865E+03 -0.40019880946E+03  0.10052560369E+04  0.65864270000E+03 0.  0.
    8880022    1    1    2    0    0  0.32561163992E+03  0.55726785865E+03  0.38535957281E+04  0.39102636862E+04  0.15294330000E+03 0.  0.
<mgrwt>
<rscale>  0 0.84924287E+03</rscale>
<asrwt>0</asrwt>
<pdfrwt beam="1">  1        1 0.64376281E+00 0.92216084E+03</pdfrwt>
<pdfrwt beam="2">  1       -1 0.11247099E+00 0.92216084E+03</pdfrwt>
<totfact> 0.51124724E-02</totfact>
</mgrwt>
</event>
<event>
 4    5  0.7214169E-008  0.9094174E+03  0.7818608E-02  0.9511080E-01
          1   -1    0    0  501    0  0.00000000000E+00  0.00000000000E+00  0.17909836587E+04  0.17909836587E+04  0.50400000000E-02 0. -1.
         -1   -1    0    0    0  501 -0.00000000000E+00 -0.00000000000E+00 -0.55223430443E+03  0.55223430446E+03  0.50400000000E-02 0.  1.
    8880023    1    1    2    0    0 -0.54184573583E+03  0.31564684940E+03 -0.40537196161E+02  0.91032038619E+03  0.65864270000E+03 0.  1.
    8880022    1    1    2    0    0  0.54184573583E+03 -0.31564684940E+03  0.12792865504E+04  0.14328975769E+04  0.15294330000E+03 0.  0.
<mgrwt>
<rscale>  0 0.83471867E+03</rscale>
<asrwt>0</asrwt>
<pdfrwt beam="1">  1        1 0.27553595E+00 0.90941736E+03</pdfrwt>
<pdfrwt beam="2">  1       -1 0.84959124E-01 0.90941736E+03</pdfrwt>
<totfact> 0.57799554E+00</totfact>
</mgrwt>
</event>
<event>
 4    5  0.7214169E-008  0.6701555E+03  0.7818608E-02  0.1015552E+00
         -1   -1    0    0    0  501 -0.00000000000E+00  0.00000000000E+00  0.31841224397E+03  0.31841224401E+03  0.50400000000E-02 0.  1.
          1   -1    0    0  501    0  0.00000000000E+00 -0.00000000000E+00 -0.80274364325E+03  0.80274364326E+03  0.50400000000E-02 0. -1.
    8880023    1    1    2    0    0 -0.79542962393E+02 -0.94715629906E+02 -0.84371694320E+02  0.67544572134E+03  0.65864270000E+03 0.  0.
    8880022    1    1    2    0    0  0.79542962393E+02  0.94715629906E+02 -0.39995970495E+03  0.44571016593E+03  0.15294330000E+03 0.  0.
<mgrwt>
<rscale>  0 0.49326603E+03</rscale>
<asrwt>0</asrwt>
<pdfrwt beam="1">  1        1 0.12349902E+00 0.67015546E+03</pdfrwt>
<pdfrwt beam="2">  1       -1 0.48986499E-01 0.67015546E+03</pdfrwt>
<totfact> 0.94118472E+01</totfact>
</mgrwt>
</event>
<event>
 4    5  0.7214169E-008  0.9644751E+03  0.7818608E-02  0.9429586E-01
          1   -1    0    0  501    0  0.00000000000E+00  0.00000000000E+00  0.79235583603E+03  0.79235583605E+03  0.50400000000E-02 0. -1.
         -1   -1    0    0    0  501 -0.00000000000E+00 -0.00000000000E+00 -0.15762583691E+04  0.15762583691E+04  0.50400000000E-02 0.  1.
    8880023    1    1    2    0    0  0.55143061194E+03  0.43855024161E+03 -0.11973706119E+04  0.15375007716E+04  0.65864270000E+03 0.  0.
    8880022    1    1    2    0    0 -0.55143061194E+03 -0.43855024161E+03  0.41346807883E+03  0.83111343355E+03  0.15294330000E+03 0.  0.
<mgrwt>
<rscale>  0 0.89680319E+03</rscale>
<asrwt>0</asrwt>
<pdfrwt beam="1">  1        1 0.12190090E+00 0.96447511E+03</pdfrwt>
<pdfrwt beam="2">  1       -1 0.24250129E+00 0.96447511E+03</pdfrwt>
<totfact> 0.17739152E+00</totfact>
</mgrwt>
</event>
<event>
 4    5  0.7214169E-008  0.7305457E+03  0.7818608E-02  0.9888395E-01
          1   -1    0    0  501    0  0.00000000000E+00  0.00000000000E+00  0.13682612831E+04  0.13682612831E+04  0.50400000000E-02 0. -1.
         -1   -1    0    0    0  501 -0.00000000000E+00 -0.00000000000E+00 -0.48243206184E+03  0.48243206187E+03  0.50400000000E-02 0.  1.
    8880023    1    1    2    0    0 -0.31575618258E+03  0.13594947689E+02 -0.15968808496E+03  0.74779494528E+03  0.65864270000E+03 0.  0.
    8880022    1    1    2    0    0  0.31575618258E+03 -0.13594947689E+02  0.10455173062E+04  0.11028983997E+04  0.15294330000E+03 0. -1.
<mgrwt>
<rscale>  0 0.60827004E+03</rscale>
<asrwt>0</asrwt>
<pdfrwt beam="1">  1        1 0.21050173E+00 0.73054568E+03</pdfrwt>
<pdfrwt beam="2">  1       -1 0.74220319E-01 0.73054568E+03</pdfrwt>
<totfact> 0.15332882E+01</totfact>
</mgrwt>
</event>
<event>
 4    5  0.7214169E-008  0.1185363E+04  0.7818608E-02  0.9171483E-01
          1   -1    0    0  501    0  0.00000000000E+00  0.00000000000E+00  0.27264837906E+04  0.27264837906E+04  0.50400000000E-02 0. -1.
         -1   -1    0    0    0  501 -0.00000000000E+00 -0.00000000000E+00 -0.74944565144E+03  0.74944565146E+03  0.50400000000E-02 0.  1.
    8880023    1    1    2    0    0 -0.81095603383E+03  0.56002288733E+03 -0.81869100370E+02  0.11881868872E+04  0.65864270000E+03 0.  0.
    8880022    1    1    2    0    0  0.81095603383E+03 -0.56002288733E+03  0.20589072395E+04  0.22877425548E+04  0.15294330000E+03 0.  0.
<mgrwt>
<rscale>  0 0.11352676E+04</rscale>
<asrwt>0</asrwt>
<pdfrwt beam="1">  1        1 0.41945904E+00 0.11853630E+04</pdfrwt>
<pdfrwt beam="2">  1       -1 0.11529933E+00 0.11853630E+04</pdfrwt>
<totfact> 0.63699115E-01</totfact>
</mgrwt>
</event>
<event>
 4    5  0.7214169E-008  0.1105526E+04  0.7818608E-02  0.9254929E-01
         -1   -1    0    0    0  501 -0.00000000000E+00  0.00000000000E+00  0.98574481167E+03  0.98574481169E+03  0.50400000000E-02 0.  1.
          1   -1    0    0  501    0  0.00000000000E+00 -0.00000000000E+00 -0.14671990293E+04  0.14671990293E+04  0.50400000000E-02 0. -1.
    8880023    1    1    2    0    0  0.62007306569E+03 -0.63552032030E+03  0.41604824354E+03  0.11812209918E+04  0.65864270000E+03 0. -1.
    8880022    1    1    2    0    0 -0.62007306569E+03  0.63552032030E+03 -0.89750246117E+03  0.12717228492E+04  0.15294330000E+03 0.  0.
<mgrwt>
<rscale>  0 0.10504022E+04</rscale>
<asrwt>0</asrwt>
<pdfrwt beam="1">  1        1 0.22572293E+00 0.11055256E+04</pdfrwt>
<pdfrwt beam="2">  1       -1 0.15165305E+00 0.11055256E+04</pdfrwt>
<totfact> 0.23159539E+00</totfact>
</mgrwt>
</event>
<event>
 4    5  0.7214169E-008  0.1196241E+04  0.7818608E-02  0.9160785E-01
          1   -1    0    0  501    0  0.00000000000E+00  0.00000000000E+00  0.19240251747E+04  0.19240251747E+04  0.50400000000E-02 0. -1.
         -1   -1    0    0    0  501 -0.00000000000E+00 -0.00000000000E+00 -0.12998798011E+04  0.12998798011E+04  0.50400000000E-02 0.  1.
    8880023    1    1    2    0    0  0.82502810302E+03  0.56259259779E+03 -0.82805512040E+03  0.14548770706E+04  0.65864270000E+03 0.  1.
    8880022    1    1    2    0    0 -0.82502810302E+03 -0.56259259779E+03  0.14522004940E+04  0.17690279053E+04  0.15294330000E+03 0.  0.
<mgrwt>
<rscale>  0 0.11467519E+04</rscale>
<asrwt>0</asrwt>
<pdfrwt beam="1">  1        1 0.29600387E+00 0.11962408E+04</pdfrwt>
<pdfrwt beam="2">  1       -1 0.19998151E+00 0.11962408E+04</pdfrwt>
<totfact> 0.49599119E-01</totfact>
</mgrwt>
</event>
<event>
 4    5  0.7214169E-008  0.8149264E+03  0.7818608E-02  0.9679405E-01
         -1   -1    0    0    0  501 -0.00000000000E+00  0.00000000000E+00  0.32269094704E+03  0.32269094708E+03  0.50400000000E-02 0.  1.
          1   -1    0    0  501    0  0.00000000000E+00 -0.00000000000E+00 -0.30706899895E+04  0.30706899895E+04  0.50400000000E-02 0. -1.
    8880023    1    1    2    0    0 -0.21669984531E+03  0.42817751201E+03 -0.26071887657E+03  0.85561635305E+03  0.65864270000E+03 0.  1.
    8880022    1    1    2    0    0  0.21669984531E+03 -0.42817751201E+03 -0.24872801659E+04  0.25377645835E+04  0.15294330000E+03 0.  0.
<mgrwt>
<rscale>  0 0.72256338E+03</rscale>
<asrwt>0</asrwt>
<pdfrwt beam="1">  1        1 0.47241383E+00 0.81492638E+03</pdfrwt>
<pdfrwt beam="2">  1       -1 0.49644763E-01 0.81492638E+03</pdfrwt>
<totfact> 0.22914170E+00</totfact>
</mgrwt>
</event>
<event>
 4    5  0.7214169E-008  0.1135860E+04  0.7818608E-02  0.9222143E-01
         -1   -1    0    0    0  501 -0.00000000000E+00  0.00000000000E+00  0.14098137764E+04  0.14098137764E+04  0.50400000000E-02 0.  1.
          1   -1    0    0  501    0  0.00000000000E+00 -0.00000000000E+00 -0.92703139194E+03  0.92703139195E+03  0.50400000000E-02 0. -1.
    8880023    1    1    2    0    0  0.77246860236E+03  0.50956915476E+03  0.75052908314E+03  0.13614229967E+04  0.65864270000E+03 0.  0.
    8880022    1    1    2    0    0 -0.77246860236E+03 -0.50956915476E+03 -0.26774669873E+03  0.97542217158E+03  0.15294330000E+03 0.  0.
<mgrwt>
<rscale>  0 0.10827775E+04</rscale>
<asrwt>0</asrwt>
<pdfrwt beam="1">  1        1 0.14262022E+00 0.11358603E+04</pdfrwt>
<pdfrwt beam="2">  1       -1 0.21689443E+00 0.11358603E+04</pdfrwt>
<totfact> 0.19746078E+00</totfact>
</mgrwt>
</event>
<event>
 4    5  0.7214169E-008  0.1006186E+04  0.7818608E-02  0.9373509E-01
          1   -1    0    0  501    0  0.00000000000E+00  0.00000000000E+00  0.27994247951E+04  0.27994247951E+04  0.50400000000E-02 0. -1.
         -1   -1    0    0    0  501 -0.00000000000E+00 -0.00000000000E+00 -0.54249253865E+03  0.54249253867E+03  0.50400000000E-02 0.  1.
    8880023    1    1    2    0    0  0.75987628185E+03 -0.34461295913E+02  0.55450735463E+02  0.10077125260E+04  0.65864270000E+03 0.  0.
    8880022    1    1    2    0    0 -0.75987628185E+03  0.34461295913E+02  0.22014815210E+04  0.23342048079E+04  0.15294330000E+03 0.  0.
<mgrwt>
<rscale>  0 0.94288209E+03</rscale>
<asrwt>0</asrwt>
<pdfrwt beam="1">  1        1 0.43068074E+00 0.10061857E+04</pdfrwt>
<pdfrwt beam="2">  1       -1 0.83460390E-01 0.10061857E+04</pdfrwt>
<totfact> 0.12157048E+00</totfact>
</mgrwt>
</event>
<event>
 4    5  0.7214169E-008  0.1384948E+04  0.7818608E-02  0.8995468E-01
          1   -1    0    0  501    0  0.00000000000E+00  0.00000000000E+00  0.27706797669E+04  0.27706797669E+04  0.50400000000E-02 0. -1.
         -1   -1    0    0    0  501 -0.00000000000E+00 -0.00000000000E+00 -0.88253432424E+03  0.88253432425E+03  0.50400000000E-02 0.  1.
    8880023    1    1    2    0    0  0.95574084387E+03  0.75553249172E+03 -0.18890602989E+02  0.13850765206E+04  0.65864270000E+03 0.  0.
    8880022    1    1    2    0    0 -0.95574084387E+03 -0.75553249172E+03  0.19070360456E+04  0.22681375706E+04  0.15294330000E+03 0.  0.
<mgrwt>
<rscale>  0 0.13438878E+04</rscale>
<asrwt>0</asrwt>
<pdfrwt beam="1">  1        1 0.42625842E+00 0.13849477E+04</pdfrwt>
<pdfrwt beam="2">  1       -1 0.13577451E+00 0.13849477E+04</pdfrwt>
<totfact> 0.38341754E-01</totfact>
</mgrwt>
</event>
<event>
 4    5  0.7214169E-008  0.6590657E+03  0.7818608E-02  0.1025135E+00
          1   -1    0    0  501    0  0.00000000000E+00  0.00000000000E+00  0.69575267308E+03  0.69575267310E+03  0.50400000000E-02 0. -1.
         -1   -1    0    0    0  501 -0.00000000000E+00 -0.00000000000E+00 -0.13495852132E+04  0.13495852132E+04  0.50400000000E-02 0.  1.
    8880023    1    1    2    0    0  0.17071717213E+02 -0.16309116011E+02 -0.12587970293E+04  0.14208932395E+04  0.65864270000E+03 0.  1.
    8880022    1    1    2    0    0 -0.17071717213E+02  0.16309116011E+02  0.60496448916E+03  0.62444464683E+03  0.15294330000E+03 0.  0.
<mgrwt>
<rscale>  0 0.45878336E+03</rscale>
<asrwt>0</asrwt>
<pdfrwt beam="1">  1        1 0.10703887E+00 0.65906573E+03</pdfrwt>
<pdfrwt beam="2">  1       -1 0.20762849E+00 0.65906573E+03</pdfrwt>
<totfact> 0.38682706E+00</totfact>
</mgrwt>
</event>
<event>
 4    5  0.7214169E-008  0.8982317E+03  0.7818608E-02  0.9528876E-01
          1   -1    0    0  501    0  0.00000000000E+00  0.00000000000E+00  0.17214520579E+04  0.17214520579E+04  0.50400000000E-02 0. -1.
         -1   -1    0    0    0  501 -0.00000000000E+00 -0.00000000000E+00 -0.82847808591E+03  0.82847808592E+03  0.50400000000E-02 0.  1.
    8880023    1    1    2    0    0  0.23217094251E+03  0.56489525351E+03 -0.49517046711E+03  0.10256773332E+04  0.65864270000E+03 0.  1.
    8880022    1    1    2    0    0 -0.23217094251E+03 -0.56489525351E+03  0.13881444391E+04  0.15242528106E+04  0.15294330000E+03 0.  0.
<mgrwt>
<rscale>  0 0.82187963E+03</rscale>
<asrwt>0</asrwt>
<pdfrwt beam="1">  1        1 0.26483877E+00 0.89823171E+03</pdfrwt>
<pdfrwt beam="2">  1       -1 0.12745817E+00 0.89823171E+03</pdfrwt>
<totfact> 0.25117245E+00</totfact>
</mgrwt>
</event>
<event>
 4    5  0.7214169E-008  0.1609664E+04  0.7818608E-02  0.8835845E-01
         -1   -1    0    0    0  501 -0.00000000000E+00  0.00000000000E+00  0.29287907076E+04  0.29287907076E+04  0.50400000000E-02 0.  1.
          1   -1    0    0  501    0  0.00000000000E+00 -0.00000000000E+00 -0.12027993647E+04  0.12027993647E+04  0.50400000000E-02 0. -1.
    8880023    1    1    2    0    0  0.14683969375E+04 -0.31902582817E+02  0.20632594662E+04  0.26168792811E+04  0.65864270000E+03 0.  1.
    8880022    1    1    2    0    0 -0.14683969375E+04  0.31902582817E+02 -0.33726812329E+03  0.15147107912E+04  0.15294330000E+03 0.  0.
<mgrwt>
<rscale>  0 0.15753366E+04</rscale>
<asrwt>0</asrwt>
<pdfrwt beam="1">  1        1 0.18504606E+00 0.16096638E+04</pdfrwt>
<pdfrwt beam="2">  1       -1 0.45058318E+00 0.16096638E+04</pdfrwt>
<totfact> 0.31888651E-02</totfact>
</mgrwt>
</event>
<event>
 4    5  0.7214169E-008  0.8447028E+03  0.7818608E-02  0.9621376E-01
         -1   -1    0    0    0  501 -0.00000000000E+00  0.00000000000E+00  0.70782342323E+03  0.70782342325E+03  0.50400000000E-02 0.  1.
          1   -1    0    0  501    0  0.00000000000E+00 -0.00000000000E+00 -0.85678065204E+03  0.85678065205E+03  0.50400000000E-02 0. -1.
    8880023    1    1    2    0    0 -0.51285436671E+03 -0.12920144610E+03  0.25431735322E+03  0.88215652666E+03  0.65864270000E+03 0.  1.
    8880022    1    1    2    0    0  0.51285436671E+03  0.12920144610E+03 -0.40327458202E+03  0.68244754864E+03  0.15294330000E+03 0. -1.
<mgrwt>
<rscale>  0 0.75897410E+03</rscale>
<asrwt>0</asrwt>
<pdfrwt beam="1">  1        1 0.13181241E+00 0.84470280E+03</pdfrwt>
<pdfrwt beam="2">  1       -1 0.10889591E+00 0.84470280E+03</pdfrwt>
<totfact> 0.15725743E+01</totfact>
</mgrwt>
</event>
<event>
 4    5  0.7214169E-008  0.8728808E+03  0.7818608E-02  0.9571049E-01
         -1   -1    0    0    0  501 -0.00000000000E+00  0.00000000000E+00  0.17777772668E+04  0.17777772668E+04  0.50400000000E-02 0.  1.
          1   -1    0    0  501    0  0.00000000000E+00 -0.00000000000E+00 -0.55329007977E+03  0.55329007979E+03  0.50400000000E-02 0. -1.
    8880023    1    1    2    0    0  0.53621294122E+03 -0.20146043537E+03  0.14535310922E+04  0.16954862039E+04  0.65864270000E+03 0.  0.
    8880022    1    1    2    0    0 -0.53621294122E+03  0.20146043537E+03 -0.22904390523E+03  0.63558114264E+03  0.15294330000E+03 0.  0.
<mgrwt>
<rscale>  0 0.79242325E+03</rscale>
<asrwt>0</asrwt>
<pdfrwt beam="1">  1        1 0.85121551E-01 0.87288077E+03</pdfrwt>
<pdfrwt beam="2">  1       -1 0.27350419E+00 0.87288077E+03</pdfrwt>
<totfact> 0.19396358E+00</totfact>
</mgrwt>
</event>
<event>
 4    5  0.7214169E-008  0.1590539E+04  0.7818608E-02  0.8848215E-01
          1   -1    0    0  501    0  0.00000000000E+00  0.00000000000E+00  0.27795276017E+04  0.27795276017E+04  0.50400000000E-02 0. -1.
         -1   -1    0    0    0  501 -0.00000000000E+00 -0.00000000000E+00 -0.12366198555E+04  0.12366198555E+04  0.50400000000E-02 0.  1.
    8880023    1    1    2    0    0  0.76879944092E+03  0.12267642881E+04 -0.34956854667E+03  0.16284997924E+04  0.65864270000E+03 0.  0.
    8880022    1    1    2    0    0 -0.76879944092E+03 -0.12267642881E+04  0.18924762929E+04  0.23876476648E+04  0.15294330000E+03 0.  0.
<mgrwt>
<rscale>  0 0.15557316E+04</rscale>
<asrwt>0</asrwt>
<pdfrwt beam="1">  1        1 0.42761962E+00 0.15905387E+04</pdfrwt>
<pdfrwt beam="2">  1       -1 0.19024921E+00 0.15905387E+04</pdfrwt>
<totfact> 0.14206871E-01</totfact>
</mgrwt>
</event>
<event>
 4    5  0.7214169E-008  0.8243250E+03  0.7818608E-02  0.9660477E-01
          1   -1    0    0  501    0  0.00000000000E+00  0.00000000000E+00  0.16619401649E+04  0.16619401649E+04  0.50400000000E-02 0. -1.
         -1   -1    0    0    0  501 -0.00000000000E+00 -0.00000000000E+00 -0.71809107787E+03  0.71809107789E+03  0.50400000000E-02 0.  1.
    8880023    1    1    2    0    0  0.30024311801E+03  0.39440537343E+03 -0.41690461457E+03  0.92375385922E+03  0.65864270000E+03 0.  1.
    8880022    1    1    2    0    0 -0.30024311801E+03 -0.39440537343E+03  0.13607537016E+04  0.14562773836E+04  0.15294330000E+03 0.  0.
<mgrwt>
<rscale>  0 0.73419546E+03</rscale>
<asrwt>0</asrwt>
<pdfrwt beam="1">  1        1 0.25568310E+00 0.82432502E+03</pdfrwt>
<pdfrwt beam="2">  1       -1 0.11047555E+00 0.82432502E+03</pdfrwt>
<totfact> 0.39472837E+00</totfact>
</mgrwt>
</event>
<event>
 4    5  0.7214169E-008  0.1228468E+04  0.7818608E-02  0.9129934E-01
         -1   -1    0    0    0  501 -0.00000000000E+00  0.00000000000E+00  0.50583210872E+03  0.50583210874E+03  0.50400000000E-02 0.  1.
          1   -1    0    0  501    0  0.00000000000E+00 -0.00000000000E+00 -0.35042082567E+04  0.35042082567E+04  0.50400000000E-02 0. -1.
    8880023    1    1    2    0    0 -0.20209738523E+02 -0.10367815463E+04 -0.54852733877E+03  0.13453686691E+04  0.65864270000E+03 0.  0.
    8880022    1    1    2    0    0  0.20209738523E+02  0.10367815463E+04 -0.24498488092E+04  0.26646716963E+04  0.15294330000E+03 0.  0.
<mgrwt>
<rscale>  0 0.11806840E+04</rscale>
<asrwt>0</asrwt>
<pdfrwt beam="1">  1        1 0.53910895E+00 0.12284684E+04</pdfrwt>
<pdfrwt beam="2">  1       -1 0.77820326E-01 0.12284684E+04</pdfrwt>
<totfact> 0.41109142E-01</totfact>
</mgrwt>
</event>
<event>
 4    5  0.7214169E-008  0.8631539E+03  0.7818608E-02  0.9587978E-01
          1   -1    0    0  501    0  0.00000000000E+00  0.00000000000E+00  0.92382550923E+03  0.92382550925E+03  0.50400000000E-02 0. -1.
         -1   -1    0    0    0  501 -0.00000000000E+00 -0.00000000000E+00 -0.83031578661E+03  0.83031578663E+03  0.50400000000E-02 0.  1.
    8880023    1    1    2    0    0 -0.54697591476E+03  0.10973485865E+03 -0.43857317127E+03  0.96818439533E+03  0.65864270000E+03 0.  1.
    8880022    1    1    2    0    0  0.54697591476E+03 -0.10973485865E+03  0.53208289389E+03  0.78595690055E+03  0.15294330000E+03 0.  0.
<mgrwt>
<rscale>  0 0.78097029E+03</rscale>
<asrwt>0</asrwt>
<pdfrwt beam="1">  1        1 0.14212700E+00 0.86315387E+03</pdfrwt>
<pdfrwt beam="2">  1       -1 0.12774089E+00 0.86315387E+03</pdfrwt>
<totfact> 0.93837036E+00</totfact>
</mgrwt>
</event>
<event>
 4    5  0.7214169E-008  0.8547968E+03  0.7818608E-02  0.9602887E-01
         -1   -1    0    0    0  501 -0.00000000000E+00  0.00000000000E+00  0.22531833702E+03  0.22531833708E+03  0.50400000000E-02 0.  1.
          1   -1    0    0  501    0  0.00000000000E+00 -0.00000000000E+00 -0.24484511158E+04  0.24484511158E+04  0.50400000000E-02 0. -1.
    8880023    1    1    2    0    0 -0.27629649749E+03  0.46960366855E+03 -0.93523166023E+03  0.12670184784E+04  0.65864270000E+03 0.  0.
    8880022    1    1    2    0    0  0.27629649749E+03 -0.46960366855E+03 -0.12879011185E+04  0.14067509745E+04  0.15294330000E+03 0.  0.
<mgrwt>
<rscale>  0 0.77105407E+03</rscale>
<asrwt>0</asrwt>
<pdfrwt beam="1">  1        1 0.37668477E+00 0.85479680E+03</pdfrwt>
<pdfrwt beam="2">  1       -1 0.34664361E-01 0.85479680E+03</pdfrwt>
<totfact> 0.12018617E+01</totfact>
</mgrwt>
</event>
<event>
 4    5  0.7214169E-008  0.9274904E+03  0.7818608E-02  0.9483268E-01
          1   -1    0    0  501    0  0.00000000000E+00  0.00000000000E+00  0.10058541087E+04  0.10058541088E+04  0.50400000000E-02 0. -1.
         -1   -1    0    0    0  501 -0.00000000000E+00 -0.00000000000E+00 -0.93117444885E+03  0.93117444887E+03  0.50400000000E-02 0.  1.
    8880023    1    1    2    0    0  0.39617831412E+03  0.51910600636E+03 -0.50011597855E+03  0.10537336004E+04  0.65864270000E+03 0.  0.
    8880022    1    1    2    0    0 -0.39617831412E+03 -0.51910600636E+03  0.57479563845E+03  0.88329495720E+03  0.15294330000E+03 0.  0.
<mgrwt>
<rscale>  0 0.85528710E+03</rscale>
<asrwt>0</asrwt>
<pdfrwt beam="1">  1        1 0.15474679E+00 0.92749044E+03</pdfrwt>
<pdfrwt beam="2">  1       -1 0.14325761E+00 0.92749044E+03</pdfrwt>
<totfact> 0.59720399E+00</totfact>
</mgrwt>
</event>
<event>
 4    5  0.7214169E-008  0.1126832E+04  0.7818608E-02  0.9231754E-01
         -1   -1    0    0    0  501 -0.00000000000E+00  0.00000000000E+00  0.16074699423E+04  0.16074699424E+04  0.50400000000E-02 0.  1.
          1   -1    0    0  501    0  0.00000000000E+00 -0.00000000000E+00 -0.13008714869E+04  0.13008714869E+04  0.50400000000E-02 0. -1.
    8880023    1    1    2    0    0 -0.70310892657E+03 -0.58444757227E+03  0.11821917121E+04  0.16331958174E+04  0.65864270000E+03 0.  1.
    8880022    1    1    2    0    0  0.70310892657E+03  0.58444757227E+03 -0.87559325671E+03  0.12751456119E+04  0.15294330000E+03 0.  0.
<mgrwt>
<rscale>  0 0.10731605E+04</rscale>
<asrwt>0</asrwt>
<pdfrwt beam="1">  1        1 0.20013408E+00 0.11268324E+04</pdfrwt>
<pdfrwt beam="2">  1       -1 0.24730307E+00 0.11268324E+04</pdfrwt>
<totfact> 0.64973652E-01</totfact>
</mgrwt>
</event>
<event>
 4    5  0.7214169E-008  0.1001224E+04  0.7818608E-02  0.9379959E-01
          1   -1    0    0  501    0  0.00000000000E+00  0.00000000000E+00  0.45570275532E+03  0.45570275535E+03  0.50400000000E-02 0. -1.
         -1   -1    0    0    0  501 -0.00000000000E+00 -0.00000000000E+00 -0.23120012126E+04  0.23120012126E+04  0.50400000000E-02 0.  1.
    8880023    1    1    2    0    0 -0.18134775082E+03  0.73195039960E+03 -0.17143175374E+04  0.19852791289E+04  0.65864270000E+03 0.  1.
    8880022    1    1    2    0    0  0.18134775082E+03 -0.73195039960E+03 -0.14198091988E+03  0.78242483909E+03  0.15294330000E+03 0.  0.
<mgrwt>
<rscale>  0 0.93743521E+03</rscale>
<asrwt>0</asrwt>
<pdfrwt beam="1">  1        1 0.70108118E-01 0.10012236E+04</pdfrwt>
<pdfrwt beam="2">  1       -1 0.35569249E+00 0.10012236E+04</pdfrwt>
<totfact> 0.73232602E-01</totfact>
</mgrwt>
</event>
<event>
 4    5  0.7214169E-008  0.1195481E+04  0.7818608E-02  0.9161528E-01
         -1   -1    0    0    0  501 -0.00000000000E+00  0.00000000000E+00  0.44828175160E+03  0.44828175163E+03  0.50400000000E-02 0.  1.
          1   -1    0    0  501    0  0.00000000000E+00 -0.00000000000E+00 -0.28276282938E+04  0.28276282938E+04  0.50400000000E-02 0. -1.
    8880023    1    1    2    0    0  0.22170004183E+03 -0.97273527903E+03 -0.16174516964E+04  0.20112993383E+04  0.65864270000E+03 0. -1.
    8880022    1    1    2    0    0 -0.22170004183E+03  0.97273527903E+03 -0.76189484580E+03  0.12646107072E+04  0.15294330000E+03 0.  0.
<mgrwt>
<rscale>  0 0.11459504E+04</rscale>
<asrwt>0</asrwt>
<pdfrwt beam="1">  1        1 0.43501973E+00 0.11954811E+04</pdfrwt>
<pdfrwt beam="2">  1       -1 0.68966425E-01 0.11954811E+04</pdfrwt>
<totfact> 0.16894271E+00</totfact>
</mgrwt>
</event>
<event>
 4    5  0.7214169E-008  0.6786475E+03  0.7818608E-02  0.1010099E+00
          1   -1    0    0  501    0  0.00000000000E+00  0.00000000000E+00  0.97361702150E+03  0.97361702152E+03  0.50400000000E-02 0. -1.
         -1   -1    0    0    0  501 -0.00000000000E+00 -0.00000000000E+00 -0.86279700439E+03  0.86279700440E+03  0.50400000000E-02 0.  1.
    8880023    1    1    2    0    0 -0.15713099178E+03  0.45410292756E+02 -0.71202867161E+03  0.98363981148E+03  0.65864270000E+03 0.  1.
    8880022    1    1    2    0    0  0.15713099178E+03 -0.45410292756E+02  0.82284868873E+03  0.85277421444E+03  0.15294330000E+03 0.  0.
<mgrwt>
<rscale>  0 0.51435203E+03</rscale>
<asrwt>0</asrwt>
<pdfrwt beam="1">  1        1 0.14978723E+00 0.67864751E+03</pdfrwt>
<pdfrwt beam="2">  1       -1 0.13273800E+00 0.67864751E+03</pdfrwt>
<totfact> 0.79769022E+00</totfact>
</mgrwt>
</event>
<event>
 4    5  0.7214169E-008  0.8963382E+03  0.7818608E-02  0.9531936E-01
          1   -1    0    0  501    0  0.00000000000E+00  0.00000000000E+00  0.53576556332E+03  0.53576556335E+03  0.50400000000E-02 0. -1.
         -1   -1    0    0    0  501 -0.00000000000E+00 -0.00000000000E+00 -0.28274823093E+04  0.28274823093E+04  0.50400000000E-02 0.  1.
    8880023    1    1    2    0    0 -0.11869729755E+03 -0.59625747705E+03  0.89590430725E+02  0.90080446209E+03  0.65864270000E+03 0.  0.
    8880022    1    1    2    0    0  0.11869729755E+03  0.59625747705E+03 -0.23813071767E+04  0.24624434106E+04  0.15294330000E+03 0.  0.
<mgrwt>
<rscale>  0 0.81969733E+03</rscale>
<asrwt>0</asrwt>
<pdfrwt beam="1">  1        1 0.82425473E-01 0.89633824E+03</pdfrwt>
<pdfrwt beam="2">  1       -1 0.43499727E+00 0.89633824E+03</pdfrwt>
<totfact> 0.17292937E-01</totfact>
</mgrwt>
</event>
<event>
 4    5  0.7214169E-008  0.1122450E+04  0.7818608E-02  0.9236463E-01
          1   -1    0    0  501    0  0.00000000000E+00  0.00000000000E+00  0.83753422551E+03  0.83753422552E+03  0.50400000000E-02 0. -1.
         -1   -1    0    0    0  501 -0.00000000000E+00 -0.00000000000E+00 -0.16556888677E+04  0.16556888677E+04  0.50400000000E-02 0.  1.
    8880023    1    1    2    0    0 -0.67038430415E+02  0.90641622397E+03 -0.10562617727E+04  0.15412928537E+04  0.65864270000E+03 0.  0.
    8880022    1    1    2    0    0  0.67038430415E+02 -0.90641622397E+03  0.23810713052E+03  0.95193023949E+03  0.15294330000E+03 0.  0.
<mgrwt>
<rscale>  0 0.10684870E+04</rscale>
<asrwt>0</asrwt>
<pdfrwt beam="1">  1        1 0.12885142E+00 0.11224503E+04</pdfrwt>
<pdfrwt beam="2">  1       -1 0.25472136E+00 0.11224503E+04</pdfrwt>
<totfact> 0.13230024E+00</totfact>
</mgrwt>
</event>
<event>
 4    5  0.7214169E-008  0.9074326E+03  0.7818608E-02  0.9514204E-01
          1   -1    0    0  501    0  0.00000000000E+00  0.00000000000E+00  0.13629830819E+04  0.13629830819E+04  0.50400000000E-02 0. -1.
         -1   -1    0    0    0  501 -0.00000000000E+00 -0.00000000000E+00 -0.58921434247E+03  0.58921434249E+03  0.50400000000E-02 0.  1.
    8880023    1    1    2    0    0  0.61629932969E+03  0.98988864773E+02  0.92094947735E+03  0.12928966723E+04  0.65864270000E+03 0. -1.
    8880022    1    1    2    0    0 -0.61629932969E+03 -0.98988864773E+02 -0.14718073790E+03  0.65930075212E+03  0.15294330000E+03 0.  0.
<mgrwt>
<rscale>  0 0.83244690E+03</rscale>
<asrwt>0</asrwt>
<pdfrwt beam="1">  1        1 0.20968970E+00 0.90743257E+03</pdfrwt>
<pdfrwt beam="2">  1       -1 0.90648361E-01 0.90743257E+03</pdfrwt>
<totfact> 0.98481261E+00</totfact>
</mgrwt>
</event>
<event>
 4    5  0.7214169E-008  0.1202443E+04  0.7818608E-02  0.9154752E-01
         -1   -1    0    0    0  501 -0.00000000000E+00  0.00000000000E+00  0.97924871792E+03  0.97924871794E+03  0.50400000000E-02 0.  1.
          1   -1    0    0  501    0  0.00000000000E+00 -0.00000000000E+00 -0.25921995063E+04  0.25921995063E+04  0.50400000000E-02 0. -1.
    8880023    1    1    2    0    0  0.75689779014E+03 -0.66269452630E+03  0.43978269560E+03  0.12803426594E+04  0.65864270000E+03 0.  0.
    8880022    1    1    2    0    0 -0.75689779014E+03  0.66269452630E+03 -0.20527334840E+04  0.22911055648E+04  0.15294330000E+03 0.  0.
<mgrwt>
<rscale>  0 0.11532924E+04</rscale>
<asrwt>0</asrwt>
<pdfrwt beam="1">  1        1 0.39879992E+00 0.12024427E+04</pdfrwt>
<pdfrwt beam="2">  1       -1 0.15065365E+00 0.12024427E+04</pdfrwt>
<totfact> 0.39783852E-01</totfact>
</mgrwt>
</event>
<event>
 4    5  0.7214169E-008  0.1513682E+04  0.7818608E-02  0.8900034E-01
         -1   -1    0    0    0  501 -0.00000000000E+00  0.00000000000E+00  0.12303443405E+04  0.12303443405E+04  0.50400000000E-02 0.  1.
          1   -1    0    0  501    0  0.00000000000E+00 -0.00000000000E+00 -0.25646623630E+04  0.25646623630E+04  0.50400000000E-02 0. -1.
    8880023    1    1    2    0    0 -0.10771955275E+04 -0.83490936047E+03  0.41751399983E+03  0.15702076267E+04  0.65864270000E+03 0.  0.
    8880022    1    1    2    0    0  0.10771955275E+04  0.83490936047E+03 -0.17518320224E+04  0.22247990768E+04  0.15294330000E+03 0.  0.
<mgrwt>
<rscale>  0 0.14767920E+04</rscale>
<asrwt>0</asrwt>
<pdfrwt beam="1">  1        1 0.39456344E+00 0.15136823E+04</pdfrwt>
<pdfrwt beam="2">  1       -1 0.18928375E+00 0.15136823E+04</pdfrwt>
<totfact> 0.20628436E-01</totfact>
</mgrwt>
</event>
<event>
 4    5  0.7214169E-008  0.1024924E+04  0.7818608E-02  0.9349652E-01
          1   -1    0    0  501    0  0.00000000000E+00  0.00000000000E+00  0.26836187256E+04  0.26836187256E+04  0.50400000000E-02 0. -1.
         -1   -1    0    0    0  501 -0.00000000000E+00 -0.00000000000E+00 -0.49048425720E+03  0.49048425722E+03  0.50400000000E-02 0.  1.
    8880023    1    1    2    0    0  0.31075763599E+03 -0.72117225748E+03  0.22465217712E+03  0.10492561843E+04  0.65864270000E+03 0.  1.
    8880022    1    1    2    0    0 -0.31075763599E+03  0.72117225748E+03  0.19684822913E+04  0.21248467986E+04  0.15294330000E+03 0.  0.
<mgrwt>
<rscale>  0 0.96337576E+03</rscale>
<asrwt>0</asrwt>
<pdfrwt beam="1">  1        1 0.41286442E+00 0.10249244E+04</pdfrwt>
<pdfrwt beam="2">  1       -1 0.75459117E-01 0.10249244E+04</pdfrwt>
<totfact> 0.18114739E+00</totfact>
</mgrwt>
</event>
<event>
 4    5  0.7214169E-008  0.1380079E+04  0.7818608E-02  0.8999318E-01
         -1   -1    0    0    0  501 -0.00000000000E+00  0.00000000000E+00  0.90008958756E+03  0.90008958757E+03  0.50400000000E-02 0.  1.
          1   -1    0    0  501    0  0.00000000000E+00 -0.00000000000E+00 -0.23850009134E+04  0.23850009134E+04  0.50400000000E-02 0. -1.
    8880023    1    1    2    0    0  0.62966573868E+03 -0.10364989653E+04 -0.24066692742E+02  0.13802892666E+04  0.65864270000E+03 0.  0.
    8880022    1    1    2    0    0 -0.62966573868E+03  0.10364989653E+04 -0.14608446331E+04  0.19048012344E+04  0.15294330000E+03 0.  0.
<mgrwt>
<rscale>  0 0.13388415E+04</rscale>
<asrwt>0</asrwt>
<pdfrwt beam="1">  1        1 0.36692321E+00 0.13800794E+04</pdfrwt>
<pdfrwt beam="2">  1       -1 0.13847532E+00 0.13800794E+04</pdfrwt>
<totfact> 0.67656250E-01</totfact>
</mgrwt>
</event>
<event>
 4    5  0.7214169E-008  0.9304719E+03  0.7818608E-02  0.9478786E-01
         -1   -1    0    0    0  501 -0.00000000000E+00  0.00000000000E+00  0.22241491063E+04  0.22241491063E+04  0.50400000000E-02 0.  1.
          1   -1    0    0  501    0  0.00000000000E+00 -0.00000000000E+00 -0.75247860841E+03  0.75247860842E+03  0.50400000000E-02 0. -1.
    8880023    1    1    2    0    0 -0.42832848396E+03  0.49850018416E+03  0.19424661488E+04  0.21538228036E+04  0.65864270000E+03 0.  0.
    8880022    1    1    2    0    0  0.42832848396E+03 -0.49850018416E+03 -0.47079565094E+03  0.82280491110E+03  0.15294330000E+03 0.  0.
<mgrwt>
<rscale>  0 0.85866098E+03</rscale>
<asrwt>0</asrwt>
<pdfrwt beam="1">  1        1 0.11576594E+00 0.93047189E+03</pdfrwt>
<pdfrwt beam="2">  1       -1 0.34217679E+00 0.93047189E+03</pdfrwt>
<totfact> 0.43980512E-01</totfact>
</mgrwt>
</event>
<event>
 4    5  0.7214169E-008  0.1165945E+04  0.7818608E-02  0.9190959E-01
          1   -1    0    0  501    0  0.00000000000E+00  0.00000000000E+00  0.31808127554E+04  0.31808127554E+04  0.50400000000E-02 0. -1.
         -1   -1    0    0    0  501 -0.00000000000E+00 -0.00000000000E+00 -0.76508011319E+03  0.76508011321E+03  0.50400000000E-02 0.  1.
    8880023    1    1    2    0    0 -0.16888300440E+03  0.94715122875E+03 -0.17412763868E+03  0.11788755490E+04  0.65864270000E+03 0.  0.
    8880022    1    1    2    0    0  0.16888300440E+03 -0.94715122875E+03  0.25898602809E+04  0.27670173196E+04  0.15294330000E+03 0.  0.
<mgrwt>
<rscale>  0 0.11147237E+04</rscale>
<asrwt>0</asrwt>
<pdfrwt beam="1">  1        1 0.48935581E+00 0.11659447E+04</pdfrwt>
<pdfrwt beam="2">  1       -1 0.11770463E+00 0.11659447E+04</pdfrwt>
<totfact> 0.28593117E-01</totfact>
</mgrwt>
</event>
<event>
 4    5  0.7214169E-008  0.1173682E+04  0.7818608E-02  0.9183139E-01
         -1   -1    0    0    0  501 -0.00000000000E+00  0.00000000000E+00  0.20340445833E+04  0.20340445833E+04  0.50400000000E-02 0.  1.
          1   -1    0    0  501    0  0.00000000000E+00 -0.00000000000E+00 -0.12600685522E+04  0.12600685522E+04  0.50400000000E-02 0. -1.
    8880023    1    1    2    0    0 -0.96921579709E+03  0.65880723114E+02  0.16175204304E+04  0.19984749385E+04  0.65864270000E+03 0.  1.
    8880022    1    1    2    0    0  0.96921579709E+03 -0.65880723114E+02 -0.84354439919E+03  0.12956381970E+04  0.15294330000E+03 0.  0.
<mgrwt>
<rscale>  0 0.11229164E+04</rscale>
<asrwt>0</asrwt>
<pdfrwt beam="1">  1        1 0.19385670E+00 0.11736821E+04</pdfrwt>
<pdfrwt beam="2">  1       -1 0.31292993E+00 0.11736821E+04</pdfrwt>
<totfact> 0.26010279E-01</totfact>
</mgrwt>
</event>
<event>
 4    5  0.7214169E-008  0.1054217E+04  0.7818608E-02  0.9313829E-01
          1   -1    0    0  501    0  0.00000000000E+00  0.00000000000E+00  0.12578929644E+04  0.12578929644E+04  0.50400000000E-02 0. -1.
         -1   -1    0    0    0  501 -0.00000000000E+00 -0.00000000000E+00 -0.12179926672E+04  0.12179926672E+04  0.50400000000E-02 0.  1.
    8880023    1    1    2    0    0 -0.66030177393E+03 -0.49149247419E+03 -0.77431167697E+03  0.13080260182E+04  0.65864270000E+03 0.  1.
    8880022    1    1    2    0    0  0.66030177393E+03  0.49149247419E+03  0.81421197414E+03  0.11678596134E+04  0.15294330000E+03 0.  0.
<mgrwt>
<rscale>  0 0.99519635E+03</rscale>
<asrwt>0</asrwt>
<pdfrwt beam="1">  1        1 0.19352199E+00 0.10542170E+04</pdfrwt>
<pdfrwt beam="2">  1       -1 0.18738349E+00 0.10542170E+04</pdfrwt>
<totfact> 0.17835678E+00</totfact>
</mgrwt>
</event>
<event>
 4    5  0.7214169E-008  0.1023038E+04  0.7818608E-02  0.9352019E-01
          1   -1    0    0  501    0  0.00000000000E+00  0.00000000000E+00  0.20880371397E+04  0.20880371397E+04  0.50400000000E-02 0. -1.
         -1   -1    0    0    0  501 -0.00000000000E+00 -0.00000000000E+00 -0.65318962600E+03  0.65318962602E+03  0.50400000000E-02 0.  1.
    8880023    1    1    2    0    0  0.69957448933E+03  0.35127108238E+03 -0.83176691332E+02  0.10264133708E+04  0.65864270000E+03 0.  0.
    8880022    1    1    2    0    0 -0.69957448933E+03 -0.35127108238E+03  0.15180242050E+04  0.17148133949E+04  0.15294330000E+03 0.  0.
<mgrwt>
<rscale>  0 0.96131752E+03</rscale>
<asrwt>0</asrwt>
<pdfrwt beam="1">  1        1 0.32123648E+00 0.10230377E+04</pdfrwt>
<pdfrwt beam="2">  1       -1 0.10049071E+00 0.10230377E+04</pdfrwt>
<totfact> 0.24693904E+00</totfact>
</mgrwt>
</event>
<event>
 4    5  0.7214169E-008  0.8584337E+03  0.7818608E-02  0.9596356E-01
          1   -1    0    0  501    0  0.00000000000E+00  0.00000000000E+00  0.74983804159E+03  0.74983804161E+03  0.50400000000E-02 0. -1.
         -1   -1    0    0    0  501 -0.00000000000E+00 -0.00000000000E+00 -0.97217534987E+03  0.97217534989E+03  0.50400000000E-02 0.  1.
    8880023    1    1    2    0    0 -0.37370885605E+03  0.40427703097E+03 -0.59082666040E+03  0.10421058371E+04  0.65864270000E+03 0.  1.
    8880022    1    1    2    0    0  0.37370885605E+03 -0.40427703097E+03  0.36848935212E+03  0.67990755437E+03  0.15294330000E+03 0.  0.
<mgrwt>
<rscale>  0 0.77537856E+03</rscale>
<asrwt>0</asrwt>
<pdfrwt beam="1">  1        1 0.11535970E+00 0.85843371E+03</pdfrwt>
<pdfrwt beam="2">  1       -1 0.14956544E+00 0.85843371E+03</pdfrwt>
<totfact> 0.87682953E+00</totfact>
</mgrwt>
</event>
<event>
 4    5  0.7214169E-008  0.8556571E+03  0.7818608E-02  0.9601336E-01
          1   -1    0    0  501    0  0.00000000000E+00  0.00000000000E+00  0.16454003393E+04  0.16454003393E+04  0.50400000000E-02 0. -1.
         -1   -1    0    0    0  501 -0.00000000000E+00 -0.00000000000E+00 -0.11863777136E+04  0.11863777137E+04  0.50400000000E-02 0.  1.
    8880023    1    1    2    0    0  0.40753179350E+03 -0.36367111480E+03 -0.97049829050E+03  0.12938376948E+04  0.65864270000E+03 0.  0.
    8880022    1    1    2    0    0 -0.40753179350E+03  0.36367111480E+03  0.14295209162E+04  0.15379403582E+04  0.15294330000E+03 0.  0.
<mgrwt>
<rscale>  0 0.77207829E+03</rscale>
<asrwt>0</asrwt>
<pdfrwt beam="1">  1        1 0.25313851E+00 0.85565709E+03</pdfrwt>
<pdfrwt beam="2">  1       -1 0.18251965E+00 0.85565709E+03</pdfrwt>
<totfact> 0.10701873E+00</totfact>
</mgrwt>
</event>
<event>
 4    5  0.7214169E-008  0.1081828E+04  0.7818608E-02  0.9281563E-01
          1   -1    0    0  501    0  0.00000000000E+00  0.00000000000E+00  0.94537835839E+03  0.94537835841E+03  0.50400000000E-02 0. -1.
         -1   -1    0    0    0  501 -0.00000000000E+00 -0.00000000000E+00 -0.10563058734E+04  0.10563058734E+04  0.50400000000E-02 0.  1.
    8880023    1    1    2    0    0  0.64821534878E+03  0.56245822909E+03 -0.27126566851E+03  0.11153195358E+04  0.65864270000E+03 0.  0.
    8880022    1    1    2    0    0 -0.64821534878E+03 -0.56245822909E+03  0.16033815347E+03  0.88636469601E+03  0.15294330000E+03 0.  0.
<mgrwt>
<rscale>  0 0.10249809E+04</rscale>
<asrwt>0</asrwt>
<pdfrwt beam="1">  1        1 0.14544282E+00 0.10818284E+04</pdfrwt>
<pdfrwt beam="2">  1       -1 0.16250860E+00 0.10818284E+04</pdfrwt>
<totfact> 0.46474235E+00</totfact>
</mgrwt>
</event>
<event>
 4    5  0.7214169E-008  0.1104806E+04  0.7818608E-02  0.9255724E-01
          1   -1    0    0  501    0  0.00000000000E+00  0.00000000000E+00  0.30249381388E+04  0.30249381388E+04  0.50400000000E-02 0. -1.
         -1   -1    0    0    0  501 -0.00000000000E+00 -0.00000000000E+00 -0.54313938500E+03  0.54313938502E+03  0.50400000000E-02 0.  1.
    8880023    1    1    2    0    0 -0.71995816506E+03 -0.51811858468E+03  0.24266231571E+04  0.26662889528E+04  0.65864270000E+03 0.  0.
    8880022    1    1    2    0    0  0.71995816506E+03  0.51811858468E+03  0.55175596684E+02  0.90178857096E+03  0.15294330000E+03 0.  0.
<mgrwt>
<rscale>  0 0.10496322E+04</rscale>
<asrwt>0</asrwt>
<pdfrwt beam="1">  1        1 0.46537510E+00 0.11048062E+04</pdfrwt>
<pdfrwt beam="2">  1       -1 0.83559905E-01 0.11048062E+04</pdfrwt>
<totfact> 0.82384536E-01</totfact>
</mgrwt>
</event>
<event>
 4    5  0.7214169E-008  0.8184444E+03  0.7818608E-02  0.9672249E-01
         -1   -1    0    0    0  501 -0.00000000000E+00  0.00000000000E+00  0.20287309824E+04  0.20287309824E+04  0.50400000000E-02 0.  1.
          1   -1    0    0  501    0  0.00000000000E+00 -0.00000000000E+00 -0.12154844468E+04  0.12154844468E+04  0.50400000000E-02 0. -1.
    8880023    1    1    2    0    0 -0.36121261369E+02  0.48449597270E+03  0.18864138057E+04  0.20563093993E+04  0.65864270000E+03 0.  1.
    8880022    1    1    2    0    0  0.36121261369E+02 -0.48449597270E+03 -0.10731672702E+04  0.11879060299E+04  0.15294330000E+03 0.  0.
<mgrwt>
<rscale>  0 0.72693403E+03</rscale>
<asrwt>0</asrwt>
<pdfrwt beam="1">  1        1 0.18699761E+00 0.81844444E+03</pdfrwt>
<pdfrwt beam="2">  1       -1 0.31211245E+00 0.81844444E+03</pdfrwt>
<totfact> 0.30196099E-01</totfact>
</mgrwt>
</event>
<event>
 4    5  0.7214169E-008  0.1150966E+04  0.7818608E-02  0.9206326E-01
         -1   -1    0    0    0  501 -0.00000000000E+00  0.00000000000E+00  0.83483655534E+03  0.83483655535E+03  0.50400000000E-02 0.  1.
          1   -1    0    0  501    0  0.00000000000E+00 -0.00000000000E+00 -0.20513604740E+04  0.20513604740E+04  0.50400000000E-02 0. -1.
    8880023    1    1    2    0    0  0.76662627034E+03 -0.55063304997E+03  0.20889535812E+03  0.11697692384E+04  0.65864270000E+03 0.  0.
    8880022    1    1    2    0    0 -0.76662627034E+03  0.55063304997E+03 -0.14254192768E+04  0.17164277910E+04  0.15294330000E+03 0.  0.
<mgrwt>
<rscale>  0 0.10988369E+04</rscale>
<asrwt>0</asrwt>
<pdfrwt beam="1">  1        1 0.31559392E+00 0.11509660E+04</pdfrwt>
<pdfrwt beam="2">  1       -1 0.12843639E+00 0.11509660E+04</pdfrwt>
<totfact> 0.14243137E+00</totfact>
</mgrwt>
</event>
<event>
 4    5  0.7214169E-008  0.8133705E+03  0.7818608E-02  0.9682599E-01
         -1   -1    0    0    0  501 -0.00000000000E+00  0.00000000000E+00  0.60004102660E+03  0.60004102662E+03  0.50400000000E-02 0.  1.
          1   -1    0    0  501    0  0.00000000000E+00 -0.00000000000E+00 -0.17595871958E+04  0.17595871958E+04  0.50400000000E-02 0. -1.
    8880023    1    1    2    0    0  0.35606948341E+03 -0.31776691593E+03  0.26024140326E+03  0.85398892505E+03  0.65864270000E+03 0.  1.
    8880022    1    1    2    0    0 -0.35606948341E+03  0.31776691593E+03 -0.14197875725E+04  0.15056392974E+04  0.15294330000E+03 0.  0.
<mgrwt>
<rscale>  0 0.72062376E+03</rscale>
<asrwt>0</asrwt>
<pdfrwt beam="1">  1        1 0.27070572E+00 0.81337045E+03</pdfrwt>
<pdfrwt beam="2">  1       -1 0.92314005E-01 0.81337045E+03</pdfrwt>
<totfact> 0.51288628E+00</totfact>
</mgrwt>
</event>
<event>
 4    5  0.7214169E-008  0.1227478E+04  0.7818608E-02  0.9130863E-01
          1   -1    0    0  501    0  0.00000000000E+00  0.00000000000E+00  0.21284377483E+04  0.21284377483E+04  0.50400000000E-02 0. -1.
         -1   -1    0    0    0  501 -0.00000000000E+00 -0.00000000000E+00 -0.88404827827E+03  0.88404827829E+03  0.50400000000E-02 0.  1.
    8880023    1    1    2    0    0  0.29390044219E+03  0.99323480874E+03 -0.18426590045E+03  0.12412320426E+04  0.65864270000E+03 0.  1.
    8880022    1    1    2    0    0 -0.29390044219E+03 -0.99323480874E+03  0.14286553705E+04  0.17712539840E+04  0.15294330000E+03 0.  0.
<mgrwt>
<rscale>  0 0.11796435E+04</rscale>
<asrwt>0</asrwt>
<pdfrwt beam="1">  1        1 0.32745196E+00 0.12274783E+04</pdfrwt>
<pdfrwt beam="2">  1       -1 0.13600743E+00 0.12274783E+04</pdfrwt>
<totfact> 0.10805596E+00</totfact>
</mgrwt>
</event>
<event>
 4    5  0.7214169E-008  0.9640389E+03  0.7818608E-02  0.9430196E-01
          1   -1    0    0  501    0  0.00000000000E+00  0.00000000000E+00  0.97284695775E+03  0.97284695776E+03  0.50400000000E-02 0. -1.
         -1   -1    0    0    0  501 -0.00000000000E+00 -0.00000000000E+00 -0.84168997981E+03  0.84168997983E+03  0.50400000000E-02 0.  1.
    8880023    1    1    2    0    0 -0.14001109946E+03  0.68989687881E+03  0.40257460712E+03  0.10447187813E+04  0.65864270000E+03 0. -1.
    8880022    1    1    2    0    0  0.14001109946E+03 -0.68989687881E+03 -0.27141762919E+03  0.76981815633E+03  0.15294330000E+03 0.  0.
<mgrwt>
<rscale>  0 0.89631749E+03</rscale>
<asrwt>0</asrwt>
<pdfrwt beam="1">  1        1 0.14966876E+00 0.96403891E+03</pdfrwt>
<pdfrwt beam="2">  1       -1 0.12949077E+00 0.96403891E+03</pdfrwt>
<totfact> 0.81924026E+00</totfact>
</mgrwt>
</event>
<event>
 4    5  0.7214169E-008  0.6753970E+03  0.7818608E-02  0.1012057E+00
          1   -1    0    0  501    0  0.00000000000E+00  0.00000000000E+00  0.93721443140E+03  0.93721443141E+03  0.50400000000E-02 0. -1.
         -1   -1    0    0    0  501 -0.00000000000E+00 -0.00000000000E+00 -0.26331428943E+03  0.26331428948E+03  0.50400000000E-02 0.  1.
    8880023    1    1    2    0    0  0.34575367780E+02 -0.14544928012E+03  0.23998296066E+03  0.71676563591E+03  0.65864270000E+03 0.  1.
    8880022    1    1    2    0    0 -0.34575367780E+02  0.14544928012E+03  0.43391718131E+03  0.48376308498E+03  0.15294330000E+03 0.  0.
<mgrwt>
<rscale>  0 0.50665166E+03</rscale>
<asrwt>0</asrwt>
<pdfrwt beam="1">  1        1 0.14418684E+00 0.67539704E+03</pdfrwt>
<pdfrwt beam="2">  1       -1 0.40509890E-01 0.67539704E+03</pdfrwt>
<totfact> 0.10351954E+02</totfact>
</mgrwt>
</event>
<event>
 4    5  0.7214169E-008  0.1537003E+04  0.7818608E-02  0.8883939E-01
         -1   -1    0    0    0  501 -0.00000000000E+00  0.00000000000E+00  0.18614990556E+04  0.18614990556E+04  0.50400000000E-02 0.  1.
          1   -1    0    0  501    0  0.00000000000E+00 -0.00000000000E+00 -0.21355549433E+04  0.21355549433E+04  0.50400000000E-02 0. -1.
    8880023    1    1    2    0    0  0.33901503635E+03  0.13467131241E+04 -0.14931228619E+04  0.21428470595E+04  0.65864270000E+03 0.  0.
    8880022    1    1    2    0    0 -0.33901503635E+03 -0.13467131241E+04  0.12190669743E+04  0.18542069394E+04  0.15294330000E+03 0.  0.
<mgrwt>
<rscale>  0 0.15007724E+04</rscale>
<asrwt>0</asrwt>
<pdfrwt beam="1">  1        1 0.32854692E+00 0.15370028E+04</pdfrwt>
<pdfrwt beam="2">  1       -1 0.28638447E+00 0.15370028E+04</pdfrwt>
<totfact> 0.91536957E-02</totfact>
</mgrwt>
</event>
<event>
 4    5  0.7214169E-008  0.7089681E+03  0.7818608E-02  0.9961853E-01
         -1   -1    0    0    0  501 -0.00000000000E+00  0.00000000000E+00  0.39559489947E+03  0.39559489950E+03  0.50400000000E-02 0.  1.
          1   -1    0    0  501    0  0.00000000000E+00 -0.00000000000E+00 -0.99137422827E+03  0.99137422829E+03  0.50400000000E-02 0. -1.
    8880023    1    1    2    0    0  0.26231685352E+03 -0.39225546096E+01  0.10328139453E+02  0.70904329543E+03  0.65864270000E+03 0.  1.
    8880022    1    1    2    0    0 -0.26231685352E+03  0.39225546096E+01 -0.60610746826E+03  0.67792583235E+03  0.15294330000E+03 0.  0.
<mgrwt>
<rscale>  0 0.57355026E+03</rscale>
<asrwt>0</asrwt>
<pdfrwt beam="1">  1        1 0.15251911E+00 0.70896807E+03</pdfrwt>
<pdfrwt beam="2">  1       -1 0.60860754E-01 0.70896807E+03</pdfrwt>
<totfact> 0.43312364E+01</totfact>
</mgrwt>
</event>
<event>
 4    5  0.7214169E-008  0.1317353E+04  0.7818608E-02  0.9050717E-01
         -1   -1    0    0    0  501 -0.00000000000E+00  0.00000000000E+00  0.10667748129E+04  0.10667748129E+04  0.50400000000E-02 0.  1.
          1   -1    0    0  501    0  0.00000000000E+00 -0.00000000000E+00 -0.24231373428E+04  0.24231373428E+04  0.50400000000E-02 0. -1.
    8880023    1    1    2    0    0  0.36471182180E+03 -0.10810156316E+04  0.41167774073E+03  0.13801805234E+04  0.65864270000E+03 0.  0.
    8880022    1    1    2    0    0 -0.36471182180E+03  0.10810156316E+04 -0.17680402706E+04  0.21097316323E+04  0.15294330000E+03 0.  0.
<mgrwt>
<rscale>  0 0.12736606E+04</rscale>
<asrwt>0</asrwt>
<pdfrwt beam="1">  1        1 0.37279036E+00 0.13173533E+04</pdfrwt>
<pdfrwt beam="2">  1       -1 0.16411920E+00 0.13173533E+04</pdfrwt>
<totfact> 0.40404088E-01</totfact>
</mgrwt>
</event>
<event>
 4    5  0.7214169E-008  0.1021771E+04  0.7818608E-02  0.9353613E-01
          1   -1    0    0  501    0  0.00000000000E+00  0.00000000000E+00  0.54725167055E+03  0.54725167058E+03  0.50400000000E-02 0. -1.
         -1   -1    0    0    0  501 -0.00000000000E+00 -0.00000000000E+00 -0.32948582154E+04  0.32948582154E+04  0.50400000000E-02 0.  1.
    8880023    1    1    2    0    0 -0.78093964475E+03  0.18408277157E+02 -0.28610951904E+04  0.30380720018E+04  0.65864270000E+03 0.  0.
    8880022    1    1    2    0    0  0.78093964475E+03 -0.18408277157E+02  0.11348864560E+03  0.80403788412E+03  0.15294330000E+03 0.  0.
<mgrwt>
<rscale>  0 0.95993497E+03</rscale>
<asrwt>0</asrwt>
<pdfrwt beam="1">  1        1 0.84192567E-01 0.10217709E+04</pdfrwt>
<pdfrwt beam="2">  1       -1 0.50690125E+00 0.10217709E+04</pdfrwt>
<totfact> 0.53289786E-02</totfact>
</mgrwt>
</event>
<event>
 4    5  0.7214169E-008  0.8554276E+03  0.7818608E-02  0.9601749E-01
         -1   -1    0    0    0  501 -0.00000000000E+00  0.00000000000E+00  0.10276532525E+03  0.10276532538E+03  0.50400000000E-02 0.  1.
          1   -1    0    0  501    0  0.00000000000E+00 -0.00000000000E+00 -0.54039550023E+04  0.54039550023E+04  0.50400000000E-02 0. -1.
    8880023    1    1    2    0    0  0.39687553859E+03  0.37474794133E+03 -0.23329591582E+04  0.24848450359E+04  0.65864270000E+03 0.  0.
    8880022    1    1    2    0    0 -0.39687553859E+03 -0.37474794133E+03 -0.29682305189E+04  0.30218752918E+04  0.15294330000E+03 0.  0.
<mgrwt>
<rscale>  0 0.77180518E+03</rscale>
<asrwt>0</asrwt>
<pdfrwt beam="1">  1        1 0.83137747E+00 0.85542762E+03</pdfrwt>
<pdfrwt beam="2">  1       -1 0.15810054E-01 0.85542762E+03</pdfrwt>
<totfact> 0.78352934E-02</totfact>
</mgrwt>
</event>
<event>
 4    5  0.7214169E-008  0.8599936E+03  0.7818608E-02  0.9593575E-01
          1   -1    0    0  501    0  0.00000000000E+00  0.00000000000E+00  0.15994548098E+04  0.15994548098E+04  0.50400000000E-02 0. -1.
         -1   -1    0    0    0  501 -0.00000000000E+00 -0.00000000000E+00 -0.48554952565E+03  0.48554952568E+03  0.50400000000E-02 0.  1.
    8880023    1    1    2    0    0 -0.44404314484E+03  0.32955194761E+03  0.32239355412E+02  0.86059768937E+03  0.65864270000E+03 0.  1.
    8880022    1    1    2    0    0  0.44404314484E+03 -0.32955194761E+03  0.10816659287E+04  0.12244066461E+04  0.15294330000E+03 0.  0.
<mgrwt>
<rscale>  0 0.77722905E+03</rscale>
<asrwt>0</asrwt>
<pdfrwt beam="1">  1        1 0.24606997E+00 0.85999361E+03</pdfrwt>
<pdfrwt beam="2">  1       -1 0.74699927E-01 0.85999361E+03</pdfrwt>
<totfact> 0.10308851E+01</totfact>
</mgrwt>
</event>
<event>
 4    5  0.7214169E-008  0.7663686E+03  0.7818608E-02  0.9788890E-01
          1   -1    0    0  501    0  0.00000000000E+00  0.00000000000E+00  0.11981343500E+04  0.11981343500E+04  0.50400000000E-02 0. -1.
         -1   -1    0    0    0  501 -0.00000000000E+00 -0.00000000000E+00 -0.43245202667E+03  0.43245202670E+03  0.50400000000E-02 0.  1.
    8880023    1    1    2    0    0 -0.28558908474E+03 -0.26823413535E+03  0.10805968009E+02  0.76644481334E+03  0.65864270000E+03 0.  1.
    8880022    1    1    2    0    0  0.28558908474E+03  0.26823413535E+03  0.75487635532E+03  0.86414156336E+03  0.15294330000E+03 0.  0.
<mgrwt>
<rscale>  0 0.65962178E+03</rscale>
<asrwt>0</asrwt>
<pdfrwt beam="1">  1        1 0.18432836E+00 0.76636863E+03</pdfrwt>
<pdfrwt beam="2">  1       -1 0.66531083E-01 0.76636863E+03</pdfrwt>
<totfact> 0.25221380E+01</totfact>
</mgrwt>
</event>
<event>
 4    5  0.7214169E-008  0.2087665E+04  0.7818608E-02  0.8578163E-01
         -1   -1    0    0    0  501 -0.00000000000E+00  0.00000000000E+00  0.30765316054E+04  0.30765316054E+04  0.50400000000E-02 0.  1.
          1   -1    0    0  501    0  0.00000000000E+00 -0.00000000000E+00 -0.15688467874E+04  0.15688467874E+04  0.50400000000E-02 0. -1.
    8880023    1    1    2    0    0 -0.18516553292E+04  0.70420668105E+03  0.16388918040E+04  0.26541121038E+04  0.65864270000E+03 0.  0.
    8880022    1    1    2    0    0  0.18516553292E+04 -0.70420668105E+03 -0.13120698593E+03  0.19912662891E+04  0.15294330000E+03 0.  0.
<mgrwt>
<rscale>  0 0.20620145E+04</rscale>
<asrwt>0</asrwt>
<pdfrwt beam="1">  1        1 0.24136105E+00 0.20876649E+04</pdfrwt>
<pdfrwt beam="2">  1       -1 0.47331255E+00 0.20876649E+04</pdfrwt>
<totfact> 0.11557510E-02</totfact>
</mgrwt>
</event>
<event>
 4    5  0.7214169E-008  0.8724669E+03  0.7818608E-02  0.9571761E-01
         -1   -1    0    0    0  501 -0.00000000000E+00  0.00000000000E+00  0.50764560883E+03  0.50764560886E+03  0.50400000000E-02 0.  1.
          1   -1    0    0  501    0  0.00000000000E+00 -0.00000000000E+00 -0.12574050808E+04  0.12574050808E+04  0.50400000000E-02 0. -1.
    8880023    1    1    2    0    0 -0.55817192284E+03  0.12582700934E+03 -0.87897614965E+02  0.87688341797E+03  0.65864270000E+03 0.  1.
    8880022    1    1    2    0    0  0.55817192284E+03 -0.12582700934E+03 -0.66186185696E+03  0.88816727165E+03  0.15294330000E+03 0.  0.
<mgrwt>
<rscale>  0 0.79193781E+03</rscale>
<asrwt>0</asrwt>
<pdfrwt beam="1">  1        1 0.19344693E+00 0.87246693E+03</pdfrwt>
<pdfrwt beam="2">  1       -1 0.78099325E-01 0.87246693E+03</pdfrwt>
<totfact> 0.16214103E+01</totfact>
</mgrwt>
</event>
<event>
 4    5  0.7214169E-008  0.6835482E+03  0.7818608E-02  0.1007384E+00
          1   -1    0    0  501    0  0.00000000000E+00  0.00000000000E+00  0.23630826782E+04  0.23630826782E+04  0.50400000000E-02 0. -1.
         -1   -1    0    0    0  501 -0.00000000000E+00 -0.00000000000E+00 -0.14523944272E+03  0.14523944281E+03  0.50400000000E-02 0.  1.
    8880023    1    1    2    0    0 -0.12842768635E+02 -0.18238157684E+03  0.72445086781E+03  0.99602572377E+03  0.65864270000E+03 0.  1.
    8880022    1    1    2    0    0  0.12842768635E+02  0.18238157684E+03  0.14933923677E+04  0.15122963973E+04  0.15294330000E+03 0.  0.
<mgrwt>
<rscale>  0 0.52527795E+03</rscale>
<asrwt>0</asrwt>
<pdfrwt beam="1">  1        1 0.36355117E+00 0.68354823E+03</pdfrwt>
<pdfrwt beam="2">  1       -1 0.22344530E-01 0.68354823E+03</pdfrwt>
<totfact> 0.30076647E+01</totfact>
</mgrwt>
</event>
<event>
 4    5  0.7214169E-008  0.1017196E+04  0.7818608E-02  0.9359397E-01
         -1   -1    0    0    0  501 -0.00000000000E+00  0.00000000000E+00  0.31594133908E+03  0.31594133912E+03  0.50400000000E-02 0.  1.
          1   -1    0    0  501    0  0.00000000000E+00 -0.00000000000E+00 -0.26237271124E+04  0.26237271124E+04  0.50400000000E-02 0. -1.
    8880023    1    1    2    0    0 -0.46344037583E+03 -0.62137040473E+03 -0.11186613818E+04  0.15119826901E+04  0.65864270000E+03 0.  1.
    8880022    1    1    2    0    0  0.46344037583E+03  0.62137040473E+03 -0.11891243915E+04  0.14276857614E+04  0.15294330000E+03 0.  0.
<mgrwt>
<rscale>  0 0.95493790E+03</rscale>
<asrwt>0</asrwt>
<pdfrwt beam="1">  1        1 0.40365031E+00 0.10171963E+04</pdfrwt>
<pdfrwt beam="2">  1       -1 0.48606362E-01 0.10171963E+04</pdfrwt>
<totfact> 0.47890217E+00</totfact>
</mgrwt>
</event>
<event>
 4    5  0.7214169E-008  0.6925999E+03  0.7818608E-02  0.1002941E+00
          1   -1    0    0  501    0  0.00000000000E+00  0.00000000000E+00  0.19530467854E+04  0.19530467854E+04  0.50400000000E-02 0. -1.
         -1   -1    0    0    0  501 -0.00000000000E+00 -0.00000000000E+00 -0.30194300464E+03  0.30194300469E+03  0.50400000000E-02 0.  1.
    8880023    1    1    2    0    0  0.16771287126E+03 -0.13325448525E+03  0.12183246399E+03  0.70323375955E+03  0.65864270000E+03 0.  1.
    8880022    1    1    2    0    0 -0.16771287126E+03  0.13325448525E+03  0.15292713168E+04  0.15517560305E+04  0.15294330000E+03 0.  0.
<mgrwt>
<rscale>  0 0.54379432E+03</rscale>
<asrwt>0</asrwt>
<pdfrwt beam="1">  1        1 0.30046874E+00 0.69259986E+03</pdfrwt>
<pdfrwt beam="2">  1       -1 0.46452770E-01 0.69259986E+03</pdfrwt>
<totfact> 0.15556981E+01</totfact>
</mgrwt>
</event>
<event>
 4    5  0.7214169E-008  0.7382064E+03  0.7818608E-02  0.9865203E-01
          1   -1    0    0  501    0  0.00000000000E+00  0.00000000000E+00  0.40889416611E+03  0.40889416615E+03  0.50400000000E-02 0. -1.
         -1   -1    0    0    0  501 -0.00000000000E+00 -0.00000000000E+00 -0.13347322813E+04  0.13347322813E+04  0.50400000000E-02 0.  1.
    8880023    1    1    2    0    0 -0.30115839274E+03 -0.14297592990E+03 -0.11101132417E+04  0.13331541958E+04  0.65864270000E+03 0.  1.
    8880022    1    1    2    0    0  0.30115839274E+03  0.14297592990E+03  0.18427512659E+03  0.41047225161E+03  0.15294330000E+03 0.  0.
<mgrwt>
<rscale>  0 0.61977751E+03</rscale>
<asrwt>0</asrwt>
<pdfrwt beam="1">  1        1 0.62906795E-01 0.73820641E+03</pdfrwt>
<pdfrwt beam="2">  1       -1 0.20534343E+00 0.73820641E+03</pdfrwt>
<totfact> 0.83350488E+00</totfact>
</mgrwt>
</event>
<event>
 4    5  0.7214169E-008  0.1001157E+04  0.7818608E-02  0.9380045E-01
         -1   -1    0    0    0  501 -0.00000000000E+00  0.00000000000E+00  0.71651183951E+03  0.71651183953E+03  0.50400000000E-02 0.  1.
          1   -1    0    0  501    0  0.00000000000E+00 -0.00000000000E+00 -0.17721736363E+04  0.17721736363E+04  0.50400000000E-02 0. -1.
    8880023    1    1    2    0    0 -0.23821927644E+02  0.75361693233E+03  0.19534898277E+03  0.10200379386E+04  0.65864270000E+03 0.  1.
    8880022    1    1    2    0    0  0.23821927644E+02 -0.75361693233E+03 -0.12510107796E+04  0.14686475372E+04  0.15294330000E+03 0.  0.
<mgrwt>
<rscale>  0 0.93736255E+03</rscale>
<asrwt>0</asrwt>
<pdfrwt beam="1">  1        1 0.27264210E+00 0.10011574E+04</pdfrwt>
<pdfrwt beam="2">  1       -1 0.11023259E+00 0.10011574E+04</pdfrwt>
<totfact> 0.32577619E+00</totfact>
</mgrwt>
</event>
<event>
 4    5  0.7214169E-008  0.1019807E+04  0.7818608E-02  0.9356091E-01
          1   -1    0    0  501    0  0.00000000000E+00  0.00000000000E+00  0.18895326309E+04  0.18895326309E+04  0.50400000000E-02 0. -1.
         -1   -1    0    0    0  501 -0.00000000000E+00 -0.00000000000E+00 -0.58566702281E+03  0.58566702283E+03  0.50400000000E-02 0.  1.
    8880023    1    1    2    0    0 -0.73122497735E+03  0.26740609153E+03  0.88351012355E+02  0.10236269305E+04  0.65864270000E+03 0.  1.
    8880022    1    1    2    0    0  0.73122497735E+03 -0.26740609153E+03  0.12155145958E+04  0.14515727232E+04  0.15294330000E+03 0.  0.
<mgrwt>
<rscale>  0 0.95779044E+03</rscale>
<asrwt>0</asrwt>
<pdfrwt beam="1">  1        1 0.29069733E+00 0.10198069E+04</pdfrwt>
<pdfrwt beam="2">  1       -1 0.90102620E-01 0.10198069E+04</pdfrwt>
<totfact> 0.42983365E+00</totfact>
</mgrwt>
</event>
<event>
 4    5  0.7214169E-008  0.1077491E+04  0.7818608E-02  0.9286540E-01
         -1   -1    0    0    0  501 -0.00000000000E+00  0.00000000000E+00  0.92874878134E+03  0.92874878135E+03  0.50400000000E-02 0.  1.
          1   -1    0    0  501    0  0.00000000000E+00 -0.00000000000E+00 -0.25541372723E+04  0.25541372724E+04  0.50400000000E-02 0. -1.
    8880023    1    1    2    0    0 -0.71070983811E+01  0.85271754408E+03  0.49989394254E+03  0.11878054895E+04  0.65864270000E+03 0.  0.
    8880022    1    1    2    0    0  0.71070983811E+01 -0.85271754408E+03 -0.21252824335E+04  0.22950805642E+04  0.15294330000E+03 0.  0.
<mgrwt>
<rscale>  0 0.10203149E+04</rscale>
<asrwt>0</asrwt>
<pdfrwt beam="1">  1        1 0.39294419E+00 0.10774915E+04</pdfrwt>
<pdfrwt beam="2">  1       -1 0.14288443E+00 0.10774915E+04</pdfrwt>
<totfact> 0.49654550E-01</totfact>
</mgrwt>
</event>
<event>
 4    5  0.7214169E-008  0.1441813E+04  0.7818608E-02  0.8951856E-01
          1   -1    0    0  501    0  0.00000000000E+00  0.00000000000E+00  0.15523750537E+04  0.15523750537E+04  0.50400000000E-02 0. -1.
         -1   -1    0    0    0  501 -0.00000000000E+00 -0.00000000000E+00 -0.16415766559E+04  0.16415766559E+04  0.50400000000E-02 0.  1.
    8880023    1    1    2    0    0  0.13528269547E+03 -0.12754268380E+04 -0.87064642110E+03  0.16842952305E+04  0.65864270000E+03 0.  0.
    8880022    1    1    2    0    0 -0.13528269547E+03  0.12754268380E+04  0.78144481891E+03  0.15096564790E+04  0.15294330000E+03 0.  0.
<mgrwt>
<rscale>  0 0.14027151E+04</rscale>
<asrwt>0</asrwt>
<pdfrwt beam="1">  1        1 0.23882693E+00 0.14418132E+04</pdfrwt>
<pdfrwt beam="2">  1       -1 0.25255026E+00 0.14418132E+04</pdfrwt>
<totfact> 0.38423609E-01</totfact>
</mgrwt>
</event>
<event>
 4    5  0.7214169E-008  0.6631263E+03  0.7818608E-02  0.1021160E+00
          1   -1    0    0  501    0  0.00000000000E+00  0.00000000000E+00  0.39796613776E+04  0.39796613776E+04  0.50400000000E-02 0. -1.
         -1   -1    0    0    0  501 -0.00000000000E+00 -0.00000000000E+00 -0.14844248175E+03  0.14844248184E+03  0.50400000000E-02 0.  1.
    8880023    1    1    2    0    0  0.52279375683E+02 -0.56508054780E+02  0.60591799562E+03  0.89826116306E+03  0.65864270000E+03 0.  1.
    8880022    1    1    2    0    0 -0.52279375683E+02  0.56508054780E+02  0.32253009002E+04  0.32298426964E+04  0.15294330000E+03 0.  0.
<mgrwt>
<rscale>  0 0.47270357E+03</rscale>
<asrwt>0</asrwt>
<pdfrwt beam="1">  1        1 0.61225568E+00 0.66312631E+03</pdfrwt>
<pdfrwt beam="2">  1       -1 0.22837302E-01 0.66312631E+03</pdfrwt>
<totfact> 0.18338683E+00</totfact>
</mgrwt>
</event>
<event>
 4    5  0.7214169E-008  0.9207719E+03  0.7818608E-02  0.9493476E-01
         -1   -1    0    0    0  501 -0.00000000000E+00  0.00000000000E+00  0.45945279681E+03  0.45945279684E+03  0.50400000000E-02 0.  1.
          1   -1    0    0  501    0  0.00000000000E+00 -0.00000000000E+00 -0.22955723702E+04  0.22955723702E+04  0.50400000000E-02 0. -1.
    8880023    1    1    2    0    0 -0.60718143684E+03  0.21293509776E+03 -0.13595491386E+03  0.93075485385E+03  0.65864270000E+03 0.  0.
    8880022    1    1    2    0    0  0.60718143684E+03 -0.21293509776E+03 -0.17001646596E+04  0.18242703132E+04  0.15294330000E+03 0.  0.
<mgrwt>
<rscale>  0 0.84766484E+03</rscale>
<asrwt>0</asrwt>
<pdfrwt beam="1">  1        1 0.35316497E+00 0.92077188E+03</pdfrwt>
<pdfrwt beam="2">  1       -1 0.70685047E-01 0.92077188E+03</pdfrwt>
<totfact> 0.38926955E+00</totfact>
</mgrwt>
</event>
