<event>
 4    1  0.4844629E-001  0.1085823E+03  0.7546771E-02  0.1263218E+00
         -2   -1    0    0    0  501 -0.00000000000E+00  0.00000000000E+00  0.15148425284E+02  0.15148425284E+02  0.00000000000E+00 0.  1.
          2   -1    0    0  501    0  0.00000000000E+00 -0.00000000000E+00 -0.12417597327E+04  0.12417597327E+04  0.00000000000E+00 0. -1.
         24    1    1    2    0    0 -0.64329042817E+02  0.34418939154E+02 -0.99724101769E+03  0.10031349622E+04  0.80419002446E+02 0. -1.
        -24    1    1    2    0    0  0.64329042817E+02 -0.34418939154E+02 -0.22937028974E+03  0.25377319577E+03  0.80419002446E+02 0.  1.
<mgrwt>
<rscale>  0 0.10858225E+03</rscale>
<asrwt>0</asrwt>
<pdfrwt beam="1">  1        2 0.19103992E+00 0.10858225E+03</pdfrwt>
<pdfrwt beam="2">  1       -2 0.23305275E-02 0.10858225E+03</pdfrwt>
<totfact> 0.11155458E+04</totfact>
</mgrwt>
</event>
<event>
 4    1  0.4844629E-001  0.8271060E+02  0.7546771E-02  0.1321530E+00
          1   -1    0    0  501    0  0.00000000000E+00  0.00000000000E+00  0.49462533234E+03  0.49462533234E+03  0.00000000000E+00 0. -1.
         -1   -1    0    0    0  501 -0.00000000000E+00 -0.00000000000E+00 -0.19078911296E+02  0.19078911296E+02  0.00000000000E+00 0.  1.
         24    1    1    2    0    0  0.19158978257E+02  0.26003224670E+01  0.10306019686E+03  0.13214555708E+03  0.80419002446E+02 0.  0.
        -24    1    1    2    0    0 -0.19158978257E+02 -0.26003224670E+01  0.37248622418E+03  0.38155868656E+03  0.80419002446E+02 0. -1.
<mgrwt>
<rscale>  0 0.82710604E+02</rscale>
<asrwt>0</asrwt>
<pdfrwt beam="1">  1        1 0.76096195E-01 0.82710604E+02</pdfrwt>
<pdfrwt beam="2">  1       -1 0.29352175E-02 0.82710604E+02</pdfrwt>
<totfact> 0.16103588E+04</totfact>
</mgrwt>
</event>
<event>
 4    1  0.4844629E-001  0.1026443E+03  0.7546771E-02  0.1274832E+00
          1   -1    0    0  501    0  0.00000000000E+00  0.00000000000E+00  0.20810415598E+03  0.20810415598E+03  0.00000000000E+00 0. -1.
         -1   -1    0    0    0  501 -0.00000000000E+00 -0.00000000000E+00 -0.63303353156E+02  0.63303353156E+02  0.00000000000E+00 0.  1.
         24    1    1    2    0    0  0.14370786469E+02 -0.62145914245E+02  0.13312468741E+03  0.16810125673E+03  0.80419002446E+02 0.  0.
        -24    1    1    2    0    0 -0.14370786469E+02  0.62145914245E+02  0.11676115413E+02  0.10330625241E+03  0.80419002446E+02 0. -1.
<mgrwt>
<rscale>  0 0.10264430E+03</rscale>
<asrwt>0</asrwt>
<pdfrwt beam="1">  1        1 0.32016024E-01 0.10264431E+03</pdfrwt>
<pdfrwt beam="2">  1       -1 0.97389775E-02 0.10264431E+03</pdfrwt>
<totfact> 0.82014055E+03</totfact>
</mgrwt>
</event>
<event>
 4    1  0.4844629E-001  0.8812218E+02  0.7546771E-02  0.1307464E+00
         -4   -1    0    0    0  501 -0.00000000000E+00  0.00000000000E+00  0.18575999155E+03  0.18575999155E+03  0.00000000000E+00 0.  1.
          4   -1    0    0  501    0  0.00000000000E+00 -0.00000000000E+00 -0.47143935363E+02  0.47143935363E+02  0.00000000000E+00 0. -1.
         24    1    1    2    0    0 -0.18891801280E+02  0.30682293996E+02  0.30115794121E+02  0.93126152773E+02  0.80419002446E+02 0.  1.
        -24    1    1    2    0    0  0.18891801280E+02 -0.30682293996E+02  0.10850026206E+03  0.13977777414E+03  0.80419002446E+02 0.  0.
<mgrwt>
<rscale>  0 0.88122184E+02</rscale>
<asrwt>0</asrwt>
<pdfrwt beam="1">  1        4 0.72529132E-02 0.88122184E+02</pdfrwt>
<pdfrwt beam="2">  1       -4 0.28578460E-01 0.88122184E+02</pdfrwt>
<totfact> 0.22340382E+03</totfact>
</mgrwt>
</event>
<event>
 4    1  0.4844629E-001  0.8263365E+02  0.7546771E-02  0.1321739E+00
          1   -1    0    0  501    0  0.00000000000E+00  0.00000000000E+00  0.24182847952E+03  0.24182847952E+03  0.00000000000E+00 0. -1.
         -1   -1    0    0    0  501 -0.00000000000E+00 -0.00000000000E+00 -0.30907374449E+02  0.30907374449E+02  0.00000000000E+00 0.  1.
         24    1    1    2    0    0 -0.16679651554E+02  0.91043631123E+01  0.14555024235E+03  0.16737141096E+03  0.80419002446E+02 0.  0.
        -24    1    1    2    0    0  0.16679651554E+02 -0.91043631123E+01  0.65370862721E+02  0.10536444301E+03  0.80419002446E+02 0.  1.
<mgrwt>
<rscale>  0 0.82633636E+02</rscale>
<asrwt>0</asrwt>
<pdfrwt beam="1">  1        1 0.37204380E-01 0.82633647E+02</pdfrwt>
<pdfrwt beam="2">  1       -1 0.47549808E-02 0.82633647E+02</pdfrwt>
<totfact> 0.19353630E+04</totfact>
</mgrwt>
</event>
<event>
 4    1  0.4844629E-001  0.9294005E+02  0.7546771E-02  0.1295884E+00
          2   -1    0    0  501    0  0.00000000000E+00  0.00000000000E+00  0.38444457307E+03  0.38444457307E+03  0.00000000000E+00 0. -1.
         -2   -1    0    0    0  501 -0.00000000000E+00 -0.00000000000E+00 -0.22723370015E+02  0.22723370015E+02  0.00000000000E+00 0.  1.
         24    1    1    2    0    0  0.39119441285E+02  0.25304270798E+02  0.20242590121E+03  0.22274222375E+03  0.80419002446E+02 0.  0.
        -24    1    1    2    0    0 -0.39119441285E+02 -0.25304270798E+02  0.15929530185E+03  0.18442571934E+03  0.80419002446E+02 0.  0.
<mgrwt>
<rscale>  0 0.92940049E+02</rscale>
<asrwt>0</asrwt>
<pdfrwt beam="1">  1        2 0.59145314E-01 0.92940049E+02</pdfrwt>
<pdfrwt beam="2">  1       -2 0.34959034E-02 0.92940049E+02</pdfrwt>
<totfact> 0.25202115E+04</totfact>
</mgrwt>
</event>
<event>
 4    1  0.4844629E-001  0.8326025E+02  0.7546771E-02  0.1320046E+00
          1   -1    0    0  501    0  0.00000000000E+00  0.00000000000E+00  0.44649656005E+03  0.44649656005E+03  0.00000000000E+00 0. -1.
         -1   -1    0    0    0  501 -0.00000000000E+00 -0.00000000000E+00 -0.38050069255E+02  0.38050069255E+02  0.00000000000E+00 0.  1.
         24    1    1    2    0    0 -0.69598359443E+01  0.20411128961E+02  0.17820603834E+02  0.85146012104E+02  0.80419002446E+02 0.  1.
        -24    1    1    2    0    0  0.69598359443E+01 -0.20411128961E+02  0.39062588696E+03  0.39940061720E+03  0.80419002446E+02 0. -1.
<mgrwt>
<rscale>  0 0.83260251E+02</rscale>
<asrwt>0</asrwt>
<pdfrwt beam="1">  1        1 0.68691775E-01 0.83260251E+02</pdfrwt>
<pdfrwt beam="2">  1       -1 0.58538571E-02 0.83260251E+02</pdfrwt>
<totfact> 0.67376410E+03</totfact>
</mgrwt>
</event>
<event>
 4    1  0.4844629E-001  0.8076767E+02  0.7546771E-02  0.1326887E+00
          1   -1    0    0  501    0  0.00000000000E+00  0.00000000000E+00  0.20297182636E+03  0.20297182636E+03  0.00000000000E+00 0. -1.
         -1   -1    0    0    0  501 -0.00000000000E+00 -0.00000000000E+00 -0.39223007028E+02  0.39223007028E+02  0.00000000000E+00 0.  1.
         24    1    1    2    0    0  0.74100924367E+01  0.11359714944E+01  0.30412230663E+02  0.86303647834E+02  0.80419002446E+02 0.  0.
        -24    1    1    2    0    0 -0.74100924367E+01 -0.11359714944E+01  0.13333658867E+03  0.15589118555E+03  0.80419002446E+02 0. -1.
<mgrwt>
<rscale>  0 0.80767666E+02</rscale>
<asrwt>0</asrwt>
<pdfrwt beam="1">  1        1 0.31226434E-01 0.80767666E+02</pdfrwt>
<pdfrwt beam="2">  1       -1 0.60343089E-02 0.80767666E+02</pdfrwt>
<totfact> 0.16867433E+04</totfact>
</mgrwt>
</event>
<event>
 4    1  0.4844629E-001  0.8367719E+02  0.7546771E-02  0.1318929E+00
          1   -1    0    0  501    0  0.00000000000E+00  0.00000000000E+00  0.11111760297E+04  0.11111760297E+04  0.00000000000E+00 0. -1.
         -1   -1    0    0    0  501 -0.00000000000E+00 -0.00000000000E+00 -0.75639757536E+01  0.75639757536E+01  0.00000000000E+00 0.  1.
         24    1    1    2    0    0  0.21316228997E+02 -0.89596156087E+01  0.32326344766E+03  0.33391784750E+03  0.80419002446E+02 0.  0.
        -24    1    1    2    0    0 -0.21316228997E+02  0.89596156087E+01  0.78034860629E+03  0.78482215796E+03  0.80419002446E+02 0. -1.
<mgrwt>
<rscale>  0 0.83677191E+02</rscale>
<asrwt>0</asrwt>
<pdfrwt beam="1">  1        1 0.17095003E+00 0.83677191E+02</pdfrwt>
<pdfrwt beam="2">  1       -1 0.11636895E-02 0.83677191E+02</pdfrwt>
<totfact> 0.18421048E+04</totfact>
</mgrwt>
</event>
<event>
 4    1  0.4844629E-001  0.8702743E+02  0.7546771E-02  0.1310214E+00
         -1   -1    0    0    0  501 -0.00000000000E+00  0.00000000000E+00  0.34800346118E+02  0.34800346118E+02  0.00000000000E+00 0.  1.
          1   -1    0    0  501    0  0.00000000000E+00 -0.00000000000E+00 -0.24226580809E+03  0.24226580809E+03  0.00000000000E+00 0. -1.
         24    1    1    2    0    0 -0.28554655057E+02 -0.17064293809E+02 -0.59560790714E+02  0.10545739516E+03  0.80419002446E+02 0.  1.
        -24    1    1    2    0    0  0.28554655057E+02  0.17064293809E+02 -0.14790467126E+03  0.17160875905E+03  0.80419002446E+02 0.  1.
<mgrwt>
<rscale>  0 0.87027435E+02</rscale>
<asrwt>0</asrwt>
<pdfrwt beam="1">  1        1 0.37271663E-01 0.87027435E+02</pdfrwt>
<pdfrwt beam="2">  1       -1 0.53538994E-02 0.87027435E+02</pdfrwt>
<totfact> 0.16329437E+04</totfact>
</mgrwt>
</event>
<event>
 4    1  0.4844629E-001  0.8190425E+02  0.7546771E-02  0.1323733E+00
          2   -1    0    0  501    0  0.00000000000E+00  0.00000000000E+00  0.13536799068E+04  0.13536799068E+04  0.00000000000E+00 0. -1.
         -2   -1    0    0    0  501 -0.00000000000E+00 -0.00000000000E+00 -0.94153546633E+01  0.94153546633E+01  0.00000000000E+00 0.  1.
         24    1    1    2    0    0 -0.11068097118E+02 -0.10889764613E+02  0.11411972569E+04  0.11441326343E+04  0.80419002446E+02 0.  0.
        -24    1    1    2    0    0  0.11068097118E+02  0.10889764613E+02  0.20306729522E+03  0.21896262715E+03  0.80419002446E+02 0.  1.
<mgrwt>
<rscale>  0 0.81904247E+02</rscale>
<asrwt>0</asrwt>
<pdfrwt beam="1">  1        2 0.20825829E+00 0.81904247E+02</pdfrwt>
<pdfrwt beam="2">  1       -2 0.14485172E-02 0.81904247E+02</pdfrwt>
<totfact> 0.18892270E+04</totfact>
</mgrwt>
</event>
<event>
 4    1  0.4844629E-001  0.8078556E+02  0.7546771E-02  0.1326837E+00
         -1   -1    0    0    0  501 -0.00000000000E+00  0.00000000000E+00  0.41301377624E+03  0.41301377624E+03  0.00000000000E+00 0.  1.
          1   -1    0    0  501    0  0.00000000000E+00 -0.00000000000E+00 -0.22329246434E+02  0.22329246434E+02  0.00000000000E+00 0. -1.
         24    1    1    2    0    0 -0.21508520698E+01 -0.73799723293E+01  0.31303255839E+03  0.32328886267E+03  0.80419002446E+02 0.  0.
        -24    1    1    2    0    0  0.21508520698E+01  0.73799723293E+01  0.77651971416E+02  0.11205416001E+03  0.80419002446E+02 0. -1.
<mgrwt>
<rscale>  0 0.80785556E+02</rscale>
<asrwt>0</asrwt>
<pdfrwt beam="1">  1        1 0.34352690E-02 0.80785556E+02</pdfrwt>
<pdfrwt beam="2">  1       -1 0.63540575E-01 0.80785556E+02</pdfrwt>
<totfact> 0.66357207E+03</totfact>
</mgrwt>
</event>
<event>
 4    1  0.4844629E-001  0.1147808E+03  0.7546771E-02  0.1251964E+00
          2   -1    0    0  501    0  0.00000000000E+00  0.00000000000E+00  0.11048252401E+04  0.11048252401E+04  0.00000000000E+00 0. -1.
         -2   -1    0    0    0  501 -0.00000000000E+00 -0.00000000000E+00 -0.14623361387E+02  0.14623361387E+02  0.00000000000E+00 0.  1.
         24    1    1    2    0    0  0.49284584176E+02 -0.65409812073E+02  0.78555414311E+03  0.79389542225E+03  0.80419002446E+02 0. -1.
        -24    1    1    2    0    0 -0.49284584176E+02  0.65409812073E+02  0.30464773565E+03  0.32555317928E+03  0.80419002446E+02 0.  1.
<mgrwt>
<rscale>  0 0.11478079E+03</rscale>
<asrwt>0</asrwt>
<pdfrwt beam="1">  1        2 0.16997305E+00 0.11478079E+03</pdfrwt>
<pdfrwt beam="2">  1       -2 0.22497488E-02 0.11478079E+03</pdfrwt>
<totfact> 0.14026240E+04</totfact>
</mgrwt>
</event>
<event>
 4    1  0.4844629E-001  0.8288156E+02  0.7546771E-02  0.1321067E+00
          1   -1    0    0  501    0  0.00000000000E+00  0.00000000000E+00  0.59578741691E+02  0.59578741691E+02  0.00000000000E+00 0. -1.
         -1   -1    0    0    0  501 -0.00000000000E+00 -0.00000000000E+00 -0.14231837111E+03  0.14231837111E+03  0.00000000000E+00 0.  1.
         24    1    1    2    0    0  0.14318032833E+02 -0.14040335549E+02 -0.85355306002E+02  0.11897428841E+03  0.80419002446E+02 0.  1.
        -24    1    1    2    0    0 -0.14318032833E+02  0.14040335549E+02  0.26156765791E+01  0.82922824390E+02  0.80419002446E+02 0. -1.
<mgrwt>
<rscale>  0 0.82881560E+02</rscale>
<asrwt>0</asrwt>
<pdfrwt beam="1">  1        1 0.91659603E-02 0.82881560E+02</pdfrwt>
<pdfrwt beam="2">  1       -1 0.21895134E-01 0.82881560E+02</pdfrwt>
<totfact> 0.11202251E+04</totfact>
</mgrwt>
</event>
<event>
 4    1  0.4844629E-001  0.8824353E+02  0.7546771E-02  0.1307162E+00
         -2   -1    0    0    0  501 -0.00000000000E+00  0.00000000000E+00  0.54691247299E+01  0.54691247299E+01  0.00000000000E+00 0.  1.
          2   -1    0    0  501    0  0.00000000000E+00 -0.00000000000E+00 -0.40952299863E+04  0.40952299863E+04  0.00000000000E+00 0. -1.
         24    1    1    2    0    0 -0.23510129636E+02 -0.27694382442E+02 -0.37008827403E+04  0.37019346264E+04  0.80419002446E+02 0. -1.
        -24    1    1    2    0    0  0.23510129636E+02  0.27694382442E+02 -0.38887812123E+03  0.39876448455E+03  0.80419002446E+02 0.  1.
<mgrwt>
<rscale>  0 0.88243532E+02</rscale>
<asrwt>0</asrwt>
<pdfrwt beam="1">  1        2 0.63003220E+00 0.88243532E+02</pdfrwt>
<pdfrwt beam="2">  1       -2 0.84140805E-03 0.88243532E+02</pdfrwt>
<totfact> 0.11071114E+03</totfact>
</mgrwt>
</event>
<event>
 4    1  0.4844629E-001  0.1036845E+03  0.7546771E-02  0.1272733E+00
          1   -1    0    0  501    0  0.00000000000E+00  0.00000000000E+00  0.43835071569E+03  0.43835071569E+03  0.00000000000E+00 0. -1.
         -1   -1    0    0    0  501 -0.00000000000E+00 -0.00000000000E+00 -0.35066163997E+02  0.35066163997E+02  0.00000000000E+00 0.  1.
         24    1    1    2    0    0 -0.63869149097E+02 -0.14282687183E+02  0.71859433529E+02  0.12615172413E+03  0.80419002446E+02 0.  1.
        -24    1    1    2    0    0  0.63869149097E+02  0.14282687183E+02  0.33142511816E+03  0.34726515555E+03  0.80419002446E+02 0. -1.
<mgrwt>
<rscale>  0 0.10368452E+03</rscale>
<asrwt>0</asrwt>
<pdfrwt beam="1">  1        1 0.67438568E-01 0.10368452E+03</pdfrwt>
<pdfrwt beam="2">  1       -1 0.53947948E-02 0.10368452E+03</pdfrwt>
<totfact> 0.79020448E+03</totfact>
</mgrwt>
</event>
<event>
 4    1  0.4844629E-001  0.8746089E+02  0.7546771E-02  0.1309120E+00
         -1   -1    0    0    0  501 -0.00000000000E+00  0.00000000000E+00  0.13665728047E+03  0.13665728047E+03  0.00000000000E+00 0.  1.
          1   -1    0    0  501    0  0.00000000000E+00 -0.00000000000E+00 -0.71087468444E+02  0.71087468444E+02  0.00000000000E+00 0. -1.
         24    1    1    2    0    0  0.22286524020E+02  0.26182097357E+02  0.80677631278E+02  0.11898860247E+03  0.80419002446E+02 0.  1.
        -24    1    1    2    0    0 -0.22286524020E+02 -0.26182097357E+02 -0.15107819250E+02  0.88756146445E+02  0.80419002446E+02 0. -1.
<mgrwt>
<rscale>  0 0.87460890E+02</rscale>
<asrwt>0</asrwt>
<pdfrwt beam="1">  1        1 0.10936534E-01 0.87460890E+02</pdfrwt>
<pdfrwt beam="2">  1       -1 0.21024197E-01 0.87460890E+02</pdfrwt>
<totfact> 0.95398898E+03</totfact>
</mgrwt>
</event>
<event>
 4    1  0.4844629E-001  0.1035768E+03  0.7546771E-02  0.1272949E+00
          1   -1    0    0  501    0  0.00000000000E+00  0.00000000000E+00  0.40512592714E+03  0.40512592714E+03  0.00000000000E+00 0. -1.
         -1   -1    0    0    0  501 -0.00000000000E+00 -0.00000000000E+00 -0.28564987623E+02  0.28564987623E+02  0.00000000000E+00 0.  1.
         24    1    1    2    0    0  0.28573358828E+02  0.58689890859E+02  0.12971027640E+03  0.16599069818E+03  0.80419002446E+02 0.  1.
        -24    1    1    2    0    0 -0.28573358828E+02 -0.58689890859E+02  0.24685066312E+03  0.26770021658E+03  0.80419002446E+02 0. -1.
<mgrwt>
<rscale>  0 0.10357681E+03</rscale>
<asrwt>0</asrwt>
<pdfrwt beam="1">  1        1 0.62327062E-01 0.10357681E+03</pdfrwt>
<pdfrwt beam="2">  1       -1 0.43946138E-02 0.10357681E+03</pdfrwt>
<totfact> 0.11786657E+04</totfact>
</mgrwt>
</event>
<event>
 4    1  0.4844629E-001  0.8976997E+02  0.7546771E-02  0.1303410E+00
          2   -1    0    0  501    0  0.00000000000E+00  0.00000000000E+00  0.73647100134E+01  0.73647100134E+01  0.00000000000E+00 0. -1.
         -2   -1    0    0    0  501 -0.00000000000E+00 -0.00000000000E+00 -0.12351288738E+04  0.12351288738E+04  0.00000000000E+00 0.  1.
         24    1    1    2    0    0  0.39272039951E+02 -0.70099289710E+01 -0.40405099495E+03  0.41390319484E+03  0.80419002446E+02 0. -1.
        -24    1    1    2    0    0 -0.39272039951E+02  0.70099289710E+01 -0.82371316882E+03  0.82859038896E+03  0.80419002446E+02 0.  1.
<mgrwt>
<rscale>  0 0.89769974E+02</rscale>
<asrwt>0</asrwt>
<pdfrwt beam="1">  1        2 0.11330332E-02 0.89769974E+02</pdfrwt>
<pdfrwt beam="2">  1       -2 0.19001969E+00 0.89769974E+02</pdfrwt>
<totfact> 0.18726645E+03</totfact>
</mgrwt>
</event>
<event>
 4    1  0.4844629E-001  0.8111803E+02  0.7546771E-02  0.1325908E+00
          1   -1    0    0  501    0  0.00000000000E+00  0.00000000000E+00  0.33633126318E+03  0.33633126318E+03  0.00000000000E+00 0. -1.
         -1   -1    0    0    0  501 -0.00000000000E+00 -0.00000000000E+00 -0.19815799614E+02  0.19815799614E+02  0.00000000000E+00 0.  1.
         24    1    1    2    0    0  0.99998152814E+01  0.35942949816E+01  0.17831378326E+03  0.19589777058E+03  0.80419002446E+02 0. -1.
        -24    1    1    2    0    0 -0.99998152814E+01 -0.35942949816E+01  0.13820168030E+03  0.16024929222E+03  0.80419002446E+02 0.  1.
<mgrwt>
<rscale>  0 0.81118018E+02</rscale>
<asrwt>0</asrwt>
<pdfrwt beam="1">  1        1 0.51743267E-01 0.81118028E+02</pdfrwt>
<pdfrwt beam="2">  1       -1 0.30485848E-02 0.81118028E+02</pdfrwt>
<totfact> 0.24586910E+04</totfact>
</mgrwt>
</event>
<event>
 4    1  0.4844629E-001  0.8148355E+02  0.7546771E-02  0.1324893E+00
         -2   -1    0    0    0  501 -0.00000000000E+00  0.00000000000E+00  0.78553589586E+02  0.78553589586E+02  0.00000000000E+00 0.  1.
          2   -1    0    0  501    0  0.00000000000E+00 -0.00000000000E+00 -0.14006743067E+03  0.14006743067E+03  0.00000000000E+00 0. -1.
         24    1    1    2    0    0 -0.21716299172E+01  0.12947480799E+02 -0.99592724525E+02  0.12867898029E+03  0.80419002446E+02 0. -1.
        -24    1    1    2    0    0  0.21716299172E+01 -0.12947480799E+02  0.38078883439E+02  0.89942039969E+02  0.80419002446E+02 0.  1.
<mgrwt>
<rscale>  0 0.81483552E+02</rscale>
<asrwt>0</asrwt>
<pdfrwt beam="1">  1        2 0.21548835E-01 0.81483552E+02</pdfrwt>
<pdfrwt beam="2">  1       -2 0.12085168E-01 0.81483552E+02</pdfrwt>
<totfact> 0.11151458E+04</totfact>
</mgrwt>
</event>
<event>
 4    1  0.4844629E-001  0.8148506E+02  0.7546771E-02  0.1324889E+00
         -2   -1    0    0    0  501 -0.00000000000E+00  0.00000000000E+00  0.31328125621E+03  0.31328125621E+03  0.00000000000E+00 0.  1.
          2   -1    0    0  501    0  0.00000000000E+00 -0.00000000000E+00 -0.68956969212E+03  0.68956969212E+03  0.00000000000E+00 0. -1.
         24    1    1    2    0    0 -0.12486544552E+02 -0.40846839796E+01 -0.68180371723E+03  0.68665575307E+03  0.80419002446E+02 0. -1.
        -24    1    1    2    0    0  0.12486544552E+02  0.40846839796E+01  0.30551528132E+03  0.31619519527E+03  0.80419002446E+02 0.  1.
<mgrwt>
<rscale>  0 0.81485056E+02</rscale>
<asrwt>0</asrwt>
<pdfrwt beam="1">  1        2 0.10608764E+00 0.81485056E+02</pdfrwt>
<pdfrwt beam="2">  1       -2 0.48197117E-01 0.81485056E+02</pdfrwt>
<totfact> 0.18493004E+02</totfact>
</mgrwt>
</event>
<event>
 4    1  0.4844629E-001  0.9130941E+02  0.7546771E-02  0.1299711E+00
         -1   -1    0    0    0  501 -0.00000000000E+00  0.00000000000E+00  0.13005303516E+03  0.13005303516E+03  0.00000000000E+00 0.  1.
          1   -1    0    0  501    0  0.00000000000E+00 -0.00000000000E+00 -0.20155645529E+03  0.20155645529E+03  0.00000000000E+00 0. -1.
         24    1    1    2    0    0 -0.30138226113E+02 -0.31014193591E+02  0.10116892655E+03  0.13628118186E+03  0.80419002446E+02 0.  1.
        -24    1    1    2    0    0  0.30138226113E+02  0.31014193591E+02 -0.17267234667E+03  0.19532830859E+03  0.80419002446E+02 0. -1.
<mgrwt>
<rscale>  0 0.91309413E+02</rscale>
<asrwt>0</asrwt>
<pdfrwt beam="1">  1        1 0.31008686E-01 0.91309413E+02</pdfrwt>
<pdfrwt beam="2">  1       -1 0.20008159E-01 0.91309413E+02</pdfrwt>
<totfact> 0.27790373E+03</totfact>
</mgrwt>
</event>
<event>
 4    1  0.4844629E-001  0.9925302E+02  0.7546771E-02  0.1281875E+00
          2   -1    0    0  501    0  0.00000000000E+00  0.00000000000E+00  0.12238090649E+04  0.12238090649E+04  0.00000000000E+00 0. -1.
         -2   -1    0    0    0  501 -0.00000000000E+00 -0.00000000000E+00 -0.20934767530E+03  0.20934767530E+03  0.00000000000E+00 0.  1.
         24    1    1    2    0    0  0.63279252531E+01  0.57826489453E+02  0.12098975127E+04  0.12139617592E+04  0.80419002446E+02 0. -1.
        -24    1    1    2    0    0 -0.63279252531E+01 -0.57826489453E+02 -0.19543612313E+03  0.21919498100E+03  0.80419002446E+02 0.  1.
<mgrwt>
<rscale>  0 0.99253017E+02</rscale>
<asrwt>0</asrwt>
<pdfrwt beam="1">  1        2 0.18827831E+00 0.99253017E+02</pdfrwt>
<pdfrwt beam="2">  1       -2 0.32207335E-01 0.99253017E+02</pdfrwt>
<totfact> 0.18429296E+02</totfact>
</mgrwt>
</event>
<event>
 4    1  0.4844629E-001  0.1007919E+03  0.7546771E-02  0.1278640E+00
         -1   -1    0    0    0  501 -0.00000000000E+00  0.00000000000E+00  0.94156856836E+01  0.94156856836E+01  0.00000000000E+00 0.  1.
          1   -1    0    0  501    0  0.00000000000E+00 -0.00000000000E+00 -0.17221415787E+04  0.17221415787E+04  0.00000000000E+00 0. -1.
         24    1    1    2    0    0 -0.33943074352E+02  0.50394979996E+02 -0.32725477438E+03  0.34242472110E+03  0.80419002446E+02 0.  1.
        -24    1    1    2    0    0  0.33943074352E+02 -0.50394979996E+02 -0.13854711186E+04  0.13891325433E+04  0.80419002446E+02 0. -1.
<mgrwt>
<rscale>  0 0.10079188E+03</rscale>
<asrwt>0</asrwt>
<pdfrwt beam="1">  1        1 0.26494501E+00 0.10079188E+03</pdfrwt>
<pdfrwt beam="2">  1       -1 0.14485662E-02 0.10079188E+03</pdfrwt>
<totfact> 0.54756674E+03</totfact>
</mgrwt>
</event>
<event>
 4    1  0.4844629E-001  0.9829043E+02  0.7546771E-02  0.1283933E+00
          2   -1    0    0  501    0  0.00000000000E+00  0.00000000000E+00  0.74085033429E+03  0.74085033429E+03  0.00000000000E+00 0. -1.
         -2   -1    0    0    0  501 -0.00000000000E+00 -0.00000000000E+00 -0.13041971050E+02  0.13041971050E+02  0.00000000000E+00 0.  1.
         24    1    1    2    0    0  0.32825173904E+02  0.46003259669E+02  0.36799991021E+03  0.38090017303E+03  0.80419002446E+02 0. -1.
        -24    1    1    2    0    0 -0.32825173904E+02 -0.46003259669E+02  0.35980845303E+03  0.37299213231E+03  0.80419002446E+02 0.  1.
<mgrwt>
<rscale>  0 0.98290426E+02</rscale>
<asrwt>0</asrwt>
<pdfrwt beam="1">  1        2 0.11397694E+00 0.98290426E+02</pdfrwt>
<pdfrwt beam="2">  1       -2 0.20064577E-02 0.98290426E+02</pdfrwt>
<totfact> 0.27497858E+04</totfact>
</mgrwt>
</event>
<event>
 4    1  0.4844629E-001  0.8331054E+02  0.7546771E-02  0.1319911E+00
          2   -1    0    0  501    0  0.00000000000E+00  0.00000000000E+00  0.13047252776E+04  0.13047252776E+04  0.00000000000E+00 0. -1.
         -2   -1    0    0    0  501 -0.00000000000E+00 -0.00000000000E+00 -0.61373720260E+01  0.61373720260E+01  0.00000000000E+00 0.  1.
         24    1    1    2    0    0  0.64627622133E+01 -0.20776491705E+02  0.88854075236E+03  0.89243784908E+03  0.80419002446E+02 0. -1.
        -24    1    1    2    0    0 -0.64627622133E+01  0.20776491705E+02  0.41004715323E+03  0.41842480057E+03  0.80419002446E+02 0.  0.
<mgrwt>
<rscale>  0 0.83310539E+02</rscale>
<asrwt>0</asrwt>
<pdfrwt beam="1">  1        2 0.20072675E+00 0.83310539E+02</pdfrwt>
<pdfrwt beam="2">  1       -2 0.94421212E-03 0.83310539E+02</pdfrwt>
<totfact> 0.36783490E+04</totfact>
</mgrwt>
</event>
<event>
 4    1  0.4844629E-001  0.8434720E+02  0.7546771E-02  0.1317149E+00
          1   -1    0    0  501    0  0.00000000000E+00  0.00000000000E+00  0.15153262790E+04  0.15153262790E+04  0.00000000000E+00 0. -1.
         -1   -1    0    0    0  501 -0.00000000000E+00 -0.00000000000E+00 -0.57862748056E+01  0.57862748056E+01  0.00000000000E+00 0.  1.
         24    1    1    2    0    0 -0.13853395834E+02  0.21338184498E+02  0.42447674340E+03  0.43277587309E+03  0.80419002446E+02 0.  0.
        -24    1    1    2    0    0  0.13853395834E+02 -0.21338184498E+02  0.10850632608E+04  0.10883366807E+04  0.80419002446E+02 0. -1.
<mgrwt>
<rscale>  0 0.84347203E+02</rscale>
<asrwt>0</asrwt>
<pdfrwt beam="1">  1        1 0.23312680E+00 0.84347203E+02</pdfrwt>
<pdfrwt beam="2">  1       -1 0.89019733E-03 0.84347203E+02</pdfrwt>
<totfact> 0.14590431E+04</totfact>
</mgrwt>
</event>
<event>
 4    1  0.4844629E-001  0.8136831E+02  0.7546771E-02  0.1325213E+00
          1   -1    0    0  501    0  0.00000000000E+00  0.00000000000E+00  0.23932546555E+03  0.23932546555E+03  0.00000000000E+00 0. -1.
         -1   -1    0    0    0  501 -0.00000000000E+00 -0.00000000000E+00 -0.27495830454E+03  0.27495830454E+03  0.00000000000E+00 0.  1.
         24    1    1    2    0    0  0.12257348289E+02 -0.18286621385E+01 -0.26167951506E+03  0.27403826585E+03  0.80419002446E+02 0.  1.
        -24    1    1    2    0    0 -0.12257348289E+02  0.18286621385E+01  0.22604667607E+03  0.24024550424E+03  0.80419002446E+02 0. -1.
<mgrwt>
<rscale>  0 0.81368314E+02</rscale>
<asrwt>0</asrwt>
<pdfrwt beam="1">  1        1 0.36819302E-01 0.81368314E+02</pdfrwt>
<pdfrwt beam="2">  1       -1 0.42301278E-01 0.81368314E+02</pdfrwt>
<totfact> 0.64876259E+02</totfact>
</mgrwt>
</event>
<event>
 4    1  0.4844629E-001  0.8564699E+02  0.7546771E-02  0.1313749E+00
          2   -1    0    0  501    0  0.00000000000E+00  0.00000000000E+00  0.70917346459E+01  0.70917346459E+01  0.00000000000E+00 0. -1.
         -2   -1    0    0    0  501 -0.00000000000E+00 -0.00000000000E+00 -0.28171390386E+04  0.28171390386E+04  0.00000000000E+00 0.  1.
         24    1    1    2    0    0 -0.15788466170E+02 -0.24877995907E+02 -0.28167437581E+03  0.29440764305E+03  0.80419002446E+02 0.  0.
        -24    1    1    2    0    0  0.15788466170E+02  0.24877995907E+02 -0.25283729281E+04  0.25298231302E+04  0.80419002446E+02 0.  1.
<mgrwt>
<rscale>  0 0.85646987E+02</rscale>
<asrwt>0</asrwt>
<pdfrwt beam="1">  1        2 0.10910358E-02 0.85646987E+02</pdfrwt>
<pdfrwt beam="2">  1       -2 0.43340611E+00 0.85646987E+02</pdfrwt>
<totfact> 0.71849366E+01</totfact>
</mgrwt>
</event>
<event>
 4    1  0.4844629E-001  0.8215841E+02  0.7546771E-02  0.1323035E+00
          2   -1    0    0  501    0  0.00000000000E+00  0.00000000000E+00  0.76473191482E+03  0.76473191482E+03  0.00000000000E+00 0. -1.
         -2   -1    0    0    0  501 -0.00000000000E+00 -0.00000000000E+00 -0.95698291934E+02  0.95698291934E+02  0.00000000000E+00 0.  1.
         24    1    1    2    0    0 -0.15871907347E+02  0.55560957988E+01  0.74441182162E+03  0.74893188192E+03  0.80419002446E+02 0. -1.
        -24    1    1    2    0    0  0.15871907347E+02 -0.55560957988E+01 -0.75378198727E+02  0.11149832484E+03  0.80419002446E+02 0.  1.
<mgrwt>
<rscale>  0 0.82158406E+02</rscale>
<asrwt>0</asrwt>
<pdfrwt beam="1">  1        2 0.11765106E+00 0.82158406E+02</pdfrwt>
<pdfrwt beam="2">  1       -2 0.14722815E-01 0.82158406E+02</pdfrwt>
<totfact> 0.13114086E+03</totfact>
</mgrwt>
</event>
<event>
 4    1  0.4844629E-001  0.1053679E+03  0.7546771E-02  0.1269396E+00
         -3   -1    0    0    0  501 -0.00000000000E+00  0.00000000000E+00  0.18724778077E+04  0.18724778077E+04  0.00000000000E+00 0.  1.
          3   -1    0    0  501    0  0.00000000000E+00 -0.00000000000E+00 -0.11840624148E+02  0.11840624148E+02  0.00000000000E+00 0. -1.
         24    1    1    2    0    0 -0.57458829045E+02  0.36519310469E+02  0.15960225643E+04  0.15994969267E+04  0.80419002446E+02 0.  1.
        -24    1    1    2    0    0  0.57458829045E+02 -0.36519310469E+02  0.26461461925E+03  0.28482150506E+03  0.80419002446E+02 0. -1.
<mgrwt>
<rscale>  0 0.10536789E+03</rscale>
<asrwt>0</asrwt>
<pdfrwt beam="1">  1        3 0.18216360E-02 0.10536789E+03</pdfrwt>
<pdfrwt beam="2">  1       -3 0.28807327E+00 0.10536789E+03</pdfrwt>
<totfact> 0.13126993E+02</totfact>
</mgrwt>
</event>
<event>
 4    1  0.4844629E-001  0.1634450E+03  0.7546771E-02  0.1184861E+00
         -1   -1    0    0    0  501 -0.00000000000E+00  0.00000000000E+00  0.11151773455E+02  0.11151773455E+02  0.00000000000E+00 0.  1.
          1   -1    0    0  501    0  0.00000000000E+00 -0.00000000000E+00 -0.26485566274E+04  0.26485566274E+04  0.00000000000E+00 0. -1.
         24    1    1    2    0    0  0.10584330271E+03 -0.95101240737E+02 -0.17297512195E+04  0.17374560564E+04  0.80419002446E+02 0. -1.
        -24    1    1    2    0    0 -0.10584330271E+03  0.95101240737E+02 -0.90765363442E+03  0.92225234440E+03  0.80419002446E+02 0.  1.
<mgrwt>
<rscale>  0 0.16344502E+03</rscale>
<asrwt>0</asrwt>
<pdfrwt beam="1">  1        1 0.40747030E+00 0.16344504E+03</pdfrwt>
<pdfrwt beam="2">  1       -1 0.17156572E-02 0.16344504E+03</pdfrwt>
<totfact> 0.10962383E+03</totfact>
</mgrwt>
</event>
<event>
 4    1  0.4844629E-001  0.8867269E+02  0.7546771E-02  0.1306098E+00
          2   -1    0    0  501    0  0.00000000000E+00  0.00000000000E+00  0.34702766039E+03  0.34702766039E+03  0.00000000000E+00 0. -1.
         -2   -1    0    0    0  501 -0.00000000000E+00 -0.00000000000E+00 -0.26797660722E+02  0.26797660722E+02  0.00000000000E+00 0.  1.
         24    1    1    2    0    0 -0.11191944108E+02  0.35642265592E+02  0.23358138703E+03  0.24984617474E+03  0.80419002446E+02 0. -1.
        -24    1    1    2    0    0  0.11191944108E+02 -0.35642265592E+02  0.86648612638E+02  0.12397914638E+03  0.80419002446E+02 0. -1.
<mgrwt>
<rscale>  0 0.88672694E+02</rscale>
<asrwt>0</asrwt>
<pdfrwt beam="1">  1        2 0.53388868E-01 0.88672694E+02</pdfrwt>
<pdfrwt beam="2">  1       -2 0.41227173E-02 0.88672694E+02</pdfrwt>
<totfact> 0.21917429E+04</totfact>
</mgrwt>
</event>
<event>
 4    1  0.4844629E-001  0.9346829E+02  0.7546771E-02  0.1294664E+00
         -1   -1    0    0    0  501 -0.00000000000E+00  0.00000000000E+00  0.10396905642E+03  0.10396905642E+03  0.00000000000E+00 0.  1.
          1   -1    0    0  501    0  0.00000000000E+00 -0.00000000000E+00 -0.47023999778E+03  0.47023999778E+03  0.00000000000E+00 0. -1.
         24    1    1    2    0    0 -0.53622022070E+01 -0.47332357939E+02  0.77056018604E+02  0.12113608578E+03  0.80419002446E+02 0.  1.
        -24    1    1    2    0    0  0.53622022070E+01  0.47332357939E+02 -0.44332695997E+03  0.45307296842E+03  0.80419002446E+02 0. -1.
<mgrwt>
<rscale>  0 0.93468290E+02</rscale>
<asrwt>0</asrwt>
<pdfrwt beam="1">  1        1 0.72344614E-01 0.93468290E+02</pdfrwt>
<pdfrwt beam="2">  1       -1 0.15995240E-01 0.93468290E+02</pdfrwt>
<totfact> 0.13935315E+03</totfact>
</mgrwt>
</event>
<event>
 4    1  0.4844629E-001  0.1053091E+03  0.7546771E-02  0.1269512E+00
         -1   -1    0    0    0  501 -0.00000000000E+00  0.00000000000E+00  0.26033887514E+02  0.26033887514E+02  0.00000000000E+00 0.  1.
          1   -1    0    0  501    0  0.00000000000E+00 -0.00000000000E+00 -0.43154551882E+03  0.43154551882E+03  0.00000000000E+00 0. -1.
         24    1    1    2    0    0  0.25885696292E+01  0.67941867107E+02 -0.17678244867E+03  0.20577183508E+03  0.80419002446E+02 0.  0.
        -24    1    1    2    0    0 -0.25885696292E+01 -0.67941867107E+02 -0.22872918263E+03  0.25180757125E+03  0.80419002446E+02 0. -1.
<mgrwt>
<rscale>  0 0.10530914E+03</rscale>
<asrwt>0</asrwt>
<pdfrwt beam="1">  1        1 0.66391622E-01 0.10530914E+03</pdfrwt>
<pdfrwt beam="2">  1       -1 0.40052133E-02 0.10530914E+03</pdfrwt>
<totfact> 0.12485252E+04</totfact>
</mgrwt>
</event>
<event>
 4    1  0.4844629E-001  0.1121457E+03  0.7546771E-02  0.1256647E+00
         -1   -1    0    0    0  501 -0.00000000000E+00  0.00000000000E+00  0.52407200248E+01  0.52407200248E+01  0.00000000000E+00 0.  1.
          1   -1    0    0  501    0  0.00000000000E+00 -0.00000000000E+00 -0.26984408163E+04  0.26984408163E+04  0.00000000000E+00 0. -1.
         24    1    1    2    0    0 -0.40018832342E+02 -0.67141131836E+02 -0.17963252256E+04  0.17998224830E+04  0.80419002446E+02 0. -1.
        -24    1    1    2    0    0  0.40018832342E+02  0.67141131836E+02 -0.89687487071E+03  0.90385905328E+03  0.80419002446E+02 0.  1.
<mgrwt>
<rscale>  0 0.11214570E+03</rscale>
<asrwt>0</asrwt>
<pdfrwt beam="1">  1        1 0.41514479E+00 0.11214571E+03</pdfrwt>
<pdfrwt beam="2">  1       -1 0.80626452E-03 0.11214571E+03</pdfrwt>
<totfact> 0.29996825E+03</totfact>
</mgrwt>
</event>
<event>
 4    1  0.4844629E-001  0.1303416E+03  0.7546771E-02  0.1226950E+00
          1   -1    0    0  501    0  0.00000000000E+00  0.00000000000E+00  0.54839251006E+02  0.54839251006E+02  0.00000000000E+00 0. -1.
         -1   -1    0    0    0  501 -0.00000000000E+00 -0.00000000000E+00 -0.32447658518E+03  0.32447658518E+03  0.00000000000E+00 0.  1.
         24    1    1    2    0    0 -0.37027099678E+02  0.95659388747E+02 -0.17516106778E+03  0.21833538510E+03  0.80419002446E+02 0.  0.
        -24    1    1    2    0    0  0.37027099678E+02 -0.95659388747E+02 -0.94476266392E+02  0.16098045109E+03  0.80419002446E+02 0. -1.
<mgrwt>
<rscale>  0 0.13034163E+03</rscale>
<asrwt>0</asrwt>
<pdfrwt beam="1">  1        1 0.84368077E-02 0.13034163E+03</pdfrwt>
<pdfrwt beam="2">  1       -1 0.49919475E-01 0.13034163E+03</pdfrwt>
<totfact> 0.32003976E+03</totfact>
</mgrwt>
</event>
<event>
 4    1  0.4844629E-001  0.9004181E+02  0.7546771E-02  0.1302750E+00
         -2   -1    0    0    0  501 -0.00000000000E+00  0.00000000000E+00  0.42551026643E+01  0.42551026643E+01  0.00000000000E+00 0.  1.
          2   -1    0    0  501    0  0.00000000000E+00 -0.00000000000E+00 -0.34703573756E+04  0.34703573756E+04  0.00000000000E+00 0. -1.
         24    1    1    2    0    0  0.35436415249E+02 -0.19610524420E+02 -0.28997136582E+04  0.29011113091E+04  0.80419002446E+02 0. -1.
        -24    1    1    2    0    0 -0.35436415249E+02  0.19610524420E+02 -0.56638861474E+03  0.57350116919E+03  0.80419002446E+02 0.  1.
<mgrwt>
<rscale>  0 0.90041813E+02</rscale>
<asrwt>0</asrwt>
<pdfrwt beam="1">  1        2 0.53390476E+00 0.90041813E+02</pdfrwt>
<pdfrwt beam="2">  1       -2 0.65462673E-03 0.90041813E+02</pdfrwt>
<totfact> 0.42667145E+03</totfact>
</mgrwt>
</event>
<event>
 4    1  0.4844629E-001  0.9299780E+02  0.7546771E-02  0.1295750E+00
          2   -1    0    0  501    0  0.00000000000E+00  0.00000000000E+00  0.21097966737E+03  0.21097966737E+03  0.00000000000E+00 0. -1.
         -2   -1    0    0    0  501 -0.00000000000E+00 -0.00000000000E+00 -0.28347861851E+03  0.28347861851E+03  0.00000000000E+00 0.  1.
         24    1    1    2    0    0 -0.46276635602E+02  0.63125646086E+01  0.19240669135E+03  0.21370289260E+03  0.80419002446E+02 0. -1.
        -24    1    1    2    0    0  0.46276635602E+02 -0.63125646086E+01 -0.26490564249E+03  0.28075539328E+03  0.80419002446E+02 0.  1.
<mgrwt>
<rscale>  0 0.92997803E+02</rscale>
<asrwt>0</asrwt>
<pdfrwt beam="1">  1        2 0.32458411E-01 0.92997803E+02</pdfrwt>
<pdfrwt beam="2">  1       -2 0.43612095E-01 0.92997803E+02</pdfrwt>
<totfact> 0.79506248E+02</totfact>
</mgrwt>
</event>
<event>
 4    1  0.4844629E-001  0.1319456E+03  0.7546771E-02  0.1224597E+00
         -2   -1    0    0    0  501 -0.00000000000E+00  0.00000000000E+00  0.68386751735E+03  0.68386751735E+03  0.00000000000E+00 0.  1.
          2   -1    0    0  501    0  0.00000000000E+00 -0.00000000000E+00 -0.52536037092E+02  0.52536037092E+02  0.00000000000E+00 0. -1.
         24    1    1    2    0    0  0.10254753885E+03  0.20649864413E+02  0.51322039533E+02  0.14157535916E+03  0.80419002446E+02 0. -1.
        -24    1    1    2    0    0 -0.10254753885E+03 -0.20649864413E+02  0.58000944073E+03  0.59482819529E+03  0.80419002446E+02 0.  1.
<mgrwt>
<rscale>  0 0.13194556E+03</rscale>
<asrwt>0</asrwt>
<pdfrwt beam="1">  1        2 0.80824677E-02 0.13194556E+03</pdfrwt>
<pdfrwt beam="2">  1       -2 0.10521038E+00 0.13194556E+03</pdfrwt>
<totfact> 0.62579190E+02</totfact>
</mgrwt>
</event>
<event>
 4    1  0.4844629E-001  0.1072225E+03  0.7546771E-02  0.1265802E+00
         -2   -1    0    0    0  501 -0.00000000000E+00  0.00000000000E+00  0.17226167599E+02  0.17226167599E+02  0.00000000000E+00 0.  1.
          2   -1    0    0  501    0  0.00000000000E+00 -0.00000000000E+00 -0.77199728001E+03  0.77199728001E+03  0.00000000000E+00 0. -1.
         24    1    1    2    0    0 -0.28466721141E+02  0.64954571634E+02 -0.52264074654E+03  0.53352602231E+03  0.80419002446E+02 0. -1.
        -24    1    1    2    0    0  0.28466721141E+02 -0.64954571634E+02 -0.23213036587E+03  0.25569742530E+03  0.80419002446E+02 0.  1.
<mgrwt>
<rscale>  0 0.10722251E+03</rscale>
<asrwt>0</asrwt>
<pdfrwt beam="1">  1        2 0.11876879E+00 0.10722251E+03</pdfrwt>
<pdfrwt beam="2">  1       -2 0.26501801E-02 0.10722251E+03</pdfrwt>
<totfact> 0.17634022E+04</totfact>
</mgrwt>
</event>
<event>
 4    1  0.4844629E-001  0.8114512E+02  0.7546771E-02  0.1325833E+00
         -1   -1    0    0    0  501 -0.00000000000E+00  0.00000000000E+00  0.13924732226E+02  0.13924732226E+02  0.00000000000E+00 0.  1.
          1   -1    0    0  501    0  0.00000000000E+00 -0.00000000000E+00 -0.55610288234E+03  0.55610288234E+03  0.00000000000E+00 0. -1.
         24    1    1    2    0    0 -0.48312305512E+01  0.96940301828E+01 -0.16082183523E+03  0.18013382151E+03  0.80419002446E+02 0.  1.
        -24    1    1    2    0    0  0.48312305512E+01 -0.96940301828E+01 -0.38135631488E+03  0.38989379306E+03  0.80419002446E+02 0.  0.
<mgrwt>
<rscale>  0 0.81145123E+02</rscale>
<asrwt>0</asrwt>
<pdfrwt beam="1">  1        1 0.85554288E-01 0.81145123E+02</pdfrwt>
<pdfrwt beam="2">  1       -1 0.21422665E-02 0.81145123E+02</pdfrwt>
<totfact> 0.21670949E+04</totfact>
</mgrwt>
</event>
<event>
 4    1  0.4844629E-001  0.8545798E+02  0.7546771E-02  0.1314239E+00
          2   -1    0    0  501    0  0.00000000000E+00  0.00000000000E+00  0.78764733976E+03  0.78764733976E+03  0.00000000000E+00 0. -1.
         -2   -1    0    0    0  501 -0.00000000000E+00 -0.00000000000E+00 -0.16564312677E+02  0.16564312677E+02  0.00000000000E+00 0.  1.
         24    1    1    2    0    0  0.22779675117E+02 -0.17802714320E+02  0.65234180191E+03  0.65791556655E+03  0.80419002446E+02 0. -1.
        -24    1    1    2    0    0 -0.22779675117E+02  0.17802714320E+02  0.11874122517E+03  0.14629608589E+03  0.80419002446E+02 0.  1.
<mgrwt>
<rscale>  0 0.85457979E+02</rscale>
<asrwt>0</asrwt>
<pdfrwt beam="1">  1        2 0.12117648E+00 0.85457979E+02</pdfrwt>
<pdfrwt beam="2">  1       -2 0.25483564E-02 0.85457979E+02</pdfrwt>
<totfact> 0.17862471E+04</totfact>
</mgrwt>
</event>
<event>
 4    1  0.4844629E-001  0.8549007E+02  0.7546771E-02  0.1314156E+00
         -2   -1    0    0    0  501 -0.00000000000E+00  0.00000000000E+00  0.53130163016E+01  0.53130163016E+01  0.00000000000E+00 0.  1.
          2   -1    0    0  501    0  0.00000000000E+00 -0.00000000000E+00 -0.28046962791E+04  0.28046962791E+04  0.00000000000E+00 0. -1.
         24    1    1    2    0    0  0.20444810643E+02 -0.20575388447E+02 -0.24026121392E+04  0.24041326179E+04  0.80419002446E+02 0. -1.
        -24    1    1    2    0    0 -0.20444810643E+02  0.20575388447E+02 -0.39677112354E+03  0.40587667747E+03  0.80419002446E+02 0.  1.
<mgrwt>
<rscale>  0 0.85490075E+02</rscale>
<asrwt>0</asrwt>
<pdfrwt beam="1">  1        2 0.43149270E+00 0.85490075E+02</pdfrwt>
<pdfrwt beam="2">  1       -2 0.81738529E-03 0.85490075E+02</pdfrwt>
<totfact> 0.76707847E+03</totfact>
</mgrwt>
</event>
<event>
 4    1  0.4844629E-001  0.8540701E+02  0.7546771E-02  0.1314372E+00
         -2   -1    0    0    0  501 -0.00000000000E+00  0.00000000000E+00  0.21691107017E+02  0.21691107017E+02  0.00000000000E+00 0.  1.
          2   -1    0    0  501    0  0.00000000000E+00 -0.00000000000E+00 -0.47114501634E+03  0.47114501634E+03  0.00000000000E+00 0. -1.
         24    1    1    2    0    0  0.25697540835E+02 -0.12914246758E+02 -0.35656463611E+03  0.36665064714E+03  0.80419002446E+02 0. -1.
        -24    1    1    2    0    0 -0.25697540835E+02  0.12914246758E+02 -0.92889273213E+02  0.12618547621E+03  0.80419002446E+02 0.  1.
<mgrwt>
<rscale>  0 0.85407010E+02</rscale>
<asrwt>0</asrwt>
<pdfrwt beam="1">  1        2 0.72483848E-01 0.85407010E+02</pdfrwt>
<pdfrwt beam="2">  1       -2 0.33370934E-02 0.85407010E+02</pdfrwt>
<totfact> 0.21553164E+04</totfact>
</mgrwt>
</event>
<event>
 4    1  0.4844629E-001  0.8165578E+02  0.7546771E-02  0.1324417E+00
          1   -1    0    0  501    0  0.00000000000E+00  0.00000000000E+00  0.46596101360E+03  0.46596101360E+03  0.00000000000E+00 0. -1.
         -1   -1    0    0    0  501 -0.00000000000E+00 -0.00000000000E+00 -0.17586682314E+02  0.17586682314E+02  0.00000000000E+00 0.  1.
         24    1    1    2    0    0  0.43277617073E+01  0.13480374657E+02  0.11981898519E+03  0.14499743166E+03  0.80419002446E+02 0.  0.
        -24    1    1    2    0    0 -0.43277617073E+01 -0.13480374657E+02  0.32855534609E+03  0.33855026425E+03  0.80419002446E+02 0. -1.
<mgrwt>
<rscale>  0 0.81655777E+02</rscale>
<asrwt>0</asrwt>
<pdfrwt beam="1">  1        1 0.71686301E-01 0.81655777E+02</pdfrwt>
<pdfrwt beam="2">  1       -1 0.27056438E-02 0.81655777E+02</pdfrwt>
<totfact> 0.19498224E+04</totfact>
</mgrwt>
</event>
<event>
 4    1  0.4844629E-001  0.8546671E+02  0.7546771E-02  0.1314217E+00
          2   -1    0    0  501    0  0.00000000000E+00  0.00000000000E+00  0.97069187654E+03  0.97069187654E+03  0.00000000000E+00 0. -1.
         -2   -1    0    0    0  501 -0.00000000000E+00 -0.00000000000E+00 -0.20989539935E+02  0.20989539935E+02  0.00000000000E+00 0.  1.
         24    1    1    2    0    0 -0.20100485593E+02  0.20816182461E+02  0.87198306954E+03  0.87616153334E+03  0.80419002446E+02 0. -1.
        -24    1    1    2    0    0  0.20100485593E+02 -0.20816182461E+02  0.77719267059E+02  0.11551988314E+03  0.80419002446E+02 0.  1.
<mgrwt>
<rscale>  0 0.85466712E+02</rscale>
<asrwt>0</asrwt>
<pdfrwt beam="1">  1        2 0.14933718E+00 0.85466712E+02</pdfrwt>
<pdfrwt beam="2">  1       -2 0.32291607E-02 0.85466712E+02</pdfrwt>
<totfact> 0.97306183E+03</totfact>
</mgrwt>
</event>
<event>
 4    1  0.4844629E-001  0.2158137E+03  0.7546771E-02  0.1137043E+00
          1   -1    0    0  501    0  0.00000000000E+00  0.00000000000E+00  0.65740954031E+03  0.65740954031E+03  0.00000000000E+00 0. -1.
         -1   -1    0    0    0  501 -0.00000000000E+00 -0.00000000000E+00 -0.10605734961E+03  0.10605734961E+03  0.00000000000E+00 0.  1.
         24    1    1    2    0    0  0.27163628474E+02  0.19841999600E+03  0.55725953227E+02  0.22289225052E+03  0.80419002446E+02 0.  1.
        -24    1    1    2    0    0 -0.27163628474E+02 -0.19841999600E+03  0.49562623748E+03  0.54057463939E+03  0.80419002446E+02 0. -1.
<mgrwt>
<rscale>  0 0.21581375E+03</rscale>
<asrwt>0</asrwt>
<pdfrwt beam="1">  1        1 0.10113993E+00 0.21581375E+03</pdfrwt>
<pdfrwt beam="2">  1       -1 0.16316516E-01 0.21581375E+03</pdfrwt>
<totfact> 0.87014172E+02</totfact>
</mgrwt>
</event>
<event>
 4    1  0.4844629E-001  0.8233990E+02  0.7546771E-02  0.1322539E+00
         -2   -1    0    0    0  501 -0.00000000000E+00  0.00000000000E+00  0.23936191117E+02  0.23936191117E+02  0.00000000000E+00 0.  1.
          2   -1    0    0  501    0  0.00000000000E+00 -0.00000000000E+00 -0.65272685446E+03  0.65272685446E+03  0.00000000000E+00 0. -1.
         24    1    1    2    0    0  0.17222400578E+02  0.40040457083E+01 -0.56894467438E+03  0.57487207440E+03  0.80419002446E+02 0. -1.
        -24    1    1    2    0    0 -0.17222400578E+02 -0.40040457083E+01 -0.59845988960E+02  0.10179097117E+03  0.80419002446E+02 0.  1.
<mgrwt>
<rscale>  0 0.82339902E+02</rscale>
<asrwt>0</asrwt>
<pdfrwt beam="1">  1        2 0.10041951E+00 0.82339902E+02</pdfrwt>
<pdfrwt beam="2">  1       -2 0.36824913E-02 0.82339902E+02</pdfrwt>
<totfact> 0.13002415E+04</totfact>
</mgrwt>
</event>
<event>
 4    1  0.4844629E-001  0.9398068E+02  0.7546771E-02  0.1293488E+00
         -2   -1    0    0    0  501 -0.00000000000E+00  0.00000000000E+00  0.18031536196E+02  0.18031536196E+02  0.00000000000E+00 0.  1.
          2   -1    0    0  501    0  0.00000000000E+00 -0.00000000000E+00 -0.61306808525E+03  0.61306808525E+03  0.00000000000E+00 0. -1.
         24    1    1    2    0    0  0.20876756531E+02  0.43923955886E+02 -0.43899592997E+03  0.44894297561E+03  0.80419002446E+02 0. -1.
        -24    1    1    2    0    0 -0.20876756531E+02 -0.43923955886E+02 -0.15604061908E+03  0.18215664583E+03  0.80419002446E+02 0.  1.
<mgrwt>
<rscale>  0 0.93980683E+02</rscale>
<asrwt>0</asrwt>
<pdfrwt beam="1">  1        2 0.94318157E-01 0.93980683E+02</pdfrwt>
<pdfrwt beam="2">  1       -2 0.27740828E-02 0.93980683E+02</pdfrwt>
<totfact> 0.21342054E+04</totfact>
</mgrwt>
</event>
<event>
 4    1  0.4844629E-001  0.8212553E+02  0.7546771E-02  0.1323125E+00
          1   -1    0    0  501    0  0.00000000000E+00  0.00000000000E+00  0.56224657259E+03  0.56224657259E+03  0.00000000000E+00 0. -1.
         -1   -1    0    0    0  501 -0.00000000000E+00 -0.00000000000E+00 -0.12009722997E+02  0.12009722997E+02  0.00000000000E+00 0.  1.
         24    1    1    2    0    0  0.98167372138E+01 -0.13454201280E+02  0.28489326355E+03  0.29649413390E+03  0.80419002446E+02 0.  1.
        -24    1    1    2    0    0 -0.98167372138E+01  0.13454201280E+02  0.26534358604E+03  0.27776216170E+03  0.80419002446E+02 0. -1.
<mgrwt>
<rscale>  0 0.82125523E+02</rscale>
<asrwt>0</asrwt>
<pdfrwt beam="1">  1        1 0.86499452E-01 0.82125533E+02</pdfrwt>
<pdfrwt beam="2">  1       -1 0.18476501E-02 0.82125533E+02</pdfrwt>
<totfact> 0.26398531E+04</totfact>
</mgrwt>
</event>
<event>
 4    1  0.4844629E-001  0.9556032E+02  0.7546771E-02  0.1289919E+00
          4   -1    0    0  501    0  0.00000000000E+00  0.00000000000E+00  0.16107269918E+03  0.16107269918E+03  0.00000000000E+00 0. -1.
         -4   -1    0    0    0  501 -0.00000000000E+00 -0.00000000000E+00 -0.58415877505E+02  0.58415877505E+02  0.00000000000E+00 0.  1.
         24    1    1    2    0    0 -0.21194889652E+02 -0.47067348900E+02  0.70172753308E+02  0.11855796026E+03  0.80419002446E+02 0. -1.
        -24    1    1    2    0    0  0.21194889652E+02  0.47067348900E+02  0.32484068365E+02  0.10093061642E+03  0.80419002446E+02 0.  1.
<mgrwt>
<rscale>  0 0.95560319E+02</rscale>
<asrwt>0</asrwt>
<pdfrwt beam="1">  1        4 0.24780415E-01 0.95560319E+02</pdfrwt>
<pdfrwt beam="2">  1       -4 0.89870581E-02 0.95560319E+02</pdfrwt>
<totfact> 0.20871978E+03</totfact>
</mgrwt>
</event>
<event>
 4    1  0.4844629E-001  0.1296630E+03  0.7546771E-02  0.1227957E+00
         -2   -1    0    0    0  501 -0.00000000000E+00  0.00000000000E+00  0.30784538056E+02  0.30784538056E+02  0.00000000000E+00 0.  1.
          2   -1    0    0  501    0  0.00000000000E+00 -0.00000000000E+00 -0.99995458796E+03  0.99995458796E+03  0.00000000000E+00 0. -1.
         24    1    1    2    0    0  0.10004737230E+03 -0.18324879991E+02 -0.83177769992E+03  0.84182339952E+03  0.80419002446E+02 0. -1.
        -24    1    1    2    0    0 -0.10004737230E+03  0.18324879991E+02 -0.13739234998E+03  0.18891572650E+03  0.80419002446E+02 0.  1.
<mgrwt>
<rscale>  0 0.12966300E+03</rscale>
<asrwt>0</asrwt>
<pdfrwt beam="1">  1        2 0.15383917E+00 0.12966300E+03</pdfrwt>
<pdfrwt beam="2">  1       -2 0.47360826E-02 0.12966300E+03</pdfrwt>
<totfact> 0.54337970E+03</totfact>
</mgrwt>
</event>
<event>
 4    1  0.4844629E-001  0.1012581E+03  0.7546771E-02  0.1277672E+00
         -1   -1    0    0    0  501 -0.00000000000E+00  0.00000000000E+00  0.22746484574E+02  0.22746484574E+02  0.00000000000E+00 0.  1.
          1   -1    0    0  501    0  0.00000000000E+00 -0.00000000000E+00 -0.76812656699E+03  0.76812656699E+03  0.00000000000E+00 0. -1.
         24    1    1    2    0    0 -0.56005945291E+02 -0.25481696234E+02 -0.11851015745E+03  0.15587769605E+03  0.80419002446E+02 0.  1.
        -24    1    1    2    0    0  0.56005945291E+02  0.25481696234E+02 -0.62686992496E+03  0.63499535551E+03  0.80419002446E+02 0. -1.
<mgrwt>
<rscale>  0 0.10125808E+03</rscale>
<asrwt>0</asrwt>
<pdfrwt beam="1">  1        1 0.11817333E+00 0.10125808E+03</pdfrwt>
<pdfrwt beam="2">  1       -1 0.34994588E-02 0.10125808E+03</pdfrwt>
<totfact> 0.69873610E+03</totfact>
</mgrwt>
</event>
<event>
 4    1  0.4844629E-001  0.8334460E+02  0.7546771E-02  0.1319819E+00
         -2   -1    0    0    0  501 -0.00000000000E+00  0.00000000000E+00  0.37348562465E+02  0.37348562465E+02  0.00000000000E+00 0.  1.
          2   -1    0    0  501    0  0.00000000000E+00 -0.00000000000E+00 -0.34633311263E+03  0.34633311263E+03  0.00000000000E+00 0. -1.
         24    1    1    2    0    0 -0.20917901542E+02 -0.64457576555E+01 -0.28502643198E+03  0.29696193237E+03  0.80419002446E+02 0. -1.
        -24    1    1    2    0    0  0.20917901542E+02  0.64457576555E+01 -0.23958118185E+02  0.86719742724E+02  0.80419002446E+02 0.  1.
<mgrwt>
<rscale>  0 0.83344600E+02</rscale>
<asrwt>0</asrwt>
<pdfrwt beam="1">  1        2 0.53282014E-01 0.83344600E+02</pdfrwt>
<pdfrwt beam="2">  1       -2 0.57459330E-02 0.83344600E+02</pdfrwt>
<totfact> 0.13345661E+04</totfact>
</mgrwt>
</event>
<event>
 4    1  0.4844629E-001  0.2488769E+03  0.7546771E-02  0.1114017E+00
          1   -1    0    0  501    0  0.00000000000E+00  0.00000000000E+00  0.92352133235E+02  0.92352133235E+02  0.00000000000E+00 0. -1.
         -1   -1    0    0    0  501 -0.00000000000E+00 -0.00000000000E+00 -0.95760308948E+03  0.95760308948E+03  0.00000000000E+00 0.  1.
         24    1    1    2    0    0 -0.21232256150E+03 -0.10193922463E+03 -0.71998319982E+03  0.76178441807E+03  0.80419002446E+02 0.  1.
        -24    1    1    2    0    0  0.21232256150E+03  0.10193922463E+03 -0.14526775643E+03  0.28817080465E+03  0.80419002446E+02 0. -1.
<mgrwt>
<rscale>  0 0.24887686E+03</rscale>
<asrwt>0</asrwt>
<pdfrwt beam="1">  1        1 0.14208021E-01 0.24887686E+03</pdfrwt>
<pdfrwt beam="2">  1       -1 0.14732355E+00 0.24887686E+03</pdfrwt>
<totfact> 0.15956797E+02</totfact>
</mgrwt>
</event>
<event>
 4    1  0.4844629E-001  0.8300724E+02  0.7546771E-02  0.1320728E+00
         -2   -1    0    0    0  501 -0.00000000000E+00  0.00000000000E+00  0.15117036056E+02  0.15117036056E+02  0.00000000000E+00 0.  1.
          2   -1    0    0  501    0  0.00000000000E+00 -0.00000000000E+00 -0.50611424651E+03  0.50611424651E+03  0.00000000000E+00 0. -1.
         24    1    1    2    0    0  0.89967873900E+01 -0.18494420273E+02 -0.32767793487E+03  0.33802815078E+03  0.80419002446E+02 0. -1.
        -24    1    1    2    0    0 -0.89967873900E+01  0.18494420273E+02 -0.16331927558E+03  0.18320313178E+03  0.80419002446E+02 0. -1.
<mgrwt>
<rscale>  0 0.83007239E+02</rscale>
<asrwt>0</asrwt>
<pdfrwt beam="1">  1        2 0.77863748E-01 0.83007239E+02</pdfrwt>
<pdfrwt beam="2">  1       -2 0.23256973E-02 0.83007239E+02</pdfrwt>
<totfact> 0.33553683E+04</totfact>
</mgrwt>
</event>
<event>
 4    1  0.4844629E-001  0.9149301E+02  0.7546771E-02  0.1299276E+00
         -1   -1    0    0    0  501 -0.00000000000E+00  0.00000000000E+00  0.15590281722E+03  0.15590281722E+03  0.00000000000E+00 0.  1.
          1   -1    0    0  501    0  0.00000000000E+00 -0.00000000000E+00 -0.61430262410E+02  0.61430262410E+02  0.00000000000E+00 0. -1.
         24    1    1    2    0    0 -0.10012418758E+02 -0.42467710547E+02  0.85800425499E+02  0.12542999617E+03  0.80419002446E+02 0.  1.
        -24    1    1    2    0    0  0.10012418758E+02  0.42467710547E+02  0.86721293102E+01  0.91903083461E+02  0.80419002446E+02 0. -1.
<mgrwt>
<rscale>  0 0.91493010E+02</rscale>
<asrwt>0</asrwt>
<pdfrwt beam="1">  1        1 0.94508097E-02 0.91493010E+02</pdfrwt>
<pdfrwt beam="2">  1       -1 0.23985049E-01 0.91493010E+02</pdfrwt>
<totfact> 0.93856778E+03</totfact>
</mgrwt>
</event>
<event>
 4    1  0.4844629E-001  0.1048158E+03  0.7546771E-02  0.1270483E+00
          2   -1    0    0  501    0  0.00000000000E+00  0.00000000000E+00  0.15523493769E+03  0.15523493769E+03  0.00000000000E+00 0. -1.
         -2   -1    0    0    0  501 -0.00000000000E+00 -0.00000000000E+00 -0.73656569491E+02  0.73656569491E+02  0.00000000000E+00 0.  1.
         24    1    1    2    0    0  0.67210035889E+02  0.13944974046E+01  0.63435842833E+02  0.12251716475E+03  0.80419002446E+02 0. -1.
        -24    1    1    2    0    0 -0.67210035889E+02 -0.13944974046E+01  0.18142525364E+02  0.10637434243E+03  0.80419002446E+02 0.  1.
<mgrwt>
<rscale>  0 0.10481579E+03</rscale>
<asrwt>0</asrwt>
<pdfrwt beam="1">  1        2 0.23882298E-01 0.10481579E+03</pdfrwt>
<pdfrwt beam="2">  1       -2 0.11331780E-01 0.10481579E+03</pdfrwt>
<totfact> 0.11286548E+04</totfact>
</mgrwt>
</event>
<event>
 4    1  0.4844629E-001  0.1117399E+03  0.7546771E-02  0.1257381E+00
         -1   -1    0    0    0  501 -0.00000000000E+00  0.00000000000E+00  0.41238618610E+02  0.41238618610E+02  0.00000000000E+00 0.  1.
          1   -1    0    0  501    0  0.00000000000E+00 -0.00000000000E+00 -0.39630444015E+03  0.39630444015E+03  0.00000000000E+00 0. -1.
         24    1    1    2    0    0  0.75827644745E+02  0.16394073963E+02 -0.71250281076E+02  0.13252326542E+03  0.80419002446E+02 0.  1.
        -24    1    1    2    0    0 -0.75827644745E+02 -0.16394073963E+02 -0.28381554046E+03  0.30501979334E+03  0.80419002446E+02 0. -1.
<mgrwt>
<rscale>  0 0.11173994E+03</rscale>
<asrwt>0</asrwt>
<pdfrwt beam="1">  1        1 0.60969915E-01 0.11173994E+03</pdfrwt>
<pdfrwt beam="2">  1       -1 0.63444027E-02 0.11173994E+03</pdfrwt>
<totfact> 0.70948862E+03</totfact>
</mgrwt>
</event>
<event>
 4    1  0.4844629E-001  0.1070409E+03  0.7546771E-02  0.1266150E+00
          2   -1    0    0  501    0  0.00000000000E+00  0.00000000000E+00  0.23809015846E+04  0.23809015846E+04  0.00000000000E+00 0. -1.
         -2   -1    0    0    0  501 -0.00000000000E+00 -0.00000000000E+00 -0.48539122188E+01  0.48539122188E+01  0.00000000000E+00 0.  1.
         24    1    1    2    0    0  0.78777419537E+01  0.70203060456E+02  0.12983990111E+04  0.13028037982E+04  0.80419002446E+02 0. -1.
        -24    1    1    2    0    0 -0.78777419537E+01 -0.70203060456E+02  0.10776486612E+04  0.10829516986E+04  0.80419002446E+02 0.  0.
<mgrwt>
<rscale>  0 0.10704085E+03</rscale>
<asrwt>0</asrwt>
<pdfrwt beam="1">  1        2 0.36629162E+00 0.10704085E+03</pdfrwt>
<pdfrwt beam="2">  1       -2 0.74675763E-03 0.10704085E+03</pdfrwt>
<totfact> 0.14759407E+04</totfact>
</mgrwt>
</event>
<event>
 4    1  0.4844629E-001  0.1040957E+03  0.7546771E-02  0.1271912E+00
          2   -1    0    0  501    0  0.00000000000E+00  0.00000000000E+00  0.10563714697E+03  0.10563714697E+03  0.00000000000E+00 0. -1.
         -2   -1    0    0    0  501 -0.00000000000E+00 -0.00000000000E+00 -0.11941128973E+03  0.11941128973E+03  0.00000000000E+00 0.  1.
         24    1    1    2    0    0  0.41691614928E+01 -0.65964533462E+02  0.35362630636E+02  0.10993831535E+03  0.80419002446E+02 0. -1.
        -24    1    1    2    0    0 -0.41691614928E+01  0.65964533462E+02 -0.49136773402E+02  0.11511012135E+03  0.80419002446E+02 0.  1.
<mgrwt>
<rscale>  0 0.10409571E+03</rscale>
<asrwt>0</asrwt>
<pdfrwt beam="1">  1        2 0.16251869E-01 0.10409571E+03</pdfrwt>
<pdfrwt beam="2">  1       -2 0.18370968E-01 0.10409571E+03</pdfrwt>
<totfact> 0.79572519E+03</totfact>
</mgrwt>
</event>
<event>
 4    1  0.4844629E-001  0.8068681E+02  0.7546771E-02  0.1327114E+00
         -1   -1    0    0    0  501 -0.00000000000E+00  0.00000000000E+00  0.38381666545E+02  0.38381666545E+02  0.00000000000E+00 0.  1.
          1   -1    0    0  501    0  0.00000000000E+00 -0.00000000000E+00 -0.21915948789E+03  0.21915948789E+03  0.00000000000E+00 0. -1.
         24    1    1    2    0    0 -0.75680430971E+00  0.65245252814E+01 -0.15161061623E+03  0.17174439464E+03  0.80419002446E+02 0. -1.
        -24    1    1    2    0    0  0.75680430971E+00 -0.65245252814E+01 -0.29167205121E+02  0.85796759798E+02  0.80419002446E+02 0.  0.
<mgrwt>
<rscale>  0 0.80686800E+02</rscale>
<asrwt>0</asrwt>
<pdfrwt beam="1">  1        1 0.33716843E-01 0.80686811E+02</pdfrwt>
<pdfrwt beam="2">  1       -1 0.59048719E-02 0.80686811E+02</pdfrwt>
<totfact> 0.15855391E+04</totfact>
</mgrwt>
</event>
<event>
 4    1  0.4844629E-001  0.8593311E+02  0.7546771E-02  0.1313010E+00
         -1   -1    0    0    0  501 -0.00000000000E+00  0.00000000000E+00  0.13496786068E+03  0.13496786068E+03  0.00000000000E+00 0.  1.
          1   -1    0    0  501    0  0.00000000000E+00 -0.00000000000E+00 -0.18683259508E+03  0.18683259508E+03  0.00000000000E+00 0. -1.
         24    1    1    2    0    0 -0.30179402991E+02 -0.25471060230E+01  0.10937265298E+03  0.13909305263E+03  0.80419002446E+02 0.  1.
        -24    1    1    2    0    0  0.30179402991E+02  0.25471060230E+01 -0.16123738738E+03  0.18270740313E+03  0.80419002446E+02 0. -1.
<mgrwt>
<rscale>  0 0.85933114E+02</rscale>
<asrwt>0</asrwt>
<pdfrwt beam="1">  1        1 0.28743476E-01 0.85933114E+02</pdfrwt>
<pdfrwt beam="2">  1       -1 0.20764286E-01 0.85933114E+02</pdfrwt>
<totfact> 0.28655562E+03</totfact>
</mgrwt>
</event>
<event>
 4    1  0.4844629E-001  0.1385905E+03  0.7546771E-02  0.1215238E+00
          2   -1    0    0  501    0  0.00000000000E+00  0.00000000000E+00  0.29819559900E+04  0.29819559900E+04  0.00000000000E+00 0. -1.
         -2   -1    0    0    0  501 -0.00000000000E+00 -0.00000000000E+00 -0.70880651881E+01  0.70880651881E+01  0.00000000000E+00 0.  1.
         24    1    1    2    0    0 -0.53375469320E+02  0.99454382081E+02  0.19389262399E+04  0.19438730140E+04  0.80419002446E+02 0. -1.
        -24    1    1    2    0    0  0.53375469320E+02 -0.99454382081E+02  0.10359416849E+04  0.10451710412E+04  0.80419002446E+02 0.  0.
<mgrwt>
<rscale>  0 0.13859051E+03</rscale>
<asrwt>0</asrwt>
<pdfrwt beam="1">  1        2 0.45876146E+00 0.13859051E+03</pdfrwt>
<pdfrwt beam="2">  1       -2 0.10904739E-02 0.13859051E+03</pdfrwt>
<totfact> 0.40550253E+03</totfact>
</mgrwt>
</event>
<event>
 4    1  0.4844629E-001  0.9190121E+02  0.7546771E-02  0.1298312E+00
          2   -1    0    0  501    0  0.00000000000E+00  0.00000000000E+00  0.17727676798E+03  0.17727676798E+03  0.00000000000E+00 0. -1.
         -2   -1    0    0    0  501 -0.00000000000E+00 -0.00000000000E+00 -0.50938014191E+02  0.50938014191E+02  0.00000000000E+00 0.  1.
         24    1    1    2    0    0  0.44311685652E+02  0.38842093674E+01  0.34143586247E+02  0.98038834162E+02  0.80419002446E+02 0.  0.
        -24    1    1    2    0    0 -0.44311685652E+02 -0.38842093674E+01  0.92195167546E+02  0.13017594801E+03  0.80419002446E+02 0.  0.
<mgrwt>
<rscale>  0 0.91901200E+02</rscale>
<asrwt>0</asrwt>
<pdfrwt beam="1">  1        2 0.27273349E-01 0.91901212E+02</pdfrwt>
<pdfrwt beam="2">  1       -2 0.78366176E-02 0.91901212E+02</pdfrwt>
<totfact> 0.17087020E+04</totfact>
</mgrwt>
</event>
<event>
 4    1  0.4844629E-001  0.9382834E+02  0.7546771E-02  0.1293837E+00
          3   -1    0    0  501    0  0.00000000000E+00  0.00000000000E+00  0.17117788018E+03  0.17117788018E+03  0.00000000000E+00 0. -1.
         -3   -1    0    0    0  501 -0.00000000000E+00 -0.00000000000E+00 -0.54981501080E+02  0.54981501080E+02  0.00000000000E+00 0.  1.
         24    1    1    2    0    0 -0.34344997497E+02 -0.34014163513E+02  0.29360370646E+02  0.98314747070E+02  0.80419002446E+02 0.  1.
        -24    1    1    2    0    0  0.34344997497E+02  0.34014163513E+02  0.86836008453E+02  0.12784463419E+03  0.80419002446E+02 0. -1.
<mgrwt>
<rscale>  0 0.93828344E+02</rscale>
<asrwt>0</asrwt>
<pdfrwt beam="1">  1        3 0.26335058E-01 0.93828344E+02</pdfrwt>
<pdfrwt beam="2">  1       -3 0.84586926E-02 0.93828344E+02</pdfrwt>
<totfact> 0.28273473E+03</totfact>
</mgrwt>
</event>
<event>
 4    1  0.4844629E-001  0.8716571E+02  0.7546771E-02  0.1309864E+00
         -3   -1    0    0    0  501 -0.00000000000E+00  0.00000000000E+00  0.81312382839E+02  0.81312382839E+02  0.00000000000E+00 0.  1.
          3   -1    0    0  501    0  0.00000000000E+00 -0.00000000000E+00 -0.93993945429E+02  0.93993945429E+02  0.00000000000E+00 0. -1.
         24    1    1    2    0    0 -0.29984949294E+02 -0.15216702337E+02  0.38582896220E+00  0.87166564877E+02  0.80419002446E+02 0.  1.
        -24    1    1    2    0    0  0.29984949294E+02  0.15216702337E+02 -0.13067391552E+02  0.88139763390E+02  0.80419002446E+02 0.  0.
<mgrwt>
<rscale>  0 0.87165711E+02</rscale>
<asrwt>0</asrwt>
<pdfrwt beam="1">  1        3 0.14460607E-01 0.87165711E+02</pdfrwt>
<pdfrwt beam="2">  1       -3 0.12509597E-01 0.87165711E+02</pdfrwt>
<totfact> 0.41580026E+03</totfact>
</mgrwt>
</event>
<event>
 4    1  0.4844629E-001  0.8349473E+02  0.7546771E-02  0.1319417E+00
         -2   -1    0    0    0  501 -0.00000000000E+00  0.00000000000E+00  0.18382598466E+02  0.18382598466E+02  0.00000000000E+00 0.  1.
          2   -1    0    0  501    0  0.00000000000E+00 -0.00000000000E+00 -0.20676469780E+04  0.20676469780E+04  0.00000000000E+00 0. -1.
         24    1    1    2    0    0  0.17142192195E+01 -0.22387838951E+02 -0.19671534760E+04  0.19689246222E+04  0.80419002446E+02 0. -1.
        -24    1    1    2    0    0 -0.17142192195E+01  0.22387838951E+02 -0.82110903596E+02  0.11710495431E+03  0.80419002446E+02 0.  1.
<mgrwt>
<rscale>  0 0.83494729E+02</rscale>
<asrwt>0</asrwt>
<pdfrwt beam="1">  1        2 0.31809934E+00 0.83494729E+02</pdfrwt>
<pdfrwt beam="2">  1       -2 0.28280938E-02 0.83494729E+02</pdfrwt>
<totfact> 0.31653872E+03</totfact>
</mgrwt>
</event>
<event>
 4    1  0.4844629E-001  0.8093538E+02  0.7546771E-02  0.1326418E+00
         -2   -1    0    0    0  501 -0.00000000000E+00  0.00000000000E+00  0.11764593228E+02  0.11764593228E+02  0.00000000000E+00 0.  1.
          2   -1    0    0  501    0  0.00000000000E+00 -0.00000000000E+00 -0.62099308468E+03  0.62099308468E+03  0.00000000000E+00 0. -1.
         24    1    1    2    0    0 -0.44030845809E+01  0.79957966221E+01 -0.40633397345E+03  0.41431610378E+03  0.80419002446E+02 0.  0.
        -24    1    1    2    0    0  0.44030845809E+01 -0.79957966221E+01 -0.20289451800E+03  0.21844157412E+03  0.80419002446E+02 0.  1.
<mgrwt>
<rscale>  0 0.80935381E+02</rscale>
<asrwt>0</asrwt>
<pdfrwt beam="1">  1        2 0.95537406E-01 0.80935381E+02</pdfrwt>
<pdfrwt beam="2">  1       -2 0.18099373E-02 0.80935381E+02</pdfrwt>
<totfact> 0.38274738E+04</totfact>
</mgrwt>
</event>
<event>
 4    1  0.4844629E-001  0.8428315E+02  0.7546771E-02  0.1317318E+00
         -3   -1    0    0    0  501 -0.00000000000E+00  0.00000000000E+00  0.52597077443E+03  0.52597077443E+03  0.00000000000E+00 0.  1.
          3   -1    0    0  501    0  0.00000000000E+00 -0.00000000000E+00 -0.13769020448E+02  0.13769020448E+02  0.00000000000E+00 0. -1.
         24    1    1    2    0    0  0.60723076430E+01 -0.24485864346E+02  0.21878635512E+03  0.23445919818E+03  0.80419002446E+02 0. -1.
        -24    1    1    2    0    0 -0.60723076430E+01  0.24485864346E+02  0.29341539886E+03  0.30528059669E+03  0.80419002446E+02 0.  1.
<mgrwt>
<rscale>  0 0.84283143E+02</rscale>
<asrwt>0</asrwt>
<pdfrwt beam="1">  1        3 0.21183112E-02 0.84283154E+02</pdfrwt>
<pdfrwt beam="2">  1       -3 0.80918565E-01 0.84283154E+02</pdfrwt>
<totfact> 0.26434278E+03</totfact>
</mgrwt>
</event>
<event>
 4    1  0.4844629E-001  0.9358603E+02  0.7546771E-02  0.1294393E+00
          1   -1    0    0  501    0  0.00000000000E+00  0.00000000000E+00  0.11992299243E+03  0.11992299243E+03  0.00000000000E+00 0. -1.
         -1   -1    0    0    0  501 -0.00000000000E+00 -0.00000000000E+00 -0.73245583159E+02  0.73245583159E+02  0.00000000000E+00 0.  1.
         24    1    1    2    0    0  0.47613502764E+02  0.49074435276E+01  0.18136276295E+02  0.95327168843E+02  0.80419002446E+02 0. -1.
        -24    1    1    2    0    0 -0.47613502764E+02 -0.49074435276E+01  0.28541132973E+02  0.97841406742E+02  0.80419002446E+02 0.  1.
<mgrwt>
<rscale>  0 0.93586028E+02</rscale>
<asrwt>0</asrwt>
<pdfrwt beam="1">  1        1 0.18449691E-01 0.93586028E+02</pdfrwt>
<pdfrwt beam="2">  1       -1 0.11268551E-01 0.93586028E+02</pdfrwt>
<totfact> 0.12948130E+04</totfact>
</mgrwt>
</event>
<event>
 4    1  0.4844629E-001  0.1112199E+03  0.7546771E-02  0.1258327E+00
          1   -1    0    0  501    0  0.00000000000E+00  0.00000000000E+00  0.11985141525E+03  0.11985141525E+03  0.00000000000E+00 0. -1.
         -1   -1    0    0    0  501 -0.00000000000E+00 -0.00000000000E+00 -0.25565811935E+03  0.25565811935E+03  0.00000000000E+00 0.  1.
         24    1    1    2    0    0  0.76498710022E+02 -0.71134740003E+01 -0.21288804325E+03  0.24018990208E+03  0.80419002446E+02 0.  1.
        -24    1    1    2    0    0 -0.76498710022E+02  0.71134740003E+01  0.77081339154E+02  0.13531963253E+03  0.80419002446E+02 0. -1.
<mgrwt>
<rscale>  0 0.11121992E+03</rscale>
<asrwt>0</asrwt>
<pdfrwt beam="1">  1        1 0.18438680E-01 0.11121992E+03</pdfrwt>
<pdfrwt beam="2">  1       -1 0.39332018E-01 0.11121992E+03</pdfrwt>
<totfact> 0.17512226E+03</totfact>
</mgrwt>
</event>
<event>
 4    1  0.4844629E-001  0.8965251E+02  0.7546771E-02  0.1303695E+00
         -2   -1    0    0    0  501 -0.00000000000E+00  0.00000000000E+00  0.40817743616E+02  0.40817743616E+02  0.00000000000E+00 0.  1.
          2   -1    0    0  501    0  0.00000000000E+00 -0.00000000000E+00 -0.50625373104E+03  0.50625373104E+03  0.00000000000E+00 0. -1.
         24    1    1    2    0    0  0.12480422274E+02 -0.37611118181E+02 -0.44653784123E+03  0.45544880806E+03  0.80419002446E+02 0.  0.
        -24    1    1    2    0    0 -0.12480422274E+02  0.37611118181E+02 -0.18898146190E+02  0.91622666599E+02  0.80419002446E+02 0.  1.
<mgrwt>
<rscale>  0 0.89652513E+02</rscale>
<asrwt>0</asrwt>
<pdfrwt beam="1">  1        2 0.77885188E-01 0.89652513E+02</pdfrwt>
<pdfrwt beam="2">  1       -2 0.62796530E-02 0.89652513E+02</pdfrwt>
<totfact> 0.78682539E+03</totfact>
</mgrwt>
</event>
<event>
 4    1  0.4844629E-001  0.1176731E+03  0.7546771E-02  0.1246986E+00
         -2   -1    0    0    0  501 -0.00000000000E+00  0.00000000000E+00  0.15367241058E+02  0.15367241058E+02  0.00000000000E+00 0.  1.
          2   -1    0    0  501    0  0.00000000000E+00 -0.00000000000E+00 -0.93436573234E+03  0.93436573234E+03  0.00000000000E+00 0. -1.
         24    1    1    2    0    0 -0.81651404176E+02  0.26698023421E+02 -0.54914105584E+03  0.56160738191E+03  0.80419002446E+02 0. -1.
        -24    1    1    2    0    0  0.81651404176E+02 -0.26698023421E+02 -0.36985743545E+03  0.38812559149E+03  0.80419002446E+02 0.  0.
<mgrwt>
<rscale>  0 0.11767307E+03</rscale>
<asrwt>0</asrwt>
<pdfrwt beam="1">  1        2 0.14374857E+00 0.11767307E+03</pdfrwt>
<pdfrwt beam="2">  1       -2 0.23641910E-02 0.11767307E+03</pdfrwt>
<totfact> 0.16471862E+04</totfact>
</mgrwt>
</event>
<event>
 4    1  0.4844629E-001  0.9035491E+02  0.7546771E-02  0.1301994E+00
          2   -1    0    0  501    0  0.00000000000E+00  0.00000000000E+00  0.45684886275E+03  0.45684886275E+03  0.00000000000E+00 0. -1.
         -2   -1    0    0    0  501 -0.00000000000E+00 -0.00000000000E+00 -0.19589239818E+02  0.19589239818E+02  0.00000000000E+00 0.  1.
         24    1    1    2    0    0  0.40535045669E+02 -0.73283301143E+01  0.28919693897E+03  0.30298329957E+03  0.80419002446E+02 0.  0.
        -24    1    1    2    0    0 -0.40535045669E+02  0.73283301143E+01  0.14806268396E+03  0.17345480301E+03  0.80419002446E+02 0. -1.
<mgrwt>
<rscale>  0 0.90354913E+02</rscale>
<asrwt>0</asrwt>
<pdfrwt beam="1">  1        2 0.70284433E-01 0.90354913E+02</pdfrwt>
<pdfrwt beam="2">  1       -2 0.30137295E-02 0.90354913E+02</pdfrwt>
<totfact> 0.25992915E+04</totfact>
</mgrwt>
</event>
<event>
 4    1  0.4844629E-001  0.8360051E+02  0.7546771E-02  0.1319133E+00
         -4   -1    0    0    0  501 -0.00000000000E+00  0.00000000000E+00  0.44397154689E+02  0.44397154689E+02  0.00000000000E+00 0.  1.
          4   -1    0    0  501    0  0.00000000000E+00 -0.00000000000E+00 -0.20457044188E+03  0.20457044188E+03  0.00000000000E+00 0. -1.
         24    1    1    2    0    0  0.17573436227E+02 -0.14594659272E+02 -0.13984925173E+03  0.16293206837E+03  0.80419002446E+02 0. -1.
        -24    1    1    2    0    0 -0.17573436227E+02  0.14594659272E+02 -0.20324035458E+02  0.86035528195E+02  0.80419002446E+02 0.  1.
<mgrwt>
<rscale>  0 0.83600513E+02</rscale>
<asrwt>0</asrwt>
<pdfrwt beam="1">  1        4 0.31472376E-01 0.83600513E+02</pdfrwt>
<pdfrwt beam="2">  1       -4 0.68303315E-02 0.83600513E+02</pdfrwt>
<totfact> 0.20270225E+03</totfact>
</mgrwt>
</event>
<event>
 4    1  0.4844629E-001  0.8841508E+02  0.7546771E-02  0.1306736E+00
         -2   -1    0    0    0  501 -0.00000000000E+00  0.00000000000E+00  0.22549265763E+03  0.22549265763E+03  0.00000000000E+00 0.  1.
          2   -1    0    0  501    0  0.00000000000E+00 -0.00000000000E+00 -0.21450084409E+03  0.21450084409E+03  0.00000000000E+00 0. -1.
         24    1    1    2    0    0  0.10333641498E+02 -0.35259409724E+02 -0.19594009455E+03  0.21496452435E+03  0.80419002446E+02 0. -1.
        -24    1    1    2    0    0 -0.10333641498E+02  0.35259409724E+02  0.20693190809E+03  0.22502897738E+03  0.80419002446E+02 0.  1.
<mgrwt>
<rscale>  0 0.88415078E+02</rscale>
<asrwt>0</asrwt>
<pdfrwt beam="1">  1        2 0.33000130E-01 0.88415078E+02</pdfrwt>
<pdfrwt beam="2">  1       -2 0.34691178E-01 0.88415078E+02</pdfrwt>
<totfact> 0.11956731E+03</totfact>
</mgrwt>
</event>
<event>
 4    1  0.4844629E-001  0.8422019E+02  0.7546771E-02  0.1317484E+00
          2   -1    0    0  501    0  0.00000000000E+00  0.00000000000E+00  0.81447255465E+03  0.81447255465E+03  0.00000000000E+00 0. -1.
         -2   -1    0    0    0  501 -0.00000000000E+00 -0.00000000000E+00 -0.44207380584E+02  0.44207380584E+02  0.00000000000E+00 0.  1.
         24    1    1    2    0    0 -0.18649893953E+02  0.16673522538E+02  0.76986582304E+03  0.77445879577E+03  0.80419002446E+02 0. -1.
        -24    1    1    2    0    0  0.18649893953E+02 -0.16673522538E+02  0.39935102822E+00  0.84221139472E+02  0.80419002446E+02 0.  1.
<mgrwt>
<rscale>  0 0.84220193E+02</rscale>
<asrwt>0</asrwt>
<pdfrwt beam="1">  1        2 0.12530346E+00 0.84220193E+02</pdfrwt>
<pdfrwt beam="2">  1       -2 0.68011361E-02 0.84220193E+02</pdfrwt>
<totfact> 0.40385629E+03</totfact>
</mgrwt>
</event>
<event>
 4    1  0.4844629E-001  0.8996632E+02  0.7546771E-02  0.1302933E+00
         -1   -1    0    0    0  501 -0.00000000000E+00  0.00000000000E+00  0.68930580352E+01  0.68930580352E+01  0.00000000000E+00 0.  1.
          1   -1    0    0  501    0  0.00000000000E+00 -0.00000000000E+00 -0.13330908611E+04  0.13330908611E+04  0.00000000000E+00 0. -1.
         24    1    1    2    0    0 -0.10624802442E+02  0.38907987041E+02 -0.89439501630E+03  0.89890843750E+03  0.80419002446E+02 0. -1.
        -24    1    1    2    0    0  0.10624802442E+02 -0.38907987041E+02 -0.43180278677E+03  0.44107548163E+03  0.80419002446E+02 0.  1.
<mgrwt>
<rscale>  0 0.89966304E+02</rscale>
<asrwt>0</asrwt>
<pdfrwt beam="1">  1        1 0.20509106E+00 0.89966315E+02</pdfrwt>
<pdfrwt beam="2">  1       -1 0.10604697E-02 0.89966315E+02</pdfrwt>
<totfact> 0.15006732E+04</totfact>
</mgrwt>
</event>
<event>
 4    1  0.4844629E-001  0.2170654E+03  0.7546771E-02  0.1136090E+00
         -2   -1    0    0    0  501 -0.00000000000E+00  0.00000000000E+00  0.23738162428E+03  0.23738162428E+03  0.00000000000E+00 0.  1.
          2   -1    0    0  501    0  0.00000000000E+00 -0.00000000000E+00 -0.31304756844E+03  0.31304756844E+03  0.00000000000E+00 0. -1.
         24    1    1    2    0    0 -0.19985782697E+03  0.26589674538E+02 -0.20432068561E+03  0.29810119140E+03  0.80419002446E+02 0. -1.
        -24    1    1    2    0    0  0.19985782697E+03 -0.26589674538E+02  0.12865474145E+03  0.25232800131E+03  0.80419002446E+02 0.  1.
<mgrwt>
<rscale>  0 0.21706538E+03</rscale>
<asrwt>0</asrwt>
<pdfrwt beam="1">  1        2 0.48161164E-01 0.21706538E+03</pdfrwt>
<pdfrwt beam="2">  1       -2 0.36520250E-01 0.21706538E+03</pdfrwt>
<totfact> 0.74088505E+02</totfact>
</mgrwt>
</event>
<event>
 4    1  0.4844629E-001  0.1349887E+03  0.7546771E-02  0.1220236E+00
         -1   -1    0    0    0  501 -0.00000000000E+00  0.00000000000E+00  0.71469522391E+02  0.71469522391E+02  0.00000000000E+00 0.  1.
          1   -1    0    0  501    0  0.00000000000E+00 -0.00000000000E+00 -0.12437993862E+04  0.12437993862E+04  0.00000000000E+00 0. -1.
         24    1    1    2    0    0  0.10772124622E+03  0.12283248335E+02  0.20539656402E+00  0.13498890035E+03  0.80419002446E+02 0.  1.
        -24    1    1    2    0    0 -0.10772124622E+03 -0.12283248335E+02 -0.11725352603E+04  0.11802800082E+04  0.80419002446E+02 0. -1.
<mgrwt>
<rscale>  0 0.13498874E+03</rscale>
<asrwt>0</asrwt>
<pdfrwt beam="1">  1        1 0.19135375E+00 0.13498874E+03</pdfrwt>
<pdfrwt beam="2">  1       -1 0.10995311E-01 0.13498874E+03</pdfrwt>
<totfact> 0.57218223E+02</totfact>
</mgrwt>
</event>
<event>
 4    1  0.4844629E-001  0.8953916E+02  0.7546771E-02  0.1303972E+00
         -2   -1    0    0    0  501 -0.00000000000E+00  0.00000000000E+00  0.32713676781E+02  0.32713676781E+02  0.00000000000E+00 0.  1.
          2   -1    0    0  501    0  0.00000000000E+00 -0.00000000000E+00 -0.57911487048E+03  0.57911487048E+03  0.00000000000E+00 0. -1.
         24    1    1    2    0    0  0.13517402990E+02 -0.36977348324E+02 -0.50553707860E+03  0.51340529630E+03  0.80419002446E+02 0. -1.
        -24    1    1    2    0    0 -0.13517402990E+02  0.36977348324E+02 -0.40864115097E+02  0.98423250961E+02  0.80419002446E+02 0.  1.
<mgrwt>
<rscale>  0 0.89539156E+02</rscale>
<asrwt>0</asrwt>
<pdfrwt beam="1">  1        2 0.89094589E-01 0.89539156E+02</pdfrwt>
<pdfrwt beam="2">  1       -2 0.50328737E-02 0.89539156E+02</pdfrwt>
<totfact> 0.94521065E+03</totfact>
</mgrwt>
</event>
<event>
 4    1  0.4844629E-001  0.8118369E+02  0.7546771E-02  0.1325725E+00
         -2   -1    0    0    0  501 -0.00000000000E+00  0.00000000000E+00  0.43939120649E+02  0.43939120649E+02  0.00000000000E+00 0.  1.
          2   -1    0    0  501    0  0.00000000000E+00 -0.00000000000E+00 -0.17123350218E+03  0.17123350218E+03  0.00000000000E+00 0. -1.
         24    1    1    2    0    0 -0.58860216840E+01 -0.94302980628E+01 -0.10153427976E+03  0.13000000651E+03  0.80419002446E+02 0. -1.
        -24    1    1    2    0    0  0.58860216840E+01  0.94302980628E+01 -0.25760101778E+02  0.85172616320E+02  0.80419002446E+02 0. -1.
<mgrwt>
<rscale>  0 0.81183691E+02</rscale>
<asrwt>0</asrwt>
<pdfrwt beam="1">  1        2 0.26343615E-01 0.81183691E+02</pdfrwt>
<pdfrwt beam="2">  1       -2 0.67598648E-02 0.81183691E+02</pdfrwt>
<totfact> 0.21892833E+04</totfact>
</mgrwt>
</event>
<event>
 4    1  0.4844629E-001  0.8905716E+02  0.7546771E-02  0.1305151E+00
         -2   -1    0    0    0  501 -0.00000000000E+00  0.00000000000E+00  0.22241496646E+02  0.22241496646E+02  0.00000000000E+00 0.  1.
          2   -1    0    0  501    0  0.00000000000E+00 -0.00000000000E+00 -0.35701160221E+03  0.35701160221E+03  0.00000000000E+00 0. -1.
         24    1    1    2    0    0  0.47608659898E+01  0.37964340123E+02 -0.16089565788E+03  0.18389830246E+03  0.80419002446E+02 0. -1.
        -24    1    1    2    0    0 -0.47608659898E+01 -0.37964340123E+02 -0.17387444769E+03  0.19535479640E+03  0.80419002446E+02 0.  1.
<mgrwt>
<rscale>  0 0.89057144E+02</rscale>
<asrwt>0</asrwt>
<pdfrwt beam="1">  1        2 0.54924863E-01 0.89057155E+02</pdfrwt>
<pdfrwt beam="2">  1       -2 0.34217687E-02 0.89057155E+02</pdfrwt>
<totfact> 0.27971429E+04</totfact>
</mgrwt>
</event>
<event>
 4    1  0.4844629E-001  0.9294712E+02  0.7546771E-02  0.1295868E+00
          1   -1    0    0  501    0  0.00000000000E+00  0.00000000000E+00  0.23958154767E+03  0.23958154767E+03  0.00000000000E+00 0. -1.
         -1   -1    0    0    0  501 -0.00000000000E+00 -0.00000000000E+00 -0.66460517719E+02  0.66460517719E+02  0.00000000000E+00 0.  1.
         24    1    1    2    0    0 -0.35066999978E+02 -0.30696205020E+02 -0.16933211944E+02  0.94476987204E+02  0.80419002446E+02 0.  1.
        -24    1    1    2    0    0  0.35066999978E+02  0.30696205020E+02  0.19005424189E+03  0.21156507818E+03  0.80419002446E+02 0. -1.
<mgrwt>
<rscale>  0 0.92947122E+02</rscale>
<asrwt>0</asrwt>
<pdfrwt beam="1">  1        1 0.36858699E-01 0.92947122E+02</pdfrwt>
<pdfrwt beam="2">  1       -1 0.10224695E-01 0.92947122E+02</pdfrwt>
<totfact> 0.63617902E+03</totfact>
</mgrwt>
</event>
<event>
 4    1  0.4844629E-001  0.8988987E+02  0.7546771E-02  0.1303119E+00
          1   -1    0    0  501    0  0.00000000000E+00  0.00000000000E+00  0.52088491276E+03  0.52088491276E+03  0.00000000000E+00 0. -1.
         -1   -1    0    0    0  501 -0.00000000000E+00 -0.00000000000E+00 -0.16432730703E+02  0.16432730703E+02  0.00000000000E+00 0.  1.
         24    1    1    2    0    0 -0.38669201961E+02  0.10847187976E+02  0.31580511964E+03  0.32834898844E+03  0.80419002446E+02 0. -1.
        -24    1    1    2    0    0  0.38669201961E+02 -0.10847187976E+02  0.18864706242E+03  0.20896865502E+03  0.80419002446E+02 0. -1.
<mgrwt>
<rscale>  0 0.89889858E+02</rscale>
<asrwt>0</asrwt>
<pdfrwt beam="1">  1        1 0.80136128E-01 0.89889870E+02</pdfrwt>
<pdfrwt beam="2">  1       -1 0.25281128E-02 0.89889870E+02</pdfrwt>
<totfact> 0.18821627E+04</totfact>
</mgrwt>
</event>
<event>
 4    1  0.4844629E-001  0.8810160E+02  0.7546771E-02  0.1307515E+00
          2   -1    0    0  501    0  0.00000000000E+00  0.00000000000E+00  0.25306949069E+03  0.25306949069E+03  0.00000000000E+00 0. -1.
         -2   -1    0    0    0  501 -0.00000000000E+00 -0.00000000000E+00 -0.31054770117E+02  0.31054770117E+02  0.00000000000E+00 0.  1.
         24    1    1    2    0    0  0.32821786999E+02 -0.14744552297E+02  0.95214343347E+02  0.12972146568E+03  0.80419002446E+02 0.  1.
        -24    1    1    2    0    0 -0.32821786999E+02  0.14744552297E+02  0.12680037722E+03  0.15440279512E+03  0.80419002446E+02 0. -1.
<mgrwt>
<rscale>  0 0.88101586E+02</rscale>
<asrwt>0</asrwt>
<pdfrwt beam="1">  1        2 0.38933767E-01 0.88101597E+02</pdfrwt>
<pdfrwt beam="2">  1       -2 0.47776571E-02 0.88101597E+02</pdfrwt>
<totfact> 0.24504131E+04</totfact>
</mgrwt>
</event>
<event>
 4    1  0.4844629E-001  0.8392235E+02  0.7546771E-02  0.1318275E+00
          2   -1    0    0  501    0  0.00000000000E+00  0.00000000000E+00  0.11358961500E+02  0.11358961500E+02  0.00000000000E+00 0. -1.
         -2   -1    0    0    0  501 -0.00000000000E+00 -0.00000000000E+00 -0.64436048482E+03  0.64436048482E+03  0.00000000000E+00 0.  1.
         24    1    1    2    0    0 -0.70241943043E+01  0.22943545741E+02 -0.25279947636E+03  0.26636541967E+03  0.80419002446E+02 0. -1.
        -24    1    1    2    0    0  0.70241943043E+01 -0.22943545741E+02 -0.38020204696E+03  0.38935402665E+03  0.80419002446E+02 0.  1.
<mgrwt>
<rscale>  0 0.83922354E+02</rscale>
<asrwt>0</asrwt>
<pdfrwt beam="1">  1        2 0.17475319E-02 0.83922354E+02</pdfrwt>
<pdfrwt beam="2">  1       -2 0.99132416E-01 0.83922354E+02</pdfrwt>
<totfact> 0.51910157E+03</totfact>
</mgrwt>
</event>
<event>
 4    1  0.4844629E-001  0.1035542E+03  0.7546771E-02  0.1272995E+00
         -2   -1    0    0    0  501 -0.00000000000E+00  0.00000000000E+00  0.23524874103E+02  0.23524874103E+02  0.00000000000E+00 0.  1.
          2   -1    0    0  501    0  0.00000000000E+00 -0.00000000000E+00 -0.48815601273E+03  0.48815601273E+03  0.00000000000E+00 0. -1.
         24    1    1    2    0    0  0.49092513279E+02  0.42967117418E+02 -0.29814672799E+03  0.31561833819E+03  0.80419002446E+02 0. -1.
        -24    1    1    2    0    0 -0.49092513279E+02 -0.42967117418E+02 -0.16648441064E+03  0.19606254864E+03  0.80419002446E+02 0.  1.
<mgrwt>
<rscale>  0 0.10355416E+03</rscale>
<asrwt>0</asrwt>
<pdfrwt beam="1">  1        2 0.75100920E-01 0.10355416E+03</pdfrwt>
<pdfrwt beam="2">  1       -2 0.36192116E-02 0.10355416E+03</pdfrwt>
<totfact> 0.18777627E+04</totfact>
</mgrwt>
</event>
<event>
 4    1  0.4844629E-001  0.9838802E+02  0.7546771E-02  0.1283723E+00
         -2   -1    0    0    0  501 -0.00000000000E+00  0.00000000000E+00  0.21005367532E+03  0.21005367532E+03  0.00000000000E+00 0.  1.
          2   -1    0    0  501    0  0.00000000000E+00 -0.00000000000E+00 -0.64838709132E+02  0.64838709132E+02  0.00000000000E+00 0. -1.
         24    1    1    2    0    0 -0.52915406703E+02  0.20320942630E+02  0.14652818884E+03  0.17649562900E+03  0.80419002446E+02 0. -1.
        -24    1    1    2    0    0  0.52915406703E+02 -0.20320942630E+02 -0.13132226527E+01  0.98396755455E+02  0.80419002446E+02 0.  0.
<mgrwt>
<rscale>  0 0.98388004E+02</rscale>
<asrwt>0</asrwt>
<pdfrwt beam="1">  1        2 0.99751861E-02 0.98388016E+02</pdfrwt>
<pdfrwt beam="2">  1       -2 0.32315950E-01 0.98388016E+02</pdfrwt>
<totfact> 0.53092858E+03</totfact>
</mgrwt>
</event>
<event>
 4    1  0.4844629E-001  0.1051662E+03  0.7546771E-02  0.1269793E+00
         -2   -1    0    0    0  501 -0.00000000000E+00  0.00000000000E+00  0.35867147336E+01  0.35867147336E+01  0.00000000000E+00 0.  1.
          2   -1    0    0  501    0  0.00000000000E+00 -0.00000000000E+00 -0.31247975307E+04  0.31247975307E+04  0.00000000000E+00 0. -1.
         24    1    1    2    0    0  0.12817873348E+02 -0.66546233277E+02 -0.13809541923E+04  0.13849528499E+04  0.80419002446E+02 0.  1.
        -24    1    1    2    0    0 -0.12817873348E+02  0.66546233277E+02 -0.17402566236E+04  0.17434313955E+04  0.80419002446E+02 0. -1.
<mgrwt>
<rscale>  0 0.10516614E+03</rscale>
<asrwt>0</asrwt>
<pdfrwt beam="1">  1        2 0.48073891E+00 0.10516616E+03</pdfrwt>
<pdfrwt beam="2">  1       -2 0.55180131E-03 0.10516616E+03</pdfrwt>
<totfact> 0.88117433E+03</totfact>
</mgrwt>
</event>
<event>
 4    1  0.4844629E-001  0.9042654E+02  0.7546771E-02  0.1301822E+00
          3   -1    0    0  501    0  0.00000000000E+00  0.00000000000E+00  0.94070081913E+02  0.94070081913E+02  0.00000000000E+00 0. -1.
         -3   -1    0    0    0  501 -0.00000000000E+00 -0.00000000000E+00 -0.10952859398E+03  0.10952859398E+03  0.00000000000E+00 0.  1.
         24    1    1    2    0    0 -0.11143357108E+02  0.39819140513E+02  0.38517245797E+02  0.98288008104E+02  0.80419002446E+02 0.  1.
        -24    1    1    2    0    0  0.11143357108E+02 -0.39819140513E+02 -0.53975757865E+02  0.10531066779E+03  0.80419002446E+02 0.  0.
<mgrwt>
<rscale>  0 0.90426525E+02</rscale>
<asrwt>0</asrwt>
<pdfrwt beam="1">  1        3 0.14472320E-01 0.90426536E+02</pdfrwt>
<pdfrwt beam="2">  1       -3 0.16850553E-01 0.90426536E+02</pdfrwt>
<totfact> 0.25314241E+03</totfact>
</mgrwt>
</event>
<event>
 4    1  0.4844629E-001  0.1023967E+03  0.7546771E-02  0.1275335E+00
         -1   -1    0    0    0  501 -0.00000000000E+00  0.00000000000E+00  0.13444632715E+02  0.13444632715E+02  0.00000000000E+00 0.  1.
          1   -1    0    0  501    0  0.00000000000E+00 -0.00000000000E+00 -0.97314421085E+03  0.97314421085E+03  0.00000000000E+00 0. -1.
         24    1    1    2    0    0 -0.15078726836E+02 -0.61567082991E+02 -0.26001189469E+03  0.27944816165E+03  0.80419002446E+02 0.  1.
        -24    1    1    2    0    0  0.15078726836E+02  0.61567082991E+02 -0.69968768345E+03  0.70714068192E+03  0.80419002446E+02 0. -1.
<mgrwt>
<rscale>  0 0.10239673E+03</rscale>
<asrwt>0</asrwt>
<pdfrwt beam="1">  1        1 0.14971451E+00 0.10239673E+03</pdfrwt>
<pdfrwt beam="2">  1       -1 0.20684048E-02 0.10239673E+03</pdfrwt>
<totfact> 0.10348617E+04</totfact>
</mgrwt>
</event>
<event>
 4    1  0.4844629E-001  0.1013094E+03  0.7546771E-02  0.1277566E+00
          1   -1    0    0  501    0  0.00000000000E+00  0.00000000000E+00  0.12468784081E+04  0.12468784081E+04  0.00000000000E+00 0. -1.
         -1   -1    0    0    0  501 -0.00000000000E+00 -0.00000000000E+00 -0.14657903515E+02  0.14657903515E+02  0.00000000000E+00 0.  1.
         24    1    1    2    0    0 -0.33207576731E+02 -0.51900257761E+02  0.19845293358E+03  0.22281643276E+03  0.80419002446E+02 0.  1.
        -24    1    1    2    0    0  0.33207576731E+02  0.51900257761E+02  0.10337675710E+04  0.10387198789E+04  0.80419002446E+02 0. -1.
<mgrwt>
<rscale>  0 0.10130941E+03</rscale>
<asrwt>0</asrwt>
<pdfrwt beam="1">  1        1 0.19182736E+00 0.10130941E+03</pdfrwt>
<pdfrwt beam="2">  1       -1 0.22550631E-02 0.10130941E+03</pdfrwt>
<totfact> 0.58918470E+03</totfact>
</mgrwt>
</event>
<event>
 4    1  0.4844629E-001  0.9396734E+02  0.7546771E-02  0.1293519E+00
         -1   -1    0    0    0  501 -0.00000000000E+00  0.00000000000E+00  0.74460502801E+03  0.74460502801E+03  0.00000000000E+00 0.  1.
          1   -1    0    0  501    0  0.00000000000E+00 -0.00000000000E+00 -0.32739447338E+02  0.32739447338E+02  0.00000000000E+00 0. -1.
         24    1    1    2    0    0  0.96502136895E+01  0.47639457948E+02  0.66633405436E+03  0.67292713761E+03  0.80419002446E+02 0.  1.
        -24    1    1    2    0    0 -0.96502136895E+01 -0.47639457948E+02  0.45531526316E+02  0.10441733774E+03  0.80419002446E+02 0. -1.
<mgrwt>
<rscale>  0 0.93967338E+02</rscale>
<asrwt>0</asrwt>
<pdfrwt beam="1">  1        1 0.50368386E-02 0.93967338E+02</pdfrwt>
<pdfrwt beam="2">  1       -1 0.11455461E+00 0.93967338E+02</pdfrwt>
<totfact> 0.11755269E+03</totfact>
</mgrwt>
</event>
<event>
 4    1  0.4844629E-001  0.1163392E+03  0.7546771E-02  0.1249261E+00
         -2   -1    0    0    0  501 -0.00000000000E+00  0.00000000000E+00  0.43447807896E+01  0.43447807896E+01  0.00000000000E+00 0.  1.
          2   -1    0    0  501    0  0.00000000000E+00 -0.00000000000E+00 -0.36447240549E+04  0.36447240549E+04  0.00000000000E+00 0. -1.
         24    1    1    2    0    0  0.41795630814E+02  0.72943280524E+02 -0.25156415931E+04  0.25183302877E+04  0.80419002446E+02 0. -1.
        -24    1    1    2    0    0 -0.41795630814E+02 -0.72943280524E+02 -0.11247376810E+04  0.11307385480E+04  0.80419002446E+02 0.  0.
<mgrwt>
<rscale>  0 0.11633921E+03</rscale>
<asrwt>0</asrwt>
<pdfrwt beam="1">  1        2 0.56072672E+00 0.11633921E+03</pdfrwt>
<pdfrwt beam="2">  1       -2 0.66842788E-03 0.11633921E+03</pdfrwt>
<totfact> 0.31766489E+03</totfact>
</mgrwt>
</event>
<event>
 4    1  0.4844629E-001  0.9289989E+02  0.7546771E-02  0.1295977E+00
          2   -1    0    0  501    0  0.00000000000E+00  0.00000000000E+00  0.74852020417E+03  0.74852020417E+03  0.00000000000E+00 0. -1.
         -2   -1    0    0    0  501 -0.00000000000E+00 -0.00000000000E+00 -0.16237438945E+02  0.16237438945E+02  0.00000000000E+00 0.  1.
         24    1    1    2    0    0  0.25503018319E+02  0.38894338488E+02  0.57202908215E+03  0.57952364947E+03  0.80419002446E+02 0. -1.
        -24    1    1    2    0    0 -0.25503018319E+02 -0.38894338488E+02  0.16025368308E+03  0.18523399365E+03  0.80419002446E+02 0.  1.
<mgrwt>
<rscale>  0 0.92899889E+02</rscale>
<asrwt>0</asrwt>
<pdfrwt beam="1">  1        2 0.11515693E+00 0.92899889E+02</pdfrwt>
<pdfrwt beam="2">  1       -2 0.24980681E-02 0.92899889E+02</pdfrwt>
<totfact> 0.19694178E+04</totfact>
</mgrwt>
</event>
<event>
 4    1  0.4844629E-001  0.8105090E+02  0.7546771E-02  0.1326095E+00
         -2   -1    0    0    0  501 -0.00000000000E+00  0.00000000000E+00  0.42955878479E+02  0.42955878479E+02  0.00000000000E+00 0.  1.
          2   -1    0    0  501    0  0.00000000000E+00 -0.00000000000E+00 -0.15928703404E+03  0.15928703404E+03  0.00000000000E+00 0. -1.
         24    1    1    2    0    0  0.35790127406E+01  0.94457743398E+01 -0.78366725382E+02  0.11274125947E+03  0.80419002446E+02 0. -1.
        -24    1    1    2    0    0 -0.35790127406E+01 -0.94457743398E+01 -0.37964430174E+02  0.89501653046E+02  0.80419002446E+02 0.  1.
<mgrwt>
<rscale>  0 0.81050897E+02</rscale>
<asrwt>0</asrwt>
<pdfrwt beam="1">  1        2 0.24505697E-01 0.81050897E+02</pdfrwt>
<pdfrwt beam="2">  1       -2 0.66085967E-02 0.81050897E+02</pdfrwt>
<totfact> 0.24493142E+04</totfact>
</mgrwt>
</event>
<event>
 4    1  0.4844629E-001  0.8167499E+02  0.7546771E-02  0.1324364E+00
          1   -1    0    0  501    0  0.00000000000E+00  0.00000000000E+00  0.10806678806E+03  0.10806678806E+03  0.00000000000E+00 0. -1.
         -1   -1    0    0    0  501 -0.00000000000E+00 -0.00000000000E+00 -0.40972749287E+03  0.40972749287E+03  0.00000000000E+00 0.  1.
         24    1    1    2    0    0  0.19459805785E+01  0.14135092887E+02 -0.38942938430E+03  0.39790205956E+03  0.80419002446E+02 0.  1.
        -24    1    1    2    0    0 -0.19459805785E+01 -0.14135092887E+02  0.87768679484E+02  0.11989222137E+03  0.80419002446E+02 0. -1.
<mgrwt>
<rscale>  0 0.81674988E+02</rscale>
<asrwt>0</asrwt>
<pdfrwt beam="1">  1        1 0.16625659E-01 0.81674988E+02</pdfrwt>
<pdfrwt beam="2">  1       -1 0.63035000E-01 0.81674988E+02</pdfrwt>
<totfact> 0.84110091E+02</totfact>
</mgrwt>
</event>
<event>
 4    1  0.4844629E-001  0.8414381E+02  0.7546771E-02  0.1317687E+00
         -1   -1    0    0    0  501 -0.00000000000E+00  0.00000000000E+00  0.12494517158E+03  0.12494517158E+03  0.00000000000E+00 0.  1.
          1   -1    0    0  501    0  0.00000000000E+00 -0.00000000000E+00 -0.67879490058E+02  0.67879490058E+02  0.00000000000E+00 0. -1.
         24    1    1    2    0    0 -0.93174460342E+01 -0.22937961761E+02  0.67718562194E+02  0.10800918716E+03  0.80419002446E+02 0.  1.
        -24    1    1    2    0    0  0.93174460342E+01  0.22937961761E+02 -0.10652880672E+02  0.84815474480E+02  0.80419002446E+02 0. -1.
<mgrwt>
<rscale>  0 0.84143810E+02</rscale>
<asrwt>0</asrwt>
<pdfrwt beam="1">  1        1 0.10442998E-01 0.84143810E+02</pdfrwt>
<pdfrwt beam="2">  1       -1 0.19222334E-01 0.84143810E+02</pdfrwt>
<totfact> 0.11633980E+04</totfact>
</mgrwt>
</event>
<event>
 4    1  0.4844629E-001  0.9584790E+02  0.7546771E-02  0.1289278E+00
          1   -1    0    0  501    0  0.00000000000E+00  0.00000000000E+00  0.54473520666E+03  0.54473520666E+03  0.00000000000E+00 0. -1.
         -1   -1    0    0    0  501 -0.00000000000E+00 -0.00000000000E+00 -0.16912014540E+02  0.16912014540E+02  0.00000000000E+00 0.  1.
         24    1    1    2    0    0  0.34868068955E+02  0.38779130723E+02  0.24906466682E+03  0.26687080661E+03  0.80419002446E+02 0.  1.
        -24    1    1    2    0    0 -0.34868068955E+02 -0.38779130723E+02  0.27875852530E+03  0.29477641458E+03  0.80419002446E+02 0.  0.
<mgrwt>
<rscale>  0 0.95847896E+02</rscale>
<asrwt>0</asrwt>
<pdfrwt beam="1">  1        1 0.83805403E-01 0.95847896E+02</pdfrwt>
<pdfrwt beam="2">  1       -1 0.26018488E-02 0.95847896E+02</pdfrwt>
<totfact> 0.17142771E+04</totfact>
</mgrwt>
</event>
<event>
 4    1  0.4844629E-001  0.1086795E+03  0.7546771E-02  0.1263035E+00
         -1   -1    0    0    0  501 -0.00000000000E+00  0.00000000000E+00  0.22964054599E+03  0.22964054599E+03  0.00000000000E+00 0.  1.
          1   -1    0    0  501    0  0.00000000000E+00 -0.00000000000E+00 -0.73869065109E+02  0.73869065109E+02  0.00000000000E+00 0. -1.
         24    1    1    2    0    0 -0.44270179641E+02 -0.58173648911E+02  0.16151895036E+03  0.19467822044E+03  0.80419002446E+02 0.  1.
        -24    1    1    2    0    0  0.44270179641E+02  0.58173648911E+02 -0.57474694815E+01  0.10883139066E+03  0.80419002446E+02 0. -1.
<mgrwt>
<rscale>  0 0.10867952E+03</rscale>
<asrwt>0</asrwt>
<pdfrwt beam="1">  1        1 0.11364472E-01 0.10867952E+03</pdfrwt>
<pdfrwt beam="2">  1       -1 0.35329315E-01 0.10867952E+03</pdfrwt>
<totfact> 0.39270353E+03</totfact>
</mgrwt>
</event>
<event>
 4    1  0.4844629E-001  0.8662436E+02  0.7546771E-02  0.1311238E+00
          4   -1    0    0  501    0  0.00000000000E+00  0.00000000000E+00  0.14498101300E+04  0.14498101300E+04  0.00000000000E+00 0. -1.
         -4   -1    0    0    0  501 -0.00000000000E+00 -0.00000000000E+00 -0.84170540847E+02  0.84170540847E+02  0.00000000000E+00 0.  1.
         24    1    1    2    0    0  0.30355493335E+02  0.10728835411E+02  0.14258546753E+04  0.14284835788E+04  0.80419002446E+02 0. -1.
        -24    1    1    2    0    0 -0.30355493335E+02 -0.10728835411E+02 -0.60215086119E+02  0.10549709207E+03  0.80419002446E+02 0.  1.
<mgrwt>
<rscale>  0 0.86624361E+02</rscale>
<asrwt>0</asrwt>
<pdfrwt beam="1">  1        4 0.22304769E+00 0.86624361E+02</pdfrwt>
<pdfrwt beam="2">  1       -4 0.12949315E-01 0.86624361E+02</pdfrwt>
<totfact> 0.84159652E+00</totfact>
</mgrwt>
</event>
<event>
 4    1  0.4844629E-001  0.9647762E+02  0.7546771E-02  0.1287882E+00
          1   -1    0    0  501    0  0.00000000000E+00  0.00000000000E+00  0.79718178384E+03  0.79718178384E+03  0.00000000000E+00 0. -1.
         -1   -1    0    0    0  501 -0.00000000000E+00 -0.00000000000E+00 -0.41029127626E+02  0.41029127626E+02  0.00000000000E+00 0.  1.
         24    1    1    2    0    0 -0.41747888674E+02  0.33133498758E+02  0.23586297012E+02  0.99318902077E+02  0.80419002446E+02 0.  1.
        -24    1    1    2    0    0  0.41747888674E+02 -0.33133498758E+02  0.73256635920E+03  0.73889200939E+03  0.80419002446E+02 0. -1.
<mgrwt>
<rscale>  0 0.96477619E+02</rscale>
<asrwt>0</asrwt>
<pdfrwt beam="1">  1        1 0.12264334E+00 0.96477619E+02</pdfrwt>
<pdfrwt beam="2">  1       -1 0.63121741E-02 0.96477619E+02</pdfrwt>
<totfact> 0.27828383E+03</totfact>
</mgrwt>
</event>
<event>
 4    1  0.4844629E-001  0.8812860E+02  0.7546771E-02  0.1307448E+00
          2   -1    0    0  501    0  0.00000000000E+00  0.00000000000E+00  0.11345594210E+04  0.11345594210E+04  0.00000000000E+00 0. -1.
         -2   -1    0    0    0  501 -0.00000000000E+00 -0.00000000000E+00 -0.17670872292E+02  0.17670872292E+02  0.00000000000E+00 0.  1.
         24    1    1    2    0    0  0.77878300020E+01  0.35196367197E+02  0.10093661403E+04  0.10132061270E+04  0.80419002446E+02 0. -1.
        -24    1    1    2    0    0 -0.77878300020E+01 -0.35196367197E+02  0.10752240838E+03  0.13902416631E+03  0.80419002446E+02 0.  1.
<mgrwt>
<rscale>  0 0.88128602E+02</rscale>
<asrwt>0</asrwt>
<pdfrwt beam="1">  1        2 0.17454755E+00 0.88128602E+02</pdfrwt>
<pdfrwt beam="2">  1       -2 0.27185966E-02 0.88128602E+02</pdfrwt>
<totfact> 0.10087720E+04</totfact>
</mgrwt>
</event>
<event>
 4    1  0.4844629E-001  0.9658054E+02  0.7546771E-02  0.1287655E+00
         -2   -1    0    0    0  501 -0.00000000000E+00  0.00000000000E+00  0.89410219243E+01  0.89410219243E+01  0.00000000000E+00 0.  1.
          2   -1    0    0  501    0  0.00000000000E+00 -0.00000000000E+00 -0.11165555987E+04  0.11165555987E+04  0.00000000000E+00 0. -1.
         24    1    1    2    0    0 -0.53036484153E+02  0.69077005243E+01 -0.69799098390E+03  0.70464119561E+03  0.80419002446E+02 0. -1.
        -24    1    1    2    0    0  0.53036484153E+02 -0.69077005243E+01 -0.40962359292E+03  0.42085542507E+03  0.80419002446E+02 0.  1.
<mgrwt>
<rscale>  0 0.96580541E+02</rscale>
<asrwt>0</asrwt>
<pdfrwt beam="1">  1        2 0.17177785E+00 0.96580541E+02</pdfrwt>
<pdfrwt beam="2">  1       -2 0.13755413E-02 0.96580541E+02</pdfrwt>
<totfact> 0.27653766E+04</totfact>
</mgrwt>
</event>
<event>
 4    1  0.4844629E-001  0.8358156E+02  0.7546771E-02  0.1319184E+00
         -1   -1    0    0    0  501 -0.00000000000E+00  0.00000000000E+00  0.96602484065E+02  0.96602484065E+02  0.00000000000E+00 0.  1.
          1   -1    0    0  501    0  0.00000000000E+00 -0.00000000000E+00 -0.73340816334E+02  0.73340816334E+02  0.00000000000E+00 0. -1.
         24    1    1    2    0    0 -0.19158939677E+02  0.12312458973E+02  0.21676642023E+02  0.86346710298E+02  0.80419002446E+02 0.  0.
        -24    1    1    2    0    0  0.19158939677E+02 -0.12312458973E+02  0.15850257079E+01  0.83596590100E+02  0.80419002446E+02 0.  1.
<mgrwt>
<rscale>  0 0.83581562E+02</rscale>
<asrwt>0</asrwt>
<pdfrwt beam="1">  1        1 0.11283203E-01 0.83581562E+02</pdfrwt>
<pdfrwt beam="2">  1       -1 0.14861921E-01 0.83581562E+02</pdfrwt>
<totfact> 0.15710809E+04</totfact>
</mgrwt>
</event>
<event>
 4    1  0.4844629E-001  0.8236788E+02  0.7546771E-02  0.1322463E+00
         -2   -1    0    0    0  501 -0.00000000000E+00  0.00000000000E+00  0.10697107541E+02  0.10697107541E+02  0.00000000000E+00 0.  1.
          2   -1    0    0  501    0  0.00000000000E+00 -0.00000000000E+00 -0.65967648003E+03  0.65967648003E+03  0.00000000000E+00 0. -1.
         24    1    1    2    0    0  0.14111632976E+02  0.10867969196E+02 -0.39031653170E+03  0.39891284989E+03  0.80419002446E+02 0. -1.
        -24    1    1    2    0    0 -0.14111632976E+02 -0.10867969196E+02 -0.25866284079E+03  0.27146073768E+03  0.80419002446E+02 0.  1.
<mgrwt>
<rscale>  0 0.82367875E+02</rscale>
<asrwt>0</asrwt>
<pdfrwt beam="1">  1        2 0.10148872E+00 0.82367875E+02</pdfrwt>
<pdfrwt beam="2">  1       -2 0.16457083E-02 0.82367875E+02</pdfrwt>
<totfact> 0.41024892E+04</totfact>
</mgrwt>
</event>
<event>
 4    1  0.4844629E-001  0.1166037E+03  0.7546771E-02  0.1248807E+00
         -2   -1    0    0    0  501 -0.00000000000E+00  0.00000000000E+00  0.68317176042E+02  0.68317176042E+02  0.00000000000E+00 0.  1.
          2   -1    0    0  501    0  0.00000000000E+00 -0.00000000000E+00 -0.91331666823E+03  0.91331666823E+03  0.00000000000E+00 0. -1.
         24    1    1    2    0    0  0.30350513492E+02 -0.78791146802E+02 -0.85655843999E+03  0.86445866041E+03  0.80419002446E+02 0. -1.
        -24    1    1    2    0    0 -0.30350513492E+02  0.78791146802E+02  0.11558947806E+02  0.11717518386E+03  0.80419002446E+02 0.  1.
<mgrwt>
<rscale>  0 0.11660366E+03</rscale>
<asrwt>0</asrwt>
<pdfrwt beam="1">  1        2 0.14051026E+00 0.11660366E+03</pdfrwt>
<pdfrwt beam="2">  1       -2 0.10510335E-01 0.11660366E+03</pdfrwt>
<totfact> 0.18068733E+03</totfact>
</mgrwt>
</event>
<event>
 4    1  0.4844629E-001  0.8707615E+02  0.7546771E-02  0.1310091E+00
         -1   -1    0    0    0  501 -0.00000000000E+00  0.00000000000E+00  0.19320476158E+03  0.19320476158E+03  0.00000000000E+00 0.  1.
          1   -1    0    0  501    0  0.00000000000E+00 -0.00000000000E+00 -0.58604509480E+02  0.58604509480E+02  0.00000000000E+00 0. -1.
         24    1    1    2    0    0 -0.11703126772E+02  0.31274210183E+02  0.13966489514E+03  0.16458596017E+03  0.80419002446E+02 0.  1.
        -24    1    1    2    0    0  0.11703126772E+02 -0.31274210183E+02 -0.50646430331E+01  0.87223310888E+02  0.80419002446E+02 0.  1.
<mgrwt>
<rscale>  0 0.87076147E+02</rscale>
<asrwt>0</asrwt>
<pdfrwt beam="1">  1        1 0.90160785E-02 0.87076147E+02</pdfrwt>
<pdfrwt beam="2">  1       -1 0.29723809E-01 0.87076147E+02</pdfrwt>
<totfact> 0.69954643E+03</totfact>
</mgrwt>
</event>
<event>
 4    1  0.4844629E-001  0.9635393E+02  0.7546771E-02  0.1288155E+00
          2   -1    0    0  501    0  0.00000000000E+00  0.00000000000E+00  0.20813913929E+04  0.20813913929E+04  0.00000000000E+00 0. -1.
         -2   -1    0    0    0  501 -0.00000000000E+00 -0.00000000000E+00 -0.53360464718E+01  0.53360464718E+01  0.00000000000E+00 0.  1.
         24    1    1    2    0    0  0.41544705156E+02  0.33028797384E+02  0.14606588425E+04  0.14638334380E+04  0.80419002446E+02 0. -1.
        -24    1    1    2    0    0 -0.41544705156E+02 -0.33028797384E+02  0.61539650383E+03  0.62289400131E+03  0.80419002446E+02 0.  1.
<mgrwt>
<rscale>  0 0.96353931E+02</rscale>
<asrwt>0</asrwt>
<pdfrwt beam="1">  1        2 0.32021341E+00 0.96353931E+02</pdfrwt>
<pdfrwt beam="2">  1       -2 0.82093189E-03 0.96353931E+02</pdfrwt>
<totfact> 0.18299085E+04</totfact>
</mgrwt>
</event>
<event>
 4    1  0.4844629E-001  0.8286213E+02  0.7546771E-02  0.1321120E+00
         -2   -1    0    0    0  501 -0.00000000000E+00  0.00000000000E+00  0.34926830457E+02  0.34926830457E+02  0.00000000000E+00 0.  1.
          2   -1    0    0  501    0  0.00000000000E+00 -0.00000000000E+00 -0.20786613468E+03  0.20786613468E+03  0.00000000000E+00 0. -1.
         24    1    1    2    0    0 -0.16745265113E+02 -0.10886175621E+02 -0.58190274935E+02  0.10125332970E+03  0.80419002446E+02 0.  0.
        -24    1    1    2    0    0  0.16745265113E+02  0.10886175621E+02 -0.11474902929E+03  0.14153963544E+03  0.80419002446E+02 0. -1.
<mgrwt>
<rscale>  0 0.82862117E+02</rscale>
<asrwt>0</asrwt>
<pdfrwt beam="1">  1        2 0.31979406E-01 0.82862127E+02</pdfrwt>
<pdfrwt beam="2">  1       -2 0.53733585E-02 0.82862127E+02</pdfrwt>
<totfact> 0.25149616E+04</totfact>
</mgrwt>
</event>
<event>
 4    1  0.4844629E-001  0.8248620E+02  0.7546771E-02  0.1322140E+00
         -4   -1    0    0    0  501 -0.00000000000E+00  0.00000000000E+00  0.21539731129E+02  0.21539731129E+02  0.00000000000E+00 0.  1.
          4   -1    0    0  501    0  0.00000000000E+00 -0.00000000000E+00 -0.37370195097E+03  0.37370195097E+03  0.00000000000E+00 0. -1.
         24    1    1    2    0    0  0.17034111873E+02  0.68261898725E+01 -0.25381596932E+03  0.26688297074E+03  0.80419002446E+02 0.  0.
        -24    1    1    2    0    0 -0.17034111873E+02 -0.68261898725E+01 -0.98346250518E+02  0.12835871136E+03  0.80419002446E+02 0.  0.
<mgrwt>
<rscale>  0 0.82486204E+02</rscale>
<asrwt>0</asrwt>
<pdfrwt beam="1">  1        4 0.57492610E-01 0.82486204E+02</pdfrwt>
<pdfrwt beam="2">  1       -4 0.33138047E-02 0.82486204E+02</pdfrwt>
<totfact> 0.19454560E+03</totfact>
</mgrwt>
</event>
<event>
 4    1  0.4844629E-001  0.1029081E+03  0.7546771E-02  0.1274297E+00
          3   -1    0    0  501    0  0.00000000000E+00  0.00000000000E+00  0.20567175150E+02  0.20567175150E+02  0.00000000000E+00 0. -1.
         -3   -1    0    0    0  501 -0.00000000000E+00 -0.00000000000E+00 -0.68910679947E+03  0.68910679947E+03  0.00000000000E+00 0.  1.
         24    1    1    2    0    0  0.56852625315E+02  0.29843529135E+02 -0.51267852637E+03  0.52290471847E+03  0.80419002446E+02 0.  1.
        -24    1    1    2    0    0 -0.56852625315E+02 -0.29843529135E+02 -0.15586109795E+03  0.18676925616E+03  0.80419002446E+02 0. -1.
<mgrwt>
<rscale>  0 0.10290808E+03</rscale>
<asrwt>0</asrwt>
<pdfrwt beam="1">  1        3 0.31641813E-02 0.10290808E+03</pdfrwt>
<pdfrwt beam="2">  1       -3 0.10601641E+00 0.10290808E+03</pdfrwt>
<totfact> 0.81935647E+02</totfact>
</mgrwt>
</event>
<event>
 4    1  0.4844629E-001  0.1120961E+03  0.7546771E-02  0.1256737E+00
         -2   -1    0    0    0  501 -0.00000000000E+00  0.00000000000E+00  0.30211432125E+02  0.30211432125E+02  0.00000000000E+00 0.  1.
          2   -1    0    0  501    0  0.00000000000E+00 -0.00000000000E+00 -0.54463408641E+03  0.54463408641E+03  0.00000000000E+00 0. -1.
         24    1    1    2    0    0  0.16924348048E+02 -0.76235744489E+02 -0.39693880432E+03  0.41246327427E+03  0.80419002446E+02 0. -1.
        -24    1    1    2    0    0 -0.16924348048E+02  0.76235744489E+02 -0.11748384997E+03  0.16238224426E+03  0.80419002446E+02 0.  0.
<mgrwt>
<rscale>  0 0.11209611E+03</rscale>
<asrwt>0</asrwt>
<pdfrwt beam="1">  1        2 0.83789864E-01 0.11209611E+03</pdfrwt>
<pdfrwt beam="2">  1       -2 0.46479124E-02 0.11209611E+03</pdfrwt>
<totfact> 0.11585215E+04</totfact>
</mgrwt>
</event>
<event>
 4    1  0.4844629E-001  0.1653142E+03  0.7546771E-02  0.1182824E+00
          1   -1    0    0  501    0  0.00000000000E+00  0.00000000000E+00  0.27553935303E+04  0.27553935303E+04  0.00000000000E+00 0. -1.
         -1   -1    0    0    0  501 -0.00000000000E+00 -0.00000000000E+00 -0.12015776834E+02  0.12015776834E+02  0.00000000000E+00 0.  1.
         24    1    1    2    0    0  0.11620339459E+03  0.85780605098E+02  0.19498094333E+04  0.19568049426E+04  0.80419002446E+02 0. -1.
        -24    1    1    2    0    0 -0.11620339459E+03 -0.85780605098E+02  0.79356832017E+03  0.81060436457E+03  0.80419002446E+02 0.  1.
<mgrwt>
<rscale>  0 0.16531414E+03</rscale>
<asrwt>0</asrwt>
<pdfrwt beam="1">  1        1 0.42390619E+00 0.16531416E+03</pdfrwt>
<pdfrwt beam="2">  1       -1 0.18485832E-02 0.16531416E+03</pdfrwt>
<totfact> 0.83472485E+02</totfact>
</mgrwt>
</event>
<event>
 4    1  0.4844629E-001  0.9142610E+02  0.7546771E-02  0.1299434E+00
          2   -1    0    0  501    0  0.00000000000E+00  0.00000000000E+00  0.98795381466E+01  0.98795381466E+01  0.00000000000E+00 0. -1.
         -2   -1    0    0    0  501 -0.00000000000E+00 -0.00000000000E+00 -0.12226270313E+04  0.12226270313E+04  0.00000000000E+00 0.  1.
         24    1    1    2    0    0  0.11914486566E+02  0.41827760060E+02 -0.26437032164E+03  0.27973272855E+03  0.80419002446E+02 0. -1.
        -24    1    1    2    0    0 -0.11914486566E+02 -0.41827760060E+02 -0.94837717156E+03  0.95277384095E+03  0.80419002446E+02 0.  1.
<mgrwt>
<rscale>  0 0.91426104E+02</rscale>
<asrwt>0</asrwt>
<pdfrwt beam="1">  1        2 0.15199296E-02 0.91426104E+02</pdfrwt>
<pdfrwt beam="2">  1       -2 0.18809638E+00 0.91426104E+02</pdfrwt>
<totfact> 0.12926235E+03</totfact>
</mgrwt>
</event>
<event>
 4    1  0.4844629E-001  0.9326597E+02  0.7546771E-02  0.1295130E+00
         -2   -1    0    0    0  501 -0.00000000000E+00  0.00000000000E+00  0.25181018919E+02  0.25181018919E+02  0.00000000000E+00 0.  1.
          2   -1    0    0  501    0  0.00000000000E+00 -0.00000000000E+00 -0.50381732679E+03  0.50381732679E+03  0.00000000000E+00 0. -1.
         24    1    1    2    0    0  0.33640617245E+02  0.33160731594E+02 -0.38761561878E+03  0.39867832789E+03  0.80419002446E+02 0. -1.
        -24    1    1    2    0    0 -0.33640617245E+02 -0.33160731594E+02 -0.91020689087E+02  0.13032001782E+03  0.80419002446E+02 0.  1.
<mgrwt>
<rscale>  0 0.93265970E+02</rscale>
<asrwt>0</asrwt>
<pdfrwt beam="1">  1        2 0.77510353E-01 0.93265970E+02</pdfrwt>
<pdfrwt beam="2">  1       -2 0.38740032E-02 0.93265970E+02</pdfrwt>
<totfact> 0.16261714E+04</totfact>
</mgrwt>
</event>
<event>
 4    1  0.4844629E-001  0.8872217E+02  0.7546771E-02  0.1305976E+00
         -1   -1    0    0    0  501 -0.00000000000E+00  0.00000000000E+00  0.61749493487E+03  0.61749493487E+03  0.00000000000E+00 0.  1.
          1   -1    0    0  501    0  0.00000000000E+00 -0.00000000000E+00 -0.19539257281E+02  0.19539257281E+02  0.00000000000E+00 0. -1.
         24    1    1    2    0    0  0.17960326167E+02  0.32891247975E+02  0.48676429725E+03  0.49478389681E+03  0.80419002446E+02 0.  1.
        -24    1    1    2    0    0 -0.17960326167E+02 -0.32891247975E+02  0.11119138034E+03  0.14225029535E+03  0.80419002446E+02 0. -1.
<mgrwt>
<rscale>  0 0.88722170E+02</rscale>
<asrwt>0</asrwt>
<pdfrwt beam="1">  1        1 0.30060401E-02 0.88722170E+02</pdfrwt>
<pdfrwt beam="2">  1       -1 0.94999206E-01 0.88722170E+02</pdfrwt>
<totfact> 0.35765074E+03</totfact>
</mgrwt>
</event>
<event>
 4    1  0.4844629E-001  0.8121825E+02  0.7546771E-02  0.1325629E+00
          1   -1    0    0  501    0  0.00000000000E+00  0.00000000000E+00  0.82472491513E+03  0.82472491513E+03  0.00000000000E+00 0. -1.
         -1   -1    0    0    0  501 -0.00000000000E+00 -0.00000000000E+00 -0.13149855371E+02  0.13149855371E+02  0.00000000000E+00 0.  1.
         24    1    1    2    0    0  0.44599144256E+01  0.10454519949E+02  0.14357255875E+03  0.16495297331E+03  0.80419002446E+02 0.  1.
        -24    1    1    2    0    0 -0.44599144256E+01 -0.10454519949E+02  0.66800250101E+03  0.67292179719E+03  0.80419002446E+02 0.  0.
<mgrwt>
<rscale>  0 0.81218248E+02</rscale>
<asrwt>0</asrwt>
<pdfrwt beam="1">  1        1 0.12688072E+00 0.81218248E+02</pdfrwt>
<pdfrwt beam="2">  1       -1 0.20230553E-02 0.81218248E+02</pdfrwt>
<totfact> 0.13597189E+04</totfact>
</mgrwt>
</event>
<event>
 4    1  0.4844629E-001  0.8185667E+02  0.7546771E-02  0.1323864E+00
         -2   -1    0    0    0  501 -0.00000000000E+00  0.00000000000E+00  0.67858061479E+01  0.67858061479E+01  0.00000000000E+00 0.  1.
          2   -1    0    0  501    0  0.00000000000E+00 -0.00000000000E+00 -0.11572549774E+04  0.11572549774E+04  0.00000000000E+00 0. -1.
         24    1    1    2    0    0  0.14318974738E+02 -0.53164884565E+01 -0.79819277198E+03  0.80237909698E+03  0.80419002446E+02 0.  0.
        -24    1    1    2    0    0 -0.14318974738E+02  0.53164884565E+01 -0.35227639927E+03  0.36166168656E+03  0.80419002446E+02 0.  0.
<mgrwt>
<rscale>  0 0.81856668E+02</rscale>
<asrwt>0</asrwt>
<pdfrwt beam="1">  1        2 0.17803907E+00 0.81856668E+02</pdfrwt>
<pdfrwt beam="2">  1       -2 0.10439711E-02 0.81856668E+02</pdfrwt>
<totfact> 0.38226409E+04</totfact>
</mgrwt>
</event>
<event>
 4    1  0.4844629E-001  0.1044379E+03  0.7546771E-02  0.1271231E+00
         -2   -1    0    0    0  501 -0.00000000000E+00  0.00000000000E+00  0.32407554616E+03  0.32407554616E+03  0.00000000000E+00 0.  1.
          2   -1    0    0  501    0  0.00000000000E+00 -0.00000000000E+00 -0.22209481813E+03  0.22209481813E+03  0.00000000000E+00 0. -1.
         24    1    1    2    0    0 -0.30937185080E+02  0.59016574056E+02 -0.20055331923E+03  0.22611703882E+03  0.80419002446E+02 0. -1.
        -24    1    1    2    0    0  0.30937185080E+02 -0.59016574056E+02  0.30253404727E+03  0.32005332547E+03  0.80419002446E+02 0.  1.
<mgrwt>
<rscale>  0 0.10443793E+03</rscale>
<asrwt>0</asrwt>
<pdfrwt beam="1">  1        2 0.34168434E-01 0.10443793E+03</pdfrwt>
<pdfrwt beam="2">  1       -2 0.49857776E-01 0.10443793E+03</pdfrwt>
<totfact> 0.58234721E+02</totfact>
</mgrwt>
</event>
<event>
 4    1  0.4844629E-001  0.1230018E+03  0.7546771E-02  0.1238226E+00
         -1   -1    0    0    0  501 -0.00000000000E+00  0.00000000000E+00  0.12280021609E+02  0.12280021609E+02  0.00000000000E+00 0.  1.
          1   -1    0    0  501    0  0.00000000000E+00 -0.00000000000E+00 -0.17430971218E+04  0.17430971218E+04  0.00000000000E+00 0. -1.
         24    1    1    2    0    0  0.14633709337E+02  0.91913441937E+02 -0.39016568535E+03  0.40909498192E+03  0.80419002446E+02 0.  1.
        -24    1    1    2    0    0 -0.14633709337E+02 -0.91913441937E+02 -0.13406514148E+04  0.13462821614E+04  0.80419002446E+02 0. -1.
<mgrwt>
<rscale>  0 0.12300180E+03</rscale>
<asrwt>0</asrwt>
<pdfrwt beam="1">  1        1 0.26816876E+00 0.12300180E+03</pdfrwt>
<pdfrwt beam="2">  1       -1 0.18892343E-02 0.12300180E+03</pdfrwt>
<totfact> 0.36528085E+03</totfact>
</mgrwt>
</event>
<event>
 4    1  0.4844629E-001  0.1074093E+03  0.7546771E-02  0.1265444E+00
         -2   -1    0    0    0  501 -0.00000000000E+00  0.00000000000E+00  0.20871725746E+02  0.20871725746E+02  0.00000000000E+00 0.  1.
          2   -1    0    0  501    0  0.00000000000E+00 -0.00000000000E+00 -0.59112250824E+03  0.59112250824E+03  0.00000000000E+00 0. -1.
         24    1    1    2    0    0 -0.64505952936E+02  0.30141561201E+02 -0.36309322354E+03  0.37864684947E+03  0.80419002446E+02 0. -1.
        -24    1    1    2    0    0  0.64505952936E+02 -0.30141561201E+02 -0.20715755895E+03  0.23334738452E+03  0.80419002446E+02 0.  0.
<mgrwt>
<rscale>  0 0.10740925E+03</rscale>
<asrwt>0</asrwt>
<pdfrwt beam="1">  1        2 0.90941936E-01 0.10740925E+03</pdfrwt>
<pdfrwt beam="2">  1       -2 0.32110343E-02 0.10740925E+03</pdfrwt>
<totfact> 0.18188612E+04</totfact>
</mgrwt>
</event>
<event>
 4    1  0.4844629E-001  0.1234380E+03  0.7546771E-02  0.1237531E+00
          1   -1    0    0  501    0  0.00000000000E+00  0.00000000000E+00  0.10465891659E+04  0.10465891659E+04  0.00000000000E+00 0. -1.
         -1   -1    0    0    0  501 -0.00000000000E+00 -0.00000000000E+00 -0.14787781791E+02  0.14787781791E+02  0.00000000000E+00 0.  1.
         24    1    1    2    0    0  0.75291223169E+02  0.55686213320E+02  0.58195768941E+03  0.59490477462E+03  0.80419002446E+02 0. -1.
        -24    1    1    2    0    0 -0.75291223169E+02 -0.55686213320E+02  0.44984369469E+03  0.46647217306E+03  0.80419002446E+02 0.  1.
<mgrwt>
<rscale>  0 0.12343801E+03</rscale>
<asrwt>0</asrwt>
<pdfrwt beam="1">  1        1 0.16101366E+00 0.12343803E+03</pdfrwt>
<pdfrwt beam="2">  1       -1 0.22750442E-02 0.12343803E+03</pdfrwt>
<totfact> 0.80750820E+03</totfact>
</mgrwt>
</event>
<event>
 4    1  0.4844629E-001  0.8530485E+02  0.7546771E-02  0.1314637E+00
         -1   -1    0    0    0  501 -0.00000000000E+00  0.00000000000E+00  0.62369597517E+01  0.62369597517E+01  0.00000000000E+00 0.  1.
          1   -1    0    0  501    0  0.00000000000E+00 -0.00000000000E+00 -0.11970635075E+04  0.11970635075E+04  0.00000000000E+00 0. -1.
         24    1    1    2    0    0 -0.29591188423E+01  0.28300968321E+02 -0.49965694475E+03  0.50688655495E+03  0.80419002446E+02 0.  0.
        -24    1    1    2    0    0  0.29591188423E+01 -0.28300968321E+02 -0.69116960302E+03  0.69641391233E+03  0.80419002446E+02 0.  1.
<mgrwt>
<rscale>  0 0.85304848E+02</rscale>
<asrwt>0</asrwt>
<pdfrwt beam="1">  1        1 0.18416362E+00 0.85304848E+02</pdfrwt>
<pdfrwt beam="2">  1       -1 0.95953227E-03 0.85304848E+02</pdfrwt>
<totfact> 0.21168508E+04</totfact>
</mgrwt>
</event>
<event>
 4    1  0.4844629E-001  0.8155979E+02  0.7546771E-02  0.1324682E+00
          2   -1    0    0  501    0  0.00000000000E+00  0.00000000000E+00  0.61421947365E+03  0.61421947365E+03  0.00000000000E+00 0. -1.
         -2   -1    0    0    0  501 -0.00000000000E+00 -0.00000000000E+00 -0.10884060971E+02  0.10884060971E+02  0.00000000000E+00 0.  1.
         24    1    1    2    0    0 -0.36870411561E+01 -0.13083934443E+02  0.32369448314E+03  0.33381150067E+03  0.80419002446E+02 0.  1.
        -24    1    1    2    0    0  0.36870411561E+01  0.13083934443E+02  0.27964092954E+03  0.29129203394E+03  0.80419002446E+02 0. -1.
<mgrwt>
<rscale>  0 0.81559791E+02</rscale>
<asrwt>0</asrwt>
<pdfrwt beam="1">  1        2 0.94495276E-01 0.81559791E+02</pdfrwt>
<pdfrwt beam="2">  1       -2 0.16744714E-02 0.81559791E+02</pdfrwt>
<totfact> 0.43336961E+04</totfact>
</mgrwt>
</event>
<event>
 4    1  0.4844629E-001  0.1003778E+03  0.7546771E-02  0.1279503E+00
         -1   -1    0    0    0  501 -0.00000000000E+00  0.00000000000E+00  0.77639431258E+02  0.77639431258E+02  0.00000000000E+00 0.  1.
          1   -1    0    0  501    0  0.00000000000E+00 -0.00000000000E+00 -0.13528388055E+03  0.13528388055E+03  0.00000000000E+00 0. -1.
         24    1    1    2    0    0  0.57675532957E+02 -0.16793513738E+02 -0.73400860767E+01  0.10064582467E+03  0.80419002446E+02 0.  1.
        -24    1    1    2    0    0 -0.57675532957E+02  0.16793513738E+02 -0.50304363218E+02  0.11227748714E+03  0.80419002446E+02 0. -1.
<mgrwt>
<rscale>  0 0.10037781E+03</rscale>
<asrwt>0</asrwt>
<pdfrwt beam="1">  1        1 0.20812904E-01 0.10037781E+03</pdfrwt>
<pdfrwt beam="2">  1       -1 0.11944528E-01 0.10037781E+03</pdfrwt>
<totfact> 0.10245158E+04</totfact>
</mgrwt>
</event>
<event>
 4    1  0.4844629E-001  0.8597854E+02  0.7546771E-02  0.1312893E+00
          1   -1    0    0  501    0  0.00000000000E+00  0.00000000000E+00  0.12481802035E+04  0.12481802035E+04  0.00000000000E+00 0. -1.
         -1   -1    0    0    0  501 -0.00000000000E+00 -0.00000000000E+00 -0.59568792002E+01  0.59568792002E+01  0.00000000000E+00 0.  1.
         24    1    1    2    0    0 -0.27887372552E+02  0.12140334425E+02  0.57345255767E+03  0.57986217769E+03  0.80419002446E+02 0.  1.
        -24    1    1    2    0    0  0.27887372552E+02 -0.12140334425E+02  0.66877076664E+03  0.67427490502E+03  0.80419002446E+02 0. -1.
<mgrwt>
<rscale>  0 0.85978539E+02</rscale>
<asrwt>0</asrwt>
<pdfrwt beam="1">  1        1 0.19202752E+00 0.85978539E+02</pdfrwt>
<pdfrwt beam="2">  1       -1 0.91644395E-03 0.85978539E+02</pdfrwt>
<totfact> 0.20889966E+04</totfact>
</mgrwt>
</event>
<event>
 4    1  0.4844629E-001  0.8422083E+02  0.7546771E-02  0.1317483E+00
         -1   -1    0    0    0  501 -0.00000000000E+00  0.00000000000E+00  0.39754444951E+03  0.39754444951E+03  0.00000000000E+00 0.  1.
          1   -1    0    0  501    0  0.00000000000E+00 -0.00000000000E+00 -0.20066949650E+02  0.20066949650E+02  0.00000000000E+00 0. -1.
         24    1    1    2    0    0 -0.61798387030E+01 -0.24243373990E+02  0.25826080605E+03  0.27164644574E+03  0.80419002446E+02 0.  1.
        -24    1    1    2    0    0  0.61798387030E+01  0.24243373990E+02  0.11921669382E+03  0.14596495342E+03  0.80419002446E+02 0. -1.
<mgrwt>
<rscale>  0 0.84220826E+02</rscale>
<asrwt>0</asrwt>
<pdfrwt beam="1">  1        1 0.30872233E-02 0.84220826E+02</pdfrwt>
<pdfrwt beam="2">  1       -1 0.61160679E-01 0.84220826E+02</pdfrwt>
<totfact> 0.82837790E+03</totfact>
</mgrwt>
</event>
<event>
 4    1  0.4844629E-001  0.8048516E+02  0.7546771E-02  0.1327680E+00
          1   -1    0    0  501    0  0.00000000000E+00  0.00000000000E+00  0.74474545948E+03  0.74474545948E+03  0.00000000000E+00 0. -1.
         -1   -1    0    0    0  501 -0.00000000000E+00 -0.00000000000E+00 -0.88712590180E+01  0.88712590180E+01  0.00000000000E+00 0.  1.
         24    1    1    2    0    0 -0.24610974601E+01 -0.21421037506E+01  0.31529108910E+03  0.32540180151E+03  0.80419002446E+02 0.  0.
        -24    1    1    2    0    0  0.24610974601E+01  0.21421037506E+01  0.42058311137E+03  0.42821491699E+03  0.80419002446E+02 0. -1.
<mgrwt>
<rscale>  0 0.80485164E+02</rscale>
<asrwt>0</asrwt>
<pdfrwt beam="1">  1        1 0.11457618E+00 0.80485164E+02</pdfrwt>
<pdfrwt beam="2">  1       -1 0.13648097E-02 0.80485164E+02</pdfrwt>
<totfact> 0.27548289E+04</totfact>
</mgrwt>
</event>
<event>
 4    1  0.4844629E-001  0.8129390E+02  0.7546771E-02  0.1325419E+00
         -1   -1    0    0    0  501 -0.00000000000E+00  0.00000000000E+00  0.50223585393E+02  0.50223585393E+02  0.00000000000E+00 0.  1.
          1   -1    0    0  501    0  0.00000000000E+00 -0.00000000000E+00 -0.14539038111E+03  0.14539038111E+03  0.00000000000E+00 0. -1.
         24    1    1    2    0    0  0.10227092393E+02  0.60736394464E+01 -0.17445187372E+02  0.83144651252E+02  0.80419002446E+02 0.  1.
        -24    1    1    2    0    0 -0.10227092393E+02 -0.60736394464E+01 -0.77721608343E+02  0.11246931525E+03  0.80419002446E+02 0. -1.
<mgrwt>
<rscale>  0 0.81293902E+02</rscale>
<asrwt>0</asrwt>
<pdfrwt beam="1">  1        1 0.22367750E-01 0.81293902E+02</pdfrwt>
<pdfrwt beam="2">  1       -1 0.77267057E-02 0.81293902E+02</pdfrwt>
<totfact> 0.17668985E+04</totfact>
</mgrwt>
</event>
<event>
 4    1  0.4844629E-001  0.8142807E+02  0.7546771E-02  0.1325047E+00
         -1   -1    0    0    0  501 -0.00000000000E+00  0.00000000000E+00  0.25213427904E+02  0.25213427904E+02  0.00000000000E+00 0.  1.
          1   -1    0    0  501    0  0.00000000000E+00 -0.00000000000E+00 -0.23516562104E+04  0.23516562104E+04  0.00000000000E+00 0. -1.
         24    1    1    2    0    0  0.23714349812E+01 -0.12557501606E+02 -0.43204917940E+02  0.92180233451E+02  0.80419002446E+02 0.  1.
        -24    1    1    2    0    0 -0.23714349812E+01  0.12557501606E+02 -0.22832378646E+04  0.22846894049E+04  0.80419002446E+02 0. -1.
<mgrwt>
<rscale>  0 0.81428070E+02</rscale>
<asrwt>0</asrwt>
<pdfrwt beam="1">  1        1 0.36179329E+00 0.81428070E+02</pdfrwt>
<pdfrwt beam="2">  1       -1 0.38789886E-02 0.81428070E+02</pdfrwt>
<totfact> 0.53653516E+02</totfact>
</mgrwt>
</event>
<event>
 4    1  0.4844629E-001  0.8702108E+02  0.7546771E-02  0.1310230E+00
         -1   -1    0    0    0  501 -0.00000000000E+00  0.00000000000E+00  0.14939863302E+03  0.14939863302E+03  0.00000000000E+00 0.  1.
          1   -1    0    0  501    0  0.00000000000E+00 -0.00000000000E+00 -0.35359987928E+03  0.35359987928E+03  0.00000000000E+00 0. -1.
         24    1    1    2    0    0 -0.50082548640E+01 -0.32868980498E+02  0.13067582701E+03  0.15699949113E+03  0.80419002446E+02 0.  1.
        -24    1    1    2    0    0  0.50082548640E+01  0.32868980498E+02 -0.33487707327E+03  0.34599902117E+03  0.80419002446E+02 0. -1.
<mgrwt>
<rscale>  0 0.87021080E+02</rscale>
<asrwt>0</asrwt>
<pdfrwt beam="1">  1        1 0.54399981E-01 0.87021080E+02</pdfrwt>
<pdfrwt beam="2">  1       -1 0.22984405E-01 0.87021080E+02</pdfrwt>
<totfact> 0.11181845E+03</totfact>
</mgrwt>
</event>
<event>
 4    1  0.4844629E-001  0.1534730E+03  0.7546771E-02  0.1196269E+00
         -2   -1    0    0    0  501 -0.00000000000E+00  0.00000000000E+00  0.96077773947E+03  0.96077773947E+03  0.00000000000E+00 0.  1.
          2   -1    0    0  501    0  0.00000000000E+00 -0.00000000000E+00 -0.24803116544E+02  0.24803116544E+02  0.00000000000E+00 0. -1.
         24    1    1    2    0    0  0.12885699935E+03 -0.21968702579E+02  0.41492321451E+03  0.44239715196E+03  0.80419002446E+02 0. -1.
        -24    1    1    2    0    0 -0.12885699935E+03  0.21968702579E+02  0.52105140842E+03  0.54318370405E+03  0.80419002446E+02 0.  1.
<mgrwt>
<rscale>  0 0.15347301E+03</rscale>
<asrwt>0</asrwt>
<pdfrwt beam="1">  1        2 0.38158648E-02 0.15347301E+03</pdfrwt>
<pdfrwt beam="2">  1       -2 0.14781193E+00 0.15347301E+03</pdfrwt>
<totfact> 0.72821828E+02</totfact>
</mgrwt>
</event>
<event>
 4    1  0.4844629E-001  0.8264878E+02  0.7546771E-02  0.1321698E+00
          2   -1    0    0  501    0  0.00000000000E+00  0.00000000000E+00  0.36085250143E+03  0.36085250143E+03  0.00000000000E+00 0. -1.
         -2   -1    0    0    0  501 -0.00000000000E+00 -0.00000000000E+00 -0.71320295347E+02  0.71320295347E+02  0.00000000000E+00 0.  1.
         24    1    1    2    0    0  0.18115264364E+02  0.59533570685E+01  0.32996893683E+03  0.34016219732E+03  0.80419002446E+02 0. -1.
        -24    1    1    2    0    0 -0.18115264364E+02 -0.59533570685E+01 -0.40436730747E+02  0.92010599450E+02  0.80419002446E+02 0.  1.
<mgrwt>
<rscale>  0 0.82648782E+02</rscale>
<asrwt>0</asrwt>
<pdfrwt beam="1">  1        2 0.55515769E-01 0.82648782E+02</pdfrwt>
<pdfrwt beam="2">  1       -2 0.10972353E-01 0.82648782E+02</pdfrwt>
<totfact> 0.47632760E+03</totfact>
</mgrwt>
</event>
<event>
 4    1  0.4844629E-001  0.8067116E+02  0.7546771E-02  0.1327157E+00
          2   -1    0    0  501    0  0.00000000000E+00  0.00000000000E+00  0.16303075821E+03  0.16303075821E+03  0.00000000000E+00 0. -1.
         -2   -1    0    0    0  501 -0.00000000000E+00 -0.00000000000E+00 -0.40194152945E+02  0.40194152945E+02  0.00000000000E+00 0.  1.
         24    1    1    2    0    0  0.45544528281E+01  0.44583738975E+01  0.69843194431E+02  0.10670476981E+03  0.80419002446E+02 0.  0.
        -24    1    1    2    0    0 -0.45544528281E+01 -0.44583738975E+01  0.52993410836E+02  0.96520141343E+02  0.80419002446E+02 0. -1.
<mgrwt>
<rscale>  0 0.80671160E+02</rscale>
<asrwt>0</asrwt>
<pdfrwt beam="1">  1        2 0.25081655E-01 0.80671160E+02</pdfrwt>
<pdfrwt beam="2">  1       -2 0.61837159E-02 0.80671160E+02</pdfrwt>
<totfact> 0.26373438E+04</totfact>
</mgrwt>
</event>
<event>
 4    1  0.4844629E-001  0.9136503E+02  0.7546771E-02  0.1299579E+00
          2   -1    0    0  501    0  0.00000000000E+00  0.00000000000E+00  0.17814860966E+04  0.17814860966E+04  0.00000000000E+00 0. -1.
         -2   -1    0    0    0  501 -0.00000000000E+00 -0.00000000000E+00 -0.64513043982E+02  0.64513043982E+02  0.00000000000E+00 0.  1.
         24    1    1    2    0    0  0.14506248182E+02 -0.40864675819E+02  0.17473344699E+04  0.17497214974E+04  0.80419002446E+02 0. -1.
        -24    1    1    2    0    0 -0.14506248182E+02  0.40864675819E+02 -0.30361417235E+02  0.96277643184E+02  0.80419002446E+02 0.  1.
<mgrwt>
<rscale>  0 0.91365031E+02</rscale>
<asrwt>0</asrwt>
<pdfrwt beam="1">  1        2 0.27407475E+00 0.91365031E+02</pdfrwt>
<pdfrwt beam="2">  1       -2 0.99250851E-02 0.91365031E+02</pdfrwt>
<totfact> 0.67542132E+02</totfact>
</mgrwt>
</event>
<event>
 4    1  0.4844629E-001  0.1108959E+03  0.7546771E-02  0.1258920E+00
          1   -1    0    0  501    0  0.00000000000E+00  0.00000000000E+00  0.41208576400E+03  0.41208576400E+03  0.00000000000E+00 0. -1.
         -1   -1    0    0    0  501 -0.00000000000E+00 -0.00000000000E+00 -0.34656955183E+02  0.34656955183E+02  0.00000000000E+00 0.  1.
         24    1    1    2    0    0 -0.72616524200E+02  0.23612005726E+02  0.10546514819E+03  0.15303855671E+03  0.80419002446E+02 0.  1.
        -24    1    1    2    0    0  0.72616524200E+02 -0.23612005726E+02  0.27196366062E+03  0.29370416247E+03  0.80419002446E+02 0. -1.
<mgrwt>
<rscale>  0 0.11089591E+03</rscale>
<asrwt>0</asrwt>
<pdfrwt beam="1">  1        1 0.63397806E-01 0.11089591E+03</pdfrwt>
<pdfrwt beam="2">  1       -1 0.53318396E-02 0.11089591E+03</pdfrwt>
<totfact> 0.87340394E+03</totfact>
</mgrwt>
</event>
<event>
 4    1  0.4844629E-001  0.8343654E+02  0.7546771E-02  0.1319573E+00
         -1   -1    0    0    0  501 -0.00000000000E+00  0.00000000000E+00  0.56870951423E+02  0.56870951423E+02  0.00000000000E+00 0.  1.
          1   -1    0    0  501    0  0.00000000000E+00 -0.00000000000E+00 -0.12885986997E+03  0.12885986997E+03  0.00000000000E+00 0. -1.
         24    1    1    2    0    0  0.13407351872E+02 -0.17739304700E+02 -0.15220389151E+02  0.84813420022E+02  0.80419002446E+02 0.  1.
        -24    1    1    2    0    0 -0.13407351872E+02  0.17739304700E+02 -0.56768529397E+02  0.10091740137E+03  0.80419002446E+02 0. -1.
<mgrwt>
<rscale>  0 0.83436539E+02</rscale>
<asrwt>0</asrwt>
<pdfrwt beam="1">  1        1 0.19824595E-01 0.83436539E+02</pdfrwt>
<pdfrwt beam="2">  1       -1 0.87493773E-02 0.83436539E+02</pdfrwt>
<totfact> 0.17116705E+04</totfact>
</mgrwt>
</event>
<event>
 4    1  0.4844629E-001  0.8534259E+02  0.7546771E-02  0.1314539E+00
         -2   -1    0    0    0  501 -0.00000000000E+00  0.00000000000E+00  0.58970250624E+02  0.58970250624E+02  0.00000000000E+00 0.  1.
          2   -1    0    0  501    0  0.00000000000E+00 -0.00000000000E+00 -0.18095333099E+03  0.18095333099E+03  0.00000000000E+00 0. -1.
         24    1    1    2    0    0  0.18731836582E+02 -0.21569902769E+02 -0.12858164653E+03  0.15432627186E+03  0.80419002446E+02 0. -1.
        -24    1    1    2    0    0 -0.18731836582E+02  0.21569902769E+02  0.65985661654E+01  0.85597309753E+02  0.80419002446E+02 0.  1.
<mgrwt>
<rscale>  0 0.85342594E+02</rscale>
<asrwt>0</asrwt>
<pdfrwt beam="1">  1        2 0.27838974E-01 0.85342594E+02</pdfrwt>
<pdfrwt beam="2">  1       -2 0.90723464E-02 0.85342594E+02</pdfrwt>
<totfact> 0.13251268E+04</totfact>
</mgrwt>
</event>
<event>
 4    1  0.4844629E-001  0.8890203E+02  0.7546771E-02  0.1305533E+00
         -1   -1    0    0    0  501 -0.00000000000E+00  0.00000000000E+00  0.22028594827E+02  0.22028594827E+02  0.00000000000E+00 0.  1.
          1   -1    0    0  501    0  0.00000000000E+00 -0.00000000000E+00 -0.37584671256E+03  0.37584671256E+03  0.00000000000E+00 0. -1.
         24    1    1    2    0    0 -0.27635404278E+02 -0.25935281567E+02 -0.13452532066E+03  0.16124711548E+03  0.80419002446E+02 0.  1.
        -24    1    1    2    0    0  0.27635404278E+02  0.25935281567E+02 -0.21929279708E+03  0.23662819190E+03  0.80419002446E+02 0.  1.
<mgrwt>
<rscale>  0 0.88902027E+02</rscale>
<asrwt>0</asrwt>
<pdfrwt beam="1">  1        1 0.57822571E-01 0.88902027E+02</pdfrwt>
<pdfrwt beam="2">  1       -1 0.33890146E-02 0.88902027E+02</pdfrwt>
<totfact> 0.18603982E+04</totfact>
</mgrwt>
</event>
<event>
 4    1  0.4844629E-001  0.9212805E+02  0.7546771E-02  0.1297779E+00
          1   -1    0    0  501    0  0.00000000000E+00  0.00000000000E+00  0.28843668442E+03  0.28843668442E+03  0.00000000000E+00 0. -1.
         -1   -1    0    0    0  501 -0.00000000000E+00 -0.00000000000E+00 -0.49154132334E+02  0.49154132334E+02  0.00000000000E+00 0.  1.
         24    1    1    2    0    0  0.44931696480E+02 -0.12264739357E+01  0.12705731820E+02  0.93000070765E+02  0.80419002446E+02 0.  1.
        -24    1    1    2    0    0 -0.44931696480E+02  0.12264739357E+01  0.22657682026E+03  0.24459074599E+03  0.80419002446E+02 0. -1.
<mgrwt>
<rscale>  0 0.92128050E+02</rscale>
<asrwt>0</asrwt>
<pdfrwt beam="1">  1        1 0.44374874E-01 0.92128050E+02</pdfrwt>
<pdfrwt beam="2">  1       -1 0.75621744E-02 0.92128050E+02</pdfrwt>
<totfact> 0.79701516E+03</totfact>
</mgrwt>
</event>
<event>
 4    1  0.4844629E-001  0.1124848E+03  0.7546771E-02  0.1256036E+00
          1   -1    0    0  501    0  0.00000000000E+00  0.00000000000E+00  0.11923883960E+03  0.11923883960E+03  0.00000000000E+00 0. -1.
         -1   -1    0    0    0  501 -0.00000000000E+00 -0.00000000000E+00 -0.33651117501E+03  0.33651117501E+03  0.00000000000E+00 0.  1.
         24    1    1    2    0    0  0.53557612806E+02 -0.57595181497E+02 -0.29719031518E+03  0.31776551451E+03  0.80419002446E+02 0.  1.
        -24    1    1    2    0    0 -0.53557612806E+02  0.57595181497E+02  0.79917979770E+02  0.13798450009E+03  0.80419002446E+02 0. -1.
<mgrwt>
<rscale>  0 0.11248484E+03</rscale>
<asrwt>0</asrwt>
<pdfrwt beam="1">  1        1 0.18344437E-01 0.11248484E+03</pdfrwt>
<pdfrwt beam="2">  1       -1 0.51770949E-01 0.11248484E+03</pdfrwt>
<totfact> 0.10805064E+03</totfact>
</mgrwt>
</event>
<event>
 4    1  0.4844629E-001  0.8386265E+02  0.7546771E-02  0.1318434E+00
          2   -1    0    0  501    0  0.00000000000E+00  0.00000000000E+00  0.10653165022E+04  0.10653165022E+04  0.00000000000E+00 0. -1.
         -2   -1    0    0    0  501 -0.00000000000E+00 -0.00000000000E+00 -0.20969241275E+02  0.20969241275E+02  0.00000000000E+00 0.  1.
         24    1    1    2    0    0  0.23233608126E+02 -0.50918832594E+01  0.97176020178E+03  0.97537215131E+03  0.80419002446E+02 0. -1.
        -24    1    1    2    0    0 -0.23233608126E+02  0.50918832594E+01  0.72587059184E+02  0.11091359221E+03  0.80419002446E+02 0.  1.
<mgrwt>
<rscale>  0 0.83862648E+02</rscale>
<asrwt>0</asrwt>
<pdfrwt beam="1">  1        2 0.16389480E+00 0.83862648E+02</pdfrwt>
<pdfrwt beam="2">  1       -2 0.32260379E-02 0.83862648E+02</pdfrwt>
<totfact> 0.85778562E+03</totfact>
</mgrwt>
</event>
<event>
 4    1  0.4844629E-001  0.9157523E+02  0.7546771E-02  0.1299081E+00
         -1   -1    0    0    0  501 -0.00000000000E+00  0.00000000000E+00  0.42720976495E+02  0.42720976495E+02  0.00000000000E+00 0.  1.
          1   -1    0    0  501    0  0.00000000000E+00 -0.00000000000E+00 -0.19629794006E+03  0.19629794006E+03  0.00000000000E+00 0. -1.
         24    1    1    2    0    0 -0.30877073351E+02  0.31071108868E+02 -0.76622050387E+02  0.11940252102E+03  0.80419002446E+02 0.  1.
        -24    1    1    2    0    0  0.30877073351E+02 -0.31071108868E+02 -0.76954913174E+02  0.11961639554E+03  0.80419002446E+02 0. -1.
<mgrwt>
<rscale>  0 0.91575234E+02</rscale>
<asrwt>0</asrwt>
<pdfrwt beam="1">  1        1 0.30199683E-01 0.91575234E+02</pdfrwt>
<pdfrwt beam="2">  1       -1 0.65724579E-02 0.91575234E+02</pdfrwt>
<totfact> 0.15701837E+04</totfact>
</mgrwt>
</event>
<event>
 4    1  0.4844629E-001  0.8916632E+02  0.7546771E-02  0.1304883E+00
         -2   -1    0    0    0  501 -0.00000000000E+00  0.00000000000E+00  0.85453121576E+01  0.85453121576E+01  0.00000000000E+00 0.  1.
          2   -1    0    0  501    0  0.00000000000E+00 -0.00000000000E+00 -0.16019123812E+04  0.16019123812E+04  0.00000000000E+00 0. -1.
         24    1    1    2    0    0 -0.36847389886E+02 -0.11211019744E+02 -0.13180272394E+04  0.13210399074E+04  0.80419002446E+02 0. -1.
        -24    1    1    2    0    0  0.36847389886E+02  0.11211019744E+02 -0.27533982964E+03  0.28941778599E+03  0.80419002446E+02 0.  1.
<mgrwt>
<rscale>  0 0.89166322E+02</rscale>
<asrwt>0</asrwt>
<pdfrwt beam="1">  1        2 0.24644769E+00 0.89166322E+02</pdfrwt>
<pdfrwt beam="2">  1       -2 0.13146654E-02 0.89166322E+02</pdfrwt>
<totfact> 0.16284301E+04</totfact>
</mgrwt>
</event>
<event>
 4    1  0.4844629E-001  0.9630858E+02  0.7546771E-02  0.1288256E+00
          1   -1    0    0  501    0  0.00000000000E+00  0.00000000000E+00  0.11269892927E+04  0.11269892927E+04  0.00000000000E+00 0. -1.
         -1   -1    0    0    0  501 -0.00000000000E+00 -0.00000000000E+00 -0.95971210144E+01  0.95971210144E+01  0.00000000000E+00 0.  1.
         24    1    1    2    0    0  0.29190406359E+02 -0.44227210806E+02  0.34422219052E+03  0.35744126566E+03  0.80419002446E+02 0.  1.
        -24    1    1    2    0    0 -0.29190406359E+02  0.44227210806E+02  0.77316998113E+03  0.77914514801E+03  0.80419002446E+02 0. -1.
<mgrwt>
<rscale>  0 0.96308577E+02</rscale>
<asrwt>0</asrwt>
<pdfrwt beam="1">  1        1 0.17338286E+00 0.96308577E+02</pdfrwt>
<pdfrwt beam="2">  1       -1 0.14764811E-02 0.96308577E+02</pdfrwt>
<totfact> 0.12967526E+04</totfact>
</mgrwt>
</event>
<event>
 4    1  0.4844629E-001  0.2846557E+03  0.7546771E-02  0.1093173E+00
         -1   -1    0    0    0  501 -0.00000000000E+00  0.00000000000E+00  0.26103232153E+03  0.26103232153E+03  0.00000000000E+00 0.  1.
          1   -1    0    0  501    0  0.00000000000E+00 -0.00000000000E+00 -0.44469271962E+03  0.44469271962E+03  0.00000000000E+00 0. -1.
         24    1    1    2    0    0 -0.27305821401E+03 -0.92049373485E+00  0.10206827096E+03  0.30240169219E+03  0.80419002446E+02 0.  1.
        -24    1    1    2    0    0  0.27305821401E+03  0.92049373485E+00 -0.28572866904E+03  0.40332334896E+03  0.80419002446E+02 0. -1.
<mgrwt>
<rscale>  0 0.28465567E+03</rscale>
<asrwt>0</asrwt>
<pdfrwt beam="1">  1        1 0.68414265E-01 0.28465567E+03</pdfrwt>
<pdfrwt beam="2">  1       -1 0.40158819E-01 0.28465567E+03</pdfrwt>
<totfact> 0.32553242E+02</totfact>
</mgrwt>
</event>
<event>
 4    1  0.4844629E-001  0.1030645E+03  0.7546771E-02  0.1273981E+00
          1   -1    0    0  501    0  0.00000000000E+00  0.00000000000E+00  0.22154095432E+04  0.22154095432E+04  0.00000000000E+00 0. -1.
         -1   -1    0    0    0  501 -0.00000000000E+00 -0.00000000000E+00 -0.49455748235E+01  0.49455748235E+01  0.00000000000E+00 0.  1.
         24    1    1    2    0    0 -0.69009099476E+01 -0.64089296701E+02  0.12991233393E+04  0.13032051746E+04  0.80419002446E+02 0. -1.
        -24    1    1    2    0    0  0.69009099476E+01  0.64089296701E+02  0.91134062905E+03  0.91714994337E+03  0.80419002446E+02 0.  1.
<mgrwt>
<rscale>  0 0.10306444E+03</rscale>
<asrwt>0</asrwt>
<pdfrwt beam="1">  1        1 0.34083145E+00 0.10306445E+03</pdfrwt>
<pdfrwt beam="2">  1       -1 0.76085943E-03 0.10306445E+03</pdfrwt>
<totfact> 0.66667627E+03</totfact>
</mgrwt>
</event>
<event>
 4    1  0.4844629E-001  0.9504186E+02  0.7546771E-02  0.1291082E+00
          1   -1    0    0  501    0  0.00000000000E+00  0.00000000000E+00  0.14247022175E+02  0.14247022175E+02  0.00000000000E+00 0. -1.
         -1   -1    0    0    0  501 -0.00000000000E+00 -0.00000000000E+00 -0.75112779858E+03  0.75112779858E+03  0.00000000000E+00 0.  1.
         24    1    1    2    0    0  0.28233486294E+01  0.50574384909E+02 -0.51954319484E+03  0.52816482935E+03  0.80419002446E+02 0.  1.
        -24    1    1    2    0    0 -0.28233486294E+01 -0.50574384909E+02 -0.21733758156E+03  0.23720999140E+03  0.80419002446E+02 0.  1.
<mgrwt>
<rscale>  0 0.95041863E+02</rscale>
<asrwt>0</asrwt>
<pdfrwt beam="1">  1        1 0.21918493E-02 0.95041863E+02</pdfrwt>
<pdfrwt beam="2">  1       -1 0.11555813E+00 0.95041863E+02</pdfrwt>
<totfact> 0.35954023E+03</totfact>
</mgrwt>
</event>
<event>
 4    1  0.4844629E-001  0.1150349E+03  0.7546771E-02  0.1251520E+00
          1   -1    0    0  501    0  0.00000000000E+00  0.00000000000E+00  0.17392574988E+04  0.17392574988E+04  0.00000000000E+00 0. -1.
         -1   -1    0    0    0  501 -0.00000000000E+00 -0.00000000000E+00 -0.78700229482E+01  0.78700229482E+01  0.00000000000E+00 0.  1.
         24    1    1    2    0    0 -0.59923752276E+02  0.56346640889E+02  0.10249589904E+04  0.10313941769E+04  0.80419002446E+02 0. -1.
        -24    1    1    2    0    0  0.59923752276E+02 -0.56346640889E+02  0.70642848539E+03  0.71573334486E+03  0.80419002446E+02 0.  1.
<mgrwt>
<rscale>  0 0.11503486E+03</rscale>
<asrwt>0</asrwt>
<pdfrwt beam="1">  1        1 0.26757777E+00 0.11503488E+03</pdfrwt>
<pdfrwt beam="2">  1       -1 0.12107741E-02 0.11503488E+03</pdfrwt>
<totfact> 0.69268870E+03</totfact>
</mgrwt>
</event>
<event>
 4    1  0.4844629E-001  0.8116225E+02  0.7546771E-02  0.1325785E+00
         -2   -1    0    0    0  501 -0.00000000000E+00  0.00000000000E+00  0.10313292992E+02  0.10313292992E+02  0.00000000000E+00 0.  1.
          2   -1    0    0  501    0  0.00000000000E+00 -0.00000000000E+00 -0.69998974205E+03  0.69998974205E+03  0.00000000000E+00 0. -1.
         24    1    1    2    0    0 -0.50767518853E+01 -0.97117592190E+01 -0.23976538377E+03  0.25312990121E+03  0.80419002446E+02 0.  0.
        -24    1    1    2    0    0  0.50767518853E+01  0.97117592190E+01 -0.44991106529E+03  0.45717313383E+03  0.80419002446E+02 0. -1.
<mgrwt>
<rscale>  0 0.81162240E+02</rscale>
<asrwt>0</asrwt>
<pdfrwt beam="1">  1        2 0.10769072E+00 0.81162251E+02</pdfrwt>
<pdfrwt beam="2">  1       -2 0.15866606E-02 0.81162251E+02</pdfrwt>
<totfact> 0.40295259E+04</totfact>
</mgrwt>
</event>
<event>
 4    1  0.4844629E-001  0.8476360E+02  0.7546771E-02  0.1316052E+00
          1   -1    0    0  501    0  0.00000000000E+00  0.00000000000E+00  0.18901835489E+03  0.18901835489E+03  0.00000000000E+00 0. -1.
         -1   -1    0    0    0  501 -0.00000000000E+00 -0.00000000000E+00 -0.10544585199E+03  0.10544585199E+03  0.00000000000E+00 0.  1.
         24    1    1    2    0    0 -0.12751720131E+02 -0.23559389659E+02 -0.75954940910E+02  0.11381572919E+03  0.80419002446E+02 0.  1.
        -24    1    1    2    0    0  0.12751720131E+02  0.23559389659E+02  0.15952744382E+03  0.18064847769E+03  0.80419002446E+02 0. -1.
<mgrwt>
<rscale>  0 0.84763596E+02</rscale>
<asrwt>0</asrwt>
<pdfrwt beam="1">  1        1 0.29079747E-01 0.84763596E+02</pdfrwt>
<pdfrwt beam="2">  1       -1 0.16222439E-01 0.84763596E+02</pdfrwt>
<totfact> 0.41621318E+03</totfact>
</mgrwt>
</event>
<event>
 4    1  0.4844629E-001  0.8939848E+02  0.7546771E-02  0.1304315E+00
          1   -1    0    0  501    0  0.00000000000E+00  0.00000000000E+00  0.39740295965E+03  0.39740295965E+03  0.00000000000E+00 0. -1.
         -1   -1    0    0    0  501 -0.00000000000E+00 -0.00000000000E+00 -0.25182803395E+02  0.25182803395E+02  0.00000000000E+00 0.  1.
         24    1    1    2    0    0  0.12849788684E+02  0.36874855803E+02  0.91285053236E+02  0.12776951498E+03  0.80419002446E+02 0.  1.
        -24    1    1    2    0    0 -0.12849788684E+02 -0.36874855803E+02  0.28093510302E+03  0.29481624806E+03  0.80419002446E+02 0. -1.
<mgrwt>
<rscale>  0 0.89398479E+02</rscale>
<asrwt>0</asrwt>
<pdfrwt beam="1">  1        1 0.61138912E-01 0.89398479E+02</pdfrwt>
<pdfrwt beam="2">  1       -1 0.38742777E-02 0.89398479E+02</pdfrwt>
<totfact> 0.14314406E+04</totfact>
</mgrwt>
</event>
<event>
 4    1  0.4844629E-001  0.8104927E+02  0.7546771E-02  0.1326100E+00
          2   -1    0    0  501    0  0.00000000000E+00  0.00000000000E+00  0.17606688506E+04  0.17606688506E+04  0.00000000000E+00 0. -1.
         -2   -1    0    0    0  501 -0.00000000000E+00 -0.00000000000E+00 -0.51567870956E+01  0.51567870956E+01  0.00000000000E+00 0.  1.
         24    1    1    2    0    0  0.82298148490E+00  0.10054361372E+02  0.13420165945E+04  0.13444617969E+04  0.80419002446E+02 0. -1.
        -24    1    1    2    0    0 -0.82298148490E+00 -0.10054361372E+02  0.41349546904E+03  0.42136384082E+03  0.80419002446E+02 0.  1.
<mgrwt>
<rscale>  0 0.81049265E+02</rscale>
<asrwt>0</asrwt>
<pdfrwt beam="1">  1        2 0.27087165E+00 0.81049265E+02</pdfrwt>
<pdfrwt beam="2">  1       -2 0.79335327E-03 0.81049265E+02</pdfrwt>
<totfact> 0.27493455E+04</totfact>
</mgrwt>
</event>
<event>
 4    1  0.4844629E-001  0.8431632E+02  0.7546771E-02  0.1317230E+00
          1   -1    0    0  501    0  0.00000000000E+00  0.00000000000E+00  0.29567839039E+03  0.29567839039E+03  0.00000000000E+00 0. -1.
         -1   -1    0    0    0  501 -0.00000000000E+00 -0.00000000000E+00 -0.24050183867E+02  0.24050183867E+02  0.00000000000E+00 0.  1.
         24    1    1    2    0    0 -0.24846877119E+02  0.49657088252E+01  0.13321606421E+03  0.15765710033E+03  0.80419002446E+02 0. -1.
        -24    1    1    2    0    0  0.24846877119E+02 -0.49657088252E+01  0.13841214231E+03  0.16207147393E+03  0.80419002446E+02 0.  1.
<mgrwt>
<rscale>  0 0.84316318E+02</rscale>
<asrwt>0</asrwt>
<pdfrwt beam="1">  1        1 0.45488981E-01 0.84316318E+02</pdfrwt>
<pdfrwt beam="2">  1       -1 0.37000285E-02 0.84316318E+02</pdfrwt>
<totfact> 0.21859695E+04</totfact>
</mgrwt>
</event>
<event>
 4    1  0.4844629E-001  0.1107987E+03  0.7546771E-02  0.1259098E+00
          2   -1    0    0  501    0  0.00000000000E+00  0.00000000000E+00  0.35070905735E+02  0.35070905735E+02  0.00000000000E+00 0. -1.
         -2   -1    0    0    0  501 -0.00000000000E+00 -0.00000000000E+00 -0.38594443477E+03  0.38594443477E+03  0.00000000000E+00 0.  1.
         24    1    1    2    0    0 -0.42372816711E+02 -0.63353519466E+02 -0.23964028793E+03  0.26401478667E+03  0.80419002446E+02 0.  1.
        -24    1    1    2    0    0  0.42372816711E+02  0.63353519466E+02 -0.11123324110E+03  0.15700055384E+03  0.80419002446E+02 0. -1.
<mgrwt>
<rscale>  0 0.11079866E+03</rscale>
<asrwt>0</asrwt>
<pdfrwt beam="1">  1        2 0.53955238E-02 0.11079867E+03</pdfrwt>
<pdfrwt beam="2">  1       -2 0.59376069E-01 0.11079867E+03</pdfrwt>
<totfact> 0.36063492E+03</totfact>
</mgrwt>
</event>
<event>
 4    1  0.4844629E-001  0.9055478E+02  0.7546771E-02  0.1301514E+00
          2   -1    0    0  501    0  0.00000000000E+00  0.00000000000E+00  0.17382712691E+03  0.17382712691E+03  0.00000000000E+00 0. -1.
         -2   -1    0    0    0  501 -0.00000000000E+00 -0.00000000000E+00 -0.10321081110E+03  0.10321081110E+03  0.00000000000E+00 0.  1.
         24    1    1    2    0    0 -0.35474447666E+02  0.21783381999E+02  0.13737444305E+03  0.16453542392E+03  0.80419002446E+02 0. -1.
        -24    1    1    2    0    0  0.35474447666E+02 -0.21783381999E+02 -0.66758127242E+02  0.11250251409E+03  0.80419002446E+02 0.  1.
<mgrwt>
<rscale>  0 0.90554780E+02</rscale>
<asrwt>0</asrwt>
<pdfrwt beam="1">  1        2 0.26742635E-01 0.90554780E+02</pdfrwt>
<pdfrwt beam="2">  1       -2 0.15878586E-01 0.90554780E+02</pdfrwt>
<totfact> 0.57416241E+03</totfact>
</mgrwt>
</event>
<event>
 4    1  0.4844629E-001  0.9870298E+02  0.7546771E-02  0.1283047E+00
         -2   -1    0    0    0  501 -0.00000000000E+00  0.00000000000E+00  0.10279197606E+02  0.10279197606E+02  0.00000000000E+00 0.  1.
          2   -1    0    0  501    0  0.00000000000E+00 -0.00000000000E+00 -0.30114401280E+04  0.30114401280E+04  0.00000000000E+00 0. -1.
         24    1    1    2    0    0  0.32073801868E+02 -0.47395504287E+02 -0.27512930595E+04  0.27530629811E+04  0.80419002446E+02 0. -1.
        -24    1    1    2    0    0 -0.32073801868E+02  0.47395504287E+02 -0.24986787088E+03  0.26865634451E+03  0.80419002446E+02 0.  1.
<mgrwt>
<rscale>  0 0.98702981E+02</rscale>
<asrwt>0</asrwt>
<pdfrwt beam="1">  1        2 0.46329821E+00 0.98702981E+02</pdfrwt>
<pdfrwt beam="2">  1       -2 0.15814159E-02 0.98702981E+02</pdfrwt>
<totfact> 0.23022304E+03</totfact>
</mgrwt>
</event>
<event>
 4    1  0.4844629E-001  0.8378914E+02  0.7546771E-02  0.1318630E+00
          2   -1    0    0  501    0  0.00000000000E+00  0.00000000000E+00  0.47271034034E+03  0.47271034034E+03  0.00000000000E+00 0. -1.
         -2   -1    0    0    0  501 -0.00000000000E+00 -0.00000000000E+00 -0.22124195943E+02  0.22124195943E+02  0.00000000000E+00 0.  1.
         24    1    1    2    0    0 -0.14298986735E+02  0.18680031069E+02  0.36714449106E+03  0.37658425067E+03  0.80419002446E+02 0. -1.
        -24    1    1    2    0    0  0.14298986735E+02 -0.18680031069E+02  0.83441653345E+02  0.11825028562E+03  0.80419002446E+02 0.  1.
<mgrwt>
<rscale>  0 0.83789143E+02</rscale>
<asrwt>0</asrwt>
<pdfrwt beam="1">  1        2 0.72724660E-01 0.83789143E+02</pdfrwt>
<pdfrwt beam="2">  1       -2 0.34037228E-02 0.83789143E+02</pdfrwt>
<totfact> 0.20825306E+04</totfact>
</mgrwt>
</event>
<event>
 4    1  0.4844629E-001  0.8300445E+02  0.7546771E-02  0.1320735E+00
         -1   -1    0    0    0  501 -0.00000000000E+00  0.00000000000E+00  0.66889294217E+02  0.66889294217E+02  0.00000000000E+00 0.  1.
          1   -1    0    0  501    0  0.00000000000E+00 -0.00000000000E+00 -0.26646916705E+03  0.26646916705E+03  0.00000000000E+00 0. -1.
         24    1    1    2    0    0  0.75385753383E+00  0.20541539427E+02  0.30758932643E+02  0.88520342492E+02  0.80419002446E+02 0.  1.
        -24    1    1    2    0    0 -0.75385753383E+00 -0.20541539427E+02 -0.23033880548E+03  0.24483811878E+03  0.80419002446E+02 0. -1.
<mgrwt>
<rscale>  0 0.83004452E+02</rscale>
<asrwt>0</asrwt>
<pdfrwt beam="1">  1        1 0.40995257E-01 0.83004452E+02</pdfrwt>
<pdfrwt beam="2">  1       -1 0.10290661E-01 0.83004452E+02</pdfrwt>
<totfact> 0.54874394E+03</totfact>
</mgrwt>
</event>
<event>
 4    1  0.4844629E-001  0.8344138E+02  0.7546771E-02  0.1319560E+00
          2   -1    0    0  501    0  0.00000000000E+00  0.00000000000E+00  0.10184109316E+04  0.10184109316E+04  0.00000000000E+00 0. -1.
         -2   -1    0    0    0  501 -0.00000000000E+00 -0.00000000000E+00 -0.21754252912E+02  0.21754252912E+02  0.00000000000E+00 0.  1.
         24    1    1    2    0    0  0.17459576098E+02 -0.13798949184E+02  0.92900421303E+03  0.93274395821E+03  0.80419002446E+02 0. -1.
        -24    1    1    2    0    0 -0.17459576098E+02  0.13798949184E+02  0.67652465657E+02  0.10742122630E+03  0.80419002446E+02 0.  1.
<mgrwt>
<rscale>  0 0.83441379E+02</rscale>
<asrwt>0</asrwt>
<pdfrwt beam="1">  1        2 0.15667857E+00 0.83441379E+02</pdfrwt>
<pdfrwt beam="2">  1       -2 0.33468089E-02 0.83441379E+02</pdfrwt>
<totfact> 0.86472739E+03</totfact>
</mgrwt>
</event>
<event>
 4    1  0.4844629E-001  0.8340211E+02  0.7546771E-02  0.1319665E+00
         -2   -1    0    0    0  501 -0.00000000000E+00  0.00000000000E+00  0.32751694242E+02  0.32751694242E+02  0.00000000000E+00 0.  1.
          2   -1    0    0  501    0  0.00000000000E+00 -0.00000000000E+00 -0.10105587170E+04  0.10105587170E+04  0.00000000000E+00 0. -1.
         24    1    1    2    0    0  0.18646083246E+02  0.11875193389E+02 -0.95251260476E+03  0.95615698231E+03  0.80419002446E+02 0. -1.
        -24    1    1    2    0    0 -0.18646083246E+02 -0.11875193389E+02 -0.25294417999E+02  0.87153428932E+02  0.80419002446E+02 0.  1.
<mgrwt>
<rscale>  0 0.83402114E+02</rscale>
<asrwt>0</asrwt>
<pdfrwt beam="1">  1        2 0.15547057E+00 0.83402114E+02</pdfrwt>
<pdfrwt beam="2">  1       -2 0.50387224E-02 0.83402114E+02</pdfrwt>
<totfact> 0.47911286E+03</totfact>
</mgrwt>
</event>
<event>
 4    1  0.4844629E-001  0.8346848E+02  0.7546771E-02  0.1319487E+00
         -2   -1    0    0    0  501 -0.00000000000E+00  0.00000000000E+00  0.17971719762E+02  0.17971719762E+02  0.00000000000E+00 0.  1.
          2   -1    0    0  501    0  0.00000000000E+00 -0.00000000000E+00 -0.45839829295E+03  0.45839829295E+03  0.00000000000E+00 0. -1.
         24    1    1    2    0    0  0.16832499794E+02 -0.14711864360E+02 -0.31377713374E+03  0.32468920157E+03  0.80419002446E+02 0. -1.
        -24    1    1    2    0    0 -0.16832499794E+02  0.14711864360E+02 -0.12664943944E+03  0.15168081114E+03  0.80419002446E+02 0.  1.
<mgrwt>
<rscale>  0 0.83468485E+02</rscale>
<asrwt>0</asrwt>
<pdfrwt beam="1">  1        2 0.70522810E-01 0.83468485E+02</pdfrwt>
<pdfrwt beam="2">  1       -2 0.27648801E-02 0.83468485E+02</pdfrwt>
<totfact> 0.29087987E+04</totfact>
</mgrwt>
</event>
<event>
 4    1  0.4844629E-001  0.9082826E+02  0.7546771E-02  0.1300858E+00
         -2   -1    0    0    0  501 -0.00000000000E+00  0.00000000000E+00  0.10109363243E+02  0.10109363243E+02  0.00000000000E+00 0.  1.
          2   -1    0    0  501    0  0.00000000000E+00 -0.00000000000E+00 -0.12242533244E+04  0.12242533244E+04  0.00000000000E+00 0. -1.
         24    1    1    2    0    0 -0.15880653339E+02 -0.39119844543E+02 -0.96345250865E+03  0.96772439763E+03  0.80419002446E+02 0. -1.
        -24    1    1    2    0    0  0.15880653339E+02  0.39119844543E+02 -0.25069145253E+03  0.26663829004E+03  0.80419002446E+02 0.  1.
<mgrwt>
<rscale>  0 0.90828263E+02</rscale>
<asrwt>0</asrwt>
<pdfrwt beam="1">  1        2 0.18834666E+00 0.90828263E+02</pdfrwt>
<pdfrwt beam="2">  1       -2 0.15552867E-02 0.90828263E+02</pdfrwt>
<totfact> 0.20150507E+04</totfact>
</mgrwt>
</event>
<event>
 4    1  0.4844629E-001  0.1605496E+03  0.7546771E-02  0.1188078E+00
         -1   -1    0    0    0  501 -0.00000000000E+00  0.00000000000E+00  0.85224305800E+02  0.85224305800E+02  0.00000000000E+00 0.  1.
          1   -1    0    0  501    0  0.00000000000E+00 -0.00000000000E+00 -0.42050680582E+03  0.42050680582E+03  0.00000000000E+00 0. -1.
         24    1    1    2    0    0 -0.13616239289E+03 -0.27726773616E+02 -0.33659203775E+02  0.16404002306E+03  0.80419002446E+02 0.  1.
        -24    1    1    2    0    0  0.13616239289E+03  0.27726773616E+02 -0.30162329625E+03  0.34169108857E+03  0.80419002446E+02 0. -1.
<mgrwt>
<rscale>  0 0.16054964E+03</rscale>
<asrwt>0</asrwt>
<pdfrwt beam="1">  1        1 0.64693354E-01 0.16054964E+03</pdfrwt>
<pdfrwt beam="2">  1       -1 0.13111432E-01 0.16054964E+03</pdfrwt>
<totfact> 0.22243546E+03</totfact>
</mgrwt>
</event>
<event>
 4    1  0.4844629E-001  0.8050146E+02  0.7546771E-02  0.1327634E+00
         -2   -1    0    0    0  501 -0.00000000000E+00  0.00000000000E+00  0.66857081822E+01  0.66857081822E+01  0.00000000000E+00 0.  1.
          2   -1    0    0  501    0  0.00000000000E+00 -0.00000000000E+00 -0.11439267696E+04  0.11439267696E+04  0.00000000000E+00 0. -1.
         24    1    1    2    0    0 -0.35798990917E+01 -0.67299292506E+00 -0.79339669030E+03  0.79747024567E+03  0.80419002446E+02 0.  0.
        -24    1    1    2    0    0  0.35798990917E+01  0.67299292506E+00 -0.34384437112E+03  0.35314223212E+03  0.80419002446E+02 0.  1.
<mgrwt>
<rscale>  0 0.80501457E+02</rscale>
<asrwt>0</asrwt>
<pdfrwt beam="1">  1        2 0.17598867E+00 0.80501457E+02</pdfrwt>
<pdfrwt beam="2">  1       -2 0.10285708E-02 0.80501457E+02</pdfrwt>
<totfact> 0.39631006E+04</totfact>
</mgrwt>
</event>
<event>
 4    1  0.4844629E-001  0.8214402E+02  0.7546771E-02  0.1323075E+00
          2   -1    0    0  501    0  0.00000000000E+00  0.00000000000E+00  0.74764939811E+02  0.74764939811E+02  0.00000000000E+00 0. -1.
         -2   -1    0    0    0  501 -0.00000000000E+00 -0.00000000000E+00 -0.91117557752E+02  0.91117557752E+02  0.00000000000E+00 0.  1.
         24    1    1    2    0    0 -0.15061805294E+02 -0.73186127613E+01 -0.16263226193E+02  0.83738453246E+02  0.80419002446E+02 0.  0.
        -24    1    1    2    0    0  0.15061805294E+02  0.73186127613E+01 -0.89391748707E-01  0.82144044317E+02  0.80419002446E+02 0.  0.
<mgrwt>
<rscale>  0 0.82144006E+02</rscale>
<asrwt>0</asrwt>
<pdfrwt beam="1">  1        2 0.11502298E-01 0.82144016E+02</pdfrwt>
<pdfrwt beam="2">  1       -2 0.14018086E-01 0.82144016E+02</pdfrwt>
<totfact> 0.18101618E+04</totfact>
</mgrwt>
</event>
<event>
 4    1  0.4844629E-001  0.8838234E+02  0.7546771E-02  0.1306817E+00
         -2   -1    0    0    0  501 -0.00000000000E+00  0.00000000000E+00  0.55704111781E+02  0.55704111781E+02  0.00000000000E+00 0.  1.
          2   -1    0    0  501    0  0.00000000000E+00 -0.00000000000E+00 -0.23054022252E+03  0.23054022252E+03  0.00000000000E+00 0. -1.
         24    1    1    2    0    0 -0.35408337223E+02  0.95116536874E+01 -0.17699574075E+03  0.19783561383E+03  0.80419002446E+02 0. -1.
        -24    1    1    2    0    0  0.35408337223E+02 -0.95116536874E+01  0.21596300043E+01  0.88408720480E+02  0.80419002446E+02 0.  1.
<mgrwt>
<rscale>  0 0.88382339E+02</rscale>
<asrwt>0</asrwt>
<pdfrwt beam="1">  1        2 0.35467727E-01 0.88382339E+02</pdfrwt>
<pdfrwt beam="2">  1       -2 0.85698632E-02 0.88382339E+02</pdfrwt>
<totfact> 0.11217134E+04</totfact>
</mgrwt>
</event>
<event>
 4    1  0.4844629E-001  0.9210619E+02  0.7546771E-02  0.1297830E+00
         -4   -1    0    0    0  501 -0.00000000000E+00  0.00000000000E+00  0.36759522161E+02  0.36759522161E+02  0.00000000000E+00 0.  1.
          4   -1    0    0  501    0  0.00000000000E+00 -0.00000000000E+00 -0.24872058942E+03  0.24872058942E+03  0.00000000000E+00 0. -1.
         24    1    1    2    0    0  0.15321608337E+02  0.42208740039E+02 -0.67649711639E+02  0.11428048327E+03  0.80419002446E+02 0.  0.
        -24    1    1    2    0    0 -0.15321608337E+02 -0.42208740039E+02 -0.14431135562E+03  0.17119962831E+03  0.80419002446E+02 0.  1.
<mgrwt>
<rscale>  0 0.92106175E+02</rscale>
<asrwt>0</asrwt>
<pdfrwt beam="1">  1        4 0.38264706E-01 0.92106187E+02</pdfrwt>
<pdfrwt beam="2">  1       -4 0.56553111E-02 0.92106187E+02</pdfrwt>
<totfact> 0.19425607E+03</totfact>
</mgrwt>
</event>
<event>
 4    1  0.4844629E-001  0.8365648E+02  0.7546771E-02  0.1318984E+00
         -1   -1    0    0    0  501 -0.00000000000E+00  0.00000000000E+00  0.40127589941E+03  0.40127589941E+03  0.00000000000E+00 0.  1.
          1   -1    0    0  501    0  0.00000000000E+00 -0.00000000000E+00 -0.18448566127E+02  0.18448566127E+02  0.00000000000E+00 0. -1.
         24    1    1    2    0    0  0.36608631075E+01  0.22754975308E+02  0.24047303376E+03  0.25460888975E+03  0.80419002446E+02 0.  1.
        -24    1    1    2    0    0 -0.36608631075E+01 -0.22754975308E+02  0.14235429951E+03  0.16511557578E+03  0.80419002446E+02 0. -1.
<mgrwt>
<rscale>  0 0.83656481E+02</rscale>
<asrwt>0</asrwt>
<pdfrwt beam="1">  1        1 0.28382412E-02 0.83656481E+02</pdfrwt>
<pdfrwt beam="2">  1       -1 0.61734747E-01 0.83656481E+02</pdfrwt>
<totfact> 0.91235855E+03</totfact>
</mgrwt>
</event>
<event>
 4    1  0.4844629E-001  0.9186230E+02  0.7546771E-02  0.1298404E+00
          2   -1    0    0  501    0  0.00000000000E+00  0.00000000000E+00  0.14201230089E+04  0.14201230089E+04  0.00000000000E+00 0. -1.
         -2   -1    0    0    0  501 -0.00000000000E+00 -0.00000000000E+00 -0.83530402007E+01  0.83530402007E+01  0.00000000000E+00 0.  1.
         24    1    1    2    0    0  0.18304006369E+02 -0.40452795585E+02  0.10895950782E+04  0.10934606147E+04  0.80419002446E+02 0. -1.
        -24    1    1    2    0    0 -0.18304006369E+02  0.40452795585E+02  0.32217489041E+03  0.33501543440E+03  0.80419002446E+02 0.  1.
<mgrwt>
<rscale>  0 0.91862295E+02</rscale>
<asrwt>0</asrwt>
<pdfrwt beam="1">  1        2 0.21848027E+00 0.91862295E+02</pdfrwt>
<pdfrwt beam="2">  1       -2 0.12850842E-02 0.91862295E+02</pdfrwt>
<totfact> 0.20870467E+04</totfact>
</mgrwt>
</event>
<event>
 4    1  0.4844629E-001  0.8409384E+02  0.7546771E-02  0.1317819E+00
         -1   -1    0    0    0  501 -0.00000000000E+00  0.00000000000E+00  0.38211868024E+03  0.38211868024E+03  0.00000000000E+00 0.  1.
          1   -1    0    0  501    0  0.00000000000E+00 -0.00000000000E+00 -0.46923891961E+02  0.46923891961E+02  0.00000000000E+00 0. -1.
         24    1    1    2    0    0 -0.23077648760E+02 -0.84840629207E+01  0.33453862530E+03  0.34494617692E+03  0.80419002446E+02 0.  1.
        -24    1    1    2    0    0  0.23077648760E+02  0.84840629207E+01  0.65616297830E+00  0.84096395286E+02  0.80419002446E+02 0. -1.
<mgrwt>
<rscale>  0 0.84093835E+02</rscale>
<asrwt>0</asrwt>
<pdfrwt beam="1">  1        1 0.72190606E-02 0.84093835E+02</pdfrwt>
<pdfrwt beam="2">  1       -1 0.58787487E-01 0.84093835E+02</pdfrwt>
<totfact> 0.28370893E+03</totfact>
</mgrwt>
</event>
<event>
 4    1  0.4844629E-001  0.8064958E+02  0.7546771E-02  0.1327218E+00
         -2   -1    0    0    0  501 -0.00000000000E+00  0.00000000000E+00  0.13470690580E+02  0.13470690580E+02  0.00000000000E+00 0.  1.
          2   -1    0    0  501    0  0.00000000000E+00 -0.00000000000E+00 -0.51702249263E+03  0.51702249263E+03  0.00000000000E+00 0. -1.
         24    1    1    2    0    0  0.39679779230E+01 -0.46253464584E+01 -0.31996555315E+03  0.32997319563E+03  0.80419002446E+02 0.  0.
        -24    1    1    2    0    0 -0.39679779230E+01  0.46253464584E+01 -0.18358624890E+03  0.20051998758E+03  0.80419002446E+02 0.  1.
<mgrwt>
<rscale>  0 0.80649579E+02</rscale>
<asrwt>0</asrwt>
<pdfrwt beam="1">  1        2 0.79541909E-01 0.80649579E+02</pdfrwt>
<pdfrwt beam="2">  1       -2 0.20724143E-02 0.80649579E+02</pdfrwt>
<totfact> 0.38560639E+04</totfact>
</mgrwt>
</event>
<event>
 4    1  0.4844629E-001  0.8163655E+02  0.7546771E-02  0.1324470E+00
          1   -1    0    0  501    0  0.00000000000E+00  0.00000000000E+00  0.81290478384E+03  0.81290478384E+03  0.00000000000E+00 0. -1.
         -1   -1    0    0    0  501 -0.00000000000E+00 -0.00000000000E+00 -0.99547833340E+01  0.99547833340E+01  0.00000000000E+00 0.  1.
         24    1    1    2    0    0  0.12574183350E+02  0.62610053875E+01  0.22865726418E+03  0.24279347333E+03  0.80419002446E+02 0.  0.
        -24    1    1    2    0    0 -0.12574183350E+02 -0.62610053875E+01  0.57429273632E+03  0.58006609384E+03  0.80419002446E+02 0. -1.
<mgrwt>
<rscale>  0 0.81636550E+02</rscale>
<asrwt>0</asrwt>
<pdfrwt beam="1">  1        1 0.12506222E+00 0.81636550E+02</pdfrwt>
<pdfrwt beam="2">  1       -1 0.15315058E-02 0.81636550E+02</pdfrwt>
<totfact> 0.20630958E+04</totfact>
</mgrwt>
</event>
<event>
 4    1  0.4844629E-001  0.8416062E+02  0.7546771E-02  0.1317642E+00
         -2   -1    0    0    0  501 -0.00000000000E+00  0.00000000000E+00  0.17410915136E+02  0.17410915136E+02  0.00000000000E+00 0.  1.
          2   -1    0    0  501    0  0.00000000000E+00 -0.00000000000E+00 -0.45766261526E+03  0.45766261526E+03  0.00000000000E+00 0. -1.
         24    1    1    2    0    0  0.20030730614E+02  0.14647864925E+02 -0.14094918891E+03  0.16416357673E+03  0.80419002446E+02 0.  1.
        -24    1    1    2    0    0 -0.20030730614E+02 -0.14647864925E+02 -0.29930251122E+03  0.31090995367E+03  0.80419002446E+02 0. -1.
<mgrwt>
<rscale>  0 0.84160607E+02</rscale>
<asrwt>0</asrwt>
<pdfrwt beam="1">  1        2 0.70409638E-01 0.84160618E+02</pdfrwt>
<pdfrwt beam="2">  1       -2 0.26786022E-02 0.84160618E+02</pdfrwt>
<totfact> 0.30533395E+04</totfact>
</mgrwt>
</event>
<event>
 4    1  0.4844629E-001  0.8716006E+02  0.7546771E-02  0.1309878E+00
         -2   -1    0    0    0  501 -0.00000000000E+00  0.00000000000E+00  0.45213631602E+02  0.45213631602E+02  0.00000000000E+00 0.  1.
          2   -1    0    0  501    0  0.00000000000E+00 -0.00000000000E+00 -0.18394523974E+03  0.18394523974E+03  0.00000000000E+00 0. -1.
         24    1    1    2    0    0  0.21614421768E+02 -0.25738618121E+02 -0.10307752188E+03  0.13498833713E+03  0.80419002446E+02 0. -1.
        -24    1    1    2    0    0 -0.21614421768E+02  0.25738618121E+02 -0.35654086255E+02  0.94170534204E+02  0.80419002446E+02 0.  1.
<mgrwt>
<rscale>  0 0.87160058E+02</rscale>
<asrwt>0</asrwt>
<pdfrwt beam="1">  1        2 0.28299268E-01 0.87160058E+02</pdfrwt>
<pdfrwt beam="2">  1       -2 0.69559433E-02 0.87160058E+02</pdfrwt>
<totfact> 0.19569517E+04</totfact>
</mgrwt>
</event>
<event>
 4    1  0.4844629E-001  0.8958345E+02  0.7546771E-02  0.1303864E+00
          3   -1    0    0  501    0  0.00000000000E+00  0.00000000000E+00  0.55789353471E+02  0.55789353471E+02  0.00000000000E+00 0. -1.
         -3   -1    0    0    0  501 -0.00000000000E+00 -0.00000000000E+00 -0.29506637012E+03  0.29506637012E+03  0.00000000000E+00 0.  1.
         24    1    1    2    0    0  0.38987186718E+02 -0.61625552772E+01 -0.24522438830E+03  0.26107507423E+03  0.80419002446E+02 0.  0.
        -24    1    1    2    0    0 -0.38987186718E+02  0.61625552772E+01  0.59473716462E+01  0.89780649360E+02  0.80419002446E+02 0. -1.
<mgrwt>
<rscale>  0 0.89583446E+02</rscale>
<asrwt>0</asrwt>
<pdfrwt beam="1">  1        3 0.85829773E-02 0.89583446E+02</pdfrwt>
<pdfrwt beam="2">  1       -3 0.45394827E-01 0.89583446E+02</pdfrwt>
<totfact> 0.98803239E+02</totfact>
</mgrwt>
</event>
<event>
 4    1  0.4844629E-001  0.1013337E+03  0.7546771E-02  0.1277516E+00
          2   -1    0    0  501    0  0.00000000000E+00  0.00000000000E+00  0.29440005579E+03  0.29440005579E+03  0.00000000000E+00 0. -1.
         -2   -1    0    0    0  501 -0.00000000000E+00 -0.00000000000E+00 -0.49140795777E+02  0.49140795777E+02  0.00000000000E+00 0.  1.
         24    1    1    2    0    0  0.60433372639E+02 -0.12210822888E+02  0.21516494780E+03  0.23783285610E+03  0.80419002446E+02 0. -1.
        -24    1    1    2    0    0 -0.60433372639E+02  0.12210822888E+02  0.30094312213E+02  0.10570799547E+03  0.80419002446E+02 0.  1.
<mgrwt>
<rscale>  0 0.10133367E+03</rscale>
<asrwt>0</asrwt>
<pdfrwt beam="1">  1        2 0.45292315E-01 0.10133367E+03</pdfrwt>
<pdfrwt beam="2">  1       -2 0.75601226E-02 0.10133367E+03</pdfrwt>
<totfact> 0.10638216E+04</totfact>
</mgrwt>
</event>
<event>
 4    1  0.4844629E-001  0.1375670E+03  0.7546771E-02  0.1216641E+00
         -2   -1    0    0    0  501 -0.00000000000E+00  0.00000000000E+00  0.42931408957E+02  0.42931408957E+02  0.00000000000E+00 0.  1.
          2   -1    0    0  501    0  0.00000000000E+00 -0.00000000000E+00 -0.12479586052E+04  0.12479586052E+04  0.00000000000E+00 0. -1.
         24    1    1    2    0    0  0.25319580247E+02 -0.10870318652E+03 -0.11215948822E+04  0.11299998936E+04  0.80419002446E+02 0. -1.
        -24    1    1    2    0    0 -0.25319580247E+02  0.10870318652E+03 -0.83432314078E+02  0.16089012055E+03  0.80419002446E+02 0.  1.
<mgrwt>
<rscale>  0 0.13756700E+03</rscale>
<asrwt>0</asrwt>
<pdfrwt beam="1">  1        2 0.19199360E+00 0.13756700E+03</pdfrwt>
<pdfrwt beam="2">  1       -2 0.66048334E-02 0.13756700E+03</pdfrwt>
<totfact> 0.23807763E+03</totfact>
</mgrwt>
</event>
<event>
 4    1  0.4844629E-001  0.1155839E+03  0.7546771E-02  0.1250565E+00
         -2   -1    0    0    0  501 -0.00000000000E+00  0.00000000000E+00  0.57497914042E+02  0.57497914042E+02  0.00000000000E+00 0.  1.
          2   -1    0    0  501    0  0.00000000000E+00 -0.00000000000E+00 -0.40712860616E+03  0.40712860616E+03  0.00000000000E+00 0. -1.
         24    1    1    2    0    0 -0.77792624883E+02 -0.28995458340E+02 -0.32702851373E+03  0.34685341838E+03  0.80419002446E+02 0. -1.
        -24    1    1    2    0    0  0.77792624883E+02  0.28995458340E+02 -0.22602178379E+02  0.11777310182E+03  0.80419002446E+02 0.  1.
<mgrwt>
<rscale>  0 0.11558393E+03</rscale>
<asrwt>0</asrwt>
<pdfrwt beam="1">  1        2 0.62635168E-01 0.11558393E+03</pdfrwt>
<pdfrwt beam="2">  1       -2 0.88458332E-02 0.11558393E+03</pdfrwt>
<totfact> 0.59944332E+03</totfact>
</mgrwt>
</event>
<event>
 4    1  0.4844629E-001  0.8875738E+02  0.7546771E-02  0.1305889E+00
          2   -1    0    0  501    0  0.00000000000E+00  0.00000000000E+00  0.70258948461E+03  0.70258948461E+03  0.00000000000E+00 0. -1.
         -2   -1    0    0    0  501 -0.00000000000E+00 -0.00000000000E+00 -0.79235401070E+02  0.79235401070E+02  0.00000000000E+00 0.  1.
         24    1    1    2    0    0 -0.28029921758E+02  0.24999583300E+02  0.67387587219E+03  0.67969593404E+03  0.80419002446E+02 0. -1.
        -24    1    1    2    0    0  0.28029921758E+02 -0.24999583300E+02 -0.50521788653E+02  0.10212895163E+03  0.80419002446E+02 0.  1.
<mgrwt>
<rscale>  0 0.88757375E+02</rscale>
<asrwt>0</asrwt>
<pdfrwt beam="1">  1        2 0.10809069E+00 0.88757375E+02</pdfrwt>
<pdfrwt beam="2">  1       -2 0.12190062E-01 0.88757375E+02</pdfrwt>
<totfact> 0.19627931E+03</totfact>
</mgrwt>
</event>
<event>
 4    1  0.4844629E-001  0.8846142E+02  0.7546771E-02  0.1306621E+00
         -3   -1    0    0    0  501 -0.00000000000E+00  0.00000000000E+00  0.40782768791E+02  0.40782768791E+02  0.00000000000E+00 0.  1.
          3   -1    0    0  501    0  0.00000000000E+00 -0.00000000000E+00 -0.32602739231E+03  0.32602739231E+03  0.00000000000E+00 0. -1.
         24    1    1    2    0    0  0.33554431359E+02 -0.15241637064E+02 -0.24977056481E+02  0.91919947068E+02  0.80419002446E+02 0.  1.
        -24    1    1    2    0    0 -0.33554431359E+02  0.15241637064E+02 -0.26026756704E+03  0.27489021404E+03  0.80419002446E+02 0.  0.
<mgrwt>
<rscale>  0 0.88461423E+02</rscale>
<asrwt>0</asrwt>
<pdfrwt beam="1">  1        3 0.50158061E-01 0.88461423E+02</pdfrwt>
<pdfrwt beam="2">  1       -3 0.62742720E-02 0.88461423E+02</pdfrwt>
<totfact> 0.13392731E+03</totfact>
</mgrwt>
</event>
<event>
 4    1  0.4844629E-001  0.8254392E+02  0.7546771E-02  0.1321983E+00
          2   -1    0    0  501    0  0.00000000000E+00  0.00000000000E+00  0.10045538735E+04  0.10045538735E+04  0.00000000000E+00 0. -1.
         -2   -1    0    0    0  501 -0.00000000000E+00 -0.00000000000E+00 -0.71268143244E+01  0.71268143244E+01  0.00000000000E+00 0.  1.
         24    1    1    2    0    0  0.28228275323E+01  0.18393334221E+02  0.60987971571E+03  0.61544030310E+03  0.80419002446E+02 0. -1.
        -24    1    1    2    0    0 -0.28228275323E+01 -0.18393334221E+02  0.38754734343E+03  0.39624038469E+03  0.80419002446E+02 0.  1.
<mgrwt>
<rscale>  0 0.82543922E+02</rscale>
<asrwt>0</asrwt>
<pdfrwt beam="1">  1        2 0.15454664E+00 0.82543922E+02</pdfrwt>
<pdfrwt beam="2">  1       -2 0.10964338E-02 0.82543922E+02</pdfrwt>
<totfact> 0.43523240E+04</totfact>
</mgrwt>
</event>
<event>
 4    1  0.4844629E-001  0.9803324E+02  0.7546771E-02  0.1284487E+00
         -1   -1    0    0    0  501 -0.00000000000E+00  0.00000000000E+00  0.34653553763E+03  0.34653553763E+03  0.00000000000E+00 0.  1.
          1   -1    0    0  501    0  0.00000000000E+00 -0.00000000000E+00 -0.30121404303E+02  0.30121404303E+02  0.00000000000E+00 0. -1.
         24    1    1    2    0    0  0.54749246303E+02 -0.12075444254E+02  0.10517711642E+03  0.14378017283E+03  0.80419002446E+02 0. -1.
        -24    1    1    2    0    0 -0.54749246303E+02  0.12075444254E+02  0.21123701691E+03  0.23287676911E+03  0.80419002446E+02 0. -1.
<mgrwt>
<rscale>  0 0.98033233E+02</rscale>
<asrwt>0</asrwt>
<pdfrwt beam="1">  1        1 0.46340624E-02 0.98033245E+02</pdfrwt>
<pdfrwt beam="2">  1       -1 0.53313157E-01 0.98033245E+02</pdfrwt>
<totfact> 0.62370717E+03</totfact>
</mgrwt>
</event>
<event>
 4    1  0.4844629E-001  0.8657720E+02  0.7546771E-02  0.1311359E+00
         -2   -1    0    0    0  501 -0.00000000000E+00  0.00000000000E+00  0.26412872447E+03  0.26412872447E+03  0.00000000000E+00 0.  1.
          2   -1    0    0  501    0  0.00000000000E+00 -0.00000000000E+00 -0.29264913729E+02  0.29264913729E+02  0.00000000000E+00 0. -1.
         24    1    1    2    0    0  0.80671893428E+01 -0.31037331335E+02  0.91902930438E+02  0.12626068295E+03  0.80419002446E+02 0. -1.
        -24    1    1    2    0    0 -0.80671893428E+01  0.31037331335E+02  0.14296088030E+03  0.16713295525E+03  0.80419002446E+02 0.  1.
<mgrwt>
<rscale>  0 0.86577199E+02</rscale>
<asrwt>0</asrwt>
<pdfrwt beam="1">  1        2 0.45022946E-02 0.86577199E+02</pdfrwt>
<pdfrwt beam="2">  1       -2 0.40635187E-01 0.86577199E+02</pdfrwt>
<totfact> 0.93653691E+03</totfact>
</mgrwt>
</event>
<event>
 4    1  0.4844629E-001  0.8796521E+02  0.7546771E-02  0.1307855E+00
          2   -1    0    0  501    0  0.00000000000E+00  0.00000000000E+00  0.33473167932E+03  0.33473167932E+03  0.00000000000E+00 0. -1.
         -2   -1    0    0    0  501 -0.00000000000E+00 -0.00000000000E+00 -0.23168984784E+02  0.23168984784E+02  0.00000000000E+00 0.  1.
         24    1    1    2    0    0 -0.97294861567E+00 -0.35633076980E+02  0.16428545118E+03  0.18635339608E+03  0.80419002446E+02 0.  1.
        -24    1    1    2    0    0  0.97294861567E+00  0.35633076980E+02  0.14727724335E+03  0.17154726803E+03  0.80419002446E+02 0. -1.
<mgrwt>
<rscale>  0 0.87965213E+02</rscale>
<asrwt>0</asrwt>
<pdfrwt beam="1">  1        2 0.51497178E-01 0.87965213E+02</pdfrwt>
<pdfrwt beam="2">  1       -2 0.35644594E-02 0.87965213E+02</pdfrwt>
<totfact> 0.28147467E+04</totfact>
</mgrwt>
</event>
<event>
 4    1  0.4844629E-001  0.1256243E+03  0.7546771E-02  0.1234097E+00
         -2   -1    0    0    0  501 -0.00000000000E+00  0.00000000000E+00  0.14777762012E+03  0.14777762012E+03  0.00000000000E+00 0.  1.
          2   -1    0    0  501    0  0.00000000000E+00 -0.00000000000E+00 -0.16626726130E+03  0.16626726130E+03  0.00000000000E+00 0. -1.
         24    1    1    2    0    0  0.12333101899E+02 -0.95719094411E+02 -0.10315800382E+03  0.16255165377E+03  0.80419002446E+02 0. -1.
        -24    1    1    2    0    0 -0.12333101899E+02  0.95719094411E+02  0.84668362644E+02  0.15149322765E+03  0.80419002446E+02 0.  1.
<mgrwt>
<rscale>  0 0.12562431E+03</rscale>
<asrwt>0</asrwt>
<pdfrwt beam="1">  1        2 0.25579579E-01 0.12562431E+03</pdfrwt>
<pdfrwt beam="2">  1       -2 0.22735019E-01 0.12562431E+03</pdfrwt>
<totfact> 0.33785467E+03</totfact>
</mgrwt>
</event>
<event>
 4    1  0.4844629E-001  0.1035515E+03  0.7546771E-02  0.1273000E+00
          2   -1    0    0  501    0  0.00000000000E+00  0.00000000000E+00  0.13624764653E+03  0.13624764653E+03  0.00000000000E+00 0. -1.
         -2   -1    0    0    0  501 -0.00000000000E+00 -0.00000000000E+00 -0.86720028416E+02  0.86720028416E+02  0.00000000000E+00 0.  1.
         24    1    1    2    0    0 -0.51194185218E+02 -0.40433433353E+02  0.58663347803E+02  0.11901391290E+03  0.80419002446E+02 0. -1.
        -24    1    1    2    0    0  0.51194185218E+02  0.40433433353E+02 -0.91357296899E+01  0.10395376205E+03  0.80419002446E+02 0.  0.
<mgrwt>
<rscale>  0 0.10355155E+03</rscale>
<asrwt>0</asrwt>
<pdfrwt beam="1">  1        2 0.20961176E-01 0.10355155E+03</pdfrwt>
<pdfrwt beam="2">  1       -2 0.13341543E-01 0.10355155E+03</pdfrwt>
<totfact> 0.10047919E+04</totfact>
</mgrwt>
</event>
<event>
 4    1  0.4844629E-001  0.1001811E+03  0.7546771E-02  0.1279916E+00
         -2   -1    0    0    0  501 -0.00000000000E+00  0.00000000000E+00  0.17989538702E+02  0.17989538702E+02  0.00000000000E+00 0.  1.
          2   -1    0    0  501    0  0.00000000000E+00 -0.00000000000E+00 -0.76058296356E+03  0.76058296356E+03  0.00000000000E+00 0. -1.
         24    1    1    2    0    0 -0.17959704754E+02  0.56977995725E+02 -0.57225717734E+03  0.58096001236E+03  0.80419002446E+02 0.  0.
        -24    1    1    2    0    0  0.17959704754E+02 -0.56977995725E+02 -0.17033624752E+03  0.19761248990E+03  0.80419002446E+02 0. -1.
<mgrwt>
<rscale>  0 0.10018113E+03</rscale>
<asrwt>0</asrwt>
<pdfrwt beam="1">  1        2 0.11701274E+00 0.10018113E+03</pdfrwt>
<pdfrwt beam="2">  1       -2 0.27676219E-02 0.10018113E+03</pdfrwt>
<totfact> 0.16761946E+04</totfact>
</mgrwt>
</event>
<event>
 4    1  0.4844629E-001  0.8271849E+02  0.7546771E-02  0.1321509E+00
         -1   -1    0    0    0  501 -0.00000000000E+00  0.00000000000E+00  0.31697558088E+02  0.31697558088E+02  0.00000000000E+00 0.  1.
          1   -1    0    0  501    0  0.00000000000E+00 -0.00000000000E+00 -0.43390122390E+03  0.43390122390E+03  0.00000000000E+00 0. -1.
         24    1    1    2    0    0 -0.80183239072E+01 -0.17630624651E+02 -0.36075920917E+02  0.90243118675E+02  0.80419002446E+02 0.  1.
        -24    1    1    2    0    0  0.80183239072E+01  0.17630624651E+02 -0.36612774490E+03  0.37535566331E+03  0.80419002446E+02 0.  1.
<mgrwt>
<rscale>  0 0.82718489E+02</rscale>
<asrwt>0</asrwt>
<pdfrwt beam="1">  1        1 0.66754031E-01 0.82718489E+02</pdfrwt>
<pdfrwt beam="2">  1       -1 0.48765477E-02 0.82718489E+02</pdfrwt>
<totfact> 0.91184836E+03</totfact>
</mgrwt>
</event>
<event>
 4    1  0.4844629E-001  0.8316950E+02  0.7546771E-02  0.1320290E+00
          3   -1    0    0  501    0  0.00000000000E+00  0.00000000000E+00  0.85645608365E+03  0.85645608365E+03  0.00000000000E+00 0. -1.
         -3   -1    0    0    0  501 -0.00000000000E+00 -0.00000000000E+00 -0.85066584073E+01  0.85066584073E+01  0.00000000000E+00 0.  1.
         24    1    1    2    0    0  0.21207996139E+02 -0.40809945355E+00  0.52122829973E+03  0.52782203633E+03  0.80419002446E+02 0. -1.
        -24    1    1    2    0    0 -0.21207996139E+02  0.40809945355E+00  0.32672112552E+03  0.33714070573E+03  0.80419002446E+02 0.  1.
<mgrwt>
<rscale>  0 0.83169486E+02</rscale>
<asrwt>0</asrwt>
<pdfrwt beam="1">  1        3 0.13176241E+00 0.83169496E+02</pdfrwt>
<pdfrwt beam="2">  1       -3 0.13087173E-02 0.83169496E+02</pdfrwt>
<totfact> 0.18081031E+03</totfact>
</mgrwt>
</event>
<event>
 4    1  0.4844629E-001  0.1097410E+03  0.7546771E-02  0.1261050E+00
         -2   -1    0    0    0  501 -0.00000000000E+00  0.00000000000E+00  0.46542878451E+01  0.46542878451E+01  0.00000000000E+00 0.  1.
          2   -1    0    0  501    0  0.00000000000E+00 -0.00000000000E+00 -0.25929584464E+04  0.25929584464E+04  0.00000000000E+00 0. -1.
         24    1    1    2    0    0  0.54539904247E+02 -0.51002603668E+02 -0.13536105974E+04  0.13580518150E+04  0.80419002446E+02 0.  0.
        -24    1    1    2    0    0 -0.54539904247E+02  0.51002603668E+02 -0.12346935611E+04  0.12395609193E+04  0.80419002446E+02 0.  1.
<mgrwt>
<rscale>  0 0.10974098E+03</rscale>
<asrwt>0</asrwt>
<pdfrwt beam="1">  1        2 0.39891731E+00 0.10974098E+03</pdfrwt>
<pdfrwt beam="2">  1       -2 0.71604315E-03 0.10974098E+03</pdfrwt>
<totfact> 0.12111656E+04</totfact>
</mgrwt>
</event>
<event>
 4    1  0.4844629E-001  0.8400376E+02  0.7546771E-02  0.1318059E+00
         -2   -1    0    0    0  501 -0.00000000000E+00  0.00000000000E+00  0.61272701861E+01  0.61272701861E+01  0.00000000000E+00 0.  1.
          2   -1    0    0  501    0  0.00000000000E+00 -0.00000000000E+00 -0.11801369074E+04  0.11801369074E+04  0.00000000000E+00 0. -1.
         24    1    1    2    0    0  0.63580688490E+01 -0.23430541477E+02 -0.67911508531E+03  0.68429082295E+03  0.80419002446E+02 0.  0.
        -24    1    1    2    0    0 -0.63580688490E+01  0.23430541477E+02 -0.49489455189E+03  0.50197335463E+03  0.80419002446E+02 0. -1.
<mgrwt>
<rscale>  0 0.84003757E+02</rscale>
<asrwt>0</asrwt>
<pdfrwt beam="1">  1        2 0.18155958E+00 0.84003757E+02</pdfrwt>
<pdfrwt beam="2">  1       -2 0.94265667E-03 0.84003757E+02</pdfrwt>
<totfact> 0.43015434E+04</totfact>
</mgrwt>
</event>
<event>
 4    1  0.4844629E-001  0.9648550E+02  0.7546771E-02  0.1287865E+00
         -1   -1    0    0    0  501 -0.00000000000E+00  0.00000000000E+00  0.17152024756E+03  0.17152024756E+03  0.00000000000E+00 0.  1.
          1   -1    0    0  501    0  0.00000000000E+00 -0.00000000000E+00 -0.86271548137E+02  0.86271548137E+02  0.00000000000E+00 0. -1.
         24    1    1    2    0    0  0.58144894299E+01 -0.52994601609E+02  0.12112067432E+03  0.15485370447E+03  0.80419002446E+02 0. -1.
        -24    1    1    2    0    0 -0.58144894299E+01  0.52994601609E+02 -0.35871974899E+02  0.10293809122E+03  0.80419002446E+02 0.  1.
<mgrwt>
<rscale>  0 0.96485502E+02</rscale>
<asrwt>0</asrwt>
<pdfrwt beam="1">  1        1 0.13272546E-01 0.96485502E+02</pdfrwt>
<pdfrwt beam="2">  1       -1 0.26387730E-01 0.96485502E+02</pdfrwt>
<totfact> 0.51850526E+03</totfact>
</mgrwt>
</event>
<event>
 4    1  0.4844629E-001  0.8770055E+02  0.7546771E-02  0.1308518E+00
          1   -1    0    0  501    0  0.00000000000E+00  0.00000000000E+00  0.24987981846E+04  0.24987981846E+04  0.00000000000E+00 0. -1.
         -1   -1    0    0    0  501 -0.00000000000E+00 -0.00000000000E+00 -0.32798764414E+01  0.32798764414E+01  0.00000000000E+00 0.  1.
         24    1    1    2    0    0 -0.15065350702E+02  0.31578506769E+02  0.15581076369E+04  0.15605738659E+04  0.80419002446E+02 0.  0.
        -24    1    1    2    0    0  0.15065350702E+02 -0.31578506769E+02  0.93741067123E+03  0.94150419509E+03  0.80419002446E+02 0.  0.
<mgrwt>
<rscale>  0 0.87700540E+02</rscale>
<asrwt>0</asrwt>
<pdfrwt beam="1">  1        1 0.38442897E+00 0.87700551E+02</pdfrwt>
<pdfrwt beam="2">  1       -1 0.50459837E-03 0.87700551E+02</pdfrwt>
<totfact> 0.77789775E+03</totfact>
</mgrwt>
</event>
<event>
 4    1  0.4844629E-001  0.1075457E+03  0.7546771E-02  0.1265184E+00
          2   -1    0    0  501    0  0.00000000000E+00  0.00000000000E+00  0.19339872942E+03  0.19339872942E+03  0.00000000000E+00 0. -1.
         -2   -1    0    0    0  501 -0.00000000000E+00 -0.00000000000E+00 -0.60090902858E+02  0.60090902858E+02  0.00000000000E+00 0.  1.
         24    1    1    2    0    0  0.25391578673E+02 -0.66739200778E+02  0.75407610700E+02  0.13134830373E+03  0.80419002446E+02 0. -1.
        -24    1    1    2    0    0 -0.25391578673E+02  0.66739200778E+02  0.57900215866E+02  0.12214132855E+03  0.80419002446E+02 0.  1.
<mgrwt>
<rscale>  0 0.10754566E+03</rscale>
<asrwt>0</asrwt>
<pdfrwt beam="1">  1        2 0.29753650E-01 0.10754566E+03</pdfrwt>
<pdfrwt beam="2">  1       -2 0.92447544E-02 0.10754566E+03</pdfrwt>
<totfact> 0.12248974E+04</totfact>
</mgrwt>
</event>
<event>
 4    1  0.4844629E-001  0.1870656E+03  0.7546771E-02  0.1161135E+00
          2   -1    0    0  501    0  0.00000000000E+00  0.00000000000E+00  0.33386228981E+04  0.33386228981E+04  0.00000000000E+00 0. -1.
         -2   -1    0    0    0  501 -0.00000000000E+00 -0.00000000000E+00 -0.46508872272E+02  0.46508872272E+02  0.00000000000E+00 0.  1.
         24    1    1    2    0    0 -0.74434682245E+02 -0.15161071064E+03  0.31357418189E+04  0.31413166507E+04  0.80419002446E+02 0. -1.
        -24    1    1    2    0    0  0.74434682245E+02  0.15161071064E+03  0.15637220691E+03  0.24381511961E+03  0.80419002446E+02 0.  1.
<mgrwt>
<rscale>  0 0.18706562E+03</rscale>
<asrwt>0</asrwt>
<pdfrwt beam="1">  1        2 0.51363411E+00 0.18706562E+03</pdfrwt>
<pdfrwt beam="2">  1       -2 0.71552137E-02 0.18706562E+03</pdfrwt>
<totfact> 0.15093686E+02</totfact>
</mgrwt>
</event>
<event>
 4    1  0.4844629E-001  0.8047166E+02  0.7546771E-02  0.1327718E+00
          2   -1    0    0  501    0  0.00000000000E+00  0.00000000000E+00  0.37593719298E+02  0.37593719298E+02  0.00000000000E+00 0. -1.
         -2   -1    0    0    0  501 -0.00000000000E+00 -0.00000000000E+00 -0.23317005924E+03  0.23317005924E+03  0.00000000000E+00 0.  1.
         24    1    1    2    0    0  0.27685282246E+01 -0.89893206415E+00 -0.28591027856E+02  0.85399857468E+02  0.80419002446E+02 0.  0.
        -24    1    1    2    0    0 -0.27685282246E+01  0.89893206415E+00 -0.16698531209E+03  0.18536392107E+03  0.80419002446E+02 0.  1.
<mgrwt>
<rscale>  0 0.80471664E+02</rscale>
<asrwt>0</asrwt>
<pdfrwt beam="1">  1        2 0.57836491E-02 0.80471664E+02</pdfrwt>
<pdfrwt beam="2">  1       -2 0.35872317E-01 0.80471664E+02</pdfrwt>
<totfact> 0.84921695E+03</totfact>
</mgrwt>
</event>
<event>
 4    1  0.4844629E-001  0.8371054E+02  0.7546771E-02  0.1318839E+00
          1   -1    0    0  501    0  0.00000000000E+00  0.00000000000E+00  0.54372974194E+03  0.54372974194E+03  0.00000000000E+00 0. -1.
         -1   -1    0    0    0  501 -0.00000000000E+00 -0.00000000000E+00 -0.18226417252E+02  0.18226417252E+02  0.00000000000E+00 0.  1.
         24    1    1    2    0    0  0.20795090805E+02  0.10382844093E+02  0.11068358823E+03  0.13877432007E+03  0.80419002446E+02 0.  0.
        -24    1    1    2    0    0 -0.20795090805E+02 -0.10382844093E+02  0.41481973646E+03  0.42318183913E+03  0.80419002446E+02 0. -1.
<mgrwt>
<rscale>  0 0.83710544E+02</rscale>
<asrwt>0</asrwt>
<pdfrwt beam="1">  1        1 0.83650717E-01 0.83710544E+02</pdfrwt>
<pdfrwt beam="2">  1       -1 0.28040646E-02 0.83710544E+02</pdfrwt>
<totfact> 0.15237090E+04</totfact>
</mgrwt>
</event>
<event>
 4    1  0.4844629E-001  0.8176151E+02  0.7546771E-02  0.1324126E+00
         -1   -1    0    0    0  501 -0.00000000000E+00  0.00000000000E+00  0.35096635595E+01  0.35096635595E+01  0.00000000000E+00 0.  1.
          1   -1    0    0  501    0  0.00000000000E+00 -0.00000000000E+00 -0.20930898250E+04  0.20930898250E+04  0.00000000000E+00 0. -1.
         24    1    1    2    0    0 -0.95221555573E+01  0.11271967948E+02 -0.73031140129E+03  0.73487392628E+03  0.80419002446E+02 0.  0.
        -24    1    1    2    0    0  0.95221555573E+01 -0.11271967948E+02 -0.13592687601E+04  0.13617255622E+04  0.80419002446E+02 0. -1.
<mgrwt>
<rscale>  0 0.81761511E+02</rscale>
<asrwt>0</asrwt>
<pdfrwt beam="1">  1        1 0.32201405E+00 0.81761511E+02</pdfrwt>
<pdfrwt beam="2">  1       -1 0.53994786E-03 0.81761511E+02</pdfrwt>
<totfact> 0.12744902E+04</totfact>
</mgrwt>
</event>
<event>
 4    1  0.4844629E-001  0.8369369E+02  0.7546771E-02  0.1318884E+00
         -1   -1    0    0    0  501 -0.00000000000E+00  0.00000000000E+00  0.34975433845E+02  0.34975433845E+02  0.00000000000E+00 0.  1.
          1   -1    0    0  501    0  0.00000000000E+00 -0.00000000000E+00 -0.58391259976E+03  0.58391259976E+03  0.00000000000E+00 0. -1.
         24    1    1    2    0    0 -0.20990651434E+02 -0.98392315332E+01 -0.23644114632E+02  0.86969408621E+02  0.80419002446E+02 0.  1.
        -24    1    1    2    0    0  0.20990651434E+02  0.98392315332E+01 -0.52529305129E+03  0.53191862499E+03  0.80419002446E+02 0. -1.
<mgrwt>
<rscale>  0 0.83693691E+02</rscale>
<asrwt>0</asrwt>
<pdfrwt beam="1">  1        1 0.89832698E-01 0.83693691E+02</pdfrwt>
<pdfrwt beam="2">  1       -1 0.53808366E-02 0.83693691E+02</pdfrwt>
<totfact> 0.53988979E+03</totfact>
</mgrwt>
</event>
<event>
 4    1  0.4844629E-001  0.8984450E+02  0.7546771E-02  0.1303229E+00
          1   -1    0    0  501    0  0.00000000000E+00  0.00000000000E+00  0.65681391533E+03  0.65681391533E+03  0.00000000000E+00 0. -1.
         -1   -1    0    0    0  501 -0.00000000000E+00 -0.00000000000E+00 -0.13863413704E+02  0.13863413704E+02  0.00000000000E+00 0.  1.
         24    1    1    2    0    0 -0.36616440688E+02 -0.16249742862E+02  0.20849202912E+03  0.22702634216E+03  0.80419002446E+02 0.  1.
        -24    1    1    2    0    0  0.36616440688E+02  0.16249742862E+02  0.43445847251E+03  0.44365098688E+03  0.80419002446E+02 0. -1.
<mgrwt>
<rscale>  0 0.89844498E+02</rscale>
<asrwt>0</asrwt>
<pdfrwt beam="1">  1        1 0.10104827E+00 0.89844498E+02</pdfrwt>
<pdfrwt beam="2">  1       -1 0.21328334E-02 0.89844498E+02</pdfrwt>
<totfact> 0.17626654E+04</totfact>
</mgrwt>
</event>
<event>
 4    1  0.4844629E-001  0.1025807E+03  0.7546771E-02  0.1274961E+00
         -1   -1    0    0    0  501 -0.00000000000E+00  0.00000000000E+00  0.68259774183E+01  0.68259774183E+01  0.00000000000E+00 0.  1.
          1   -1    0    0  501    0  0.00000000000E+00 -0.00000000000E+00 -0.16408696849E+04  0.16408696849E+04  0.00000000000E+00 0. -1.
         24    1    1    2    0    0  0.32289896226E+02 -0.54890312590E+02 -0.61436608101E+03  0.62287115944E+03  0.80419002446E+02 0.  1.
        -24    1    1    2    0    0 -0.32289896226E+02  0.54890312590E+02 -0.10196776265E+04  0.10248245029E+04  0.80419002446E+02 0. -1.
<mgrwt>
<rscale>  0 0.10258070E+03</rscale>
<asrwt>0</asrwt>
<pdfrwt beam="1">  1        1 0.25244188E+00 0.10258070E+03</pdfrwt>
<pdfrwt beam="2">  1       -1 0.10501488E-02 0.10258070E+03</pdfrwt>
<totfact> 0.97362300E+03</totfact>
</mgrwt>
</event>
<event>
 4    1  0.4844629E-001  0.8521619E+02  0.7546771E-02  0.1314868E+00
         -2   -1    0    0    0  501 -0.00000000000E+00  0.00000000000E+00  0.22565756875E+02  0.22565756875E+02  0.00000000000E+00 0.  1.
          2   -1    0    0  501    0  0.00000000000E+00 -0.00000000000E+00 -0.55940380438E+03  0.55940380438E+03  0.00000000000E+00 0. -1.
         24    1    1    2    0    0 -0.21691328406E+02  0.18001929739E+02 -0.45805845705E+03  0.46591774942E+03  0.80419002446E+02 0. -1.
        -24    1    1    2    0    0  0.21691328406E+02 -0.18001929739E+02 -0.78779590463E+02  0.11605181184E+03  0.80419002446E+02 0.  1.
<mgrwt>
<rscale>  0 0.85216191E+02</rscale>
<asrwt>0</asrwt>
<pdfrwt beam="1">  1        2 0.86062117E-01 0.85216191E+02</pdfrwt>
<pdfrwt beam="2">  1       -2 0.34716552E-02 0.85216191E+02</pdfrwt>
<totfact> 0.16890045E+04</totfact>
</mgrwt>
</event>
<event>
 4    1  0.4844629E-001  0.9830036E+02  0.7546771E-02  0.1283911E+00
         -2   -1    0    0    0  501 -0.00000000000E+00  0.00000000000E+00  0.48302552141E+02  0.48302552141E+02  0.00000000000E+00 0.  1.
          2   -1    0    0  501    0  0.00000000000E+00 -0.00000000000E+00 -0.22442002243E+04  0.22442002243E+04  0.00000000000E+00 0. -1.
         24    1    1    2    0    0  0.11412254967E+02 -0.55367009292E+02 -0.21919188044E+04  0.21941219215E+04  0.80419002446E+02 0. -1.
        -24    1    1    2    0    0 -0.11412254967E+02  0.55367009292E+02 -0.39788677664E+01  0.98380854969E+02  0.80419002446E+02 0.  1.
<mgrwt>
<rscale>  0 0.98300362E+02</rscale>
<asrwt>0</asrwt>
<pdfrwt beam="1">  1        2 0.34526144E+00 0.98300362E+02</pdfrwt>
<pdfrwt beam="2">  1       -2 0.74311647E-02 0.98300362E+02</pdfrwt>
<totfact> 0.61394905E+02</totfact>
</mgrwt>
</event>
<event>
 4    1  0.4844629E-001  0.9680195E+02  0.7546771E-02  0.1287168E+00
         -2   -1    0    0    0  501 -0.00000000000E+00  0.00000000000E+00  0.67157788373E+02  0.67157788373E+02  0.00000000000E+00 0.  1.
          2   -1    0    0  501    0  0.00000000000E+00 -0.00000000000E+00 -0.28803820804E+04  0.28803820804E+04  0.00000000000E+00 0. -1.
         24    1    1    2    0    0  0.47152454657E+02  0.26077714872E+02 -0.28442428314E+04  0.28458896502E+04  0.80419002446E+02 0. -1.
        -24    1    1    2    0    0 -0.47152454657E+02 -0.26077714872E+02  0.31018539386E+02  0.10165021856E+03  0.80419002446E+02 0.  1.
<mgrwt>
<rscale>  0 0.96801948E+02</rscale>
<asrwt>0</asrwt>
<pdfrwt beam="1">  1        2 0.44313569E+00 0.96801948E+02</pdfrwt>
<pdfrwt beam="2">  1       -2 0.10331968E-01 0.96801948E+02</pdfrwt>
<totfact> 0.16950576E+02</totfact>
</mgrwt>
</event>
<event>
 4    1  0.4844629E-001  0.8515458E+02  0.7546771E-02  0.1315029E+00
          3   -1    0    0  501    0  0.00000000000E+00  0.00000000000E+00  0.23485614688E+03  0.23485614688E+03  0.00000000000E+00 0. -1.
         -3   -1    0    0    0  501 -0.00000000000E+00 -0.00000000000E+00 -0.31221982694E+02  0.31221982694E+02  0.00000000000E+00 0.  1.
         24    1    1    2    0    0 -0.17044185005E+02 -0.22216725842E+02  0.87802375688E+02  0.12231336918E+03  0.80419002446E+02 0. -1.
        -24    1    1    2    0    0  0.17044185005E+02  0.22216725842E+02  0.11583178849E+03  0.14376476039E+03  0.80419002446E+02 0.  1.
<mgrwt>
<rscale>  0 0.85154584E+02</rscale>
<asrwt>0</asrwt>
<pdfrwt beam="1">  1        3 0.36131714E-01 0.85154584E+02</pdfrwt>
<pdfrwt beam="2">  1       -3 0.48033821E-02 0.85154584E+02</pdfrwt>
<totfact> 0.38028381E+03</totfact>
</mgrwt>
</event>
<event>
 4    1  0.4844629E-001  0.9755423E+02  0.7546771E-02  0.1285525E+00
         -1   -1    0    0    0  501 -0.00000000000E+00  0.00000000000E+00  0.29029206369E+02  0.29029206369E+02  0.00000000000E+00 0.  1.
          1   -1    0    0  501    0  0.00000000000E+00 -0.00000000000E+00 -0.70296305214E+03  0.70296305214E+03  0.00000000000E+00 0. -1.
         24    1    1    2    0    0 -0.53047174017E+02 -0.15349576049E+02 -0.69605187608E+02  0.11984035319E+03  0.80419002446E+02 0.  1.
        -24    1    1    2    0    0  0.53047174017E+02  0.15349576049E+02 -0.60432865817E+03  0.61215190533E+03  0.80419002446E+02 0. -1.
<mgrwt>
<rscale>  0 0.97554232E+02</rscale>
<asrwt>0</asrwt>
<pdfrwt beam="1">  1        1 0.10814816E+00 0.97554232E+02</pdfrwt>
<pdfrwt beam="2">  1       -1 0.44660320E-02 0.97554232E+02</pdfrwt>
<totfact> 0.55528826E+03</totfact>
</mgrwt>
</event>
<event>
 4    1  0.4844629E-001  0.9572719E+02  0.7546771E-02  0.1289547E+00
         -2   -1    0    0    0  501 -0.00000000000E+00  0.00000000000E+00  0.33281282594E+03  0.33281282594E+03  0.00000000000E+00 0.  1.
          2   -1    0    0  501    0  0.00000000000E+00 -0.00000000000E+00 -0.35283752220E+02  0.35283752220E+02  0.00000000000E+00 0. -1.
         24    1    1    2    0    0 -0.27429806530E+02  0.44091777004E+02  0.62509182391E+02  0.11432888053E+03  0.80419002446E+02 0. -1.
        -24    1    1    2    0    0  0.27429806530E+02 -0.44091777004E+02  0.23501989133E+03  0.25376769763E+03  0.80419002446E+02 0.  1.
<mgrwt>
<rscale>  0 0.95727191E+02</rscale>
<asrwt>0</asrwt>
<pdfrwt beam="1">  1        2 0.54282698E-02 0.95727191E+02</pdfrwt>
<pdfrwt beam="2">  1       -2 0.51201971E-01 0.95727191E+02</pdfrwt>
<totfact> 0.47597610E+03</totfact>
</mgrwt>
</event>
<event>
 4    1  0.4844629E-001  0.9479582E+02  0.7546771E-02  0.1291637E+00
         -2   -1    0    0    0  501 -0.00000000000E+00  0.00000000000E+00  0.12776194367E+02  0.12776194367E+02  0.00000000000E+00 0.  1.
          2   -1    0    0  501    0  0.00000000000E+00 -0.00000000000E+00 -0.17682527438E+04  0.17682527438E+04  0.00000000000E+00 0. -1.
         24    1    1    2    0    0 -0.28257039188E+02 -0.41479762207E+02 -0.15688082394E+04  0.15716696659E+04  0.80419002446E+02 0. -1.
        -24    1    1    2    0    0  0.28257039188E+02  0.41479762207E+02 -0.18666831009E+03  0.20935927226E+03  0.80419002446E+02 0.  1.
<mgrwt>
<rscale>  0 0.94795817E+02</rscale>
<asrwt>0</asrwt>
<pdfrwt beam="1">  1        2 0.27203905E+00 0.94795817E+02</pdfrwt>
<pdfrwt beam="2">  1       -2 0.19655671E-02 0.94795817E+02</pdfrwt>
<totfact> 0.75801785E+03</totfact>
</mgrwt>
</event>
<event>
 4    1  0.4844629E-001  0.8246723E+02  0.7546771E-02  0.1322192E+00
         -2   -1    0    0    0  501 -0.00000000000E+00  0.00000000000E+00  0.26002373700E+02  0.26002373700E+02  0.00000000000E+00 0.  1.
          2   -1    0    0  501    0  0.00000000000E+00 -0.00000000000E+00 -0.26278957165E+03  0.26278957165E+03  0.00000000000E+00 0. -1.
         24    1    1    2    0    0  0.16875407127E+02 -0.69889737064E+01 -0.10846418611E+03  0.13625461732E+03  0.80419002446E+02 0. -1.
        -24    1    1    2    0    0 -0.16875407127E+02  0.69889737064E+01 -0.12832301184E+03  0.15253732803E+03  0.80419002446E+02 0.  0.
<mgrwt>
<rscale>  0 0.82467222E+02</rscale>
<asrwt>0</asrwt>
<pdfrwt beam="1">  1        2 0.40429164E-01 0.82467233E+02</pdfrwt>
<pdfrwt beam="2">  1       -2 0.40003653E-02 0.82467233E+02</pdfrwt>
<totfact> 0.30363278E+04</totfact>
</mgrwt>
</event>
<event>
 4    1  0.4844629E-001  0.8520121E+02  0.7546771E-02  0.1314907E+00
          1   -1    0    0  501    0  0.00000000000E+00  0.00000000000E+00  0.16270599631E+04  0.16270599631E+04  0.00000000000E+00 0. -1.
         -1   -1    0    0    0  501 -0.00000000000E+00 -0.00000000000E+00 -0.44831912789E+01  0.44831912789E+01  0.00000000000E+00 0.  1.
         24    1    1    2    0    0 -0.27420328985E+02  0.63366131818E+01  0.86793951479E+03  0.87211137156E+03  0.80419002446E+02 0. -1.
        -24    1    1    2    0    0  0.27420328985E+02 -0.63366131818E+01  0.75463725702E+03  0.75943178281E+03  0.80419002446E+02 0.  1.
<mgrwt>
<rscale>  0 0.85201202E+02</rscale>
<asrwt>0</asrwt>
<pdfrwt beam="1">  1        1 0.25031645E+00 0.85201213E+02</pdfrwt>
<pdfrwt beam="2">  1       -1 0.68972304E-03 0.85201213E+02</pdfrwt>
<totfact> 0.17752214E+04</totfact>
</mgrwt>
</event>
<event>
 4    1  0.4844629E-001  0.1695288E+03  0.7546771E-02  0.1178340E+00
          2   -1    0    0  501    0  0.00000000000E+00  0.00000000000E+00  0.66215719482E+03  0.66215719482E+03  0.00000000000E+00 0. -1.
         -2   -1    0    0    0  501 -0.00000000000E+00 -0.00000000000E+00 -0.44201537664E+02  0.44201537664E+02  0.00000000000E+00 0.  1.
         24    1    1    2    0    0 -0.23984533544E+02 -0.14730079324E+03  0.26152472500E+03  0.31166517174E+03  0.80419002446E+02 0.  1.
        -24    1    1    2    0    0  0.23984533544E+02  0.14730079324E+03  0.35643093216E+03  0.39469356074E+03  0.80419002446E+02 0. -1.
<mgrwt>
<rscale>  0 0.16952877E+03</rscale>
<asrwt>0</asrwt>
<pdfrwt beam="1">  1        2 0.10187033E+00 0.16952879E+03</pdfrwt>
<pdfrwt beam="2">  1       -2 0.68002370E-02 0.16952879E+03</pdfrwt>
<totfact> 0.53468576E+03</totfact>
</mgrwt>
</event>
<event>
 4    1  0.4844629E-001  0.8366070E+02  0.7546771E-02  0.1318973E+00
         -1   -1    0    0    0  501 -0.00000000000E+00  0.00000000000E+00  0.24458852776E+03  0.24458852776E+03  0.00000000000E+00 0.  1.
          1   -1    0    0  501    0  0.00000000000E+00 -0.00000000000E+00 -0.35923599984E+02  0.35923599984E+02  0.00000000000E+00 0. -1.
         24    1    1    2    0    0  0.20205635357E+02 -0.11118849485E+02  0.16759157628E+03  0.18731270354E+03  0.80419002446E+02 0.  0.
        -24    1    1    2    0    0 -0.20205635357E+02  0.11118849485E+02  0.41073351496E+02  0.93199424202E+02  0.80419002446E+02 0. -1.
<mgrwt>
<rscale>  0 0.83660698E+02</rscale>
<asrwt>0</asrwt>
<pdfrwt beam="1">  1        1 0.55267079E-02 0.83660698E+02</pdfrwt>
<pdfrwt beam="2">  1       -1 0.37629003E-01 0.83660698E+02</pdfrwt>
<totfact> 0.89796200E+03</totfact>
</mgrwt>
</event>
<event>
 4    1  0.4844629E-001  0.1015537E+03  0.7546771E-02  0.1277062E+00
         -4   -1    0    0    0  501 -0.00000000000E+00  0.00000000000E+00  0.15817853064E+03  0.15817853064E+03  0.00000000000E+00 0.  1.
          4   -1    0    0  501    0  0.00000000000E+00 -0.00000000000E+00 -0.69777638782E+02  0.69777638782E+02  0.00000000000E+00 0. -1.
         24    1    1    2    0    0  0.23719865866E+02  0.57300108440E+02  0.15005283046E+02  0.10265626594E+03  0.80419002446E+02 0. -1.
        -24    1    1    2    0    0 -0.23719865866E+02 -0.57300108440E+02  0.73395608807E+02  0.12529990347E+03  0.80419002446E+02 0.  1.
<mgrwt>
<rscale>  0 0.10155368E+03</rscale>
<asrwt>0</asrwt>
<pdfrwt beam="1">  1        4 0.10735021E-01 0.10155368E+03</pdfrwt>
<pdfrwt beam="2">  1       -4 0.24335158E-01 0.10155368E+03</pdfrwt>
<totfact> 0.16279532E+03</totfact>
</mgrwt>
</event>
<event>
 4    1  0.4844629E-001  0.1148795E+03  0.7546771E-02  0.1251792E+00
          2   -1    0    0  501    0  0.00000000000E+00  0.00000000000E+00  0.12483801697E+04  0.12483801697E+04  0.00000000000E+00 0. -1.
         -2   -1    0    0    0  501 -0.00000000000E+00 -0.00000000000E+00 -0.31818326698E+02  0.31818326698E+02  0.00000000000E+00 0.  1.
         24    1    1    2    0    0 -0.48083865300E+02  0.66468187473E+02  0.11313455280E+04  0.11371631359E+04  0.80419002446E+02 0. -1.
        -24    1    1    2    0    0  0.48083865300E+02 -0.66468187473E+02  0.85216315018E+02  0.14303536048E+03  0.80419002446E+02 0.  1.
<mgrwt>
<rscale>  0 0.11487948E+03</rscale>
<asrwt>0</asrwt>
<pdfrwt beam="1">  1        2 0.19205845E+00 0.11487948E+03</pdfrwt>
<pdfrwt beam="2">  1       -2 0.48951281E-02 0.11487948E+03</pdfrwt>
<totfact> 0.37264083E+03</totfact>
</mgrwt>
</event>
<event>
 4    1  0.4844629E-001  0.8952390E+02  0.7546771E-02  0.1304009E+00
          2   -1    0    0  501    0  0.00000000000E+00  0.00000000000E+00  0.90264988259E+03  0.90264988259E+03  0.00000000000E+00 0. -1.
         -2   -1    0    0    0  501 -0.00000000000E+00 -0.00000000000E+00 -0.12843129811E+02  0.12843129811E+02  0.00000000000E+00 0.  1.
         24    1    1    2    0    0 -0.11315329129E+02  0.37673283777E+02  0.69921696493E+03  0.70492474278E+03  0.80419002446E+02 0.  1.
        -24    1    1    2    0    0  0.11315329129E+02 -0.37673283777E+02  0.19058978784E+03  0.21056826962E+03  0.80419002446E+02 0.  1.
<mgrwt>
<rscale>  0 0.89523901E+02</rscale>
<asrwt>0</asrwt>
<pdfrwt beam="1">  1        2 0.13886916E+00 0.89523901E+02</pdfrwt>
<pdfrwt beam="2">  1       -2 0.19758668E-02 0.89523901E+02</pdfrwt>
<totfact> 0.21832256E+04</totfact>
</mgrwt>
</event>
<event>
 4    1  0.4844629E-001  0.8928734E+02  0.7546771E-02  0.1304587E+00
         -2   -1    0    0    0  501 -0.00000000000E+00  0.00000000000E+00  0.36685828940E+01  0.36685828940E+01  0.00000000000E+00 0.  1.
          2   -1    0    0  501    0  0.00000000000E+00 -0.00000000000E+00 -0.21937499977E+04  0.21937499977E+04  0.00000000000E+00 0. -1.
         24    1    1    2    0    0  0.16088290486E+02  0.35301277735E+02 -0.12016163980E+04  0.12049291254E+04  0.80419002446E+02 0. -1.
        -24    1    1    2    0    0 -0.16088290486E+02 -0.35301277735E+02 -0.98846501680E+03  0.99248945520E+03  0.80419002446E+02 0.  1.
<mgrwt>
<rscale>  0 0.89287341E+02</rscale>
<asrwt>0</asrwt>
<pdfrwt beam="1">  1        2 0.33749977E+00 0.89287341E+02</pdfrwt>
<pdfrwt beam="2">  1       -2 0.56439774E-03 0.89287341E+02</pdfrwt>
<totfact> 0.27077243E+04</totfact>
</mgrwt>
</event>
<event>
 4    1  0.4844629E-001  0.1196322E+03  0.7546771E-02  0.1243705E+00
          1   -1    0    0  501    0  0.00000000000E+00  0.00000000000E+00  0.14470211627E+04  0.14470211627E+04  0.00000000000E+00 0. -1.
         -1   -1    0    0    0  501 -0.00000000000E+00 -0.00000000000E+00 -0.14566525919E+02  0.14566525919E+02  0.00000000000E+00 0.  1.
         24    1    1    2    0    0 -0.59611011990E+02 -0.65507065614E+02  0.30217799077E+03  0.32499754223E+03  0.80419002446E+02 0.  1.
        -24    1    1    2    0    0  0.59611011990E+02  0.65507065614E+02  0.11302766460E+04  0.11365901464E+04  0.80419002446E+02 0. -1.
<mgrwt>
<rscale>  0 0.11963220E+03</rscale>
<asrwt>0</asrwt>
<pdfrwt beam="1">  1        1 0.22261853E+00 0.11963220E+03</pdfrwt>
<pdfrwt beam="2">  1       -1 0.22410051E-02 0.11963220E+03</pdfrwt>
<totfact> 0.44182655E+03</totfact>
</mgrwt>
</event>
<event>
 4    1  0.4844629E-001  0.8423611E+02  0.7546771E-02  0.1317442E+00
          2   -1    0    0  501    0  0.00000000000E+00  0.00000000000E+00  0.36284680685E+01  0.36284680685E+01  0.00000000000E+00 0. -1.
         -2   -1    0    0    0  501 -0.00000000000E+00 -0.00000000000E+00 -0.21190637025E+04  0.21190637025E+04  0.00000000000E+00 0.  1.
         24    1    1    2    0    0  0.15577661472E+02  0.19642860329E+02 -0.76291169281E+03  0.76754802617E+03  0.80419002446E+02 0. -1.
        -24    1    1    2    0    0 -0.15577661472E+02 -0.19642860329E+02 -0.13525235416E+04  0.13551441443E+04  0.80419002446E+02 0.  1.
<mgrwt>
<rscale>  0 0.84236105E+02</rscale>
<asrwt>0</asrwt>
<pdfrwt beam="1">  1        2 0.55822474E-03 0.84236105E+02</pdfrwt>
<pdfrwt beam="2">  1       -2 0.32601045E+00 0.84236105E+02</pdfrwt>
<totfact> 0.80752150E+02</totfact>
</mgrwt>
</event>
<event>
 4    1  0.4844629E-001  0.9599150E+02  0.7546771E-02  0.1288958E+00
         -2   -1    0    0    0  501 -0.00000000000E+00  0.00000000000E+00  0.40001026592E+02  0.40001026592E+02  0.00000000000E+00 0.  1.
          2   -1    0    0  501    0  0.00000000000E+00 -0.00000000000E+00 -0.20421608233E+04  0.20421608233E+04  0.00000000000E+00 0. -1.
         24    1    1    2    0    0  0.37490771622E+02  0.36627775625E+02 -0.19816881653E+04  0.19840116815E+04  0.80419002446E+02 0. -1.
        -24    1    1    2    0    0 -0.37490771622E+02 -0.36627775625E+02 -0.20471631386E+02  0.98150168365E+02  0.80419002446E+02 0.  1.
<mgrwt>
<rscale>  0 0.95991499E+02</rscale>
<asrwt>0</asrwt>
<pdfrwt beam="1">  1        2 0.31417863E+00 0.95991499E+02</pdfrwt>
<pdfrwt beam="2">  1       -2 0.61540032E-02 0.95991499E+02</pdfrwt>
<totfact> 0.10355568E+03</totfact>
</mgrwt>
</event>
<event>
 4    1  0.4844629E-001  0.8502868E+02  0.7546771E-02  0.1315358E+00
         -3   -1    0    0    0  501 -0.00000000000E+00  0.00000000000E+00  0.44139031121E+02  0.44139031121E+02  0.00000000000E+00 0.  1.
          3   -1    0    0  501    0  0.00000000000E+00 -0.00000000000E+00 -0.23002241396E+03  0.23002241396E+03  0.00000000000E+00 0. -1.
         24    1    1    2    0    0  0.21124958245E+02 -0.17787521939E+02 -0.19388578645E+02  0.87211196150E+02  0.80419002446E+02 0.  0.
        -24    1    1    2    0    0 -0.21124958245E+02  0.17787521939E+02 -0.16649480420E+03  0.18695024893E+03  0.80419002446E+02 0. -1.
<mgrwt>
<rscale>  0 0.85028676E+02</rscale>
<asrwt>0</asrwt>
<pdfrwt beam="1">  1        3 0.35388063E-01 0.85028676E+02</pdfrwt>
<pdfrwt beam="2">  1       -3 0.67906203E-02 0.85028676E+02</pdfrwt>
<totfact> 0.22903223E+03</totfact>
</mgrwt>
</event>
<event>
 4    1  0.4844629E-001  0.1190200E+03  0.7546771E-02  0.1244722E+00
          1   -1    0    0  501    0  0.00000000000E+00  0.00000000000E+00  0.99740125914E+03  0.99740125914E+03  0.00000000000E+00 0. -1.
         -1   -1    0    0    0  501 -0.00000000000E+00 -0.00000000000E+00 -0.15458074913E+02  0.15458074913E+02  0.00000000000E+00 0.  1.
         24    1    1    2    0    0  0.82806416463E+02  0.29011265506E+02  0.34664996583E+03  0.36651326156E+03  0.80419002446E+02 0.  1.
        -24    1    1    2    0    0 -0.82806416463E+02 -0.29011265506E+02  0.63529321840E+03  0.64634607250E+03  0.80419002446E+02 0. -1.
<mgrwt>
<rscale>  0 0.11902005E+03</rscale>
<asrwt>0</asrwt>
<pdfrwt beam="1">  1        1 0.15344630E+00 0.11902005E+03</pdfrwt>
<pdfrwt beam="2">  1       -1 0.23781661E-02 0.11902005E+03</pdfrwt>
<totfact> 0.82038735E+03</totfact>
</mgrwt>
</event>
<event>
 4    1  0.4844629E-001  0.1483222E+03  0.7546771E-02  0.1202550E+00
          1   -1    0    0  501    0  0.00000000000E+00  0.00000000000E+00  0.31022936138E+02  0.31022936138E+02  0.00000000000E+00 0. -1.
         -1   -1    0    0    0  501 -0.00000000000E+00 -0.00000000000E+00 -0.71294265982E+03  0.71294265982E+03  0.00000000000E+00 0.  1.
         24    1    1    2    0    0  0.85030258017E+02 -0.91115870111E+02 -0.36814310546E+03  0.39689899045E+03  0.80419002446E+02 0. -1.
        -24    1    1    2    0    0 -0.85030258017E+02  0.91115870111E+02 -0.31377661822E+03  0.34706660551E+03  0.80419002446E+02 0.  1.
<mgrwt>
<rscale>  0 0.14832216E+03</rscale>
<asrwt>0</asrwt>
<pdfrwt beam="1">  1        1 0.47727594E-02 0.14832216E+03</pdfrwt>
<pdfrwt beam="2">  1       -1 0.10968349E+00 0.14832216E+03</pdfrwt>
<totfact> 0.14219166E+03</totfact>
</mgrwt>
</event>
<event>
 4    1  0.4844629E-001  0.1839297E+03  0.7546771E-02  0.1164053E+00
          2   -1    0    0  501    0  0.00000000000E+00  0.00000000000E+00  0.19908514893E+04  0.19908514893E+04  0.00000000000E+00 0. -1.
         -2   -1    0    0    0  501 -0.00000000000E+00 -0.00000000000E+00 -0.40565455018E+02  0.40565455018E+02  0.00000000000E+00 0.  1.
         24    1    1    2    0    0 -0.10363446545E+03 -0.12892950625E+03  0.17494179040E+04  0.17590603000E+04  0.80419002446E+02 0. -1.
        -24    1    1    2    0    0  0.10363446545E+03  0.12892950625E+03  0.20086813020E+03  0.27235664430E+03  0.80419002446E+02 0.  1.
<mgrwt>
<rscale>  0 0.18392970E+03</rscale>
<asrwt>0</asrwt>
<pdfrwt beam="1">  1        2 0.30628477E+00 0.18392970E+03</pdfrwt>
<pdfrwt beam="2">  1       -2 0.62408408E-02 0.18392970E+03</pdfrwt>
<totfact> 0.10586575E+03</totfact>
</mgrwt>
</event>
<event>
 4    1  0.4844629E-001  0.9700193E+02  0.7546771E-02  0.1286730E+00
          3   -1    0    0  501    0  0.00000000000E+00  0.00000000000E+00  0.19834252817E+04  0.19834252817E+04  0.00000000000E+00 0. -1.
         -3   -1    0    0    0  501 -0.00000000000E+00 -0.00000000000E+00 -0.97679699403E+01  0.97679699403E+01  0.00000000000E+00 0.  1.
         24    1    1    2    0    0 -0.54061036189E+02  0.44230455746E+01  0.27210088995E+03  0.28887414081E+03  0.80419002446E+02 0.  1.
        -24    1    1    2    0    0  0.54061036189E+02 -0.44230455746E+01  0.17015564218E+04  0.17043191108E+04  0.80419002446E+02 0. -1.
<mgrwt>
<rscale>  0 0.97001933E+02</rscale>
<asrwt>0</asrwt>
<pdfrwt beam="1">  1        3 0.30514203E+00 0.97001933E+02</pdfrwt>
<pdfrwt beam="2">  1       -3 0.15027662E-02 0.97001933E+02</pdfrwt>
<totfact> 0.14421287E+02</totfact>
</mgrwt>
</event>
<event>
 4    1  0.4844629E-001  0.8134038E+02  0.7546771E-02  0.1325290E+00
         -2   -1    0    0    0  501 -0.00000000000E+00  0.00000000000E+00  0.10086140982E+03  0.10086140982E+03  0.00000000000E+00 0.  1.
          2   -1    0    0  501    0  0.00000000000E+00 -0.00000000000E+00 -0.65879713202E+02  0.65879713202E+02  0.00000000000E+00 0. -1.
         24    1    1    2    0    0 -0.39510222445E+01  0.11551257875E+02  0.12034373933E+02  0.82225812526E+02  0.80419002446E+02 0. -1.
        -24    1    1    2    0    0  0.39510222445E+01 -0.11551257875E+02  0.22947322684E+02  0.84515310495E+02  0.80419002446E+02 0.  1.
<mgrwt>
<rscale>  0 0.81340384E+02</rscale>
<asrwt>0</asrwt>
<pdfrwt beam="1">  1        2 0.10135340E-01 0.81340384E+02</pdfrwt>
<pdfrwt beam="2">  1       -2 0.15517140E-01 0.81340384E+02</pdfrwt>
<totfact> 0.17863789E+04</totfact>
</mgrwt>
</event>
<event>
 4    1  0.4844629E-001  0.1261031E+03  0.7546771E-02  0.1233355E+00
         -1   -1    0    0    0  501 -0.00000000000E+00  0.00000000000E+00  0.36665322124E+02  0.36665322124E+02  0.00000000000E+00 0.  1.
          1   -1    0    0  501    0  0.00000000000E+00 -0.00000000000E+00 -0.45373309260E+03  0.45373309260E+03  0.00000000000E+00 0. -1.
         24    1    1    2    0    0  0.73014980197E+02 -0.64059224775E+02 -0.15702019635E+03  0.20138850421E+03  0.80419002446E+02 0. -1.
        -24    1    1    2    0    0 -0.73014980197E+02  0.64059224775E+02 -0.26004757413E+03  0.28900991052E+03  0.80419002446E+02 0.  1.
<mgrwt>
<rscale>  0 0.12610308E+03</rscale>
<asrwt>0</asrwt>
<pdfrwt beam="1">  1        1 0.69805087E-01 0.12610308E+03</pdfrwt>
<pdfrwt beam="2">  1       -1 0.56408191E-02 0.12610308E+03</pdfrwt>
<totfact> 0.71764001E+03</totfact>
</mgrwt>
</event>
<event>
 4    1  0.4844629E-001  0.1176230E+03  0.7546771E-02  0.1247071E+00
          2   -1    0    0  501    0  0.00000000000E+00  0.00000000000E+00  0.16446175152E+04  0.16446175152E+04  0.00000000000E+00 0. -1.
         -2   -1    0    0    0  501 -0.00000000000E+00 -0.00000000000E+00 -0.85867838374E+01  0.85867838374E+01  0.00000000000E+00 0.  1.
         24    1    1    2    0    0 -0.83278849737E+02 -0.20798618942E+02  0.93581550080E+03  0.94317857104E+03  0.80419002446E+02 0. -1.
        -24    1    1    2    0    0  0.83278849737E+02  0.20798618942E+02  0.70021523061E+03  0.71002572805E+03  0.80419002446E+02 0.  1.
<mgrwt>
<rscale>  0 0.11762298E+03</rscale>
<asrwt>0</asrwt>
<pdfrwt beam="1">  1        2 0.25301783E+00 0.11762298E+03</pdfrwt>
<pdfrwt beam="2">  1       -2 0.13210450E-02 0.11762298E+03</pdfrwt>
<totfact> 0.15637535E+04</totfact>
</mgrwt>
</event>
<event>
 4    1  0.4844629E-001  0.8609952E+02  0.7546771E-02  0.1312582E+00
          2   -1    0    0  501    0  0.00000000000E+00  0.00000000000E+00  0.46104770750E+03  0.46104770750E+03  0.00000000000E+00 0. -1.
         -2   -1    0    0    0  501 -0.00000000000E+00 -0.00000000000E+00 -0.17058532987E+02  0.17058532987E+02  0.00000000000E+00 0.  1.
         24    1    1    2    0    0 -0.30716994094E+02 -0.15409756174E+01  0.16470669759E+03  0.18585322305E+03  0.80419002446E+02 0.  1.
        -24    1    1    2    0    0  0.30716994094E+02  0.15409756174E+01  0.27928247692E+03  0.29225301744E+03  0.80419002446E+02 0.  0.
<mgrwt>
<rscale>  0 0.86099513E+02</rscale>
<asrwt>0</asrwt>
<pdfrwt beam="1">  1        2 0.70930407E-01 0.86099524E+02</pdfrwt>
<pdfrwt beam="2">  1       -2 0.26243900E-02 0.86099524E+02</pdfrwt>
<totfact> 0.31285589E+04</totfact>
</mgrwt>
</event>
<event>
 4    1  0.4844629E-001  0.8530698E+02  0.7546771E-02  0.1314632E+00
         -1   -1    0    0    0  501 -0.00000000000E+00  0.00000000000E+00  0.17056132323E+03  0.17056132323E+03  0.00000000000E+00 0.  1.
          1   -1    0    0  501    0  0.00000000000E+00 -0.00000000000E+00 -0.11040415677E+03  0.11040415677E+03  0.00000000000E+00 0. -1.
         24    1    1    2    0    0  0.18317067515E+02  0.21784180826E+02  0.14011712802E+03  0.16404295479E+03  0.80419002446E+02 0.  1.
        -24    1    1    2    0    0 -0.18317067515E+02 -0.21784180826E+02 -0.79959961560E+02  0.11692252522E+03  0.80419002446E+02 0. -1.
<mgrwt>
<rscale>  0 0.85306984E+02</rscale>
<asrwt>0</asrwt>
<pdfrwt beam="1">  1        1 0.16985255E-01 0.85306984E+02</pdfrwt>
<pdfrwt beam="2">  1       -1 0.26240204E-01 0.85306984E+02</pdfrwt>
<totfact> 0.37841562E+03</totfact>
</mgrwt>
</event>
<event>
 4    1  0.4844629E-001  0.8308710E+02  0.7546771E-02  0.1320512E+00
         -4   -1    0    0    0  501 -0.00000000000E+00  0.00000000000E+00  0.17697005803E+03  0.17697005803E+03  0.00000000000E+00 0.  1.
          4   -1    0    0  501    0  0.00000000000E+00 -0.00000000000E+00 -0.93850252653E+02  0.93850252653E+02  0.00000000000E+00 0. -1.
         24    1    1    2    0    0 -0.52017404971E+01  0.20228504252E+02 -0.61951041225E+02  0.10364071570E+03  0.80419002446E+02 0. -1.
        -24    1    1    2    0    0  0.52017404971E+01 -0.20228504252E+02  0.14507084660E+03  0.16717959497E+03  0.80419002446E+02 0.  1.
<mgrwt>
<rscale>  0 0.83087102E+02</rscale>
<asrwt>0</asrwt>
<pdfrwt beam="1">  1        4 0.14438500E-01 0.83087102E+02</pdfrwt>
<pdfrwt beam="2">  1       -4 0.27226163E-01 0.83087102E+02</pdfrwt>
<totfact> 0.76106561E+02</totfact>
</mgrwt>
</event>
<event>
 4    1  0.4844629E-001  0.1076303E+03  0.7546771E-02  0.1265022E+00
          1   -1    0    0  501    0  0.00000000000E+00  0.00000000000E+00  0.59034314126E+02  0.59034314126E+02  0.00000000000E+00 0. -1.
         -1   -1    0    0    0  501 -0.00000000000E+00 -0.00000000000E+00 -0.23490601540E+03  0.23490601540E+03  0.00000000000E+00 0.  1.
         24    1    1    2    0    0  0.38158067908E+02 -0.60506369327E+02 -0.14757146492E+03  0.18265161398E+03  0.80419002446E+02 0.  1.
        -24    1    1    2    0    0 -0.38158067908E+02  0.60506369327E+02 -0.28300236348E+02  0.11128871554E+03  0.80419002446E+02 0. -1.
<mgrwt>
<rscale>  0 0.10763027E+03</rscale>
<asrwt>0</asrwt>
<pdfrwt beam="1">  1        1 0.90822022E-02 0.10763027E+03</pdfrwt>
<pdfrwt beam="2">  1       -1 0.36139387E-01 0.10763027E+03</pdfrwt>
<totfact> 0.50700271E+03</totfact>
</mgrwt>
</event>
<event>
 4    1  0.4844629E-001  0.9949910E+02  0.7546771E-02  0.1281353E+00
          2   -1    0    0  501    0  0.00000000000E+00  0.00000000000E+00  0.12113918556E+02  0.12113918556E+02  0.00000000000E+00 0. -1.
         -2   -1    0    0    0  501 -0.00000000000E+00 -0.00000000000E+00 -0.84110811939E+03  0.84110811939E+03  0.00000000000E+00 0.  1.
         24    1    1    2    0    0 -0.28429972865E+02  0.51230767403E+02 -0.34264389911E+03  0.35679813962E+03  0.80419002446E+02 0. -1.
        -24    1    1    2    0    0  0.28429972865E+02 -0.51230767403E+02 -0.48635030173E+03  0.49642389833E+03  0.80419002446E+02 0.  1.
<mgrwt>
<rscale>  0 0.99499100E+02</rscale>
<asrwt>0</asrwt>
<pdfrwt beam="1">  1        2 0.18636792E-02 0.99499100E+02</pdfrwt>
<pdfrwt beam="2">  1       -2 0.12940129E+00 0.99499100E+02</pdfrwt>
<totfact> 0.25858403E+03</totfact>
</mgrwt>
</event>
<event>
 4    1  0.4844629E-001  0.8169305E+02  0.7546771E-02  0.1324314E+00
         -2   -1    0    0    0  501 -0.00000000000E+00  0.00000000000E+00  0.38144716518E+02  0.38144716518E+02  0.00000000000E+00 0.  1.
          2   -1    0    0  501    0  0.00000000000E+00 -0.00000000000E+00 -0.17918492128E+03  0.17918492128E+03  0.00000000000E+00 0. -1.
         24    1    1    2    0    0 -0.37460324016E+01  0.13874627369E+02 -0.87208282562E+02  0.11949493104E+03  0.80419002446E+02 0. -1.
        -24    1    1    2    0    0  0.37460324016E+01 -0.13874627369E+02 -0.53831922200E+02  0.97834706753E+02  0.80419002446E+02 0.  1.
<mgrwt>
<rscale>  0 0.81693047E+02</rscale>
<asrwt>0</asrwt>
<pdfrwt beam="1">  1        2 0.27566911E-01 0.81693047E+02</pdfrwt>
<pdfrwt beam="2">  1       -2 0.58684180E-02 0.81693047E+02</pdfrwt>
<totfact> 0.25794597E+04</totfact>
</mgrwt>
</event>
<event>
 4    1  0.4844629E-001  0.8820596E+02  0.7546771E-02  0.1307255E+00
         -2   -1    0    0    0  501 -0.00000000000E+00  0.00000000000E+00  0.19209195074E+02  0.19209195074E+02  0.00000000000E+00 0.  1.
          2   -1    0    0  501    0  0.00000000000E+00 -0.00000000000E+00 -0.52477832572E+03  0.52477832572E+03  0.00000000000E+00 0. -1.
         24    1    1    2    0    0  0.32997851173E+02 -0.14973861123E+02 -0.38271372521E+03  0.39274684737E+03  0.80419002446E+02 0. -1.
        -24    1    1    2    0    0 -0.32997851173E+02  0.14973861123E+02 -0.12285540543E+03  0.15124067342E+03  0.80419002446E+02 0.  1.
<mgrwt>
<rscale>  0 0.88205956E+02</rscale>
<asrwt>0</asrwt>
<pdfrwt beam="1">  1        2 0.80735128E-01 0.88205956E+02</pdfrwt>
<pdfrwt beam="2">  1       -2 0.29552607E-02 0.88205956E+02</pdfrwt>
<totfact> 0.22975658E+04</totfact>
</mgrwt>
</event>
<event>
 4    1  0.4844629E-001  0.8614504E+02  0.7546771E-02  0.1312465E+00
         -1   -1    0    0    0  501 -0.00000000000E+00  0.00000000000E+00  0.93050446874E+02  0.93050446874E+02  0.00000000000E+00 0.  1.
          1   -1    0    0  501    0  0.00000000000E+00 -0.00000000000E+00 -0.33247327467E+03  0.33247327467E+03  0.00000000000E+00 0. -1.
         24    1    1    2    0    0  0.25372529231E+02 -0.17606437243E+02  0.65785304869E+02  0.10839130114E+03  0.80419002446E+02 0.  0.
        -24    1    1    2    0    0 -0.25372529231E+02  0.17606437243E+02 -0.30520813266E+03  0.31713242040E+03  0.80419002446E+02 0. -1.
<mgrwt>
<rscale>  0 0.86145039E+02</rscale>
<asrwt>0</asrwt>
<pdfrwt beam="1">  1        1 0.51149735E-01 0.86145039E+02</pdfrwt>
<pdfrwt beam="2">  1       -1 0.14315453E-01 0.86145039E+02</pdfrwt>
<totfact> 0.25391391E+03</totfact>
</mgrwt>
</event>
<event>
 4    1  0.4844629E-001  0.8137804E+02  0.7546771E-02  0.1325186E+00
          1   -1    0    0  501    0  0.00000000000E+00  0.00000000000E+00  0.36960362106E+02  0.36960362106E+02  0.00000000000E+00 0. -1.
         -1   -1    0    0    0  501 -0.00000000000E+00 -0.00000000000E+00 -0.18917162330E+03  0.18917162330E+03  0.00000000000E+00 0.  1.
         24    1    1    2    0    0 -0.68359588848E+01  0.10413403213E+02 -0.10209665492E+03  0.13056076057E+03  0.80419002446E+02 0.  0.
        -24    1    1    2    0    0  0.68359588848E+01 -0.10413403213E+02 -0.50114606272E+02  0.95571224836E+02  0.80419002446E+02 0. -1.
<mgrwt>
<rscale>  0 0.81378039E+02</rscale>
<asrwt>0</asrwt>
<pdfrwt beam="1">  1        1 0.56862096E-02 0.81378039E+02</pdfrwt>
<pdfrwt beam="2">  1       -1 0.29103327E-01 0.81378039E+02</pdfrwt>
<totfact> 0.13271308E+04</totfact>
</mgrwt>
</event>
<event>
 4    1  0.4844629E-001  0.8493224E+02  0.7546771E-02  0.1315610E+00
          1   -1    0    0  501    0  0.00000000000E+00  0.00000000000E+00  0.17528948408E+02  0.17528948408E+02  0.00000000000E+00 0. -1.
         -1   -1    0    0    0  501 -0.00000000000E+00 -0.00000000000E+00 -0.84503717326E+03  0.84503717326E+03  0.00000000000E+00 0.  1.
         24    1    1    2    0    0  0.36301356054E+01  0.27075661234E+02 -0.72266159997E+03  0.72763539863E+03  0.80419002446E+02 0.  0.
        -24    1    1    2    0    0 -0.36301356054E+01 -0.27075661234E+02 -0.10484662489E+03  0.13493072304E+03  0.80419002446E+02 0. -1.
<mgrwt>
<rscale>  0 0.84932239E+02</rscale>
<asrwt>0</asrwt>
<pdfrwt beam="1">  1        1 0.26967606E-02 0.84932239E+02</pdfrwt>
<pdfrwt beam="2">  1       -1 0.13000575E+00 0.84932239E+02</pdfrwt>
<totfact> 0.20349869E+03</totfact>
</mgrwt>
</event>
<event>
 4    1  0.4844629E-001  0.1358692E+03  0.7546771E-02  0.1218998E+00
         -2   -1    0    0    0  501 -0.00000000000E+00  0.00000000000E+00  0.22278156828E+02  0.22278156828E+02  0.00000000000E+00 0.  1.
          2   -1    0    0  501    0  0.00000000000E+00 -0.00000000000E+00 -0.21299186195E+04  0.21299186195E+04  0.00000000000E+00 0. -1.
         24    1    1    2    0    0 -0.28541993932E+02 -0.10572877544E+03 -0.18949376866E+04  0.18998024296E+04  0.80419002446E+02 0. -1.
        -24    1    1    2    0    0  0.28541993932E+02  0.10572877544E+03 -0.21270277613E+03  0.25239434681E+03  0.80419002446E+02 0.  1.
<mgrwt>
<rscale>  0 0.13586918E+03</rscale>
<asrwt>0</asrwt>
<pdfrwt beam="1">  1        2 0.32767983E+00 0.13586918E+03</pdfrwt>
<pdfrwt beam="2">  1       -2 0.34274083E-02 0.13586918E+03</pdfrwt>
<totfact> 0.22203822E+03</totfact>
</mgrwt>
</event>
<event>
 4    1  0.4844629E-001  0.9191531E+02  0.7546771E-02  0.1298279E+00
          1   -1    0    0  501    0  0.00000000000E+00  0.00000000000E+00  0.91799461227E+03  0.91799461227E+03  0.00000000000E+00 0. -1.
         -1   -1    0    0    0  501 -0.00000000000E+00 -0.00000000000E+00 -0.15049701291E+02  0.15049701291E+02  0.00000000000E+00 0.  1.
         24    1    1    2    0    0  0.43826736678E+02  0.77734202323E+01  0.16069621664E+03  0.18512617023E+03  0.80419002446E+02 0.  1.
        -24    1    1    2    0    0 -0.43826736678E+02 -0.77734202323E+01  0.74224869434E+03  0.74791814333E+03  0.80419002446E+02 0. -1.
<mgrwt>
<rscale>  0 0.91915314E+02</rscale>
<asrwt>0</asrwt>
<pdfrwt beam="1">  1        1 0.14122990E+00 0.91915314E+02</pdfrwt>
<pdfrwt beam="2">  1       -1 0.23153394E-02 0.91915314E+02</pdfrwt>
<totfact> 0.96027909E+03</totfact>
</mgrwt>
</event>
<event>
 4    1  0.4844629E-001  0.8699856E+02  0.7546771E-02  0.1310287E+00
          2   -1    0    0  501    0  0.00000000000E+00  0.00000000000E+00  0.27618458915E+03  0.27618458915E+03  0.00000000000E+00 0. -1.
         -2   -1    0    0    0  501 -0.00000000000E+00 -0.00000000000E+00 -0.27440838555E+02  0.27440838555E+02  0.00000000000E+00 0.  1.
         24    1    1    2    0    0  0.44835437149E+01  0.32885135522E+02  0.12988268777E+03  0.15632742190E+03  0.80419002446E+02 0. -1.
        -24    1    1    2    0    0 -0.44835437149E+01 -0.32885135522E+02  0.11886106283E+03  0.14729800580E+03  0.80419002446E+02 0.  0.
<mgrwt>
<rscale>  0 0.86998565E+02</rscale>
<asrwt>0</asrwt>
<pdfrwt beam="1">  1        2 0.42489935E-01 0.86998565E+02</pdfrwt>
<pdfrwt beam="2">  1       -2 0.42216677E-02 0.86998565E+02</pdfrwt>
<totfact> 0.26805429E+04</totfact>
</mgrwt>
</event>
<event>
 4    1  0.4844629E-001  0.9732979E+02  0.7546771E-02  0.1286013E+00
          2   -1    0    0  501    0  0.00000000000E+00  0.00000000000E+00  0.66126069971E+03  0.66126069971E+03  0.00000000000E+00 0. -1.
         -2   -1    0    0    0  501 -0.00000000000E+00 -0.00000000000E+00 -0.25261812082E+02  0.25261812082E+02  0.00000000000E+00 0.  1.
         24    1    1    2    0    0 -0.11877776586E+02 -0.53523743316E+02  0.54385044743E+03  0.55249108391E+03  0.80419002446E+02 0.  0.
        -24    1    1    2    0    0  0.11877776586E+02  0.53523743316E+02  0.92148440198E+02  0.13403142788E+03  0.80419002446E+02 0. -1.
<mgrwt>
<rscale>  0 0.97329793E+02</rscale>
<asrwt>0</asrwt>
<pdfrwt beam="1">  1        2 0.10173240E+00 0.97329793E+02</pdfrwt>
<pdfrwt beam="2">  1       -2 0.38864331E-02 0.97329793E+02</pdfrwt>
<totfact> 0.12000641E+04</totfact>
</mgrwt>
</event>
<event>
 4    1  0.4844629E-001  0.1342660E+03  0.7546771E-02  0.1221260E+00
         -1   -1    0    0    0  501 -0.00000000000E+00  0.00000000000E+00  0.10963822530E+02  0.10963822530E+02  0.00000000000E+00 0.  1.
          1   -1    0    0  501    0  0.00000000000E+00 -0.00000000000E+00 -0.29640691266E+04  0.29640691266E+04  0.00000000000E+00 0. -1.
         24    1    1    2    0    0 -0.78470293620E+02 -0.73502055096E+02 -0.48395445713E+03  0.50223427961E+03  0.80419002446E+02 0.  1.
        -24    1    1    2    0    0  0.78470293620E+02  0.73502055096E+02 -0.24691508470E+04  0.24727986695E+04  0.80419002446E+02 0. -1.
<mgrwt>
<rscale>  0 0.13426599E+03</rscale>
<asrwt>0</asrwt>
<pdfrwt beam="1">  1        1 0.45601142E+00 0.13426599E+03</pdfrwt>
<pdfrwt beam="2">  1       -1 0.16867390E-02 0.13426599E+03</pdfrwt>
<totfact> 0.69267836E+02</totfact>
</mgrwt>
</event>
<event>
 4    1  0.4844629E-001  0.9493689E+02  0.7546771E-02  0.1291318E+00
         -2   -1    0    0    0  501 -0.00000000000E+00  0.00000000000E+00  0.10737407698E+03  0.10737407698E+03  0.00000000000E+00 0.  1.
          2   -1    0    0  501    0  0.00000000000E+00 -0.00000000000E+00 -0.53556396408E+03  0.53556396408E+03  0.00000000000E+00 0. -1.
         24    1    1    2    0    0  0.48511624089E+02 -0.13871500137E+02 -0.50929864501E+03  0.51807154134E+03  0.80419002446E+02 0. -1.
        -24    1    1    2    0    0 -0.48511624089E+02  0.13871500137E+02  0.81108757904E+02  0.12486649971E+03  0.80419002446E+02 0.  1.
<mgrwt>
<rscale>  0 0.94936885E+02</rscale>
<asrwt>0</asrwt>
<pdfrwt beam="1">  1        2 0.82394456E-01 0.94936885E+02</pdfrwt>
<pdfrwt beam="2">  1       -2 0.16519089E-01 0.94936885E+02</pdfrwt>
<totfact> 0.16379046E+03</totfact>
</mgrwt>
</event>
<event>
 4    1  0.4844629E-001  0.8458333E+02  0.7546771E-02  0.1316526E+00
          4   -1    0    0  501    0  0.00000000000E+00  0.00000000000E+00  0.22071834327E+02  0.22071834327E+02  0.00000000000E+00 0. -1.
         -4   -1    0    0    0  501 -0.00000000000E+00 -0.00000000000E+00 -0.35924485576E+03  0.35924485576E+03  0.00000000000E+00 0.  1.
         24    1    1    2    0    0 -0.26207357202E+02  0.54590170440E+00 -0.10898584661E+03  0.13795743654E+03  0.80419002446E+02 0. -1.
        -24    1    1    2    0    0  0.26207357202E+02 -0.54590170440E+00 -0.22818717482E+03  0.24335925355E+03  0.80419002446E+02 0.  1.
<mgrwt>
<rscale>  0 0.84583329E+02</rscale>
<asrwt>0</asrwt>
<pdfrwt beam="1">  1        4 0.33956671E-02 0.84583329E+02</pdfrwt>
<pdfrwt beam="2">  1       -4 0.55268434E-01 0.84583329E+02</pdfrwt>
<totfact> 0.20450224E+03</totfact>
</mgrwt>
</event>
<event>
 4    1  0.4844629E-001  0.8165862E+02  0.7546771E-02  0.1324409E+00
          1   -1    0    0  501    0  0.00000000000E+00  0.00000000000E+00  0.38674251668E+03  0.38674251668E+03  0.00000000000E+00 0. -1.
         -1   -1    0    0    0  501 -0.00000000000E+00 -0.00000000000E+00 -0.23277113028E+02  0.23277113028E+02  0.00000000000E+00 0.  1.
         24    1    1    2    0    0  0.13928964143E+02  0.26263135944E+01  0.77342267804E+02  0.11247202278E+03  0.80419002446E+02 0.  1.
        -24    1    1    2    0    0 -0.13928964143E+02 -0.26263135944E+01  0.28612313584E+03  0.29754760692E+03  0.80419002446E+02 0.  0.
<mgrwt>
<rscale>  0 0.81658616E+02</rscale>
<asrwt>0</asrwt>
<pdfrwt beam="1">  1        1 0.59498844E-01 0.81658616E+02</pdfrwt>
<pdfrwt beam="2">  1       -1 0.35810946E-02 0.81658616E+02</pdfrwt>
<totfact> 0.16440320E+04</totfact>
</mgrwt>
</event>
<event>
 4    1  0.4844629E-001  0.1031000E+03  0.7546771E-02  0.1273909E+00
          2   -1    0    0  501    0  0.00000000000E+00  0.00000000000E+00  0.35249618552E+03  0.35249618552E+03  0.00000000000E+00 0. -1.
         -2   -1    0    0    0  501 -0.00000000000E+00 -0.00000000000E+00 -0.32580209442E+02  0.32580209442E+02  0.00000000000E+00 0.  1.
         24    1    1    2    0    0 -0.51103106924E+02 -0.39380940986E+02  0.21248641417E+03  0.23617806463E+03  0.80419002446E+02 0. -1.
        -24    1    1    2    0    0  0.51103106924E+02  0.39380940986E+02  0.10742956191E+03  0.14889833034E+03  0.80419002446E+02 0.  1.
<mgrwt>
<rscale>  0 0.10309996E+03</rscale>
<asrwt>0</asrwt>
<pdfrwt beam="1">  1        2 0.54230180E-01 0.10309996E+03</pdfrwt>
<pdfrwt beam="2">  1       -2 0.50123402E-02 0.10309996E+03</pdfrwt>
<totfact> 0.16389101E+04</totfact>
</mgrwt>
</event>
<event>
 4    1  0.4844629E-001  0.1234946E+03  0.7546771E-02  0.1237441E+00
         -1   -1    0    0    0  501 -0.00000000000E+00  0.00000000000E+00  0.43873339803E+02  0.43873339803E+02  0.00000000000E+00 0.  1.
          1   -1    0    0  501    0  0.00000000000E+00 -0.00000000000E+00 -0.79128234801E+03  0.79128234801E+03  0.00000000000E+00 0. -1.
         24    1    1    2    0    0 -0.21279954796E+02  0.91273537606E+02 -0.61023296636E+02  0.13774887960E+03  0.80419002446E+02 0.  1.
        -24    1    1    2    0    0  0.21279954796E+02 -0.91273537606E+02 -0.68638571157E+03  0.69740680822E+03  0.80419002446E+02 0. -1.
<mgrwt>
<rscale>  0 0.12349458E+03</rscale>
<asrwt>0</asrwt>
<pdfrwt beam="1">  1        1 0.12173574E+00 0.12349458E+03</pdfrwt>
<pdfrwt beam="2">  1       -1 0.67497451E-02 0.12349458E+03</pdfrwt>
<totfact> 0.25674031E+03</totfact>
</mgrwt>
</event>
<event>
 4    1  0.4844629E-001  0.8728858E+02  0.7546771E-02  0.1309554E+00
          2   -1    0    0  501    0  0.00000000000E+00  0.00000000000E+00  0.33549572370E+03  0.33549572370E+03  0.00000000000E+00 0. -1.
         -2   -1    0    0    0  501 -0.00000000000E+00 -0.00000000000E+00 -0.26804771308E+02  0.26804771308E+02  0.00000000000E+00 0.  1.
         24    1    1    2    0    0 -0.22225883137E+02  0.25653261627E+02  0.22514299221E+03  0.24147186711E+03  0.80419002446E+02 0. -1.
        -24    1    1    2    0    0  0.22225883137E+02 -0.25653261627E+02  0.83547960185E+02  0.12082862789E+03  0.80419002446E+02 0.  1.
<mgrwt>
<rscale>  0 0.87288577E+02</rscale>
<asrwt>0</asrwt>
<pdfrwt beam="1">  1        2 0.51614724E-01 0.87288577E+02</pdfrwt>
<pdfrwt beam="2">  1       -2 0.41238112E-02 0.87288577E+02</pdfrwt>
<totfact> 0.22657520E+04</totfact>
</mgrwt>
</event>
<event>
 4    1  0.4844629E-001  0.1266446E+03  0.7546771E-02  0.1232521E+00
         -2   -1    0    0    0  501 -0.00000000000E+00  0.00000000000E+00  0.34030733932E+02  0.34030733932E+02  0.00000000000E+00 0.  1.
          2   -1    0    0  501    0  0.00000000000E+00 -0.00000000000E+00 -0.64379854448E+03  0.64379854448E+03  0.00000000000E+00 0. -1.
         24    1    1    2    0    0  0.91703868757E+02  0.34088666871E+02 -0.48031308920E+03  0.49672881572E+03  0.80419002446E+02 0. -1.
        -24    1    1    2    0    0 -0.91703868757E+02 -0.34088666871E+02 -0.12945472135E+03  0.18110046269E+03  0.80419002446E+02 0.  1.
<mgrwt>
<rscale>  0 0.12664459E+03</rscale>
<asrwt>0</asrwt>
<pdfrwt beam="1">  1        2 0.99045931E-01 0.12664459E+03</pdfrwt>
<pdfrwt beam="2">  1       -2 0.52354975E-02 0.12664459E+03</pdfrwt>
<totfact> 0.80947566E+03</totfact>
</mgrwt>
</event>
<event>
 4    1  0.4844629E-001  0.8141376E+02  0.7546771E-02  0.1325087E+00
          2   -1    0    0  501    0  0.00000000000E+00  0.00000000000E+00  0.20605235448E+04  0.20605235448E+04  0.00000000000E+00 0. -1.
         -2   -1    0    0    0  501 -0.00000000000E+00 -0.00000000000E+00 -0.20717771883E+02  0.20717771883E+02  0.00000000000E+00 0.  1.
         24    1    1    2    0    0 -0.11147654850E+02 -0.60592354900E+01  0.19763314884E+04  0.19780076725E+04  0.80419002446E+02 0. -1.
        -24    1    1    2    0    0  0.11147654850E+02  0.60592354900E+01  0.63474284579E+02  0.10323364423E+03  0.80419002446E+02 0.  1.
<mgrwt>
<rscale>  0 0.81413761E+02</rscale>
<asrwt>0</asrwt>
<pdfrwt beam="1">  1        2 0.31700346E+00 0.81413761E+02</pdfrwt>
<pdfrwt beam="2">  1       -2 0.31873512E-02 0.81413761E+02</pdfrwt>
<totfact> 0.26829936E+03</totfact>
</mgrwt>
</event>
<event>
 4    1  0.4844629E-001  0.8107328E+02  0.7546771E-02  0.1326033E+00
         -2   -1    0    0    0  501 -0.00000000000E+00  0.00000000000E+00  0.65129721227E+01  0.65129721227E+01  0.00000000000E+00 0.  1.
          2   -1    0    0  501    0  0.00000000000E+00 -0.00000000000E+00 -0.10191923070E+04  0.10191923070E+04  0.00000000000E+00 0. -1.
         24    1    1    2    0    0 -0.69146356030E+01 -0.76058065871E+01 -0.55712608301E+03  0.56299409305E+03  0.80419002446E+02 0.  1.
        -24    1    1    2    0    0  0.69146356030E+01  0.76058065871E+01 -0.45555325182E+03  0.46271118603E+03  0.80419002446E+02 0.  1.
<mgrwt>
<rscale>  0 0.81073278E+02</rscale>
<asrwt>0</asrwt>
<pdfrwt beam="1">  1        2 0.15679883E+00 0.81073278E+02</pdfrwt>
<pdfrwt beam="2">  1       -2 0.10019956E-02 0.81073278E+02</pdfrwt>
<totfact> 0.48373733E+04</totfact>
</mgrwt>
</event>
<event>
 4    1  0.4844629E-001  0.9304986E+02  0.7546771E-02  0.1295630E+00
          2   -1    0    0  501    0  0.00000000000E+00  0.00000000000E+00  0.18493337208E+04  0.18493337208E+04  0.00000000000E+00 0. -1.
         -2   -1    0    0    0  501 -0.00000000000E+00 -0.00000000000E+00 -0.92019573432E+01  0.92019573432E+01  0.00000000000E+00 0.  1.
         24    1    1    2    0    0 -0.45554897559E+02  0.10761569367E+02  0.15713580806E+04  0.15741106993E+04  0.80419002446E+02 0. -1.
        -24    1    1    2    0    0  0.45554897559E+02 -0.10761569367E+02  0.26877368280E+03  0.28442497884E+03  0.80419002446E+02 0.  1.
<mgrwt>
<rscale>  0 0.93049858E+02</rscale>
<asrwt>0</asrwt>
<pdfrwt beam="1">  1        2 0.28451259E+00 0.93049858E+02</pdfrwt>
<pdfrwt beam="2">  1       -2 0.14156872E-02 0.93049858E+02</pdfrwt>
<totfact> 0.11031227E+04</totfact>
</mgrwt>
</event>
<event>
 4    1  0.4844629E-001  0.8718897E+02  0.7546771E-02  0.1309805E+00
         -2   -1    0    0    0  501 -0.00000000000E+00  0.00000000000E+00  0.29228044895E+02  0.29228044895E+02  0.00000000000E+00 0.  1.
          2   -1    0    0  501    0  0.00000000000E+00 -0.00000000000E+00 -0.35360742052E+03  0.35360742052E+03  0.00000000000E+00 0. -1.
         24    1    1    2    0    0  0.33762772666E+01  0.33515699885E+02 -0.26062889971E+03  0.27482601897E+03  0.80419002446E+02 0. -1.
        -24    1    1    2    0    0 -0.33762772666E+01 -0.33515699885E+02 -0.63750475917E+02  0.10800944644E+03  0.80419002446E+02 0.  1.
<mgrwt>
<rscale>  0 0.87188975E+02</rscale>
<asrwt>0</asrwt>
<pdfrwt beam="1">  1        2 0.54401142E-01 0.87188975E+02</pdfrwt>
<pdfrwt beam="2">  1       -2 0.44966222E-02 0.87188975E+02</pdfrwt>
<totfact> 0.18876104E+04</totfact>
</mgrwt>
</event>
<event>
 4    1  0.4844629E-001  0.8541066E+02  0.7546771E-02  0.1314362E+00
         -2   -1    0    0    0  501 -0.00000000000E+00  0.00000000000E+00  0.27904756048E+01  0.27904756048E+01  0.00000000000E+00 0.  1.
          2   -1    0    0  501    0  0.00000000000E+00 -0.00000000000E+00 -0.39089746349E+04  0.39089746349E+04  0.00000000000E+00 0. -1.
         24    1    1    2    0    0 -0.19864820475E+02  0.20812348497E+02 -0.30787365752E+04  0.30799210835E+04  0.80419002446E+02 0. -1.
        -24    1    1    2    0    0  0.19864820475E+02 -0.20812348497E+02 -0.82744758407E+03  0.83184402702E+03  0.80419002446E+02 0. -1.
<mgrwt>
<rscale>  0 0.85410660E+02</rscale>
<asrwt>0</asrwt>
<pdfrwt beam="1">  1        2 0.60137965E+00 0.85410660E+02</pdfrwt>
<pdfrwt beam="2">  1       -2 0.42930470E-03 0.85410660E+02</pdfrwt>
<totfact> 0.39126689E+03</totfact>
</mgrwt>
</event>
<event>
 4    1  0.4844629E-001  0.9331702E+02  0.7546771E-02  0.1295012E+00
         -2   -1    0    0    0  501 -0.00000000000E+00  0.00000000000E+00  0.36511025502E+02  0.36511025502E+02  0.00000000000E+00 0.  1.
          2   -1    0    0  501    0  0.00000000000E+00 -0.00000000000E+00 -0.69494707381E+03  0.69494707381E+03  0.00000000000E+00 0. -1.
         24    1    1    2    0    0  0.23847989981E+02  0.40891602630E+02 -0.62561678258E+03  0.63253808137E+03  0.80419002446E+02 0. -1.
        -24    1    1    2    0    0 -0.23847989981E+02 -0.40891602630E+02 -0.32819265734E+02  0.98920017941E+02  0.80419002446E+02 0.  1.
<mgrwt>
<rscale>  0 0.93317017E+02</rscale>
<asrwt>0</asrwt>
<pdfrwt beam="1">  1        2 0.10691492E+00 0.93317017E+02</pdfrwt>
<pdfrwt beam="2">  1       -2 0.56170814E-02 0.93317017E+02</pdfrwt>
<totfact> 0.65425003E+03</totfact>
</mgrwt>
</event>
<event>
 4    1  0.4844629E-001  0.9015667E+02  0.7546771E-02  0.1302473E+00
         -2   -1    0    0    0  501 -0.00000000000E+00  0.00000000000E+00  0.20861312587E+02  0.20861312587E+02  0.00000000000E+00 0.  1.
          2   -1    0    0  501    0  0.00000000000E+00 -0.00000000000E+00 -0.27738240505E+04  0.27738240505E+04  0.00000000000E+00 0. -1.
         24    1    1    2    0    0  0.19819382709E+02  0.35611814027E+02 -0.26719715641E+04  0.26734921479E+04  0.80419002446E+02 0. -1.
        -24    1    1    2    0    0 -0.19819382709E+02 -0.35611814027E+02 -0.80991173771E+02  0.12119321521E+03  0.80419002446E+02 0.  1.
<mgrwt>
<rscale>  0 0.90156670E+02</rscale>
<asrwt>0</asrwt>
<pdfrwt beam="1">  1        2 0.42674202E+00 0.90156670E+02</pdfrwt>
<pdfrwt beam="2">  1       -2 0.32094338E-02 0.90156670E+02</pdfrwt>
<totfact> 0.11284649E+03</totfact>
</mgrwt>
</event>
<event>
 4    1  0.4844629E-001  0.8551488E+02  0.7546771E-02  0.1314092E+00
         -1   -1    0    0    0  501 -0.00000000000E+00  0.00000000000E+00  0.41708691412E+01  0.41708691412E+01  0.00000000000E+00 0.  1.
          1   -1    0    0  501    0  0.00000000000E+00 -0.00000000000E+00 -0.18951989672E+04  0.18951989672E+04  0.00000000000E+00 0. -1.
         24    1    1    2    0    0  0.29014207410E+02 -0.19367357997E+01 -0.12053740607E+04  0.12084036649E+04  0.80419002446E+02 0.  1.
        -24    1    1    2    0    0 -0.29014207410E+02  0.19367357997E+01 -0.68565403733E+03  0.69096617142E+03  0.80419002446E+02 0.  0.
<mgrwt>
<rscale>  0 0.85514870E+02</rscale>
<asrwt>0</asrwt>
<pdfrwt beam="1">  1        1 0.29156877E+00 0.85514881E+02</pdfrwt>
<pdfrwt beam="2">  1       -1 0.64167285E-03 0.85514881E+02</pdfrwt>
<totfact> 0.13346565E+04</totfact>
</mgrwt>
</event>
<event>
 4    1  0.4844629E-001  0.9159410E+02  0.7546771E-02  0.1299037E+00
         -2   -1    0    0    0  501 -0.00000000000E+00  0.00000000000E+00  0.13368465683E+02  0.13368465683E+02  0.00000000000E+00 0.  1.
          2   -1    0    0  501    0  0.00000000000E+00 -0.00000000000E+00 -0.89161605062E+03  0.89161605062E+03  0.00000000000E+00 0. -1.
         24    1    1    2    0    0  0.41921067250E+02  0.12840853829E+02 -0.68537163071E+03  0.69146493154E+03  0.80419002446E+02 0. -1.
        -24    1    1    2    0    0 -0.41921067250E+02 -0.12840853829E+02 -0.19287595422E+03  0.21351958477E+03  0.80419002446E+02 0.  1.
<mgrwt>
<rscale>  0 0.91594101E+02</rscale>
<asrwt>0</asrwt>
<pdfrwt beam="1">  1        2 0.13717175E+00 0.91594101E+02</pdfrwt>
<pdfrwt beam="2">  1       -2 0.20566863E-02 0.91594101E+02</pdfrwt>
<totfact> 0.20980962E+04</totfact>
</mgrwt>
</event>
<event>
 4    1  0.4844629E-001  0.8138981E+02  0.7546771E-02  0.1325153E+00
         -3   -1    0    0    0  501 -0.00000000000E+00  0.00000000000E+00  0.22890149459E+03  0.22890149459E+03  0.00000000000E+00 0.  1.
          3   -1    0    0  501    0  0.00000000000E+00 -0.00000000000E+00 -0.11069022761E+03  0.11069022761E+03  0.00000000000E+00 0. -1.
         24    1    1    2    0    0  0.30340676336E+01  0.12160550558E+02  0.20502677106E+03  0.22059074632E+03  0.80419002446E+02 0.  1.
        -24    1    1    2    0    0 -0.30340676336E+01 -0.12160550558E+02 -0.86815504080E+02  0.11900097588E+03  0.80419002446E+02 0. -1.
<mgrwt>
<rscale>  0 0.81389806E+02</rscale>
<asrwt>0</asrwt>
<pdfrwt beam="1">  1        3 0.17029266E-01 0.81389806E+02</pdfrwt>
<pdfrwt beam="2">  1       -3 0.35215615E-01 0.81389806E+02</pdfrwt>
<totfact> 0.50474378E+02</totfact>
</mgrwt>
</event>
<event>
 4    1  0.4844629E-001  0.8659832E+02  0.7546771E-02  0.1311305E+00
         -4   -1    0    0    0  501 -0.00000000000E+00  0.00000000000E+00  0.29206914995E+03  0.29206914995E+03  0.00000000000E+00 0.  1.
          4   -1    0    0  501    0  0.00000000000E+00 -0.00000000000E+00 -0.26091641313E+02  0.26091641313E+02  0.00000000000E+00 0. -1.
         24    1    1    2    0    0 -0.29077709982E+01  0.31993726115E+02  0.11291897474E+03  0.14230236981E+03  0.80419002446E+02 0. -1.
        -24    1    1    2    0    0  0.29077709982E+01 -0.31993726115E+02  0.15305853390E+03  0.17585842146E+03  0.80419002446E+02 0.  1.
<mgrwt>
<rscale>  0 0.86598323E+02</rscale>
<asrwt>0</asrwt>
<pdfrwt beam="1">  1        4 0.40140989E-02 0.86598323E+02</pdfrwt>
<pdfrwt beam="2">  1       -4 0.44933713E-01 0.86598323E+02</pdfrwt>
<totfact> 0.24038708E+03</totfact>
</mgrwt>
</event>
<event>
 4    1  0.4844629E-001  0.1106337E+03  0.7546771E-02  0.1259401E+00
         -1   -1    0    0    0  501 -0.00000000000E+00  0.00000000000E+00  0.65072352773E+01  0.65072352773E+01  0.00000000000E+00 0.  1.
          1   -1    0    0  501    0  0.00000000000E+00 -0.00000000000E+00 -0.25578374118E+04  0.25578374118E+04  0.00000000000E+00 0. -1.
         24    1    1    2    0    0  0.70090899105E+02  0.29323317524E+02 -0.61608577994E+03  0.62594048861E+03  0.80419002446E+02 0.  1.
        -24    1    1    2    0    0 -0.70090899105E+02 -0.29323317524E+02 -0.19352443966E+04  0.19384041585E+04  0.80419002446E+02 0. -1.
<mgrwt>
<rscale>  0 0.11063366E+03</rscale>
<asrwt>0</asrwt>
<pdfrwt beam="1">  1        1 0.39351300E+00 0.11063366E+03</pdfrwt>
<pdfrwt beam="2">  1       -1 0.10011143E-02 0.11063366E+03</pdfrwt>
<totfact> 0.27293702E+03</totfact>
</mgrwt>
</event>
<event>
 4    1  0.4844629E-001  0.8189565E+02  0.7546771E-02  0.1323756E+00
          2   -1    0    0  501    0  0.00000000000E+00  0.00000000000E+00  0.12255382102E+04  0.12255382102E+04  0.00000000000E+00 0. -1.
         -2   -1    0    0    0  501 -0.00000000000E+00 -0.00000000000E+00 -0.96996682440E+01  0.96996682440E+01  0.00000000000E+00 0.  1.
         24    1    1    2    0    0 -0.46373600896E+01 -0.14770793642E+02  0.10156383946E+04  0.10189348586E+04  0.80419002446E+02 0. -1.
        -24    1    1    2    0    0  0.46373600896E+01  0.14770793642E+02  0.20020014733E+03  0.21630301986E+03  0.80419002446E+02 0.  1.
<mgrwt>
<rscale>  0 0.81895650E+02</rscale>
<asrwt>0</asrwt>
<pdfrwt beam="1">  1        2 0.18854422E+00 0.81895650E+02</pdfrwt>
<pdfrwt beam="2">  1       -2 0.14922576E-02 0.81895650E+02</pdfrwt>
<totfact> 0.21160711E+04</totfact>
</mgrwt>
</event>
<event>
 4    1  0.4844629E-001  0.1909377E+03  0.7546771E-02  0.1157618E+00
          1   -1    0    0  501    0  0.00000000000E+00  0.00000000000E+00  0.99814201983E+03  0.99814201983E+03  0.00000000000E+00 0. -1.
         -1   -1    0    0    0  501 -0.00000000000E+00 -0.00000000000E+00 -0.48427562982E+02  0.48427562982E+02  0.00000000000E+00 0.  1.
         24    1    1    2    0    0 -0.16087437179E+03 -0.64104846014E+02  0.21543289661E+03  0.28786896963E+03  0.80419002446E+02 0. -1.
        -24    1    1    2    0    0  0.16087437179E+03  0.64104846014E+02  0.73428156024E+03  0.75870061318E+03  0.80419002446E+02 0.  1.
<mgrwt>
<rscale>  0 0.19093771E+03</rscale>
<asrwt>0</asrwt>
<pdfrwt beam="1">  1        1 0.15356030E+00 0.19093771E+03</pdfrwt>
<pdfrwt beam="2">  1       -1 0.74503951E-02 0.19093771E+03</pdfrwt>
<totfact> 0.15396534E+03</totfact>
</mgrwt>
</event>
<event>
 4    1  0.4844629E-001  0.8743343E+02  0.7546771E-02  0.1309189E+00
          1   -1    0    0  501    0  0.00000000000E+00  0.00000000000E+00  0.45223802749E+03  0.45223802749E+03  0.00000000000E+00 0. -1.
         -1   -1    0    0    0  501 -0.00000000000E+00 -0.00000000000E+00 -0.34510690714E+02  0.34510690714E+02  0.00000000000E+00 0.  1.
         24    1    1    2    0    0  0.33544372166E+02 -0.72224096885E+01  0.35028511351E+02  0.94189174896E+02  0.80419002446E+02 0.  1.
        -24    1    1    2    0    0 -0.33544372166E+02  0.72224096885E+01  0.38269882542E+03  0.39255954331E+03  0.80419002446E+02 0. -1.
<mgrwt>
<rscale>  0 0.87433426E+02</rscale>
<asrwt>0</asrwt>
<pdfrwt beam="1">  1        1 0.69575077E-01 0.87433426E+02</pdfrwt>
<pdfrwt beam="2">  1       -1 0.53093373E-02 0.87433426E+02</pdfrwt>
<totfact> 0.76793139E+03</totfact>
</mgrwt>
</event>
<event>
 4    1  0.4844629E-001  0.9667862E+02  0.7546771E-02  0.1287440E+00
          4   -1    0    0  501    0  0.00000000000E+00  0.00000000000E+00  0.42755145506E+03  0.42755145506E+03  0.00000000000E+00 0. -1.
         -4   -1    0    0    0  501 -0.00000000000E+00 -0.00000000000E+00 -0.20799643449E+03  0.20799643449E+03  0.00000000000E+00 0.  1.
         24    1    1    2    0    0 -0.29545190976E+02  0.44795318481E+02  0.41038841154E+03  0.42162234659E+03  0.80419002446E+02 0. -1.
        -24    1    1    2    0    0  0.29545190976E+02 -0.44795318481E+02 -0.19083339096E+03  0.21392554295E+03  0.80419002446E+02 0.  1.
<mgrwt>
<rscale>  0 0.96678616E+02</rscale>
<asrwt>0</asrwt>
<pdfrwt beam="1">  1        4 0.65777147E-01 0.96678616E+02</pdfrwt>
<pdfrwt beam="2">  1       -4 0.31999452E-01 0.96678616E+02</pdfrwt>
<totfact> 0.32930082E+01</totfact>
</mgrwt>
</event>
<event>
 4    1  0.4844629E-001  0.1357143E+03  0.7546771E-02  0.1219215E+00
         -4   -1    0    0    0  501 -0.00000000000E+00  0.00000000000E+00  0.22786901708E+02  0.22786901708E+02  0.00000000000E+00 0.  1.
          4   -1    0    0  501    0  0.00000000000E+00 -0.00000000000E+00 -0.87631313406E+03  0.87631313406E+03  0.00000000000E+00 0. -1.
         24    1    1    2    0    0  0.21619059425E+01 -0.10930002111E+03 -0.55201444258E+03  0.56845257429E+03  0.80419002446E+02 0. -1.
        -24    1    1    2    0    0 -0.21619059425E+01  0.10930002111E+03 -0.30151178978E+03  0.33064746148E+03  0.80419002446E+02 0.  1.
<mgrwt>
<rscale>  0 0.13571435E+03</rscale>
<asrwt>0</asrwt>
<pdfrwt beam="1">  1        4 0.13481740E+00 0.13571435E+03</pdfrwt>
<pdfrwt beam="2">  1       -4 0.35056773E-02 0.13571435E+03</pdfrwt>
<totfact> 0.29358892E+02</totfact>
</mgrwt>
</event>
<event>
 4    1  0.4844629E-001  0.1318828E+03  0.7546771E-02  0.1224688E+00
          1   -1    0    0  501    0  0.00000000000E+00  0.00000000000E+00  0.93983961243E+02  0.93983961243E+02  0.00000000000E+00 0. -1.
         -1   -1    0    0    0  501 -0.00000000000E+00 -0.00000000000E+00 -0.28616277481E+03  0.28616277481E+03  0.00000000000E+00 0.  1.
         24    1    1    2    0    0  0.99096740075E+02 -0.33251953949E+02 -0.20906563926E+03  0.24718720397E+03  0.80419002446E+02 0.  1.
        -24    1    1    2    0    0 -0.99096740075E+02  0.33251953949E+02  0.16886825691E+02  0.13295953208E+03  0.80419002446E+02 0. -1.
<mgrwt>
<rscale>  0 0.13188280E+03</rscale>
<asrwt>0</asrwt>
<pdfrwt beam="1">  1        1 0.14459071E-01 0.13188280E+03</pdfrwt>
<pdfrwt beam="2">  1       -1 0.44025042E-01 0.13188280E+03</pdfrwt>
<totfact> 0.19755831E+03</totfact>
</mgrwt>
</event>
<event>
 4    1  0.4844629E-001  0.9679228E+02  0.7546771E-02  0.1287190E+00
         -2   -1    0    0    0  501 -0.00000000000E+00  0.00000000000E+00  0.49158163610E+02  0.49158163610E+02  0.00000000000E+00 0.  1.
          2   -1    0    0  501    0  0.00000000000E+00 -0.00000000000E+00 -0.19095361634E+03  0.19095361634E+03  0.00000000000E+00 0. -1.
         24    1    1    2    0    0 -0.22788556093E+02 -0.48807897971E+02 -0.76181765364E+02  0.12317632289E+03  0.80419002446E+02 0. -1.
        -24    1    1    2    0    0  0.22788556093E+02  0.48807897971E+02 -0.65613687366E+02  0.11693545706E+03  0.80419002446E+02 0.  0.
<mgrwt>
<rscale>  0 0.96792278E+02</rscale>
<asrwt>0</asrwt>
<pdfrwt beam="1">  1        2 0.29377480E-01 0.96792278E+02</pdfrwt>
<pdfrwt beam="2">  1       -2 0.75627943E-02 0.96792278E+02</pdfrwt>
<totfact> 0.16741178E+04</totfact>
</mgrwt>
</event>
<event>
 4    1  0.4844629E-001  0.8536333E+02  0.7546771E-02  0.1314485E+00
          2   -1    0    0  501    0  0.00000000000E+00  0.00000000000E+00  0.17335922472E+04  0.17335922472E+04  0.00000000000E+00 0. -1.
         -2   -1    0    0    0  501 -0.00000000000E+00 -0.00000000000E+00 -0.57786143637E+01  0.57786143637E+01  0.00000000000E+00 0.  1.
         24    1    1    2    0    0 -0.80671195689E+01  0.27470045213E+02  0.13179810318E+04  0.13207425555E+04  0.80419002446E+02 0. -1.
        -24    1    1    2    0    0  0.80671195689E+01 -0.27470045213E+02  0.40983260111E+03  0.41862830613E+03  0.80419002446E+02 0.  1.
<mgrwt>
<rscale>  0 0.85363328E+02</rscale>
<asrwt>0</asrwt>
<pdfrwt beam="1">  1        2 0.26670609E+00 0.85363328E+02</pdfrwt>
<pdfrwt beam="2">  1       -2 0.88901898E-03 0.85363328E+02</pdfrwt>
<totfact> 0.24257338E+04</totfact>
</mgrwt>
</event>
<event>
 4    1  0.4844629E-001  0.8110607E+02  0.7546771E-02  0.1325942E+00
          2   -1    0    0  501    0  0.00000000000E+00  0.00000000000E+00  0.39465993032E+03  0.39465993032E+03  0.00000000000E+00 0. -1.
         -2   -1    0    0    0  501 -0.00000000000E+00 -0.00000000000E+00 -0.16839779799E+02  0.16839779799E+02  0.00000000000E+00 0.  1.
         24    1    1    2    0    0 -0.23742206451E+01 -0.10263628468E+02  0.20969014671E+03  0.22482916309E+03  0.80419002446E+02 0. -1.
        -24    1    1    2    0    0  0.23742206451E+01  0.10263628468E+02  0.16813000381E+03  0.18667054703E+03  0.80419002446E+02 0.  1.
<mgrwt>
<rscale>  0 0.81106072E+02</rscale>
<asrwt>0</asrwt>
<pdfrwt beam="1">  1        2 0.60716905E-01 0.81106072E+02</pdfrwt>
<pdfrwt beam="2">  1       -2 0.25907356E-02 0.81106072E+02</pdfrwt>
<totfact> 0.37292041E+04</totfact>
</mgrwt>
</event>
<event>
 4    1  0.4844629E-001  0.8170212E+02  0.7546771E-02  0.1324289E+00
          2   -1    0    0  501    0  0.00000000000E+00  0.00000000000E+00  0.20420471092E+04  0.20420471092E+04  0.00000000000E+00 0. -1.
         -2   -1    0    0    0  501 -0.00000000000E+00 -0.00000000000E+00 -0.27374200367E+02  0.27374200367E+02  0.00000000000E+00 0.  1.
         24    1    1    2    0    0 -0.63795027623E+01  0.12935313080E+02  0.19783035767E+04  0.19799899691E+04  0.80419002446E+02 0.  0.
        -24    1    1    2    0    0  0.63795027623E+01 -0.12935313080E+02  0.36369332177E+02  0.89431340465E+02  0.80419002446E+02 0.  1.
<mgrwt>
<rscale>  0 0.81702120E+02</rscale>
<asrwt>0</asrwt>
<pdfrwt beam="1">  1        2 0.31416097E+00 0.81702120E+02</pdfrwt>
<pdfrwt beam="2">  1       -2 0.42114170E-02 0.81702120E+02</pdfrwt>
<totfact> 0.18245305E+03</totfact>
</mgrwt>
</event>
<event>
 4    1  0.4844629E-001  0.9613227E+02  0.7546771E-02  0.1288646E+00
         -4   -1    0    0    0  501 -0.00000000000E+00  0.00000000000E+00  0.20925659416E+03  0.20925659416E+03  0.00000000000E+00 0.  1.
          4   -1    0    0  501    0  0.00000000000E+00 -0.00000000000E+00 -0.13793982494E+03  0.13793982494E+03  0.00000000000E+00 0. -1.
         24    1    1    2    0    0  0.77869408258E+01 -0.52091854765E+02 -0.10747732824E+03  0.14419705205E+03  0.80419002446E+02 0. -1.
        -24    1    1    2    0    0 -0.77869408258E+01  0.52091854765E+02  0.17879409746E+03  0.20299936705E+03  0.80419002446E+02 0.  1.
<mgrwt>
<rscale>  0 0.96132272E+02</rscale>
<asrwt>0</asrwt>
<pdfrwt beam="1">  1        4 0.21221512E-01 0.96132272E+02</pdfrwt>
<pdfrwt beam="2">  1       -4 0.32193322E-01 0.96132272E+02</pdfrwt>
<totfact> 0.29245806E+02</totfact>
</mgrwt>
</event>
<event>
 4    1  0.4844629E-001  0.1179555E+03  0.7546771E-02  0.1246508E+00
         -1   -1    0    0    0  501 -0.00000000000E+00  0.00000000000E+00  0.28169043665E+03  0.28169043665E+03  0.00000000000E+00 0.  1.
          1   -1    0    0  501    0  0.00000000000E+00 -0.00000000000E+00 -0.60093364336E+02  0.60093364336E+02  0.00000000000E+00 0. -1.
         24    1    1    2    0    0  0.79955638319E+02  0.32455811680E+02  0.18291096017E+03  0.21764631657E+03  0.80419002446E+02 0.  1.
        -24    1    1    2    0    0 -0.79955638319E+02 -0.32455811680E+02  0.38686112145E+02  0.12413748442E+03  0.80419002446E+02 0. -1.
<mgrwt>
<rscale>  0 0.11795550E+03</rscale>
<asrwt>0</asrwt>
<pdfrwt beam="1">  1        1 0.92451331E-02 0.11795550E+03</pdfrwt>
<pdfrwt beam="2">  1       -1 0.43336989E-01 0.11795550E+03</pdfrwt>
<totfact> 0.36312827E+03</totfact>
</mgrwt>
</event>
<event>
 4    1  0.4844629E-001  0.8184907E+02  0.7546771E-02  0.1323884E+00
          1   -1    0    0  501    0  0.00000000000E+00  0.00000000000E+00  0.29652893703E+03  0.29652893703E+03  0.00000000000E+00 0. -1.
         -1   -1    0    0    0  501 -0.00000000000E+00 -0.00000000000E+00 -0.30480043252E+03  0.30480043252E+03  0.00000000000E+00 0.  1.
         24    1    1    2    0    0 -0.14254519018E+02  0.53724087271E+01 -0.29344304945E+03  0.30464420775E+03  0.80419002446E+02 0.  1.
        -24    1    1    2    0    0  0.14254519018E+02 -0.53724087271E+01  0.28517155396E+03  0.29668516180E+03  0.80419002446E+02 0. -1.
<mgrwt>
<rscale>  0 0.81849069E+02</rscale>
<asrwt>0</asrwt>
<pdfrwt beam="1">  1        1 0.45619836E-01 0.81849069E+02</pdfrwt>
<pdfrwt beam="2">  1       -1 0.46892374E-01 0.81849069E+02</pdfrwt>
<totfact> 0.41700540E+02</totfact>
</mgrwt>
</event>
<event>
 4    1  0.4844629E-001  0.9652490E+02  0.7546771E-02  0.1287778E+00
         -3   -1    0    0    0  501 -0.00000000000E+00  0.00000000000E+00  0.48600743986E+03  0.48600743986E+03  0.00000000000E+00 0.  1.
          3   -1    0    0  501    0  0.00000000000E+00 -0.00000000000E+00 -0.21089670392E+02  0.21089670392E+02  0.00000000000E+00 0. -1.
         24    1    1    2    0    0  0.14886719803E+02  0.51266171535E+02  0.15597454680E+03  0.18342603407E+03  0.80419002446E+02 0. -1.
        -24    1    1    2    0    0 -0.14886719803E+02 -0.51266171535E+02  0.30894322267E+03  0.32367107618E+03  0.80419002446E+02 0.  1.
<mgrwt>
<rscale>  0 0.96524883E+02</rscale>
<asrwt>0</asrwt>
<pdfrwt beam="1">  1        3 0.32445650E-02 0.96524895E+02</pdfrwt>
<pdfrwt beam="2">  1       -3 0.74770367E-01 0.96524895E+02</pdfrwt>
<totfact> 0.16809353E+03</totfact>
</mgrwt>
</event>
<event>
 4    1  0.4844629E-001  0.9132461E+02  0.7546771E-02  0.1299675E+00
         -2   -1    0    0    0  501 -0.00000000000E+00  0.00000000000E+00  0.89949197484E+01  0.89949197484E+01  0.00000000000E+00 0.  1.
          2   -1    0    0  501    0  0.00000000000E+00 -0.00000000000E+00 -0.10151112691E+04  0.10151112691E+04  0.00000000000E+00 0. -1.
         24    1    1    2    0    0 -0.23370223308E+02 -0.36425269957E+02 -0.65373783511E+03  0.66008585854E+03  0.80419002446E+02 0. -1.
        -24    1    1    2    0    0  0.23370223308E+02  0.36425269957E+02 -0.35237851427E+03  0.36402033035E+03  0.80419002446E+02 0.  0.
<mgrwt>
<rscale>  0 0.91324606E+02</rscale>
<asrwt>0</asrwt>
<pdfrwt beam="1">  1        2 0.15617093E+00 0.91324606E+02</pdfrwt>
<pdfrwt beam="2">  1       -2 0.13838341E-02 0.91324606E+02</pdfrwt>
<totfact> 0.31164860E+04</totfact>
</mgrwt>
</event>
<event>
 4    1  0.4844629E-001  0.1305297E+03  0.7546771E-02  0.1226672E+00
          1   -1    0    0  501    0  0.00000000000E+00  0.00000000000E+00  0.77861217362E+03  0.77861217362E+03  0.00000000000E+00 0. -1.
         -1   -1    0    0    0  501 -0.00000000000E+00 -0.00000000000E+00 -0.25139417276E+02  0.25139417276E+02  0.00000000000E+00 0.  1.
         24    1    1    2    0    0  0.54403018513E+01 -0.10267025022E+03  0.23208700256E+03  0.26627498920E+03  0.80419002446E+02 0.  1.
        -24    1    1    2    0    0 -0.54403018513E+01  0.10267025022E+03  0.52138575378E+03  0.53747660169E+03  0.80419002446E+02 0. -1.
<mgrwt>
<rscale>  0 0.13052966E+03</rscale>
<asrwt>0</asrwt>
<pdfrwt beam="1">  1        1 0.11978647E+00 0.13052966E+03</pdfrwt>
<pdfrwt beam="2">  1       -1 0.38676032E-02 0.13052966E+03</pdfrwt>
<totfact> 0.60039582E+03</totfact>
</mgrwt>
</event>
<event>
 4    1  0.4844629E-001  0.8775979E+02  0.7546771E-02  0.1308369E+00
          2   -1    0    0  501    0  0.00000000000E+00  0.00000000000E+00  0.23308997546E+04  0.23308997546E+04  0.00000000000E+00 0. -1.
         -2   -1    0    0    0  501 -0.00000000000E+00 -0.00000000000E+00 -0.49130475662E+01  0.49130475662E+01  0.00000000000E+00 0.  1.
         24    1    1    2    0    0 -0.33612508948E+02 -0.10235401572E+02  0.18313199990E+04  0.18334215878E+04  0.80419002446E+02 0. -1.
        -24    1    1    2    0    0  0.33612508948E+02  0.10235401572E+02  0.49466670803E+03  0.50239121428E+03  0.80419002446E+02 0.  1.
<mgrwt>
<rscale>  0 0.87759787E+02</rscale>
<asrwt>0</asrwt>
<pdfrwt beam="1">  1        2 0.35859908E+00 0.87759787E+02</pdfrwt>
<pdfrwt beam="2">  1       -2 0.75585533E-03 0.87759787E+02</pdfrwt>
<totfact> 0.15271411E+04</totfact>
</mgrwt>
</event>
<event>
 4    1  0.4844629E-001  0.8361900E+02  0.7546771E-02  0.1319084E+00
         -3   -1    0    0    0  501 -0.00000000000E+00  0.00000000000E+00  0.13795250151E+02  0.13795250151E+02  0.00000000000E+00 0.  1.
          3   -1    0    0  501    0  0.00000000000E+00 -0.00000000000E+00 -0.51045623283E+03  0.51045623283E+03  0.00000000000E+00 0. -1.
         24    1    1    2    0    0  0.19053782625E+02  0.12722828530E+02 -0.27036035657E+03  0.28299621085E+03  0.80419002446E+02 0. -1.
        -24    1    1    2    0    0 -0.19053782625E+02 -0.12722828530E+02 -0.22630062611E+03  0.24125527213E+03  0.80419002446E+02 0.  1.
<mgrwt>
<rscale>  0 0.83618985E+02</rscale>
<asrwt>0</asrwt>
<pdfrwt beam="1">  1        3 0.78531738E-01 0.83618996E+02</pdfrwt>
<pdfrwt beam="2">  1       -3 0.21223459E-02 0.83618996E+02</pdfrwt>
<totfact> 0.28094846E+03</totfact>
</mgrwt>
</event>
<event>
 4    1  0.4844629E-001  0.1082316E+03  0.7546771E-02  0.1263880E+00
         -2   -1    0    0    0  501 -0.00000000000E+00  0.00000000000E+00  0.17392141438E+02  0.17392141438E+02  0.00000000000E+00 0.  1.
          2   -1    0    0  501    0  0.00000000000E+00 -0.00000000000E+00 -0.72825884816E+03  0.72825884816E+03  0.00000000000E+00 0. -1.
         24    1    1    2    0    0 -0.42658335597E+02  0.58541646064E+02 -0.45764101507E+03  0.47026521511E+03  0.80419002446E+02 0. -1.
        -24    1    1    2    0    0  0.42658335597E+02 -0.58541646064E+02 -0.25322569166E+03  0.27538577449E+03  0.80419002446E+02 0.  1.
<mgrwt>
<rscale>  0 0.10823158E+03</rscale>
<asrwt>0</asrwt>
<pdfrwt beam="1">  1        2 0.11203981E+00 0.10823158E+03</pdfrwt>
<pdfrwt beam="2">  1       -2 0.26757144E-02 0.10823158E+03</pdfrwt>
<totfact> 0.18667834E+04</totfact>
</mgrwt>
</event>
<event>
 4    1  0.4844629E-001  0.8263070E+02  0.7546771E-02  0.1321747E+00
         -2   -1    0    0    0  501 -0.00000000000E+00  0.00000000000E+00  0.63848667519E+02  0.63848667519E+02  0.00000000000E+00 0.  1.
          2   -1    0    0  501    0  0.00000000000E+00 -0.00000000000E+00 -0.13186752530E+03  0.13186752530E+03  0.00000000000E+00 0. -1.
         24    1    1    2    0    0 -0.15073999587E+02  0.11549541554E+02 -0.76558193157E+02  0.11264541832E+03  0.80419002446E+02 0. -1.
        -24    1    1    2    0    0  0.15073999587E+02 -0.11549541554E+02  0.85393353764E+01  0.83070774504E+02  0.80419002446E+02 0.  1.
<mgrwt>
<rscale>  0 0.82630705E+02</rscale>
<asrwt>0</asrwt>
<pdfrwt beam="1">  1        2 0.20287311E-01 0.82630705E+02</pdfrwt>
<pdfrwt beam="2">  1       -2 0.98228721E-02 0.82630705E+02</pdfrwt>
<totfact> 0.16505199E+04</totfact>
</mgrwt>
</event>
<event>
 4    1  0.4844629E-001  0.8379894E+02  0.7546771E-02  0.1318604E+00
          1   -1    0    0  501    0  0.00000000000E+00  0.00000000000E+00  0.38580722328E+04  0.38580722328E+04  0.00000000000E+00 0. -1.
         -1   -1    0    0    0  501 -0.00000000000E+00 -0.00000000000E+00 -0.24913575352E+01  0.24913575352E+01  0.00000000000E+00 0.  1.
         24    1    1    2    0    0  0.88085966915E+01  0.21850733617E+02  0.92587332964E+03  0.92965783191E+03  0.80419002446E+02 0.  1.
        -24    1    1    2    0    0 -0.88085966915E+01 -0.21850733617E+02  0.29297075456E+04  0.29309057584E+04  0.80419002446E+02 0.  0.
<mgrwt>
<rscale>  0 0.83798937E+02</rscale>
<asrwt>0</asrwt>
<pdfrwt beam="1">  1        1 0.59354479E+00 0.83798937E+02</pdfrwt>
<pdfrwt beam="2">  1       -1 0.38328886E-03 0.83798937E+02</pdfrwt>
<totfact> 0.12679310E+03</totfact>
</mgrwt>
</event>
<event>
 4    1  0.4844629E-001  0.1020779E+03  0.7546771E-02  0.1275986E+00
          3   -1    0    0  501    0  0.00000000000E+00  0.00000000000E+00  0.90238182224E+02  0.90238182224E+02  0.00000000000E+00 0. -1.
         -3   -1    0    0    0  501 -0.00000000000E+00 -0.00000000000E+00 -0.11772847609E+03  0.11772847609E+03  0.00000000000E+00 0.  1.
         24    1    1    2    0    0 -0.54788391432E+02 -0.30836967863E+02 -0.28143893538E+02  0.10588664279E+03  0.80419002446E+02 0. -1.
        -24    1    1    2    0    0  0.54788391432E+02  0.30836967863E+02  0.65359967571E+00  0.10208001553E+03  0.80419002446E+02 0.  1.
<mgrwt>
<rscale>  0 0.10207792E+03</rscale>
<asrwt>0</asrwt>
<pdfrwt beam="1">  1        3 0.13882797E-01 0.10207792E+03</pdfrwt>
<pdfrwt beam="2">  1       -3 0.18112073E-01 0.10207792E+03</pdfrwt>
<totfact> 0.24573489E+03</totfact>
</mgrwt>
</event>
<event>
 4    1  0.4844629E-001  0.2296703E+03  0.7546771E-02  0.1126872E+00
          1   -1    0    0  501    0  0.00000000000E+00  0.00000000000E+00  0.93115231502E+03  0.93115231502E+03  0.00000000000E+00 0. -1.
         -1   -1    0    0    0  501 -0.00000000000E+00 -0.00000000000E+00 -0.13833042888E+03  0.13833042888E+03  0.00000000000E+00 0.  1.
         24    1    1    2    0    0  0.18243328254E+03 -0.11401452434E+03 -0.14500067509E+02  0.23012753475E+03  0.80419002446E+02 0.  1.
        -24    1    1    2    0    0 -0.18243328254E+03  0.11401452434E+03  0.80732195364E+03  0.83935520915E+03  0.80419002446E+02 0. -1.
<mgrwt>
<rscale>  0 0.22967026E+03</rscale>
<asrwt>0</asrwt>
<pdfrwt beam="1">  1        1 0.14325420E+00 0.22967026E+03</pdfrwt>
<pdfrwt beam="2">  1       -1 0.21281605E-01 0.22967026E+03</pdfrwt>
<totfact> 0.33276737E+02</totfact>
</mgrwt>
</event>
<event>
 4    1  0.4844629E-001  0.8917656E+02  0.7546771E-02  0.1304858E+00
         -2   -1    0    0    0  501 -0.00000000000E+00  0.00000000000E+00  0.56213916435E+03  0.56213916435E+03  0.00000000000E+00 0.  1.
          2   -1    0    0  501    0  0.00000000000E+00 -0.00000000000E+00 -0.16057766591E+02  0.16057766591E+02  0.00000000000E+00 0. -1.
         24    1    1    2    0    0 -0.30006055989E+01  0.38421869564E+02  0.17330929733E+03  0.19490657297E+03  0.80419002446E+02 0. -1.
        -24    1    1    2    0    0  0.30006055989E+01 -0.38421869564E+02  0.37277210043E+03  0.38329035797E+03  0.80419002446E+02 0.  1.
<mgrwt>
<rscale>  0 0.89176564E+02</rscale>
<asrwt>0</asrwt>
<pdfrwt beam="1">  1        2 0.24704261E-02 0.89176564E+02</pdfrwt>
<pdfrwt beam="2">  1       -2 0.86482933E-01 0.89176564E+02</pdfrwt>
<totfact> 0.44542753E+03</totfact>
</mgrwt>
</event>
<event>
 4    1  0.4844629E-001  0.8072986E+02  0.7546771E-02  0.1326993E+00
          2   -1    0    0  501    0  0.00000000000E+00  0.00000000000E+00  0.66864910701E+02  0.66864910701E+02  0.00000000000E+00 0. -1.
         -2   -1    0    0    0  501 -0.00000000000E+00 -0.00000000000E+00 -0.16367437350E+03  0.16367437350E+03  0.00000000000E+00 0.  1.
         24    1    1    2    0    0 -0.67001161913E+01 -0.22809981868E+01  0.24906168162E+02  0.84484481869E+02  0.80419002446E+02 0. -1.
        -24    1    1    2    0    0  0.67001161913E+01  0.22809981868E+01 -0.12171563096E+03  0.14605480233E+03  0.80419002446E+02 0.  1.
<mgrwt>
<rscale>  0 0.80729861E+02</rscale>
<asrwt>0</asrwt>
<pdfrwt beam="1">  1        2 0.10286909E-01 0.80729861E+02</pdfrwt>
<pdfrwt beam="2">  1       -2 0.25180673E-01 0.80729861E+02</pdfrwt>
<totfact> 0.78115174E+03</totfact>
</mgrwt>
</event>
<event>
 4    1  0.4844629E-001  0.8256022E+02  0.7546771E-02  0.1321939E+00
          2   -1    0    0  501    0  0.00000000000E+00  0.00000000000E+00  0.67638891979E+02  0.67638891979E+02  0.00000000000E+00 0. -1.
         -2   -1    0    0    0  501 -0.00000000000E+00 -0.00000000000E+00 -0.14756361993E+03  0.14756361993E+03  0.00000000000E+00 0.  1.
         24    1    1    2    0    0  0.99487917539E+01 -0.15811126095E+02 -0.10055310481E+03  0.13010423901E+03  0.80419002446E+02 0.  1.
        -24    1    1    2    0    0 -0.99487917539E+01  0.15811126095E+02  0.20628376856E+02  0.85098272908E+02  0.80419002446E+02 0.  0.
<mgrwt>
<rscale>  0 0.82560207E+02</rscale>
<asrwt>0</asrwt>
<pdfrwt beam="1">  1        2 0.10405983E-01 0.82560218E+02</pdfrwt>
<pdfrwt beam="2">  1       -2 0.22702095E-01 0.82560218E+02</pdfrwt>
<totfact> 0.92216306E+03</totfact>
</mgrwt>
</event>
<event>
 4    1  0.4844629E-001  0.8155613E+02  0.7546771E-02  0.1324692E+00
         -2   -1    0    0    0  501 -0.00000000000E+00  0.00000000000E+00  0.22164124405E+01  0.22164124405E+01  0.00000000000E+00 0.  1.
          2   -1    0    0  501    0  0.00000000000E+00 -0.00000000000E+00 -0.33695026343E+04  0.33695026343E+04  0.00000000000E+00 0. -1.
         24    1    1    2    0    0 -0.59730404267E+01 -0.12186419986E+02 -0.22411786246E+04  0.22426620409E+04  0.80419002446E+02 0.  0.
        -24    1    1    2    0    0  0.59730404267E+01  0.12186419986E+02 -0.11261075972E+04  0.11290570059E+04  0.80419002446E+02 0.  1.
<mgrwt>
<rscale>  0 0.81556128E+02</rscale>
<asrwt>0</asrwt>
<pdfrwt beam="1">  1        2 0.51838368E+00 0.81556128E+02</pdfrwt>
<pdfrwt beam="2">  1       -2 0.34098741E-03 0.81556128E+02</pdfrwt>
<totfact> 0.12269531E+04</totfact>
</mgrwt>
</event>
<event>
 4    1  0.4844629E-001  0.8192179E+02  0.7546771E-02  0.1323684E+00
         -1   -1    0    0    0  501 -0.00000000000E+00  0.00000000000E+00  0.24182983407E+03  0.24182983407E+03  0.00000000000E+00 0.  1.
          1   -1    0    0  501    0  0.00000000000E+00 -0.00000000000E+00 -0.29112964657E+02  0.29112964657E+02  0.00000000000E+00 0. -1.
         24    1    1    2    0    0 -0.15569377977E+02 -0.12481324384E+01  0.13565266385E+03  0.15847026386E+03  0.80419002446E+02 0.  1.
        -24    1    1    2    0    0  0.15569377977E+02  0.12481324384E+01  0.77064205564E+02  0.11247253486E+03  0.80419002446E+02 0.  0.
<mgrwt>
<rscale>  0 0.81921788E+02</rscale>
<asrwt>0</asrwt>
<pdfrwt beam="1">  1        1 0.44789178E-02 0.81921788E+02</pdfrwt>
<pdfrwt beam="2">  1       -1 0.37204589E-01 0.81921788E+02</pdfrwt>
<totfact> 0.12124885E+04</totfact>
</mgrwt>
</event>
<event>
 4    1  0.4844629E-001  0.8060110E+02  0.7546771E-02  0.1327354E+00
          1   -1    0    0  501    0  0.00000000000E+00  0.00000000000E+00  0.14061745487E+04  0.14061745487E+04  0.00000000000E+00 0. -1.
         -1   -1    0    0    0  501 -0.00000000000E+00 -0.00000000000E+00 -0.21804087629E+02  0.21804087629E+02  0.00000000000E+00 0.  1.
         24    1    1    2    0    0 -0.38176614806E+01  0.38401029226E+01  0.58336097970E+02  0.99496920607E+02  0.80419002446E+02 0.  0.
        -24    1    1    2    0    0  0.38176614806E+01 -0.38401029226E+01  0.13260343631E+04  0.13284817157E+04  0.80419002446E+02 0. -1.
<mgrwt>
<rscale>  0 0.80601097E+02</rscale>
<asrwt>0</asrwt>
<pdfrwt beam="1">  1        1 0.21633447E+00 0.80601097E+02</pdfrwt>
<pdfrwt beam="2">  1       -1 0.33544761E-02 0.80601097E+02</pdfrwt>
<totfact> 0.25982489E+03</totfact>
</mgrwt>
</event>
<event>
 4    1  0.4844629E-001  0.8772875E+02  0.7546771E-02  0.1308447E+00
         -3   -1    0    0    0  501 -0.00000000000E+00  0.00000000000E+00  0.10163111760E+04  0.10163111760E+04  0.00000000000E+00 0.  1.
          3   -1    0    0  501    0  0.00000000000E+00 -0.00000000000E+00 -0.21762913339E+02  0.21762913339E+02  0.00000000000E+00 0. -1.
         24    1    1    2    0    0 -0.34860408475E+02 -0.37240787710E+01  0.91638854583E+03  0.92057824205E+03  0.80419002446E+02 0.  1.
        -24    1    1    2    0    0  0.34860408475E+02  0.37240787710E+01  0.78159716828E+02  0.11749584729E+03  0.80419002446E+02 0. -1.
<mgrwt>
<rscale>  0 0.87728746E+02</rscale>
<asrwt>0</asrwt>
<pdfrwt beam="1">  1        3 0.33481413E-02 0.87728746E+02</pdfrwt>
<pdfrwt beam="2">  1       -3 0.15635553E+00 0.87728746E+02</pdfrwt>
<totfact> 0.29058426E+02</totfact>
</mgrwt>
</event>
<event>
 4    1  0.4844629E-001  0.1045657E+03  0.7546771E-02  0.1270978E+00
         -2   -1    0    0    0  501 -0.00000000000E+00  0.00000000000E+00  0.68275490966E+03  0.68275490966E+03  0.00000000000E+00 0.  1.
          2   -1    0    0  501    0  0.00000000000E+00 -0.00000000000E+00 -0.19623227137E+02  0.19623227137E+02  0.00000000000E+00 0. -1.
         24    1    1    2    0    0 -0.27513863663E+02 -0.60907856737E+02  0.18096365240E+03  0.20900200753E+03  0.80419002446E+02 0.  0.
        -24    1    1    2    0    0  0.27513863663E+02  0.60907856737E+02  0.48216803013E+03  0.49337612927E+03  0.80419002446E+02 0.  0.
<mgrwt>
<rscale>  0 0.10456575E+03</rscale>
<asrwt>0</asrwt>
<pdfrwt beam="1">  1        2 0.30189585E-02 0.10456575E+03</pdfrwt>
<pdfrwt beam="2">  1       -2 0.10503920E+00 0.10456575E+03</pdfrwt>
<totfact> 0.22266973E+03</totfact>
</mgrwt>
</event>
<event>
 4    1  0.4844629E-001  0.1871510E+03  0.7546771E-02  0.1161056E+00
         -1   -1    0    0    0  501 -0.00000000000E+00  0.00000000000E+00  0.49746251439E+02  0.49746251439E+02  0.00000000000E+00 0.  1.
          1   -1    0    0  501    0  0.00000000000E+00 -0.00000000000E+00 -0.78727170409E+03  0.78727170409E+03  0.00000000000E+00 0. -1.
         24    1    1    2    0    0  0.37295921516E+02 -0.16482509440E+03 -0.23272060245E+03  0.29863756004E+03  0.80419002446E+02 0.  1.
        -24    1    1    2    0    0 -0.37295921516E+02  0.16482509440E+03 -0.50480485021E+03  0.53838039549E+03  0.80419002446E+02 0. -1.
<mgrwt>
<rscale>  0 0.18715104E+03</rscale>
<asrwt>0</asrwt>
<pdfrwt beam="1">  1        1 0.12111871E+00 0.18715104E+03</pdfrwt>
<pdfrwt beam="2">  1       -1 0.76532704E-02 0.18715104E+03</pdfrwt>
<totfact> 0.21621701E+03</totfact>
</mgrwt>
</event>
<event>
 4    1  0.4844629E-001  0.9621457E+02  0.7546771E-02  0.1288464E+00
         -1   -1    0    0    0  501 -0.00000000000E+00  0.00000000000E+00  0.53020881124E+02  0.53020881124E+02  0.00000000000E+00 0.  1.
          1   -1    0    0  501    0  0.00000000000E+00 -0.00000000000E+00 -0.17465548991E+03  0.17465548991E+03  0.00000000000E+00 0. -1.
         24    1    1    2    0    0  0.13908485697E+02  0.50956617116E+02 -0.62916603282E+02  0.11495972219E+03  0.80419002446E+02 0. -1.
        -24    1    1    2    0    0 -0.13908485697E+02 -0.50956617116E+02 -0.58718005499E+02  0.11271664884E+03  0.80419002446E+02 0.  1.
<mgrwt>
<rscale>  0 0.96214557E+02</rscale>
<asrwt>0</asrwt>
<pdfrwt beam="1">  1        1 0.26870076E-01 0.96214570E+02</pdfrwt>
<pdfrwt beam="2">  1       -1 0.81570585E-02 0.96214570E+02</pdfrwt>
<totfact> 0.13213679E+04</totfact>
</mgrwt>
</event>
<event>
 4    1  0.4844629E-001  0.8753669E+02  0.7546771E-02  0.1308929E+00
          1   -1    0    0  501    0  0.00000000000E+00  0.00000000000E+00  0.71471244584E+03  0.71471244584E+03  0.00000000000E+00 0. -1.
         -1   -1    0    0    0  501 -0.00000000000E+00 -0.00000000000E+00 -0.76511912099E+02  0.76511912099E+02  0.00000000000E+00 0.  1.
         24    1    1    2    0    0  0.34409052562E+02 -0.33873127703E+01 -0.47748419029E+02  0.99712508043E+02  0.80419002446E+02 0.  1.
        -24    1    1    2    0    0 -0.34409052562E+02  0.33873127703E+01  0.68594895277E+03  0.69151184990E+03  0.80419002446E+02 0. -1.
<mgrwt>
<rscale>  0 0.87536694E+02</rscale>
<asrwt>0</asrwt>
<pdfrwt beam="1">  1        1 0.10995576E+00 0.87536694E+02</pdfrwt>
<pdfrwt beam="2">  1       -1 0.11771064E-01 0.87536694E+02</pdfrwt>
<totfact> 0.12772639E+03</totfact>
</mgrwt>
</event>
<event>
 4    1  0.4844629E-001  0.8068946E+02  0.7546771E-02  0.1327106E+00
          2   -1    0    0  501    0  0.00000000000E+00  0.00000000000E+00  0.17078118513E+04  0.17078118513E+04  0.00000000000E+00 0. -1.
         -2   -1    0    0    0  501 -0.00000000000E+00 -0.00000000000E+00 -0.80850199529E+01  0.80850199529E+01  0.00000000000E+00 0.  1.
         24    1    1    2    0    0 -0.65812769775E+01 -0.50977446982E+00  0.14735550795E+04  0.14757626372E+04  0.80419002446E+02 0.  0.
        -24    1    1    2    0    0  0.65812769775E+01  0.50977446982E+00  0.22617175184E+03  0.24013423404E+03  0.80419002446E+02 0.  1.
<mgrwt>
<rscale>  0 0.80689460E+02</rscale>
<asrwt>0</asrwt>
<pdfrwt beam="1">  1        2 0.26274000E+00 0.80689460E+02</pdfrwt>
<pdfrwt beam="2">  1       -2 0.12438506E-02 0.80689460E+02</pdfrwt>
<totfact> 0.15486487E+04</totfact>
</mgrwt>
</event>
<event>
 4    1  0.4844629E-001  0.8379503E+02  0.7546771E-02  0.1318614E+00
          1   -1    0    0  501    0  0.00000000000E+00  0.00000000000E+00  0.15042273537E+03  0.15042273537E+03  0.00000000000E+00 0. -1.
         -1   -1    0    0    0  501 -0.00000000000E+00 -0.00000000000E+00 -0.58474252734E+02  0.58474252734E+02  0.00000000000E+00 0.  1.
         24    1    1    2    0    0  0.50716508241E-01 -0.23545398703E+02  0.92884825479E+02  0.12509674309E+03  0.80419002446E+02 0. -1.
        -24    1    1    2    0    0 -0.50716508241E-01  0.23545398703E+02 -0.93634284623E+00  0.83800245015E+02  0.80419002446E+02 0.  1.
<mgrwt>
<rscale>  0 0.83795024E+02</rscale>
<asrwt>0</asrwt>
<pdfrwt beam="1">  1        1 0.23141959E-01 0.83795035E+02</pdfrwt>
<pdfrwt beam="2">  1       -1 0.89960389E-02 0.83795035E+02</pdfrwt>
<totfact> 0.13544572E+04</totfact>
</mgrwt>
</event>
<event>
 4    1  0.4844629E-001  0.1216696E+03  0.7546771E-02  0.1240368E+00
         -3   -1    0    0    0  501 -0.00000000000E+00  0.00000000000E+00  0.13629261953E+04  0.13629261953E+04  0.00000000000E+00 0.  1.
          3   -1    0    0  501    0  0.00000000000E+00 -0.00000000000E+00 -0.17994596397E+02  0.17994596397E+02  0.00000000000E+00 0. -1.
         24    1    1    2    0    0 -0.85779992968E+02 -0.31274256077E+02  0.11071811654E+04  0.11138463248E+04  0.80419002446E+02 0.  1.
        -24    1    1    2    0    0  0.85779992968E+02  0.31274256077E+02  0.23775043351E+03  0.26707446691E+03  0.80419002446E+02 0. -1.
<mgrwt>
<rscale>  0 0.12166964E+03</rscale>
<asrwt>0</asrwt>
<pdfrwt beam="1">  1        3 0.27684005E-02 0.12166964E+03</pdfrwt>
<pdfrwt beam="2">  1       -3 0.20968087E+00 0.12166964E+03</pdfrwt>
<totfact> 0.18789145E+02</totfact>
</mgrwt>
</event>
<event>
 4    1  0.4844629E-001  0.8805507E+02  0.7546771E-02  0.1307631E+00
          2   -1    0    0  501    0  0.00000000000E+00  0.00000000000E+00  0.21276931763E+04  0.21276931763E+04  0.00000000000E+00 0. -1.
         -2   -1    0    0    0  501 -0.00000000000E+00 -0.00000000000E+00 -0.36443444917E+01  0.36443444917E+01  0.00000000000E+00 0.  1.
         24    1    1    2    0    0 -0.35407169638E+02 -0.57277839086E+01  0.10548058624E+04  0.10584748927E+04  0.80419002446E+02 0. -1.
        -24    1    1    2    0    0  0.35407169638E+02  0.57277839086E+01  0.10692429694E+04  0.10728626281E+04  0.80419002446E+02 0.  1.
<mgrwt>
<rscale>  0 0.88055057E+02</rscale>
<asrwt>0</asrwt>
<pdfrwt beam="1">  1        2 0.32733642E+00 0.88055068E+02</pdfrwt>
<pdfrwt beam="2">  1       -2 0.56067008E-03 0.88055068E+02</pdfrwt>
<totfact> 0.29492915E+04</totfact>
</mgrwt>
</event>
<event>
 4    1  0.4844629E-001  0.9180036E+02  0.7546771E-02  0.1298550E+00
         -2   -1    0    0    0  501 -0.00000000000E+00  0.00000000000E+00  0.98360886158E+01  0.98360886158E+01  0.00000000000E+00 0.  1.
          2   -1    0    0  501    0  0.00000000000E+00 -0.00000000000E+00 -0.20190379714E+04  0.20190379714E+04  0.00000000000E+00 0. -1.
         24    1    1    2    0    0 -0.31053927959E+02  0.31555408432E+02 -0.17742721044E+04  0.17766453801E+04  0.80419002446E+02 0. -1.
        -24    1    1    2    0    0  0.31053927959E+02 -0.31555408432E+02 -0.23492977837E+03  0.25222867990E+03  0.80419002446E+02 0.  1.
<mgrwt>
<rscale>  0 0.91800361E+02</rscale>
<asrwt>0</asrwt>
<pdfrwt beam="1">  1        2 0.31062122E+00 0.91800361E+02</pdfrwt>
<pdfrwt beam="2">  1       -2 0.15132444E-02 0.91800361E+02</pdfrwt>
<totfact> 0.82388448E+03</totfact>
</mgrwt>
</event>
<event>
 4    1  0.4844629E-001  0.9658075E+02  0.7546771E-02  0.1287655E+00
          2   -1    0    0  501    0  0.00000000000E+00  0.00000000000E+00  0.74680085428E+03  0.74680085428E+03  0.00000000000E+00 0. -1.
         -2   -1    0    0    0  501 -0.00000000000E+00 -0.00000000000E+00 -0.16027227920E+02  0.16027227920E+02  0.00000000000E+00 0.  1.
         24    1    1    2    0    0  0.11663321865E+02  0.52197622049E+02  0.54456060542E+03  0.55305885198E+03  0.80419002446E+02 0. -1.
        -24    1    1    2    0    0 -0.11663321865E+02 -0.52197622049E+02  0.18621302094E+03  0.20976923022E+03  0.80419002446E+02 0.  1.
<mgrwt>
<rscale>  0 0.96580747E+02</rscale>
<asrwt>0</asrwt>
<pdfrwt beam="1">  1        2 0.11489241E+00 0.96580747E+02</pdfrwt>
<pdfrwt beam="2">  1       -2 0.24657280E-02 0.96580747E+02</pdfrwt>
<totfact> 0.20194513E+04</totfact>
</mgrwt>
</event>
<event>
 4    1  0.4844629E-001  0.8063752E+02  0.7546771E-02  0.1327252E+00
          2   -1    0    0  501    0  0.00000000000E+00  0.00000000000E+00  0.18046387490E+03  0.18046387490E+03  0.00000000000E+00 0. -1.
         -2   -1    0    0    0  501 -0.00000000000E+00 -0.00000000000E+00 -0.61777971175E+02  0.61777971175E+02  0.00000000000E+00 0.  1.
         24    1    1    2    0    0 -0.56846263343E+01  0.16965437002E+01  0.13753454019E+03  0.15943073397E+03  0.80419002446E+02 0.  0.
        -24    1    1    2    0    0  0.56846263343E+01 -0.16965437002E+01 -0.18848636458E+02  0.82811112103E+02  0.80419002446E+02 0.  1.
<mgrwt>
<rscale>  0 0.80637517E+02</rscale>
<asrwt>0</asrwt>
<pdfrwt beam="1">  1        2 0.27763673E-01 0.80637517E+02</pdfrwt>
<pdfrwt beam="2">  1       -2 0.95043033E-02 0.80637517E+02</pdfrwt>
<totfact> 0.12300130E+04</totfact>
</mgrwt>
</event>
<event>
 4    1  0.4844629E-001  0.8674306E+02  0.7546771E-02  0.1310936E+00
         -2   -1    0    0    0  501 -0.00000000000E+00  0.00000000000E+00  0.12760330178E+03  0.12760330178E+03  0.00000000000E+00 0.  1.
          2   -1    0    0  501    0  0.00000000000E+00 -0.00000000000E+00 -0.68247690683E+02  0.68247690683E+02  0.00000000000E+00 0. -1.
         24    1    1    2    0    0 -0.30885461611E+02 -0.10160237725E+02 -0.64337898158E+01  0.86981330039E+02  0.80419002446E+02 0. -1.
        -24    1    1    2    0    0  0.30885461611E+02  0.10160237725E+02  0.65789400910E+02  0.10886966242E+03  0.80419002446E+02 0.  1.
<mgrwt>
<rscale>  0 0.86743058E+02</rscale>
<asrwt>0</asrwt>
<pdfrwt beam="1">  1        2 0.10499645E-01 0.86743058E+02</pdfrwt>
<pdfrwt beam="2">  1       -2 0.19631277E-01 0.86743058E+02</pdfrwt>
<totfact> 0.11713827E+04</totfact>
</mgrwt>
</event>
<event>
 4    1  0.4844629E-001  0.9569073E+02  0.7546771E-02  0.1289628E+00
          1   -1    0    0  501    0  0.00000000000E+00  0.00000000000E+00  0.16944466277E+04  0.16944466277E+04  0.00000000000E+00 0. -1.
         -1   -1    0    0    0  501 -0.00000000000E+00 -0.00000000000E+00 -0.75807341723E+01  0.75807341723E+01  0.00000000000E+00 0.  1.
         24    1    1    2    0    0 -0.51801525091E+02  0.24701805646E+01  0.38740868173E+03  0.39905162878E+03  0.80419002446E+02 0.  0.
        -24    1    1    2    0    0  0.51801525091E+02 -0.24701805646E+01  0.12994572118E+04  0.13029757331E+04  0.80419002446E+02 0.  0.
<mgrwt>
<rscale>  0 0.95690730E+02</rscale>
<asrwt>0</asrwt>
<pdfrwt beam="1">  1        1 0.26068380E+00 0.95690730E+02</pdfrwt>
<pdfrwt beam="2">  1       -1 0.11662681E-02 0.95690730E+02</pdfrwt>
<totfact> 0.77367975E+03</totfact>
</mgrwt>
</event>
<event>
 4    1  0.4844629E-001  0.8468262E+02  0.7546771E-02  0.1316265E+00
          3   -1    0    0  501    0  0.00000000000E+00  0.00000000000E+00  0.27353251320E+03  0.27353251320E+03  0.00000000000E+00 0. -1.
         -3   -1    0    0    0  501 -0.00000000000E+00 -0.00000000000E+00 -0.35535519582E+02  0.35535519582E+02  0.00000000000E+00 0.  1.
         24    1    1    2    0    0 -0.26483118686E+02 -0.16043126817E+01  0.39863054172E+02  0.93595985153E+02  0.80419002446E+02 0.  1.
        -24    1    1    2    0    0  0.26483118686E+02  0.16043126817E+01  0.19813393945E+03  0.21547204763E+03  0.80419002446E+02 0. -1.
<mgrwt>
<rscale>  0 0.84682615E+02</rscale>
<asrwt>0</asrwt>
<pdfrwt beam="1">  1        3 0.42081924E-01 0.84682615E+02</pdfrwt>
<pdfrwt beam="2">  1       -3 0.54670032E-02 0.84682615E+02</pdfrwt>
<totfact> 0.23221173E+03</totfact>
</mgrwt>
</event>
<event>
 4    1  0.4844629E-001  0.8619375E+02  0.7546771E-02  0.1312340E+00
         -2   -1    0    0    0  501 -0.00000000000E+00  0.00000000000E+00  0.36238855808E+02  0.36238855808E+02  0.00000000000E+00 0.  1.
          2   -1    0    0  501    0  0.00000000000E+00 -0.00000000000E+00 -0.22243429838E+03  0.22243429838E+03  0.00000000000E+00 0. -1.
         24    1    1    2    0    0 -0.23322595325E+02 -0.20450032189E+02 -0.12929583696E+03  0.15539233147E+03  0.80419002446E+02 0.  0.
        -24    1    1    2    0    0  0.23322595325E+02  0.20450032189E+02 -0.56899605617E+02  0.10328082273E+03  0.80419002446E+02 0.  0.
<mgrwt>
<rscale>  0 0.86193754E+02</rscale>
<asrwt>0</asrwt>
<pdfrwt beam="1">  1        2 0.34220660E-01 0.86193754E+02</pdfrwt>
<pdfrwt beam="2">  1       -2 0.55752088E-02 0.86193754E+02</pdfrwt>
<totfact> 0.22259545E+04</totfact>
</mgrwt>
</event>
<event>
 4    1  0.4844629E-001  0.9370749E+02  0.7546771E-02  0.1294114E+00
         -2   -1    0    0    0  501 -0.00000000000E+00  0.00000000000E+00  0.33065522868E+02  0.33065522868E+02  0.00000000000E+00 0.  1.
          2   -1    0    0  501    0  0.00000000000E+00 -0.00000000000E+00 -0.37377927948E+03  0.37377927948E+03  0.00000000000E+00 0. -1.
         24    1    1    2    0    0 -0.11570553917E+02  0.46690480182E+02 -0.27981058548E+03  0.29508483248E+03  0.80419002446E+02 0. -1.
        -24    1    1    2    0    0  0.11570553917E+02 -0.46690480182E+02 -0.60903171137E+02  0.11175996987E+03  0.80419002446E+02 0.  1.
<mgrwt>
<rscale>  0 0.93707495E+02</rscale>
<asrwt>0</asrwt>
<pdfrwt beam="1">  1        2 0.57504505E-01 0.93707495E+02</pdfrwt>
<pdfrwt beam="2">  1       -2 0.50870034E-02 0.93707495E+02</pdfrwt>
<totfact> 0.14939440E+04</totfact>
</mgrwt>
</event>
<event>
 4    1  0.4844629E-001  0.8440333E+02  0.7546771E-02  0.1317000E+00
          2   -1    0    0  501    0  0.00000000000E+00  0.00000000000E+00  0.10791095771E+04  0.10791095771E+04  0.00000000000E+00 0. -1.
         -2   -1    0    0    0  501 -0.00000000000E+00 -0.00000000000E+00 -0.69015980947E+01  0.69015980947E+01  0.00000000000E+00 0.  1.
         24    1    1    2    0    0  0.11026703934E+02  0.23132614756E+02  0.64930238109E+03  0.65476522824E+03  0.80419002446E+02 0. -1.
        -24    1    1    2    0    0 -0.11026703934E+02 -0.23132614756E+02  0.42290559794E+03  0.43124594698E+03  0.80419002446E+02 0.  1.
<mgrwt>
<rscale>  0 0.84403329E+02</rscale>
<asrwt>0</asrwt>
<pdfrwt beam="1">  1        2 0.16601672E+00 0.84403329E+02</pdfrwt>
<pdfrwt beam="2">  1       -2 0.10617852E-02 0.84403329E+02</pdfrwt>
<totfact> 0.41378588E+04</totfact>
</mgrwt>
</event>
<event>
 4    1  0.4844629E-001  0.8082257E+02  0.7546771E-02  0.1326733E+00
         -2   -1    0    0    0  501 -0.00000000000E+00  0.00000000000E+00  0.80644523792E+01  0.80644523792E+01  0.00000000000E+00 0.  1.
          2   -1    0    0  501    0  0.00000000000E+00 -0.00000000000E+00 -0.10749313722E+04  0.10749313722E+04  0.00000000000E+00 0. -1.
         24    1    1    2    0    0  0.79907785976E+01 -0.11044046775E+01 -0.80225545506E+03  0.80631637921E+03  0.80419002446E+02 0. -1.
        -24    1    1    2    0    0 -0.79907785976E+01  0.11044046775E+01 -0.26461146472E+03  0.27667944533E+03  0.80419002446E+02 0.  0.
<mgrwt>
<rscale>  0 0.80822572E+02</rscale>
<asrwt>0</asrwt>
<pdfrwt beam="1">  1        2 0.16537399E+00 0.80822572E+02</pdfrwt>
<pdfrwt beam="2">  1       -2 0.12406855E-02 0.80822572E+02</pdfrwt>
<totfact> 0.33226522E+04</totfact>
</mgrwt>
</event>
<event>
 4    1  0.4844629E-001  0.9125400E+02  0.7546771E-02  0.1299843E+00
          2   -1    0    0  501    0  0.00000000000E+00  0.00000000000E+00  0.65579945437E+02  0.65579945437E+02  0.00000000000E+00 0. -1.
         -2   -1    0    0    0  501 -0.00000000000E+00 -0.00000000000E+00 -0.18433742532E+03  0.18433742532E+03  0.00000000000E+00 0.  1.
         24    1    1    2    0    0 -0.41615380656E+02  0.11324129123E+02  0.10325208978E+02  0.91836276614E+02  0.80419002446E+02 0. -1.
        -24    1    1    2    0    0  0.41615380656E+02 -0.11324129123E+02 -0.12908268887E+03  0.15808109415E+03  0.80419002446E+02 0.  1.
<mgrwt>
<rscale>  0 0.91253996E+02</rscale>
<asrwt>0</asrwt>
<pdfrwt beam="1">  1        2 0.10089222E-01 0.91253996E+02</pdfrwt>
<pdfrwt beam="2">  1       -2 0.28359604E-01 0.91253996E+02</pdfrwt>
<totfact> 0.65717071E+03</totfact>
</mgrwt>
</event>
<event>
 4    1  0.4844629E-001  0.2023853E+03  0.7546771E-02  0.1147742E+00
          1   -1    0    0  501    0  0.00000000000E+00  0.00000000000E+00  0.73206642281E+03  0.73206642281E+03  0.00000000000E+00 0. -1.
         -1   -1    0    0    0  501 -0.00000000000E+00 -0.00000000000E+00 -0.62539374271E+02  0.62539374271E+02  0.00000000000E+00 0.  1.
         24    1    1    2    0    0  0.16341801884E+03  0.88244622738E+02  0.46371824847E+03  0.50595888395E+03  0.80419002446E+02 0. -1.
        -24    1    1    2    0    0 -0.16341801884E+03 -0.88244622738E+02  0.20580880007E+03  0.28864691314E+03  0.80419002446E+02 0.  1.
<mgrwt>
<rscale>  0 0.20238525E+03</rscale>
<asrwt>0</asrwt>
<pdfrwt beam="1">  1        1 0.11262560E+00 0.20238527E+03</pdfrwt>
<pdfrwt beam="2">  1       -1 0.96214427E-02 0.20238527E+03</pdfrwt>
<totfact> 0.17011504E+03</totfact>
</mgrwt>
</event>
<event>
 4    1  0.4844629E-001  0.8454081E+02  0.7546771E-02  0.1316638E+00
          1   -1    0    0  501    0  0.00000000000E+00  0.00000000000E+00  0.22469416614E+03  0.22469416614E+03  0.00000000000E+00 0. -1.
         -1   -1    0    0    0  501 -0.00000000000E+00 -0.00000000000E+00 -0.31840489942E+02  0.31840489942E+02  0.00000000000E+00 0.  1.
         24    1    1    2    0    0 -0.22221048470E+02 -0.13643962681E+02  0.92351072294E+02  0.12520331154E+03  0.80419002446E+02 0.  1.
        -24    1    1    2    0    0  0.22221048470E+02  0.13643962681E+02  0.10050260390E+03  0.13133134454E+03  0.80419002446E+02 0. -1.
<mgrwt>
<rscale>  0 0.84540811E+02</rscale>
<asrwt>0</asrwt>
<pdfrwt beam="1">  1        1 0.34568332E-01 0.84540811E+02</pdfrwt>
<pdfrwt beam="2">  1       -1 0.48985371E-02 0.84540811E+02</pdfrwt>
<totfact> 0.20319879E+04</totfact>
</mgrwt>
</event>
<event>
 4    1  0.4844629E-001  0.8441099E+02  0.7546771E-02  0.1316980E+00
         -2   -1    0    0    0  501 -0.00000000000E+00  0.00000000000E+00  0.66083820621E+01  0.66083820621E+01  0.00000000000E+00 0.  1.
          2   -1    0    0  501    0  0.00000000000E+00 -0.00000000000E+00 -0.22976586896E+04  0.22976586896E+04  0.00000000000E+00 0. -1.
         24    1    1    2    0    0 -0.18175753639E+02 -0.18100863229E+02 -0.19848731386E+04  0.19866672070E+04  0.80419002446E+02 0. -1.
        -24    1    1    2    0    0  0.18175753639E+02  0.18100863229E+02 -0.30617716895E+03  0.31759986463E+03  0.80419002446E+02 0.  1.
<mgrwt>
<rscale>  0 0.84410990E+02</rscale>
<asrwt>0</asrwt>
<pdfrwt beam="1">  1        2 0.35348557E+00 0.84410990E+02</pdfrwt>
<pdfrwt beam="2">  1       -2 0.10166753E-02 0.84410990E+02</pdfrwt>
<totfact> 0.10439129E+04</totfact>
</mgrwt>
</event>
<event>
 4    1  0.4844629E-001  0.8486166E+02  0.7546771E-02  0.1315795E+00
         -2   -1    0    0    0  501 -0.00000000000E+00  0.00000000000E+00  0.36261429800E+02  0.36261429800E+02  0.00000000000E+00 0.  1.
          2   -1    0    0  501    0  0.00000000000E+00 -0.00000000000E+00 -0.22032868339E+03  0.22032868339E+03  0.00000000000E+00 0. -1.
         24    1    1    2    0    0  0.83450525656E+00  0.27084851717E+02 -0.13232352622E+03  0.15719738273E+03  0.80419002446E+02 0. -1.
        -24    1    1    2    0    0 -0.83450525656E+00 -0.27084851717E+02 -0.51743727371E+02  0.99392730459E+02  0.80419002446E+02 0.  1.
<mgrwt>
<rscale>  0 0.84861661E+02</rscale>
<asrwt>0</asrwt>
<pdfrwt beam="1">  1        2 0.33896721E-01 0.84861661E+02</pdfrwt>
<pdfrwt beam="2">  1       -2 0.55786814E-02 0.84861661E+02</pdfrwt>
<totfact> 0.22423821E+04</totfact>
</mgrwt>
</event>
<event>
 4    1  0.4844629E-001  0.1255381E+03  0.7546771E-02  0.1234231E+00
          2   -1    0    0  501    0  0.00000000000E+00  0.00000000000E+00  0.22814847513E+03  0.22814847513E+03  0.00000000000E+00 0. -1.
         -2   -1    0    0    0  501 -0.00000000000E+00 -0.00000000000E+00 -0.74054541813E+02  0.74054541813E+02  0.00000000000E+00 0.  1.
         24    1    1    2    0    0  0.96267456630E+02  0.50174736623E+01  0.11622115699E+03  0.17107650784E+03  0.80419002446E+02 0. -1.
        -24    1    1    2    0    0 -0.96267456630E+02 -0.50174736623E+01  0.37872776325E+02  0.13112650910E+03  0.80419002446E+02 0.  1.
<mgrwt>
<rscale>  0 0.12553810E+03</rscale>
<asrwt>0</asrwt>
<pdfrwt beam="1">  1        2 0.35099765E-01 0.12553810E+03</pdfrwt>
<pdfrwt beam="2">  1       -2 0.11393006E-01 0.12553810E+03</pdfrwt>
<totfact> 0.74857726E+03</totfact>
</mgrwt>
</event>
<event>
 4    1  0.4844629E-001  0.8852272E+02  0.7546771E-02  0.1306469E+00
          2   -1    0    0  501    0  0.00000000000E+00  0.00000000000E+00  0.36481533689E+04  0.36481533689E+04  0.00000000000E+00 0. -1.
         -2   -1    0    0    0  501 -0.00000000000E+00 -0.00000000000E+00 -0.23351669290E+01  0.23351669290E+01  0.00000000000E+00 0.  1.
         24    1    1    2    0    0  0.26895256365E+02  0.25410574589E+02  0.13061768474E+04  0.13091731073E+04  0.80419002446E+02 0.  1.
        -24    1    1    2    0    0 -0.26895256365E+02 -0.25410574589E+02  0.23396413546E+04  0.23413154286E+04  0.80419002446E+02 0. -1.
<mgrwt>
<rscale>  0 0.88522709E+02</rscale>
<asrwt>0</asrwt>
<pdfrwt beam="1">  1        2 0.56124980E+00 0.88522720E+02</pdfrwt>
<pdfrwt beam="2">  1       -2 0.35925937E-03 0.88522720E+02</pdfrwt>
<totfact> 0.75838403E+03</totfact>
</mgrwt>
</event>
<event>
 4    1  0.4844629E-001  0.8199001E+02  0.7546771E-02  0.1323497E+00
         -2   -1    0    0    0  501 -0.00000000000E+00  0.00000000000E+00  0.12569664503E+03  0.12569664503E+03  0.00000000000E+00 0.  1.
          2   -1    0    0  501    0  0.00000000000E+00 -0.00000000000E+00 -0.72690730294E+02  0.72690730294E+02  0.00000000000E+00 0. -1.
         24    1    1    2    0    0  0.66031807966E+00  0.15959637871E+02 -0.24489621409E+02  0.85569291057E+02  0.80419002446E+02 0. -1.
        -24    1    1    2    0    0 -0.66031807966E+00 -0.15959637871E+02  0.77495536145E+02  0.11281808427E+03  0.80419002446E+02 0.  0.
<mgrwt>
<rscale>  0 0.81990012E+02</rscale>
<asrwt>0</asrwt>
<pdfrwt beam="1">  1        2 0.11183189E-01 0.81990012E+02</pdfrwt>
<pdfrwt beam="2">  1       -2 0.19337945E-01 0.81990012E+02</pdfrwt>
<totfact> 0.11072315E+04</totfact>
</mgrwt>
</event>
<event>
 4    1  0.4844629E-001  0.8729369E+02  0.7546771E-02  0.1309541E+00
         -3   -1    0    0    0  501 -0.00000000000E+00  0.00000000000E+00  0.21779662681E+02  0.21779662681E+02  0.00000000000E+00 0.  1.
          3   -1    0    0  501    0  0.00000000000E+00 -0.00000000000E+00 -0.34988151749E+03  0.34988151749E+03  0.00000000000E+00 0. -1.
         24    1    1    2    0    0  0.18644282699E+02 -0.28378839706E+02 -0.16478111683E+03  0.18647520006E+03  0.80419002446E+02 0. -1.
        -24    1    1    2    0    0 -0.18644282699E+02  0.28378839706E+02 -0.16332073799E+03  0.18518598012E+03  0.80419002446E+02 0.  0.
<mgrwt>
<rscale>  0 0.87293675E+02</rscale>
<asrwt>0</asrwt>
<pdfrwt beam="1">  1        3 0.53827924E-01 0.87293686E+02</pdfrwt>
<pdfrwt beam="2">  1       -3 0.33507174E-02 0.87293686E+02</pdfrwt>
<totfact> 0.30878451E+03</totfact>
</mgrwt>
</event>
<event>
 4    1  0.4844629E-001  0.1159882E+03  0.7546771E-02  0.1249866E+00
          2   -1    0    0  501    0  0.00000000000E+00  0.00000000000E+00  0.42471893170E+03  0.42471893170E+03  0.00000000000E+00 0. -1.
         -2   -1    0    0    0  501 -0.00000000000E+00 -0.00000000000E+00 -0.48503471730E+02  0.48503471730E+02  0.00000000000E+00 0.  1.
         24    1    1    2    0    0 -0.24639711863E+02  0.79868158714E+02  0.32747559934E+03  0.34740973258E+03  0.80419002446E+02 0. -1.
        -24    1    1    2    0    0  0.24639711863E+02 -0.79868158714E+02  0.48739860632E+02  0.12581267085E+03  0.80419002446E+02 0.  1.
<mgrwt>
<rscale>  0 0.11598816E+03</rscale>
<asrwt>0</asrwt>
<pdfrwt beam="1">  1        2 0.65341371E-01 0.11598816E+03</pdfrwt>
<pdfrwt beam="2">  1       -2 0.74620729E-02 0.11598816E+03</pdfrwt>
<totfact> 0.74477001E+03</totfact>
</mgrwt>
</event>
<event>
 4    1  0.4844629E-001  0.8363068E+02  0.7546771E-02  0.1319053E+00
          3   -1    0    0  501    0  0.00000000000E+00  0.00000000000E+00  0.10997997571E+03  0.10997997571E+03  0.00000000000E+00 0. -1.
         -3   -1    0    0    0  501 -0.00000000000E+00 -0.00000000000E+00 -0.28853329940E+03  0.28853329940E+03  0.00000000000E+00 0.  1.
         24    1    1    2    0    0 -0.22952881794E+02  0.20036362653E+00 -0.26520965121E+03  0.27808317097E+03  0.80419002446E+02 0.  1.
        -24    1    1    2    0    0  0.22952881794E+02 -0.20036362653E+00  0.86656327517E+02  0.12043010413E+03  0.80419002446E+02 0. -1.
<mgrwt>
<rscale>  0 0.83630681E+02</rscale>
<asrwt>0</asrwt>
<pdfrwt beam="1">  1        3 0.16919996E-01 0.83630681E+02</pdfrwt>
<pdfrwt beam="2">  1       -3 0.44389738E-01 0.83630681E+02</pdfrwt>
<totfact> 0.33012812E+02</totfact>
</mgrwt>
</event>
<event>
 4    1  0.4844629E-001  0.1025152E+03  0.7546771E-02  0.1275094E+00
          2   -1    0    0  501    0  0.00000000000E+00  0.00000000000E+00  0.19782271758E+04  0.19782271758E+04  0.00000000000E+00 0. -1.
         -2   -1    0    0    0  501 -0.00000000000E+00 -0.00000000000E+00 -0.67801849978E+01  0.67801849978E+01  0.00000000000E+00 0.  1.
         24    1    1    2    0    0  0.51484663179E+02  0.37302447622E+02  0.14474935282E+04  0.14511191796E+04  0.80419002446E+02 0.  1.
        -24    1    1    2    0    0 -0.51484663179E+02 -0.37302447622E+02  0.52395346255E+03  0.53388818119E+03  0.80419002446E+02 0. -1.
<mgrwt>
<rscale>  0 0.10251517E+03</rscale>
<asrwt>0</asrwt>
<pdfrwt beam="1">  1        2 0.30434218E+00 0.10251517E+03</pdfrwt>
<pdfrwt beam="2">  1       -2 0.10431070E-02 0.10251517E+03</pdfrwt>
<totfact> 0.14741368E+04</totfact>
</mgrwt>
</event>
<event>
 4    1  0.4844629E-001  0.8771339E+02  0.7546771E-02  0.1308485E+00
          2   -1    0    0  501    0  0.00000000000E+00  0.00000000000E+00  0.45597320285E+03  0.45597320285E+03  0.00000000000E+00 0. -1.
         -2   -1    0    0    0  501 -0.00000000000E+00 -0.00000000000E+00 -0.17629861176E+02  0.17629861176E+02  0.00000000000E+00 0.  1.
         24    1    1    2    0    0 -0.89933482938E+01  0.33845852946E+02  0.26823610619E+03  0.28221312282E+03  0.80419002446E+02 0.  0.
        -24    1    1    2    0    0  0.89933482938E+01 -0.33845852946E+02  0.17010723549E+03  0.19138994121E+03  0.80419002446E+02 0.  0.
<mgrwt>
<rscale>  0 0.87713386E+02</rscale>
<asrwt>0</asrwt>
<pdfrwt beam="1">  1        2 0.70149715E-01 0.87713386E+02</pdfrwt>
<pdfrwt beam="2">  1       -2 0.27122867E-02 0.87713386E+02</pdfrwt>
<totfact> 0.30248195E+04</totfact>
</mgrwt>
</event>
<event>
 4    1  0.4844629E-001  0.1253107E+03  0.7546771E-02  0.1234585E+00
         -1   -1    0    0    0  501 -0.00000000000E+00  0.00000000000E+00  0.14434162707E+03  0.14434162707E+03  0.00000000000E+00 0.  1.
          1   -1    0    0  501    0  0.00000000000E+00 -0.00000000000E+00 -0.13103105069E+03  0.13103105069E+03  0.00000000000E+00 0. -1.
         24    1    1    2    0    0  0.51276059868E+02  0.81279172300E+02 -0.50072126261E+02  0.13494432907E+03  0.80419002446E+02 0. -1.
        -24    1    1    2    0    0 -0.51276059868E+02 -0.81279172300E+02  0.63382702641E+02  0.14042834868E+03  0.80419002446E+02 0.  1.
<mgrwt>
<rscale>  0 0.12531065E+03</rscale>
<asrwt>0</asrwt>
<pdfrwt beam="1">  1        1 0.20158623E-01 0.12531066E+03</pdfrwt>
<pdfrwt beam="2">  1       -1 0.22206404E-01 0.12531066E+03</pdfrwt>
<totfact> 0.40938267E+03</totfact>
</mgrwt>
</event>
<event>
 4    1  0.4844629E-001  0.9672390E+02  0.7546771E-02  0.1287340E+00
         -2   -1    0    0    0  501 -0.00000000000E+00  0.00000000000E+00  0.41459358063E+02  0.41459358063E+02  0.00000000000E+00 0.  1.
          2   -1    0    0  501    0  0.00000000000E+00 -0.00000000000E+00 -0.59176078251E+03  0.59176078251E+03  0.00000000000E+00 0. -1.
         24    1    1    2    0    0  0.50846453814E+02  0.17405028920E+02 -0.52418256991E+03  0.53303178090E+03  0.80419002446E+02 0. -1.
        -24    1    1    2    0    0 -0.50846453814E+02 -0.17405028920E+02 -0.26118854537E+02  0.10018835967E+03  0.80419002446E+02 0.  1.
<mgrwt>
<rscale>  0 0.96723900E+02</rscale>
<asrwt>0</asrwt>
<pdfrwt beam="1">  1        2 0.91040117E-01 0.96723900E+02</pdfrwt>
<pdfrwt beam="2">  1       -2 0.63783630E-02 0.96723900E+02</pdfrwt>
<totfact> 0.65077033E+03</totfact>
</mgrwt>
</event>
<event>
 4    1  0.4844629E-001  0.8148407E+02  0.7546771E-02  0.1324892E+00
          1   -1    0    0  501    0  0.00000000000E+00  0.00000000000E+00  0.11308768929E+04  0.11308768929E+04  0.00000000000E+00 0. -1.
         -1   -1    0    0    0  501 -0.00000000000E+00 -0.00000000000E+00 -0.64233407957E+01  0.64233407957E+01  0.00000000000E+00 0.  1.
         24    1    1    2    0    0  0.11181462823E+02 -0.68857158023E+01  0.39551269901E+03  0.40381920364E+03  0.80419002446E+02 0.  0.
        -24    1    1    2    0    0 -0.11181462823E+02  0.68857158023E+01  0.72894085312E+03  0.73348103009E+03  0.80419002446E+02 0. -1.
<mgrwt>
<rscale>  0 0.81484073E+02</rscale>
<asrwt>0</asrwt>
<pdfrwt beam="1">  1        1 0.17398090E+00 0.81484073E+02</pdfrwt>
<pdfrwt beam="2">  1       -1 0.98820717E-03 0.81484073E+02</pdfrwt>
<totfact> 0.22425321E+04</totfact>
</mgrwt>
</event>
<event>
 4    1  0.4844629E-001  0.1236313E+03  0.7546771E-02  0.1237224E+00
          1   -1    0    0  501    0  0.00000000000E+00  0.00000000000E+00  0.18628977325E+04  0.18628977325E+04  0.00000000000E+00 0. -1.
         -1   -1    0    0    0  501 -0.00000000000E+00 -0.00000000000E+00 -0.19628417649E+02  0.19628417649E+02  0.00000000000E+00 0.  1.
         24    1    1    2    0    0 -0.91849334827E+02  0.19524143320E+02  0.20355908343E+03  0.23816172841E+03  0.80419002446E+02 0.  1.
        -24    1    1    2    0    0  0.91849334827E+02 -0.19524143320E+02  0.16397102314E+04  0.16443644217E+04  0.80419002446E+02 0. -1.
<mgrwt>
<rscale>  0 0.12363134E+03</rscale>
<asrwt>0</asrwt>
<pdfrwt beam="1">  1        1 0.28659951E+00 0.12363134E+03</pdfrwt>
<pdfrwt beam="2">  1       -1 0.30197580E-02 0.12363134E+03</pdfrwt>
<totfact> 0.15576308E+03</totfact>
</mgrwt>
</event>
<event>
 4    1  0.4844629E-001  0.1147279E+03  0.7546771E-02  0.1252057E+00
          3   -1    0    0  501    0  0.00000000000E+00  0.00000000000E+00  0.41917728990E+02  0.41917728990E+02  0.00000000000E+00 0. -1.
         -3   -1    0    0    0  501 -0.00000000000E+00 -0.00000000000E+00 -0.44437602256E+03  0.44437602256E+03  0.00000000000E+00 0.  1.
         24    1    1    2    0    0  0.30846243985E+02 -0.75787708857E+02 -0.33292729467E+03  0.35214069216E+03  0.80419002446E+02 0.  1.
        -24    1    1    2    0    0 -0.30846243985E+02  0.75787708857E+02 -0.69530998895E+02  0.13415305939E+03  0.80419002446E+02 0. -1.
<mgrwt>
<rscale>  0 0.11472787E+03</rscale>
<asrwt>0</asrwt>
<pdfrwt beam="1">  1        3 0.64488814E-02 0.11472787E+03</pdfrwt>
<pdfrwt beam="2">  1       -3 0.68365541E-01 0.11472787E+03</pdfrwt>
<totfact> 0.71409186E+02</totfact>
</mgrwt>
</event>
<event>
 4    1  0.4844629E-001  0.9098140E+02  0.7546771E-02  0.1300492E+00
         -1   -1    0    0    0  501 -0.00000000000E+00  0.00000000000E+00  0.79921228916E+03  0.79921228916E+03  0.00000000000E+00 0.  1.
          1   -1    0    0  501    0  0.00000000000E+00 -0.00000000000E+00 -0.10482173738E+02  0.10482173738E+02  0.00000000000E+00 0. -1.
         24    1    1    2    0    0  0.38809832304E+02 -0.17441236836E+02  0.43856725665E+03  0.44790496133E+03  0.80419002446E+02 0.  1.
        -24    1    1    2    0    0 -0.38809832304E+02  0.17441236836E+02  0.35016285877E+03  0.36178950157E+03  0.80419002446E+02 0.  0.
<mgrwt>
<rscale>  0 0.90981403E+02</rscale>
<asrwt>0</asrwt>
<pdfrwt beam="1">  1        1 0.16126427E-02 0.90981403E+02</pdfrwt>
<pdfrwt beam="2">  1       -1 0.12295569E+00 0.90981403E+02</pdfrwt>
<totfact> 0.47375588E+03</totfact>
</mgrwt>
</event>
<event>
 4    1  0.4844629E-001  0.1446869E+03  0.7546771E-02  0.1207158E+00
         -1   -1    0    0    0  501 -0.00000000000E+00  0.00000000000E+00  0.23483245884E+03  0.23483245884E+03  0.00000000000E+00 0.  1.
          1   -1    0    0  501    0  0.00000000000E+00 -0.00000000000E+00 -0.10798579222E+03  0.10798579222E+03  0.00000000000E+00 0. -1.
         24    1    1    2    0    0 -0.10222540673E+03 -0.63380230436E+02  0.13501989566E+03  0.19790067097E+03  0.80419002446E+02 0.  1.
        -24    1    1    2    0    0  0.10222540673E+03  0.63380230436E+02 -0.81732290368E+01  0.14491758009E+03  0.80419002446E+02 0. -1.
<mgrwt>
<rscale>  0 0.14468691E+03</rscale>
<asrwt>0</asrwt>
<pdfrwt beam="1">  1        1 0.16613199E-01 0.14468691E+03</pdfrwt>
<pdfrwt beam="2">  1       -1 0.36128070E-01 0.14468691E+03</pdfrwt>
<totfact> 0.23437675E+03</totfact>
</mgrwt>
</event>
<event>
 4    1  0.4844629E-001  0.8146758E+02  0.7546771E-02  0.1324938E+00
         -1   -1    0    0    0  501 -0.00000000000E+00  0.00000000000E+00  0.92297113924E+02  0.92297113924E+02  0.00000000000E+00 0.  1.
          1   -1    0    0  501    0  0.00000000000E+00 -0.00000000000E+00 -0.77694882031E+02  0.77694882031E+02  0.00000000000E+00 0. -1.
         24    1    1    2    0    0  0.12313542313E+02  0.42576169651E+01  0.30496302434E+02  0.86988453504E+02  0.80419002446E+02 0.  1.
        -24    1    1    2    0    0 -0.12313542313E+02 -0.42576169651E+01 -0.15894070542E+02  0.83003542450E+02  0.80419002446E+02 0.  0.
<mgrwt>
<rscale>  0 0.81467580E+02</rscale>
<asrwt>0</asrwt>
<pdfrwt beam="1">  1        1 0.11953059E-01 0.81467580E+02</pdfrwt>
<pdfrwt beam="2">  1       -1 0.14199556E-01 0.81467580E+02</pdfrwt>
<totfact> 0.15598070E+04</totfact>
</mgrwt>
</event>
<event>
 4    1  0.4844629E-001  0.8120308E+02  0.7546771E-02  0.1325672E+00
         -2   -1    0    0    0  501 -0.00000000000E+00  0.00000000000E+00  0.95693786077E+03  0.95693786077E+03  0.00000000000E+00 0.  1.
          2   -1    0    0  501    0  0.00000000000E+00 -0.00000000000E+00 -0.86341540832E+01  0.86341540832E+01  0.00000000000E+00 0. -1.
         24    1    1    2    0    0  0.86371137433E+01 -0.72197286554E+01  0.25720460802E+03  0.26971865074E+03  0.80419002446E+02 0.  0.
        -24    1    1    2    0    0 -0.86371137433E+01  0.72197286554E+01  0.69109909866E+03  0.69585336411E+03  0.80419002446E+02 0.  1.
<mgrwt>
<rscale>  0 0.81203080E+02</rscale>
<asrwt>0</asrwt>
<pdfrwt beam="1">  1        2 0.13283322E-02 0.81203080E+02</pdfrwt>
<pdfrwt beam="2">  1       -2 0.14722113E+00 0.81203080E+02</pdfrwt>
<totfact> 0.29179602E+03</totfact>
</mgrwt>
</event>
<event>
 4    1  0.4844629E-001  0.1109293E+03  0.7546771E-02  0.1258859E+00
         -1   -1    0    0    0  501 -0.00000000000E+00  0.00000000000E+00  0.50503345345E+02  0.50503345345E+02  0.00000000000E+00 0.  1.
          1   -1    0    0  501    0  0.00000000000E+00 -0.00000000000E+00 -0.42317594029E+03  0.42317594029E+03  0.00000000000E+00 0. -1.
         24    1    1    2    0    0  0.20983753612E+02 -0.73469526506E+02 -0.32076213190E+02  0.11547375740E+03  0.80419002446E+02 0.  1.
        -24    1    1    2    0    0 -0.20983753612E+02  0.73469526506E+02 -0.34059638175E+03  0.35820552823E+03  0.80419002446E+02 0. -1.
<mgrwt>
<rscale>  0 0.11092928E+03</rscale>
<asrwt>0</asrwt>
<pdfrwt beam="1">  1        1 0.65103988E-01 0.11092928E+03</pdfrwt>
<pdfrwt beam="2">  1       -1 0.77697458E-02 0.11092928E+03</pdfrwt>
<totfact> 0.48270669E+03</totfact>
</mgrwt>
</event>
<event>
 4    1  0.4844629E-001  0.9292109E+02  0.7546771E-02  0.1295928E+00
         -1   -1    0    0    0  501 -0.00000000000E+00  0.00000000000E+00  0.10454693788E+02  0.10454693788E+02  0.00000000000E+00 0.  1.
          1   -1    0    0  501    0  0.00000000000E+00 -0.00000000000E+00 -0.15015784466E+04  0.15015784466E+04  0.00000000000E+00 0. -1.
         24    1    1    2    0    0  0.59288890397E+01  0.46173166819E+02 -0.23841522572E+03  0.25588307656E+03  0.80419002446E+02 0.  1.
        -24    1    1    2    0    0 -0.59288890397E+01 -0.46173166819E+02 -0.12527085271E+04  0.12561500638E+04  0.80419002446E+02 0. -1.
<mgrwt>
<rscale>  0 0.92921090E+02</rscale>
<asrwt>0</asrwt>
<pdfrwt beam="1">  1        1 0.23101198E+00 0.92921090E+02</pdfrwt>
<pdfrwt beam="2">  1       -1 0.16084150E-02 0.92921090E+02</pdfrwt>
<totfact> 0.64888782E+03</totfact>
</mgrwt>
</event>
<event>
 4    1  0.4844629E-001  0.8218404E+02  0.7546771E-02  0.1322965E+00
         -2   -1    0    0    0  501 -0.00000000000E+00  0.00000000000E+00  0.12758860675E+03  0.12758860675E+03  0.00000000000E+00 0.  1.
          2   -1    0    0  501    0  0.00000000000E+00 -0.00000000000E+00 -0.53668185349E+03  0.53668185349E+03  0.00000000000E+00 0. -1.
         24    1    1    2    0    0  0.55594156034E+01 -0.16002914458E+02 -0.51987602213E+03  0.52633192447E+03  0.80419002446E+02 0. -1.
        -24    1    1    2    0    0 -0.55594156034E+01  0.16002914458E+02  0.11078277540E+03  0.13793853578E+03  0.80419002446E+02 0.  1.
<mgrwt>
<rscale>  0 0.82184039E+02</rscale>
<asrwt>0</asrwt>
<pdfrwt beam="1">  1        2 0.82566440E-01 0.82184039E+02</pdfrwt>
<pdfrwt beam="2">  1       -2 0.19629016E-01 0.82184039E+02</pdfrwt>
<totfact> 0.12241013E+03</totfact>
</mgrwt>
</event>
<event>
 4    1  0.4844629E-001  0.8166088E+02  0.7546771E-02  0.1324403E+00
          2   -1    0    0  501    0  0.00000000000E+00  0.00000000000E+00  0.27987997599E+03  0.27987997599E+03  0.00000000000E+00 0. -1.
         -2   -1    0    0    0  501 -0.00000000000E+00 -0.00000000000E+00 -0.24437084048E+02  0.24437084048E+02  0.00000000000E+00 0.  1.
         24    1    1    2    0    0 -0.10945023972E+02 -0.90271868140E+01  0.15177733339E+03  0.17235097487E+03  0.80419002446E+02 0. -1.
        -24    1    1    2    0    0  0.10945023972E+02  0.90271868140E+01  0.10366555855E+03  0.13196608517E+03  0.80419002446E+02 0.  1.
<mgrwt>
<rscale>  0 0.81660882E+02</rscale>
<asrwt>0</asrwt>
<pdfrwt beam="1">  1        2 0.43058456E-01 0.81660882E+02</pdfrwt>
<pdfrwt beam="2">  1       -2 0.37595516E-02 0.81660882E+02</pdfrwt>
<totfact> 0.31101187E+04</totfact>
</mgrwt>
</event>
<event>
 4    1  0.4844629E-001  0.8071362E+02  0.7546771E-02  0.1327038E+00
          3   -1    0    0  501    0  0.00000000000E+00  0.00000000000E+00  0.32120059279E+02  0.32120059279E+02  0.00000000000E+00 0. -1.
         -3   -1    0    0    0  501 -0.00000000000E+00 -0.00000000000E+00 -0.64576622148E+03  0.64576622148E+03  0.00000000000E+00 0.  1.
         24    1    1    2    0    0 -0.54995752506E+01  0.41504680027E+01 -0.58753651914E+03  0.59305467622E+03  0.80419002446E+02 0.  1.
        -24    1    1    2    0    0  0.54995752506E+01 -0.41504680027E+01 -0.26109643058E+02  0.84831604532E+02  0.80419002446E+02 0. -1.
<mgrwt>
<rscale>  0 0.80713615E+02</rscale>
<asrwt>0</asrwt>
<pdfrwt beam="1">  1        3 0.49415480E-02 0.80713615E+02</pdfrwt>
<pdfrwt beam="2">  1       -3 0.99348642E-01 0.80713615E+02</pdfrwt>
<totfact> 0.45590767E+02</totfact>
</mgrwt>
</event>
<event>
 4    1  0.4844629E-001  0.8529527E+02  0.7546771E-02  0.1314662E+00
          4   -1    0    0  501    0  0.00000000000E+00  0.00000000000E+00  0.16144354611E+02  0.16144354611E+02  0.00000000000E+00 0. -1.
         -4   -1    0    0    0  501 -0.00000000000E+00 -0.00000000000E+00 -0.49047999972E+03  0.49047999972E+03  0.00000000000E+00 0.  1.
         24    1    1    2    0    0 -0.11943688020E+02  0.25795649389E+02 -0.16497266819E+03  0.18571823932E+03  0.80419002446E+02 0.  0.
        -24    1    1    2    0    0  0.11943688020E+02 -0.25795649389E+02 -0.30936297692E+03  0.32090611501E+03  0.80419002446E+02 0.  0.
<mgrwt>
<rscale>  0 0.85295270E+02</rscale>
<asrwt>0</asrwt>
<pdfrwt beam="1">  1        4 0.24837465E-02 0.85295270E+02</pdfrwt>
<pdfrwt beam="2">  1       -4 0.75458472E-01 0.85295270E+02</pdfrwt>
<totfact> 0.17270789E+03</totfact>
</mgrwt>
</event>
<event>
 4    1  0.4844629E-001  0.1019802E+03  0.7546771E-02  0.1276186E+00
          1   -1    0    0  501    0  0.00000000000E+00  0.00000000000E+00  0.11415155226E+04  0.11415155226E+04  0.00000000000E+00 0. -1.
         -1   -1    0    0    0  501 -0.00000000000E+00 -0.00000000000E+00 -0.12384715503E+02  0.12384715503E+02  0.00000000000E+00 0.  1.
         24    1    1    2    0    0  0.42792579438E+02  0.45842652628E+02  0.26791994808E+03  0.28667240570E+03  0.80419002446E+02 0.  1.
        -24    1    1    2    0    0 -0.42792579438E+02 -0.45842652628E+02  0.86121085898E+03  0.86722783236E+03  0.80419002446E+02 0. -1.
<mgrwt>
<rscale>  0 0.10198024E+03</rscale>
<asrwt>0</asrwt>
<pdfrwt beam="1">  1        1 0.17561769E+00 0.10198024E+03</pdfrwt>
<pdfrwt beam="2">  1       -1 0.19053417E-02 0.10198024E+03</pdfrwt>
<totfact> 0.88430802E+03</totfact>
</mgrwt>
</event>
<event>
 4    1  0.4844629E-001  0.1046408E+03  0.7546771E-02  0.1270829E+00
         -2   -1    0    0    0  501 -0.00000000000E+00  0.00000000000E+00  0.84496587688E+01  0.84496587688E+01  0.00000000000E+00 0.  1.
          2   -1    0    0  501    0  0.00000000000E+00 -0.00000000000E+00 -0.23801288164E+04  0.23801288164E+04  0.00000000000E+00 0. -1.
         24    1    1    2    0    0  0.42204815314E+02  0.51973400493E+02 -0.19919135194E+04  0.19946601629E+04  0.80419002446E+02 0.  0.
        -24    1    1    2    0    0 -0.42204815314E+02 -0.51973400493E+02 -0.37976563825E+03  0.39391831227E+03  0.80419002446E+02 0. -1.
<mgrwt>
<rscale>  0 0.10464080E+03</rscale>
<asrwt>0</asrwt>
<pdfrwt beam="1">  1        2 0.36617350E+00 0.10464080E+03</pdfrwt>
<pdfrwt beam="2">  1       -2 0.12999481E-02 0.10464080E+03</pdfrwt>
<totfact> 0.67152145E+03</totfact>
</mgrwt>
</event>
<event>
 4    1  0.4844629E-001  0.9055777E+02  0.7546771E-02  0.1301507E+00
          2   -1    0    0  501    0  0.00000000000E+00  0.00000000000E+00  0.12071606067E+04  0.12071606067E+04  0.00000000000E+00 0. -1.
         -2   -1    0    0    0  501 -0.00000000000E+00 -0.00000000000E+00 -0.70573846784E+01  0.70573846784E+01  0.00000000000E+00 0.  1.
         24    1    1    2    0    0 -0.19420262278E+02  0.36828615106E+02  0.71747230691E+03  0.72316472578E+03  0.80419002446E+02 0. -1.
        -24    1    1    2    0    0  0.19420262278E+02 -0.36828615106E+02  0.48263091511E+03  0.49105326560E+03  0.80419002446E+02 0.  1.
<mgrwt>
<rscale>  0 0.90557768E+02</rscale>
<asrwt>0</asrwt>
<pdfrwt beam="1">  1        2 0.18571685E+00 0.90557768E+02</pdfrwt>
<pdfrwt beam="2">  1       -2 0.10857525E-02 0.90557768E+02</pdfrwt>
<totfact> 0.34308529E+04</totfact>
</mgrwt>
</event>
<event>
 4    1  0.4844629E-001  0.8070541E+02  0.7546771E-02  0.1327061E+00
          2   -1    0    0  501    0  0.00000000000E+00  0.00000000000E+00  0.10084171718E+04  0.10084171718E+04  0.00000000000E+00 0. -1.
         -2   -1    0    0    0  501 -0.00000000000E+00 -0.00000000000E+00 -0.95090558130E+01  0.95090558130E+01  0.00000000000E+00 0.  1.
         24    1    1    2    0    0 -0.16217200454E+01 -0.65967551284E+01  0.78770566958E+03  0.79182926506E+03  0.80419002446E+02 0. -1.
        -24    1    1    2    0    0  0.16217200454E+01  0.65967551284E+01  0.21120244636E+03  0.22609696251E+03  0.80419002446E+02 0.  0.
<mgrwt>
<rscale>  0 0.80705409E+02</rscale>
<asrwt>0</asrwt>
<pdfrwt beam="1">  1        2 0.15514102E+00 0.80705409E+02</pdfrwt>
<pdfrwt beam="2">  1       -2 0.14629325E-02 0.80705409E+02</pdfrwt>
<totfact> 0.28704239E+04</totfact>
</mgrwt>
</event>
<event>
 4    1  0.4844629E-001  0.8443879E+02  0.7546771E-02  0.1316907E+00
         -2   -1    0    0    0  501 -0.00000000000E+00  0.00000000000E+00  0.23023673562E+02  0.23023673562E+02  0.00000000000E+00 0.  1.
          2   -1    0    0  501    0  0.00000000000E+00 -0.00000000000E+00 -0.68516035279E+03  0.68516035279E+03  0.00000000000E+00 0. -1.
         24    1    1    2    0    0 -0.37565670390E+01  0.25467263888E+02 -0.59319740771E+03  0.59917699705E+03  0.80419002446E+02 0. -1.
        -24    1    1    2    0    0  0.37565670390E+01 -0.25467263888E+02 -0.68939271525E+02  0.10900702931E+03  0.80419002446E+02 0.  1.
<mgrwt>
<rscale>  0 0.84438790E+02</rscale>
<asrwt>0</asrwt>
<pdfrwt beam="1">  1        2 0.10540929E+00 0.84438790E+02</pdfrwt>
<pdfrwt beam="2">  1       -2 0.35421034E-02 0.84438790E+02</pdfrwt>
<totfact> 0.13045537E+04</totfact>
</mgrwt>
</event>
<event>
 4    1  0.4844629E-001  0.1768040E+03  0.7546771E-02  0.1170932E+00
          2   -1    0    0  501    0  0.00000000000E+00  0.00000000000E+00  0.10465705808E+03  0.10465705808E+03  0.00000000000E+00 0. -1.
         -2   -1    0    0    0  501 -0.00000000000E+00 -0.00000000000E+00 -0.34186403401E+03  0.34186403401E+03  0.00000000000E+00 0.  1.
         24    1    1    2    0    0  0.10398756987E+03  0.11823293652E+03 -0.39259535431E+02  0.18111037807E+03  0.80419002446E+02 0. -1.
        -24    1    1    2    0    0 -0.10398756987E+03 -0.11823293652E+03 -0.19794744050E+03  0.26541071403E+03  0.80419002446E+02 0.  1.
<mgrwt>
<rscale>  0 0.17680401E+03</rscale>
<asrwt>0</asrwt>
<pdfrwt beam="1">  1        2 0.16101086E-01 0.17680401E+03</pdfrwt>
<pdfrwt beam="2">  1       -2 0.52594467E-01 0.17680401E+03</pdfrwt>
<totfact> 0.12254703E+03</totfact>
</mgrwt>
</event>
<event>
 4    1  0.4844629E-001  0.9929491E+02  0.7546771E-02  0.1281786E+00
          2   -1    0    0  501    0  0.00000000000E+00  0.00000000000E+00  0.23719005249E+03  0.23719005249E+03  0.00000000000E+00 0. -1.
         -2   -1    0    0    0  501 -0.00000000000E+00 -0.00000000000E+00 -0.75613033262E+02  0.75613033262E+02  0.00000000000E+00 0.  1.
         24    1    1    2    0    0 -0.44206778171E+02  0.37921284729E+02  0.18573564320E+03  0.21061151008E+03  0.80419002446E+02 0. -1.
        -24    1    1    2    0    0  0.44206778171E+02 -0.37921284729E+02 -0.24158623966E+02  0.10219157567E+03  0.80419002446E+02 0.  1.
<mgrwt>
<rscale>  0 0.99294909E+02</rscale>
<asrwt>0</asrwt>
<pdfrwt beam="1">  1        2 0.36490777E-01 0.99294909E+02</pdfrwt>
<pdfrwt beam="2">  1       -2 0.11632774E-01 0.99294909E+02</pdfrwt>
<totfact> 0.68309572E+03</totfact>
</mgrwt>
</event>
<event>
 4    1  0.4844629E-001  0.9178633E+02  0.7546771E-02  0.1298583E+00
         -1   -1    0    0    0  501 -0.00000000000E+00  0.00000000000E+00  0.60987876294E+01  0.60987876294E+01  0.00000000000E+00 0.  1.
          1   -1    0    0  501    0  0.00000000000E+00 -0.00000000000E+00 -0.27056667190E+04  0.27056667190E+04  0.00000000000E+00 0. -1.
         24    1    1    2    0    0 -0.28638242091E+02  0.33724854940E+02 -0.40119878408E+03  0.41156432674E+03  0.80419002446E+02 0.  1.
        -24    1    1    2    0    0  0.28638242091E+02 -0.33724854940E+02 -0.22983691473E+04  0.23002011799E+04  0.80419002446E+02 0. -1.
<mgrwt>
<rscale>  0 0.91786332E+02</rscale>
<asrwt>0</asrwt>
<pdfrwt beam="1">  1        1 0.41625763E+00 0.91786332E+02</pdfrwt>
<pdfrwt beam="2">  1       -1 0.93827229E-03 0.91786332E+02</pdfrwt>
<totfact> 0.23925376E+03</totfact>
</mgrwt>
</event>
<event>
 4    1  0.4844629E-001  0.8784010E+02  0.7546771E-02  0.1308168E+00
         -2   -1    0    0    0  501 -0.00000000000E+00  0.00000000000E+00  0.22452753868E+02  0.22452753868E+02  0.00000000000E+00 0.  1.
          2   -1    0    0  501    0  0.00000000000E+00 -0.00000000000E+00 -0.41626809573E+03  0.41626809573E+03  0.00000000000E+00 0. -1.
         24    1    1    2    0    0  0.83587745152E+01 -0.34333626913E+02 -0.28852864916E+03  0.30160348869E+03  0.80419002446E+02 0. -1.
        -24    1    1    2    0    0 -0.83587745152E+01  0.34333626913E+02 -0.10528669270E+03  0.13711736091E+03  0.80419002446E+02 0.  1.
<mgrwt>
<rscale>  0 0.87840099E+02</rscale>
<asrwt>0</asrwt>
<pdfrwt beam="1">  1        2 0.64041245E-01 0.87840099E+02</pdfrwt>
<pdfrwt beam="2">  1       -2 0.34542699E-02 0.87840099E+02</pdfrwt>
<totfact> 0.23444006E+04</totfact>
</mgrwt>
</event>
<event>
 4    1  0.4844629E-001  0.9450974E+02  0.7546771E-02  0.1292284E+00
         -2   -1    0    0    0  501 -0.00000000000E+00  0.00000000000E+00  0.99131301097E+01  0.99131301097E+01  0.00000000000E+00 0.  1.
          2   -1    0    0  501    0  0.00000000000E+00 -0.00000000000E+00 -0.10155597141E+04  0.10155597141E+04  0.00000000000E+00 0. -1.
         24    1    1    2    0    0 -0.23453955486E+02  0.43758273371E+02 -0.67500559157E+03  0.68158978801E+03  0.80419002446E+02 0. -1.
        -24    1    1    2    0    0  0.23453955486E+02 -0.43758273371E+02 -0.33064099239E+03  0.34388305616E+03  0.80419002446E+02 0.  1.
<mgrwt>
<rscale>  0 0.94509737E+02</rscale>
<asrwt>0</asrwt>
<pdfrwt beam="1">  1        2 0.15623992E+00 0.94509737E+02</pdfrwt>
<pdfrwt beam="2">  1       -2 0.15250973E-02 0.94509737E+02</pdfrwt>
<totfact> 0.27200776E+04</totfact>
</mgrwt>
</event>
<event>
 4    1  0.4844629E-001  0.8581100E+02  0.7546771E-02  0.1313325E+00
         -3   -1    0    0    0  501 -0.00000000000E+00  0.00000000000E+00  0.71777673390E+02  0.71777673390E+02  0.00000000000E+00 0.  1.
          3   -1    0    0  501    0  0.00000000000E+00 -0.00000000000E+00 -0.38209386928E+03  0.38209386928E+03  0.00000000000E+00 0. -1.
         24    1    1    2    0    0 -0.60979766958E+01 -0.29310850578E+02  0.38936477159E+02  0.94231504760E+02  0.80419002446E+02 0.  1.
        -24    1    1    2    0    0  0.60979766958E+01  0.29310850578E+02 -0.34925267305E+03  0.35964003791E+03  0.80419002446E+02 0. -1.
<mgrwt>
<rscale>  0 0.85810997E+02</rscale>
<asrwt>0</asrwt>
<pdfrwt beam="1">  1        3 0.58783674E-01 0.85810997E+02</pdfrwt>
<pdfrwt beam="2">  1       -3 0.11042719E-01 0.85810997E+02</pdfrwt>
<totfact> 0.38904807E+02</totfact>
</mgrwt>
</event>
<event>
 4    1  0.4844629E-001  0.9506716E+02  0.7546771E-02  0.1291025E+00
         -1   -1    0    0    0  501 -0.00000000000E+00  0.00000000000E+00  0.22343043264E+03  0.22343043264E+03  0.00000000000E+00 0.  1.
          1   -1    0    0  501    0  0.00000000000E+00 -0.00000000000E+00 -0.48424483859E+02  0.48424483859E+02  0.00000000000E+00 0. -1.
         24    1    1    2    0    0  0.64607785288E+01 -0.50287251703E+02  0.14266312760E+03  0.17143667424E+03  0.80419002446E+02 0.  1.
        -24    1    1    2    0    0 -0.64607785288E+01  0.50287251703E+02  0.32342821188E+02  0.10041824227E+03  0.80419002446E+02 0. -1.
<mgrwt>
<rscale>  0 0.95067162E+02</rscale>
<asrwt>0</asrwt>
<pdfrwt beam="1">  1        1 0.74499207E-02 0.95067162E+02</pdfrwt>
<pdfrwt beam="2">  1       -1 0.34373912E-01 0.95067162E+02</pdfrwt>
<totfact> 0.71119635E+03</totfact>
</mgrwt>
</event>
<event>
 4    1  0.4844629E-001  0.8472938E+02  0.7546771E-02  0.1316142E+00
         -1   -1    0    0    0  501 -0.00000000000E+00  0.00000000000E+00  0.11064063895E+02  0.11064063895E+02  0.00000000000E+00 0.  1.
          1   -1    0    0  501    0  0.00000000000E+00 -0.00000000000E+00 -0.13827350100E+04  0.13827350100E+04  0.00000000000E+00 0. -1.
         24    1    1    2    0    0 -0.24277135926E+02  0.11066725297E+02 -0.17813134110E+03  0.19725577906E+03  0.80419002446E+02 0.  1.
        -24    1    1    2    0    0  0.24277135926E+02 -0.11066725297E+02 -0.11935396050E+04  0.11965432948E+04  0.80419002446E+02 0. -1.
<mgrwt>
<rscale>  0 0.84729379E+02</rscale>
<asrwt>0</asrwt>
<pdfrwt beam="1">  1        1 0.21272829E+00 0.84729379E+02</pdfrwt>
<pdfrwt beam="2">  1       -1 0.17021651E-02 0.84729379E+02</pdfrwt>
<totfact> 0.71052147E+03</totfact>
</mgrwt>
</event>
<event>
 4    1  0.4844629E-001  0.8144166E+02  0.7546771E-02  0.1325009E+00
          4   -1    0    0  501    0  0.00000000000E+00  0.00000000000E+00  0.26034377885E+03  0.26034377885E+03  0.00000000000E+00 0. -1.
         -4   -1    0    0    0  501 -0.00000000000E+00 -0.00000000000E+00 -0.27578041282E+03  0.27578041282E+03  0.00000000000E+00 0.  1.
         24    1    1    2    0    0 -0.12581104299E+02  0.26913749031E+01  0.24766187063E+03  0.26070892927E+03  0.80419002446E+02 0. -1.
        -24    1    1    2    0    0  0.12581104299E+02 -0.26913749031E+01 -0.26309850460E+03  0.27541526240E+03  0.80419002446E+02 0.  1.
<mgrwt>
<rscale>  0 0.81441658E+02</rscale>
<asrwt>0</asrwt>
<pdfrwt beam="1">  1        4 0.40052889E-01 0.81441658E+02</pdfrwt>
<pdfrwt beam="2">  1       -4 0.42427756E-01 0.81441658E+02</pdfrwt>
<totfact> 0.50752326E+01</totfact>
</mgrwt>
</event>
<event>
 4    1  0.4844629E-001  0.1039237E+03  0.7546771E-02  0.1272255E+00
         -2   -1    0    0    0  501 -0.00000000000E+00  0.00000000000E+00  0.30371821631E+01  0.30371821631E+01  0.00000000000E+00 0.  1.
          2   -1    0    0  501    0  0.00000000000E+00 -0.00000000000E+00 -0.37102793651E+04  0.37102793651E+04  0.00000000000E+00 0. -1.
         24    1    1    2    0    0  0.51158832704E+02  0.41420925783E+02 -0.22322569814E+04  0.22346747786E+04  0.80419002446E+02 0. -1.
        -24    1    1    2    0    0 -0.51158832704E+02 -0.41420925783E+02 -0.14749852016E+04  0.14786417687E+04  0.80419002446E+02 0.  1.
<mgrwt>
<rscale>  0 0.10392370E+03</rscale>
<asrwt>0</asrwt>
<pdfrwt beam="1">  1        2 0.57081275E+00 0.10392370E+03</pdfrwt>
<pdfrwt beam="2">  1       -2 0.46725835E-03 0.10392370E+03</pdfrwt>
<totfact> 0.47648565E+03</totfact>
</mgrwt>
</event>
<event>
 4    1  0.4844629E-001  0.8284561E+02  0.7546771E-02  0.1321165E+00
          2   -1    0    0  501    0  0.00000000000E+00  0.00000000000E+00  0.15126385117E+04  0.15126385117E+04  0.00000000000E+00 0. -1.
         -2   -1    0    0    0  501 -0.00000000000E+00 -0.00000000000E+00 -0.12265145281E+02  0.12265145281E+02  0.00000000000E+00 0.  1.
         24    1    1    2    0    0 -0.64597778691E+01  0.18826855203E+02  0.13553929344E+04  0.13579224580E+04  0.80419002446E+02 0. -1.
        -24    1    1    2    0    0  0.64597778691E+01 -0.18826855203E+02  0.14498043195E+03  0.16698119897E+03  0.80419002446E+02 0.  1.
<mgrwt>
<rscale>  0 0.82845610E+02</rscale>
<asrwt>0</asrwt>
<pdfrwt beam="1">  1        2 0.23271347E+00 0.82845610E+02</pdfrwt>
<pdfrwt beam="2">  1       -2 0.18869466E-02 0.82845610E+02</pdfrwt>
<totfact> 0.10746631E+04</totfact>
</mgrwt>
</event>
<event>
 4    1  0.4844629E-001  0.1007840E+03  0.7546771E-02  0.1278656E+00
          1   -1    0    0  501    0  0.00000000000E+00  0.00000000000E+00  0.84671401313E+03  0.84671401313E+03  0.00000000000E+00 0. -1.
         -1   -1    0    0    0  501 -0.00000000000E+00 -0.00000000000E+00 -0.12293010799E+02  0.12293010799E+02  0.00000000000E+00 0.  1.
         24    1    1    2    0    0 -0.38973928487E+02  0.46596523728E+02  0.48394006675E+03  0.49432318101E+03  0.80419002446E+02 0.  1.
        -24    1    1    2    0    0  0.38973928487E+02 -0.46596523728E+02  0.35048093559E+03  0.36468384292E+03  0.80419002446E+02 0. -1.
<mgrwt>
<rscale>  0 0.10078403E+03</rscale>
<asrwt>0</asrwt>
<pdfrwt beam="1">  1        1 0.13026365E+00 0.10078405E+03</pdfrwt>
<pdfrwt beam="2">  1       -1 0.18912331E-02 0.10078405E+03</pdfrwt>
<totfact> 0.14643015E+04</totfact>
</mgrwt>
</event>
<event>
 4    1  0.4844629E-001  0.2139316E+03  0.7546771E-02  0.1138490E+00
          2   -1    0    0  501    0  0.00000000000E+00  0.00000000000E+00  0.18969270854E+04  0.18969270854E+04  0.00000000000E+00 0. -1.
         -2   -1    0    0    0  501 -0.00000000000E+00 -0.00000000000E+00 -0.26274638570E+02  0.26274638570E+02  0.00000000000E+00 0.  1.
         24    1    1    2    0    0 -0.43254620443E+01 -0.19819388076E+03  0.12102608519E+04  0.12290232177E+04  0.80419002446E+02 0. -1.
        -24    1    1    2    0    0  0.43254620443E+01  0.19819388076E+03  0.66039159491E+03  0.69417850628E+03  0.80419002446E+02 0.  1.
<mgrwt>
<rscale>  0 0.21393162E+03</rscale>
<asrwt>0</asrwt>
<pdfrwt beam="1">  1        2 0.29183483E+00 0.21393162E+03</pdfrwt>
<pdfrwt beam="2">  1       -2 0.40422536E-02 0.21393162E+03</pdfrwt>
<totfact> 0.22818248E+03</totfact>
</mgrwt>
</event>
<event>
 4    1  0.4844629E-001  0.8546763E+02  0.7546771E-02  0.1314214E+00
         -1   -1    0    0    0  501 -0.00000000000E+00  0.00000000000E+00  0.32339846546E+01  0.32339846546E+01  0.00000000000E+00 0.  1.
          1   -1    0    0  501    0  0.00000000000E+00 -0.00000000000E+00 -0.23725346269E+04  0.23725346269E+04  0.00000000000E+00 0. -1.
         24    1    1    2    0    0 -0.27114730974E+02  0.10113728761E+02 -0.14448097672E+04  0.14473354744E+04  0.80419002446E+02 0.  0.
        -24    1    1    2    0    0  0.27114730974E+02 -0.10113728761E+02 -0.92449087509E+03  0.92843313718E+03  0.80419002446E+02 0.  0.
<mgrwt>
<rscale>  0 0.85467619E+02</rscale>
<asrwt>0</asrwt>
<pdfrwt beam="1">  1        1 0.36500688E+00 0.85467630E+02</pdfrwt>
<pdfrwt beam="2">  1       -1 0.49753398E-03 0.85467630E+02</pdfrwt>
<totfact> 0.95444816E+03</totfact>
</mgrwt>
</event>
<event>
 4    1  0.4844629E-001  0.9600376E+02  0.7546771E-02  0.1288931E+00
         -2   -1    0    0    0  501 -0.00000000000E+00  0.00000000000E+00  0.42212521229E+01  0.42212521229E+01  0.00000000000E+00 0.  1.
          2   -1    0    0  501    0  0.00000000000E+00 -0.00000000000E+00 -0.30355229655E+04  0.30355229655E+04  0.00000000000E+00 0. -1.
         24    1    1    2    0    0  0.26833095243E+02 -0.45049822099E+02 -0.71038502225E+03  0.71684279815E+03  0.80419002446E+02 0.  1.
        -24    1    1    2    0    0 -0.26833095243E+02  0.45049822099E+02 -0.23209166912E+04  0.23229014195E+04  0.80419002446E+02 0. -1.
<mgrwt>
<rscale>  0 0.96003749E+02</rscale>
<asrwt>0</asrwt>
<pdfrwt beam="1">  1        2 0.46700295E+00 0.96003761E+02</pdfrwt>
<pdfrwt beam="2">  1       -2 0.64942421E-03 0.96003761E+02</pdfrwt>
<totfact> 0.78853208E+03</totfact>
</mgrwt>
</event>
<event>
 4    1  0.4844629E-001  0.9726856E+02  0.7546771E-02  0.1286147E+00
          2   -1    0    0  501    0  0.00000000000E+00  0.00000000000E+00  0.76441068947E+02  0.76441068947E+02  0.00000000000E+00 0. -1.
         -2   -1    0    0    0  501 -0.00000000000E+00 -0.00000000000E+00 -0.14082181618E+03  0.14082181618E+03  0.00000000000E+00 0.  1.
         24    1    1    2    0    0  0.50395307238E+02 -0.21313585990E+02  0.56099719247E+01  0.97430199008E+02  0.80419002446E+02 0. -1.
        -24    1    1    2    0    0 -0.50395307238E+02  0.21313585990E+02 -0.69990719154E+02  0.11983268611E+03  0.80419002446E+02 0.  1.
<mgrwt>
<rscale>  0 0.97268556E+02</rscale>
<asrwt>0</asrwt>
<pdfrwt beam="1">  1        2 0.11760165E-01 0.97268556E+02</pdfrwt>
<pdfrwt beam="2">  1       -2 0.21664895E-01 0.97268556E+02</pdfrwt>
<totfact> 0.87588049E+03</totfact>
</mgrwt>
</event>
<event>
 4    1  0.4844629E-001  0.9016331E+02  0.7546771E-02  0.1302457E+00
          1   -1    0    0  501    0  0.00000000000E+00  0.00000000000E+00  0.20378730346E+04  0.20378730346E+04  0.00000000000E+00 0. -1.
         -1   -1    0    0    0  501 -0.00000000000E+00 -0.00000000000E+00 -0.65829496692E+01  0.65829496692E+01  0.00000000000E+00 0.  1.
         24    1    1    2    0    0 -0.40075458588E+02 -0.74942544091E+01  0.37398642063E+03  0.38470152716E+03  0.80419002446E+02 0.  1.
        -24    1    1    2    0    0  0.40075458588E+02  0.74942544091E+01  0.16573036643E+04  0.16597544571E+04  0.80419002446E+02 0. -1.
<mgrwt>
<rscale>  0 0.90163308E+02</rscale>
<asrwt>0</asrwt>
<pdfrwt beam="1">  1        1 0.31351843E+00 0.90163308E+02</pdfrwt>
<pdfrwt beam="2">  1       -1 0.10127631E-02 0.90163308E+02</pdfrwt>
<totfact> 0.57366661E+03</totfact>
</mgrwt>
</event>
<event>
 4    1  0.4844629E-001  0.8833679E+02  0.7546771E-02  0.1306930E+00
         -1   -1    0    0    0  501 -0.00000000000E+00  0.00000000000E+00  0.46228955570E+02  0.46228955570E+02  0.00000000000E+00 0.  1.
          1   -1    0    0  501    0  0.00000000000E+00 -0.00000000000E+00 -0.20543415271E+03  0.20543415271E+03  0.00000000000E+00 0. -1.
         24    1    1    2    0    0 -0.86304048611E+01 -0.35520248494E+02 -0.26464748182E+02  0.92215892295E+02  0.80419002446E+02 0. -1.
        -24    1    1    2    0    0  0.86304048611E+01  0.35520248494E+02 -0.13274044896E+03  0.15944721598E+03  0.80419002446E+02 0.  1.
<mgrwt>
<rscale>  0 0.88336787E+02</rscale>
<asrwt>0</asrwt>
<pdfrwt beam="1">  1        1 0.31605254E-01 0.88336787E+02</pdfrwt>
<pdfrwt beam="2">  1       -1 0.71121470E-02 0.88336787E+02</pdfrwt>
<totfact> 0.13163285E+04</totfact>
</mgrwt>
</event>
<event>
 4    1  0.4844629E-001  0.9826789E+02  0.7546771E-02  0.1283981E+00
          2   -1    0    0  501    0  0.00000000000E+00  0.00000000000E+00  0.19235753095E+04  0.19235753095E+04  0.00000000000E+00 0. -1.
         -2   -1    0    0    0  501 -0.00000000000E+00 -0.00000000000E+00 -0.58331818809E+01  0.58331818809E+01  0.00000000000E+00 0.  1.
         24    1    1    2    0    0 -0.46275076376E+02  0.32372513971E+02  0.13190375597E+04  0.13226929584E+04  0.80419002446E+02 0.  1.
        -24    1    1    2    0    0  0.46275076376E+02 -0.32372513971E+02  0.59870456784E+03  0.60671553290E+03  0.80419002446E+02 0.  0.
<mgrwt>
<rscale>  0 0.98267891E+02</rscale>
<asrwt>0</asrwt>
<pdfrwt beam="1">  1        2 0.29593416E+00 0.98267891E+02</pdfrwt>
<pdfrwt beam="2">  1       -2 0.89741414E-03 0.98267891E+02</pdfrwt>
<totfact> 0.19399849E+04</totfact>
</mgrwt>
</event>
<event>
 4    1  0.4844629E-001  0.8098271E+02  0.7546771E-02  0.1326286E+00
         -4   -1    0    0    0  501 -0.00000000000E+00  0.00000000000E+00  0.33812786072E+03  0.33812786072E+03  0.00000000000E+00 0.  1.
          4   -1    0    0  501    0  0.00000000000E+00 -0.00000000000E+00 -0.36169555976E+02  0.36169555976E+02  0.00000000000E+00 0. -1.
         24    1    1    2    0    0  0.38789324322E+01 -0.87142141939E+01  0.23531238238E+02  0.84332192982E+02  0.80419002446E+02 0. -1.
        -24    1    1    2    0    0 -0.38789324322E+01  0.87142141939E+01  0.27842706651E+03  0.28996522371E+03  0.80419002446E+02 0.  0.
<mgrwt>
<rscale>  0 0.80982712E+02</rscale>
<asrwt>0</asrwt>
<pdfrwt beam="1">  1        4 0.55645473E-02 0.80982712E+02</pdfrwt>
<pdfrwt beam="2">  1       -4 0.52019669E-01 0.80982712E+02</pdfrwt>
<totfact> 0.10488923E+03</totfact>
</mgrwt>
</event>
<event>
 4    1  0.4844629E-001  0.1088540E+03  0.7546771E-02  0.1262707E+00
         -1   -1    0    0    0  501 -0.00000000000E+00  0.00000000000E+00  0.18809826764E+04  0.18809826764E+04  0.00000000000E+00 0.  1.
          1   -1    0    0  501    0  0.00000000000E+00 -0.00000000000E+00 -0.66776818382E+01  0.66776818382E+01  0.00000000000E+00 0. -1.
         24    1    1    2    0    0 -0.71148407143E+02 -0.17885139495E+02  0.11617731877E+04  0.11668616583E+04  0.80419002446E+02 0. -1.
        -24    1    1    2    0    0  0.71148407143E+02  0.17885139495E+02  0.71253180687E+03  0.72079869992E+03  0.80419002446E+02 0.  1.
<mgrwt>
<rscale>  0 0.10885398E+03</rscale>
<asrwt>0</asrwt>
<pdfrwt beam="1">  1        1 0.10273372E-02 0.10885398E+03</pdfrwt>
<pdfrwt beam="2">  1       -1 0.28938153E+00 0.10885398E+03</pdfrwt>
<totfact> 0.68892554E+02</totfact>
</mgrwt>
</event>
<event>
 4    1  0.4844629E-001  0.3655898E+03  0.7546771E-02  0.1056392E+00
          1   -1    0    0  501    0  0.00000000000E+00  0.00000000000E+00  0.41846967919E+03  0.41846967919E+03  0.00000000000E+00 0. -1.
         -1   -1    0    0    0  501 -0.00000000000E+00 -0.00000000000E+00 -0.32222598721E+03  0.32222598721E+03  0.00000000000E+00 0.  1.
         24    1    1    2    0    0  0.25841082167E+03  0.24578954561E+03  0.82853715768E+02  0.37486078437E+03  0.80419002446E+02 0.  1.
        -24    1    1    2    0    0 -0.25841082167E+03 -0.24578954561E+03  0.13389976207E+02  0.36583488203E+03  0.80419002446E+02 0. -1.
<mgrwt>
<rscale>  0 0.36558980E+03</rscale>
<asrwt>0</asrwt>
<pdfrwt beam="1">  1        1 0.64379951E-01 0.36558985E+03</pdfrwt>
<pdfrwt beam="2">  1       -1 0.49573229E-01 0.36558985E+03</pdfrwt>
<totfact> 0.23853603E+02</totfact>
</mgrwt>
</event>
<event>
 4    1  0.4844629E-001  0.1673235E+03  0.7546771E-02  0.1180668E+00
          2   -1    0    0  501    0  0.00000000000E+00  0.00000000000E+00  0.72293893706E+03  0.72293893706E+03  0.00000000000E+00 0. -1.
         -2   -1    0    0    0  501 -0.00000000000E+00 -0.00000000000E+00 -0.52039679916E+02  0.52039679916E+02  0.00000000000E+00 0.  1.
         24    1    1    2    0    0  0.12900653896E+03  0.69908812215E+02  0.53143681056E+03  0.55715547982E+03  0.80419002446E+02 0.  1.
        -24    1    1    2    0    0 -0.12900653896E+03 -0.69908812215E+02  0.13946244659E+03  0.21782313716E+03  0.80419002446E+02 0. -1.
<mgrwt>
<rscale>  0 0.16732347E+03</rscale>
<asrwt>0</asrwt>
<pdfrwt beam="1">  1        2 0.11122137E+00 0.16732347E+03</pdfrwt>
<pdfrwt beam="2">  1       -2 0.80061051E-02 0.16732347E+03</pdfrwt>
<totfact> 0.37401781E+03</totfact>
</mgrwt>
</event>
<event>
 4    1  0.4844629E-001  0.8707835E+02  0.7546771E-02  0.1310085E+00
         -2   -1    0    0    0  501 -0.00000000000E+00  0.00000000000E+00  0.10838864385E+03  0.10838864385E+03  0.00000000000E+00 0.  1.
          2   -1    0    0  501    0  0.00000000000E+00 -0.00000000000E+00 -0.99608233670E+02  0.99608233670E+02  0.00000000000E+00 0. -1.
         24    1    1    2    0    0  0.21058090330E+02  0.25922580520E+02 -0.52350426890E+02  0.10160318154E+03  0.80419002446E+02 0. -1.
        -24    1    1    2    0    0 -0.21058090330E+02 -0.25922580520E+02  0.61130837069E+02  0.10639369598E+03  0.80419002446E+02 0.  1.
<mgrwt>
<rscale>  0 0.87078352E+02</rscale>
<asrwt>0</asrwt>
<pdfrwt beam="1">  1        2 0.15324344E-01 0.87078352E+02</pdfrwt>
<pdfrwt beam="2">  1       -2 0.16675176E-01 0.87078352E+02</pdfrwt>
<totfact> 0.98299242E+03</totfact>
</mgrwt>
</event>
<event>
 4    1  0.4844629E-001  0.8081397E+02  0.7546771E-02  0.1326757E+00
         -3   -1    0    0    0  501 -0.00000000000E+00  0.00000000000E+00  0.25117707537E+03  0.25117707537E+03  0.00000000000E+00 0.  1.
          3   -1    0    0  501    0  0.00000000000E+00 -0.00000000000E+00 -0.83766441115E+02  0.83766441115E+02  0.00000000000E+00 0. -1.
         24    1    1    2    0    0 -0.75763471736E+01 -0.25062710676E+01  0.22277739627E+03  0.23698241849E+03  0.80419002446E+02 0.  1.
        -24    1    1    2    0    0  0.75763471736E+01  0.25062710676E+01 -0.55366762010E+02  0.97961097998E+02  0.80419002446E+02 0.  0.
<mgrwt>
<rscale>  0 0.80813974E+02</rscale>
<asrwt>0</asrwt>
<pdfrwt beam="1">  1        3 0.12887145E-01 0.80813974E+02</pdfrwt>
<pdfrwt beam="2">  1       -3 0.38642627E-01 0.80813974E+02</pdfrwt>
<totfact> 0.67755455E+02</totfact>
</mgrwt>
</event>
<event>
 4    1  0.4844629E-001  0.1100418E+03  0.7546771E-02  0.1260493E+00
          2   -1    0    0  501    0  0.00000000000E+00  0.00000000000E+00  0.15893369139E+03  0.15893369139E+03  0.00000000000E+00 0. -1.
         -2   -1    0    0    0  501 -0.00000000000E+00 -0.00000000000E+00 -0.14400869141E+03  0.14400869141E+03  0.00000000000E+00 0.  1.
         24    1    1    2    0    0  0.42092499590E+02 -0.62210899695E+02  0.11140896775E+03  0.15659230062E+03  0.80419002446E+02 0. -1.
        -24    1    1    2    0    0 -0.42092499590E+02  0.62210899695E+02 -0.96483967774E+02  0.14635008218E+03  0.80419002446E+02 0.  1.
<mgrwt>
<rscale>  0 0.11004177E+03</rscale>
<asrwt>0</asrwt>
<pdfrwt beam="1">  1        2 0.24451337E-01 0.11004177E+03</pdfrwt>
<pdfrwt beam="2">  1       -2 0.22155183E-01 0.11004177E+03</pdfrwt>
<totfact> 0.36827271E+03</totfact>
</mgrwt>
</event>
<event>
 4    1  0.4844629E-001  0.8253162E+02  0.7546771E-02  0.1322017E+00
          2   -1    0    0  501    0  0.00000000000E+00  0.00000000000E+00  0.16549801616E+04  0.16549801616E+04  0.00000000000E+00 0. -1.
         -2   -1    0    0    0  501 -0.00000000000E+00 -0.00000000000E+00 -0.54768250554E+01  0.54768250554E+01  0.00000000000E+00 0.  1.
         24    1    1    2    0    0 -0.12023458232E+02  0.14131123810E+02  0.12386329848E+04  0.12413795307E+04  0.80419002446E+02 0. -1.
        -24    1    1    2    0    0  0.12023458232E+02 -0.14131123810E+02  0.41087035175E+03  0.41907745598E+03  0.80419002446E+02 0.  1.
<mgrwt>
<rscale>  0 0.82531619E+02</rscale>
<asrwt>0</asrwt>
<pdfrwt beam="1">  1        2 0.25461193E+00 0.82531619E+02</pdfrwt>
<pdfrwt beam="2">  1       -2 0.84258979E-03 0.82531619E+02</pdfrwt>
<totfact> 0.28570631E+04</totfact>
</mgrwt>
</event>
<event>
 4    1  0.4844629E-001  0.9508151E+02  0.7546771E-02  0.1290993E+00
          1   -1    0    0  501    0  0.00000000000E+00  0.00000000000E+00  0.30449852926E+03  0.30449852926E+03  0.00000000000E+00 0. -1.
         -1   -1    0    0    0  501 -0.00000000000E+00 -0.00000000000E+00 -0.29741350996E+02  0.29741350996E+02  0.00000000000E+00 0.  1.
         24    1    1    2    0    0 -0.50725301597E+02  0.47062989184E+00  0.13041937793E+03  0.16139921874E+03  0.80419002446E+02 0. -1.
        -24    1    1    2    0    0  0.50725301597E+02 -0.47062989184E+00  0.14433780033E+03  0.17284066151E+03  0.80419002446E+02 0.  1.
<mgrwt>
<rscale>  0 0.95081511E+02</rscale>
<asrwt>0</asrwt>
<pdfrwt beam="1">  1        1 0.46845926E-01 0.95081511E+02</pdfrwt>
<pdfrwt beam="2">  1       -1 0.45755927E-02 0.95081511E+02</pdfrwt>
<totfact> 0.15686589E+04</totfact>
</mgrwt>
</event>
<event>
 4    1  0.4844629E-001  0.1026242E+03  0.7546771E-02  0.1274872E+00
         -1   -1    0    0    0  501 -0.00000000000E+00  0.00000000000E+00  0.23943842256E+02  0.23943842256E+02  0.00000000000E+00 0.  1.
          1   -1    0    0  501    0  0.00000000000E+00 -0.00000000000E+00 -0.80375765275E+03  0.80375765275E+03  0.00000000000E+00 0. -1.
         24    1    1    2    0    0 -0.61087093175E+02 -0.18244876834E+02 -0.11143836113E+03  0.15149334232E+03  0.80419002446E+02 0.  1.
        -24    1    1    2    0    0  0.61087093175E+02  0.18244876834E+02 -0.66837544936E+03  0.67620815268E+03  0.80419002446E+02 0. -1.
<mgrwt>
<rscale>  0 0.10262419E+03</rscale>
<asrwt>0</asrwt>
<pdfrwt beam="1">  1        1 0.12365503E+00 0.10262419E+03</pdfrwt>
<pdfrwt beam="2">  1       -1 0.36836678E-02 0.10262419E+03</pdfrwt>
<totfact> 0.60699697E+03</totfact>
</mgrwt>
</event>
<event>
 4    1  0.4844629E-001  0.8255713E+02  0.7546771E-02  0.1321947E+00
         -1   -1    0    0    0  501 -0.00000000000E+00  0.00000000000E+00  0.43506911835E+03  0.43506911835E+03  0.00000000000E+00 0.  1.
          1   -1    0    0  501    0  0.00000000000E+00 -0.00000000000E+00 -0.15696309217E+02  0.15696309217E+02  0.00000000000E+00 0. -1.
         24    1    1    2    0    0 -0.15140893235E+02  0.10918657304E+02  0.21963276416E+03  0.23463637990E+03  0.80419002446E+02 0.  1.
        -24    1    1    2    0    0  0.15140893235E+02 -0.10918657304E+02  0.19974004497E+03  0.21612904767E+03  0.80419002446E+02 0. -1.
<mgrwt>
<rscale>  0 0.82557130E+02</rscale>
<asrwt>0</asrwt>
<pdfrwt beam="1">  1        1 0.24148171E-02 0.82557130E+02</pdfrwt>
<pdfrwt beam="2">  1       -1 0.66933702E-01 0.82557130E+02</pdfrwt>
<totfact> 0.97420550E+03</totfact>
</mgrwt>
</event>
<event>
 4    1  0.4844629E-001  0.9277993E+02  0.7546771E-02  0.1296256E+00
          2   -1    0    0  501    0  0.00000000000E+00  0.00000000000E+00  0.99734060624E+02  0.99734060624E+02  0.00000000000E+00 0. -1.
         -2   -1    0    0    0  501 -0.00000000000E+00 -0.00000000000E+00 -0.15584454203E+03  0.15584454203E+03  0.00000000000E+00 0.  1.
         24    1    1    2    0    0 -0.60599464969E+01 -0.45871300493E+02  0.57303275390E+02  0.10904944055E+03  0.80419002446E+02 0. -1.
        -24    1    1    2    0    0  0.60599464969E+01  0.45871300493E+02 -0.11341375679E+03  0.14652916210E+03  0.80419002446E+02 0.  1.
<mgrwt>
<rscale>  0 0.92779928E+02</rscale>
<asrwt>0</asrwt>
<pdfrwt beam="1">  1        2 0.15343702E-01 0.92779928E+02</pdfrwt>
<pdfrwt beam="2">  1       -2 0.23976083E-01 0.92779928E+02</pdfrwt>
<totfact> 0.53699334E+03</totfact>
</mgrwt>
</event>
<event>
 4    1  0.4844629E-001  0.1250852E+03  0.7546771E-02  0.1234936E+00
         -2   -1    0    0    0  501 -0.00000000000E+00  0.00000000000E+00  0.28024525356E+02  0.28024525356E+02  0.00000000000E+00 0.  1.
          2   -1    0    0  501    0  0.00000000000E+00 -0.00000000000E+00 -0.75087337356E+03  0.75087337356E+03  0.00000000000E+00 0. -1.
         24    1    1    2    0    0  0.40193735259E+02 -0.86968709111E+02 -0.55864699051E+03  0.57247949193E+03  0.80419002446E+02 0. -1.
        -24    1    1    2    0    0 -0.40193735259E+02  0.86968709111E+02 -0.16420185769E+03  0.20641840699E+03  0.80419002446E+02 0.  1.
<mgrwt>
<rscale>  0 0.12508521E+03</rscale>
<asrwt>0</asrwt>
<pdfrwt beam="1">  1        2 0.11551898E+00 0.12508521E+03</pdfrwt>
<pdfrwt beam="2">  1       -2 0.43114653E-02 0.12508521E+03</pdfrwt>
<totfact> 0.90155707E+03</totfact>
</mgrwt>
</event>
<event>
 4    1  0.4844629E-001  0.1061362E+03  0.7546771E-02  0.1267897E+00
         -2   -1    0    0    0  501 -0.00000000000E+00  0.00000000000E+00  0.84948733856E+01  0.84948733856E+01  0.00000000000E+00 0.  1.
          2   -1    0    0  501    0  0.00000000000E+00 -0.00000000000E+00 -0.13278469722E+04  0.13278469722E+04  0.00000000000E+00 0. -1.
         24    1    1    2    0    0  0.52851349702E+02  0.44770594854E+02 -0.63530649329E+03  0.64411119203E+03  0.80419002446E+02 0.  0.
        -24    1    1    2    0    0 -0.52851349702E+02 -0.44770594854E+02 -0.68404560553E+03  0.69223065356E+03  0.80419002446E+02 0.  1.
<mgrwt>
<rscale>  0 0.10613619E+03</rscale>
<asrwt>0</asrwt>
<pdfrwt beam="1">  1        2 0.20428397E+00 0.10613620E+03</pdfrwt>
<pdfrwt beam="2">  1       -2 0.13069048E-02 0.10613620E+03</pdfrwt>
<totfact> 0.23018378E+04</totfact>
</mgrwt>
</event>
<event>
 4    1  0.4844629E-001  0.1377056E+03  0.7546771E-02  0.1216450E+00
          2   -1    0    0  501    0  0.00000000000E+00  0.00000000000E+00  0.17637955865E+04  0.17637955865E+04  0.00000000000E+00 0. -1.
         -2   -1    0    0    0  501 -0.00000000000E+00 -0.00000000000E+00 -0.10880042439E+02  0.10880042439E+02  0.00000000000E+00 0.  1.
         24    1    1    2    0    0 -0.51963993563E+02 -0.98971537802E+02  0.97303634214E+03  0.98273219190E+03  0.80419002446E+02 0.  1.
        -24    1    1    2    0    0  0.51963993563E+02  0.98971537802E+02  0.77987920188E+03  0.79194343700E+03  0.80419002446E+02 0.  0.
<mgrwt>
<rscale>  0 0.13770562E+03</rscale>
<asrwt>0</asrwt>
<pdfrwt beam="1">  1        2 0.27135294E+00 0.13770562E+03</pdfrwt>
<pdfrwt beam="2">  1       -2 0.16738541E-02 0.13770562E+03</pdfrwt>
<totfact> 0.97362886E+03</totfact>
</mgrwt>
</event>
<event>
 4    1  0.4844629E-001  0.8356817E+02  0.7546771E-02  0.1319220E+00
         -2   -1    0    0    0  501 -0.00000000000E+00  0.00000000000E+00  0.21918937234E+03  0.21918937234E+03  0.00000000000E+00 0.  1.
          2   -1    0    0  501    0  0.00000000000E+00 -0.00000000000E+00 -0.58993209907E+02  0.58993209907E+02  0.00000000000E+00 0. -1.
         24    1    1    2    0    0  0.20361224754E+02 -0.10091786557E+02 -0.14229737809E+02  0.84771015223E+02  0.80419002446E+02 0. -1.
        -24    1    1    2    0    0 -0.20361224754E+02  0.10091786557E+02  0.17442590024E+03  0.19341156703E+03  0.80419002446E+02 0.  1.
<mgrwt>
<rscale>  0 0.83568173E+02</rscale>
<asrwt>0</asrwt>
<pdfrwt beam="1">  1        2 0.90758786E-02 0.83568173E+02</pdfrwt>
<pdfrwt beam="2">  1       -2 0.33721441E-01 0.83568173E+02</pdfrwt>
<totfact> 0.54396595E+03</totfact>
</mgrwt>
</event>
<event>
 4    1  0.4844629E-001  0.8948189E+02  0.7546771E-02  0.1304111E+00
         -2   -1    0    0    0  501 -0.00000000000E+00  0.00000000000E+00  0.23365850356E+02  0.23365850356E+02  0.00000000000E+00 0.  1.
          2   -1    0    0  501    0  0.00000000000E+00 -0.00000000000E+00 -0.37238032766E+03  0.37238032766E+03  0.00000000000E+00 0. -1.
         24    1    1    2    0    0 -0.25310848266E+02  0.29985886415E+02 -0.23038955137E+03  0.24715653695E+03  0.80419002446E+02 0.  0.
        -24    1    1    2    0    0  0.25310848266E+02 -0.29985886415E+02 -0.11862492594E+03  0.14858964107E+03  0.80419002446E+02 0. -1.
<mgrwt>
<rscale>  0 0.89481889E+02</rscale>
<asrwt>0</asrwt>
<pdfrwt beam="1">  1        2 0.57289278E-01 0.89481889E+02</pdfrwt>
<pdfrwt beam="2">  1       -2 0.35947464E-02 0.89481889E+02</pdfrwt>
<totfact> 0.24914629E+04</totfact>
</mgrwt>
</event>
<event>
 4    1  0.4844629E-001  0.9215886E+02  0.7546771E-02  0.1297706E+00
         -1   -1    0    0    0  501 -0.00000000000E+00  0.00000000000E+00  0.77888231773E+01  0.77888231773E+01  0.00000000000E+00 0.  1.
          1   -1    0    0  501    0  0.00000000000E+00 -0.00000000000E+00 -0.13687394976E+04  0.13687394976E+04  0.00000000000E+00 0. -1.
         24    1    1    2    0    0 -0.36594896795E+02  0.26207874246E+02 -0.37012666660E+03  0.38142758739E+03  0.80419002446E+02 0. -1.
        -24    1    1    2    0    0  0.36594896795E+02 -0.26207874246E+02 -0.99082400785E+03  0.99510073341E+03  0.80419002446E+02 0.  0.
<mgrwt>
<rscale>  0 0.92158858E+02</rscale>
<asrwt>0</asrwt>
<pdfrwt beam="1">  1        1 0.21057533E+00 0.92158858E+02</pdfrwt>
<pdfrwt beam="2">  1       -1 0.11982804E-02 0.92158858E+02</pdfrwt>
<totfact> 0.11989636E+04</totfact>
</mgrwt>
</event>
<event>
 4    1  0.4844629E-001  0.8853595E+02  0.7546771E-02  0.1306436E+00
         -1   -1    0    0    0  501 -0.00000000000E+00  0.00000000000E+00  0.58859673673E+01  0.58859673673E+01  0.00000000000E+00 0.  1.
          1   -1    0    0  501    0  0.00000000000E+00 -0.00000000000E+00 -0.16735262140E+04  0.16735262140E+04  0.00000000000E+00 0. -1.
         24    1    1    2    0    0  0.28640155579E+00 -0.37031286378E+02 -0.45434402057E+03  0.46288994715E+03  0.80419002446E+02 0.  1.
        -24    1    1    2    0    0 -0.28640155579E+00  0.37031286378E+02 -0.12132962261E+04  0.12165222343E+04  0.80419002446E+02 0. -1.
<mgrwt>
<rscale>  0 0.88535948E+02</rscale>
<asrwt>0</asrwt>
<pdfrwt beam="1">  1        1 0.25746569E+00 0.88535948E+02</pdfrwt>
<pdfrwt beam="2">  1       -1 0.90553301E-03 0.88535948E+02</pdfrwt>
<totfact> 0.11351810E+04</totfact>
</mgrwt>
</event>
<event>
 4    1  0.4844629E-001  0.1871889E+03  0.7546771E-02  0.1161021E+00
          2   -1    0    0  501    0  0.00000000000E+00  0.00000000000E+00  0.22010329964E+03  0.22010329964E+03  0.00000000000E+00 0. -1.
         -2   -1    0    0    0  501 -0.00000000000E+00 -0.00000000000E+00 -0.41378052076E+03  0.41378052076E+03  0.00000000000E+00 0.  1.
         24    1    1    2    0    0  0.16399802996E+03  0.40952548881E+02  0.15176658297E+03  0.24098293871E+03  0.80419002446E+02 0. -1.
        -24    1    1    2    0    0 -0.16399802996E+03 -0.40952548881E+02 -0.34544380409E+03  0.39290088168E+03  0.80419002446E+02 0.  1.
<mgrwt>
<rscale>  0 0.18718889E+03</rscale>
<asrwt>0</asrwt>
<pdfrwt beam="1">  1        2 0.33862047E-01 0.18718889E+03</pdfrwt>
<pdfrwt beam="2">  1       -2 0.63658541E-01 0.18718889E+03</pdfrwt>
<totfact> 0.36010076E+02</totfact>
</mgrwt>
</event>
<event>
 4    1  0.4844629E-001  0.8246277E+02  0.7546771E-02  0.1322204E+00
          2   -1    0    0  501    0  0.00000000000E+00  0.00000000000E+00  0.19918175320E+04  0.19918175320E+04  0.00000000000E+00 0. -1.
         -2   -1    0    0    0  501 -0.00000000000E+00 -0.00000000000E+00 -0.42776835735E+01  0.42776835735E+01  0.00000000000E+00 0.  1.
         24    1    1    2    0    0 -0.13528362583E+02 -0.12242361392E+02  0.14422248967E+04  0.14445804791E+04  0.80419002446E+02 0. -1.
        -24    1    1    2    0    0  0.13528362583E+02  0.12242361392E+02  0.54531495171E+03  0.55151473645E+03  0.80419002446E+02 0.  1.
<mgrwt>
<rscale>  0 0.82462767E+02</rscale>
<asrwt>0</asrwt>
<pdfrwt beam="1">  1        2 0.30643273E+00 0.82462767E+02</pdfrwt>
<pdfrwt beam="2">  1       -2 0.65810676E-03 0.82462767E+02</pdfrwt>
<totfact> 0.27443267E+04</totfact>
</mgrwt>
</event>
<event>
 4    1  0.4844629E-001  0.8095671E+02  0.7546771E-02  0.1326358E+00
          1   -1    0    0  501    0  0.00000000000E+00  0.00000000000E+00  0.65536905656E+01  0.65536905656E+01  0.00000000000E+00 0. -1.
         -1   -1    0    0    0  501 -0.00000000000E+00 -0.00000000000E+00 -0.10189154986E+04  0.10189154986E+04  0.00000000000E+00 0.  1.
         24    1    1    2    0    0  0.79145828381E+01  0.49125246258E+01 -0.57595724865E+03  0.58161906927E+03  0.80419002446E+02 0. -1.
        -24    1    1    2    0    0 -0.79145828381E+01 -0.49125246258E+01 -0.43640455941E+03  0.44385011991E+03  0.80419002446E+02 0. -1.
<mgrwt>
<rscale>  0 0.80956714E+02</rscale>
<asrwt>0</asrwt>
<pdfrwt beam="1">  1        1 0.10082606E-02 0.80956714E+02</pdfrwt>
<pdfrwt beam="2">  1       -1 0.15675615E+00 0.80956714E+02</pdfrwt>
<totfact> 0.49186882E+03</totfact>
</mgrwt>
</event>
<event>
 4    1  0.4844629E-001  0.8044600E+02  0.7546771E-02  0.1327790E+00
          2   -1    0    0  501    0  0.00000000000E+00  0.00000000000E+00  0.80286008986E+03  0.80286008986E+03  0.00000000000E+00 0. -1.
         -2   -1    0    0    0  501 -0.00000000000E+00 -0.00000000000E+00 -0.56523107673E+02  0.56523107673E+02  0.00000000000E+00 0.  1.
         24    1    1    2    0    0 -0.20616622190E+01  0.30425274489E+00  0.77104348866E+03  0.77522875358E+03  0.80419002446E+02 0. -1.
        -24    1    1    2    0    0  0.20616622190E+01 -0.30425274489E+00 -0.24706506471E+02  0.84154443954E+02  0.80419002446E+02 0.  0.
<mgrwt>
<rscale>  0 0.80446000E+02</rscale>
<asrwt>0</asrwt>
<pdfrwt beam="1">  1        2 0.12351693E+00 0.80446000E+02</pdfrwt>
<pdfrwt beam="2">  1       -2 0.86958633E-02 0.80446000E+02</pdfrwt>
<totfact> 0.28231557E+03</totfact>
</mgrwt>
</event>
<event>
 4    1  0.4844629E-001  0.9763585E+02  0.7546771E-02  0.1285347E+00
         -2   -1    0    0    0  501 -0.00000000000E+00  0.00000000000E+00  0.24936138052E+03  0.24936138052E+03  0.00000000000E+00 0.  1.
          2   -1    0    0  501    0  0.00000000000E+00 -0.00000000000E+00 -0.85551070553E+02  0.85551070553E+02  0.00000000000E+00 0. -1.
         24    1    1    2    0    0  0.51815777245E+02  0.19510735691E+02 -0.42638570939E+02  0.10654016738E+03  0.80419002446E+02 0. -1.
        -24    1    1    2    0    0 -0.51815777245E+02 -0.19510735691E+02  0.20644888091E+03  0.22837228370E+03  0.80419002446E+02 0.  1.
<mgrwt>
<rscale>  0 0.97635852E+02</rscale>
<asrwt>0</asrwt>
<pdfrwt beam="1">  1        2 0.13161703E-01 0.97635852E+02</pdfrwt>
<pdfrwt beam="2">  1       -2 0.38363289E-01 0.97635852E+02</pdfrwt>
<totfact> 0.27796165E+03</totfact>
</mgrwt>
</event>
<event>
 4    1  0.4844629E-001  0.9723202E+02  0.7546771E-02  0.1286227E+00
         -1   -1    0    0    0  501 -0.00000000000E+00  0.00000000000E+00  0.25175624729E+03  0.25175624729E+03  0.00000000000E+00 0.  1.
          1   -1    0    0  501    0  0.00000000000E+00 -0.00000000000E+00 -0.79149934054E+02  0.79149934054E+02  0.00000000000E+00 0. -1.
         24    1    1    2    0    0  0.30029481977E+02 -0.45662683463E+02  0.20624841529E+03  0.22801858524E+03  0.80419002446E+02 0.  1.
        -24    1    1    2    0    0 -0.30029481977E+02  0.45662683463E+02 -0.33642102051E+02  0.10288759611E+03  0.80419002446E+02 0. -1.
<mgrwt>
<rscale>  0 0.97232024E+02</rscale>
<asrwt>0</asrwt>
<pdfrwt beam="1">  1        1 0.12176913E-01 0.97232024E+02</pdfrwt>
<pdfrwt beam="2">  1       -1 0.38731730E-01 0.97232024E+02</pdfrwt>
<totfact> 0.30433273E+03</totfact>
</mgrwt>
</event>
<event>
 4    1  0.4844629E-001  0.8148947E+02  0.7546771E-02  0.1324877E+00
         -4   -1    0    0    0  501 -0.00000000000E+00  0.00000000000E+00  0.13093178928E+03  0.13093178928E+03  0.00000000000E+00 0.  1.
          4   -1    0    0  501    0  0.00000000000E+00 -0.00000000000E+00 -0.66377448420E+02  0.66377448420E+02  0.00000000000E+00 0. -1.
         24    1    1    2    0    0 -0.63084204137E+01 -0.11555181697E+02 -0.15641214236E+02  0.82976996386E+02  0.80419002446E+02 0. -1.
        -24    1    1    2    0    0  0.63084204137E+01  0.11555181697E+02  0.80195555097E+02  0.11433224131E+03  0.80419002446E+02 0.  1.
<mgrwt>
<rscale>  0 0.81489474E+02</rscale>
<asrwt>0</asrwt>
<pdfrwt beam="1">  1        4 0.10211915E-01 0.81489474E+02</pdfrwt>
<pdfrwt beam="2">  1       -4 0.20143352E-01 0.81489474E+02</pdfrwt>
<totfact> 0.23498976E+03</totfact>
</mgrwt>
</event>
<event>
 4    1  0.4844629E-001  0.1417587E+03  0.7546771E-02  0.1210982E+00
          2   -1    0    0  501    0  0.00000000000E+00  0.00000000000E+00  0.20502149063E+04  0.20502149063E+04  0.00000000000E+00 0. -1.
         -2   -1    0    0    0  501 -0.00000000000E+00 -0.00000000000E+00 -0.24606429031E+02  0.24606429031E+02  0.00000000000E+00 0.  1.
         24    1    1    2    0    0 -0.98580129060E+02  0.62532141925E+02  0.18174914682E+04  0.18230114546E+04  0.80419002446E+02 0. -1.
        -24    1    1    2    0    0  0.98580129060E+02 -0.62532141925E+02  0.20811700904E+03  0.25180988071E+03  0.80419002446E+02 0.  1.
<mgrwt>
<rscale>  0 0.14175869E+03</rscale>
<asrwt>0</asrwt>
<pdfrwt beam="1">  1        2 0.31541754E+00 0.14175869E+03</pdfrwt>
<pdfrwt beam="2">  1       -2 0.37856061E-02 0.14175869E+03</pdfrwt>
<totfact> 0.21054736E+03</totfact>
</mgrwt>
</event>
<event>
 4    1  0.4844629E-001  0.1455295E+03  0.7546771E-02  0.1206076E+00
          2   -1    0    0  501    0  0.00000000000E+00  0.00000000000E+00  0.95863045896E+03  0.95863045896E+03  0.00000000000E+00 0. -1.
         -2   -1    0    0    0  501 -0.00000000000E+00 -0.00000000000E+00 -0.35199439974E+02  0.35199439974E+02  0.00000000000E+00 0.  1.
         24    1    1    2    0    0 -0.11588890059E+03 -0.35796374233E+02  0.76493689297E+03  0.77865735974E+03  0.80419002446E+02 0. -1.
        -24    1    1    2    0    0  0.11588890059E+03  0.35796374233E+02  0.15849412601E+03  0.21517253920E+03  0.80419002446E+02 0.  1.
<mgrwt>
<rscale>  0 0.14552949E+03</rscale>
<asrwt>0</asrwt>
<pdfrwt beam="1">  1        2 0.14748159E+00 0.14552949E+03</pdfrwt>
<pdfrwt beam="2">  1       -2 0.54152992E-02 0.14552949E+03</pdfrwt>
<totfact> 0.47258821E+03</totfact>
</mgrwt>
</event>
<event>
 4    1  0.4844629E-001  0.8318161E+02  0.7546771E-02  0.1320257E+00
          2   -1    0    0  501    0  0.00000000000E+00  0.00000000000E+00  0.43553059216E+03  0.43553059216E+03  0.00000000000E+00 0. -1.
         -2   -1    0    0    0  501 -0.00000000000E+00 -0.00000000000E+00 -0.18926262630E+02  0.18926262630E+02  0.00000000000E+00 0.  1.
         24    1    1    2    0    0  0.21247444069E+02 -0.71445432794E+00  0.29936261762E+03  0.31070429206E+03  0.80419002446E+02 0. -1.
        -24    1    1    2    0    0 -0.21247444069E+02  0.71445432794E+00  0.11724171192E+03  0.14375256273E+03  0.80419002446E+02 0.  1.
<mgrwt>
<rscale>  0 0.83181610E+02</rscale>
<asrwt>0</asrwt>
<pdfrwt beam="1">  1        2 0.67004699E-01 0.83181610E+02</pdfrwt>
<pdfrwt beam="2">  1       -2 0.29117330E-02 0.83181610E+02</pdfrwt>
<totfact> 0.28482408E+04</totfact>
</mgrwt>
</event>
<event>
 4    1  0.4844629E-001  0.8427076E+02  0.7546771E-02  0.1317351E+00
          4   -1    0    0  501    0  0.00000000000E+00  0.00000000000E+00  0.11418889777E+02  0.11418889777E+02  0.00000000000E+00 0. -1.
         -4   -1    0    0    0  501 -0.00000000000E+00 -0.00000000000E+00 -0.62205653676E+03  0.62205653676E+03  0.00000000000E+00 0.  1.
         24    1    1    2    0    0  0.15176548962E+02  0.20100173988E+02 -0.30051422012E+03  0.31210632336E+03  0.80419002446E+02 0.  0.
        -24    1    1    2    0    0 -0.15176548962E+02 -0.20100173988E+02 -0.31012342686E+03  0.32136910318E+03  0.80419002446E+02 0.  1.
<mgrwt>
<rscale>  0 0.84270758E+02</rscale>
<asrwt>0</asrwt>
<pdfrwt beam="1">  1        4 0.17567522E-02 0.84270758E+02</pdfrwt>
<pdfrwt beam="2">  1       -4 0.95701010E-01 0.84270758E+02</pdfrwt>
<totfact> 0.17277052E+03</totfact>
</mgrwt>
</event>
<event>
 4    1  0.4844629E-001  0.8886931E+02  0.7546771E-02  0.1305613E+00
         -2   -1    0    0    0  501 -0.00000000000E+00  0.00000000000E+00  0.82542366957E+02  0.82542366957E+02  0.00000000000E+00 0.  1.
          2   -1    0    0  501    0  0.00000000000E+00 -0.00000000000E+00 -0.10827256810E+03  0.10827256810E+03  0.00000000000E+00 0. -1.
         24    1    1    2    0    0 -0.13053810124E+02  0.35498394497E+02 -0.45400740870E+02  0.99794695232E+02  0.80419002446E+02 0. -1.
        -24    1    1    2    0    0  0.13053810124E+02 -0.35498394497E+02  0.19670539726E+02  0.91020239826E+02  0.80419002446E+02 0.  1.
<mgrwt>
<rscale>  0 0.88869308E+02</rscale>
<asrwt>0</asrwt>
<pdfrwt beam="1">  1        2 0.16657318E-01 0.88869308E+02</pdfrwt>
<pdfrwt beam="2">  1       -2 0.12698826E-01 0.88869308E+02</pdfrwt>
<totfact> 0.13885342E+04</totfact>
</mgrwt>
</event>
<event>
 4    1  0.4844629E-001  0.1535239E+03  0.7546771E-02  0.1196209E+00
          2   -1    0    0  501    0  0.00000000000E+00  0.00000000000E+00  0.84047290907E+03  0.84047290907E+03  0.00000000000E+00 0. -1.
         -2   -1    0    0    0  501 -0.00000000000E+00 -0.00000000000E+00 -0.75209865805E+02  0.75209865805E+02  0.00000000000E+00 0.  1.
         24    1    1    2    0    0 -0.12023290221E+03  0.51443360539E+02  0.74520416469E+03  0.76085401566E+03  0.80419002446E+02 0. -1.
        -24    1    1    2    0    0  0.12023290221E+03 -0.51443360539E+02  0.20058878574E+02  0.15482875922E+03  0.80419002446E+02 0.  1.
<mgrwt>
<rscale>  0 0.15352389E+03</rscale>
<asrwt>0</asrwt>
<pdfrwt beam="1">  1        2 0.12930352E+00 0.15352389E+03</pdfrwt>
<pdfrwt beam="2">  1       -2 0.11570749E-01 0.15352389E+03</pdfrwt>
<totfact> 0.17346631E+03</totfact>
</mgrwt>
</event>
<event>
 4    1  0.4844629E-001  0.8368519E+02  0.7546771E-02  0.1318907E+00
         -1   -1    0    0    0  501 -0.00000000000E+00  0.00000000000E+00  0.56362339898E+03  0.56362339898E+03  0.00000000000E+00 0.  1.
          1   -1    0    0  501    0  0.00000000000E+00 -0.00000000000E+00 -0.73970669325E+02  0.73970669325E+02  0.00000000000E+00 0. -1.
         24    1    1    2    0    0  0.22596864249E+02  0.50375142004E+01  0.53561809942E+03  0.54211618608E+03  0.80419002446E+02 0.  1.
        -24    1    1    2    0    0 -0.22596864249E+02 -0.50375142004E+01 -0.45965369765E+02  0.95477882230E+02  0.80419002446E+02 0. -1.
<mgrwt>
<rscale>  0 0.83685189E+02</rscale>
<asrwt>0</asrwt>
<pdfrwt beam="1">  1        1 0.11380103E-01 0.83685189E+02</pdfrwt>
<pdfrwt beam="2">  1       -1 0.86711289E-01 0.83685189E+02</pdfrwt>
<totfact> 0.72787052E+02</totfact>
</mgrwt>
</event>
<event>
 4    1  0.4844629E-001  0.8797530E+02  0.7546771E-02  0.1307830E+00
          2   -1    0    0  501    0  0.00000000000E+00  0.00000000000E+00  0.31130293335E+02  0.31130293335E+02  0.00000000000E+00 0. -1.
         -2   -1    0    0    0  501 -0.00000000000E+00 -0.00000000000E+00 -0.40485080855E+03  0.40485080855E+03  0.00000000000E+00 0.  1.
         24    1    1    2    0    0 -0.31855509213E+02  0.16051919995E+02 -0.51443716520E+02  0.10191226387E+03  0.80419002446E+02 0. -1.
        -24    1    1    2    0    0  0.31855509213E+02 -0.16051919995E+02 -0.32227679869E+03  0.33406883802E+03  0.80419002446E+02 0.  1.
<mgrwt>
<rscale>  0 0.87975301E+02</rscale>
<asrwt>0</asrwt>
<pdfrwt beam="1">  1        2 0.47892762E-02 0.87975301E+02</pdfrwt>
<pdfrwt beam="2">  1       -2 0.62284736E-01 0.87975301E+02</pdfrwt>
<totfact> 0.37427210E+03</totfact>
</mgrwt>
</event>
<event>
 4    1  0.4844629E-001  0.1282936E+03  0.7546771E-02  0.1230010E+00
         -1   -1    0    0    0  501 -0.00000000000E+00  0.00000000000E+00  0.28962796379E+03  0.28962796379E+03  0.00000000000E+00 0.  1.
          1   -1    0    0  501    0  0.00000000000E+00 -0.00000000000E+00 -0.78609750403E+02  0.78609750403E+02  0.00000000000E+00 0. -1.
         24    1    1    2    0    0  0.91017786553E+02  0.41325430790E+02  0.85927077155E+01  0.12858102224E+03  0.80419002446E+02 0. -1.
        -24    1    1    2    0    0 -0.91017786553E+02 -0.41325430790E+02  0.20242550568E+03  0.23965669196E+03  0.80419002446E+02 0.  1.
<mgrwt>
<rscale>  0 0.12829360E+03</rscale>
<asrwt>0</asrwt>
<pdfrwt beam="1">  1        1 0.12093808E-01 0.12829362E+03</pdfrwt>
<pdfrwt beam="2">  1       -1 0.44558148E-01 0.12829362E+03</pdfrwt>
<totfact> 0.24372375E+03</totfact>
</mgrwt>
</event>
<event>
 4    1  0.4844629E-001  0.8332179E+02  0.7546771E-02  0.1319881E+00
          2   -1    0    0  501    0  0.00000000000E+00  0.00000000000E+00  0.11765456718E+03  0.11765456718E+03  0.00000000000E+00 0. -1.
         -2   -1    0    0    0  501 -0.00000000000E+00 -0.00000000000E+00 -0.68835071944E+02  0.68835071944E+02  0.00000000000E+00 0.  1.
         24    1    1    2    0    0 -0.21605039906E+02  0.29199585229E+01  0.59641931598E+02  0.10246794555E+03  0.80419002446E+02 0. -1.
        -24    1    1    2    0    0  0.21605039906E+02 -0.29199585229E+01 -0.10822436361E+02  0.84021693569E+02  0.80419002446E+02 0. -1.
<mgrwt>
<rscale>  0 0.83321785E+02</rscale>
<asrwt>0</asrwt>
<pdfrwt beam="1">  1        2 0.18100703E-01 0.83321785E+02</pdfrwt>
<pdfrwt beam="2">  1       -2 0.10590011E-01 0.83321785E+02</pdfrwt>
<totfact> 0.16699294E+04</totfact>
</mgrwt>
</event>
<event>
 4    1  0.4844629E-001  0.8122924E+02  0.7546771E-02  0.1325599E+00
          1   -1    0    0  501    0  0.00000000000E+00  0.00000000000E+00  0.42010428068E+03  0.42010428068E+03  0.00000000000E+00 0. -1.
         -1   -1    0    0    0  501 -0.00000000000E+00 -0.00000000000E+00 -0.15706281915E+02  0.15706281915E+02  0.00000000000E+00 0.  1.
         24    1    1    2    0    0 -0.10892868661E+02  0.35099203184E+01  0.20141147374E+03  0.21717451931E+03  0.80419002446E+02 0.  0.
        -24    1    1    2    0    0  0.10892868661E+02 -0.35099203184E+01  0.20298652503E+03  0.21863604329E+03  0.80419002446E+02 0. -1.
<mgrwt>
<rscale>  0 0.81229244E+02</rscale>
<asrwt>0</asrwt>
<pdfrwt beam="1">  1        1 0.64631419E-01 0.81229244E+02</pdfrwt>
<pdfrwt beam="2">  1       -1 0.24163514E-02 0.81229244E+02</pdfrwt>
<totfact> 0.26083403E+04</totfact>
</mgrwt>
</event>
<event>
 4    1  0.4844629E-001  0.8531558E+02  0.7546771E-02  0.1314609E+00
         -1   -1    0    0    0  501 -0.00000000000E+00  0.00000000000E+00  0.46178793305E+01  0.46178793305E+01  0.00000000000E+00 0.  1.
          1   -1    0    0  501    0  0.00000000000E+00 -0.00000000000E+00 -0.16036209055E+04  0.16036209055E+04  0.00000000000E+00 0. -1.
         24    1    1    2    0    0  0.28481503586E+02  0.57643856044E+00 -0.90463402195E+03  0.90864814860E+03  0.80419002446E+02 0.  0.
        -24    1    1    2    0    0 -0.28481503586E+02 -0.57643856044E+00 -0.69436900420E+03  0.69959063621E+03  0.80419002446E+02 0.  0.
<mgrwt>
<rscale>  0 0.85315568E+02</rscale>
<asrwt>0</asrwt>
<pdfrwt beam="1">  1        1 0.24671054E+00 0.85315578E+02</pdfrwt>
<pdfrwt beam="2">  1       -1 0.71044403E-03 0.85315578E+02</pdfrwt>
<totfact> 0.17621622E+04</totfact>
</mgrwt>
</event>
<event>
 4    1  0.4844629E-001  0.9004954E+02  0.7546771E-02  0.1302732E+00
         -1   -1    0    0    0  501 -0.00000000000E+00  0.00000000000E+00  0.68862085728E+01  0.68862085728E+01  0.00000000000E+00 0.  1.
          1   -1    0    0  501    0  0.00000000000E+00 -0.00000000000E+00 -0.12041814173E+04  0.12041814173E+04  0.00000000000E+00 0. -1.
         24    1    1    2    0    0  0.37587265033E+02 -0.15129476379E+02 -0.50861225041E+03  0.51652235263E+03  0.80419002446E+02 0.  1.
        -24    1    1    2    0    0 -0.37587265033E+02  0.15129476379E+02 -0.68868295827E+03  0.69454527320E+03  0.80419002446E+02 0.  0.
<mgrwt>
<rscale>  0 0.90049539E+02</rscale>
<asrwt>0</asrwt>
<pdfrwt beam="1">  1        1 0.18525849E+00 0.90049539E+02</pdfrwt>
<pdfrwt beam="2">  1       -1 0.10594178E-02 0.90049539E+02</pdfrwt>
<totfact> 0.18292750E+04</totfact>
</mgrwt>
</event>
<event>
 4    1  0.4844629E-001  0.9015112E+02  0.7546771E-02  0.1302486E+00
         -1   -1    0    0    0  501 -0.00000000000E+00  0.00000000000E+00  0.28806057045E+03  0.28806057045E+03  0.00000000000E+00 0.  1.
          1   -1    0    0  501    0  0.00000000000E+00 -0.00000000000E+00 -0.28875558226E+02  0.28875558226E+02  0.00000000000E+00 0. -1.
         24    1    1    2    0    0 -0.39350637093E+02 -0.10560848786E+02  0.10559875136E+03  0.13884637701E+03  0.80419002446E+02 0.  0.
        -24    1    1    2    0    0  0.39350637093E+02  0.10560848786E+02  0.15358626086E+03  0.17808975166E+03  0.80419002446E+02 0.  0.
<mgrwt>
<rscale>  0 0.90151107E+02</rscale>
<asrwt>0</asrwt>
<pdfrwt beam="1">  1        1 0.44423938E-02 0.90151119E+02</pdfrwt>
<pdfrwt beam="2">  1       -1 0.44317009E-01 0.90151119E+02</pdfrwt>
<totfact> 0.91394348E+03</totfact>
</mgrwt>
</event>
<event>
 4    1  0.4844629E-001  0.1217384E+03  0.7546771E-02  0.1240257E+00
         -1   -1    0    0    0  501 -0.00000000000E+00  0.00000000000E+00  0.21800990543E+02  0.21800990543E+02  0.00000000000E+00 0.  1.
          1   -1    0    0  501    0  0.00000000000E+00 -0.00000000000E+00 -0.16498152374E+04  0.16498152374E+04  0.00000000000E+00 0. -1.
         24    1    1    2    0    0 -0.75030910327E+02 -0.52185951133E+02 -0.17312361930E+03  0.21164124011E+03  0.80419002446E+02 0.  1.
        -24    1    1    2    0    0  0.75030910327E+02  0.52185951133E+02 -0.14548906276E+04  0.14599749879E+04  0.80419002446E+02 0. -1.
<mgrwt>
<rscale>  0 0.12173835E+03</rscale>
<asrwt>0</asrwt>
<pdfrwt beam="1">  1        1 0.25381772E+00 0.12173835E+03</pdfrwt>
<pdfrwt beam="2">  1       -1 0.33539987E-02 0.12173835E+03</pdfrwt>
<totfact> 0.18256370E+03</totfact>
</mgrwt>
</event>
<event>
 4    1  0.4844629E-001  0.9729549E+02  0.7546771E-02  0.1286088E+00
         -2   -1    0    0    0  501 -0.00000000000E+00  0.00000000000E+00  0.36074873405E+02  0.36074873405E+02  0.00000000000E+00 0.  1.
          2   -1    0    0  501    0  0.00000000000E+00 -0.00000000000E+00 -0.49883032468E+03  0.49883032468E+03  0.00000000000E+00 0. -1.
         24    1    1    2    0    0  0.47186056721E+02  0.27796886008E+02 -0.47252698849E+02  0.10816295264E+03  0.80419002446E+02 0.  1.
        -24    1    1    2    0    0 -0.47186056721E+02 -0.27796886008E+02 -0.41550275243E+03  0.42674224545E+03  0.80419002446E+02 0.  0.
<mgrwt>
<rscale>  0 0.97295473E+02</rscale>
<asrwt>0</asrwt>
<pdfrwt beam="1">  1        2 0.76743127E-01 0.97295486E+02</pdfrwt>
<pdfrwt beam="2">  1       -2 0.55499805E-02 0.97295486E+02</pdfrwt>
<totfact> 0.96816034E+03</totfact>
</mgrwt>
</event>
<event>
 4    1  0.4844629E-001  0.1058174E+03  0.7546771E-02  0.1268517E+00
         -1   -1    0    0    0  501 -0.00000000000E+00  0.00000000000E+00  0.15631673831E+02  0.15631673831E+02  0.00000000000E+00 0.  1.
          1   -1    0    0  501    0  0.00000000000E+00 -0.00000000000E+00 -0.10082057929E+04  0.10082057929E+04  0.00000000000E+00 0. -1.
         24    1    1    2    0    0 -0.38617248963E+02  0.56910632446E+02 -0.22084474892E+03  0.24488718032E+03  0.80419002446E+02 0.  1.
        -24    1    1    2    0    0  0.38617248963E+02 -0.56910632446E+02 -0.77172937019E+03  0.77895028645E+03  0.80419002446E+02 0. -1.
<mgrwt>
<rscale>  0 0.10581743E+03</rscale>
<asrwt>0</asrwt>
<pdfrwt beam="1">  1        1 0.15510860E+00 0.10581743E+03</pdfrwt>
<pdfrwt beam="2">  1       -1 0.24048726E-02 0.10581743E+03</pdfrwt>
<totfact> 0.78760374E+03</totfact>
</mgrwt>
</event>
<event>
 4    1  0.4844629E-001  0.9047674E+02  0.7546771E-02  0.1301701E+00
         -2   -1    0    0    0  501 -0.00000000000E+00  0.00000000000E+00  0.29216641962E+01  0.29216641962E+01  0.00000000000E+00 0.  1.
          2   -1    0    0  501    0  0.00000000000E+00 -0.00000000000E+00 -0.36467722224E+04  0.36467722224E+04  0.00000000000E+00 0. -1.
         24    1    1    2    0    0  0.19983358243E+02 -0.36324792690E+02 -0.27003055584E+04  0.27018208952E+04  0.80419002446E+02 0. -1.
        -24    1    1    2    0    0 -0.19983358243E+02  0.36324792690E+02 -0.94354499987E+03  0.94787299144E+03  0.80419002446E+02 0.  1.
<mgrwt>
<rscale>  0 0.90476744E+02</rscale>
<asrwt>0</asrwt>
<pdfrwt beam="1">  1        2 0.56104015E+00 0.90476744E+02</pdfrwt>
<pdfrwt beam="2">  1       -2 0.44948819E-03 0.90476744E+02</pdfrwt>
<totfact> 0.55565789E+03</totfact>
</mgrwt>
</event>
<event>
 4    1  0.4844629E-001  0.1016401E+03  0.7546771E-02  0.1276884E+00
          2   -1    0    0  501    0  0.00000000000E+00  0.00000000000E+00  0.26205354051E+04  0.26205354051E+04  0.00000000000E+00 0. -1.
         -2   -1    0    0    0  501 -0.00000000000E+00 -0.00000000000E+00 -0.39550672478E+01  0.39550672478E+01  0.00000000000E+00 0.  1.
         24    1    1    2    0    0  0.60240777222E+02 -0.15314882681E+02  0.12334844046E+04  0.12376649341E+04  0.80419002446E+02 0. -1.
        -24    1    1    2    0    0 -0.60240777222E+02  0.15314882681E+02  0.13830959332E+04  0.13868255382E+04  0.80419002446E+02 0.  1.
<mgrwt>
<rscale>  0 0.10164013E+03</rscale>
<asrwt>0</asrwt>
<pdfrwt beam="1">  1        2 0.40315791E+00 0.10164014E+03</pdfrwt>
<pdfrwt beam="2">  1       -2 0.60847398E-03 0.10164014E+03</pdfrwt>
<totfact> 0.14697490E+04</totfact>
</mgrwt>
</event>
<event>
 4    1  0.4844629E-001  0.3207206E+03  0.7546771E-02  0.1075318E+00
          1   -1    0    0  501    0  0.00000000000E+00  0.00000000000E+00  0.62403654206E+03  0.62403654206E+03  0.00000000000E+00 0. -1.
         -1   -1    0    0    0  501 -0.00000000000E+00 -0.00000000000E+00 -0.93273736537E+03  0.93273736537E+03  0.00000000000E+00 0.  1.
         24    1    1    2    0    0  0.30924365429E+03 -0.27619180289E+02 -0.86061835343E+03  0.91843651009E+03  0.80419002446E+02 0.  1.
        -24    1    1    2    0    0 -0.30924365429E+03  0.27619180289E+02  0.55191753012E+03  0.63833739735E+03  0.80419002446E+02 0. -1.
<mgrwt>
<rscale>  0 0.32072055E+03</rscale>
<asrwt>0</asrwt>
<pdfrwt beam="1">  1        1 0.96005622E-01 0.32072055E+03</pdfrwt>
<pdfrwt beam="2">  1       -1 0.14349806E+00 0.32072055E+03</pdfrwt>
<totfact> 0.14137809E+01</totfact>
</mgrwt>
</event>
<event>
 4    1  0.4844629E-001  0.1447769E+03  0.7546771E-02  0.1207042E+00
         -2   -1    0    0    0  501 -0.00000000000E+00  0.00000000000E+00  0.11251364323E+02  0.11251364323E+02  0.00000000000E+00 0.  1.
          2   -1    0    0  501    0  0.00000000000E+00 -0.00000000000E+00 -0.20643792259E+04  0.20643792259E+04  0.00000000000E+00 0. -1.
         24    1    1    2    0    0 -0.10171615088E+03  0.64396811260E+02 -0.13507719814E+04  0.13585084786E+04  0.80419002446E+02 0. -1.
        -24    1    1    2    0    0  0.10171615088E+03 -0.64396811260E+02 -0.70235588015E+03  0.71712211163E+03  0.80419002446E+02 0.  1.
<mgrwt>
<rscale>  0 0.14477686E+03</rscale>
<asrwt>0</asrwt>
<pdfrwt beam="1">  1        2 0.31759667E+00 0.14477686E+03</pdfrwt>
<pdfrwt beam="2">  1       -2 0.17309798E-02 0.14477686E+03</pdfrwt>
<totfact> 0.65154802E+03</totfact>
</mgrwt>
</event>
<event>
 4    1  0.4844629E-001  0.8575163E+02  0.7546771E-02  0.1313479E+00
         -2   -1    0    0    0  501 -0.00000000000E+00  0.00000000000E+00  0.73091356084E+01  0.73091356084E+01  0.00000000000E+00 0.  1.
          2   -1    0    0  501    0  0.00000000000E+00 -0.00000000000E+00 -0.10455699685E+04  0.10455699685E+04  0.00000000000E+00 0. -1.
         24    1    1    2    0    0 -0.92127904865E+01 -0.28306376808E+02 -0.62148100976E+03  0.62736910023E+03  0.80419002446E+02 0. -1.
        -24    1    1    2    0    0  0.92127904865E+01  0.28306376808E+02 -0.41677982312E+03  0.42551000386E+03  0.80419002446E+02 0.  1.
<mgrwt>
<rscale>  0 0.85751632E+02</rscale>
<asrwt>0</asrwt>
<pdfrwt beam="1">  1        2 0.16085691E+00 0.85751632E+02</pdfrwt>
<pdfrwt beam="2">  1       -2 0.11244824E-02 0.85751632E+02</pdfrwt>
<totfact> 0.39930470E+04</totfact>
</mgrwt>
</event>
<event>
 4    1  0.4844629E-001  0.1180460E+03  0.7546771E-02  0.1246356E+00
         -1   -1    0    0    0  501 -0.00000000000E+00  0.00000000000E+00  0.10918983914E+03  0.10918983914E+03  0.00000000000E+00 0.  1.
          1   -1    0    0  501    0  0.00000000000E+00 -0.00000000000E+00 -0.22101501767E+03  0.22101501767E+03  0.00000000000E+00 0. -1.
         24    1    1    2    0    0 -0.84940892375E+02  0.15895958877E+02  0.51413043266E+02  0.12875617918E+03  0.80419002446E+02 0.  1.
        -24    1    1    2    0    0  0.84940892375E+02 -0.15895958877E+02 -0.16323822179E+03  0.20144867762E+03  0.80419002446E+02 0. -1.
<mgrwt>
<rscale>  0 0.11804598E+03</rscale>
<asrwt>0</asrwt>
<pdfrwt beam="1">  1        1 0.34002310E-01 0.11804598E+03</pdfrwt>
<pdfrwt beam="2">  1       -1 0.16798437E-01 0.11804598E+03</pdfrwt>
<totfact> 0.33163473E+03</totfact>
</mgrwt>
</event>
<event>
 4    1  0.4844629E-001  0.9304808E+02  0.7546771E-02  0.1295634E+00
          2   -1    0    0  501    0  0.00000000000E+00  0.00000000000E+00  0.12456804733E+03  0.12456804733E+03  0.00000000000E+00 0. -1.
         -2   -1    0    0    0  501 -0.00000000000E+00 -0.00000000000E+00 -0.11965428209E+03  0.11965428209E+03  0.00000000000E+00 0.  1.
         24    1    1    2    0    0  0.46189172828E+02 -0.75689799274E+01  0.81511832829E+02  0.12370175419E+03  0.80419002446E+02 0. -1.
        -24    1    1    2    0    0 -0.46189172828E+02  0.75689799274E+01 -0.76598067586E+02  0.12052057524E+03  0.80419002446E+02 0.  1.
<mgrwt>
<rscale>  0 0.93048079E+02</rscale>
<asrwt>0</asrwt>
<pdfrwt beam="1">  1        2 0.19164315E-01 0.93048079E+02</pdfrwt>
<pdfrwt beam="2">  1       -2 0.18408351E-01 0.93048079E+02</pdfrwt>
<totfact> 0.65148111E+03</totfact>
</mgrwt>
</event>
<event>
 4    1  0.4844629E-001  0.8776979E+02  0.7546771E-02  0.1308344E+00
         -2   -1    0    0    0  501 -0.00000000000E+00  0.00000000000E+00  0.41050056355E+02  0.41050056355E+02  0.00000000000E+00 0.  1.
          2   -1    0    0  501    0  0.00000000000E+00 -0.00000000000E+00 -0.23775756000E+03  0.23775756000E+03  0.00000000000E+00 0. -1.
         24    1    1    2    0    0  0.33014234130E+02 -0.12098788949E+02 -0.16234300210E+03  0.18455022794E+03  0.80419002446E+02 0. -1.
        -24    1    1    2    0    0 -0.33014234130E+02  0.12098788949E+02 -0.34364501545E+02  0.94257388411E+02  0.80419002446E+02 0.  1.
<mgrwt>
<rscale>  0 0.87769792E+02</rscale>
<asrwt>0</asrwt>
<pdfrwt beam="1">  1        2 0.36578086E-01 0.87769792E+02</pdfrwt>
<pdfrwt beam="2">  1       -2 0.63153932E-02 0.87769792E+02</pdfrwt>
<totfact> 0.17249776E+04</totfact>
</mgrwt>
</event>
<event>
 4    1  0.4844629E-001  0.8396213E+02  0.7546771E-02  0.1318169E+00
          1   -1    0    0  501    0  0.00000000000E+00  0.00000000000E+00  0.16943705064E+02  0.16943705064E+02  0.00000000000E+00 0. -1.
         -1   -1    0    0    0  501 -0.00000000000E+00 -0.00000000000E+00 -0.42315219275E+03  0.42315219275E+03  0.00000000000E+00 0.  1.
         24    1    1    2    0    0  0.13795217550E+02  0.19801913289E+02 -0.23158711099E+03  0.24633763360E+03  0.80419002446E+02 0.  1.
        -24    1    1    2    0    0 -0.13795217550E+02 -0.19801913289E+02 -0.17462137670E+03  0.19375826421E+03  0.80419002446E+02 0. -1.
<mgrwt>
<rscale>  0 0.83962133E+02</rscale>
<asrwt>0</asrwt>
<pdfrwt beam="1">  1        1 0.26067240E-02 0.83962133E+02</pdfrwt>
<pdfrwt beam="2">  1       -1 0.65100335E-01 0.83962133E+02</pdfrwt>
<totfact> 0.92698895E+03</totfact>
</mgrwt>
</event>
<event>
 4    1  0.4844629E-001  0.8280355E+02  0.7546771E-02  0.1321278E+00
         -2   -1    0    0    0  501 -0.00000000000E+00  0.00000000000E+00  0.13564145254E+02  0.13564145254E+02  0.00000000000E+00 0.  1.
          2   -1    0    0  501    0  0.00000000000E+00 -0.00000000000E+00 -0.60455361288E+03  0.60455361288E+03  0.00000000000E+00 0. -1.
         24    1    1    2    0    0 -0.11585071724E+02 -0.15968678868E+02 -0.42060670647E+03  0.42867986898E+03  0.80419002446E+02 0. -1.
        -24    1    1    2    0    0  0.11585071724E+02  0.15968678868E+02 -0.17038276116E+03  0.18943788915E+03  0.80419002446E+02 0.  0.
<mgrwt>
<rscale>  0 0.82803554E+02</rscale>
<asrwt>0</asrwt>
<pdfrwt beam="1">  1        2 0.93008263E-01 0.82803554E+02</pdfrwt>
<pdfrwt beam="2">  1       -2 0.20867912E-02 0.82803554E+02</pdfrwt>
<totfact> 0.32258320E+04</totfact>
</mgrwt>
</event>
<event>
 4    1  0.4844629E-001  0.1847099E+03  0.7546771E-02  0.1163321E+00
         -2   -1    0    0    0  501 -0.00000000000E+00  0.00000000000E+00  0.37406695879E+02  0.37406695879E+02  0.00000000000E+00 0.  1.
          2   -1    0    0  501    0  0.00000000000E+00 -0.00000000000E+00 -0.10663339249E+04  0.10663339249E+04  0.00000000000E+00 0. -1.
         24    1    1    2    0    0  0.20480172587E+02  0.16501851580E+03 -0.72436418390E+03  0.74754346690E+03  0.80419002446E+02 0. -1.
        -24    1    1    2    0    0 -0.20480172587E+02 -0.16501851580E+03 -0.30456304511E+03  0.35619715387E+03  0.80419002446E+02 0.  1.
<mgrwt>
<rscale>  0 0.18470995E+03</rscale>
<asrwt>0</asrwt>
<pdfrwt beam="1">  1        2 0.16405138E+00 0.18470995E+03</pdfrwt>
<pdfrwt beam="2">  1       -2 0.57548759E-02 0.18470995E+03</pdfrwt>
<totfact> 0.37404908E+03</totfact>
</mgrwt>
</event>
<event>
 4    1  0.4844629E-001  0.8278061E+02  0.7546771E-02  0.1321341E+00
         -1   -1    0    0    0  501 -0.00000000000E+00  0.00000000000E+00  0.65316642066E+01  0.65316642066E+01  0.00000000000E+00 0.  1.
          1   -1    0    0  501    0  0.00000000000E+00 -0.00000000000E+00 -0.24644871622E+04  0.24644871622E+04  0.00000000000E+00 0. -1.
         24    1    1    2    0    0 -0.33527365609E+01  0.19343520901E+02 -0.29267929772E+03  0.30416081258E+03  0.80419002446E+02 0.  1.
        -24    1    1    2    0    0  0.33527365609E+01 -0.19343520901E+02 -0.21652762002E+04  0.21668580138E+04  0.80419002446E+02 0. -1.
<mgrwt>
<rscale>  0 0.82780605E+02</rscale>
<asrwt>0</asrwt>
<pdfrwt beam="1">  1        1 0.37915132E+00 0.82780605E+02</pdfrwt>
<pdfrwt beam="2">  1       -1 0.10048729E-02 0.82780605E+02</pdfrwt>
<totfact> 0.31105100E+03</totfact>
</mgrwt>
</event>
<event>
 4    1  0.4844629E-001  0.8076309E+02  0.7546771E-02  0.1326900E+00
          3   -1    0    0  501    0  0.00000000000E+00  0.00000000000E+00  0.22292382983E+02  0.22292382983E+02  0.00000000000E+00 0. -1.
         -3   -1    0    0    0  501 -0.00000000000E+00 -0.00000000000E+00 -0.29930280180E+03  0.29930280180E+03  0.00000000000E+00 0.  1.
         24    1    1    2    0    0  0.49964520117E+01  0.55220395752E+01 -0.11443579914E+03  0.14006507606E+03  0.80419002446E+02 0. -1.
        -24    1    1    2    0    0 -0.49964520117E+01 -0.55220395752E+01 -0.16257461968E+03  0.18153010872E+03  0.80419002446E+02 0.  0.
<mgrwt>
<rscale>  0 0.80763080E+02</rscale>
<asrwt>0</asrwt>
<pdfrwt beam="1">  1        3 0.34295974E-02 0.80763090E+02</pdfrwt>
<pdfrwt beam="2">  1       -3 0.46046585E-01 0.80763090E+02</pdfrwt>
<totfact> 0.39819642E+03</totfact>
</mgrwt>
</event>
<event>
 4    1  0.4844629E-001  0.8236632E+02  0.7546771E-02  0.1322467E+00
         -1   -1    0    0    0  501 -0.00000000000E+00  0.00000000000E+00  0.11447075237E+02  0.11447075237E+02  0.00000000000E+00 0.  1.
          1   -1    0    0  501    0  0.00000000000E+00 -0.00000000000E+00 -0.11017834851E+04  0.11017834851E+04  0.00000000000E+00 0. -1.
         24    1    1    2    0    0  0.17461910294E+02  0.34750192368E+01 -0.16679613850E+03  0.18602462698E+03  0.80419002446E+02 0.  1.
        -24    1    1    2    0    0 -0.17461910294E+02 -0.34750192368E+01 -0.92354027132E+03  0.92720593331E+03  0.80419002446E+02 0. -1.
<mgrwt>
<rscale>  0 0.82366316E+02</rscale>
<asrwt>0</asrwt>
<pdfrwt beam="1">  1        1 0.16950519E+00 0.82366316E+02</pdfrwt>
<pdfrwt beam="2">  1       -1 0.17610881E-02 0.82366316E+02</pdfrwt>
<totfact> 0.10392206E+04</totfact>
</mgrwt>
</event>
<event>
 4    1  0.4844629E-001  0.1123806E+03  0.7546771E-02  0.1256224E+00
          1   -1    0    0  501    0  0.00000000000E+00  0.00000000000E+00  0.60220871030E+03  0.60220871030E+03  0.00000000000E+00 0. -1.
         -1   -1    0    0    0  501 -0.00000000000E+00 -0.00000000000E+00 -0.24015690642E+02  0.24015690642E+02  0.00000000000E+00 0.  1.
         24    1    1    2    0    0 -0.46602411702E+02  0.63169541642E+02  0.17762393619E+03  0.21018956784E+03  0.80419002446E+02 0. -1.
        -24    1    1    2    0    0  0.46602411702E+02 -0.63169541642E+02  0.40056908347E+03  0.41603483310E+03  0.80419002446E+02 0.  1.
<mgrwt>
<rscale>  0 0.11238057E+03</rscale>
<asrwt>0</asrwt>
<pdfrwt beam="1">  1        1 0.92647483E-01 0.11238057E+03</pdfrwt>
<pdfrwt beam="2">  1       -1 0.36947221E-02 0.11238057E+03</pdfrwt>
<totfact> 0.91488318E+03</totfact>
</mgrwt>
</event>
<event>
 4    1  0.4844629E-001  0.8853041E+02  0.7546771E-02  0.1306450E+00
          2   -1    0    0  501    0  0.00000000000E+00  0.00000000000E+00  0.68527340579E+03  0.68527340579E+03  0.00000000000E+00 0. -1.
         -2   -1    0    0    0  501 -0.00000000000E+00 -0.00000000000E+00 -0.15169835613E+02  0.15169835613E+02  0.00000000000E+00 0.  1.
         24    1    1    2    0    0  0.81579757887E+01 -0.36109073610E+02  0.50877514287E+03  0.51642015813E+03  0.80419002446E+02 0. -1.
        -24    1    1    2    0    0 -0.81579757887E+01  0.36109073610E+02  0.16132842730E+03  0.18402308327E+03  0.80419002446E+02 0.  1.
<mgrwt>
<rscale>  0 0.88530411E+02</rscale>
<asrwt>0</asrwt>
<pdfrwt beam="1">  1        2 0.10542665E+00 0.88530411E+02</pdfrwt>
<pdfrwt beam="2">  1       -2 0.23338214E-02 0.88530411E+02</pdfrwt>
<totfact> 0.23990644E+04</totfact>
</mgrwt>
</event>
<event>
 4    1  0.4844629E-001  0.8650074E+02  0.7546771E-02  0.1311554E+00
         -1   -1    0    0    0  501 -0.00000000000E+00  0.00000000000E+00  0.10464944438E+03  0.10464944438E+03  0.00000000000E+00 0.  1.
          1   -1    0    0  501    0  0.00000000000E+00 -0.00000000000E+00 -0.15683381366E+03  0.15683381366E+03  0.00000000000E+00 0. -1.
         24    1    1    2    0    0  0.29527395087E+01 -0.31724480040E+02  0.70347554863E+02  0.11149509287E+03  0.80419002446E+02 0.  1.
        -24    1    1    2    0    0 -0.29527395087E+01  0.31724480040E+02 -0.12253192414E+03  0.14998816517E+03  0.80419002446E+02 0. -1.
<mgrwt>
<rscale>  0 0.86500736E+02</rscale>
<asrwt>0</asrwt>
<pdfrwt beam="1">  1        1 0.24128279E-01 0.86500736E+02</pdfrwt>
<pdfrwt beam="2">  1       -1 0.16099915E-01 0.86500736E+02</pdfrwt>
<totfact> 0.53094249E+03</totfact>
</mgrwt>
</event>
<event>
 4    1  0.4844629E-001  0.8944823E+02  0.7546771E-02  0.1304193E+00
         -3   -1    0    0    0  501 -0.00000000000E+00  0.00000000000E+00  0.18258431254E+04  0.18258431254E+04  0.00000000000E+00 0.  1.
          3   -1    0    0  501    0  0.00000000000E+00 -0.00000000000E+00 -0.45358586289E+01  0.45358586289E+01  0.00000000000E+00 0. -1.
         24    1    1    2    0    0 -0.21336849260E+02  0.32840656841E+02  0.10791664674E+04  0.10828671434E+04  0.80419002446E+02 0.  1.
        -24    1    1    2    0    0  0.21336849260E+02 -0.32840656841E+02  0.74214079939E+03  0.74751184068E+03  0.80419002446E+02 0. -1.
<mgrwt>
<rscale>  0 0.89448230E+02</rscale>
<asrwt>0</asrwt>
<pdfrwt beam="1">  1        3 0.69782586E-03 0.89448230E+02</pdfrwt>
<pdfrwt beam="2">  1       -3 0.28089836E+00 0.89448230E+02</pdfrwt>
<totfact> 0.58447054E+02</totfact>
</mgrwt>
</event>
<event>
 4    1  0.4844629E-001  0.1055266E+03  0.7546771E-02  0.1269086E+00
         -1   -1    0    0    0  501 -0.00000000000E+00  0.00000000000E+00  0.92243912031E+01  0.92243912031E+01  0.00000000000E+00 0.  1.
          1   -1    0    0  501    0  0.00000000000E+00 -0.00000000000E+00 -0.12434928919E+04  0.12434928919E+04  0.00000000000E+00 0. -1.
         24    1    1    2    0    0 -0.46386692779E+02  0.50168872400E+02 -0.72411377598E+03  0.73176267843E+03  0.80419002446E+02 0.  0.
        -24    1    1    2    0    0  0.46386692779E+02 -0.50168872400E+02 -0.51015472474E+03  0.52095460469E+03  0.80419002446E+02 0. -1.
<mgrwt>
<rscale>  0 0.10552658E+03</rscale>
<asrwt>0</asrwt>
<pdfrwt beam="1">  1        1 0.19130654E+00 0.10552660E+03</pdfrwt>
<pdfrwt beam="2">  1       -1 0.14191376E-02 0.10552660E+03</pdfrwt>
<totfact> 0.11505456E+04</totfact>
</mgrwt>
</event>
<event>
 4    1  0.4844629E-001  0.8938343E+02  0.7546771E-02  0.1304352E+00
         -2   -1    0    0    0  501 -0.00000000000E+00  0.00000000000E+00  0.15270204880E+02  0.15270204880E+02  0.00000000000E+00 0.  1.
          2   -1    0    0  501    0  0.00000000000E+00 -0.00000000000E+00 -0.25580449334E+04  0.25580449334E+04  0.00000000000E+00 0. -1.
         24    1    1    2    0    0  0.38967957173E+02 -0.19183191713E+01 -0.24189446376E+04  0.24205954965E+04  0.80419002446E+02 0. -1.
        -24    1    1    2    0    0 -0.38967957173E+02  0.19183191713E+01 -0.12383009094E+03  0.15271964187E+03  0.80419002446E+02 0.  1.
<mgrwt>
<rscale>  0 0.89383430E+02</rscale>
<asrwt>0</asrwt>
<pdfrwt beam="1">  1        2 0.39354523E+00 0.89383430E+02</pdfrwt>
<pdfrwt beam="2">  1       -2 0.23492632E-02 0.89383430E+02</pdfrwt>
<totfact> 0.23167548E+03</totfact>
</mgrwt>
</event>
<event>
 4    1  0.4844629E-001  0.8997986E+02  0.7546771E-02  0.1302900E+00
         -2   -1    0    0    0  501 -0.00000000000E+00  0.00000000000E+00  0.82201692287E+01  0.82201692287E+01  0.00000000000E+00 0.  1.
          2   -1    0    0  501    0  0.00000000000E+00 -0.00000000000E+00 -0.11228987219E+04  0.11228987219E+04  0.00000000000E+00 0. -1.
         24    1    1    2    0    0  0.20195513472E+02  0.34947113716E+02 -0.75557511171E+03  0.76091400625E+03  0.80419002446E+02 0. -1.
        -24    1    1    2    0    0 -0.20195513472E+02 -0.34947113716E+02 -0.35910344096E+03  0.37020488488E+03  0.80419002446E+02 0.  1.
<mgrwt>
<rscale>  0 0.89979862E+02</rscale>
<asrwt>0</asrwt>
<pdfrwt beam="1">  1        2 0.17275356E+00 0.89979862E+02</pdfrwt>
<pdfrwt beam="2">  1       -2 0.12646421E-02 0.89979862E+02</pdfrwt>
<totfact> 0.30717592E+04</totfact>
</mgrwt>
</event>
<event>
 4    1  0.4844629E-001  0.1036208E+03  0.7546771E-02  0.1272861E+00
         -2   -1    0    0    0  501 -0.00000000000E+00  0.00000000000E+00  0.22356221823E+02  0.22356221823E+02  0.00000000000E+00 0.  1.
          2   -1    0    0  501    0  0.00000000000E+00 -0.00000000000E+00 -0.12093751062E+04  0.12093751062E+04  0.00000000000E+00 0. -1.
         24    1    1    2    0    0  0.62963815681E+02  0.17481675069E+02 -0.10716959234E+04  0.10766937444E+04  0.80419002446E+02 0. -1.
        -24    1    1    2    0    0 -0.62963815681E+02 -0.17481675069E+02 -0.11532296093E+03  0.15503758358E+03  0.80419002446E+02 0.  1.
<mgrwt>
<rscale>  0 0.10362078E+03</rscale>
<asrwt>0</asrwt>
<pdfrwt beam="1">  1        2 0.18605774E+00 0.10362078E+03</pdfrwt>
<pdfrwt beam="2">  1       -2 0.34394181E-02 0.10362078E+03</pdfrwt>
<totfact> 0.65713950E+03</totfact>
</mgrwt>
</event>
<event>
 4    1  0.4844629E-001  0.8368412E+02  0.7546771E-02  0.1318910E+00
          1   -1    0    0  501    0  0.00000000000E+00  0.00000000000E+00  0.21577111077E+04  0.21577111077E+04  0.00000000000E+00 0. -1.
         -1   -1    0    0    0  501 -0.00000000000E+00 -0.00000000000E+00 -0.36900420943E+01  0.36900420943E+01  0.00000000000E+00 0.  1.
         24    1    1    2    0    0 -0.20348617627E+02 -0.11034011370E+02  0.70194654290E+03  0.70691723751E+03  0.80419002446E+02 0.  1.
        -24    1    1    2    0    0  0.20348617627E+02  0.11034011370E+02  0.14520745227E+04  0.14544839122E+04  0.80419002446E+02 0.  0.
<mgrwt>
<rscale>  0 0.83684118E+02</rscale>
<asrwt>0</asrwt>
<pdfrwt beam="1">  1        1 0.33195455E+00 0.83684118E+02</pdfrwt>
<pdfrwt beam="2">  1       -1 0.56770051E-03 0.83684118E+02</pdfrwt>
<totfact> 0.10839155E+04</totfact>
</mgrwt>
</event>
<event>
 4    1  0.4844629E-001  0.1014105E+03  0.7546771E-02  0.1277358E+00
         -2   -1    0    0    0  501 -0.00000000000E+00  0.00000000000E+00  0.26294875125E+02  0.26294875125E+02  0.00000000000E+00 0.  1.
          2   -1    0    0  501    0  0.00000000000E+00 -0.00000000000E+00 -0.99844554561E+03  0.99844554561E+03  0.00000000000E+00 0. -1.
         24    1    1    2    0    0  0.57809767579E+02 -0.21792179437E+02 -0.88568634808E+03  0.89147315801E+03  0.80419002446E+02 0. -1.
        -24    1    1    2    0    0 -0.57809767579E+02  0.21792179437E+02 -0.86464322403E+02  0.13326726273E+03  0.80419002446E+02 0.  1.
<mgrwt>
<rscale>  0 0.10141047E+03</rscale>
<asrwt>0</asrwt>
<pdfrwt beam="1">  1        2 0.15360699E+00 0.10141047E+03</pdfrwt>
<pdfrwt beam="2">  1       -2 0.40453659E-02 0.10141047E+03</pdfrwt>
<totfact> 0.68038995E+03</totfact>
</mgrwt>
</event>
<event>
 4    1  0.4844629E-001  0.1211842E+03  0.7546771E-02  0.1241156E+00
         -4   -1    0    0    0  501 -0.00000000000E+00  0.00000000000E+00  0.88651876560E+02  0.88651876560E+02  0.00000000000E+00 0.  1.
          4   -1    0    0  501    0  0.00000000000E+00 -0.00000000000E+00 -0.27036941912E+03  0.27036941912E+03  0.00000000000E+00 0. -1.
         24    1    1    2    0    0 -0.90107290456E+02  0.99534298142E+01 -0.20257468727E+03  0.23605532071E+03  0.80419002446E+02 0. -1.
        -24    1    1    2    0    0  0.90107290456E+02 -0.99534298142E+01  0.20857144718E+02  0.12296597496E+03  0.80419002446E+02 0.  1.
<mgrwt>
<rscale>  0 0.12118420E+03</rscale>
<asrwt>0</asrwt>
<pdfrwt beam="1">  1        4 0.41595294E-01 0.12118420E+03</pdfrwt>
<pdfrwt beam="2">  1       -4 0.13638751E-01 0.12118420E+03</pdfrwt>
<totfact> 0.40702161E+02</totfact>
</mgrwt>
</event>
<event>
 4    1  0.4844629E-001  0.9562100E+02  0.7546771E-02  0.1289784E+00
          2   -1    0    0  501    0  0.00000000000E+00  0.00000000000E+00  0.13585763142E+04  0.13585763142E+04  0.00000000000E+00 0. -1.
         -2   -1    0    0    0  501 -0.00000000000E+00 -0.00000000000E+00 -0.91249351152E+01  0.91249351152E+01  0.00000000000E+00 0.  1.
         24    1    1    2    0    0  0.51116567805E+02 -0.79533806795E+01  0.10250600581E+04  0.10295103197E+04  0.80419002446E+02 0. -1.
        -24    1    1    2    0    0 -0.51116567805E+02  0.79533806795E+01  0.32439132102E+03  0.33819092961E+03  0.80419002446E+02 0.  1.
<mgrwt>
<rscale>  0 0.95621000E+02</rscale>
<asrwt>0</asrwt>
<pdfrwt beam="1">  1        2 0.20901158E+00 0.95621000E+02</pdfrwt>
<pdfrwt beam="2">  1       -2 0.14038372E-02 0.95621000E+02</pdfrwt>
<totfact> 0.19868544E+04</totfact>
</mgrwt>
</event>
<event>
 4    1  0.4844629E-001  0.8285138E+02  0.7546771E-02  0.1321149E+00
         -2   -1    0    0    0  501 -0.00000000000E+00  0.00000000000E+00  0.15206607035E+03  0.15206607035E+03  0.00000000000E+00 0.  1.
          2   -1    0    0  501    0  0.00000000000E+00 -0.00000000000E+00 -0.20322604957E+04  0.20322604957E+04  0.00000000000E+00 0. -1.
         24    1    1    2    0    0 -0.76638414642E+01  0.18395673932E+02 -0.20200628124E+04  0.20217611425E+04  0.80419002446E+02 0. -1.
        -24    1    1    2    0    0  0.76638414642E+01 -0.18395673932E+02  0.13986838705E+03  0.16256542355E+03  0.80419002446E+02 0.  1.
<mgrwt>
<rscale>  0 0.82851380E+02</rscale>
<asrwt>0</asrwt>
<pdfrwt beam="1">  1        2 0.31265547E+00 0.82851380E+02</pdfrwt>
<pdfrwt beam="2">  1       -2 0.23394779E-01 0.82851380E+02</pdfrwt>
<totfact> 0.12644030E+02</totfact>
</mgrwt>
</event>
<event>
 4    1  0.4844629E-001  0.8458405E+02  0.7546771E-02  0.1316524E+00
          1   -1    0    0  501    0  0.00000000000E+00  0.00000000000E+00  0.82294900601E+03  0.82294900601E+03  0.00000000000E+00 0. -1.
         -1   -1    0    0    0  501 -0.00000000000E+00 -0.00000000000E+00 -0.12500901306E+02  0.12500901306E+02  0.00000000000E+00 0.  1.
         24    1    1    2    0    0  0.13013466008E+02  0.22757301907E+02  0.17469619144E+03  0.19409590502E+03  0.80419002446E+02 0.  1.
        -24    1    1    2    0    0 -0.13013466008E+02 -0.22757301907E+02  0.63575191327E+03  0.64135400230E+03  0.80419002446E+02 0. -1.
<mgrwt>
<rscale>  0 0.84584047E+02</rscale>
<asrwt>0</asrwt>
<pdfrwt beam="1">  1        1 0.12660750E+00 0.84584047E+02</pdfrwt>
<pdfrwt beam="2">  1       -1 0.19232162E-02 0.84584047E+02</pdfrwt>
<totfact> 0.14710510E+04</totfact>
</mgrwt>
</event>
<event>
 4    1  0.4844629E-001  0.8850518E+02  0.7546771E-02  0.1306513E+00
          2   -1    0    0  501    0  0.00000000000E+00  0.00000000000E+00  0.13056547068E+04  0.13056547068E+04  0.00000000000E+00 0. -1.
         -2   -1    0    0    0  501 -0.00000000000E+00 -0.00000000000E+00 -0.19010054285E+02  0.19010054285E+02  0.00000000000E+00 0.  1.
         24    1    1    2    0    0 -0.25037045965E+02 -0.27186329863E+02  0.11912630831E+04  0.11945463153E+04  0.80419002446E+02 0. -1.
        -24    1    1    2    0    0  0.25037045965E+02  0.27186329863E+02  0.95381569385E+02  0.13011844579E+03  0.80419002446E+02 0.  1.
<mgrwt>
<rscale>  0 0.88505176E+02</rscale>
<asrwt>0</asrwt>
<pdfrwt beam="1">  1        2 0.20086988E+00 0.88505176E+02</pdfrwt>
<pdfrwt beam="2">  1       -2 0.29246248E-02 0.88505176E+02</pdfrwt>
<totfact> 0.73380902E+03</totfact>
</mgrwt>
</event>
<event>
 4    1  0.4844629E-001  0.8201000E+02  0.7546771E-02  0.1323442E+00
          2   -1    0    0  501    0  0.00000000000E+00  0.00000000000E+00  0.25405866256E+04  0.25405866256E+04  0.00000000000E+00 0. -1.
         -2   -1    0    0    0  501 -0.00000000000E+00 -0.00000000000E+00 -0.87644127849E+02  0.87644127849E+02  0.00000000000E+00 0.  1.
         24    1    1    2    0    0  0.13421002010E+02 -0.88488103060E+01  0.25205881190E+04  0.25219219073E+04  0.80419002446E+02 0. -1.
        -24    1    1    2    0    0 -0.13421002010E+02  0.88488103060E+01 -0.67645621277E+02  0.10630884616E+03  0.80419002446E+02 0.  1.
<mgrwt>
<rscale>  0 0.82010004E+02</rscale>
<asrwt>0</asrwt>
<pdfrwt beam="1">  1        2 0.39085942E+00 0.82010004E+02</pdfrwt>
<pdfrwt beam="2">  1       -2 0.13483714E-01 0.82010004E+02</pdfrwt>
<totfact> 0.17250495E+02</totfact>
</mgrwt>
</event>
<event>
 4    1  0.4844629E-001  0.9328256E+02  0.7546771E-02  0.1295092E+00
          1   -1    0    0  501    0  0.00000000000E+00  0.00000000000E+00  0.36116200137E+03  0.36116200137E+03  0.00000000000E+00 0. -1.
         -1   -1    0    0    0  501 -0.00000000000E+00 -0.00000000000E+00 -0.49626935203E+02  0.49626935203E+02  0.00000000000E+00 0.  1.
         24    1    1    2    0    0 -0.23032608375E+02  0.41278557291E+02  0.84395921896E+01  0.93663562879E+02  0.80419002446E+02 0.  1.
        -24    1    1    2    0    0  0.23032608375E+02 -0.41278557291E+02  0.30309547398E+03  0.31712537370E+03  0.80419002446E+02 0. -1.
<mgrwt>
<rscale>  0 0.93282562E+02</rscale>
<asrwt>0</asrwt>
<pdfrwt beam="1">  1        1 0.55563383E-01 0.93282562E+02</pdfrwt>
<pdfrwt beam="2">  1       -1 0.76349133E-02 0.93282562E+02</pdfrwt>
<totfact> 0.59696666E+03</totfact>
</mgrwt>
</event>
<event>
 4    1  0.4844629E-001  0.1043096E+03  0.7546771E-02  0.1271486E+00
         -2   -1    0    0    0  501 -0.00000000000E+00  0.00000000000E+00  0.15189350641E+02  0.15189350641E+02  0.00000000000E+00 0.  1.
          2   -1    0    0  501    0  0.00000000000E+00 -0.00000000000E+00 -0.17400091070E+04  0.17400091070E+04  0.00000000000E+00 0. -1.
         24    1    1    2    0    0  0.58444784251E+02 -0.31583024768E+02 -0.15355471953E+04  0.15390859902E+04  0.80419002446E+02 0.  1.
        -24    1    1    2    0    0 -0.58444784251E+02  0.31583024768E+02 -0.18927256100E+03  0.21611246739E+03  0.80419002446E+02 0. -1.
<mgrwt>
<rscale>  0 0.10430962E+03</rscale>
<asrwt>0</asrwt>
<pdfrwt beam="1">  1        2 0.26769349E+00 0.10430962E+03</pdfrwt>
<pdfrwt beam="2">  1       -2 0.23368251E-02 0.10430962E+03</pdfrwt>
<totfact> 0.61220821E+03</totfact>
</mgrwt>
</event>
<event>
 4    1  0.4844629E-001  0.9776774E+02  0.7546771E-02  0.1285061E+00
         -1   -1    0    0    0  501 -0.00000000000E+00  0.00000000000E+00  0.74828137529E+01  0.74828137529E+01  0.00000000000E+00 0.  1.
          1   -1    0    0  501    0  0.00000000000E+00 -0.00000000000E+00 -0.13573698360E+04  0.13573698360E+04  0.00000000000E+00 0. -1.
         24    1    1    2    0    0  0.54367878503E+02  0.11638224155E+02 -0.50929957872E+03  0.51859868040E+03  0.80419002446E+02 0.  1.
        -24    1    1    2    0    0 -0.54367878503E+02 -0.11638224155E+02 -0.84058744348E+03  0.84625396930E+03  0.80419002446E+02 0. -1.
<mgrwt>
<rscale>  0 0.97767737E+02</rscale>
<asrwt>0</asrwt>
<pdfrwt beam="1">  1        1 0.20882614E+00 0.97767737E+02</pdfrwt>
<pdfrwt beam="2">  1       -1 0.11512021E-02 0.97767737E+02</pdfrwt>
<totfact> 0.12958076E+04</totfact>
</mgrwt>
</event>
<event>
 4    1  0.4844629E-001  0.8048570E+02  0.7546771E-02  0.1327679E+00
          2   -1    0    0  501    0  0.00000000000E+00  0.00000000000E+00  0.39669217853E+03  0.39669217853E+03  0.00000000000E+00 0. -1.
         -2   -1    0    0    0  501 -0.00000000000E+00 -0.00000000000E+00 -0.41889540334E+02  0.41889540334E+02  0.00000000000E+00 0.  1.
         24    1    1    2    0    0  0.40641383844E-01 -0.32756938307E+01  0.34869644758E+03  0.35786472350E+03  0.80419002446E+02 0.  0.
        -24    1    1    2    0    0 -0.40641383844E-01  0.32756938307E+01  0.61061906210E+01  0.80716995361E+02  0.80419002446E+02 0.  1.
<mgrwt>
<rscale>  0 0.80485699E+02</rscale>
<asrwt>0</asrwt>
<pdfrwt beam="1">  1        2 0.61029563E-01 0.80485699E+02</pdfrwt>
<pdfrwt beam="2">  1       -2 0.64445449E-02 0.80485699E+02</pdfrwt>
<totfact> 0.97219481E+03</totfact>
</mgrwt>
</event>
<event>
 4    1  0.4844629E-001  0.1427265E+03  0.7546771E-02  0.1209707E+00
          3   -1    0    0  501    0  0.00000000000E+00  0.00000000000E+00  0.58704888202E+02  0.58704888202E+02  0.00000000000E+00 0. -1.
         -3   -1    0    0    0  501 -0.00000000000E+00 -0.00000000000E+00 -0.37374298414E+03  0.37374298414E+03  0.00000000000E+00 0.  1.
         24    1    1    2    0    0  0.11418858872E+03  0.29404153313E+02 -0.21535348612E+03  0.25835630041E+03  0.80419002446E+02 0. -1.
        -24    1    1    2    0    0 -0.11418858872E+03 -0.29404153313E+02 -0.99684609816E+02  0.17409157192E+03  0.80419002446E+02 0.  1.
<mgrwt>
<rscale>  0 0.14272650E+03</rscale>
<asrwt>0</asrwt>
<pdfrwt beam="1">  1        3 0.90315212E-02 0.14272650E+03</pdfrwt>
<pdfrwt beam="2">  1       -3 0.57498921E-01 0.14272650E+03</pdfrwt>
<totfact> 0.61259732E+02</totfact>
</mgrwt>
</event>
<event>
 4    1  0.4844629E-001  0.8690061E+02  0.7546771E-02  0.1310536E+00
         -2   -1    0    0    0  501 -0.00000000000E+00  0.00000000000E+00  0.40044409489E+01  0.40044409489E+01  0.00000000000E+00 0.  1.
          2   -1    0    0  501    0  0.00000000000E+00 -0.00000000000E+00 -0.19027528985E+04  0.19027528985E+04  0.00000000000E+00 0. -1.
         24    1    1    2    0    0 -0.31130143419E+02  0.10742948959E+02 -0.85947533074E+03  0.86385737069E+03  0.80419002446E+02 0. -1.
        -24    1    1    2    0    0  0.31130143419E+02 -0.10742948959E+02 -0.10392731268E+04  0.10428999687E+04  0.80419002446E+02 0.  1.
<mgrwt>
<rscale>  0 0.86900602E+02</rscale>
<asrwt>0</asrwt>
<pdfrwt beam="1">  1        2 0.29273127E+00 0.86900613E+02</pdfrwt>
<pdfrwt beam="2">  1       -2 0.61606773E-03 0.86900613E+02</pdfrwt>
<totfact> 0.33488223E+04</totfact>
</mgrwt>
</event>
<event>
 4    1  0.4844629E-001  0.8200670E+02  0.7546771E-02  0.1323451E+00
          1   -1    0    0  501    0  0.00000000000E+00  0.00000000000E+00  0.13455332886E+03  0.13455332886E+03  0.00000000000E+00 0. -1.
         -1   -1    0    0    0  501 -0.00000000000E+00 -0.00000000000E+00 -0.74663731345E+02  0.74663731345E+02  0.00000000000E+00 0.  1.
         24    1    1    2    0    0 -0.61352833781E+01  0.14840516934E+02 -0.30201596444E+02  0.87391275463E+02  0.80419002446E+02 0.  1.
        -24    1    1    2    0    0  0.61352833781E+01 -0.14840516934E+02  0.90091193961E+02  0.12182578474E+03  0.80419002446E+02 0. -1.
<mgrwt>
<rscale>  0 0.82006699E+02</rscale>
<asrwt>0</asrwt>
<pdfrwt beam="1">  1        1 0.20700512E-01 0.82006699E+02</pdfrwt>
<pdfrwt beam="2">  1       -1 0.11486728E-01 0.82006699E+02</pdfrwt>
<totfact> 0.10742249E+04</totfact>
</mgrwt>
</event>
<event>
 4    1  0.4844629E-001  0.8397289E+02  0.7546771E-02  0.1318141E+00
         -2   -1    0    0    0  501 -0.00000000000E+00  0.00000000000E+00  0.27860485892E+03  0.27860485892E+03  0.00000000000E+00 0.  1.
          2   -1    0    0  501    0  0.00000000000E+00 -0.00000000000E+00 -0.29833658002E+02  0.29833658002E+02  0.00000000000E+00 0. -1.
         24    1    1    2    0    0  0.17819288968E+02 -0.16331068027E+02  0.64332213413E+02  0.10578317673E+03  0.80419002446E+02 0.  1.
        -24    1    1    2    0    0 -0.17819288968E+02  0.16331068027E+02  0.18443898750E+03  0.20265534019E+03  0.80419002446E+02 0. -1.
<mgrwt>
<rscale>  0 0.83972893E+02</rscale>
<asrwt>0</asrwt>
<pdfrwt beam="1">  1        2 0.45897937E-02 0.83972893E+02</pdfrwt>
<pdfrwt beam="2">  1       -2 0.42862284E-01 0.83972893E+02</pdfrwt>
<totfact> 0.82318024E+03</totfact>
</mgrwt>
</event>
<event>
 4    1  0.4844629E-001  0.8445005E+02  0.7546771E-02  0.1316877E+00
          2   -1    0    0  501    0  0.00000000000E+00  0.00000000000E+00  0.22517490143E+04  0.22517490143E+04  0.00000000000E+00 0. -1.
         -2   -1    0    0    0  501 -0.00000000000E+00 -0.00000000000E+00 -0.42733462207E+01  0.42733462207E+01  0.00000000000E+00 0.  1.
         24    1    1    2    0    0  0.25689255197E+02 -0.21580368132E+01  0.16976288240E+04  0.16997280474E+04  0.80419002446E+02 0. -1.
        -24    1    1    2    0    0 -0.25689255197E+02  0.21580368132E+01  0.54984684407E+03  0.55629431315E+03  0.80419002446E+02 0.  1.
<mgrwt>
<rscale>  0 0.84450050E+02</rscale>
<asrwt>0</asrwt>
<pdfrwt beam="1">  1        2 0.34642198E+00 0.84450050E+02</pdfrwt>
<pdfrwt beam="2">  1       -2 0.65743968E-03 0.84450050E+02</pdfrwt>
<totfact> 0.20355640E+04</totfact>
</mgrwt>
</event>
<event>
 4    1  0.4844629E-001  0.9188014E+02  0.7546771E-02  0.1298362E+00
          2   -1    0    0  501    0  0.00000000000E+00  0.00000000000E+00  0.98386509868E+03  0.98386509868E+03  0.00000000000E+00 0. -1.
         -2   -1    0    0    0  501 -0.00000000000E+00 -0.00000000000E+00 -0.86105985364E+01  0.86105985364E+01  0.00000000000E+00 0.  1.
         24    1    1    2    0    0  0.34400690411E+02  0.28130620675E+02  0.45823910731E+03  0.46735964176E+03  0.80419002446E+02 0. -1.
        -24    1    1    2    0    0 -0.34400690411E+02 -0.28130620675E+02  0.51701539283E+03  0.52511605546E+03  0.80419002446E+02 0.  1.
<mgrwt>
<rscale>  0 0.91880125E+02</rscale>
<asrwt>0</asrwt>
<pdfrwt beam="1">  1        2 0.15136377E+00 0.91880137E+02</pdfrwt>
<pdfrwt beam="2">  1       -2 0.13247082E-02 0.91880137E+02</pdfrwt>
<totfact> 0.34614136E+04</totfact>
</mgrwt>
</event>
<event>
 4    1  0.4844629E-001  0.8211614E+02  0.7546771E-02  0.1323151E+00
         -2   -1    0    0    0  501 -0.00000000000E+00  0.00000000000E+00  0.34917282078E+02  0.34917282078E+02  0.00000000000E+00 0.  1.
          2   -1    0    0  501    0  0.00000000000E+00 -0.00000000000E+00 -0.29074393070E+03  0.29074393070E+03  0.00000000000E+00 0. -1.
         24    1    1    2    0    0 -0.11198347478E+02  0.12265490733E+02 -0.22226928118E+03  0.23695293744E+03  0.80419002446E+02 0. -1.
        -24    1    1    2    0    0  0.11198347478E+02 -0.12265490733E+02 -0.33557367435E+02  0.88708275334E+02  0.80419002446E+02 0.  1.
<mgrwt>
<rscale>  0 0.82116145E+02</rscale>
<asrwt>0</asrwt>
<pdfrwt beam="1">  1        2 0.44729836E-01 0.82116145E+02</pdfrwt>
<pdfrwt beam="2">  1       -2 0.53718895E-02 0.82116145E+02</pdfrwt>
<totfact> 0.17676140E+04</totfact>
</mgrwt>
</event>
<event>
 4    1  0.4844629E-001  0.1141544E+03  0.7546771E-02  0.1253064E+00
          2   -1    0    0  501    0  0.00000000000E+00  0.00000000000E+00  0.87712730820E+03  0.87712730820E+03  0.00000000000E+00 0. -1.
         -2   -1    0    0    0  501 -0.00000000000E+00 -0.00000000000E+00 -0.15949509614E+02  0.15949509614E+02  0.00000000000E+00 0.  1.
         24    1    1    2    0    0 -0.53747289244E+02 -0.60623673815E+02  0.54747355363E+03  0.55924816389E+03  0.80419002446E+02 0. -1.
        -24    1    1    2    0    0  0.53747289244E+02  0.60623673815E+02  0.31370424496E+03  0.33382865393E+03  0.80419002446E+02 0.  0.
<mgrwt>
<rscale>  0 0.11415436E+03</rscale>
<asrwt>0</asrwt>
<pdfrwt beam="1">  1        2 0.13494263E+00 0.11415436E+03</pdfrwt>
<pdfrwt beam="2">  1       -2 0.24537714E-02 0.11415436E+03</pdfrwt>
<totfact> 0.16904529E+04</totfact>
</mgrwt>
</event>
<event>
 4    1  0.4844629E-001  0.9675471E+02  0.7546771E-02  0.1287272E+00
          2   -1    0    0  501    0  0.00000000000E+00  0.00000000000E+00  0.51003376208E+03  0.51003376208E+03  0.00000000000E+00 0. -1.
         -2   -1    0    0    0  501 -0.00000000000E+00 -0.00000000000E+00 -0.29526733127E+02  0.29526733127E+02  0.00000000000E+00 0.  1.
         24    1    1    2    0    0 -0.48307757378E+02 -0.23677366733E+02  0.40620082537E+03  0.41756506511E+03  0.80419002446E+02 0. -1.
        -24    1    1    2    0    0  0.48307757378E+02  0.23677366733E+02  0.74306203587E+02  0.12199543010E+03  0.80419002446E+02 0.  1.
<mgrwt>
<rscale>  0 0.96754706E+02</rscale>
<asrwt>0</asrwt>
<pdfrwt beam="1">  1        2 0.78466726E-01 0.96754706E+02</pdfrwt>
<pdfrwt beam="2">  1       -2 0.45425747E-02 0.96754706E+02</pdfrwt>
<totfact> 0.12728761E+04</totfact>
</mgrwt>
</event>
<event>
 4    1  0.4844629E-001  0.8342590E+02  0.7546771E-02  0.1319601E+00
          2   -1    0    0  501    0  0.00000000000E+00  0.00000000000E+00  0.34543295552E+04  0.34543295552E+04  0.00000000000E+00 0. -1.
         -2   -1    0    0    0  501 -0.00000000000E+00 -0.00000000000E+00 -0.20209595234E+01  0.20209595234E+01  0.00000000000E+00 0.  1.
         24    1    1    2    0    0 -0.19756139979E+02 -0.10117151243E+02  0.16309590884E+04  0.16330913709E+04  0.80419002446E+02 0.  1.
        -24    1    1    2    0    0  0.19756139979E+02  0.10117151243E+02  0.18213495072E+04  0.18232591438E+04  0.80419002446E+02 0. -1.
<mgrwt>
<rscale>  0 0.83425892E+02</rscale>
<asrwt>0</asrwt>
<pdfrwt beam="1">  1        2 0.53143059E+00 0.83425903E+02</pdfrwt>
<pdfrwt beam="2">  1       -2 0.31091961E-03 0.83425903E+02</pdfrwt>
<totfact> 0.12361897E+04</totfact>
</mgrwt>
</event>
<event>
 4    1  0.4844629E-001  0.9010780E+02  0.7546771E-02  0.1302591E+00
          2   -1    0    0  501    0  0.00000000000E+00  0.00000000000E+00  0.26731743300E+03  0.26731743300E+03  0.00000000000E+00 0. -1.
         -2   -1    0    0    0  501 -0.00000000000E+00 -0.00000000000E+00 -0.30456578018E+02  0.30456578018E+02  0.00000000000E+00 0.  1.
         24    1    1    2    0    0  0.40491606364E+02 -0.35533307723E+01  0.11066247386E+03  0.14270807763E+03  0.80419002446E+02 0.  0.
        -24    1    1    2    0    0 -0.40491606364E+02  0.35533307723E+01  0.12619838112E+03  0.15506593339E+03  0.80419002446E+02 0.  1.
<mgrwt>
<rscale>  0 0.90107793E+02</rscale>
<asrwt>0</asrwt>
<pdfrwt beam="1">  1        2 0.41125757E-01 0.90107804E+02</pdfrwt>
<pdfrwt beam="2">  1       -2 0.46856276E-02 0.90107804E+02</pdfrwt>
<totfact> 0.23874883E+04</totfact>
</mgrwt>
</event>
<event>
 4    1  0.4844629E-001  0.9853025E+02  0.7546771E-02  0.1283417E+00
         -2   -1    0    0    0  501 -0.00000000000E+00  0.00000000000E+00  0.18443623038E+02  0.18443623038E+02  0.00000000000E+00 0.  1.
          2   -1    0    0  501    0  0.00000000000E+00 -0.00000000000E+00 -0.52973198757E+03  0.52973198757E+03  0.00000000000E+00 0. -1.
         24    1    1    2    0    0 -0.88153919623E+01  0.56243030673E+02 -0.23381514903E+03  0.25372766799E+03  0.80419002446E+02 0.  1.
        -24    1    1    2    0    0  0.88153919623E+01 -0.56243030673E+02 -0.27747321550E+03  0.29444794261E+03  0.80419002446E+02 0. -1.
<mgrwt>
<rscale>  0 0.98530239E+02</rscale>
<asrwt>0</asrwt>
<pdfrwt beam="1">  1        2 0.81497219E-01 0.98530251E+02</pdfrwt>
<pdfrwt beam="2">  1       -2 0.28374808E-02 0.98530251E+02</pdfrwt>
<totfact> 0.24399690E+04</totfact>
</mgrwt>
</event>
<event>
 4    1  0.4844629E-001  0.1101958E+03  0.7546771E-02  0.1260208E+00
          2   -1    0    0  501    0  0.00000000000E+00  0.00000000000E+00  0.78623856392E+02  0.78623856392E+02  0.00000000000E+00 0. -1.
         -2   -1    0    0    0  501 -0.00000000000E+00 -0.00000000000E+00 -0.19204455854E+03  0.19204455854E+03  0.00000000000E+00 0.  1.
         24    1    1    2    0    0 -0.74265813611E+02 -0.12668073427E+02 -0.11659211759E+03  0.16042702078E+03  0.80419002446E+02 0. -1.
        -24    1    1    2    0    0  0.74265813611E+02  0.12668073427E+02  0.31714154446E+01  0.11024139416E+03  0.80419002446E+02 0. -1.
<mgrwt>
<rscale>  0 0.11019578E+03</rscale>
<asrwt>0</asrwt>
<pdfrwt beam="1">  1        2 0.12095978E-01 0.11019579E+03</pdfrwt>
<pdfrwt beam="2">  1       -2 0.29545316E-01 0.11019579E+03</pdfrwt>
<totfact> 0.49885740E+03</totfact>
</mgrwt>
</event>
<event>
 4    1  0.4844629E-001  0.1258847E+03  0.7546771E-02  0.1233693E+00
         -2   -1    0    0    0  501 -0.00000000000E+00  0.00000000000E+00  0.75693046765E+01  0.75693046765E+01  0.00000000000E+00 0.  1.
          2   -1    0    0  501    0  0.00000000000E+00 -0.00000000000E+00 -0.26187257510E+04  0.26187257510E+04  0.00000000000E+00 0. -1.
         24    1    1    2    0    0  0.23452565498E+02 -0.93966619907E+02 -0.18936189026E+04  0.18977985964E+04  0.80419002446E+02 0. -1.
        -24    1    1    2    0    0 -0.23452565498E+02  0.93966619907E+02 -0.71753754376E+03  0.72849645925E+03  0.80419002446E+02 0.  1.
<mgrwt>
<rscale>  0 0.12588473E+03</rscale>
<asrwt>0</asrwt>
<pdfrwt beam="1">  1        2 0.40288058E+00 0.12588473E+03</pdfrwt>
<pdfrwt beam="2">  1       -2 0.11645093E-02 0.12588473E+03</pdfrwt>
<totfact> 0.58862637E+03</totfact>
</mgrwt>
</event>
<event>
 4    1  0.4844629E-001  0.8549820E+02  0.7546771E-02  0.1314135E+00
          2   -1    0    0  501    0  0.00000000000E+00  0.00000000000E+00  0.11090009241E+04  0.11090009241E+04  0.00000000000E+00 0. -1.
         -2   -1    0    0    0  501 -0.00000000000E+00 -0.00000000000E+00 -0.93076297488E+01  0.93076297488E+01  0.00000000000E+00 0.  1.
         24    1    1    2    0    0 -0.18392415637E+02 -0.22459864722E+02  0.85190443444E+03  0.85618403854E+03  0.80419002446E+02 0. -1.
        -24    1    1    2    0    0  0.18392415637E+02  0.22459864722E+02  0.24778885992E+03  0.26212451532E+03  0.80419002446E+02 0.  1.
<mgrwt>
<rscale>  0 0.85498201E+02</rscale>
<asrwt>0</asrwt>
<pdfrwt beam="1">  1        2 0.17061542E+00 0.85498201E+02</pdfrwt>
<pdfrwt beam="2">  1       -2 0.14319439E-02 0.85498201E+02</pdfrwt>
<totfact> 0.26082503E+04</totfact>
</mgrwt>
</event>
<event>
 4    1  0.4844629E-001  0.1104853E+03  0.7546771E-02  0.1259674E+00
          1   -1    0    0  501    0  0.00000000000E+00  0.00000000000E+00  0.59810399525E+02  0.59810399525E+02  0.00000000000E+00 0. -1.
         -1   -1    0    0    0  501 -0.00000000000E+00 -0.00000000000E+00 -0.36702463713E+03  0.36702463713E+03  0.00000000000E+00 0.  1.
         24    1    1    2    0    0  0.63397843155E+02  0.41478794018E+02 -0.29580159946E+03  0.31576190249E+03  0.80419002446E+02 0.  1.
        -24    1    1    2    0    0 -0.63397843155E+02 -0.41478794018E+02 -0.11412638153E+02  0.11107313417E+03  0.80419002446E+02 0. -1.
<mgrwt>
<rscale>  0 0.11048526E+03</rscale>
<asrwt>0</asrwt>
<pdfrwt beam="1">  1        1 0.92015999E-02 0.11048526E+03</pdfrwt>
<pdfrwt beam="2">  1       -1 0.56465329E-01 0.11048526E+03</pdfrwt>
<totfact> 0.22525827E+03</totfact>
</mgrwt>
</event>
<event>
 4    1  0.4844629E-001  0.1250448E+03  0.7546771E-02  0.1234999E+00
         -1   -1    0    0    0  501 -0.00000000000E+00  0.00000000000E+00  0.59656948199E+03  0.59656948199E+03  0.00000000000E+00 0.  1.
          1   -1    0    0  501    0  0.00000000000E+00 -0.00000000000E+00 -0.15868851117E+03  0.15868851117E+03  0.00000000000E+00 0. -1.
         24    1    1    2    0    0  0.95486949191E+02  0.71570810066E+01  0.56397695854E+03  0.57767309700E+03  0.80419002446E+02 0.  1.
        -24    1    1    2    0    0 -0.95486949191E+02 -0.71570810066E+01 -0.12609598772E+03  0.17758489617E+03  0.80419002446E+02 0. -1.
<mgrwt>
<rscale>  0 0.12504478E+03</rscale>
<asrwt>0</asrwt>
<pdfrwt beam="1">  1        1 0.24413617E-01 0.12504478E+03</pdfrwt>
<pdfrwt beam="2">  1       -1 0.91779919E-01 0.12504478E+03</pdfrwt>
<totfact> 0.24466016E+02</totfact>
</mgrwt>
</event>
<event>
 4    1  0.4844629E-001  0.1335081E+03  0.7546771E-02  0.1222341E+00
         -1   -1    0    0    0  501 -0.00000000000E+00  0.00000000000E+00  0.25739881044E+03  0.25739881044E+03  0.00000000000E+00 0.  1.
          1   -1    0    0  501    0  0.00000000000E+00 -0.00000000000E+00 -0.60249215656E+03  0.60249215656E+03  0.00000000000E+00 0. -1.
         24    1    1    2    0    0  0.84992247572E+02  0.64292391718E+02  0.23193668222E+03  0.26761732809E+03  0.80419002446E+02 0.  1.
        -24    1    1    2    0    0 -0.84992247572E+02 -0.64292391718E+02 -0.57703002834E+03  0.59227363890E+03  0.80419002446E+02 0. -1.
<mgrwt>
<rscale>  0 0.13350809E+03</rscale>
<asrwt>0</asrwt>
<pdfrwt beam="1">  1        1 0.92691101E-01 0.13350809E+03</pdfrwt>
<pdfrwt beam="2">  1       -1 0.39599817E-01 0.13350809E+03</pdfrwt>
<totfact> 0.22702838E+02</totfact>
</mgrwt>
</event>
<event>
 4    1  0.4844629E-001  0.8392069E+02  0.7546771E-02  0.1318279E+00
          2   -1    0    0  501    0  0.00000000000E+00  0.00000000000E+00  0.73835753405E+03  0.73835753405E+03  0.00000000000E+00 0. -1.
         -2   -1    0    0    0  501 -0.00000000000E+00 -0.00000000000E+00 -0.95532911255E+01  0.95532911255E+01  0.00000000000E+00 0.  1.
         24    1    1    2    0    0  0.19287682702E+02 -0.14263508383E+02  0.34959030940E+03  0.35952199203E+03  0.80419002446E+02 0. -1.
        -24    1    1    2    0    0 -0.19287682702E+02  0.14263508383E+02  0.37921393352E+03  0.38838883314E+03  0.80419002446E+02 0.  0.
<mgrwt>
<rscale>  0 0.83920677E+02</rscale>
<asrwt>0</asrwt>
<pdfrwt beam="1">  1        2 0.11359342E+00 0.83920688E+02</pdfrwt>
<pdfrwt beam="2">  1       -2 0.14697377E-02 0.83920688E+02</pdfrwt>
<totfact> 0.42375919E+04</totfact>
</mgrwt>
</event>
<event>
 4    1  0.4844629E-001  0.8340703E+02  0.7546771E-02  0.1319652E+00
         -2   -1    0    0    0  501 -0.00000000000E+00  0.00000000000E+00  0.10684524824E+02  0.10684524824E+02  0.00000000000E+00 0.  1.
          2   -1    0    0  501    0  0.00000000000E+00 -0.00000000000E+00 -0.69331049437E+03  0.69331049437E+03  0.00000000000E+00 0. -1.
         24    1    1    2    0    0 -0.18310677888E+02  0.12419136343E+02 -0.42816257308E+03  0.43621086737E+03  0.80419002446E+02 0. -1.
        -24    1    1    2    0    0  0.18310677888E+02 -0.12419136343E+02 -0.25446339647E+03  0.26778415182E+03  0.80419002446E+02 0.  1.
<mgrwt>
<rscale>  0 0.83407025E+02</rscale>
<asrwt>0</asrwt>
<pdfrwt beam="1">  1        2 0.10666314E+00 0.83407025E+02</pdfrwt>
<pdfrwt beam="2">  1       -2 0.16437733E-02 0.83407025E+02</pdfrwt>
<totfact> 0.38866776E+04</totfact>
</mgrwt>
</event>
<event>
 4    1  0.4844629E-001  0.8285240E+02  0.7546771E-02  0.1321146E+00
          2   -1    0    0  501    0  0.00000000000E+00  0.00000000000E+00  0.80524144493E+03  0.80524144493E+03  0.00000000000E+00 0. -1.
         -2   -1    0    0    0  501 -0.00000000000E+00 -0.00000000000E+00 -0.11154356883E+03  0.11154356883E+03  0.00000000000E+00 0.  1.
         24    1    1    2    0    0 -0.19890859659E+02 -0.12875340871E+01  0.78737684495E+03  0.79172395187E+03  0.80419002446E+02 0. -1.
        -24    1    1    2    0    0  0.19890859659E+02  0.12875340871E+01 -0.93678968852E+02  0.12506106189E+03  0.80419002446E+02 0.  1.
<mgrwt>
<rscale>  0 0.82852399E+02</rscale>
<asrwt>0</asrwt>
<pdfrwt beam="1">  1        2 0.12388330E+00 0.82852399E+02</pdfrwt>
<pdfrwt beam="2">  1       -2 0.17160550E-01 0.82852399E+02</pdfrwt>
<totfact> 0.96080787E+02</totfact>
</mgrwt>
</event>
<event>
 4    1  0.4844629E-001  0.1006222E+03  0.7546771E-02  0.1278993E+00
          2   -1    0    0  501    0  0.00000000000E+00  0.00000000000E+00  0.52184647868E+02  0.52184647868E+02  0.00000000000E+00 0. -1.
         -2   -1    0    0    0  501 -0.00000000000E+00 -0.00000000000E+00 -0.20497993742E+03  0.20497993742E+03  0.00000000000E+00 0.  1.
         24    1    1    2    0    0  0.47475826446E+02  0.37465447827E+02 -0.46664351133E+02  0.11091614625E+03  0.80419002446E+02 0.  0.
        -24    1    1    2    0    0 -0.47475826446E+02 -0.37465447827E+02 -0.10613093842E+03  0.14624843904E+03  0.80419002446E+02 0.  1.
<mgrwt>
<rscale>  0 0.10062221E+03</rscale>
<asrwt>0</asrwt>
<pdfrwt beam="1">  1        2 0.80284074E-02 0.10062221E+03</pdfrwt>
<pdfrwt beam="2">  1       -2 0.31535375E-01 0.10062221E+03</pdfrwt>
<totfact> 0.72604841E+03</totfact>
</mgrwt>
</event>
<event>
 4    1  0.4844629E-001  0.8911992E+02  0.7546771E-02  0.1304997E+00
          1   -1    0    0  501    0  0.00000000000E+00  0.00000000000E+00  0.22516837387E+04  0.22516837387E+04  0.00000000000E+00 0. -1.
         -1   -1    0    0    0  501 -0.00000000000E+00 -0.00000000000E+00 -0.50738614060E+01  0.50738614060E+01  0.00000000000E+00 0.  1.
         24    1    1    2    0    0  0.48332287848E+01 -0.38102286098E+02  0.50033163169E+03  0.50820675117E+03  0.80419002446E+02 0.  1.
        -24    1    1    2    0    0 -0.48332287848E+01  0.38102286098E+02  0.17462782456E+04  0.17485508490E+04  0.80419002446E+02 0. -1.
<mgrwt>
<rscale>  0 0.89119921E+02</rscale>
<asrwt>0</asrwt>
<pdfrwt beam="1">  1        1 0.34641208E+00 0.89119921E+02</pdfrwt>
<pdfrwt beam="2">  1       -1 0.78059586E-03 0.89119921E+02</pdfrwt>
<totfact> 0.60690677E+03</totfact>
</mgrwt>
</event>
<event>
 4    1  0.4844629E-001  0.8487972E+02  0.7546771E-02  0.1315747E+00
          2   -1    0    0  501    0  0.00000000000E+00  0.00000000000E+00  0.45997173151E+03  0.45997173151E+03  0.00000000000E+00 0. -1.
         -2   -1    0    0    0  501 -0.00000000000E+00 -0.00000000000E+00 -0.15831246051E+02  0.15831246051E+02  0.00000000000E+00 0.  1.
         24    1    1    2    0    0  0.20432827097E+02 -0.17884244675E+02  0.19754908924E+03  0.21501210488E+03  0.80419002446E+02 0. -1.
        -24    1    1    2    0    0 -0.20432827097E+02  0.17884244675E+02  0.24659139622E+03  0.26079087268E+03  0.80419002446E+02 0.  1.
<mgrwt>
<rscale>  0 0.84879705E+02</rscale>
<asrwt>0</asrwt>
<pdfrwt beam="1">  1        2 0.70764872E-01 0.84879716E+02</pdfrwt>
<pdfrwt beam="2">  1       -2 0.24355767E-02 0.84879716E+02</pdfrwt>
<totfact> 0.34874114E+04</totfact>
</mgrwt>
</event>
<event>
 4    1  0.4844629E-001  0.9374480E+02  0.7546771E-02  0.1294028E+00
         -2   -1    0    0    0  501 -0.00000000000E+00  0.00000000000E+00  0.11343603936E+02  0.11343603936E+02  0.00000000000E+00 0.  1.
          2   -1    0    0  501    0  0.00000000000E+00 -0.00000000000E+00 -0.79631131011E+03  0.79631131011E+03  0.00000000000E+00 0. -1.
         24    1    1    2    0    0 -0.48174079138E+02 -0.35455969848E+00 -0.32598358471E+03  0.33919519611E+03  0.80419002446E+02 0.  0.
        -24    1    1    2    0    0  0.48174079138E+02  0.35455969848E+00 -0.45898412146E+03  0.46845971793E+03  0.80419002446E+02 0.  1.
<mgrwt>
<rscale>  0 0.93744791E+02</rscale>
<asrwt>0</asrwt>
<pdfrwt beam="1">  1        2 0.12250940E+00 0.93744802E+02</pdfrwt>
<pdfrwt beam="2">  1       -2 0.17451702E-02 0.93744802E+02</pdfrwt>
<totfact> 0.30650762E+04</totfact>
</mgrwt>
</event>
<event>
 4    1  0.4844629E-001  0.9732970E+02  0.7546771E-02  0.1286014E+00
          3   -1    0    0  501    0  0.00000000000E+00  0.00000000000E+00  0.94590496120E+02  0.94590496120E+02  0.00000000000E+00 0. -1.
         -3   -1    0    0    0  501 -0.00000000000E+00 -0.00000000000E+00 -0.10755084066E+03  0.10755084066E+03  0.00000000000E+00 0.  1.
         24    1    1    2    0    0 -0.47052577736E+02  0.28140798929E+02  0.20036089074E+02  0.99370571377E+02  0.80419002446E+02 0. -1.
        -24    1    1    2    0    0  0.47052577736E+02 -0.28140798929E+02 -0.32996433615E+02  0.10277076540E+03  0.80419002446E+02 0.  1.
<mgrwt>
<rscale>  0 0.97329687E+02</rscale>
<asrwt>0</asrwt>
<pdfrwt beam="1">  1        3 0.14552384E-01 0.97329699E+02</pdfrwt>
<pdfrwt beam="2">  1       -3 0.16546283E-01 0.97329699E+02</pdfrwt>
<totfact> 0.26264173E+03</totfact>
</mgrwt>
</event>
<event>
 4    1  0.4844629E-001  0.8071732E+02  0.7546771E-02  0.1327028E+00
          2   -1    0    0  501    0  0.00000000000E+00  0.00000000000E+00  0.38896718702E+03  0.38896718702E+03  0.00000000000E+00 0. -1.
         -2   -1    0    0    0  501 -0.00000000000E+00 -0.00000000000E+00 -0.16959870001E+02  0.16959870001E+02  0.00000000000E+00 0.  1.
         24    1    1    2    0    0  0.68125473255E+01  0.12878970315E+01  0.20856970960E+03  0.22364393396E+03  0.80419002446E+02 0. -1.
        -24    1    1    2    0    0 -0.68125473255E+01 -0.12878970315E+01  0.16343760742E+03  0.18228312306E+03  0.80419002446E+02 0.  0.
<mgrwt>
<rscale>  0 0.80717318E+02</rscale>
<asrwt>0</asrwt>
<pdfrwt beam="1">  1        2 0.59841099E-01 0.80717318E+02</pdfrwt>
<pdfrwt beam="2">  1       -2 0.26092111E-02 0.80717318E+02</pdfrwt>
<totfact> 0.37454942E+04</totfact>
</mgrwt>
</event>
<event>
 4    1  0.4844629E-001  0.8818715E+02  0.7546771E-02  0.1307302E+00
         -1   -1    0    0    0  501 -0.00000000000E+00  0.00000000000E+00  0.24847121849E+03  0.24847121849E+03  0.00000000000E+00 0.  1.
          1   -1    0    0  501    0  0.00000000000E+00 -0.00000000000E+00 -0.16069915933E+03  0.16069915933E+03  0.00000000000E+00 0. -1.
         24    1    1    2    0    0 -0.26441379412E+02  0.24710528582E+02  0.22746980881E+03  0.24396615881E+03  0.80419002446E+02 0.  1.
        -24    1    1    2    0    0  0.26441379412E+02 -0.24710528582E+02 -0.13969774965E+03  0.16520421901E+03  0.80419002446E+02 0. -1.
<mgrwt>
<rscale>  0 0.88187146E+02</rscale>
<asrwt>0</asrwt>
<pdfrwt beam="1">  1        1 0.24722948E-01 0.88187146E+02</pdfrwt>
<pdfrwt beam="2">  1       -1 0.38226341E-01 0.88187146E+02</pdfrwt>
<totfact> 0.12625197E+03</totfact>
</mgrwt>
</event>
<event>
 4    1  0.4844629E-001  0.9625660E+02  0.7546771E-02  0.1288371E+00
          1   -1    0    0  501    0  0.00000000000E+00  0.00000000000E+00  0.18787206520E+03  0.18787206520E+03  0.00000000000E+00 0. -1.
         -1   -1    0    0    0  501 -0.00000000000E+00 -0.00000000000E+00 -0.14401457355E+03  0.14401457355E+03  0.00000000000E+00 0.  1.
         24    1    1    2    0    0 -0.48913291199E+02  0.20139689539E+02 -0.11263417649E+03  0.14816136749E+03  0.80419002446E+02 0.  1.
        -24    1    1    2    0    0  0.48913291199E+02 -0.20139689539E+02  0.15649166813E+03  0.18372527126E+03  0.80419002446E+02 0. -1.
<mgrwt>
<rscale>  0 0.96256600E+02</rscale>
<asrwt>0</asrwt>
<pdfrwt beam="1">  1        1 0.28903394E-01 0.96256600E+02</pdfrwt>
<pdfrwt beam="2">  1       -1 0.22156088E-01 0.96256600E+02</pdfrwt>
<totfact> 0.25813677E+03</totfact>
</mgrwt>
</event>
<event>
 4    1  0.4844629E-001  0.1062609E+03  0.7546771E-02  0.1267655E+00
          2   -1    0    0  501    0  0.00000000000E+00  0.00000000000E+00  0.30849316060E+04  0.30849316060E+04  0.00000000000E+00 0. -1.
         -2   -1    0    0    0  501 -0.00000000000E+00 -0.00000000000E+00 -0.52798979398E+01  0.52798979398E+01  0.00000000000E+00 0.  1.
         24    1    1    2    0    0  0.40467473815E+02 -0.56449454717E+02  0.23956144925E+04  0.23979700102E+04  0.80419002446E+02 0. -1.
        -24    1    1    2    0    0 -0.40467473815E+02  0.56449454717E+02  0.68403721552E+03  0.69224149366E+03  0.80419002446E+02 0.  1.
<mgrwt>
<rscale>  0 0.10626087E+03</rscale>
<asrwt>0</asrwt>
<pdfrwt beam="1">  1        2 0.47460342E+00 0.10626087E+03</pdfrwt>
<pdfrwt beam="2">  1       -2 0.81229446E-03 0.10626087E+03</pdfrwt>
<totfact> 0.53851969E+03</totfact>
</mgrwt>
</event>
<event>
 4    1  0.4844629E-001  0.9042603E+02  0.7546771E-02  0.1301823E+00
         -2   -1    0    0    0  501 -0.00000000000E+00  0.00000000000E+00  0.24348806458E+01  0.24348806458E+01  0.00000000000E+00 0.  1.
          2   -1    0    0  501    0  0.00000000000E+00 -0.00000000000E+00 -0.34818797227E+04  0.34818797227E+04  0.00000000000E+00 0. -1.
         24    1    1    2    0    0 -0.29034890016E+02  0.29438517142E+02 -0.20680391629E+04  0.20700151803E+04  0.80419002446E+02 0.  1.
        -24    1    1    2    0    0  0.29034890016E+02 -0.29438517142E+02 -0.14114056791E+04  0.14142994231E+04  0.80419002446E+02 0. -1.
<mgrwt>
<rscale>  0 0.90426031E+02</rscale>
<asrwt>0</asrwt>
<pdfrwt beam="1">  1        2 0.53567242E+00 0.90426031E+02</pdfrwt>
<pdfrwt beam="2">  1       -2 0.37459799E-03 0.90426031E+02</pdfrwt>
<totfact> 0.91707851E+03</totfact>
</mgrwt>
</event>
<event>
 4    1  0.4844629E-001  0.9392644E+02  0.7546771E-02  0.1293612E+00
          2   -1    0    0  501    0  0.00000000000E+00  0.00000000000E+00  0.29456019078E+04  0.29456019078E+04  0.00000000000E+00 0. -1.
         -2   -1    0    0    0  501 -0.00000000000E+00 -0.00000000000E+00 -0.47467273684E+01  0.47467273684E+01  0.00000000000E+00 0.  1.
         24    1    1    2    0    0  0.46047269592E+01 -0.48308974886E+02  0.23665664249E+04  0.23684296105E+04  0.80419002446E+02 0. -1.
        -24    1    1    2    0    0 -0.46047269592E+01  0.48308974886E+02  0.57428875556E+03  0.58191902467E+03  0.80419002446E+02 0.  1.
<mgrwt>
<rscale>  0 0.93926442E+02</rscale>
<asrwt>0</asrwt>
<pdfrwt beam="1">  1        2 0.45316806E+00 0.93926442E+02</pdfrwt>
<pdfrwt beam="2">  1       -2 0.73026810E-03 0.93926442E+02</pdfrwt>
<totfact> 0.75177702E+03</totfact>
</mgrwt>
</event>
<event>
 4    1  0.4844629E-001  0.8304107E+02  0.7546771E-02  0.1320636E+00
          1   -1    0    0  501    0  0.00000000000E+00  0.00000000000E+00  0.26587170897E+02  0.26587170897E+02  0.00000000000E+00 0. -1.
         -1   -1    0    0    0  501 -0.00000000000E+00 -0.00000000000E+00 -0.29477973391E+03  0.29477973391E+03  0.00000000000E+00 0.  1.
         24    1    1    2    0    0  0.19540404713E+02 -0.68392465469E+01 -0.18978994443E+03  0.20716187311E+03  0.80419002446E+02 0.  1.
        -24    1    1    2    0    0 -0.19540404713E+02  0.68392465469E+01 -0.78402618586E+02  0.11420503170E+03  0.80419002446E+02 0. -1.
<mgrwt>
<rscale>  0 0.83041066E+02</rscale>
<asrwt>0</asrwt>
<pdfrwt beam="1">  1        1 0.40903341E-02 0.83041066E+02</pdfrwt>
<pdfrwt beam="2">  1       -1 0.45350727E-01 0.83041066E+02</pdfrwt>
<totfact> 0.97317918E+03</totfact>
</mgrwt>
</event>
<event>
 4    1  0.4844629E-001  0.8284692E+02  0.7546771E-02  0.1321161E+00
          2   -1    0    0  501    0  0.00000000000E+00  0.00000000000E+00  0.22350552822E+04  0.22350552822E+04  0.00000000000E+00 0. -1.
         -2   -1    0    0    0  501 -0.00000000000E+00 -0.00000000000E+00 -0.16207961047E+02  0.16207961047E+02  0.00000000000E+00 0.  1.
         24    1    1    2    0    0  0.18625874069E+02  0.70336826177E+01  0.21228247004E+04  0.21244407077E+04  0.80419002446E+02 0. -1.
        -24    1    1    2    0    0 -0.18625874069E+02 -0.70336826177E+01  0.96022620750E+02  0.12682253556E+03  0.80419002446E+02 0.  1.
<mgrwt>
<rscale>  0 0.82846918E+02</rscale>
<asrwt>0</asrwt>
<pdfrwt beam="1">  1        2 0.34385442E+00 0.82846918E+02</pdfrwt>
<pdfrwt beam="2">  1       -2 0.24935342E-02 0.82846918E+02</pdfrwt>
<totfact> 0.31251504E+03</totfact>
</mgrwt>
</event>
<event>
 4    1  0.4844629E-001  0.1295628E+03  0.7546771E-02  0.1228106E+00
         -1   -1    0    0    0  501 -0.00000000000E+00  0.00000000000E+00  0.31857105613E+02  0.31857105613E+02  0.00000000000E+00 0.  1.
          1   -1    0    0  501    0  0.00000000000E+00 -0.00000000000E+00 -0.75301328821E+03  0.75301328821E+03  0.00000000000E+00 0. -1.
         24    1    1    2    0    0  0.10120230703E+03 -0.87970112988E+01 -0.14554787796E+03  0.19486070688E+03  0.80419002446E+02 0.  1.
        -24    1    1    2    0    0 -0.10120230703E+03  0.87970112988E+01 -0.57560830464E+03  0.59000968694E+03  0.80419002446E+02 0. -1.
<mgrwt>
<rscale>  0 0.12956277E+03</rscale>
<asrwt>0</asrwt>
<pdfrwt beam="1">  1        1 0.11584819E+00 0.12956277E+03</pdfrwt>
<pdfrwt beam="2">  1       -1 0.49010937E-02 0.12956277E+03</pdfrwt>
<totfact> 0.44509742E+03</totfact>
</mgrwt>
</event>
<event>
 4    1  0.4844629E-001  0.9677429E+02  0.7546771E-02  0.1287229E+00
          2   -1    0    0  501    0  0.00000000000E+00  0.00000000000E+00  0.17581813162E+04  0.17581813162E+04  0.00000000000E+00 0. -1.
         -2   -1    0    0    0  501 -0.00000000000E+00 -0.00000000000E+00 -0.20265592206E+02  0.20265592206E+02  0.00000000000E+00 0.  1.
         24    1    1    2    0    0 -0.36180476415E+02 -0.39862529738E+02  0.16324257755E+04  0.16352917711E+04  0.80419002446E+02 0. -1.
        -24    1    1    2    0    0  0.36180476415E+02  0.39862529738E+02  0.10548994851E+03  0.14315513732E+03  0.80419002446E+02 0.  1.
<mgrwt>
<rscale>  0 0.96774295E+02</rscale>
<asrwt>0</asrwt>
<pdfrwt beam="1">  1        2 0.27048931E+00 0.96774295E+02</pdfrwt>
<pdfrwt beam="2">  1       -2 0.31177848E-02 0.96774295E+02</pdfrwt>
<totfact> 0.39355080E+03</totfact>
</mgrwt>
</event>
<event>
 4    1  0.4844629E-001  0.8400517E+02  0.7546771E-02  0.1318055E+00
          2   -1    0    0  501    0  0.00000000000E+00  0.00000000000E+00  0.46824853078E+03  0.46824853078E+03  0.00000000000E+00 0. -1.
         -2   -1    0    0    0  501 -0.00000000000E+00 -0.00000000000E+00 -0.19124130553E+02  0.19124130553E+02  0.00000000000E+00 0.  1.
         24    1    1    2    0    0  0.10678705866E+02  0.21808669464E+02  0.33675051091E+03  0.34707027441E+03  0.80419002446E+02 0. -1.
        -24    1    1    2    0    0 -0.10678705866E+02 -0.21808669464E+02  0.11237388931E+03  0.14030238692E+03  0.80419002446E+02 0.  0.
<mgrwt>
<rscale>  0 0.84005171E+02</rscale>
<asrwt>0</asrwt>
<pdfrwt beam="1">  1        2 0.72038227E-01 0.84005171E+02</pdfrwt>
<pdfrwt beam="2">  1       -2 0.29421743E-02 0.84005171E+02</pdfrwt>
<totfact> 0.26007656E+04</totfact>
</mgrwt>
</event>
<event>
 4    1  0.4844629E-001  0.1967212E+03  0.7546771E-02  0.1152535E+00
          2   -1    0    0  501    0  0.00000000000E+00  0.00000000000E+00  0.23535446515E+04  0.23535446515E+04  0.00000000000E+00 0. -1.
         -2   -1    0    0    0  501 -0.00000000000E+00 -0.00000000000E+00 -0.14479186143E+03  0.14479186143E+03  0.00000000000E+00 0.  1.
         24    1    1    2    0    0  0.12774826927E+03 -0.12614429191E+03  0.22804783110E+04  0.22889474755E+04  0.80419002446E+02 0. -1.
        -24    1    1    2    0    0 -0.12774826927E+03  0.12614429191E+03 -0.71725520938E+02  0.20938903742E+03  0.80419002446E+02 0.  1.
<mgrwt>
<rscale>  0 0.19672117E+03</rscale>
<asrwt>0</asrwt>
<pdfrwt beam="1">  1        2 0.36208376E+00 0.19672117E+03</pdfrwt>
<pdfrwt beam="2">  1       -2 0.22275673E-01 0.19672117E+03</pdfrwt>
<totfact> 0.87172424E+01</totfact>
</mgrwt>
</event>
<event>
 4    1  0.4844629E-001  0.1043231E+03  0.7546771E-02  0.1271459E+00
          2   -1    0    0  501    0  0.00000000000E+00  0.00000000000E+00  0.23532820691E+03  0.23532820691E+03  0.00000000000E+00 0. -1.
         -2   -1    0    0    0  501 -0.00000000000E+00 -0.00000000000E+00 -0.47022799161E+02  0.47022799161E+02  0.00000000000E+00 0.  1.
         24    1    1    2    0    0  0.66407689920E+02  0.24729183333E+01  0.11228170618E+03  0.15326608921E+03  0.80419002446E+02 0. -1.
        -24    1    1    2    0    0 -0.66407689920E+02 -0.24729183333E+01  0.76023701573E+02  0.12908491686E+03  0.80419002446E+02 0.  1.
<mgrwt>
<rscale>  0 0.10432312E+03</rscale>
<asrwt>0</asrwt>
<pdfrwt beam="1">  1        2 0.36204339E-01 0.10432312E+03</pdfrwt>
<pdfrwt beam="2">  1       -2 0.72342769E-02 0.10432312E+03</pdfrwt>
<totfact> 0.14441790E+04</totfact>
</mgrwt>
</event>
<event>
 4    1  0.4844629E-001  0.8077906E+02  0.7546771E-02  0.1326855E+00
          2   -1    0    0  501    0  0.00000000000E+00  0.00000000000E+00  0.74079157539E+02  0.74079157539E+02  0.00000000000E+00 0. -1.
         -2   -1    0    0    0  501 -0.00000000000E+00 -0.00000000000E+00 -0.88091211768E+02  0.88091211768E+02  0.00000000000E+00 0.  1.
         24    1    1    2    0    0  0.76180929741E+01 -0.39805010121E-01 -0.76940744753E+01  0.81144634212E+02  0.80419002446E+02 0. -1.
        -24    1    1    2    0    0 -0.76180929741E+01  0.39805010121E-01 -0.63179797537E+01  0.81025735094E+02  0.80419002446E+02 0.  1.
<mgrwt>
<rscale>  0 0.80779047E+02</rscale>
<asrwt>0</asrwt>
<pdfrwt beam="1">  1        2 0.11396793E-01 0.80779058E+02</pdfrwt>
<pdfrwt beam="2">  1       -2 0.13552494E-01 0.80779058E+02</pdfrwt>
<totfact> 0.19278876E+04</totfact>
</mgrwt>
</event>
<event>
 4    1  0.4844629E-001  0.1592431E+03  0.7546771E-02  0.1189554E+00
          2   -1    0    0  501    0  0.00000000000E+00  0.00000000000E+00  0.63491231756E+02  0.63491231756E+02  0.00000000000E+00 0. -1.
         -2   -1    0    0    0  501 -0.00000000000E+00 -0.00000000000E+00 -0.41644000962E+03  0.41644000962E+03  0.00000000000E+00 0.  1.
         24    1    1    2    0    0  0.11272200834E+03 -0.78643962142E+02 -0.22501657978E+03  0.27566429053E+03  0.80419002446E+02 0.  0.
        -24    1    1    2    0    0 -0.11272200834E+03  0.78643962142E+02 -0.12793219809E+03  0.20426695084E+03  0.80419002446E+02 0.  0.
<mgrwt>
<rscale>  0 0.15924304E+03</rscale>
<asrwt>0</asrwt>
<pdfrwt beam="1">  1        2 0.97678818E-02 0.15924306E+03</pdfrwt>
<pdfrwt beam="2">  1       -2 0.64067694E-01 0.15924306E+03</pdfrwt>
<totfact> 0.14866561E+03</totfact>
</mgrwt>
</event>
<event>
 4    1  0.4844629E-001  0.9615133E+02  0.7546771E-02  0.1288604E+00
         -2   -1    0    0    0  501 -0.00000000000E+00  0.00000000000E+00  0.11994347199E+03  0.11994347199E+03  0.00000000000E+00 0.  1.
          2   -1    0    0  501    0  0.00000000000E+00 -0.00000000000E+00 -0.79642412680E+02  0.79642412680E+02  0.00000000000E+00 0. -1.
         24    1    1    2    0    0 -0.46669359289E+02 -0.24491495850E+02  0.22457787347E+01  0.96177554252E+02  0.80419002446E+02 0. -1.
        -24    1    1    2    0    0  0.46669359289E+02  0.24491495850E+02  0.38055280570E+02  0.10340833041E+03  0.80419002446E+02 0.  0.
<mgrwt>
<rscale>  0 0.96151331E+02</rscale>
<asrwt>0</asrwt>
<pdfrwt beam="1">  1        2 0.12252679E-01 0.96151331E+02</pdfrwt>
<pdfrwt beam="2">  1       -2 0.18452842E-01 0.96151331E+02</pdfrwt>
<totfact> 0.10908804E+04</totfact>
</mgrwt>
</event>
<event>
 4    1  0.4844629E-001  0.9202259E+02  0.7546771E-02  0.1298026E+00
         -2   -1    0    0    0  501 -0.00000000000E+00  0.00000000000E+00  0.67248570340E+03  0.67248570340E+03  0.00000000000E+00 0.  1.
          2   -1    0    0  501    0  0.00000000000E+00 -0.00000000000E+00 -0.30474689807E+02  0.30474689807E+02  0.00000000000E+00 0. -1.
         24    1    1    2    0    0 -0.19647649242E+02  0.40185963097E+02  0.51762951306E+02  0.10558200999E+03  0.80419002446E+02 0. -1.
        -24    1    1    2    0    0  0.19647649242E+02 -0.40185963097E+02  0.59024806228E+03  0.59737838322E+03  0.80419002446E+02 0.  1.
<mgrwt>
<rscale>  0 0.92022593E+02</rscale>
<asrwt>0</asrwt>
<pdfrwt beam="1">  1        2 0.46884143E-02 0.92022593E+02</pdfrwt>
<pdfrwt beam="2">  1       -2 0.10345933E+00 0.92022593E+02</pdfrwt>
<totfact> 0.12806643E+03</totfact>
</mgrwt>
</event>
<event>
 4    1  0.4844629E-001  0.1060171E+03  0.7546771E-02  0.1268129E+00
         -1   -1    0    0    0  501 -0.00000000000E+00  0.00000000000E+00  0.45488405080E+03  0.45488405080E+03  0.00000000000E+00 0.  1.
          1   -1    0    0  501    0  0.00000000000E+00 -0.00000000000E+00 -0.11943526537E+03  0.11943526537E+03  0.00000000000E+00 0. -1.
         24    1    1    2    0    0  0.10953440743E+02 -0.68208744623E+02  0.42346098075E+03  0.43653044439E+03  0.80419002446E+02 0.  1.
        -24    1    1    2    0    0 -0.10953440743E+02  0.68208744623E+02 -0.88012195323E+02  0.13778887178E+03  0.80419002446E+02 0. -1.
<mgrwt>
<rscale>  0 0.10601711E+03</rscale>
<asrwt>0</asrwt>
<pdfrwt beam="1">  1        1 0.18374656E-01 0.10601711E+03</pdfrwt>
<pdfrwt beam="2">  1       -1 0.69982161E-01 0.10601711E+03</pdfrwt>
<totfact> 0.60890940E+02</totfact>
</mgrwt>
</event>
<event>
 4    1  0.4844629E-001  0.9039853E+02  0.7546771E-02  0.1301889E+00
         -1   -1    0    0    0  501 -0.00000000000E+00  0.00000000000E+00  0.28828792689E+03  0.28828792689E+03  0.00000000000E+00 0.  1.
          1   -1    0    0  501    0  0.00000000000E+00 -0.00000000000E+00 -0.52631240828E+03  0.52631240828E+03  0.00000000000E+00 0. -1.
         24    1    1    2    0    0  0.27857703408E+02 -0.30473365430E+02  0.27716788074E+03  0.29153718066E+03  0.80419002446E+02 0.  1.
        -24    1    1    2    0    0 -0.27857703408E+02  0.30473365430E+02 -0.51519236213E+03  0.52306315450E+03  0.80419002446E+02 0. -1.
<mgrwt>
<rscale>  0 0.90398527E+02</rscale>
<asrwt>0</asrwt>
<pdfrwt beam="1">  1        1 0.80971140E-01 0.90398527E+02</pdfrwt>
<pdfrwt beam="2">  1       -1 0.44351989E-01 0.90398527E+02</pdfrwt>
<totfact> 0.22504358E+02</totfact>
</mgrwt>
</event>
<event>
 4    1  0.4844629E-001  0.8778432E+02  0.7546771E-02  0.1308308E+00
         -1   -1    0    0    0  501 -0.00000000000E+00  0.00000000000E+00  0.39089711573E+02  0.39089711573E+02  0.00000000000E+00 0.  1.
          1   -1    0    0  501    0  0.00000000000E+00 -0.00000000000E+00 -0.34113505750E+03  0.34113505750E+03  0.00000000000E+00 0. -1.
         24    1    1    2    0    0  0.16657507421E+02  0.31006417255E+02 -0.27506645911E+02  0.91992945317E+02  0.80419002446E+02 0.  1.
        -24    1    1    2    0    0 -0.16657507421E+02 -0.31006417255E+02 -0.27453870002E+03  0.28823182376E+03  0.80419002446E+02 0. -1.
<mgrwt>
<rscale>  0 0.87784318E+02</rscale>
<asrwt>0</asrwt>
<pdfrwt beam="1">  1        1 0.52482317E-01 0.87784318E+02</pdfrwt>
<pdfrwt beam="2">  1       -1 0.60138017E-02 0.87784318E+02</pdfrwt>
<totfact> 0.90760562E+03</totfact>
</mgrwt>
</event>
<event>
 4    1  0.4844629E-001  0.9175429E+02  0.7546771E-02  0.1298658E+00
         -1   -1    0    0    0  501 -0.00000000000E+00  0.00000000000E+00  0.56334391608E+01  0.56334391608E+01  0.00000000000E+00 0.  1.
          1   -1    0    0  501    0  0.00000000000E+00 -0.00000000000E+00 -0.17496928869E+04  0.17496928869E+04  0.00000000000E+00 0. -1.
         24    1    1    2    0    0 -0.19136825642E+02 -0.39817268382E+02 -0.53680930621E+03  0.54459441803E+03  0.80419002446E+02 0.  1.
        -24    1    1    2    0    0  0.19136825642E+02  0.39817268382E+02 -0.12072501416E+04  0.12107319081E+04  0.80419002446E+02 0. -1.
<mgrwt>
<rscale>  0 0.91754286E+02</rscale>
<asrwt>0</asrwt>
<pdfrwt beam="1">  1        1 0.26918417E+00 0.91754286E+02</pdfrwt>
<pdfrwt beam="2">  1       -1 0.86668085E-03 0.91754286E+02</pdfrwt>
<totfact> 0.10836947E+04</totfact>
</mgrwt>
</event>
<event>
 4    1  0.4844629E-001  0.8092851E+02  0.7546771E-02  0.1326437E+00
          1   -1    0    0  501    0  0.00000000000E+00  0.00000000000E+00  0.94303996446E+03  0.94303996446E+03  0.00000000000E+00 0. -1.
         -1   -1    0    0    0  501 -0.00000000000E+00 -0.00000000000E+00 -0.86417659219E+01  0.86417659219E+01  0.00000000000E+00 0.  1.
         24    1    1    2    0    0  0.56307501517E+01  0.71065474252E+01  0.25635091896E+03  0.26882190753E+03  0.80419002446E+02 0.  1.
        -24    1    1    2    0    0 -0.56307501517E+01 -0.71065474252E+01  0.67804727959E+03  0.68285982286E+03  0.80419002446E+02 0. -1.
<mgrwt>
<rscale>  0 0.80928514E+02</rscale>
<asrwt>0</asrwt>
<pdfrwt beam="1">  1        1 0.14508299E+00 0.80928514E+02</pdfrwt>
<pdfrwt beam="2">  1       -1 0.13295032E-02 0.80928514E+02</pdfrwt>
<totfact> 0.20032811E+04</totfact>
</mgrwt>
</event>
<event>
 4    1  0.4844629E-001  0.1015523E+03  0.7546771E-02  0.1277065E+00
         -2   -1    0    0    0  501 -0.00000000000E+00  0.00000000000E+00  0.18438317795E+02  0.18438317795E+02  0.00000000000E+00 0.  1.
          2   -1    0    0  501    0  0.00000000000E+00 -0.00000000000E+00 -0.11433783892E+04  0.11433783892E+04  0.00000000000E+00 0. -1.
         24    1    1    2    0    0 -0.33847521641E+02 -0.51961494343E+02 -0.97765519416E+03  0.98291533014E+03  0.80419002446E+02 0. -1.
        -24    1    1    2    0    0  0.33847521641E+02  0.51961494343E+02 -0.14728487720E+03  0.17890137680E+03  0.80419002446E+02 0.  1.
<mgrwt>
<rscale>  0 0.10155229E+03</rscale>
<asrwt>0</asrwt>
<pdfrwt beam="1">  1        2 0.17590446E+00 0.10155229E+03</pdfrwt>
<pdfrwt beam="2">  1       -2 0.28366627E-02 0.10155229E+03</pdfrwt>
<totfact> 0.94576164E+03</totfact>
</mgrwt>
</event>
<event>
 4    1  0.4844629E-001  0.8061601E+02  0.7546771E-02  0.1327312E+00
         -2   -1    0    0    0  501 -0.00000000000E+00  0.00000000000E+00  0.15068763842E+02  0.15068763842E+02  0.00000000000E+00 0.  1.
          2   -1    0    0  501    0  0.00000000000E+00 -0.00000000000E+00 -0.14828212211E+04  0.14828212211E+04  0.00000000000E+00 0. -1.
         24    1    1    2    0    0 -0.55132329028E+01  0.11530154310E+01 -0.13645685096E+04  0.13669477527E+04  0.80419002446E+02 0. -1.
        -24    1    1    2    0    0  0.55132329028E+01 -0.11530154310E+01 -0.10318394762E+03  0.13094223223E+03  0.80419002446E+02 0.  0.
<mgrwt>
<rscale>  0 0.80616010E+02</rscale>
<asrwt>0</asrwt>
<pdfrwt beam="1">  1        2 0.22812643E+00 0.80616010E+02</pdfrwt>
<pdfrwt beam="2">  1       -2 0.23182705E-02 0.80616010E+02</pdfrwt>
<totfact> 0.82720153E+03</totfact>
</mgrwt>
</event>
<event>
 4    1  0.4844629E-001  0.8073612E+02  0.7546771E-02  0.1326975E+00
          1   -1    0    0  501    0  0.00000000000E+00  0.00000000000E+00  0.72275672845E+03  0.72275672845E+03  0.00000000000E+00 0. -1.
         -1   -1    0    0    0  501 -0.00000000000E+00 -0.00000000000E+00 -0.26508274601E+02  0.26508274601E+02  0.00000000000E+00 0.  1.
         24    1    1    2    0    0  0.28993323400E+01 -0.65344799421E+01  0.43822495172E+02  0.91862574499E+02  0.80419002446E+02 0.  1.
        -24    1    1    2    0    0 -0.28993323400E+01  0.65344799421E+01  0.65242595868E+03  0.65740242856E+03  0.80419002446E+02 0.  0.
<mgrwt>
<rscale>  0 0.80736123E+02</rscale>
<asrwt>0</asrwt>
<pdfrwt beam="1">  1        1 0.11119333E+00 0.80736123E+02</pdfrwt>
<pdfrwt beam="2">  1       -1 0.40781966E-02 0.80736123E+02</pdfrwt>
<totfact> 0.60236409E+03</totfact>
</mgrwt>
</event>
<event>
 4    1  0.4844629E-001  0.1176055E+03  0.7546771E-02  0.1247100E+00
         -2   -1    0    0    0  501 -0.00000000000E+00  0.00000000000E+00  0.85626211914E+02  0.85626211914E+02  0.00000000000E+00 0.  1.
          2   -1    0    0  501    0  0.00000000000E+00 -0.00000000000E+00 -0.17916939982E+03  0.17916939982E+03  0.00000000000E+00 0. -1.
         24    1    1    2    0    0  0.51820718530E+02 -0.68399127081E+02 -0.88316097281E+02  0.14707405090E+03  0.80419002446E+02 0.  0.
        -24    1    1    2    0    0 -0.51820718530E+02  0.68399127081E+02 -0.52270906235E+01  0.11772156083E+03  0.80419002446E+02 0. -1.
<mgrwt>
<rscale>  0 0.11760546E+03</rscale>
<asrwt>0</asrwt>
<pdfrwt beam="1">  1        2 0.27564523E-01 0.11760546E+03</pdfrwt>
<pdfrwt beam="2">  1       -2 0.13173264E-01 0.11760546E+03</pdfrwt>
<totfact> 0.76650966E+03</totfact>
</mgrwt>
</event>
<event>
 4    1  0.4844629E-001  0.9868919E+02  0.7546771E-02  0.1283077E+00
          1   -1    0    0  501    0  0.00000000000E+00  0.00000000000E+00  0.57608913179E+02  0.57608913179E+02  0.00000000000E+00 0. -1.
         -1   -1    0    0    0  501 -0.00000000000E+00 -0.00000000000E+00 -0.17021647094E+03  0.17021647094E+03  0.00000000000E+00 0.  1.
         24    1    1    2    0    0 -0.55588026531E+02 -0.13502245337E+02 -0.65679628474E+02  0.11854690580E+03  0.80419002446E+02 0. -1.
        -24    1    1    2    0    0  0.55588026531E+02  0.13502245337E+02 -0.46927929282E+02  0.10927847832E+03  0.80419002446E+02 0.  0.
<mgrwt>
<rscale>  0 0.98689185E+02</rscale>
<asrwt>0</asrwt>
<pdfrwt beam="1">  1        1 0.88629099E-02 0.98689185E+02</pdfrwt>
<pdfrwt beam="2">  1       -1 0.26187149E-01 0.98689185E+02</pdfrwt>
<totfact> 0.89151734E+03</totfact>
</mgrwt>
</event>
<event>
 4    1  0.4844629E-001  0.8233244E+02  0.7546771E-02  0.1322560E+00
          2   -1    0    0  501    0  0.00000000000E+00  0.00000000000E+00  0.87098637185E+03  0.87098637185E+03  0.00000000000E+00 0. -1.
         -2   -1    0    0    0  501 -0.00000000000E+00 -0.00000000000E+00 -0.82005777135E+01  0.82005777135E+01  0.00000000000E+00 0.  1.
         24    1    1    2    0    0 -0.10666519094E+02 -0.14058438498E+02  0.53062469245E+03  0.53697410973E+03  0.80419002446E+02 0.  0.
        -24    1    1    2    0    0  0.10666519094E+02  0.14058438498E+02  0.33216110169E+03  0.34221283984E+03  0.80419002446E+02 0.  0.
<mgrwt>
<rscale>  0 0.82332438E+02</rscale>
<asrwt>0</asrwt>
<pdfrwt beam="1">  1        2 0.13399783E+00 0.82332438E+02</pdfrwt>
<pdfrwt beam="2">  1       -2 0.12616280E-02 0.82332438E+02</pdfrwt>
<totfact> 0.42944233E+04</totfact>
</mgrwt>
</event>
<event>
 4    1  0.4844629E-001  0.8141673E+02  0.7546771E-02  0.1325078E+00
         -3   -1    0    0    0  501 -0.00000000000E+00  0.00000000000E+00  0.22600067703E+03  0.22600067703E+03  0.00000000000E+00 0.  1.
          3   -1    0    0  501    0  0.00000000000E+00 -0.00000000000E+00 -0.29802772039E+02  0.29802772039E+02  0.00000000000E+00 0. -1.
         24    1    1    2    0    0  0.45487818670E+01  0.11864929886E+02  0.11420181286E+03  0.14025240815E+03  0.80419002446E+02 0.  1.
        -24    1    1    2    0    0 -0.45487818670E+01 -0.11864929886E+02  0.81996092130E+02  0.11555104092E+03  0.80419002446E+02 0. -1.
<mgrwt>
<rscale>  0 0.81416730E+02</rscale>
<asrwt>0</asrwt>
<pdfrwt beam="1">  1        3 0.45850420E-02 0.81416730E+02</pdfrwt>
<pdfrwt beam="2">  1       -3 0.34769334E-01 0.81416730E+02</pdfrwt>
<totfact> 0.43482407E+03</totfact>
</mgrwt>
</event>
<event>
 4    1  0.4844629E-001  0.8159196E+02  0.7546771E-02  0.1324593E+00
         -2   -1    0    0    0  501 -0.00000000000E+00  0.00000000000E+00  0.60122955166E+01  0.60122955166E+01  0.00000000000E+00 0.  1.
          2   -1    0    0  501    0  0.00000000000E+00 -0.00000000000E+00 -0.11087634863E+04  0.11087634863E+04  0.00000000000E+00 0. -1.
         24    1    1    2    0    0  0.11469955797E+02 -0.76464638916E+01 -0.53092990807E+03  0.53716274213E+03  0.80419002446E+02 0. -1.
        -24    1    1    2    0    0 -0.11469955797E+02  0.76464638916E+01 -0.57182128268E+03  0.57761303965E+03  0.80419002446E+02 0.  1.
<mgrwt>
<rscale>  0 0.81591948E+02</rscale>
<asrwt>0</asrwt>
<pdfrwt beam="1">  1        2 0.17057902E+00 0.81591958E+02</pdfrwt>
<pdfrwt beam="2">  1       -2 0.92496840E-03 0.81591958E+02</pdfrwt>
<totfact> 0.48210042E+04</totfact>
</mgrwt>
</event>
<event>
 4    1  0.4844629E-001  0.8258399E+02  0.7546771E-02  0.1321874E+00
          2   -1    0    0  501    0  0.00000000000E+00  0.00000000000E+00  0.17481172205E+03  0.17481172205E+03  0.00000000000E+00 0. -1.
         -2   -1    0    0    0  501 -0.00000000000E+00 -0.00000000000E+00 -0.57496394492E+02  0.57496394492E+02  0.00000000000E+00 0.  1.
         24    1    1    2    0    0  0.25206142365E+01 -0.18615742719E+02  0.12451322786E+03  0.14941104122E+03  0.80419002446E+02 0. -1.
        -24    1    1    2    0    0 -0.25206142365E+01  0.18615742719E+02 -0.71979003012E+01  0.82897075318E+02  0.80419002446E+02 0.  1.
<mgrwt>
<rscale>  0 0.82583990E+02</rscale>
<asrwt>0</asrwt>
<pdfrwt beam="1">  1        2 0.26894111E-01 0.82583990E+02</pdfrwt>
<pdfrwt beam="2">  1       -2 0.88455992E-02 0.82583990E+02</pdfrwt>
<totfact> 0.14250902E+04</totfact>
</mgrwt>
</event>
<event>
 4    1  0.4844629E-001  0.8718595E+02  0.7546771E-02  0.1309813E+00
         -2   -1    0    0    0  501 -0.00000000000E+00  0.00000000000E+00  0.29041375635E+02  0.29041375635E+02  0.00000000000E+00 0.  1.
          2   -1    0    0  501    0  0.00000000000E+00 -0.00000000000E+00 -0.27947186078E+03  0.27947186078E+03  0.00000000000E+00 0. -1.
         24    1    1    2    0    0  0.11864291543E+00  0.33677241556E+02 -0.86363453278E+02  0.12271932485E+03  0.80419002446E+02 0.  1.
        -24    1    1    2    0    0 -0.11864291543E+00 -0.33677241556E+02 -0.16406703187E+03  0.18579391157E+03  0.80419002446E+02 0. -1.
<mgrwt>
<rscale>  0 0.87185942E+02</rscale>
<asrwt>0</asrwt>
<pdfrwt beam="1">  1        2 0.42995670E-01 0.87185953E+02</pdfrwt>
<pdfrwt beam="2">  1       -2 0.44679040E-02 0.87185953E+02</pdfrwt>
<totfact> 0.24359947E+04</totfact>
</mgrwt>
</event>
<event>
 4    1  0.4844629E-001  0.8076779E+02  0.7546771E-02  0.1326887E+00
         -1   -1    0    0    0  501 -0.00000000000E+00  0.00000000000E+00  0.89768937210E+03  0.89768937210E+03  0.00000000000E+00 0.  1.
          1   -1    0    0  501    0  0.00000000000E+00 -0.00000000000E+00 -0.13299587906E+03  0.13299587906E+03  0.00000000000E+00 0. -1.
         24    1    1    2    0    0 -0.74803762658E+01  0.51314653579E+00  0.88341240272E+03  0.88709689920E+03  0.80419002446E+02 0.  1.
        -24    1    1    2    0    0  0.74803762658E+01 -0.51314653579E+00 -0.11871890968E+03  0.14358835196E+03  0.80419002446E+02 0. -1.
<mgrwt>
<rscale>  0 0.80767786E+02</rscale>
<asrwt>0</asrwt>
<pdfrwt beam="1">  1        1 0.20460905E-01 0.80767786E+02</pdfrwt>
<pdfrwt beam="2">  1       -1 0.13810605E+00 0.80767786E+02</pdfrwt>
<totfact> 0.12107602E+02</totfact>
</mgrwt>
</event>
<event>
 4    1  0.4844629E-001  0.8175475E+02  0.7546771E-02  0.1324144E+00
         -1   -1    0    0    0  501 -0.00000000000E+00  0.00000000000E+00  0.12900698410E+03  0.12900698410E+03  0.00000000000E+00 0.  1.
          1   -1    0    0  501    0  0.00000000000E+00 -0.00000000000E+00 -0.10040196203E+03  0.10040196203E+03  0.00000000000E+00 0. -1.
         24    1    1    2    0    0  0.13074883247E+01  0.14659955219E+02  0.94100489665E+02  0.12465449018E+03  0.80419002446E+02 0.  1.
        -24    1    1    2    0    0 -0.13074883247E+01 -0.14659955219E+02 -0.65495467591E+02  0.10475445595E+03  0.80419002446E+02 0. -1.
<mgrwt>
<rscale>  0 0.81754754E+02</rscale>
<asrwt>0</asrwt>
<pdfrwt beam="1">  1        1 0.15446456E-01 0.81754754E+02</pdfrwt>
<pdfrwt beam="2">  1       -1 0.19847228E-01 0.81754754E+02</pdfrwt>
<totfact> 0.66624890E+03</totfact>
</mgrwt>
</event>
<event>
 4    1  0.4844629E-001  0.8174270E+02  0.7546771E-02  0.1324177E+00
         -2   -1    0    0    0  501 -0.00000000000E+00  0.00000000000E+00  0.50617996264E+02  0.50617996264E+02  0.00000000000E+00 0.  1.
          2   -1    0    0  501    0  0.00000000000E+00 -0.00000000000E+00 -0.19457742772E+03  0.19457742772E+03  0.00000000000E+00 0. -1.
         24    1    1    2    0    0 -0.10874256945E+02 -0.98185721758E+01 -0.14150212524E+03  0.16341579246E+03  0.80419002446E+02 0. -1.
        -24    1    1    2    0    0  0.10874256945E+02  0.98185721758E+01 -0.24573062151E+01  0.81779631522E+02  0.80419002446E+02 0.  1.
<mgrwt>
<rscale>  0 0.81742705E+02</rscale>
<asrwt>0</asrwt>
<pdfrwt beam="1">  1        2 0.29934989E-01 0.81742705E+02</pdfrwt>
<pdfrwt beam="2">  1       -2 0.77873840E-02 0.81742705E+02</pdfrwt>
<totfact> 0.15421097E+04</totfact>
</mgrwt>
</event>
<event>
 4    1  0.4844629E-001  0.8110400E+02  0.7546771E-02  0.1325947E+00
         -2   -1    0    0    0  501 -0.00000000000E+00  0.00000000000E+00  0.18701918861E+02  0.18701918861E+02  0.00000000000E+00 0.  1.
          2   -1    0    0  501    0  0.00000000000E+00 -0.00000000000E+00 -0.39603247793E+03  0.39603247793E+03  0.00000000000E+00 0. -1.
         24    1    1    2    0    0  0.94326357523E+01  0.46548375915E+01 -0.25802904329E+03  0.27047522117E+03  0.80419002446E+02 0.  0.
        -24    1    1    2    0    0 -0.94326357523E+01 -0.46548375915E+01 -0.11930151578E+03  0.14425917563E+03  0.80419002446E+02 0.  0.
<mgrwt>
<rscale>  0 0.81103995E+02</rscale>
<asrwt>0</asrwt>
<pdfrwt beam="1">  1        2 0.60928068E-01 0.81103995E+02</pdfrwt>
<pdfrwt beam="2">  1       -2 0.28772185E-02 0.81103995E+02</pdfrwt>
<totfact> 0.31932248E+04</totfact>
</mgrwt>
</event>
<event>
 4    1  0.4844629E-001  0.8048058E+02  0.7546771E-02  0.1327693E+00
          1   -1    0    0  501    0  0.00000000000E+00  0.00000000000E+00  0.52222933501E+03  0.52222933501E+03  0.00000000000E+00 0. -1.
         -1   -1    0    0    0  501 -0.00000000000E+00 -0.00000000000E+00 -0.12798161151E+02  0.12798161151E+02  0.00000000000E+00 0.  1.
         24    1    1    2    0    0 -0.64166030064E+00  0.30816675470E+01  0.20769911858E+03  0.22274660091E+03  0.80419002446E+02 0.  1.
        -24    1    1    2    0    0  0.64166030064E+00 -0.30816675470E+01  0.30173205528E+03  0.31228089526E+03  0.80419002446E+02 0.  0.
<mgrwt>
<rscale>  0 0.80480584E+02</rscale>
<asrwt>0</asrwt>
<pdfrwt beam="1">  1        1 0.80342958E-01 0.80480584E+02</pdfrwt>
<pdfrwt beam="2">  1       -1 0.19689483E-02 0.80480584E+02</pdfrwt>
<totfact> 0.26488867E+04</totfact>
</mgrwt>
</event>
<event>
 4    1  0.4844629E-001  0.8224293E+02  0.7546771E-02  0.1322804E+00
         -2   -1    0    0    0  501 -0.00000000000E+00  0.00000000000E+00  0.67642281653E+02  0.67642281653E+02  0.00000000000E+00 0.  1.
          2   -1    0    0  501    0  0.00000000000E+00 -0.00000000000E+00 -0.10421639855E+03  0.10421639855E+03  0.00000000000E+00 0. -1.
         24    1    1    2    0    0 -0.58352819016E+01 -0.16205857140E+02 -0.99300417362E+00  0.82248904748E+02  0.80419002446E+02 0.  0.
        -24    1    1    2    0    0  0.58352819016E+01  0.16205857140E+02 -0.35581112728E+02  0.89609775459E+02  0.80419002446E+02 0.  0.
<mgrwt>
<rscale>  0 0.82242920E+02</rscale>
<asrwt>0</asrwt>
<pdfrwt beam="1">  1        2 0.16033292E-01 0.82242931E+02</pdfrwt>
<pdfrwt beam="2">  1       -2 0.10406505E-01 0.82242931E+02</pdfrwt>
<totfact> 0.19664981E+04</totfact>
</mgrwt>
</event>
<event>
 4    1  0.4844629E-001  0.9313970E+02  0.7546771E-02  0.1295422E+00
         -1   -1    0    0    0  501 -0.00000000000E+00  0.00000000000E+00  0.60321636538E+01  0.60321636538E+01  0.00000000000E+00 0.  1.
          1   -1    0    0  501    0  0.00000000000E+00 -0.00000000000E+00 -0.15200524889E+04  0.15200524889E+04  0.00000000000E+00 0. -1.
         24    1    1    2    0    0  0.28076487298E+02 -0.37676230127E+02 -0.57986266860E+03  0.58729525610E+03  0.80419002446E+02 0.  1.
        -24    1    1    2    0    0 -0.28076487298E+02  0.37676230127E+02 -0.93415765663E+03  0.93878939643E+03  0.80419002446E+02 0.  1.
<mgrwt>
<rscale>  0 0.93139698E+02</rscale>
<asrwt>0</asrwt>
<pdfrwt beam="1">  1        1 0.23385405E+00 0.93139698E+02</pdfrwt>
<pdfrwt beam="2">  1       -1 0.92802588E-03 0.93139698E+02</pdfrwt>
<totfact> 0.13757941E+04</totfact>
</mgrwt>
</event>
<event>
 4    1  0.4844629E-001  0.8503113E+02  0.7546771E-02  0.1315351E+00
         -2   -1    0    0    0  501 -0.00000000000E+00  0.00000000000E+00  0.30445641038E+02  0.30445641038E+02  0.00000000000E+00 0.  1.
          2   -1    0    0  501    0  0.00000000000E+00 -0.00000000000E+00 -0.23768602730E+03  0.23768602730E+03  0.00000000000E+00 0. -1.
         24    1    1    2    0    0 -0.18258842423E+02  0.20728910191E+02 -0.99691431181E+02  0.13102927325E+03  0.80419002446E+02 0.  1.
        -24    1    1    2    0    0  0.18258842423E+02 -0.20728910191E+02 -0.10754895508E+03  0.13710239509E+03  0.80419002446E+02 0. -1.
<mgrwt>
<rscale>  0 0.85031117E+02</rscale>
<asrwt>0</asrwt>
<pdfrwt beam="1">  1        2 0.36567082E-01 0.85031127E+02</pdfrwt>
<pdfrwt beam="2">  1       -2 0.46839447E-02 0.85031127E+02</pdfrwt>
<totfact> 0.26840833E+04</totfact>
</mgrwt>
</event>
<event>
 4    1  0.4844629E-001  0.1073198E+03  0.7546771E-02  0.1265615E+00
          2   -1    0    0  501    0  0.00000000000E+00  0.00000000000E+00  0.15126990967E+04  0.15126990967E+04  0.00000000000E+00 0. -1.
         -2   -1    0    0    0  501 -0.00000000000E+00 -0.00000000000E+00 -0.80464145722E+01  0.80464145722E+01  0.00000000000E+00 0.  1.
         24    1    1    2    0    0 -0.43042621558E+02  0.56547752887E+02  0.92861663264E+03  0.93479750855E+03  0.80419002446E+02 0. -1.
        -24    1    1    2    0    0  0.43042621558E+02 -0.56547752887E+02  0.57603604952E+03  0.58594800275E+03  0.80419002446E+02 0.  1.
<mgrwt>
<rscale>  0 0.10731976E+03</rscale>
<asrwt>0</asrwt>
<pdfrwt beam="1">  1        2 0.23272271E+00 0.10731976E+03</pdfrwt>
<pdfrwt beam="2">  1       -2 0.12379111E-02 0.10731976E+03</pdfrwt>
<totfact> 0.19938773E+04</totfact>
</mgrwt>
</event>
<event>
 4    1  0.4844629E-001  0.1306463E+03  0.7546771E-02  0.1226500E+00
         -2   -1    0    0    0  501 -0.00000000000E+00  0.00000000000E+00  0.27667488469E+02  0.27667488469E+02  0.00000000000E+00 0.  1.
          2   -1    0    0  501    0  0.00000000000E+00 -0.00000000000E+00 -0.61832021713E+03  0.61832021713E+03  0.00000000000E+00 0. -1.
         24    1    1    2    0    0  0.55422782624E+02 -0.86772892087E+02 -0.27991804045E+03  0.30890539808E+03  0.80419002446E+02 0. -1.
        -24    1    1    2    0    0 -0.55422782624E+02  0.86772892087E+02 -0.31073468821E+03  0.33708230752E+03  0.80419002446E+02 0.  1.
<mgrwt>
<rscale>  0 0.13064624E+03</rscale>
<asrwt>0</asrwt>
<pdfrwt beam="1">  1        2 0.95126181E-01 0.13064626E+03</pdfrwt>
<pdfrwt beam="2">  1       -2 0.42565370E-02 0.13064626E+03</pdfrwt>
<totfact> 0.11579831E+04</totfact>
</mgrwt>
</event>
<event>
 4    1  0.4844629E-001  0.8148152E+02  0.7546771E-02  0.1324899E+00
          2   -1    0    0  501    0  0.00000000000E+00  0.00000000000E+00  0.38823412316E+04  0.38823412316E+04  0.00000000000E+00 0. -1.
         -2   -1    0    0    0  501 -0.00000000000E+00 -0.00000000000E+00 -0.17354487285E+01  0.17354487285E+01  0.00000000000E+00 0.  1.
         24    1    1    2    0    0  0.11111329636E+02  0.69685233475E+01  0.21749569553E+04  0.21764827119E+04  0.80419002446E+02 0. -1.
        -24    1    1    2    0    0 -0.11111329636E+02 -0.69685233475E+01  0.17056488276E+04  0.17075939684E+04  0.80419002446E+02 0.  1.
<mgrwt>
<rscale>  0 0.81481519E+02</rscale>
<asrwt>0</asrwt>
<pdfrwt beam="1">  1        2 0.59727631E+00 0.81481519E+02</pdfrwt>
<pdfrwt beam="2">  1       -2 0.26699522E-03 0.81481519E+02</pdfrwt>
<totfact> 0.79182035E+03</totfact>
</mgrwt>
</event>
<event>
 4    1  0.4844629E-001  0.9784697E+02  0.7546771E-02  0.1284890E+00
         -3   -1    0    0    0  501 -0.00000000000E+00  0.00000000000E+00  0.35028945834E+03  0.35028945834E+03  0.00000000000E+00 0.  1.
          3   -1    0    0  501    0  0.00000000000E+00 -0.00000000000E+00 -0.62674272358E+02  0.62674272358E+02  0.00000000000E+00 0. -1.
         24    1    1    2    0    0 -0.94367602941E+01 -0.54934160099E+02  0.29886264550E+03  0.31447243317E+03  0.80419002446E+02 0.  1.
        -24    1    1    2    0    0  0.94367602941E+01  0.54934160099E+02 -0.11247459515E+02  0.98491297537E+02  0.80419002446E+02 0. -1.
<mgrwt>
<rscale>  0 0.97846974E+02</rscale>
<asrwt>0</asrwt>
<pdfrwt beam="1">  1        3 0.96421959E-02 0.97846974E+02</pdfrwt>
<pdfrwt beam="2">  1       -3 0.53890685E-01 0.97846974E+02</pdfrwt>
<totfact> 0.59165334E+02</totfact>
</mgrwt>
</event>
<event>
 4    1  0.4844629E-001  0.1343983E+03  0.7546771E-02  0.1221072E+00
         -2   -1    0    0    0  501 -0.00000000000E+00  0.00000000000E+00  0.22969048940E+03  0.22969048940E+03  0.00000000000E+00 0.  1.
          2   -1    0    0  501    0  0.00000000000E+00 -0.00000000000E+00 -0.19789082913E+03  0.19789082913E+03  0.00000000000E+00 0. -1.
         24    1    1    2    0    0 -0.40937847194E+01  0.10760541717E+03 -0.15006125778E+03  0.20144796330E+03  0.80419002446E+02 0. -1.
        -24    1    1    2    0    0  0.40937847194E+01 -0.10760541717E+03  0.18186091805E+03  0.22613335523E+03  0.80419002446E+02 0.  1.
<mgrwt>
<rscale>  0 0.13439829E+03</rscale>
<asrwt>0</asrwt>
<pdfrwt beam="1">  1        2 0.30444743E-01 0.13439829E+03</pdfrwt>
<pdfrwt beam="2">  1       -2 0.35336998E-01 0.13439829E+03</pdfrwt>
<totfact> 0.12779456E+03</totfact>
</mgrwt>
</event>
<event>
 4    1  0.4844629E-001  0.8433392E+02  0.7546771E-02  0.1317184E+00
          1   -1    0    0  501    0  0.00000000000E+00  0.00000000000E+00  0.38648078210E+01  0.38648078210E+01  0.00000000000E+00 0. -1.
         -1   -1    0    0    0  501 -0.00000000000E+00 -0.00000000000E+00 -0.23143678589E+04  0.23143678589E+04  0.00000000000E+00 0.  1.
         24    1    1    2    0    0  0.24986824513E+02 -0.45445497953E+01 -0.16798829028E+04  0.16819984475E+04  0.80419002446E+02 0.  1.
        -24    1    1    2    0    0 -0.24986824513E+02  0.45445497953E+01 -0.63062014822E+03  0.63623421916E+03  0.80419002446E+02 0. -1.
<mgrwt>
<rscale>  0 0.84333921E+02</rscale>
<asrwt>0</asrwt>
<pdfrwt beam="1">  1        1 0.59458451E-03 0.84333921E+02</pdfrwt>
<pdfrwt beam="2">  1       -1 0.35605738E+00 0.84333921E+02</pdfrwt>
<totfact> 0.56787075E+02</totfact>
</mgrwt>
</event>
<event>
 4    1  0.4844629E-001  0.8870356E+02  0.7546771E-02  0.1306022E+00
         -2   -1    0    0    0  501 -0.00000000000E+00  0.00000000000E+00  0.12920708086E+02  0.12920708086E+02  0.00000000000E+00 0.  1.
          2   -1    0    0  501    0  0.00000000000E+00 -0.00000000000E+00 -0.67584468463E+03  0.67584468463E+03  0.00000000000E+00 0. -1.
         24    1    1    2    0    0 -0.34510601692E+02  0.14495670789E+02 -0.43979208560E+03  0.44864841537E+03  0.80419002446E+02 0. -1.
        -24    1    1    2    0    0  0.34510601692E+02 -0.14495670789E+02 -0.22313189094E+03  0.24011697734E+03  0.80419002446E+02 0.  1.
<mgrwt>
<rscale>  0 0.88703563E+02</rscale>
<asrwt>0</asrwt>
<pdfrwt beam="1">  1        2 0.10397612E+00 0.88703563E+02</pdfrwt>
<pdfrwt beam="2">  1       -2 0.19878010E-02 0.88703563E+02</pdfrwt>
<totfact> 0.30712901E+04</totfact>
</mgrwt>
</event>
<event>
 4    1  0.4844629E-001  0.9390046E+02  0.7546771E-02  0.1293672E+00
          2   -1    0    0  501    0  0.00000000000E+00  0.00000000000E+00  0.69001150973E+03  0.69001150973E+03  0.00000000000E+00 0. -1.
         -2   -1    0    0    0  501 -0.00000000000E+00 -0.00000000000E+00 -0.33745924744E+02  0.33745924744E+02  0.00000000000E+00 0.  1.
         24    1    1    2    0    0  0.26121748724E+02  0.40837898842E+02  0.61338247371E+03  0.62052828682E+03  0.80419002446E+02 0. -1.
        -24    1    1    2    0    0 -0.26121748724E+02 -0.40837898842E+02  0.42883111280E+02  0.10322914766E+03  0.80419002446E+02 0.  1.
<mgrwt>
<rscale>  0 0.93900456E+02</rscale>
<asrwt>0</asrwt>
<pdfrwt beam="1">  1        2 0.10615561E+00 0.93900456E+02</pdfrwt>
<pdfrwt beam="2">  1       -2 0.51916813E-02 0.93900456E+02</pdfrwt>
<totfact> 0.74228775E+03</totfact>
</mgrwt>
</event>
<event>
 4    1  0.4844629E-001  0.8112446E+02  0.7546771E-02  0.1325890E+00
         -1   -1    0    0    0  501 -0.00000000000E+00  0.00000000000E+00  0.12470136377E+02  0.12470136377E+02  0.00000000000E+00 0.  1.
          1   -1    0    0  501    0  0.00000000000E+00 -0.00000000000E+00 -0.54742962054E+03  0.54742962054E+03  0.00000000000E+00 0. -1.
         24    1    1    2    0    0 -0.10669138382E+02 -0.36342822288E+00 -0.21440745625E+03  0.22924165382E+03  0.80419002446E+02 0.  0.
        -24    1    1    2    0    0  0.10669138382E+02  0.36342822288E+00 -0.32055202791E+03  0.33065810309E+03  0.80419002446E+02 0.  0.
<mgrwt>
<rscale>  0 0.81124463E+02</rscale>
<asrwt>0</asrwt>
<pdfrwt beam="1">  1        1 0.84219908E-01 0.81124463E+02</pdfrwt>
<pdfrwt beam="2">  1       -1 0.19184833E-02 0.81124463E+02</pdfrwt>
<totfact> 0.25878800E+04</totfact>
</mgrwt>
</event>
<event>
 4    1  0.4844629E-001  0.9494992E+02  0.7546771E-02  0.1291289E+00
         -2   -1    0    0    0  501 -0.00000000000E+00  0.00000000000E+00  0.60528051580E+02  0.60528051580E+02  0.00000000000E+00 0.  1.
          2   -1    0    0  501    0  0.00000000000E+00 -0.00000000000E+00 -0.29459534530E+03  0.29459534530E+03  0.00000000000E+00 0. -1.
         24    1    1    2    0    0  0.48253737869E+02  0.14827306390E+02 -0.24188369715E+03  0.25985228714E+03  0.80419002446E+02 0. -1.
        -24    1    1    2    0    0 -0.48253737869E+02 -0.14827306390E+02  0.78164034308E+01  0.95271109735E+02  0.80419002446E+02 0.  1.
<mgrwt>
<rscale>  0 0.94949925E+02</rscale>
<asrwt>0</asrwt>
<pdfrwt beam="1">  1        2 0.45322361E-01 0.94949925E+02</pdfrwt>
<pdfrwt beam="2">  1       -2 0.93120080E-02 0.94949925E+02</pdfrwt>
<totfact> 0.76766447E+03</totfact>
</mgrwt>
</event>
<event>
 4    1  0.4844629E-001  0.8954285E+02  0.7546771E-02  0.1303963E+00
          2   -1    0    0  501    0  0.00000000000E+00  0.00000000000E+00  0.26895521602E+03  0.26895521602E+03  0.00000000000E+00 0. -1.
         -2   -1    0    0    0  501 -0.00000000000E+00 -0.00000000000E+00 -0.51817263224E+02  0.51817263224E+02  0.00000000000E+00 0.  1.
         24    1    1    2    0    0 -0.17227197878E+02  0.35410876809E+02  0.21308897741E+03  0.23113812925E+03  0.80419002446E+02 0.  0.
        -24    1    1    2    0    0  0.17227197878E+02 -0.35410876809E+02  0.40489753831E+01  0.89634349996E+02  0.80419002446E+02 0.  1.
<mgrwt>
<rscale>  0 0.89542853E+02</rscale>
<asrwt>0</asrwt>
<pdfrwt beam="1">  1        2 0.41377725E-01 0.89542853E+02</pdfrwt>
<pdfrwt beam="2">  1       -2 0.79718868E-02 0.89542853E+02</pdfrwt>
<totfact> 0.10670196E+04</totfact>
</mgrwt>
</event>
<event>
 4    1  0.4844629E-001  0.8752956E+02  0.7546771E-02  0.1308947E+00
          1   -1    0    0  501    0  0.00000000000E+00  0.00000000000E+00  0.10022092273E+04  0.10022092273E+04  0.00000000000E+00 0. -1.
         -1   -1    0    0    0  501 -0.00000000000E+00 -0.00000000000E+00 -0.83718436731E+01  0.83718436731E+01  0.00000000000E+00 0.  1.
         24    1    1    2    0    0  0.24873589447E+02  0.23989848613E+02  0.34798609050E+03  0.35882550554E+03  0.80419002446E+02 0.  0.
        -24    1    1    2    0    0 -0.24873589447E+02 -0.23989848613E+02  0.64585129316E+03  0.65175556547E+03  0.80419002446E+02 0.  1.
<mgrwt>
<rscale>  0 0.87529562E+02</rscale>
<asrwt>0</asrwt>
<pdfrwt beam="1">  1        1 0.15418594E+00 0.87529562E+02</pdfrwt>
<pdfrwt beam="2">  1       -1 0.12879767E-02 0.87529562E+02</pdfrwt>
<totfact> 0.19112663E+04</totfact>
</mgrwt>
</event>
<event>
 4    1  0.4844629E-001  0.1218345E+03  0.7546771E-02  0.1240101E+00
         -2   -1    0    0    0  501 -0.00000000000E+00  0.00000000000E+00  0.64534418888E+02  0.64534418888E+02  0.00000000000E+00 0.  1.
          2   -1    0    0  501    0  0.00000000000E+00 -0.00000000000E+00 -0.41076112572E+03  0.41076112572E+03  0.00000000000E+00 0. -1.
         24    1    1    2    0    0 -0.89496929818E+02  0.19150337711E+02 -0.33075752080E+03  0.35248289236E+03  0.80419002446E+02 0. -1.
        -24    1    1    2    0    0  0.89496929818E+02 -0.19150337711E+02 -0.15469186022E+02  0.12281265225E+03  0.80419002446E+02 0.  1.
<mgrwt>
<rscale>  0 0.12183453E+03</rscale>
<asrwt>0</asrwt>
<pdfrwt beam="1">  1        2 0.63194019E-01 0.12183453E+03</pdfrwt>
<pdfrwt beam="2">  1       -2 0.99283722E-02 0.12183453E+03</pdfrwt>
<totfact> 0.49760334E+03</totfact>
</mgrwt>
</event>
<event>
 4    1  0.4844629E-001  0.1010927E+03  0.7546771E-02  0.1278015E+00
          1   -1    0    0  501    0  0.00000000000E+00  0.00000000000E+00  0.66751024198E+03  0.66751024198E+03  0.00000000000E+00 0. -1.
         -1   -1    0    0    0  501 -0.00000000000E+00 -0.00000000000E+00 -0.20935255462E+02  0.20935255462E+02  0.00000000000E+00 0.  1.
         24    1    1    2    0    0  0.50813105568E+02  0.34213051341E+02  0.50171571122E+03  0.51179915535E+03  0.80419002446E+02 0. -1.
        -24    1    1    2    0    0 -0.50813105568E+02 -0.34213051341E+02  0.14485927530E+03  0.17664634209E+03  0.80419002446E+02 0.  1.
<mgrwt>
<rscale>  0 0.10109265E+03</rscale>
<asrwt>0</asrwt>
<pdfrwt beam="1">  1        1 0.10269387E+00 0.10109266E+03</pdfrwt>
<pdfrwt beam="2">  1       -1 0.32208090E-02 0.10109266E+03</pdfrwt>
<totfact> 0.96243969E+03</totfact>
</mgrwt>
</event>
<event>
 4    1  0.4844629E-001  0.8957478E+02  0.7546771E-02  0.1303885E+00
         -2   -1    0    0    0  501 -0.00000000000E+00  0.00000000000E+00  0.58618891109E+01  0.58618891109E+01  0.00000000000E+00 0.  1.
          2   -1    0    0  501    0  0.00000000000E+00 -0.00000000000E+00 -0.23453772222E+04  0.23453772222E+04  0.00000000000E+00 0. -1.
         24    1    1    2    0    0  0.38245960755E+02  0.96783770771E+01 -0.19283667621E+04  0.19304460650E+04  0.80419002446E+02 0.  0.
        -24    1    1    2    0    0 -0.38245960755E+02 -0.96783770771E+01 -0.41114857096E+03  0.42079304634E+03  0.80419002446E+02 0.  0.
<mgrwt>
<rscale>  0 0.89574776E+02</rscale>
<asrwt>0</asrwt>
<pdfrwt beam="1">  1        2 0.36082686E+00 0.89574776E+02</pdfrwt>
<pdfrwt beam="2">  1       -2 0.90183012E-03 0.89574776E+02</pdfrwt>
<totfact> 0.11712553E+04</totfact>
</mgrwt>
</event>
<event>
 4    1  0.4844629E-001  0.8602492E+02  0.7546771E-02  0.1312774E+00
         -2   -1    0    0    0  501 -0.00000000000E+00  0.00000000000E+00  0.50708739442E+02  0.50708739442E+02  0.00000000000E+00 0.  1.
          2   -1    0    0  501    0  0.00000000000E+00 -0.00000000000E+00 -0.17421589219E+03  0.17421589219E+03  0.00000000000E+00 0. -1.
         24    1    1    2    0    0 -0.29601198928E+02 -0.75391873690E+01 -0.10706352618E+03  0.13734221826E+03  0.80419002446E+02 0. -1.
        -24    1    1    2    0    0  0.29601198928E+02  0.75391873690E+01 -0.16443626578E+02  0.87582413380E+02  0.80419002446E+02 0.  1.
<mgrwt>
<rscale>  0 0.86024917E+02</rscale>
<asrwt>0</asrwt>
<pdfrwt beam="1">  1        2 0.26802445E-01 0.86024917E+02</pdfrwt>
<pdfrwt beam="2">  1       -2 0.78013446E-02 0.86024917E+02</pdfrwt>
<totfact> 0.17408136E+04</totfact>
</mgrwt>
</event>
<event>
 4    1  0.4844629E-001  0.8682435E+02  0.7546771E-02  0.1310729E+00
         -2   -1    0    0    0  501 -0.00000000000E+00  0.00000000000E+00  0.10799828174E+02  0.10799828174E+02  0.00000000000E+00 0.  1.
          2   -1    0    0  501    0  0.00000000000E+00 -0.00000000000E+00 -0.70038530681E+03  0.70038530681E+03  0.00000000000E+00 0. -1.
         24    1    1    2    0    0 -0.32477052124E+02  0.40611466741E+01 -0.36546881783E+03  0.37564068548E+03  0.80419002446E+02 0. -1.
        -24    1    1    2    0    0  0.32477052124E+02 -0.40611466741E+01 -0.32411666081E+03  0.33554444951E+03  0.80419002446E+02 0.  0.
<mgrwt>
<rscale>  0 0.86824350E+02</rscale>
<asrwt>0</asrwt>
<pdfrwt beam="1">  1        2 0.10775160E+00 0.86824350E+02</pdfrwt>
<pdfrwt beam="2">  1       -2 0.16615118E-02 0.86824350E+02</pdfrwt>
<totfact> 0.38001856E+04</totfact>
</mgrwt>
</event>
<event>
 4    1  0.4844629E-001  0.9925806E+02  0.7546771E-02  0.1281864E+00
          1   -1    0    0  501    0  0.00000000000E+00  0.00000000000E+00  0.92371526729E+03  0.92371526729E+03  0.00000000000E+00 0. -1.
         -1   -1    0    0    0  501 -0.00000000000E+00 -0.00000000000E+00 -0.14756280825E+02  0.14756280825E+02  0.00000000000E+00 0.  1.
         24    1    1    2    0    0 -0.42409645862E+02  0.39829234930E+02  0.20742664886E+03  0.22995211812E+03  0.80419002446E+02 0.  1.
        -24    1    1    2    0    0  0.42409645862E+02 -0.39829234930E+02  0.70153233761E+03  0.70851942999E+03  0.80419002446E+02 0. -1.
<mgrwt>
<rscale>  0 0.99258057E+02</rscale>
<asrwt>0</asrwt>
<pdfrwt beam="1">  1        1 0.14211000E+00 0.99258057E+02</pdfrwt>
<pdfrwt beam="2">  1       -1 0.22701978E-02 0.99258057E+02</pdfrwt>
<totfact> 0.98316549E+03</totfact>
</mgrwt>
</event>
<event>
 4    1  0.4844629E-001  0.1141818E+03  0.7546771E-02  0.1253016E+00
         -2   -1    0    0    0  501 -0.00000000000E+00  0.00000000000E+00  0.97796057779E+01  0.97796057779E+01  0.00000000000E+00 0. -1.
          2   -1    0    0  501    0  0.00000000000E+00 -0.00000000000E+00 -0.13383152203E+04  0.13383152203E+04  0.00000000000E+00 0.  1.
         24    1    1    2    0    0 -0.80796811363E+02 -0.64910394660E+01 -0.70622867027E+03  0.71539947511E+03  0.80419002446E+02 0.  0.
        -24    1    1    2    0    0  0.80796811363E+02  0.64910394660E+01 -0.62230694426E+03  0.63269535098E+03  0.80419002446E+02 0.  0.
<mgrwt>
<rscale>  0 0.11418176E+03</rscale>
<asrwt>0</asrwt>
<pdfrwt beam="1">  1        2 0.20589465E+00 0.11418176E+03</pdfrwt>
<pdfrwt beam="2">  1       -2 0.15045547E-02 0.11418176E+03</pdfrwt>
<totfact> 0.18672199E+04</totfact>
</mgrwt>
</event>
<event>
 4    1  0.4844629E-001  0.8423706E+02  0.7546771E-02  0.1317440E+00
          2   -1    0    0  501    0  0.00000000000E+00  0.00000000000E+00  0.84108173941E+03  0.84108173941E+03  0.00000000000E+00 0. -1.
         -2   -1    0    0    0  501 -0.00000000000E+00 -0.00000000000E+00 -0.20119595305E+02  0.20119595305E+02  0.00000000000E+00 0.  1.
         24    1    1    2    0    0 -0.24935479005E+02 -0.26244766056E+01  0.73860803568E+03  0.74339606692E+03  0.80419002446E+02 0. -1.
        -24    1    1    2    0    0  0.24935479005E+02  0.26244766056E+01  0.82354108426E+02  0.11780526779E+03  0.80419002446E+02 0.  1.
<mgrwt>
<rscale>  0 0.84237058E+02</rscale>
<asrwt>0</asrwt>
<pdfrwt beam="1">  1        2 0.12939716E+00 0.84237058E+02</pdfrwt>
<pdfrwt beam="2">  1       -2 0.30953230E-02 0.84237058E+02</pdfrwt>
<totfact> 0.12421965E+04</totfact>
</mgrwt>
</event>
<event>
 4    1  0.4844629E-001  0.9239142E+02  0.7546771E-02  0.1297162E+00
         -2   -1    0    0    0  501 -0.00000000000E+00  0.00000000000E+00  0.74395190869E+01  0.74395190869E+01  0.00000000000E+00 0.  1.
          2   -1    0    0  501    0  0.00000000000E+00 -0.00000000000E+00 -0.11801158064E+04  0.11801158064E+04  0.00000000000E+00 0. -1.
         24    1    1    2    0    0 -0.64087632495E+01 -0.45032065875E+02 -0.68518822722E+03  0.69138924050E+03  0.80419002446E+02 0.  0.
        -24    1    1    2    0    0  0.64087632495E+01  0.45032065875E+02 -0.48748806006E+03  0.49616608495E+03  0.80419002446E+02 0.  1.
<mgrwt>
<rscale>  0 0.92391424E+02</rscale>
<asrwt>0</asrwt>
<pdfrwt beam="1">  1        2 0.18155631E+00 0.92391424E+02</pdfrwt>
<pdfrwt beam="2">  1       -2 0.11445412E-02 0.92391424E+02</pdfrwt>
<totfact> 0.32995377E+04</totfact>
</mgrwt>
</event>
<event>
 4    1  0.4844629E-001  0.8229297E+02  0.7546771E-02  0.1322667E+00
         -1   -1    0    0    0  501 -0.00000000000E+00  0.00000000000E+00  0.14695045937E+02  0.14695045937E+02  0.00000000000E+00 0.  1.
          1   -1    0    0  501    0  0.00000000000E+00 -0.00000000000E+00 -0.50270328636E+03  0.50270328636E+03  0.00000000000E+00 0. -1.
         24    1    1    2    0    0 -0.11596888169E+02  0.13054870771E+02 -0.16935380210E+03  0.18828925542E+03  0.80419002446E+02 0.  1.
        -24    1    1    2    0    0  0.11596888169E+02 -0.13054870771E+02 -0.31865443831E+03  0.32910907687E+03  0.80419002446E+02 0. -1.
<mgrwt>
<rscale>  0 0.82292973E+02</rscale>
<asrwt>0</asrwt>
<pdfrwt beam="1">  1        1 0.77338968E-01 0.82292973E+02</pdfrwt>
<pdfrwt beam="2">  1       -1 0.22607763E-02 0.82292973E+02</pdfrwt>
<totfact> 0.22905082E+04</totfact>
</mgrwt>
</event>
<event>
 4    1  0.4844629E-001  0.8291765E+02  0.7546771E-02  0.1320970E+00
         -1   -1    0    0    0  501 -0.00000000000E+00  0.00000000000E+00  0.31990573648E+01  0.31990573648E+01  0.00000000000E+00 0.  1.
          1   -1    0    0  501    0  0.00000000000E+00 -0.00000000000E+00 -0.30683524151E+04  0.30683524151E+04  0.00000000000E+00 0. -1.
         24    1    1    2    0    0  0.19350926017E+02 -0.58019904683E+01 -0.69200527150E+03  0.69695525908E+03  0.80419002446E+02 0.  1.
        -24    1    1    2    0    0 -0.19350926017E+02  0.58019904683E+01 -0.23731480862E+04  0.23745962133E+04  0.80419002446E+02 0.  1.
<mgrwt>
<rscale>  0 0.82917654E+02</rscale>
<asrwt>0</asrwt>
<pdfrwt beam="1">  1        1 0.47205338E+00 0.82917654E+02</pdfrwt>
<pdfrwt beam="2">  1       -1 0.49216355E-03 0.82917654E+02</pdfrwt>
<totfact> 0.33786357E+03</totfact>
</mgrwt>
</event>
<event>
 4    1  0.4844629E-001  0.1004782E+03  0.7546771E-02  0.1279294E+00
         -2   -1    0    0    0  501 -0.00000000000E+00  0.00000000000E+00  0.11869638373E+03  0.11869638373E+03  0.00000000000E+00 0.  1.
          2   -1    0    0  501    0  0.00000000000E+00 -0.00000000000E+00 -0.13298436323E+03  0.13298436323E+03  0.00000000000E+00 0. -1.
         24    1    1    2    0    0  0.22186440403E+02  0.56003701287E+02 -0.82690585691E+02  0.13012917279E+03  0.80419002446E+02 0.  1.
        -24    1    1    2    0    0 -0.22186440403E+02 -0.56003701287E+02  0.68402606185E+02  0.12155157417E+03  0.80419002446E+02 0.  1.
<mgrwt>
<rscale>  0 0.10047820E+03</rscale>
<asrwt>0</asrwt>
<pdfrwt beam="1">  1        2 0.20459133E-01 0.10047820E+03</pdfrwt>
<pdfrwt beam="2">  1       -2 0.18260982E-01 0.10047820E+03</pdfrwt>
<totfact> 0.61730612E+03</totfact>
</mgrwt>
</event>
<event>
 4    1  0.4844629E-001  0.1001303E+03  0.7546771E-02  0.1280022E+00
         -3   -1    0    0    0  501 -0.00000000000E+00  0.00000000000E+00  0.19692240022E+03  0.19692240022E+03  0.00000000000E+00 0.  1.
          3   -1    0    0  501    0  0.00000000000E+00 -0.00000000000E+00 -0.62284527608E+02  0.62284527608E+02  0.00000000000E+00 0. -1.
         24    1    1    2    0    0  0.46035811570E+02 -0.37941618109E+02  0.12269468652E+03  0.15836686644E+03  0.80419002446E+02 0.  1.
        -24    1    1    2    0    0 -0.46035811570E+02  0.37941618109E+02  0.11943186090E+02  0.10084006138E+03  0.80419002446E+02 0. -1.
<mgrwt>
<rscale>  0 0.10013031E+03</rscale>
<asrwt>0</asrwt>
<pdfrwt beam="1">  1        3 0.95822351E-02 0.10013031E+03</pdfrwt>
<pdfrwt beam="2">  1       -3 0.30295754E-01 0.10013031E+03</pdfrwt>
<totfact> 0.18114753E+03</totfact>
</mgrwt>
</event>
<event>
 4    1  0.4844629E-001  0.1280436E+03  0.7546771E-02  0.1230388E+00
         -2   -1    0    0    0  501 -0.00000000000E+00  0.00000000000E+00  0.12197252432E+02  0.12197252432E+02  0.00000000000E+00 0.  1.
          2   -1    0    0  501    0  0.00000000000E+00 -0.00000000000E+00 -0.13442682006E+04  0.13442682006E+04  0.00000000000E+00 0. -1.
         24    1    1    2    0    0 -0.11466437606E+02  0.98977115640E+02 -0.67187148857E+03  0.68396378685E+03  0.80419002446E+02 0.  1.
        -24    1    1    2    0    0  0.11466437606E+02 -0.98977115640E+02 -0.66019945961E+03  0.67250166619E+03  0.80419002446E+02 0.  0.
<mgrwt>
<rscale>  0 0.12804360E+03</rscale>
<asrwt>0</asrwt>
<pdfrwt beam="1">  1        2 0.20681055E+00 0.12804360E+03</pdfrwt>
<pdfrwt beam="2">  1       -2 0.18764999E-02 0.12804360E+03</pdfrwt>
<totfact> 0.13577022E+04</totfact>
</mgrwt>
</event>
<event>
 4    1  0.4844629E-001  0.1014839E+03  0.7546771E-02  0.1277206E+00
         -2   -1    0    0    0  501 -0.00000000000E+00  0.00000000000E+00  0.19609134590E+03  0.19609134590E+03  0.00000000000E+00 0.  1.
          2   -1    0    0  501    0  0.00000000000E+00 -0.00000000000E+00 -0.92437750542E+03  0.92437750542E+03  0.00000000000E+00 0. -1.
         24    1    1    2    0    0  0.23031808842E+02  0.57457000412E+02 -0.90822904173E+03  0.91388127200E+03  0.80419002446E+02 0. -1.
        -24    1    1    2    0    0 -0.23031808842E+02 -0.57457000412E+02  0.17994288222E+03  0.20658757932E+03  0.80419002446E+02 0.  1.
<mgrwt>
<rscale>  0 0.10148393E+03</rscale>
<asrwt>0</asrwt>
<pdfrwt beam="1">  1        2 0.14221192E+00 0.10148393E+03</pdfrwt>
<pdfrwt beam="2">  1       -2 0.30167900E-01 0.10148393E+03</pdfrwt>
<totfact> 0.30737895E+02</totfact>
</mgrwt>
</event>
<event>
 4    1  0.4844629E-001  0.9118860E+02  0.7546771E-02  0.1299999E+00
         -1   -1    0    0    0  501 -0.00000000000E+00  0.00000000000E+00  0.18161320969E+03  0.18161320969E+03  0.00000000000E+00 0.  1.
          1   -1    0    0  501    0  0.00000000000E+00 -0.00000000000E+00 -0.63160334091E+02  0.63160334091E+02  0.00000000000E+00 0. -1.
         24    1    1    2    0    0  0.39826120985E+02 -0.16187172744E+02  0.12341610372E+03  0.15344997584E+03  0.80419002446E+02 0.  1.
        -24    1    1    2    0    0 -0.39826120985E+02  0.16187172744E+02 -0.49632281155E+01  0.91323567943E+02  0.80419002446E+02 0. -1.
<mgrwt>
<rscale>  0 0.91188598E+02</rscale>
<asrwt>0</asrwt>
<pdfrwt beam="1">  1        1 0.97169745E-02 0.91188598E+02</pdfrwt>
<pdfrwt beam="2">  1       -1 0.27940494E-01 0.91188598E+02</pdfrwt>
<totfact> 0.70517668E+03</totfact>
</mgrwt>
</event>
<event>
 4    1  0.4844629E-001  0.8866751E+02  0.7546771E-02  0.1306111E+00
         -2   -1    0    0    0  501 -0.00000000000E+00  0.00000000000E+00  0.77709807726E+01  0.77709807726E+01  0.00000000000E+00 0.  1.
          2   -1    0    0  501    0  0.00000000000E+00 -0.00000000000E+00 -0.10178018552E+04  0.10178018552E+04  0.00000000000E+00 0. -1.
         24    1    1    2    0    0 -0.62472995250E+01 -0.36819585246E+02 -0.54470898153E+03  0.55187842966E+03  0.80419002446E+02 0. -1.
        -24    1    1    2    0    0  0.62472995250E+01  0.36819585246E+02 -0.46532189291E+03  0.47369440632E+03  0.80419002446E+02 0.  1.
<mgrwt>
<rscale>  0 0.88667506E+02</rscale>
<asrwt>0</asrwt>
<pdfrwt beam="1">  1        2 0.15658487E+00 0.88667506E+02</pdfrwt>
<pdfrwt beam="2">  1       -2 0.11955357E-02 0.88667506E+02</pdfrwt>
<totfact> 0.38116425E+04</totfact>
</mgrwt>
</event>
<event>
 4    1  0.4844629E-001  0.9271500E+02  0.7546771E-02  0.1296407E+00
         -1   -1    0    0    0  501 -0.00000000000E+00  0.00000000000E+00  0.58714324498E+02  0.58714324498E+02  0.00000000000E+00 0.  1.
          1   -1    0    0  501    0  0.00000000000E+00 -0.00000000000E+00 -0.15020097740E+03  0.15020097740E+03  0.00000000000E+00 0. -1.
         24    1    1    2    0    0 -0.57014983832E+01  0.45785854360E+02 -0.62349469826E+02  0.11172969115E+03  0.80419002446E+02 0. -1.
        -24    1    1    2    0    0  0.57014983832E+01 -0.45785854360E+02 -0.29137183074E+02  0.97185610741E+02  0.80419002446E+02 0.  1.
<mgrwt>
<rscale>  0 0.92714991E+02</rscale>
<asrwt>0</asrwt>
<pdfrwt beam="1">  1        1 0.23107842E-01 0.92715003E+02</pdfrwt>
<pdfrwt beam="2">  1       -1 0.90329732E-02 0.92715003E+02</pdfrwt>
<totfact> 0.13626427E+04</totfact>
</mgrwt>
</event>
<event>
 4    1  0.4844629E-001  0.8589546E+02  0.7546771E-02  0.1313107E+00
         -1   -1    0    0    0  501 -0.00000000000E+00  0.00000000000E+00  0.67832751181E+02  0.67832751181E+02  0.00000000000E+00 0.  1.
          1   -1    0    0  501    0  0.00000000000E+00 -0.00000000000E+00 -0.20841986176E+03  0.20841986176E+03  0.00000000000E+00 0. -1.
         24    1    1    2    0    0  0.72623056163E+01 -0.29292886822E+02  0.25216618086E+02  0.89520433887E+02  0.80419002446E+02 0.  1.
        -24    1    1    2    0    0 -0.72623056163E+01  0.29292886822E+02 -0.16580372867E+03  0.18673217906E+03  0.80419002446E+02 0. -1.
<mgrwt>
<rscale>  0 0.85895461E+02</rscale>
<asrwt>0</asrwt>
<pdfrwt beam="1">  1        1 0.32064594E-01 0.85895461E+02</pdfrwt>
<pdfrwt beam="2">  1       -1 0.10435808E-01 0.85895461E+02</pdfrwt>
<totfact> 0.72677151E+03</totfact>
</mgrwt>
</event>
<event>
 4    1  0.4884442E-001  0.8070902E+02  0.7546771E-02  0.1327051E+00
         -2   -1    0    0    0  501 -0.00000000000E+00  0.00000000000E+00  0.17890487974E+03  0.17890487974E+03  0.00000000000E+00 0.  1.
          2   -1    0    0  501    0  0.00000000000E+00 -0.00000000000E+00 -0.14235839779E+04  0.14235839779E+04  0.00000000000E+00 0. -1.
         24    1    1    2    0    0  0.52981450892E+01 -0.43196118013E+01 -0.14132711493E+04  0.14155738366E+04  0.80419002446E+02 0. -1.
        -24    1    1    2    0    0 -0.52981450892E+01  0.43196118013E+01  0.16859205121E+03  0.18691502100E+03  0.80419002446E+02 0.  1.
<mgrwt>
<rscale>  0 0.80709016E+02</rscale>
<asrwt>0</asrwt>
<pdfrwt beam="1">  1        2 0.21901293E+00 0.80709016E+02</pdfrwt>
<pdfrwt beam="2">  1       -2 0.27523827E-01 0.80709016E+02</pdfrwt>
<totfact> 0.19325728E+02</totfact>
</mgrwt>
</event>
<event>
 4    1  0.4844629E-001  0.1029533E+03  0.7546771E-02  0.1274205E+00
          1   -1    0    0  501    0  0.00000000000E+00  0.00000000000E+00  0.27233332961E+03  0.27233332961E+03  0.00000000000E+00 0. -1.
         -1   -1    0    0    0  501 -0.00000000000E+00 -0.00000000000E+00 -0.42564748106E+02  0.42564748106E+02  0.00000000000E+00 0.  1.
         24    1    1    2    0    0  0.37757302113E+02 -0.52024502280E+02  0.68814892715E+02  0.12383403455E+03  0.80419002446E+02 0.  0.
        -24    1    1    2    0    0 -0.37757302113E+02  0.52024502280E+02  0.16095368879E+03  0.19106404317E+03  0.80419002446E+02 0. -1.
<mgrwt>
<rscale>  0 0.10295328E+03</rscale>
<asrwt>0</asrwt>
<pdfrwt beam="1">  1        1 0.41897434E-01 0.10295328E+03</pdfrwt>
<pdfrwt beam="2">  1       -1 0.65484230E-02 0.10295328E+03</pdfrwt>
<totfact> 0.10687234E+04</totfact>
</mgrwt>
</event>
<event>
 4    1  0.4844629E-001  0.8121459E+02  0.7546771E-02  0.1325640E+00
          1   -1    0    0  501    0  0.00000000000E+00  0.00000000000E+00  0.17911249737E+04  0.17911249737E+04  0.00000000000E+00 0. -1.
         -1   -1    0    0    0  501 -0.00000000000E+00 -0.00000000000E+00 -0.10113690412E+02  0.10113690412E+02  0.00000000000E+00 0.  1.
         24    1    1    2    0    0 -0.84480049109E+01 -0.75647143896E+01  0.17232735012E+03  0.19050597167E+03  0.80419002446E+02 0.  1.
        -24    1    1    2    0    0  0.84480049109E+01  0.75647143896E+01  0.16086839332E+04  0.16107326924E+04  0.80419002446E+02 0.  0.
<mgrwt>
<rscale>  0 0.81214590E+02</rscale>
<asrwt>0</asrwt>
<pdfrwt beam="1">  1        1 0.27555744E+00 0.81214590E+02</pdfrwt>
<pdfrwt beam="2">  1       -1 0.15559538E-02 0.81214590E+02</pdfrwt>
<totfact> 0.44451967E+03</totfact>
</mgrwt>
</event>
<event>
 4    1  0.4844629E-001  0.8160100E+02  0.7546771E-02  0.1324568E+00
         -2   -1    0    0    0  501 -0.00000000000E+00  0.00000000000E+00  0.11662011859E+03  0.11662011859E+03  0.00000000000E+00 0.  1.
          2   -1    0    0  501    0  0.00000000000E+00 -0.00000000000E+00 -0.14184192980E+03  0.14184192980E+03  0.00000000000E+00 0. -1.
         24    1    1    2    0    0  0.12538645368E+02  0.58556939902E+01 -0.11250042657E+03  0.13897866279E+03  0.80419002446E+02 0. -1.
        -24    1    1    2    0    0 -0.12538645368E+02 -0.58556939902E+01  0.87278615364E+02  0.11948338560E+03  0.80419002446E+02 0.  0.
<mgrwt>
<rscale>  0 0.81600997E+02</rscale>
<asrwt>0</asrwt>
<pdfrwt beam="1">  1        2 0.21821835E-01 0.81600997E+02</pdfrwt>
<pdfrwt beam="2">  1       -2 0.17941557E-01 0.81600997E+02</pdfrwt>
<totfact> 0.58204091E+03</totfact>
</mgrwt>
</event>
<event>
 4    1  0.4844629E-001  0.1309478E+03  0.7546771E-02  0.1226056E+00
          2   -1    0    0  501    0  0.00000000000E+00  0.00000000000E+00  0.35596784013E+04  0.35596784013E+04  0.00000000000E+00 0. -1.
         -2   -1    0    0    0  501 -0.00000000000E+00 -0.00000000000E+00 -0.13205029115E+03  0.13205029115E+03  0.00000000000E+00 0.  1.
         24    1    1    2    0    0  0.90566078079E+02 -0.49778481455E+02  0.35256977186E+04  0.35281286443E+04  0.80419002446E+02 0. -1.
        -24    1    1    2    0    0 -0.90566078079E+02  0.49778481455E+02 -0.98069608434E+02  0.16360004819E+03  0.80419002446E+02 0.  1.
<mgrwt>
<rscale>  0 0.13094781E+03</rscale>
<asrwt>0</asrwt>
<pdfrwt beam="1">  1        2 0.54764276E+00 0.13094781E+03</pdfrwt>
<pdfrwt beam="2">  1       -2 0.20315432E-01 0.13094781E+03</pdfrwt>
<totfact> 0.21232692E+01</totfact>
</mgrwt>
</event>
<event>
 4    1  0.4844629E-001  0.8130895E+02  0.7546771E-02  0.1325377E+00
          2   -1    0    0  501    0  0.00000000000E+00  0.00000000000E+00  0.35834673155E+03  0.35834673155E+03  0.00000000000E+00 0. -1.
         -2   -1    0    0    0  501 -0.00000000000E+00 -0.00000000000E+00 -0.23296068024E+02  0.23296068024E+02  0.00000000000E+00 0.  1.
         24    1    1    2    0    0 -0.46869651552E+01 -0.11043633467E+02  0.25456645730E+03  0.26723627490E+03  0.80419002446E+02 0. -1.
        -24    1    1    2    0    0  0.46869651552E+01  0.11043633467E+02  0.80484206217E+02  0.11440652467E+03  0.80419002446E+02 0.  0.
<mgrwt>
<rscale>  0 0.81308951E+02</rscale>
<asrwt>0</asrwt>
<pdfrwt beam="1">  1        2 0.55130263E-01 0.81308951E+02</pdfrwt>
<pdfrwt beam="2">  1       -2 0.35840107E-02 0.81308951E+02</pdfrwt>
<totfact> 0.25770506E+04</totfact>
</mgrwt>
</event>
<event>
 4    1  0.4844629E-001  0.9364192E+02  0.7546771E-02  0.1294264E+00
         -2   -1    0    0    0  501 -0.00000000000E+00  0.00000000000E+00  0.10648284319E+04  0.10648284319E+04  0.00000000000E+00 0.  1.
          2   -1    0    0  501    0  0.00000000000E+00 -0.00000000000E+00 -0.41588669750E+02  0.41588669750E+02  0.00000000000E+00 0. -1.
         24    1    1    2    0    0  0.12147934299E+02 -0.46411435807E+02  0.16199917809E+02  0.95032873117E+02  0.80419002446E+02 0. -1.
        -24    1    1    2    0    0 -0.12147934299E+02  0.46411435807E+02  0.10070398443E+04  0.10113842285E+04  0.80419002446E+02 0.  1.
<mgrwt>
<rscale>  0 0.93641922E+02</rscale>
<asrwt>0</asrwt>
<pdfrwt beam="1">  1        2 0.63982577E-02 0.93641922E+02</pdfrwt>
<pdfrwt beam="2">  1       -2 0.16381974E+00 0.93641922E+02</pdfrwt>
<totfact> 0.28025689E+02</totfact>
</mgrwt>
</event>
<event>
 4    1  0.4844629E-001  0.1186543E+03  0.7546771E-02  0.1245334E+00
          2   -1    0    0  501    0  0.00000000000E+00  0.00000000000E+00  0.15175785400E+04  0.15175785400E+04  0.00000000000E+00 0. -1.
         -2   -1    0    0    0  501 -0.00000000000E+00 -0.00000000000E+00 -0.93282831847E+01  0.93282831847E+01  0.00000000000E+00 0.  1.
         24    1    1    2    0    0 -0.78069094540E+02  0.38946824879E+02  0.81063061780E+03  0.81926848661E+03  0.80419002446E+02 0.  0.
        -24    1    1    2    0    0  0.78069094540E+02 -0.38946824879E+02  0.69761963907E+03  0.70763833662E+03  0.80419002446E+02 0.  1.
<mgrwt>
<rscale>  0 0.11865435E+03</rscale>
<asrwt>0</asrwt>
<pdfrwt beam="1">  1        2 0.23347343E+00 0.11865435E+03</pdfrwt>
<pdfrwt beam="2">  1       -2 0.14351217E-02 0.11865435E+03</pdfrwt>
<totfact> 0.16143330E+04</totfact>
</mgrwt>
</event>
<event>
 4    1  0.4844629E-001  0.9034995E+02  0.7546771E-02  0.1302006E+00
          1   -1    0    0  501    0  0.00000000000E+00  0.00000000000E+00  0.10105177156E+04  0.10105177156E+04  0.00000000000E+00 0. -1.
         -1   -1    0    0    0  501 -0.00000000000E+00 -0.00000000000E+00 -0.10591415973E+02  0.10591415973E+02  0.00000000000E+00 0.  1.
         24    1    1    2    0    0 -0.40041415978E+02  0.96219905848E+01  0.25125822777E+03  0.26700900860E+03  0.80419002446E+02 0.  1.
        -24    1    1    2    0    0  0.40041415978E+02 -0.96219905848E+01  0.74866807190E+03  0.75410012302E+03  0.80419002446E+02 0. -1.
<mgrwt>
<rscale>  0 0.90349951E+02</rscale>
<asrwt>0</asrwt>
<pdfrwt beam="1">  1        1 0.15546419E+00 0.90349951E+02</pdfrwt>
<pdfrwt beam="2">  1       -1 0.16294494E-02 0.90349951E+02</pdfrwt>
<totfact> 0.13543181E+04</totfact>
</mgrwt>
</event>
<event>
 4    1  0.4844629E-001  0.8708289E+02  0.7546771E-02  0.1310074E+00
          1   -1    0    0  501    0  0.00000000000E+00  0.00000000000E+00  0.35267567894E+03  0.35267567894E+03  0.00000000000E+00 0. -1.
         -1   -1    0    0    0  501 -0.00000000000E+00 -0.00000000000E+00 -0.81008542726E+02  0.81008542726E+02  0.00000000000E+00 0.  1.
         24    1    1    2    0    0 -0.12524794227E+02  0.30973279086E+02 -0.50014703803E+02  0.10042360797E+03  0.80419002446E+02 0.  1.
        -24    1    1    2    0    0  0.12524794227E+02 -0.30973279086E+02  0.32168184002E+03  0.33326061369E+03  0.80419002446E+02 0. -1.
<mgrwt>
<rscale>  0 0.87082894E+02</rscale>
<asrwt>0</asrwt>
<pdfrwt beam="1">  1        1 0.54257796E-01 0.87082894E+02</pdfrwt>
<pdfrwt beam="2">  1       -1 0.12462853E-01 0.87082894E+02</pdfrwt>
<totfact> 0.29236129E+03</totfact>
</mgrwt>
</event>
<event>
 4    1  0.4844629E-001  0.8117172E+02  0.7546771E-02  0.1325759E+00
         -2   -1    0    0    0  501 -0.00000000000E+00  0.00000000000E+00  0.26969318521E+02  0.26969318521E+02  0.00000000000E+00 0.  1.
          2   -1    0    0  501    0  0.00000000000E+00 -0.00000000000E+00 -0.85717628594E+03  0.85717628594E+03  0.00000000000E+00 0. -1.
         24    1    1    2    0    0 -0.92335384829E+01 -0.60311374842E+01 -0.78890574306E+03  0.79307069057E+03  0.80419002446E+02 0.  0.
        -24    1    1    2    0    0  0.92335384829E+01  0.60311374842E+01 -0.41301224358E+02  0.91074913890E+02  0.80419002446E+02 0.  1.
<mgrwt>
<rscale>  0 0.81171724E+02</rscale>
<asrwt>0</asrwt>
<pdfrwt beam="1">  1        2 0.13187329E+00 0.81171724E+02</pdfrwt>
<pdfrwt beam="2">  1       -2 0.41491254E-02 0.81171724E+02</pdfrwt>
<totfact> 0.78886825E+03</totfact>
</mgrwt>
</event>
<event>
 4    1  0.4844629E-001  0.8235294E+02  0.7546771E-02  0.1322504E+00
          2   -1    0    0  501    0  0.00000000000E+00  0.00000000000E+00  0.31600577157E+03  0.31600577157E+03  0.00000000000E+00 0. -1.
         -2   -1    0    0    0  501 -0.00000000000E+00 -0.00000000000E+00 -0.23809445772E+02  0.23809445772E+02  0.00000000000E+00 0.  1.
         24    1    1    2    0    0  0.71320477657E+01  0.16245750148E+02  0.19945228695E+03  0.21578512745E+03  0.80419002446E+02 0. -1.
        -24    1    1    2    0    0 -0.71320477657E+01 -0.16245750148E+02  0.92744038843E+02  0.12403008989E+03  0.80419002446E+02 0.  1.
<mgrwt>
<rscale>  0 0.82352938E+02</rscale>
<asrwt>0</asrwt>
<pdfrwt beam="1">  1        2 0.48616270E-01 0.82352938E+02</pdfrwt>
<pdfrwt beam="2">  1       -2 0.36629919E-02 0.82352938E+02</pdfrwt>
<totfact> 0.28500312E+04</totfact>
</mgrwt>
</event>
<event>
 4    1  0.4844629E-001  0.1037788E+03  0.7546771E-02  0.1272545E+00
         -1   -1    0    0    0  501 -0.00000000000E+00  0.00000000000E+00  0.70453369285E+02  0.70453369285E+02  0.00000000000E+00 0.  1.
          1   -1    0    0  501    0  0.00000000000E+00 -0.00000000000E+00 -0.17654458670E+03  0.17654458670E+03  0.00000000000E+00 0. -1.
         24    1    1    2    0    0 -0.63402052707E+02  0.16822464511E+02 -0.78183623556E+01  0.10407285114E+03  0.80419002446E+02 0.  1.
        -24    1    1    2    0    0  0.63402052707E+02 -0.16822464511E+02 -0.98272855060E+02  0.14292510485E+03  0.80419002446E+02 0. -1.
<mgrwt>
<rscale>  0 0.10377876E+03</rscale>
<asrwt>0</asrwt>
<pdfrwt beam="1">  1        1 0.27160705E-01 0.10377876E+03</pdfrwt>
<pdfrwt beam="2">  1       -1 0.10838980E-01 0.10377876E+03</pdfrwt>
<totfact> 0.85487557E+03</totfact>
</mgrwt>
</event>
<event>
 4    1  0.4844629E-001  0.1526851E+03  0.7546771E-02  0.1197212E+00
          2   -1    0    0  501    0  0.00000000000E+00  0.00000000000E+00  0.34008175768E+03  0.34008175768E+03  0.00000000000E+00 0. -1.
         -2   -1    0    0    0  501 -0.00000000000E+00 -0.00000000000E+00 -0.10145967796E+03  0.10145967796E+03  0.00000000000E+00 0.  1.
         24    1    1    2    0    0  0.11049444947E+03 -0.68091839678E+02  0.24504539444E+03  0.28872128998E+03  0.80419002446E+02 0. -1.
        -24    1    1    2    0    0 -0.11049444947E+03  0.68091839678E+02 -0.64233147215E+01  0.15282014567E+03  0.80419002446E+02 0.  1.
<mgrwt>
<rscale>  0 0.15268509E+03</rscale>
<asrwt>0</asrwt>
<pdfrwt beam="1">  1        2 0.52320270E-01 0.15268509E+03</pdfrwt>
<pdfrwt beam="2">  1       -2 0.15609181E-01 0.15268509E+03</pdfrwt>
<totfact> 0.29779551E+03</totfact>
</mgrwt>
</event>
<event>
 4    1  0.4844629E-001  0.9172049E+02  0.7546771E-02  0.1298738E+00
          4   -1    0    0  501    0  0.00000000000E+00  0.00000000000E+00  0.77907038298E+01  0.77907038298E+01  0.00000000000E+00 0. -1.
         -4   -1    0    0    0  501 -0.00000000000E+00 -0.00000000000E+00 -0.12047883538E+04  0.12047883538E+04  0.00000000000E+00 0.  1.
         24    1    1    2    0    0 -0.38619580454E+02 -0.21306328735E+02 -0.40324269117E+03  0.41354239876E+03  0.80419002446E+02 0. -1.
        -24    1    1    2    0    0  0.38619580454E+02  0.21306328735E+02 -0.79375495885E+03  0.79903665892E+03  0.80419002446E+02 0.  1.
<mgrwt>
<rscale>  0 0.91720486E+02</rscale>
<asrwt>0</asrwt>
<pdfrwt beam="1">  1        4 0.11985712E-02 0.91720486E+02</pdfrwt>
<pdfrwt beam="2">  1       -4 0.18535184E+00 0.91720486E+02</pdfrwt>
<totfact> 0.62149032E+02</totfact>
</mgrwt>
</event>
<event>
 4    1  0.4844629E-001  0.1050856E+03  0.7546771E-02  0.1269951E+00
          1   -1    0    0  501    0  0.00000000000E+00  0.00000000000E+00  0.27476693654E+03  0.27476693654E+03  0.00000000000E+00 0. -1.
         -1   -1    0    0    0  501 -0.00000000000E+00 -0.00000000000E+00 -0.45319930719E+02  0.45319930719E+02  0.00000000000E+00 0.  1.
         24    1    1    2    0    0  0.23528157311E+02  0.63420826305E+02  0.60880121428E+02  0.12144702769E+03  0.80419002446E+02 0.  1.
        -24    1    1    2    0    0 -0.23528157311E+02 -0.63420826305E+02  0.16856688440E+03  0.19863983957E+03  0.80419002446E+02 0. -1.
<mgrwt>
<rscale>  0 0.10508564E+03</rscale>
<asrwt>0</asrwt>
<pdfrwt beam="1">  1        1 0.42271836E-01 0.10508564E+03</pdfrwt>
<pdfrwt beam="2">  1       -1 0.69722971E-02 0.10508564E+03</pdfrwt>
<totfact> 0.96471685E+03</totfact>
</mgrwt>
</event>
<event>
 4    1  0.4844629E-001  0.8320421E+02  0.7546771E-02  0.1320197E+00
         -1   -1    0    0    0  501 -0.00000000000E+00  0.00000000000E+00  0.14233578833E+02  0.14233578833E+02  0.00000000000E+00 0.  1.
          1   -1    0    0  501    0  0.00000000000E+00 -0.00000000000E+00 -0.59834645638E+03  0.59834645638E+03  0.00000000000E+00 0. -1.
         24    1    1    2    0    0 -0.28483989004E+01  0.21156834071E+02 -0.15956168203E+03  0.17995241407E+03  0.80419002446E+02 0.  0.
        -24    1    1    2    0    0  0.28483989004E+01 -0.21156834071E+02 -0.42455119551E+03  0.43262762114E+03  0.80419002446E+02 0. -1.
<mgrwt>
<rscale>  0 0.83204212E+02</rscale>
<asrwt>0</asrwt>
<pdfrwt beam="1">  1        1 0.92053284E-01 0.83204212E+02</pdfrwt>
<pdfrwt beam="2">  1       -1 0.21897818E-02 0.83204212E+02</pdfrwt>
<totfact> 0.19117211E+04</totfact>
</mgrwt>
</event>
<event>
 4    1  0.4844629E-001  0.8317457E+02  0.7546771E-02  0.1320276E+00
         -1   -1    0    0    0  501 -0.00000000000E+00  0.00000000000E+00  0.55699993910E+03  0.55699993910E+03  0.00000000000E+00 0.  1.
          1   -1    0    0  501    0  0.00000000000E+00 -0.00000000000E+00 -0.16082124844E+02  0.16082124844E+02  0.00000000000E+00 0. -1.
         24    1    1    2    0    0 -0.17294436495E+02  0.12316501995E+02  0.40719216993E+03  0.41560013591E+03  0.80419002446E+02 0.  1.
        -24    1    1    2    0    0  0.17294436495E+02 -0.12316501995E+02  0.13372564433E+03  0.15748192804E+03  0.80419002446E+02 0. -1.
<mgrwt>
<rscale>  0 0.83174574E+02</rscale>
<asrwt>0</asrwt>
<pdfrwt beam="1">  1        1 0.24741735E-02 0.83174574E+02</pdfrwt>
<pdfrwt beam="2">  1       -1 0.85692284E-01 0.83174574E+02</pdfrwt>
<totfact> 0.57660064E+03</totfact>
</mgrwt>
</event>
<event>
 4    1  0.4844629E-001  0.1058445E+03  0.7546771E-02  0.1268465E+00
         -2   -1    0    0    0  501 -0.00000000000E+00  0.00000000000E+00  0.53051343642E+01  0.53051343642E+01  0.00000000000E+00 0.  1.
          2   -1    0    0  501    0  0.00000000000E+00 -0.00000000000E+00 -0.23040106481E+04  0.23040106481E+04  0.00000000000E+00 0. -1.
         24    1    1    2    0    0  0.58099556384E+02  0.36882132452E+02 -0.14829075832E+04  0.14866801830E+04  0.80419002446E+02 0. -1.
        -24    1    1    2    0    0 -0.58099556384E+02 -0.36882132452E+02 -0.81579793045E+03  0.82263559942E+03  0.80419002446E+02 0.  1.
<mgrwt>
<rscale>  0 0.10584454E+03</rscale>
<asrwt>0</asrwt>
<pdfrwt beam="1">  1        2 0.35446352E+00 0.10584454E+03</pdfrwt>
<pdfrwt beam="2">  1       -2 0.81617372E-03 0.10584454E+03</pdfrwt>
<totfact> 0.14260323E+04</totfact>
</mgrwt>
</event>
<event>
 4    1  0.4844629E-001  0.9079464E+02  0.7546771E-02  0.1300939E+00
          2   -1    0    0  501    0  0.00000000000E+00  0.00000000000E+00  0.32706745218E+04  0.32706745218E+04  0.00000000000E+00 0. -1.
         -2   -1    0    0    0  501 -0.00000000000E+00 -0.00000000000E+00 -0.37194198599E+01  0.37194198599E+01  0.00000000000E+00 0.  1.
         24    1    1    2    0    0  0.41112709565E+02  0.92842111609E+01  0.25630048660E+04  0.25646125654E+04  0.80419002446E+02 0. -1.
        -24    1    1    2    0    0 -0.41112709565E+02 -0.92842111609E+01  0.70395023596E+03  0.70978137629E+03  0.80419002446E+02 0. -1.
<mgrwt>
<rscale>  0 0.90794644E+02</rscale>
<asrwt>0</asrwt>
<pdfrwt beam="1">  1        2 0.50317839E+00 0.90794644E+02</pdfrwt>
<pdfrwt beam="2">  1       -2 0.57222106E-03 0.90794644E+02</pdfrwt>
<totfact> 0.68465272E+03</totfact>
</mgrwt>
</event>
<event>
 4    1  0.4844629E-001  0.8187028E+02  0.7546771E-02  0.1323826E+00
          1   -1    0    0  501    0  0.00000000000E+00  0.00000000000E+00  0.78156348305E+03  0.78156348305E+03  0.00000000000E+00 0. -1.
         -1   -1    0    0    0  501 -0.00000000000E+00 -0.00000000000E+00 -0.59912977000E+02  0.59912977000E+02  0.00000000000E+00 0.  1.
         24    1    1    2    0    0  0.82343739128E+01  0.12950761812E+02 -0.28637900127E+02  0.86734493849E+02  0.80419002446E+02 0.  1.
        -24    1    1    2    0    0 -0.82343739128E+01 -0.12950761812E+02  0.75028840618E+03  0.75474196621E+03  0.80419002446E+02 0. -1.
<mgrwt>
<rscale>  0 0.81870282E+02</rscale>
<asrwt>0</asrwt>
<pdfrwt beam="1">  1        1 0.12024053E+00 0.81870282E+02</pdfrwt>
<pdfrwt beam="2">  1       -1 0.92173816E-02 0.81870282E+02</pdfrwt>
<totfact> 0.16228529E+03</totfact>
</mgrwt>
</event>
<event>
 4    1  0.4844629E-001  0.9620872E+02  0.7546771E-02  0.1288477E+00
          1   -1    0    0  501    0  0.00000000000E+00  0.00000000000E+00  0.55577348215E+02  0.55577348215E+02  0.00000000000E+00 0. -1.
         -1   -1    0    0    0  501 -0.00000000000E+00 -0.00000000000E+00 -0.18740199868E+03  0.18740199868E+03  0.00000000000E+00 0.  1.
         24    1    1    2    0    0 -0.38015429532E+02 -0.36656920847E+02 -0.10644265906E+03  0.14347877317E+03  0.80419002446E+02 0.  0.
        -24    1    1    2    0    0  0.38015429532E+02  0.36656920847E+02 -0.25381991400E+02  0.99500573718E+02  0.80419002446E+02 0.  1.
<mgrwt>
<rscale>  0 0.96208725E+02</rscale>
<asrwt>0</asrwt>
<pdfrwt beam="1">  1        1 0.85503612E-02 0.96208725E+02</pdfrwt>
<pdfrwt beam="2">  1       -1 0.28831077E-01 0.96208725E+02</pdfrwt>
<totfact> 0.79610600E+03</totfact>
</mgrwt>
</event>
<event>
 4    1  0.4844629E-001  0.1270189E+03  0.7546771E-02  0.1231947E+00
         -1   -1    0    0    0  501 -0.00000000000E+00  0.00000000000E+00  0.62410430751E+02  0.62410430751E+02  0.00000000000E+00 0.  1.
          1   -1    0    0  501    0  0.00000000000E+00 -0.00000000000E+00 -0.26450150231E+03  0.26450150231E+03  0.00000000000E+00 0. -1.
         24    1    1    2    0    0 -0.17654283974E+02 -0.96720746659E+02 -0.76446804316E+02  0.14824947360E+03  0.80419002446E+02 0.  1.
        -24    1    1    2    0    0  0.17654283974E+02  0.96720746659E+02 -0.12564426725E+03  0.17866245947E+03  0.80419002446E+02 0.  0.
<mgrwt>
<rscale>  0 0.12701887E+03</rscale>
<asrwt>0</asrwt>
<pdfrwt beam="1">  1        1 0.40692539E-01 0.12701887E+03</pdfrwt>
<pdfrwt beam="2">  1       -1 0.96016046E-02 0.12701887E+03</pdfrwt>
<totfact> 0.63359895E+03</totfact>
</mgrwt>
</event>
<event>
 4    1  0.4844629E-001  0.8240654E+02  0.7546771E-02  0.1322357E+00
         -1   -1    0    0    0  501 -0.00000000000E+00  0.00000000000E+00  0.43158416455E+01  0.43158416455E+01  0.00000000000E+00 0.  1.
          1   -1    0    0  501    0  0.00000000000E+00 -0.00000000000E+00 -0.16033143095E+04  0.16033143095E+04  0.00000000000E+00 0. -1.
         24    1    1    2    0    0 -0.19020761908E+01  0.17888636386E+02 -0.68982748595E+03  0.69473217684E+03  0.80419002446E+02 0.  1.
        -24    1    1    2    0    0  0.19020761908E+01 -0.17888636386E+02 -0.90917098187E+03  0.91289797427E+03  0.80419002446E+02 0. -1.
<mgrwt>
<rscale>  0 0.82406536E+02</rscale>
<asrwt>0</asrwt>
<pdfrwt beam="1">  1        1 0.24666396E+00 0.82406536E+02</pdfrwt>
<pdfrwt beam="2">  1       -1 0.66397503E-03 0.82406536E+02</pdfrwt>
<totfact> 0.19330516E+04</totfact>
</mgrwt>
</event>
<event>
 4    1  0.4844629E-001  0.8268671E+02  0.7546771E-02  0.1321595E+00
         -2   -1    0    0    0  501 -0.00000000000E+00  0.00000000000E+00  0.52496046938E+02  0.52496046938E+02  0.00000000000E+00 0.  1.
          2   -1    0    0  501    0  0.00000000000E+00 -0.00000000000E+00 -0.20639647200E+03  0.20639647200E+03  0.00000000000E+00 0. -1.
         24    1    1    2    0    0  0.37571065859E+01 -0.18861617006E+02 -0.15558077557E+03  0.17618873439E+03  0.80419002446E+02 0. -1.
        -24    1    1    2    0    0 -0.37571065859E+01  0.18861617006E+02  0.16803505057E+01  0.82703784546E+02  0.80419002446E+02 0.  1.
<mgrwt>
<rscale>  0 0.82686712E+02</rscale>
<asrwt>0</asrwt>
<pdfrwt beam="1">  1        2 0.31753304E-01 0.82686712E+02</pdfrwt>
<pdfrwt beam="2">  1       -2 0.80763148E-02 0.82686712E+02</pdfrwt>
<totfact> 0.13718381E+04</totfact>
</mgrwt>
</event>
<event>
 4    1  0.4844629E-001  0.8759473E+02  0.7546771E-02  0.1308783E+00
         -2   -1    0    0    0  501 -0.00000000000E+00  0.00000000000E+00  0.58056249824E+01  0.58056249824E+01  0.00000000000E+00 0.  1.
          2   -1    0    0  501    0  0.00000000000E+00 -0.00000000000E+00 -0.24948831794E+04  0.24948831794E+04  0.00000000000E+00 0. -1.
         24    1    1    2    0    0  0.30233506164E+02 -0.17075012516E+02 -0.21019754415E+04  0.21037997988E+04  0.80419002446E+02 0. -1.
        -24    1    1    2    0    0 -0.30233506164E+02  0.17075012516E+02 -0.38710211298E+03  0.39688900561E+03  0.80419002446E+02 0.  1.
<mgrwt>
<rscale>  0 0.87594731E+02</rscale>
<asrwt>0</asrwt>
<pdfrwt beam="1">  1        2 0.38382725E+00 0.87594731E+02</pdfrwt>
<pdfrwt beam="2">  1       -2 0.89317523E-03 0.87594731E+02</pdfrwt>
<totfact> 0.99221667E+03</totfact>
</mgrwt>
</event>
<event>
 4    1  0.4844629E-001  0.1114910E+03  0.7546771E-02  0.1257833E+00
          2   -1    0    0  501    0  0.00000000000E+00  0.00000000000E+00  0.43279985883E+03  0.43279985883E+03  0.00000000000E+00 0. -1.
         -2   -1    0    0    0  501 -0.00000000000E+00 -0.00000000000E+00 -0.29931818776E+02  0.29931818776E+02  0.00000000000E+00 0.  1.
         24    1    1    2    0    0  0.76957607049E+02  0.63686796801E+01  0.24797689645E+03  0.27188745924E+03  0.80419002446E+02 0.  1.
        -24    1    1    2    0    0 -0.76957607049E+02 -0.63686796801E+01  0.15489114361E+03  0.19084421837E+03  0.80419002446E+02 0. -1.
<mgrwt>
<rscale>  0 0.11149103E+03</rscale>
<asrwt>0</asrwt>
<pdfrwt beam="1">  1        2 0.66584589E-01 0.11149103E+03</pdfrwt>
<pdfrwt beam="2">  1       -2 0.46048955E-02 0.11149103E+03</pdfrwt>
<totfact> 0.15069873E+04</totfact>
</mgrwt>
</event>
<event>
 4    1  0.4844629E-001  0.8532577E+02  0.7546771E-02  0.1314583E+00
         -1   -1    0    0    0  501 -0.00000000000E+00  0.00000000000E+00  0.12472310810E+02  0.12472310810E+02  0.00000000000E+00 0.  1.
          1   -1    0    0  501    0  0.00000000000E+00 -0.00000000000E+00 -0.60310839832E+03  0.60310839832E+03  0.00000000000E+00 0. -1.
         24    1    1    2    0    0  0.23277050381E+02 -0.16475764580E+02 -0.24014930901E+03  0.25485717268E+03  0.80419002446E+02 0.  1.
        -24    1    1    2    0    0 -0.23277050381E+02  0.16475764580E+02 -0.35048677850E+03  0.36072353645E+03  0.80419002446E+02 0. -1.
<mgrwt>
<rscale>  0 0.85325775E+02</rscale>
<asrwt>0</asrwt>
<pdfrwt beam="1">  1        1 0.92785897E-01 0.85325775E+02</pdfrwt>
<pdfrwt beam="2">  1       -1 0.19188173E-02 0.85325775E+02</pdfrwt>
<totfact> 0.22891049E+04</totfact>
</mgrwt>
</event>
<event>
 4    1  0.4844629E-001  0.8983066E+02  0.7546771E-02  0.1303262E+00
          2   -1    0    0  501    0  0.00000000000E+00  0.00000000000E+00  0.52352227777E+03  0.52352227777E+03  0.00000000000E+00 0. -1.
         -2   -1    0    0    0  501 -0.00000000000E+00 -0.00000000000E+00 -0.41560404370E+02  0.41560404370E+02  0.00000000000E+00 0.  1.
         24    1    1    2    0    0  0.38753904799E+02 -0.10023258429E+02  0.46508437135E+03  0.47368029226E+03  0.80419002446E+02 0. -1.
        -24    1    1    2    0    0 -0.38753904799E+02  0.10023258429E+02  0.16877502056E+02  0.91402389885E+02  0.80419002446E+02 0.  1.
<mgrwt>
<rscale>  0 0.89830656E+02</rscale>
<asrwt>0</asrwt>
<pdfrwt beam="1">  1        2 0.80541884E-01 0.89830656E+02</pdfrwt>
<pdfrwt beam="2">  1       -2 0.63939088E-02 0.89830656E+02</pdfrwt>
<totfact> 0.73849560E+03</totfact>
</mgrwt>
</event>
<event>
 4    1  0.4844629E-001  0.9817784E+02  0.7546771E-02  0.1284175E+00
          2   -1    0    0  501    0  0.00000000000E+00  0.00000000000E+00  0.23416264376E+04  0.23416264376E+04  0.00000000000E+00 0. -1.
         -2   -1    0    0    0  501 -0.00000000000E+00 -0.00000000000E+00 -0.89954885574E+01  0.89954885574E+01  0.00000000000E+00 0.  1.
         24    1    1    2    0    0  0.47471500692E+01 -0.56117163747E+02  0.20319075058E+04  0.20342780045E+04  0.80419002446E+02 0. -1.
        -24    1    1    2    0    0 -0.47471500692E+01  0.56117163747E+02  0.30072344323E+03  0.31634392165E+03  0.80419002446E+02 0.  1.
<mgrwt>
<rscale>  0 0.98177836E+02</rscale>
<asrwt>0</asrwt>
<pdfrwt beam="1">  1        2 0.36024974E+00 0.98177836E+02</pdfrwt>
<pdfrwt beam="2">  1       -2 0.13839232E-02 0.98177836E+02</pdfrwt>
<totfact> 0.64227633E+03</totfact>
</mgrwt>
</event>
<event>
 4    1  0.4844629E-001  0.9347231E+02  0.7546771E-02  0.1294654E+00
          1   -1    0    0  501    0  0.00000000000E+00  0.00000000000E+00  0.28736486429E+02  0.28736486429E+02  0.00000000000E+00 0. -1.
         -1   -1    0    0    0  501 -0.00000000000E+00 -0.00000000000E+00 -0.30552168847E+03  0.30552168847E+03  0.00000000000E+00 0.  1.
         24    1    1    2    0    0  0.39946431702E+02 -0.25964099251E+02 -0.12675738632E+03  0.15749445322E+03  0.80419002446E+02 0.  1.
        -24    1    1    2    0    0 -0.39946431702E+02  0.25964099251E+02 -0.15002781572E+03  0.17676372167E+03  0.80419002446E+02 0.  0.
<mgrwt>
<rscale>  0 0.93472295E+02</rscale>
<asrwt>0</asrwt>
<pdfrwt beam="1">  1        1 0.44209980E-02 0.93472307E+02</pdfrwt>
<pdfrwt beam="2">  1       -1 0.47003336E-01 0.93472307E+02</pdfrwt>
<totfact> 0.83153156E+03</totfact>
</mgrwt>
</event>
<event>
 4    1  0.4844629E-001  0.9439561E+02  0.7546771E-02  0.1292543E+00
         -1   -1    0    0    0  501 -0.00000000000E+00  0.00000000000E+00  0.97365103621E+02  0.97365103621E+02  0.00000000000E+00 0.  1.
          1   -1    0    0  501    0  0.00000000000E+00 -0.00000000000E+00 -0.10565035467E+03  0.10565035467E+03  0.00000000000E+00 0. -1.
         24    1    1    2    0    0  0.12568822301E+02  0.47805228975E+02  0.32984485482E+02  0.99992536963E+02  0.80419002446E+02 0.  1.
        -24    1    1    2    0    0 -0.12568822301E+02 -0.47805228975E+02 -0.41269736533E+02  0.10302292133E+03  0.80419002446E+02 0. -1.
<mgrwt>
<rscale>  0 0.94395610E+02</rscale>
<asrwt>0</asrwt>
<pdfrwt beam="1">  1        1 0.16253901E-01 0.94395610E+02</pdfrwt>
<pdfrwt beam="2">  1       -1 0.14979247E-01 0.94395610E+02</pdfrwt>
<totfact> 0.98281318E+03</totfact>
</mgrwt>
</event>
<event>
 4    1  0.4844629E-001  0.9856185E+02  0.7546771E-02  0.1283350E+00
          2   -1    0    0  501    0  0.00000000000E+00  0.00000000000E+00  0.26373688889E+03  0.26373688889E+03  0.00000000000E+00 0. -1.
         -2   -1    0    0    0  501 -0.00000000000E+00 -0.00000000000E+00 -0.58941398132E+02  0.58941398132E+02  0.00000000000E+00 0.  1.
         24    1    1    2    0    0  0.41793478697E+02 -0.38736631722E+02  0.20120756382E+03  0.22405115753E+03  0.80419002446E+02 0. -1.
        -24    1    1    2    0    0 -0.41793478697E+02  0.38736631722E+02  0.35879269458E+01  0.98627129497E+02  0.80419002446E+02 0.  1.
<mgrwt>
<rscale>  0 0.98561846E+02</rscale>
<asrwt>0</asrwt>
<pdfrwt beam="1">  1        2 0.40574905E-01 0.98561846E+02</pdfrwt>
<pdfrwt beam="2">  1       -2 0.90679075E-02 0.98561846E+02</pdfrwt>
<totfact> 0.90088796E+03</totfact>
</mgrwt>
</event>
<event>
 4    1  0.4844629E-001  0.8442882E+02  0.7546771E-02  0.1316933E+00
          1   -1    0    0  501    0  0.00000000000E+00  0.00000000000E+00  0.14385633535E+03  0.14385633535E+03  0.00000000000E+00 0. -1.
         -1   -1    0    0    0  501 -0.00000000000E+00 -0.00000000000E+00 -0.14543540126E+03  0.14543540126E+03  0.00000000000E+00 0.  1.
         24    1    1    2    0    0  0.25709030810E+02  0.23582538796E+00 -0.11823734690E+03  0.14528694379E+03  0.80419002446E+02 0.  1.
        -24    1    1    2    0    0 -0.25709030810E+02 -0.23582538796E+00  0.11665828099E+03  0.14400479283E+03  0.80419002446E+02 0. -1.
<mgrwt>
<rscale>  0 0.84428821E+02</rscale>
<asrwt>0</asrwt>
<pdfrwt beam="1">  1        1 0.22131744E-01 0.84428821E+02</pdfrwt>
<pdfrwt beam="2">  1       -1 0.22374677E-01 0.84428821E+02</pdfrwt>
<totfact> 0.35097388E+03</totfact>
</mgrwt>
</event>
<event>
 4    1  0.4844629E-001  0.8436856E+02  0.7546771E-02  0.1317092E+00
          2   -1    0    0  501    0  0.00000000000E+00  0.00000000000E+00  0.13834261805E+04  0.13834261805E+04  0.00000000000E+00 0. -1.
         -2   -1    0    0    0  501 -0.00000000000E+00 -0.00000000000E+00 -0.52155650242E+01  0.52155650242E+01  0.00000000000E+00 0.  1.
         24    1    1    2    0    0  0.25243742239E+02 -0.36861086204E+01  0.60847720086E+03  0.61429842409E+03  0.80419002446E+02 0. -1.
        -24    1    1    2    0    0 -0.25243742239E+02  0.36861086204E+01  0.76973341461E+03  0.77434332143E+03  0.80419002446E+02 0.  0.
<mgrwt>
<rscale>  0 0.84368547E+02</rscale>
<asrwt>0</asrwt>
<pdfrwt beam="1">  1        2 0.21283450E+00 0.84368557E+02</pdfrwt>
<pdfrwt beam="2">  1       -2 0.80239572E-03 0.84368557E+02</pdfrwt>
<totfact> 0.42141093E+04</totfact>
</mgrwt>
</event>
<event>
 4    1  0.4844629E-001  0.1038325E+03  0.7546771E-02  0.1272437E+00
          2   -1    0    0  501    0  0.00000000000E+00  0.00000000000E+00  0.27716266454E+03  0.27716266454E+03  0.00000000000E+00 0. -1.
         -2   -1    0    0    0  501 -0.00000000000E+00 -0.00000000000E+00 -0.52362441490E+02  0.52362441490E+02  0.00000000000E+00 0.  1.
         24    1    1    2    0    0 -0.64580484509E+02  0.11971858878E+02  0.28852023911E+02  0.10776650511E+03  0.80419002446E+02 0.  0.
        -24    1    1    2    0    0  0.64580484509E+02 -0.11971858878E+02  0.19594819914E+03  0.22175860093E+03  0.80419002446E+02 0.  0.
<mgrwt>
<rscale>  0 0.10383248E+03</rscale>
<asrwt>0</asrwt>
<pdfrwt beam="1">  1        2 0.42640409E-01 0.10383249E+03</pdfrwt>
<pdfrwt beam="2">  1       -2 0.80557605E-02 0.10383249E+03</pdfrwt>
<totfact> 0.10305277E+04</totfact>
</mgrwt>
</event>
<event>
 4    1  0.4844629E-001  0.8481601E+02  0.7546771E-02  0.1315914E+00
          2   -1    0    0  501    0  0.00000000000E+00  0.00000000000E+00  0.14815802300E+04  0.14815802300E+04  0.00000000000E+00 0. -1.
         -2   -1    0    0    0  501 -0.00000000000E+00 -0.00000000000E+00 -0.18327731637E+02  0.18327731637E+02  0.00000000000E+00 0.  1.
         24    1    1    2    0    0  0.97666687677E+01  0.25122735959E+02  0.13746109639E+04  0.13772251296E+04  0.80419002446E+02 0. -1.
        -24    1    1    2    0    0 -0.97666687677E+01 -0.25122735959E+02  0.88641534464E+02  0.12268283200E+03  0.80419002446E+02 0.  1.
<mgrwt>
<rscale>  0 0.84816010E+02</rscale>
<asrwt>0</asrwt>
<pdfrwt beam="1">  1        2 0.22793533E+00 0.84816010E+02</pdfrwt>
<pdfrwt beam="2">  1       -2 0.28196522E-02 0.84816010E+02</pdfrwt>
<totfact> 0.62602419E+03</totfact>
</mgrwt>
</event>
<event>
 4    1  0.4844629E-001  0.9236028E+02  0.7546771E-02  0.1297235E+00
         -2   -1    0    0    0  501 -0.00000000000E+00  0.00000000000E+00  0.78590588085E+03  0.78590588085E+03  0.00000000000E+00 0.  1.
          2   -1    0    0  501    0  0.00000000000E+00 -0.00000000000E+00 -0.10855128634E+02  0.10855128634E+02  0.00000000000E+00 0. -1.
         24    1    1    2    0    0 -0.38010226367E+02 -0.24868218415E+02  0.38394810354E+03  0.39490070621E+03  0.80419002446E+02 0.  0.
        -24    1    1    2    0    0  0.38010226367E+02  0.24868218415E+02  0.39110264868E+03  0.40186030328E+03  0.80419002446E+02 0.  1.
<mgrwt>
<rscale>  0 0.92360281E+02</rscale>
<asrwt>0</asrwt>
<pdfrwt beam="1">  1        2 0.16700204E-02 0.92360281E+02</pdfrwt>
<pdfrwt beam="2">  1       -2 0.12090855E+00 0.92360281E+02</pdfrwt>
<totfact> 0.35097173E+03</totfact>
</mgrwt>
</event>
<event>
 4    1  0.4844629E-001  0.1038200E+03  0.7546771E-02  0.1272462E+00
          2   -1    0    0  501    0  0.00000000000E+00  0.00000000000E+00  0.43006826295E+04  0.43006826295E+04  0.00000000000E+00 0. -1.
         -2   -1    0    0    0  501 -0.00000000000E+00 -0.00000000000E+00 -0.65493095890E+01  0.65493095890E+01  0.00000000000E+00 0.  1.
         24    1    1    2    0    0  0.45979646985E+02 -0.46874819785E+02  0.38391645708E+04  0.38405680823E+04  0.80419002446E+02 0. -1.
        -24    1    1    2    0    0 -0.45979646985E+02  0.46874819785E+02  0.45496874902E+03  0.46666385676E+03  0.80419002446E+02 0.  1.
<mgrwt>
<rscale>  0 0.10382000E+03</rscale>
<asrwt>0</asrwt>
<pdfrwt beam="1">  1        2 0.66164123E+00 0.10382000E+03</pdfrwt>
<pdfrwt beam="2">  1       -2 0.10075895E-02 0.10382000E+03</pdfrwt>
<totfact> 0.58243462E+02</totfact>
</mgrwt>
</event>
<event>
 4    1  0.4844629E-001  0.8313079E+02  0.7546771E-02  0.1320394E+00
         -2   -1    0    0    0  501 -0.00000000000E+00  0.00000000000E+00  0.28045791543E+02  0.28045791543E+02  0.00000000000E+00 0.  1.
          2   -1    0    0  501    0  0.00000000000E+00 -0.00000000000E+00 -0.67485721741E+03  0.67485721741E+03  0.00000000000E+00 0. -1.
         24    1    1    2    0    0  0.23931432143E+01  0.20923324992E+02 -0.60343841558E+03  0.60913762814E+03  0.80419002446E+02 0. -1.
        -24    1    1    2    0    0 -0.23931432143E+01 -0.20923324992E+02 -0.43373010283E+02  0.93765380811E+02  0.80419002446E+02 0.  1.
<mgrwt>
<rscale>  0 0.83130792E+02</rscale>
<asrwt>0</asrwt>
<pdfrwt beam="1">  1        2 0.10382419E+00 0.83130792E+02</pdfrwt>
<pdfrwt beam="2">  1       -2 0.43147369E-02 0.83130792E+02</pdfrwt>
<totfact> 0.99291229E+03</totfact>
</mgrwt>
</event>
<event>
 4    1  0.4844629E-001  0.1183958E+03  0.7546771E-02  0.1245767E+00
          2   -1    0    0  501    0  0.00000000000E+00  0.00000000000E+00  0.14413782018E+03  0.14413782018E+03  0.00000000000E+00 0. -1.
         -2   -1    0    0    0  501 -0.00000000000E+00 -0.00000000000E+00 -0.97265803635E+02  0.97265803635E+02  0.00000000000E+00 0.  1.
         24    1    1    2    0    0  0.39304389464E+02 -0.77495226766E+02  0.21951824098E+02  0.12041363601E+03  0.80419002446E+02 0.  0.
        -24    1    1    2    0    0 -0.39304389464E+02  0.77495226766E+02  0.24920192452E+02  0.12098998780E+03  0.80419002446E+02 0.  1.
<mgrwt>
<rscale>  0 0.11839580E+03</rscale>
<asrwt>0</asrwt>
<pdfrwt beam="1">  1        2 0.22175049E-01 0.11839581E+03</pdfrwt>
<pdfrwt beam="2">  1       -2 0.14963970E-01 0.11839581E+03</pdfrwt>
<totfact> 0.79277674E+03</totfact>
</mgrwt>
</event>
<event>
 4    1  0.4844629E-001  0.1242188E+03  0.7546771E-02  0.1236295E+00
          4   -1    0    0  501    0  0.00000000000E+00  0.00000000000E+00  0.39170329485E+03  0.39170329485E+03  0.00000000000E+00 0. -1.
         -4   -1    0    0    0  501 -0.00000000000E+00 -0.00000000000E+00 -0.39989004935E+02  0.39989004935E+02  0.00000000000E+00 0.  1.
         24    1    1    2    0    0  0.52631582709E+02 -0.78695644626E+02  0.20221186562E+03  0.23731823051E+03  0.80419002446E+02 0. -1.
        -24    1    1    2    0    0 -0.52631582709E+02  0.78695644626E+02  0.14950242430E+03  0.19437406927E+03  0.80419002446E+02 0.  1.
<mgrwt>
<rscale>  0 0.12421877E+03</rscale>
<asrwt>0</asrwt>
<pdfrwt beam="1">  1        4 0.60262043E-01 0.12421877E+03</pdfrwt>
<pdfrwt beam="2">  1       -4 0.61521549E-02 0.12421877E+03</pdfrwt>
<totfact> 0.72832707E+02</totfact>
</mgrwt>
</event>
<event>
 4    1  0.4844629E-001  0.8982466E+02  0.7546771E-02  0.1303277E+00
         -2   -1    0    0    0  501 -0.00000000000E+00  0.00000000000E+00  0.18011143875E+03  0.18011143875E+03  0.00000000000E+00 0.  1.
          2   -1    0    0  501    0  0.00000000000E+00 -0.00000000000E+00 -0.44798293777E+02  0.44798293777E+02  0.00000000000E+00 0. -1.
         24    1    1    2    0    0 -0.28952268656E+02  0.27622752498E+02  0.68242272527E+02  0.11280724281E+03  0.80419002446E+02 0.  1.
        -24    1    1    2    0    0  0.28952268656E+02 -0.27622752498E+02  0.67070872445E+02  0.11210248972E+03  0.80419002446E+02 0. -1.
<mgrwt>
<rscale>  0 0.89824653E+02</rscale>
<asrwt>0</asrwt>
<pdfrwt beam="1">  1        2 0.68920453E-02 0.89824664E+02</pdfrwt>
<pdfrwt beam="2">  1       -2 0.27709452E-01 0.89824664E+02</pdfrwt>
<totfact> 0.10941382E+04</totfact>
</mgrwt>
</event>
<event>
 4    1  0.4844629E-001  0.8496417E+02  0.7546771E-02  0.1315526E+00
          2   -1    0    0  501    0  0.00000000000E+00  0.00000000000E+00  0.33634821691E+03  0.33634821691E+03  0.00000000000E+00 0. -1.
         -2   -1    0    0    0  501 -0.00000000000E+00 -0.00000000000E+00 -0.98739213895E+02  0.98739213895E+02  0.00000000000E+00 0.  1.
         24    1    1    2    0    0 -0.21878281703E+02  0.16523780785E+02  0.31125796161E+03  0.32264598116E+03  0.80419002446E+02 0. -1.
        -24    1    1    2    0    0  0.21878281703E+02 -0.16523780785E+02 -0.73648958593E+02  0.11244144964E+03  0.80419002446E+02 0.  1.
<mgrwt>
<rscale>  0 0.84964172E+02</rscale>
<asrwt>0</asrwt>
<pdfrwt beam="1">  1        2 0.51745879E-01 0.84964172E+02</pdfrwt>
<pdfrwt beam="2">  1       -2 0.15190648E-01 0.84964172E+02</pdfrwt>
<totfact> 0.30618894E+03</totfact>
</mgrwt>
</event>
<event>
 4    1  0.4844629E-001  0.9671666E+02  0.7546771E-02  0.1287356E+00
         -1   -1    0    0    0  501 -0.00000000000E+00  0.00000000000E+00  0.23262193210E+02  0.23262193210E+02  0.00000000000E+00 0.  1.
          1   -1    0    0  501    0  0.00000000000E+00 -0.00000000000E+00 -0.40241056250E+03  0.40241056250E+03  0.00000000000E+00 0. -1.
         24    1    1    2    0    0 -0.46831453695E+02  0.26338294543E+02 -0.19532974972E+03  0.21796288192E+03  0.80419002446E+02 0. -1.
        -24    1    1    2    0    0  0.46831453695E+02 -0.26338294543E+02 -0.18381861957E+03  0.20770987379E+03  0.80419002446E+02 0.  1.
<mgrwt>
<rscale>  0 0.96716643E+02</rscale>
<asrwt>0</asrwt>
<pdfrwt beam="1">  1        1 0.61909325E-01 0.96716655E+02</pdfrwt>
<pdfrwt beam="2">  1       -1 0.35787985E-02 0.96716655E+02</pdfrwt>
<totfact> 0.15929454E+04</totfact>
</mgrwt>
</event>
<event>
 4    1  0.4844629E-001  0.1150721E+03  0.7546771E-02  0.1251455E+00
         -1   -1    0    0    0  501 -0.00000000000E+00  0.00000000000E+00  0.28467588695E+02  0.28467588695E+02  0.00000000000E+00 0.  1.
          1   -1    0    0  501    0  0.00000000000E+00 -0.00000000000E+00 -0.10376853032E+04  0.10376853032E+04  0.00000000000E+00 0. -1.
         24    1    1    2    0    0  0.19647359258E+02 -0.79927186409E+02 -0.10864162374E+03  0.15825483315E+03  0.80419002446E+02 0.  1.
        -24    1    1    2    0    0 -0.19647359258E+02  0.79927186409E+02 -0.90057609076E+03  0.90789805873E+03  0.80419002446E+02 0. -1.
<mgrwt>
<rscale>  0 0.11507211E+03</rscale>
<asrwt>0</asrwt>
<pdfrwt beam="1">  1        1 0.15964394E+00 0.11507211E+03</pdfrwt>
<pdfrwt beam="2">  1       -1 0.43796278E-02 0.11507211E+03</pdfrwt>
<totfact> 0.31534537E+03</totfact>
</mgrwt>
</event>
<event>
 4    1  0.4844629E-001  0.9061908E+02  0.7546771E-02  0.1301359E+00
         -4   -1    0    0    0  501 -0.00000000000E+00  0.00000000000E+00  0.23760101427E+02  0.23760101427E+02  0.00000000000E+00 0.  1.
          4   -1    0    0  501    0  0.00000000000E+00 -0.00000000000E+00 -0.10514226951E+04  0.10514226951E+04  0.00000000000E+00 0. -1.
         24    1    1    2    0    0 -0.33633821571E+02 -0.24766267416E+02 -0.95429204756E+03  0.95858496230E+03  0.80419002446E+02 0. -1.
        -24    1    1    2    0    0  0.33633821571E+02  0.24766267416E+02 -0.73370546112E+02  0.11659783423E+03  0.80419002446E+02 0. -1.
<mgrwt>
<rscale>  0 0.90619081E+02</rscale>
<asrwt>0</asrwt>
<pdfrwt beam="1">  1        4 0.16175733E+00 0.90619081E+02</pdfrwt>
<pdfrwt beam="2">  1       -4 0.36554004E-02 0.90619081E+02</pdfrwt>
<totfact> 0.16108135E+02</totfact>
</mgrwt>
</event>
<event>
 4    1  0.4844629E-001  0.9375808E+02  0.7546771E-02  0.1293998E+00
         -2   -1    0    0    0  501 -0.00000000000E+00  0.00000000000E+00  0.49486947582E+03  0.49486947582E+03  0.00000000000E+00 0.  1.
          2   -1    0    0  501    0  0.00000000000E+00 -0.00000000000E+00 -0.18356445366E+02  0.18356445366E+02  0.00000000000E+00 0. -1.
         24    1    1    2    0    0  0.41419902977E+02 -0.24652642368E+02  0.19213337207E+03  0.21378917128E+03  0.80419002446E+02 0.  0.
        -24    1    1    2    0    0 -0.41419902977E+02  0.24652642368E+02  0.28437965838E+03  0.29943674991E+03  0.80419002446E+02 0.  1.
<mgrwt>
<rscale>  0 0.93758077E+02</rscale>
<asrwt>0</asrwt>
<pdfrwt beam="1">  1        2 0.28240689E-02 0.93758077E+02</pdfrwt>
<pdfrwt beam="2">  1       -2 0.76133755E-01 0.93758077E+02</pdfrwt>
<totfact> 0.49423975E+03</totfact>
</mgrwt>
</event>
<event>
 4    1  0.4844629E-001  0.9694495E+02  0.7546771E-02  0.1286855E+00
         -1   -1    0    0    0  501 -0.00000000000E+00  0.00000000000E+00  0.48461274555E+03  0.48461274555E+03  0.00000000000E+00 0.  1.
          1   -1    0    0  501    0  0.00000000000E+00 -0.00000000000E+00 -0.24191913198E+02  0.24191913198E+02  0.00000000000E+00 0. -1.
         24    1    1    2    0    0 -0.46459905079E+02  0.27795314803E+02  0.11690867775E+03  0.15187480763E+03  0.80419002446E+02 0. -1.
        -24    1    1    2    0    0  0.46459905079E+02 -0.27795314803E+02  0.34351215461E+03  0.35692985112E+03  0.80419002446E+02 0.  1.
<mgrwt>
<rscale>  0 0.96944936E+02</rscale>
<asrwt>0</asrwt>
<pdfrwt beam="1">  1        1 0.37218332E-02 0.96944948E+02</pdfrwt>
<pdfrwt beam="2">  1       -1 0.74555800E-01 0.96944948E+02</pdfrwt>
<totfact> 0.44294434E+03</totfact>
</mgrwt>
</event>
<event>
 4    1  0.4844629E-001  0.9016119E+02  0.7546771E-02  0.1302462E+00
          2   -1    0    0  501    0  0.00000000000E+00  0.00000000000E+00  0.70751890249E+02  0.70751890249E+02  0.00000000000E+00 0. -1.
         -2   -1    0    0    0  501 -0.00000000000E+00 -0.00000000000E+00 -0.12642982361E+03  0.12642982361E+03  0.00000000000E+00 0.  1.
         24    1    1    2    0    0 -0.52696723438E+01  0.40423400651E+02 -0.57618494607E+02  0.10699966188E+03  0.80419002446E+02 0. -1.
        -24    1    1    2    0    0  0.52696723438E+01 -0.40423400651E+02  0.19405612486E+01  0.90182051979E+02  0.80419002446E+02 0.  1.
<mgrwt>
<rscale>  0 0.90161182E+02</rscale>
<asrwt>0</asrwt>
<pdfrwt beam="1">  1        2 0.10884906E-01 0.90161193E+02</pdfrwt>
<pdfrwt beam="2">  1       -2 0.19450742E-01 0.90161193E+02</pdfrwt>
<totfact> 0.11437442E+04</totfact>
</mgrwt>
</event>
<event>
 4    1  0.4844629E-001  0.1010820E+03  0.7546771E-02  0.1278037E+00
          1   -1    0    0  501    0  0.00000000000E+00  0.00000000000E+00  0.40116678991E+02  0.40116678991E+02  0.00000000000E+00 0. -1.
         -1   -1    0    0    0  501 -0.00000000000E+00 -0.00000000000E+00 -0.26297761951E+03  0.26297761951E+03  0.00000000000E+00 0.  1.
         24    1    1    2    0    0 -0.36412636003E+02 -0.49238967111E+02 -0.13832331320E+03  0.17132107539E+03  0.80419002446E+02 0. -1.
        -24    1    1    2    0    0  0.36412636003E+02  0.49238967111E+02 -0.84537627319E+02  0.13177322311E+03  0.80419002446E+02 0.  0.
<mgrwt>
<rscale>  0 0.10108201E+03</rscale>
<asrwt>0</asrwt>
<pdfrwt beam="1">  1        1 0.61717968E-02 0.10108201E+03</pdfrwt>
<pdfrwt beam="2">  1       -1 0.40458095E-01 0.10108201E+03</pdfrwt>
<totfact> 0.69506077E+03</totfact>
</mgrwt>
</event>
<event>
 4    1  0.4844629E-001  0.8452464E+02  0.7546771E-02  0.1316680E+00
          2   -1    0    0  501    0  0.00000000000E+00  0.00000000000E+00  0.14168619195E+04  0.14168619195E+04  0.00000000000E+00 0. -1.
         -2   -1    0    0    0  501 -0.00000000000E+00 -0.00000000000E+00 -0.89527054742E+01  0.89527054742E+01  0.00000000000E+00 0.  1.
         24    1    1    2    0    0 -0.12297863879E+02  0.22933849873E+02  0.11751055608E+04  0.11781415424E+04  0.80419002446E+02 0. -1.
        -24    1    1    2    0    0  0.12297863879E+02 -0.22933849873E+02  0.23280365317E+03  0.24767308253E+03  0.80419002446E+02 0.  1.
<mgrwt>
<rscale>  0 0.84524641E+02</rscale>
<asrwt>0</asrwt>
<pdfrwt beam="1">  1        2 0.21797858E+00 0.84524641E+02</pdfrwt>
<pdfrwt beam="2">  1       -2 0.13773404E-02 0.84524641E+02</pdfrwt>
<totfact> 0.18867649E+04</totfact>
</mgrwt>
</event>
<event>
 4    1  0.4844629E-001  0.8221213E+02  0.7546771E-02  0.1322888E+00
          2   -1    0    0  501    0  0.00000000000E+00  0.00000000000E+00  0.14734257502E+03  0.14734257502E+03  0.00000000000E+00 0. -1.
         -2   -1    0    0    0  501 -0.00000000000E+00 -0.00000000000E+00 -0.75154497175E+02  0.75154497175E+02  0.00000000000E+00 0.  1.
         24    1    1    2    0    0 -0.12885291417E+02  0.11206604636E+02  0.10553633792E+03  0.13377874756E+03  0.80419002446E+02 0.  0.
        -24    1    1    2    0    0  0.12885291417E+02 -0.11206604636E+02 -0.33348260073E+02  0.88718324638E+02  0.80419002446E+02 0.  0.
<mgrwt>
<rscale>  0 0.82212132E+02</rscale>
<asrwt>0</asrwt>
<pdfrwt beam="1">  1        2 0.22668088E-01 0.82212132E+02</pdfrwt>
<pdfrwt beam="2">  1       -2 0.11562230E-01 0.82212132E+02</pdfrwt>
<totfact> 0.11317610E+04</totfact>
</mgrwt>
</event>
<event>
 4    1  0.4844629E-001  0.9229607E+02  0.7546771E-02  0.1297385E+00
         -1   -1    0    0    0  501 -0.00000000000E+00  0.00000000000E+00  0.87857704708E+01  0.87857704708E+01  0.00000000000E+00 0.  1.
          1   -1    0    0  501    0  0.00000000000E+00 -0.00000000000E+00 -0.96964761718E+03  0.96964761718E+03  0.00000000000E+00 0. -1.
         24    1    1    2    0    0 -0.37752234853E+02 -0.25022235128E+02 -0.48433293220E+03  0.49304862707E+03  0.80419002446E+02 0. -1.
        -24    1    1    2    0    0  0.37752234853E+02  0.25022235128E+02 -0.47652891452E+03  0.48538476059E+03  0.80419002446E+02 0.  1.
<mgrwt>
<rscale>  0 0.92296054E+02</rscale>
<asrwt>0</asrwt>
<pdfrwt beam="1">  1        1 0.14917653E+00 0.92296065E+02</pdfrwt>
<pdfrwt beam="2">  1       -1 0.13516572E-02 0.92296065E+02</pdfrwt>
<totfact> 0.18933970E+04</totfact>
</mgrwt>
</event>
<event>
 4    1  0.4844629E-001  0.1014696E+03  0.7546771E-02  0.1277236E+00
          2   -1    0    0  501    0  0.00000000000E+00  0.00000000000E+00  0.79683184829E+03  0.79683184829E+03  0.00000000000E+00 0. -1.
         -2   -1    0    0    0  501 -0.00000000000E+00 -0.00000000000E+00 -0.29945227506E+02  0.29945227506E+02  0.00000000000E+00 0.  1.
         24    1    1    2    0    0  0.31888664939E+02  0.53028118192E+02  0.69513470287E+03  0.70250148709E+03  0.80419002446E+02 0. -1.
        -24    1    1    2    0    0 -0.31888664939E+02 -0.53028118192E+02  0.71751917914E+02  0.12427558871E+03  0.80419002446E+02 0.  1.
<mgrwt>
<rscale>  0 0.10146962E+03</rscale>
<asrwt>0</asrwt>
<pdfrwt beam="1">  1        2 0.12258950E+00 0.10146962E+03</pdfrwt>
<pdfrwt beam="2">  1       -2 0.46069587E-02 0.10146962E+03</pdfrwt>
<totfact> 0.75033318E+03</totfact>
</mgrwt>
</event>
<event>
 4    1  0.4844629E-001  0.9416606E+02  0.7546771E-02  0.1293065E+00
         -2   -1    0    0    0  501 -0.00000000000E+00  0.00000000000E+00  0.20585892977E+02  0.20585892977E+02  0.00000000000E+00 0.  1.
          2   -1    0    0  501    0  0.00000000000E+00 -0.00000000000E+00 -0.91555686474E+03  0.91555686474E+03  0.00000000000E+00 0. -1.
         24    1    1    2    0    0 -0.15764674875E+02 -0.46384323116E+02 -0.78809483859E+03  0.79370064948E+03  0.80419002446E+02 0. -1.
        -24    1    1    2    0    0  0.15764674875E+02  0.46384323116E+02 -0.10687613317E+03  0.14244210824E+03  0.80419002446E+02 0.  1.
<mgrwt>
<rscale>  0 0.94166057E+02</rscale>
<asrwt>0</asrwt>
<pdfrwt beam="1">  1        2 0.14085490E+00 0.94166057E+02</pdfrwt>
<pdfrwt beam="2">  1       -2 0.31670606E-02 0.94166057E+02</pdfrwt>
<totfact> 0.10878752E+04</totfact>
</mgrwt>
</event>
<event>
 4    1  0.4844629E-001  0.8280145E+02  0.7546771E-02  0.1321284E+00
         -3   -1    0    0    0  501 -0.00000000000E+00  0.00000000000E+00  0.30515793170E+02  0.30515793170E+02  0.00000000000E+00 0.  1.
          3   -1    0    0  501    0  0.00000000000E+00 -0.00000000000E+00 -0.22949559579E+03  0.22949559579E+03  0.00000000000E+00 0. -1.
         24    1    1    2    0    0 -0.79136559739E+01 -0.18061971011E+02 -0.11833562507E+03  0.14442782579E+03  0.80419002446E+02 0.  0.
        -24    1    1    2    0    0  0.79136559739E+01  0.18061971011E+02 -0.80644177549E+02  0.11558356317E+03  0.80419002446E+02 0.  0.
<mgrwt>
<rscale>  0 0.82801440E+02</rscale>
<asrwt>0</asrwt>
<pdfrwt beam="1">  1        3 0.35307015E-01 0.82801450E+02</pdfrwt>
<pdfrwt beam="2">  1       -3 0.46947373E-02 0.82801450E+02</pdfrwt>
<totfact> 0.40891518E+03</totfact>
</mgrwt>
</event>
<event>
 4    1  0.4844629E-001  0.8408850E+02  0.7546771E-02  0.1317834E+00
          2   -1    0    0  501    0  0.00000000000E+00  0.00000000000E+00  0.68368090347E+01  0.68368090347E+01  0.00000000000E+00 0. -1.
         -2   -1    0    0    0  501 -0.00000000000E+00 -0.00000000000E+00 -0.10682065226E+04  0.10682065226E+04  0.00000000000E+00 0.  1.
         24    1    1    2    0    0 -0.14717298569E+02  0.19673863740E+02 -0.43482917298E+03  0.44288518311E+03  0.80419002446E+02 0.  0.
        -24    1    1    2    0    0  0.14717298569E+02 -0.19673863740E+02 -0.62654054057E+03  0.63215814850E+03  0.80419002446E+02 0. -1.
<mgrwt>
<rscale>  0 0.84088499E+02</rscale>
<asrwt>0</asrwt>
<pdfrwt beam="1">  1        2 0.10518172E-02 0.84088499E+02</pdfrwt>
<pdfrwt beam="2">  1       -2 0.16433940E+00 0.84088499E+02</pdfrwt>
<totfact> 0.30383010E+03</totfact>
</mgrwt>
</event>
<event>
 4    1  0.4844629E-001  0.8646155E+02  0.7546771E-02  0.1311654E+00
          1   -1    0    0  501    0  0.00000000000E+00  0.00000000000E+00  0.10568718761E+02  0.10568718761E+02  0.00000000000E+00 0. -1.
         -1   -1    0    0    0  501 -0.00000000000E+00 -0.00000000000E+00 -0.70733471733E+03  0.70733471733E+03  0.00000000000E+00 0.  1.
         24    1    1    2    0    0 -0.28337454286E+02  0.14330668482E+02 -0.34770885551E+03  0.35829742328E+03  0.80419002446E+02 0.  1.
        -24    1    1    2    0    0  0.28337454286E+02 -0.14330668482E+02 -0.34905714306E+03  0.35960601281E+03  0.80419002446E+02 0. -1.
<mgrwt>
<rscale>  0 0.86461536E+02</rscale>
<asrwt>0</asrwt>
<pdfrwt beam="1">  1        1 0.16259571E-02 0.86461547E+02</pdfrwt>
<pdfrwt beam="2">  1       -1 0.10882070E+00 0.86461547E+02</pdfrwt>
<totfact> 0.61687581E+03</totfact>
</mgrwt>
</event>
<event>
 4    1  0.4844629E-001  0.9199631E+02  0.7546771E-02  0.1298088E+00
          1   -1    0    0  501    0  0.00000000000E+00  0.00000000000E+00  0.10794114251E+04  0.10794114251E+04  0.00000000000E+00 0. -1.
         -1   -1    0    0    0  501 -0.00000000000E+00 -0.00000000000E+00 -0.89780240068E+01  0.89780240068E+01  0.00000000000E+00 0.  1.
         24    1    1    2    0    0 -0.42825174529E+02  0.12732254996E+02  0.34152568957E+03  0.35369919208E+03  0.80419002446E+02 0.  1.
        -24    1    1    2    0    0  0.42825174529E+02 -0.12732254996E+02  0.72890771150E+03  0.73469025700E+03  0.80419002446E+02 0. -1.
<mgrwt>
<rscale>  0 0.91996314E+02</rscale>
<asrwt>0</asrwt>
<pdfrwt beam="1">  1        1 0.16606319E+00 0.91996314E+02</pdfrwt>
<pdfrwt beam="2">  1       -1 0.13812353E-02 0.91996314E+02</pdfrwt>
<totfact> 0.15327773E+04</totfact>
</mgrwt>
</event>
<event>
 4    1  0.4844629E-001  0.8799652E+02  0.7546771E-02  0.1307777E+00
          4   -1    0    0  501    0  0.00000000000E+00  0.00000000000E+00  0.18486481298E+02  0.18486481298E+02  0.00000000000E+00 0. -1.
         -4   -1    0    0    0  501 -0.00000000000E+00 -0.00000000000E+00 -0.52790607656E+03  0.52790607656E+03  0.00000000000E+00 0.  1.
         24    1    1    2    0    0 -0.33575090034E+02  0.12201862260E+02 -0.13054847358E+03  0.15743662859E+03  0.80419002446E+02 0.  0.
        -24    1    1    2    0    0  0.33575090034E+02 -0.12201862260E+02 -0.37887112169E+03  0.38895592927E+03  0.80419002446E+02 0. -1.
<mgrwt>
<rscale>  0 0.87996523E+02</rscale>
<asrwt>0</asrwt>
<pdfrwt beam="1">  1        4 0.28440745E-02 0.87996523E+02</pdfrwt>
<pdfrwt beam="2">  1       -4 0.81216306E-01 0.87996523E+02</pdfrwt>
<totfact> 0.12036593E+03</totfact>
</mgrwt>
</event>
<event>
 4    1  0.4844629E-001  0.8475692E+02  0.7546771E-02  0.1316069E+00
         -3   -1    0    0    0  501 -0.00000000000E+00  0.00000000000E+00  0.61928841046E+02  0.61928841046E+02  0.00000000000E+00 0.  1.
          3   -1    0    0  501    0  0.00000000000E+00 -0.00000000000E+00 -0.13502091067E+03  0.13502091067E+03  0.00000000000E+00 0. -1.
         24    1    1    2    0    0  0.22354874897E+02 -0.14723440828E+02  0.41484694810E+00  0.84757938825E+02  0.80419002446E+02 0.  0.
        -24    1    1    2    0    0 -0.22354874897E+02  0.14723440828E+02 -0.73506916573E+02  0.11219181289E+03  0.80419002446E+02 0.  0.
<mgrwt>
<rscale>  0 0.84756924E+02</rscale>
<asrwt>0</asrwt>
<pdfrwt beam="1">  1        3 0.20772448E-01 0.84756924E+02</pdfrwt>
<pdfrwt beam="2">  1       -3 0.95275140E-02 0.84756924E+02</pdfrwt>
<totfact> 0.34741716E+03</totfact>
</mgrwt>
</event>
<event>
 4    1  0.4844629E-001  0.8400777E+02  0.7546771E-02  0.1318048E+00
          1   -1    0    0  501    0  0.00000000000E+00  0.00000000000E+00  0.29474923292E+03  0.29474923292E+03  0.00000000000E+00 0. -1.
         -1   -1    0    0    0  501 -0.00000000000E+00 -0.00000000000E+00 -0.26093241795E+02  0.26093241795E+02  0.00000000000E+00 0.  1.
         24    1    1    2    0    0 -0.22640502780E+02  0.88030699522E+01  0.18037483934E+03  0.19897835316E+03  0.80419002446E+02 0.  0.
        -24    1    1    2    0    0  0.22640502780E+02 -0.88030699522E+01  0.88281151787E+02  0.12186412155E+03  0.80419002446E+02 0.  0.
<mgrwt>
<rscale>  0 0.84007762E+02</rscale>
<asrwt>0</asrwt>
<pdfrwt beam="1">  1        1 0.45346034E-01 0.84007773E+02</pdfrwt>
<pdfrwt beam="2">  1       -1 0.40143451E-02 0.84007773E+02</pdfrwt>
<totfact> 0.19493043E+04</totfact>
</mgrwt>
</event>
<event>
 4    1  0.4844629E-001  0.9988179E+02  0.7546771E-02  0.1280545E+00
          1   -1    0    0  501    0  0.00000000000E+00  0.00000000000E+00  0.61691176050E+02  0.61691176050E+02  0.00000000000E+00 0. -1.
         -1   -1    0    0    0  501 -0.00000000000E+00 -0.00000000000E+00 -0.21456097373E+03  0.21456097373E+03  0.00000000000E+00 0.  1.
         24    1    1    2    0    0  0.56434517063E+02 -0.18008342412E+02 -0.14498489278E+03  0.17605962115E+03  0.80419002446E+02 0.  1.
        -24    1    1    2    0    0 -0.56434517063E+02  0.18008342412E+02 -0.78849048994E+01  0.10019252862E+03  0.80419002446E+02 0. -1.
<mgrwt>
<rscale>  0 0.99881785E+02</rscale>
<asrwt>0</asrwt>
<pdfrwt beam="1">  1        1 0.94909503E-02 0.99881785E+02</pdfrwt>
<pdfrwt beam="2">  1       -1 0.33009380E-01 0.99881785E+02</pdfrwt>
<totfact> 0.55490423E+03</totfact>
</mgrwt>
</event>
<event>
 4    1  0.4844629E-001  0.1059923E+03  0.7546771E-02  0.1268177E+00
          2   -1    0    0  501    0  0.00000000000E+00  0.00000000000E+00  0.57766565388E+03  0.57766565388E+03  0.00000000000E+00 0. -1.
         -2   -1    0    0    0  501 -0.00000000000E+00 -0.00000000000E+00 -0.19473671888E+02  0.19473671888E+02  0.00000000000E+00 0.  1.
         24    1    1    2    0    0 -0.19042487656E+02 -0.66366685532E+02  0.28996295369E+03  0.30872784738E+03  0.80419002446E+02 0. -1.
        -24    1    1    2    0    0  0.19042487656E+02  0.66366685532E+02  0.26822902831E+03  0.28841147839E+03  0.80419002446E+02 0.  1.
<mgrwt>
<rscale>  0 0.10599231E+03</rscale>
<asrwt>0</asrwt>
<pdfrwt beam="1">  1        2 0.88871626E-01 0.10599231E+03</pdfrwt>
<pdfrwt beam="2">  1       -2 0.29959500E-02 0.10599231E+03</pdfrwt>
<totfact> 0.20629971E+04</totfact>
</mgrwt>
</event>
<event>
 4    1  0.4844629E-001  0.8986496E+02  0.7546771E-02  0.1303179E+00
         -2   -1    0    0    0  501 -0.00000000000E+00  0.00000000000E+00  0.11953797257E+02  0.11953797257E+02  0.00000000000E+00 0.  1.
          2   -1    0    0  501    0  0.00000000000E+00 -0.00000000000E+00 -0.67762909213E+03  0.67762909213E+03  0.00000000000E+00 0. -1.
         24    1    1    2    0    0 -0.27605785082E+02 -0.29093147027E+02 -0.31386211591E+03  0.32647378813E+03  0.80419002446E+02 0.  0.
        -24    1    1    2    0    0  0.27605785082E+02  0.29093147027E+02 -0.35181317896E+03  0.36310910126E+03  0.80419002446E+02 0.  0.
<mgrwt>
<rscale>  0 0.89864946E+02</rscale>
<asrwt>0</asrwt>
<pdfrwt beam="1">  1        2 0.10425065E+00 0.89864957E+02</pdfrwt>
<pdfrwt beam="2">  1       -2 0.18390454E-02 0.89864957E+02</pdfrwt>
<totfact> 0.34281060E+04</totfact>
</mgrwt>
</event>
<event>
 4    1  0.4844629E-001  0.8862064E+02  0.7546771E-02  0.1306227E+00
          2   -1    0    0  501    0  0.00000000000E+00  0.00000000000E+00  0.10124101579E+04  0.10124101579E+04  0.00000000000E+00 0. -1.
         -2   -1    0    0    0  501 -0.00000000000E+00 -0.00000000000E+00 -0.45330948538E+02  0.45330948538E+02  0.00000000000E+00 0.  1.
         24    1    1    2    0    0 -0.99374225800E+01  0.35883825646E+02  0.96503639244E+03  0.96909692807E+03  0.80419002446E+02 0. -1.
        -24    1    1    2    0    0  0.99374225800E+01 -0.35883825646E+02  0.20428169665E+01  0.88644178411E+02  0.80419002446E+02 0.  1.
<mgrwt>
<rscale>  0 0.88620637E+02</rscale>
<asrwt>0</asrwt>
<pdfrwt beam="1">  1        2 0.15575539E+00 0.88620637E+02</pdfrwt>
<pdfrwt beam="2">  1       -2 0.69739928E-02 0.88620637E+02</pdfrwt>
<totfact> 0.29447721E+03</totfact>
</mgrwt>
</event>
<event>
 4    1  0.4844629E-001  0.8373966E+02  0.7546771E-02  0.1318762E+00
          1   -1    0    0  501    0  0.00000000000E+00  0.00000000000E+00  0.75505771174E+03  0.75505771174E+03  0.00000000000E+00 0. -1.
         -1   -1    0    0    0  501 -0.00000000000E+00 -0.00000000000E+00 -0.11386588279E+02  0.11386588279E+02  0.00000000000E+00 0.  1.
         24    1    1    2    0    0 -0.23340490521E+02 -0.57967212431E+00  0.20728253898E+03  0.22355845195E+03  0.80419002446E+02 0.  0.
        -24    1    1    2    0    0  0.23340490521E+02  0.57967212431E+00  0.53638858448E+03  0.54288584807E+03  0.80419002446E+02 0. -1.
<mgrwt>
<rscale>  0 0.83739659E+02</rscale>
<asrwt>0</asrwt>
<pdfrwt beam="1">  1        1 0.11616269E+00 0.83739659E+02</pdfrwt>
<pdfrwt beam="2">  1       -1 0.17517834E-02 0.83739659E+02</pdfrwt>
<totfact> 0.19044645E+04</totfact>
</mgrwt>
</event>
<event>
 4    1  0.4844629E-001  0.8522266E+02  0.7546771E-02  0.1314851E+00
         -1   -1    0    0    0  501 -0.00000000000E+00  0.00000000000E+00  0.32997683631E+03  0.32997683631E+03  0.00000000000E+00 0.  1.
          1   -1    0    0  501    0  0.00000000000E+00 -0.00000000000E+00 -0.24421450696E+02  0.24421450696E+02  0.00000000000E+00 0. -1.
         24    1    1    2    0    0  0.15395626766E+02 -0.23635987719E+02  0.20845584094E+03  0.22520377176E+03  0.80419002446E+02 0.  1.
        -24    1    1    2    0    0 -0.15395626766E+02  0.23635987719E+02  0.97099544674E+02  0.12919451524E+03  0.80419002446E+02 0. -1.
<mgrwt>
<rscale>  0 0.85222657E+02</rscale>
<asrwt>0</asrwt>
<pdfrwt beam="1">  1        1 0.37571465E-02 0.85222657E+02</pdfrwt>
<pdfrwt beam="2">  1       -1 0.50765664E-01 0.85222657E+02</pdfrwt>
<totfact> 0.89500508E+03</totfact>
</mgrwt>
</event>
<event>
 4    1  0.4844629E-001  0.8429003E+02  0.7546771E-02  0.1317300E+00
          2   -1    0    0  501    0  0.00000000000E+00  0.00000000000E+00  0.14050286215E+04  0.14050286215E+04  0.00000000000E+00 0. -1.
         -2   -1    0    0    0  501 -0.00000000000E+00 -0.00000000000E+00 -0.51060738645E+01  0.51060738645E+01  0.00000000000E+00 0.  1.
         24    1    1    2    0    0  0.97367549625E+01 -0.23297837311E+02  0.76929290346E+03  0.77389688001E+03  0.80419002446E+02 0.  0.
        -24    1    1    2    0    0 -0.97367549625E+01  0.23297837311E+02  0.63062964422E+03  0.63623781540E+03  0.80419002446E+02 0.  0.
<mgrwt>
<rscale>  0 0.84290032E+02</rscale>
<asrwt>0</asrwt>
<pdfrwt beam="1">  1        2 0.21615794E+00 0.84290032E+02</pdfrwt>
<pdfrwt beam="2">  1       -2 0.78555094E-03 0.84290032E+02</pdfrwt>
<totfact> 0.42312017E+04</totfact>
</mgrwt>
</event>
<event>
 4    1  0.4844629E-001  0.1032844E+03  0.7546771E-02  0.1273537E+00
          2   -1    0    0  501    0  0.00000000000E+00  0.00000000000E+00  0.95999079364E+03  0.95999079364E+03  0.00000000000E+00 0. -1.
         -2   -1    0    0    0  501 -0.00000000000E+00 -0.00000000000E+00 -0.31357160270E+02  0.31357160270E+02  0.00000000000E+00 0.  1.
         24    1    1    2    0    0  0.13596477941E+02 -0.63368622553E+02  0.86259418663E+03  0.86875565800E+03  0.80419002446E+02 0. -1.
        -24    1    1    2    0    0 -0.13596477941E+02  0.63368622553E+02  0.66039446732E+02  0.12259229591E+03  0.80419002446E+02 0.  1.
<mgrwt>
<rscale>  0 0.10328438E+03</rscale>
<asrwt>0</asrwt>
<pdfrwt beam="1">  1        2 0.14769087E+00 0.10328438E+03</pdfrwt>
<pdfrwt beam="2">  1       -2 0.48241792E-02 0.10328438E+03</pdfrwt>
<totfact> 0.55305162E+03</totfact>
</mgrwt>
</event>
<event>
 4    1  0.4844629E-001  0.9273694E+02  0.7546771E-02  0.1296356E+00
         -1   -1    0    0    0  501 -0.00000000000E+00  0.00000000000E+00  0.17662250652E+03  0.17662250652E+03  0.00000000000E+00 0.  1.
          1   -1    0    0  501    0  0.00000000000E+00 -0.00000000000E+00 -0.11807043427E+03  0.11807043427E+03  0.00000000000E+00 0. -1.
         24    1    1    2    0    0  0.26378307989E+02 -0.37909217930E+02  0.14222461001E+03  0.16978804311E+03  0.80419002446E+02 0.  1.
        -24    1    1    2    0    0 -0.26378307989E+02  0.37909217930E+02 -0.83672537751E+02  0.12490489768E+03  0.80419002446E+02 0. -1.
<mgrwt>
<rscale>  0 0.92736939E+02</rscale>
<asrwt>0</asrwt>
<pdfrwt beam="1">  1        1 0.18164682E-01 0.92736939E+02</pdfrwt>
<pdfrwt beam="2">  1       -1 0.27172693E-01 0.92736939E+02</pdfrwt>
<totfact> 0.33009507E+03</totfact>
</mgrwt>
</event>
<event>
 4    1  0.4844629E-001  0.8082364E+02  0.7546771E-02  0.1326730E+00
         -2   -1    0    0    0  501 -0.00000000000E+00  0.00000000000E+00  0.15341174422E+03  0.15341174422E+03  0.00000000000E+00 0.  1.
          2   -1    0    0  501    0  0.00000000000E+00 -0.00000000000E+00 -0.10513456243E+03  0.10513456243E+03  0.00000000000E+00 0. -1.
         24    1    1    2    0    0  0.50115604580E+01  0.63347971914E+01 -0.75576479254E+02  0.11065380953E+03  0.80419002446E+02 0.  0.
        -24    1    1    2    0    0 -0.50115604580E+01 -0.63347971914E+01  0.12385366105E+03  0.14789249712E+03  0.80419002446E+02 0.  1.
<mgrwt>
<rscale>  0 0.80823643E+02</rscale>
<asrwt>0</asrwt>
<pdfrwt beam="1">  1        2 0.16174548E-01 0.80823643E+02</pdfrwt>
<pdfrwt beam="2">  1       -2 0.23601807E-01 0.80823643E+02</pdfrwt>
<totfact> 0.51356897E+03</totfact>
</mgrwt>
</event>
<event>
 4    1  0.4844629E-001  0.1633638E+03  0.7546771E-02  0.1184950E+00
          2   -1    0    0  501    0  0.00000000000E+00  0.00000000000E+00  0.18094266647E+03  0.18094266647E+03  0.00000000000E+00 0. -1.
         -2   -1    0    0    0  501 -0.00000000000E+00 -0.00000000000E+00 -0.19095891885E+03  0.19095891885E+03  0.00000000000E+00 0.  1.
         24    1    1    2    0    0  0.12941924703E+03  0.58916796347E+02  0.83708155462E+02  0.18356143832E+03  0.80419002446E+02 0. -1.
        -24    1    1    2    0    0 -0.12941924703E+03 -0.58916796347E+02 -0.93724407839E+02  0.18834014700E+03  0.80419002446E+02 0.  0.
<mgrwt>
<rscale>  0 0.16336385E+03</rscale>
<asrwt>0</asrwt>
<pdfrwt beam="1">  1        2 0.27837334E-01 0.16336385E+03</pdfrwt>
<pdfrwt beam="2">  1       -2 0.29378295E-01 0.16336385E+03</pdfrwt>
<totfact> 0.19861035E+03</totfact>
</mgrwt>
</event>
<event>
 4    1  0.4844629E-001  0.8197602E+02  0.7546771E-02  0.1323535E+00
          1   -1    0    0  501    0  0.00000000000E+00  0.00000000000E+00  0.91092726427E+03  0.91092726427E+03  0.00000000000E+00 0. -1.
         -1   -1    0    0    0  501 -0.00000000000E+00 -0.00000000000E+00 -0.27381690407E+02  0.27381690407E+02  0.00000000000E+00 0.  1.
         24    1    1    2    0    0  0.14663731827E+02 -0.61503862105E+01  0.40767799350E+02  0.91553709372E+02  0.80419002446E+02 0.  1.
        -24    1    1    2    0    0 -0.14663731827E+02  0.61503862105E+01  0.84277777451E+03  0.84675524530E+03  0.80419002446E+02 0. -1.
<mgrwt>
<rscale>  0 0.81976022E+02</rscale>
<asrwt>0</asrwt>
<pdfrwt beam="1">  1        1 0.14014263E+00 0.81976022E+02</pdfrwt>
<pdfrwt beam="2">  1       -1 0.42125684E-02 0.81976022E+02</pdfrwt>
<totfact> 0.40774672E+03</totfact>
</mgrwt>
</event>
<event>
 4    1  0.4844629E-001  0.8844066E+02  0.7546771E-02  0.1306672E+00
          2   -1    0    0  501    0  0.00000000000E+00  0.00000000000E+00  0.21958143688E+04  0.21958143688E+04  0.00000000000E+00 0. -1.
         -2   -1    0    0    0  501 -0.00000000000E+00 -0.00000000000E+00 -0.64799766924E+01  0.64799766924E+01  0.00000000000E+00 0.  1.
         24    1    1    2    0    0  0.14310994246E+02 -0.33907659326E+02  0.18335758869E+04  0.18357075700E+04  0.80419002446E+02 0. -1.
        -24    1    1    2    0    0 -0.14310994246E+02  0.33907659326E+02  0.35575850524E+03  0.36658677543E+03  0.80419002446E+02 0.  1.
<mgrwt>
<rscale>  0 0.88440657E+02</rscale>
<asrwt>0</asrwt>
<pdfrwt beam="1">  1        2 0.33781700E+00 0.88440657E+02</pdfrwt>
<pdfrwt beam="2">  1       -2 0.99692124E-03 0.88440657E+02</pdfrwt>
<totfact> 0.12116889E+04</totfact>
</mgrwt>
</event>
<event>
 4    1  0.4844629E-001  0.1063471E+03  0.7546771E-02  0.1267488E+00
         -2   -1    0    0    0  501 -0.00000000000E+00  0.00000000000E+00  0.47236926266E+02  0.47236926266E+02  0.00000000000E+00 0.  1.
          2   -1    0    0  501    0  0.00000000000E+00 -0.00000000000E+00 -0.24613526050E+03  0.24613526050E+03  0.00000000000E+00 0. -1.
         24    1    1    2    0    0 -0.15070340130E+02  0.67936519357E+02 -0.12366900535E+03  0.16310648256E+03  0.80419002446E+02 0. -1.
        -24    1    1    2    0    0  0.15070340130E+02 -0.67936519357E+02 -0.75229328882E+02  0.13026570421E+03  0.80419002446E+02 0.  1.
<mgrwt>
<rscale>  0 0.10634708E+03</rscale>
<asrwt>0</asrwt>
<pdfrwt beam="1">  1        2 0.37866962E-01 0.10634708E+03</pdfrwt>
<pdfrwt beam="2">  1       -2 0.72672197E-02 0.10634708E+03</pdfrwt>
<totfact> 0.13700751E+04</totfact>
</mgrwt>
</event>
<event>
 4    1  0.4844629E-001  0.8759344E+02  0.7546771E-02  0.1308786E+00
          1   -1    0    0  501    0  0.00000000000E+00  0.00000000000E+00  0.20336468578E+03  0.20336468578E+03  0.00000000000E+00 0. -1.
         -1   -1    0    0    0  501 -0.00000000000E+00 -0.00000000000E+00 -0.54675285233E+02  0.54675285233E+02  0.00000000000E+00 0.  1.
         24    1    1    2    0    0  0.21971145309E+02  0.26882394332E+02  0.25144664102E+01  0.87629520408E+02  0.80419002446E+02 0.  1.
        -24    1    1    2    0    0 -0.21971145309E+02 -0.26882394332E+02  0.14617493413E+03  0.17041045060E+03  0.80419002446E+02 0. -1.
<mgrwt>
<rscale>  0 0.87593438E+02</rscale>
<asrwt>0</asrwt>
<pdfrwt beam="1">  1        1 0.31286874E-01 0.87593438E+02</pdfrwt>
<pdfrwt beam="2">  1       -1 0.84115824E-02 0.87593438E+02</pdfrwt>
<totfact> 0.10373147E+04</totfact>
</mgrwt>
</event>
<event>
 4    1  0.4844629E-001  0.8331890E+02  0.7546771E-02  0.1319888E+00
          1   -1    0    0  501    0  0.00000000000E+00  0.00000000000E+00  0.33146337543E+02  0.33146337543E+02  0.00000000000E+00 0. -1.
         -1   -1    0    0    0  501 -0.00000000000E+00 -0.00000000000E+00 -0.25673358441E+03  0.25673358441E+03  0.00000000000E+00 0.  1.
         24    1    1    2    0    0  0.21441167647E+02  0.38857079256E+01 -0.17400445424E+03  0.19292378921E+03  0.80419002446E+02 0.  1.
        -24    1    1    2    0    0 -0.21441167647E+02 -0.38857079256E+01 -0.49582792630E+02  0.96956132738E+02  0.80419002446E+02 0. -1.
<mgrwt>
<rscale>  0 0.83318896E+02</rscale>
<asrwt>0</asrwt>
<pdfrwt beam="1">  1        1 0.50994367E-02 0.83318896E+02</pdfrwt>
<pdfrwt beam="2">  1       -1 0.39497474E-01 0.83318896E+02</pdfrwt>
<totfact> 0.92016197E+03</totfact>
</mgrwt>
</event>
<event>
 4    1  0.4844629E-001  0.1297051E+03  0.7546771E-02  0.1227894E+00
         -1   -1    0    0    0  501 -0.00000000000E+00  0.00000000000E+00  0.11355791763E+03  0.11355791763E+03  0.00000000000E+00 0.  1.
          1   -1    0    0  501    0  0.00000000000E+00 -0.00000000000E+00 -0.23639825073E+03  0.23639825073E+03  0.00000000000E+00 0. -1.
         24    1    1    2    0    0 -0.86667290926E+02 -0.53338250813E+02  0.45489983946E+02  0.13745087453E+03  0.80419002446E+02 0.  1.
        -24    1    1    2    0    0  0.86667290926E+02  0.53338250813E+02 -0.16833031705E+03  0.21250529383E+03  0.80419002446E+02 0. -1.
<mgrwt>
<rscale>  0 0.12970507E+03</rscale>
<asrwt>0</asrwt>
<pdfrwt beam="1">  1        1 0.36368961E-01 0.12970507E+03</pdfrwt>
<pdfrwt beam="2">  1       -1 0.17470449E-01 0.12970507E+03</pdfrwt>
<totfact> 0.28820064E+03</totfact>
</mgrwt>
</event>
<event>
 4    1  0.4844629E-001  0.1831075E+03  0.7546771E-02  0.1164829E+00
          2   -1    0    0  501    0  0.00000000000E+00  0.00000000000E+00  0.11552592438E+04  0.11552592438E+04  0.00000000000E+00 0. -1.
         -2   -1    0    0    0  501 -0.00000000000E+00 -0.00000000000E+00 -0.29396673612E+02  0.29396673612E+02  0.00000000000E+00 0.  1.
         24    1    1    2    0    0 -0.16263393903E+03 -0.24724835981E+02  0.49609073395E+03  0.52880464059E+03  0.80419002446E+02 0.  0.
        -24    1    1    2    0    0  0.16263393903E+03  0.24724835981E+02  0.62977183621E+03  0.65585127680E+03  0.80419002446E+02 0.  1.
<mgrwt>
<rscale>  0 0.18310745E+03</rscale>
<asrwt>0</asrwt>
<pdfrwt beam="1">  1        2 0.17773216E+00 0.18310748E+03</pdfrwt>
<pdfrwt beam="2">  1       -2 0.45225661E-02 0.18310748E+03</pdfrwt>
<totfact> 0.47854706E+03</totfact>
</mgrwt>
</event>
<event>
 4    1  0.4844629E-001  0.8282726E+02  0.7546771E-02  0.1321214E+00
         -4   -1    0    0    0  501 -0.00000000000E+00  0.00000000000E+00  0.16248396243E+03  0.16248396243E+03  0.00000000000E+00 0.  1.
          4   -1    0    0  501    0  0.00000000000E+00 -0.00000000000E+00 -0.47319614175E+02  0.47319614175E+02  0.00000000000E+00 0. -1.
         24    1    1    2    0    0  0.19381939800E+02 -0.41804430341E+01  0.92013828520E+02  0.12380184283E+03  0.80419002446E+02 0.  0.
        -24    1    1    2    0    0 -0.19381939800E+02  0.41804430341E+01  0.23150519736E+02  0.86001733778E+02  0.80419002446E+02 0.  0.
<mgrwt>
<rscale>  0 0.82827250E+02</rscale>
<asrwt>0</asrwt>
<pdfrwt beam="1">  1        4 0.72799407E-02 0.82827260E+02</pdfrwt>
<pdfrwt beam="2">  1       -4 0.24997532E-01 0.82827260E+02</pdfrwt>
<totfact> 0.27935263E+03</totfact>
</mgrwt>
</event>
<event>
 4    1  0.4844629E-001  0.8328023E+02  0.7546771E-02  0.1319992E+00
          1   -1    0    0  501    0  0.00000000000E+00  0.00000000000E+00  0.72651049543E+02  0.72651049543E+02  0.00000000000E+00 0. -1.
         -1   -1    0    0    0  501 -0.00000000000E+00 -0.00000000000E+00 -0.21026594040E+03  0.21026594040E+03  0.00000000000E+00 0.  1.
         24    1    1    2    0    0  0.19721519960E+02  0.89130095954E+01 -0.17333197912E+03  0.19230073071E+03  0.80419002446E+02 0.  1.
        -24    1    1    2    0    0 -0.19721519960E+02 -0.89130095954E+01  0.35717088265E+02  0.90616259237E+02  0.80419002446E+02 0. -1.
<mgrwt>
<rscale>  0 0.83280226E+02</rscale>
<asrwt>0</asrwt>
<pdfrwt beam="1">  1        1 0.11177085E-01 0.83280226E+02</pdfrwt>
<pdfrwt beam="2">  1       -1 0.32348606E-01 0.83280226E+02</pdfrwt>
<totfact> 0.45713469E+03</totfact>
</mgrwt>
</event>
<event>
 4    1  0.4844629E-001  0.9315167E+02  0.7546771E-02  0.1295394E+00
          1   -1    0    0  501    0  0.00000000000E+00  0.00000000000E+00  0.56017489856E+02  0.56017489856E+02  0.00000000000E+00 0. -1.
         -1   -1    0    0    0  501 -0.00000000000E+00 -0.00000000000E+00 -0.28173373117E+03  0.28173373117E+03  0.00000000000E+00 0.  1.
         24    1    1    2    0    0 -0.38047153408E+02 -0.27612167219E+02 -0.22616625524E+03  0.24459846407E+03  0.80419002446E+02 0. -1.
        -24    1    1    2    0    0  0.38047153408E+02  0.27612167219E+02  0.45001393142E+00  0.93152756953E+02  0.80419002446E+02 0. -1.
<mgrwt>
<rscale>  0 0.93151670E+02</rscale>
<asrwt>0</asrwt>
<pdfrwt beam="1">  1        1 0.86180754E-02 0.93151670E+02</pdfrwt>
<pdfrwt beam="2">  1       -1 0.43343651E-01 0.93151670E+02</pdfrwt>
<totfact> 0.39226733E+03</totfact>
</mgrwt>
</event>
<event>
 4    1  0.4844629E-001  0.8803298E+02  0.7546771E-02  0.1307686E+00
          2   -1    0    0  501    0  0.00000000000E+00  0.00000000000E+00  0.12995566377E+03  0.12995566377E+03  0.00000000000E+00 0. -1.
         -2   -1    0    0    0  501 -0.00000000000E+00 -0.00000000000E+00 -0.84083872797E+02  0.84083872797E+02  0.00000000000E+00 0.  1.
         24    1    1    2    0    0 -0.11233709858E+02  0.34005792459E+02  0.80644942265E+02  0.11938765776E+03  0.80419002446E+02 0. -1.
        -24    1    1    2    0    0  0.11233709858E+02 -0.34005792459E+02 -0.34773151288E+02  0.94651878813E+02  0.80419002446E+02 0.  1.
<mgrwt>
<rscale>  0 0.88032983E+02</rscale>
<asrwt>0</asrwt>
<pdfrwt beam="1">  1        2 0.19993179E-01 0.88032983E+02</pdfrwt>
<pdfrwt beam="2">  1       -2 0.12935980E-01 0.88032983E+02</pdfrwt>
<totfact> 0.10962653E+04</totfact>
</mgrwt>
</event>
<event>
 4    1  0.4844629E-001  0.1683203E+03  0.7546771E-02  0.1179611E+00
         -1   -1    0    0    0  501 -0.00000000000E+00  0.00000000000E+00  0.17863742292E+02  0.17863742292E+02  0.00000000000E+00 0.  1.
          1   -1    0    0  501    0  0.00000000000E+00 -0.00000000000E+00 -0.16067497124E+04  0.16067497124E+04  0.00000000000E+00 0. -1.
         24    1    1    2    0    0 -0.12038019698E+03  0.85866879269E+02 -0.70211156441E+03  0.72200580165E+03  0.80419002446E+02 0. -1.
        -24    1    1    2    0    0  0.12038019698E+03 -0.85866879269E+02 -0.88677440570E+03  0.90260765305E+03  0.80419002446E+02 0.  0.
<mgrwt>
<rscale>  0 0.16832032E+03</rscale>
<asrwt>0</asrwt>
<pdfrwt beam="1">  1        1 0.24719226E+00 0.16832032E+03</pdfrwt>
<pdfrwt beam="2">  1       -1 0.27482680E-02 0.16832032E+03</pdfrwt>
<totfact> 0.26062987E+03</totfact>
</mgrwt>
</event>
<event>
 4    1  0.4844629E-001  0.9403286E+02  0.7546771E-02  0.1293369E+00
          2   -1    0    0  501    0  0.00000000000E+00  0.00000000000E+00  0.48635007383E+03  0.48635007383E+03  0.00000000000E+00 0. -1.
         -2   -1    0    0    0  501 -0.00000000000E+00 -0.00000000000E+00 -0.31679222057E+02  0.31679222057E+02  0.00000000000E+00 0.  1.
         24    1    1    2    0    0  0.32551642835E+02 -0.36267787926E+02  0.39641082100E+03  0.40741099255E+03  0.80419002446E+02 0. -1.
        -24    1    1    2    0    0 -0.32551642835E+02  0.36267787926E+02  0.58260030771E+02  0.11061830333E+03  0.80419002446E+02 0.  1.
<mgrwt>
<rscale>  0 0.94032855E+02</rscale>
<asrwt>0</asrwt>
<pdfrwt beam="1">  1        2 0.74823083E-01 0.94032855E+02</pdfrwt>
<pdfrwt beam="2">  1       -2 0.48737268E-02 0.94032855E+02</pdfrwt>
<totfact> 0.12044117E+04</totfact>
</mgrwt>
</event>
<event>
 4    1  0.4844629E-001  0.8632334E+02  0.7546771E-02  0.1312008E+00
          1   -1    0    0  501    0  0.00000000000E+00  0.00000000000E+00  0.97869391773E+03  0.97869391773E+03  0.00000000000E+00 0. -1.
         -1   -1    0    0    0  501 -0.00000000000E+00 -0.00000000000E+00 -0.83104931933E+01  0.83104931933E+01  0.00000000000E+00 0.  1.
         24    1    1    2    0    0 -0.32162691071E+01  0.31211443117E+02  0.62806582875E+03  0.63397034612E+03  0.80419002446E+02 0.  0.
        -24    1    1    2    0    0  0.32162691071E+01 -0.31211443117E+02  0.34231759579E+03  0.35303406480E+03  0.80419002446E+02 0.  0.
<mgrwt>
<rscale>  0 0.86323325E+02</rscale>
<asrwt>0</asrwt>
<pdfrwt beam="1">  1        1 0.15056820E+00 0.86323335E+02</pdfrwt>
<pdfrwt beam="2">  1       -1 0.12785382E-02 0.86323335E+02</pdfrwt>
<totfact> 0.20057020E+04</totfact>
</mgrwt>
</event>
<event>
 4    1  0.4844629E-001  0.8229289E+02  0.7546771E-02  0.1322668E+00
         -2   -1    0    0    0  501 -0.00000000000E+00  0.00000000000E+00  0.20607657133E+02  0.20607657133E+02  0.00000000000E+00 0.  1.
          2   -1    0    0  501    0  0.00000000000E+00 -0.00000000000E+00 -0.46660812563E+03  0.46660812563E+03  0.00000000000E+00 0. -1.
         24    1    1    2    0    0  0.25290440730E+00 -0.17459656829E+02 -0.35547515722E+03  0.36487628990E+03  0.80419002446E+02 0.  0.
        -24    1    1    2    0    0 -0.25290440730E+00  0.17459656829E+02 -0.90525311275E+02  0.12233949286E+03  0.80419002446E+02 0. -1.
<mgrwt>
<rscale>  0 0.82292889E+02</rscale>
<asrwt>0</asrwt>
<pdfrwt beam="1">  1        2 0.71785860E-01 0.82292889E+02</pdfrwt>
<pdfrwt beam="2">  1       -2 0.31704090E-02 0.82292889E+02</pdfrwt>
<totfact> 0.23369849E+04</totfact>
</mgrwt>
</event>
<event>
 4    1  0.4844629E-001  0.8347924E+02  0.7546771E-02  0.1319458E+00
          1   -1    0    0  501    0  0.00000000000E+00  0.00000000000E+00  0.17762743424E+03  0.17762743424E+03  0.00000000000E+00 0. -1.
         -1   -1    0    0    0  501 -0.00000000000E+00 -0.00000000000E+00 -0.77429255940E+02  0.77429255940E+02  0.00000000000E+00 0.  1.
         24    1    1    2    0    0  0.21748040574E+02 -0.53470548133E+01 -0.39471805461E+02  0.92340714989E+02  0.80419002446E+02 0.  1.
        -24    1    1    2    0    0 -0.21748040574E+02  0.53470548133E+01  0.13966998376E+03  0.16271597519E+03  0.80419002446E+02 0. -1.
<mgrwt>
<rscale>  0 0.83479244E+02</rscale>
<asrwt>0</asrwt>
<pdfrwt beam="1">  1        1 0.27327298E-01 0.83479244E+02</pdfrwt>
<pdfrwt beam="2">  1       -1 0.11912193E-01 0.83479244E+02</pdfrwt>
<totfact> 0.72165160E+03</totfact>
</mgrwt>
</event>
<event>
 4    1  0.4844629E-001  0.8197606E+02  0.7546771E-02  0.1323535E+00
          1   -1    0    0  501    0  0.00000000000E+00  0.00000000000E+00  0.11302361747E+03  0.11302361747E+03  0.00000000000E+00 0. -1.
         -1   -1    0    0    0  501 -0.00000000000E+00 -0.00000000000E+00 -0.60929637611E+02  0.60929637611E+02  0.00000000000E+00 0.  1.
         24    1    1    2    0    0  0.12643067841E+02 -0.96442628148E+01  0.12526343392E+02  0.82927584089E+02  0.80419002446E+02 0.  0.
        -24    1    1    2    0    0 -0.12643067841E+02  0.96442628148E+01  0.39567636467E+02  0.91025670993E+02  0.80419002446E+02 0.  0.
<mgrwt>
<rscale>  0 0.81976063E+02</rscale>
<asrwt>0</asrwt>
<pdfrwt beam="1">  1        1 0.17388249E-01 0.81976063E+02</pdfrwt>
<pdfrwt beam="2">  1       -1 0.93737904E-02 0.81976063E+02</pdfrwt>
<totfact> 0.18169360E+04</totfact>
</mgrwt>
</event>
<event>
 4    1  0.4844629E-001  0.9824510E+02  0.7546771E-02  0.1284030E+00
         -1   -1    0    0    0  501 -0.00000000000E+00  0.00000000000E+00  0.11299564576E+03  0.11299564576E+03  0.00000000000E+00 0.  1.
          1   -1    0    0  501    0  0.00000000000E+00 -0.00000000000E+00 -0.12074015760E+03  0.12074015760E+03  0.00000000000E+00 0. -1.
         24    1    1    2    0    0 -0.56347604425E+02  0.31355611336E+01  0.59336905974E+02  0.11477355372E+03  0.80419002446E+02 0.  1.
        -24    1    1    2    0    0  0.56347604425E+02 -0.31355611336E+01 -0.67081417818E+02  0.11896224964E+03  0.80419002446E+02 0. -1.
<mgrwt>
<rscale>  0 0.98245103E+02</rscale>
<asrwt>0</asrwt>
<pdfrwt beam="1">  1        1 0.18575409E-01 0.98245103E+02</pdfrwt>
<pdfrwt beam="2">  1       -1 0.17383946E-01 0.98245103E+02</pdfrwt>
<totfact> 0.65973660E+03</totfact>
</mgrwt>
</event>
<event>
 4    1  0.4844629E-001  0.1233014E+03  0.7546771E-02  0.1237748E+00
         -1   -1    0    0    0  501 -0.00000000000E+00  0.00000000000E+00  0.19165258146E+02  0.19165258146E+02  0.00000000000E+00 0.  1.
          1   -1    0    0  501    0  0.00000000000E+00 -0.00000000000E+00 -0.82623801720E+03  0.82623801720E+03  0.00000000000E+00 0. -1.
         24    1    1    2    0    0 -0.36111103281E+02  0.86209094988E+02 -0.31910112483E+03  0.34209467061E+03  0.80419002446E+02 0.  1.
        -24    1    1    2    0    0  0.36111103281E+02 -0.86209094988E+02 -0.48797163422E+03  0.50330860473E+03  0.80419002446E+02 0.  0.
<mgrwt>
<rscale>  0 0.12330140E+03</rscale>
<asrwt>0</asrwt>
<pdfrwt beam="1">  1        1 0.12711354E+00 0.12330140E+03</pdfrwt>
<pdfrwt beam="2">  1       -1 0.29485014E-02 0.12330140E+03</pdfrwt>
<totfact> 0.81308071E+03</totfact>
</mgrwt>
</event>
<event>
 4    1  0.4844629E-001  0.8729882E+02  0.7546771E-02  0.1309528E+00
         -2   -1    0    0    0  501 -0.00000000000E+00  0.00000000000E+00  0.53967320438E+02  0.53967320438E+02  0.00000000000E+00 0.  1.
          2   -1    0    0  501    0  0.00000000000E+00 -0.00000000000E+00 -0.14787802554E+03  0.14787802554E+03  0.00000000000E+00 0. -1.
         24    1    1    2    0    0 -0.14675910588E+02  0.30634711605E+02 -0.68375333857E+02  0.11088854829E+03  0.80419002446E+02 0. -1.
        -24    1    1    2    0    0  0.14675910588E+02 -0.30634711605E+02 -0.25535371242E+02  0.90956797687E+02  0.80419002446E+02 0.  1.
<mgrwt>
<rscale>  0 0.87298819E+02</rscale>
<asrwt>0</asrwt>
<pdfrwt beam="1">  1        2 0.22750465E-01 0.87298819E+02</pdfrwt>
<pdfrwt beam="2">  1       -2 0.83026649E-02 0.87298819E+02</pdfrwt>
<totfact> 0.18953220E+04</totfact>
</mgrwt>
</event>
<event>
 4    1  0.4844629E-001  0.8817599E+02  0.7546771E-02  0.1307330E+00
          1   -1    0    0  501    0  0.00000000000E+00  0.00000000000E+00  0.19701787742E+04  0.19701787742E+04  0.00000000000E+00 0. -1.
         -1   -1    0    0    0  501 -0.00000000000E+00 -0.00000000000E+00 -0.42228419909E+01  0.42228419909E+01  0.00000000000E+00 0.  1.
         24    1    1    2    0    0  0.13216885199E+02 -0.33661589306E+02  0.73036914569E+03  0.73567254507E+03  0.80419002446E+02 0.  1.
        -24    1    1    2    0    0 -0.13216885199E+02  0.33661589306E+02  0.12355867865E+04  0.12387290711E+04  0.80419002446E+02 0. -1.
<mgrwt>
<rscale>  0 0.88175987E+02</rscale>
<asrwt>0</asrwt>
<pdfrwt beam="1">  1        1 0.30310369E+00 0.88175987E+02</pdfrwt>
<pdfrwt beam="2">  1       -1 0.64966957E-03 0.88175987E+02</pdfrwt>
<totfact> 0.11795950E+04</totfact>
</mgrwt>
</event>
<event>
 4    1  0.4844629E-001  0.8165417E+02  0.7546771E-02  0.1324422E+00
         -1   -1    0    0    0  501 -0.00000000000E+00  0.00000000000E+00  0.10006666759E+04  0.10006666759E+04  0.00000000000E+00 0.  1.
          1   -1    0    0  501    0  0.00000000000E+00 -0.00000000000E+00 -0.73765387998E+01  0.73765387998E+01  0.00000000000E+00 0. -1.
         24    1    1    2    0    0 -0.95195004229E+01 -0.10467377735E+02  0.65340806790E+03  0.65849032342E+03  0.80419002446E+02 0.  1.
        -24    1    1    2    0    0  0.95195004229E+01  0.10467377735E+02  0.33988206921E+03  0.34955289129E+03  0.80419002446E+02 0. -1.
<mgrwt>
<rscale>  0 0.81654166E+02</rscale>
<asrwt>0</asrwt>
<pdfrwt beam="1">  1        1 0.11348529E-02 0.81654166E+02</pdfrwt>
<pdfrwt beam="2">  1       -1 0.15394861E+00 0.81654166E+02</pdfrwt>
<totfact> 0.43820892E+03</totfact>
</mgrwt>
</event>
<event>
 4    1  0.4844629E-001  0.8405388E+02  0.7546771E-02  0.1317925E+00
          2   -1    0    0  501    0  0.00000000000E+00  0.00000000000E+00  0.19938456460E+02  0.19938456460E+02  0.00000000000E+00 0. -1.
         -2   -1    0    0    0  501 -0.00000000000E+00 -0.00000000000E+00 -0.49595401446E+03  0.49595401446E+03  0.00000000000E+00 0.  1.
         24    1    1    2    0    0 -0.11904772964E+02  0.21356870470E+02 -0.10017364741E+03  0.13076626142E+03  0.80419002446E+02 0. -1.
        -24    1    1    2    0    0  0.11904772964E+02 -0.21356870470E+02 -0.37584191059E+03  0.38512620950E+03  0.80419002446E+02 0.  1.
<mgrwt>
<rscale>  0 0.84053884E+02</rscale>
<asrwt>0</asrwt>
<pdfrwt beam="1">  1        2 0.30674549E-02 0.84053884E+02</pdfrwt>
<pdfrwt beam="2">  1       -2 0.76300616E-01 0.84053884E+02</pdfrwt>
<totfact> 0.43602642E+03</totfact>
</mgrwt>
</event>
<event>
 4    1  0.4844629E-001  0.9861243E+02  0.7546771E-02  0.1283241E+00
          1   -1    0    0  501    0  0.00000000000E+00  0.00000000000E+00  0.87460625158E+03  0.87460625158E+03  0.00000000000E+00 0. -1.
         -1   -1    0    0    0  501 -0.00000000000E+00 -0.00000000000E+00 -0.62151020025E+02  0.62151020025E+02  0.00000000000E+00 0.  1.
         24    1    1    2    0    0  0.47739986212E+02  0.31274425813E+02 -0.18192496993E+02  0.10027651218E+03  0.80419002446E+02 0.  1.
        -24    1    1    2    0    0 -0.47739986212E+02 -0.31274425813E+02  0.83064772855E+03  0.83648075942E+03  0.80419002446E+02 0. -1.
<mgrwt>
<rscale>  0 0.98612433E+02</rscale>
<asrwt>0</asrwt>
<pdfrwt beam="1">  1        1 0.13455480E+00 0.98612433E+02</pdfrwt>
<pdfrwt beam="2">  1       -1 0.95616960E-02 0.98612433E+02</pdfrwt>
<totfact> 0.13011460E+03</totfact>
</mgrwt>
</event>
<event>
 4    1  0.4844629E-001  0.9743222E+02  0.7546771E-02  0.1285790E+00
          4   -1    0    0  501    0  0.00000000000E+00  0.00000000000E+00  0.46259539338E+03  0.46259539338E+03  0.00000000000E+00 0. -1.
         -4   -1    0    0    0  501 -0.00000000000E+00 -0.00000000000E+00 -0.49846755619E+02  0.49846755619E+02  0.00000000000E+00 0.  1.
         24    1    1    2    0    0 -0.39784986916E+02 -0.37986523086E+02  0.40289991961E+03  0.41451342837E+03  0.80419002446E+02 0. -1.
        -24    1    1    2    0    0  0.39784986916E+02  0.37986523086E+02  0.98487181455E+01  0.97928720627E+02  0.80419002446E+02 0.  1.
<mgrwt>
<rscale>  0 0.97432218E+02</rscale>
<asrwt>0</asrwt>
<pdfrwt beam="1">  1        4 0.71168519E-01 0.97432218E+02</pdfrwt>
<pdfrwt beam="2">  1       -4 0.76687319E-02 0.97432218E+02</pdfrwt>
<totfact> 0.33914297E+02</totfact>
</mgrwt>
</event>
<event>
 4    1  0.4844629E-001  0.8470556E+02  0.7546771E-02  0.1316204E+00
          2   -1    0    0  501    0  0.00000000000E+00  0.00000000000E+00  0.38327358898E+03  0.38327358898E+03  0.00000000000E+00 0. -1.
         -2   -1    0    0    0  501 -0.00000000000E+00 -0.00000000000E+00 -0.18853025387E+02  0.18853025387E+02  0.00000000000E+00 0.  1.
         24    1    1    2    0    0  0.14926850307E+02 -0.22022745260E+02  0.16534535132E+03  0.18577974412E+03  0.80419002446E+02 0.  1.
        -24    1    1    2    0    0 -0.14926850307E+02  0.22022745260E+02  0.19907521228E+03  0.21634687025E+03  0.80419002446E+02 0. -1.
<mgrwt>
<rscale>  0 0.84705548E+02</rscale>
<asrwt>0</asrwt>
<pdfrwt beam="1">  1        2 0.58965162E-01 0.84705559E+02</pdfrwt>
<pdfrwt beam="2">  1       -2 0.29004657E-02 0.84705559E+02</pdfrwt>
<totfact> 0.32833172E+04</totfact>
</mgrwt>
</event>
<event>
 4    1  0.4844629E-001  0.8819552E+02  0.7546771E-02  0.1307281E+00
         -2   -1    0    0    0  501 -0.00000000000E+00  0.00000000000E+00  0.27184803547E+02  0.27184803547E+02  0.00000000000E+00 0.  1.
          2   -1    0    0  501    0  0.00000000000E+00 -0.00000000000E+00 -0.11437660932E+04  0.11437660932E+04  0.00000000000E+00 0. -1.
         24    1    1    2    0    0 -0.31921481248E+02 -0.17095399869E+02 -0.10652708799E+04  0.10689155707E+04  0.80419002446E+02 0. -1.
        -24    1    1    2    0    0  0.31921481248E+02  0.17095399869E+02 -0.51310409690E+02  0.10203532603E+03  0.80419002446E+02 0.  1.
<mgrwt>
<rscale>  0 0.88195519E+02</rscale>
<asrwt>0</asrwt>
<pdfrwt beam="1">  1        2 0.17596397E+00 0.88195519E+02</pdfrwt>
<pdfrwt beam="2">  1       -2 0.41822784E-02 0.88195519E+02</pdfrwt>
<totfact> 0.53178770E+03</totfact>
</mgrwt>
</event>
<event>
 4    1  0.4844629E-001  0.1025993E+03  0.7546771E-02  0.1274923E+00
         -1   -1    0    0    0  501 -0.00000000000E+00  0.00000000000E+00  0.25157366519E+03  0.25157366519E+03  0.00000000000E+00 0.  1.
          1   -1    0    0  501    0  0.00000000000E+00 -0.00000000000E+00 -0.46395920061E+02  0.46395920061E+02  0.00000000000E+00 0. -1.
         24    1    1    2    0    0  0.97400696489E+01 -0.62964522051E+02  0.55918266451E+02  0.11684805720E+03  0.80419002446E+02 0.  0.
        -24    1    1    2    0    0 -0.97400696489E+01  0.62964522051E+02  0.14925947868E+03  0.18112152805E+03  0.80419002446E+02 0.  0.
<mgrwt>
<rscale>  0 0.10259931E+03</rscale>
<asrwt>0</asrwt>
<pdfrwt beam="1">  1        1 0.71378340E-02 0.10259932E+03</pdfrwt>
<pdfrwt beam="2">  1       -1 0.38703640E-01 0.10259932E+03</pdfrwt>
<totfact> 0.61847030E+03</totfact>
</mgrwt>
</event>
<event>
 4    1  0.4844629E-001  0.9992076E+02  0.7546771E-02  0.1280463E+00
         -3   -1    0    0    0  501 -0.00000000000E+00  0.00000000000E+00  0.22264070895E+03  0.22264070895E+03  0.00000000000E+00 0.  1.
          3   -1    0    0  501    0  0.00000000000E+00 -0.00000000000E+00 -0.48270882559E+02  0.48270882559E+02  0.00000000000E+00 0. -1.
         24    1    1    2    0    0  0.20586203674E+02  0.55616059085E+02  0.51094715017E+02  0.11222666201E+03  0.80419002446E+02 0.  0.
        -24    1    1    2    0    0 -0.20586203674E+02 -0.55616059085E+02  0.12327511137E+03  0.15868492949E+03  0.80419002446E+02 0. -1.
<mgrwt>
<rscale>  0 0.99920750E+02</rscale>
<asrwt>0</asrwt>
<pdfrwt beam="1">  1        3 0.74262898E-02 0.99920762E+02</pdfrwt>
<pdfrwt beam="2">  1       -3 0.34252416E-01 0.99920762E+02</pdfrwt>
<totfact> 0.21799193E+03</totfact>
</mgrwt>
</event>
<event>
 4    1  0.4844629E-001  0.9594990E+02  0.7546771E-02  0.1289051E+00
          2   -1    0    0  501    0  0.00000000000E+00  0.00000000000E+00  0.99303547053E+03  0.99303547053E+03  0.00000000000E+00 0. -1.
         -2   -1    0    0    0  501 -0.00000000000E+00 -0.00000000000E+00 -0.10635207360E+02  0.10635207360E+02  0.00000000000E+00 0.  1.
         24    1    1    2    0    0  0.30574019887E+02  0.42478192951E+02  0.67093659822E+03  0.67776271833E+03  0.80419002446E+02 0. -1.
        -24    1    1    2    0    0 -0.30574019887E+02 -0.42478192951E+02  0.31146366494E+03  0.32590795956E+03  0.80419002446E+02 0.  1.
<mgrwt>
<rscale>  0 0.95949901E+02</rscale>
<asrwt>0</asrwt>
<pdfrwt beam="1">  1        2 0.15277462E+00 0.95949901E+02</pdfrwt>
<pdfrwt beam="2">  1       -2 0.16361865E-02 0.95949901E+02</pdfrwt>
<totfact> 0.25393184E+04</totfact>
</mgrwt>
</event>
<event>
 4    1  0.4844629E-001  0.9000696E+02  0.7546771E-02  0.1302835E+00
          1   -1    0    0  501    0  0.00000000000E+00  0.00000000000E+00  0.14382292085E+03  0.14382292085E+03  0.00000000000E+00 0. -1.
         -1   -1    0    0    0  501 -0.00000000000E+00 -0.00000000000E+00 -0.14785020676E+03  0.14785020676E+03  0.00000000000E+00 0.  1.
         24    1    1    2    0    0  0.69891256493E+01 -0.39814425669E+02 -0.11675468286E+03  0.14742085433E+03  0.80419002446E+02 0.  1.
        -24    1    1    2    0    0 -0.69891256493E+01  0.39814425669E+02  0.11272739695E+03  0.14425227328E+03  0.80419002446E+02 0. -1.
<mgrwt>
<rscale>  0 0.90006957E+02</rscale>
<asrwt>0</asrwt>
<pdfrwt beam="1">  1        1 0.22126603E-01 0.90006957E+02</pdfrwt>
<pdfrwt beam="2">  1       -1 0.22746186E-01 0.90006957E+02</pdfrwt>
<totfact> 0.34333488E+03</totfact>
</mgrwt>
</event>
<event>
 4    1  0.4844629E-001  0.8088747E+02  0.7546771E-02  0.1326552E+00
          2   -1    0    0  501    0  0.00000000000E+00  0.00000000000E+00  0.16995064625E+04  0.16995064625E+04  0.00000000000E+00 0. -1.
         -2   -1    0    0    0  501 -0.00000000000E+00 -0.00000000000E+00 -0.29132395041E+02  0.29132395041E+02  0.00000000000E+00 0.  1.
         24    1    1    2    0    0  0.56054741366E+01 -0.66442504806E+01  0.16403742783E+04  0.16423673633E+04  0.80419002446E+02 0. -1.
        -24    1    1    2    0    0 -0.56054741366E+01  0.66442504806E+01  0.29999789181E+02  0.86271494192E+02  0.80419002446E+02 0.  1.
<mgrwt>
<rscale>  0 0.80887473E+02</rscale>
<asrwt>0</asrwt>
<pdfrwt beam="1">  1        2 0.26146246E+00 0.80887473E+02</pdfrwt>
<pdfrwt beam="2">  1       -2 0.44819082E-02 0.80887473E+02</pdfrwt>
<totfact> 0.24680317E+03</totfact>
</mgrwt>
</event>
<event>
 4    1  0.4844629E-001  0.9311203E+02  0.7546771E-02  0.1295486E+00
         -2   -1    0    0    0  501 -0.00000000000E+00  0.00000000000E+00  0.30836491418E+01  0.30836491418E+01  0.00000000000E+00 0.  1.
          2   -1    0    0  501    0  0.00000000000E+00 -0.00000000000E+00 -0.28121482712E+04  0.28121482712E+04  0.00000000000E+00 0. -1.
         24    1    1    2    0    0  0.44591263565E+02 -0.14637256068E+02 -0.13840694613E+04  0.13871979382E+04  0.80419002446E+02 0. -1.
        -24    1    1    2    0    0 -0.44591263565E+02  0.14637256068E+02 -0.14249951608E+04  0.14280339822E+04  0.80419002446E+02 0.  0.
<mgrwt>
<rscale>  0 0.93112019E+02</rscale>
<asrwt>0</asrwt>
<pdfrwt beam="1">  1        2 0.43263756E+00 0.93112031E+02</pdfrwt>
<pdfrwt beam="2">  1       -2 0.47440826E-03 0.93112031E+02</pdfrwt>
<totfact> 0.16354328E+04</totfact>
</mgrwt>
</event>
<event>
 4    1  0.4844629E-001  0.8072793E+02  0.7546771E-02  0.1326998E+00
         -1   -1    0    0    0  501 -0.00000000000E+00  0.00000000000E+00  0.85923513560E+02  0.85923513560E+02  0.00000000000E+00 0.  1.
          1   -1    0    0  501    0  0.00000000000E+00 -0.00000000000E+00 -0.76123221235E+02  0.76123221235E+02  0.00000000000E+00 0. -1.
         24    1    1    2    0    0 -0.68238421930E+01 -0.17937333064E+01  0.97851907104E+01  0.81318806023E+02  0.80419002446E+02 0.  1.
        -24    1    1    2    0    0  0.68238421930E+01  0.17937333064E+01  0.15101614494E-01  0.80727928772E+02  0.80419002446E+02 0. -1.
<mgrwt>
<rscale>  0 0.80727927E+02</rscale>
<asrwt>0</asrwt>
<pdfrwt beam="1">  1        1 0.11711265E-01 0.80727927E+02</pdfrwt>
<pdfrwt beam="2">  1       -1 0.13219002E-01 0.80727927E+02</pdfrwt>
<totfact> 0.17856736E+04</totfact>
</mgrwt>
</event>
<event>
 4    1  0.4844629E-001  0.8076995E+02  0.7546771E-02  0.1326881E+00
         -3   -1    0    0    0  501 -0.00000000000E+00  0.00000000000E+00  0.18611677280E+03  0.18611677280E+03  0.00000000000E+00 0.  1.
          3   -1    0    0  501    0  0.00000000000E+00 -0.00000000000E+00 -0.35478865351E+02  0.35478865351E+02  0.00000000000E+00 0. -1.
         24    1    1    2    0    0  0.50360767740E+01 -0.55863544007E+01  0.87470636481E+02  0.11905837906E+03  0.80419002446E+02 0.  0.
        -24    1    1    2    0    0 -0.50360767740E+01  0.55863544007E+01  0.63167270967E+02  0.10253725908E+03  0.80419002446E+02 0.  0.
<mgrwt>
<rscale>  0 0.80769953E+02</rscale>
<asrwt>0</asrwt>
<pdfrwt beam="1">  1        3 0.54582871E-02 0.80769953E+02</pdfrwt>
<pdfrwt beam="2">  1       -3 0.28633349E-01 0.80769953E+02</pdfrwt>
<totfact> 0.47240776E+03</totfact>
</mgrwt>
</event>
<event>
 4    1  0.4844629E-001  0.8948564E+02  0.7546771E-02  0.1304102E+00
          2   -1    0    0  501    0  0.00000000000E+00  0.00000000000E+00  0.17056875418E+04  0.17056875418E+04  0.00000000000E+00 0. -1.
         -2   -1    0    0    0  501 -0.00000000000E+00 -0.00000000000E+00 -0.47686034305E+01  0.47686034305E+01  0.00000000000E+00 0.  1.
         24    1    1    2    0    0 -0.28422366332E+02 -0.27067195179E+02  0.95693216642E+03  0.96110709656E+03  0.80419002446E+02 0. -1.
        -24    1    1    2    0    0  0.28422366332E+02  0.27067195179E+02  0.74398677199E+03  0.74934904872E+03  0.80419002446E+02 0.  1.
<mgrwt>
<rscale>  0 0.89485641E+02</rscale>
<asrwt>0</asrwt>
<pdfrwt beam="1">  1        2 0.26241298E+00 0.89485641E+02</pdfrwt>
<pdfrwt beam="2">  1       -2 0.73363266E-03 0.89485641E+02</pdfrwt>
<totfact> 0.32958463E+04</totfact>
</mgrwt>
</event>
<event>
 4    1  0.4844629E-001  0.8237164E+02  0.7546771E-02  0.1322453E+00
         -2   -1    0    0    0  501 -0.00000000000E+00  0.00000000000E+00  0.76591808988E+01  0.76591808988E+01  0.00000000000E+00 0.  1.
          2   -1    0    0  501    0  0.00000000000E+00 -0.00000000000E+00 -0.11681928584E+04  0.11681928584E+04  0.00000000000E+00 0. -1.
         24    1    1    2    0    0  0.17053086310E+02  0.52021938810E+01 -0.86929064360E+03  0.87318457933E+03  0.80419002446E+02 0. -1.
        -24    1    1    2    0    0 -0.17053086310E+02 -0.52021938810E+01 -0.29124303390E+03  0.30266745996E+03  0.80419002446E+02 0.  0.
<mgrwt>
<rscale>  0 0.82371637E+02</rscale>
<asrwt>0</asrwt>
<pdfrwt beam="1">  1        2 0.17972183E+00 0.82371637E+02</pdfrwt>
<pdfrwt beam="2">  1       -2 0.11783365E-02 0.82371637E+02</pdfrwt>
<totfact> 0.31791169E+04</totfact>
</mgrwt>
</event>
<event>
 4    1  0.4844629E-001  0.8560212E+02  0.7546771E-02  0.1313865E+00
         -1   -1    0    0    0  501 -0.00000000000E+00  0.00000000000E+00  0.75083382025E+01  0.75083382025E+01  0.00000000000E+00 0.  1.
          1   -1    0    0  501    0  0.00000000000E+00 -0.00000000000E+00 -0.13770803722E+04  0.13770803722E+04  0.00000000000E+00 0. -1.
         24    1    1    2    0    0 -0.29082165733E+02  0.38386421008E+01 -0.31114310833E+03  0.32270382296E+03  0.80419002446E+02 0.  1.
        -24    1    1    2    0    0  0.29082165733E+02 -0.38386421008E+01 -0.10584289257E+04  0.10618848875E+04  0.80419002446E+02 0. -1.
<mgrwt>
<rscale>  0 0.85602123E+02</rscale>
<asrwt>0</asrwt>
<pdfrwt beam="1">  1        1 0.21185846E+00 0.85602123E+02</pdfrwt>
<pdfrwt beam="2">  1       -1 0.11551293E-02 0.85602123E+02</pdfrwt>
<totfact> 0.12409810E+04</totfact>
</mgrwt>
</event>
<event>
 4    1  0.4844629E-001  0.1687352E+03  0.7546771E-02  0.1179173E+00
          3   -1    0    0  501    0  0.00000000000E+00  0.00000000000E+00  0.14411469320E+04  0.14411469320E+04  0.00000000000E+00 0. -1.
         -3   -1    0    0    0  501 -0.00000000000E+00 -0.00000000000E+00 -0.58214841170E+02  0.58214841170E+02  0.00000000000E+00 0.  1.
         24    1    1    2    0    0  0.38149413974E+02  0.14334908022E+03  0.82130262062E+02  0.18766175020E+03  0.80419002446E+02 0.  1.
        -24    1    1    2    0    0 -0.38149413974E+02 -0.14334908022E+03  0.13008018288E+04  0.13117000230E+04  0.80419002446E+02 0. -1.
<mgrwt>
<rscale>  0 0.16873516E+03</rscale>
<asrwt>0</asrwt>
<pdfrwt beam="1">  1        3 0.22171489E+00 0.16873516E+03</pdfrwt>
<pdfrwt beam="2">  1       -3 0.89561305E-02 0.16873516E+03</pdfrwt>
<totfact> 0.25763652E+01</totfact>
</mgrwt>
</event>
<event>
 4    1  0.4844629E-001  0.8115591E+02  0.7546771E-02  0.1325803E+00
          1   -1    0    0  501    0  0.00000000000E+00  0.00000000000E+00  0.21156107781E+04  0.21156107781E+04  0.00000000000E+00 0. -1.
         -1   -1    0    0    0  501 -0.00000000000E+00 -0.00000000000E+00 -0.25315722391E+02  0.25315722391E+02  0.00000000000E+00 0.  1.
         24    1    1    2    0    0 -0.10514649587E+02 -0.29168128881E+01  0.42662411776E+02  0.91686220264E+02  0.80419002446E+02 0.  1.
        -24    1    1    2    0    0  0.10514649587E+02  0.29168128881E+01  0.20476326439E+04  0.20492402802E+04  0.80419002446E+02 0. -1.
<mgrwt>
<rscale>  0 0.81155909E+02</rscale>
<asrwt>0</asrwt>
<pdfrwt beam="1">  1        1 0.32547844E+00 0.81155909E+02</pdfrwt>
<pdfrwt beam="2">  1       -1 0.38947282E-02 0.81155909E+02</pdfrwt>
<totfact> 0.75122280E+02</totfact>
</mgrwt>
</event>
<event>
 4    1  0.4844629E-001  0.8191758E+02  0.7546771E-02  0.1323696E+00
          1   -1    0    0  501    0  0.00000000000E+00  0.00000000000E+00  0.47405676694E+03  0.47405676694E+03  0.00000000000E+00 0. -1.
         -1   -1    0    0    0  501 -0.00000000000E+00 -0.00000000000E+00 -0.17019397846E+02  0.17019397846E+02  0.00000000000E+00 0.  1.
         24    1    1    2    0    0 -0.13663257055E+02 -0.75225847933E+01  0.12779564056E+03  0.15179662571E+03  0.80419002446E+02 0.  1.
        -24    1    1    2    0    0  0.13663257055E+02  0.75225847933E+01  0.32924172853E+03  0.33927953907E+03  0.80419002446E+02 0. -1.
<mgrwt>
<rscale>  0 0.81917579E+02</rscale>
<asrwt>0</asrwt>
<pdfrwt beam="1">  1        1 0.72931800E-01 0.81917579E+02</pdfrwt>
<pdfrwt beam="2">  1       -1 0.26183693E-02 0.81917579E+02</pdfrwt>
<totfact> 0.20001472E+04</totfact>
</mgrwt>
</event>
<event>
 4    1  0.4844629E-001  0.8533564E+02  0.7546771E-02  0.1314557E+00
         -1   -1    0    0    0  501 -0.00000000000E+00  0.00000000000E+00  0.23453250426E+02  0.23453250426E+02  0.00000000000E+00 0.  1.
          1   -1    0    0  501    0  0.00000000000E+00 -0.00000000000E+00 -0.37604152502E+03  0.37604152502E+03  0.00000000000E+00 0. -1.
         24    1    1    2    0    0  0.22522596810E+02 -0.17541020506E+02 -0.92900973216E+02  0.12614579480E+03  0.80419002446E+02 0.  1.
        -24    1    1    2    0    0 -0.22522596810E+02  0.17541020506E+02 -0.25968730138E+03  0.27334898065E+03  0.80419002446E+02 0. -1.
<mgrwt>
<rscale>  0 0.85335636E+02</rscale>
<asrwt>0</asrwt>
<pdfrwt beam="1">  1        1 0.57852539E-01 0.85335636E+02</pdfrwt>
<pdfrwt beam="2">  1       -1 0.36081926E-02 0.85335636E+02</pdfrwt>
<totfact> 0.16910835E+04</totfact>
</mgrwt>
</event>
<event>
 4    1  0.4844629E-001  0.8655849E+02  0.7546771E-02  0.1311407E+00
          2   -1    0    0  501    0  0.00000000000E+00  0.00000000000E+00  0.36416440788E+03  0.36416440788E+03  0.00000000000E+00 0. -1.
         -2   -1    0    0    0  501 -0.00000000000E+00 -0.00000000000E+00 -0.36001541831E+02  0.36001541831E+02  0.00000000000E+00 0.  1.
         24    1    1    2    0    0 -0.13213065741E+02  0.29164553210E+02  0.29505868567E+03  0.30749308970E+03  0.80419002446E+02 0. -1.
        -24    1    1    2    0    0  0.13213065741E+02 -0.29164553210E+02  0.33104180386E+02  0.92672860016E+02  0.80419002446E+02 0.  1.
<mgrwt>
<rscale>  0 0.86558490E+02</rscale>
<asrwt>0</asrwt>
<pdfrwt beam="1">  1        2 0.56025291E-01 0.86558490E+02</pdfrwt>
<pdfrwt beam="2">  1       -2 0.55386990E-02 0.86558490E+02</pdfrwt>
<totfact> 0.13425166E+04</totfact>
</mgrwt>
</event>
<event>
 4    1  0.4844629E-001  0.1134306E+03  0.7546771E-02  0.1254346E+00
          2   -1    0    0  501    0  0.00000000000E+00  0.00000000000E+00  0.10283352005E+03  0.10283352005E+03  0.00000000000E+00 0. -1.
         -2   -1    0    0    0  501 -0.00000000000E+00 -0.00000000000E+00 -0.12565046086E+03  0.12565046086E+03  0.00000000000E+00 0.  1.
         24    1    1    2    0    0 -0.70812425915E+02 -0.37213930712E+02 -0.39830559770E+01  0.11350047133E+03  0.80419002446E+02 0. -1.
        -24    1    1    2    0    0  0.70812425915E+02  0.37213930712E+02 -0.18833884832E+02  0.11498350958E+03  0.80419002446E+02 0.  1.
<mgrwt>
<rscale>  0 0.11343056E+03</rscale>
<asrwt>0</asrwt>
<pdfrwt beam="1">  1        2 0.15820542E-01 0.11343056E+03</pdfrwt>
<pdfrwt beam="2">  1       -2 0.19330840E-01 0.11343056E+03</pdfrwt>
<totfact> 0.75924061E+03</totfact>
</mgrwt>
</event>
<event>
 4    1  0.4844629E-001  0.1504978E+03  0.7546771E-02  0.1199863E+00
          1   -1    0    0  501    0  0.00000000000E+00  0.00000000000E+00  0.13158404292E+03  0.13158404292E+03  0.00000000000E+00 0. -1.
         -1   -1    0    0    0  501 -0.00000000000E+00 -0.00000000000E+00 -0.22635531178E+03  0.22635531178E+03  0.00000000000E+00 0.  1.
         24    1    1    2    0    0  0.28056642359E+02  0.12407727741E+03  0.40210536152E+02  0.15577692102E+03  0.80419002446E+02 0.  0.
        -24    1    1    2    0    0 -0.28056642359E+02 -0.12407727741E+03 -0.13498180501E+03  0.20216243368E+03  0.80419002446E+02 0.  0.
<mgrwt>
<rscale>  0 0.15049773E+03</rscale>
<asrwt>0</asrwt>
<pdfrwt beam="1">  1        1 0.20243699E-01 0.15049775E+03</pdfrwt>
<pdfrwt beam="2">  1       -1 0.34823894E-01 0.15049775E+03</pdfrwt>
<totfact> 0.19414701E+03</totfact>
</mgrwt>
</event>
<event>
 4    1  0.4844629E-001  0.9590004E+02  0.7546771E-02  0.1289162E+00
          1   -1    0    0  501    0  0.00000000000E+00  0.00000000000E+00  0.84084730195E+02  0.84084730195E+02  0.00000000000E+00 0. -1.
         -1   -1    0    0    0  501 -0.00000000000E+00 -0.00000000000E+00 -0.15892596244E+03  0.15892596244E+03  0.00000000000E+00 0.  1.
         24    1    1    2    0    0  0.41683661560E+02  0.31497206716E+02 -0.10526616966E+03  0.14240008463E+03  0.80419002446E+02 0.  1.
        -24    1    1    2    0    0 -0.41683661560E+02 -0.31497206716E+02  0.30424937418E+02  0.10061060801E+03  0.80419002446E+02 0. -1.
<mgrwt>
<rscale>  0 0.95900040E+02</rscale>
<asrwt>0</asrwt>
<pdfrwt beam="1">  1        1 0.12936112E-01 0.95900040E+02</pdfrwt>
<pdfrwt beam="2">  1       -1 0.24450148E-01 0.95900040E+02</pdfrwt>
<totfact> 0.60668588E+03</totfact>
</mgrwt>
</event>
<event>
 4    1  0.4844629E-001  0.1886212E+03  0.7546771E-02  0.1159711E+00
         -1   -1    0    0    0  501 -0.00000000000E+00  0.00000000000E+00  0.22537945371E+03  0.22537945371E+03  0.00000000000E+00 0.  1.
          1   -1    0    0  501    0  0.00000000000E+00 -0.00000000000E+00 -0.22649807526E+03  0.22649807526E+03  0.00000000000E+00 0. -1.
         24    1    1    2    0    0 -0.59825307393E+02 -0.15978636575E+03  0.12381971170E+03  0.22563086457E+03  0.80419002446E+02 0. -1.
        -24    1    1    2    0    0  0.59825307393E+02  0.15978636575E+03 -0.12493833325E+03  0.22624666441E+03  0.80419002446E+02 0.  1.
<mgrwt>
<rscale>  0 0.18862122E+03</rscale>
<asrwt>0</asrwt>
<pdfrwt beam="1">  1        1 0.34845857E-01 0.18862122E+03</pdfrwt>
<pdfrwt beam="2">  1       -1 0.34673762E-01 0.18862122E+03</pdfrwt>
<totfact> 0.99227324E+02</totfact>
</mgrwt>
</event>
<event>
 4    1  0.4844629E-001  0.1112625E+03  0.7546771E-02  0.1258250E+00
         -2   -1    0    0    0  501 -0.00000000000E+00  0.00000000000E+00  0.20342999386E+03  0.20342999386E+03  0.00000000000E+00 0.  1.
          2   -1    0    0  501    0  0.00000000000E+00 -0.00000000000E+00 -0.67707078323E+02  0.67707078323E+02  0.00000000000E+00 0. -1.
         24    1    1    2    0    0  0.67732287088E+02  0.36393089441E+02  0.24727946735E+02  0.11397722131E+03  0.80419002446E+02 0. -1.
        -24    1    1    2    0    0 -0.67732287088E+02 -0.36393089441E+02  0.11099496880E+03  0.15715985087E+03  0.80419002446E+02 0.  0.
<mgrwt>
<rscale>  0 0.11126246E+03</rscale>
<asrwt>0</asrwt>
<pdfrwt beam="1">  1        2 0.10416474E-01 0.11126246E+03</pdfrwt>
<pdfrwt beam="2">  1       -2 0.31296922E-01 0.11126246E+03</pdfrwt>
<totfact> 0.53896925E+03</totfact>
</mgrwt>
</event>
<event>
 4    1  0.4844629E-001  0.9592260E+02  0.7546771E-02  0.1289112E+00
         -2   -1    0    0    0  501 -0.00000000000E+00  0.00000000000E+00  0.75774545821E+01  0.75774545821E+01  0.00000000000E+00 0.  1.
          2   -1    0    0  501    0  0.00000000000E+00 -0.00000000000E+00 -0.13135936277E+04  0.13135936277E+04  0.00000000000E+00 0. -1.
         24    1    1    2    0    0  0.37300610557E+02  0.36641351698E+02 -0.47137027629E+03  0.48103126460E+03  0.80419002446E+02 0.  1.
        -24    1    1    2    0    0 -0.37300610557E+02 -0.36641351698E+02 -0.83464589682E+03  0.84013981767E+03  0.80419002446E+02 0. -1.
<mgrwt>
<rscale>  0 0.95922586E+02</rscale>
<asrwt>0</asrwt>
<pdfrwt beam="1">  1        2 0.20209133E+00 0.95922598E+02</pdfrwt>
<pdfrwt beam="2">  1       -2 0.11657622E-02 0.95922598E+02</pdfrwt>
<totfact> 0.27343902E+04</totfact>
</mgrwt>
</event>
<event>
 4    1  0.4844629E-001  0.8157172E+02  0.7546771E-02  0.1324649E+00
          2   -1    0    0  501    0  0.00000000000E+00  0.00000000000E+00  0.11683782863E+04  0.11683782863E+04  0.00000000000E+00 0. -1.
         -2   -1    0    0    0  501 -0.00000000000E+00 -0.00000000000E+00 -0.15012486375E+02  0.15012486375E+02  0.00000000000E+00 0.  1.
         24    1    1    2    0    0  0.10715200698E+02  0.84801681921E+01  0.10428274884E+04  0.10460129614E+04  0.80419002446E+02 0. -1.
        -24    1    1    2    0    0 -0.10715200698E+02 -0.84801681921E+01  0.11053831155E+03  0.13737781135E+03  0.80419002446E+02 0.  1.
<mgrwt>
<rscale>  0 0.81571715E+02</rscale>
<asrwt>0</asrwt>
<pdfrwt beam="1">  1        2 0.17975043E+00 0.81571715E+02</pdfrwt>
<pdfrwt beam="2">  1       -2 0.23096142E-02 0.81571715E+02</pdfrwt>
<totfact> 0.12165559E+04</totfact>
</mgrwt>
</event>
<event>
 4    1  0.4844629E-001  0.1010003E+03  0.7546771E-02  0.1278206E+00
         -1   -1    0    0    0  501 -0.00000000000E+00  0.00000000000E+00  0.66141481810E+01  0.66141481810E+01  0.00000000000E+00 0.  1.
          1   -1    0    0  501    0  0.00000000000E+00 -0.00000000000E+00 -0.15441018406E+04  0.15441018406E+04  0.00000000000E+00 0. -1.
         24    1    1    2    0    0  0.60704971026E+02  0.69816925976E+01 -0.79517153256E+03  0.80156024083E+03  0.80419002446E+02 0. -1.
        -24    1    1    2    0    0 -0.60704971026E+02 -0.69816925976E+01 -0.74231615986E+03  0.74915574795E+03  0.80419002446E+02 0.  1.
<mgrwt>
<rscale>  0 0.10100028E+03</rscale>
<asrwt>0</asrwt>
<pdfrwt beam="1">  1        1 0.23755425E+00 0.10100029E+03</pdfrwt>
<pdfrwt beam="2">  1       -1 0.10175608E-02 0.10100029E+03</pdfrwt>
<totfact> 0.11719740E+04</totfact>
</mgrwt>
</event>
<event>
 4    1  0.4844629E-001  0.8579310E+02  0.7546771E-02  0.1313371E+00
          2   -1    0    0  501    0  0.00000000000E+00  0.00000000000E+00  0.28720340568E+03  0.28720340568E+03  0.00000000000E+00 0. -1.
         -2   -1    0    0    0  501 -0.00000000000E+00 -0.00000000000E+00 -0.25881934904E+02  0.25881934904E+02  0.00000000000E+00 0.  1.
         24    1    1    2    0    0 -0.27303248974E+02 -0.12156210176E+02  0.14616574262E+03  0.16948416186E+03  0.80419002446E+02 0.  0.
        -24    1    1    2    0    0  0.27303248974E+02  0.12156210176E+02  0.11515572816E+03  0.14360117873E+03  0.80419002446E+02 0.  1.
<mgrwt>
<rscale>  0 0.85793105E+02</rscale>
<asrwt>0</asrwt>
<pdfrwt beam="1">  1        2 0.44185137E-01 0.85793105E+02</pdfrwt>
<pdfrwt beam="2">  1       -2 0.39818364E-02 0.85793105E+02</pdfrwt>
<totfact> 0.27997064E+04</totfact>
</mgrwt>
</event>
<event>
 4    1  0.4844629E-001  0.8073859E+02  0.7546771E-02  0.1326968E+00
         -3   -1    0    0    0  501 -0.00000000000E+00  0.00000000000E+00  0.18857820318E+02  0.18857820318E+02  0.00000000000E+00 0.  1.
          3   -1    0    0  501    0  0.00000000000E+00 -0.00000000000E+00 -0.47972924059E+03  0.47972924059E+03  0.00000000000E+00 0. -1.
         24    1    1    2    0    0  0.31856812733E+01  0.64307908284E+01 -0.98655700176E+02  0.12748202527E+03  0.80419002446E+02 0.  0.
        -24    1    1    2    0    0 -0.31856812733E+01 -0.64307908284E+01 -0.36221572010E+03  0.37110503564E+03  0.80419002446E+02 0. -1.
<mgrwt>
<rscale>  0 0.80738588E+02</rscale>
<asrwt>0</asrwt>
<pdfrwt beam="1">  1        3 0.73804513E-01 0.80738588E+02</pdfrwt>
<pdfrwt beam="2">  1       -3 0.29012026E-02 0.80738588E+02</pdfrwt>
<totfact> 0.19799523E+03</totfact>
</mgrwt>
</event>
<event>
 4    1  0.4844629E-001  0.8359096E+02  0.7546771E-02  0.1319159E+00
          2   -1    0    0  501    0  0.00000000000E+00  0.00000000000E+00  0.13798677010E+04  0.13798677010E+04  0.00000000000E+00 0. -1.
         -2   -1    0    0    0  501 -0.00000000000E+00 -0.00000000000E+00 -0.16746794435E+02  0.16746794435E+02  0.00000000000E+00 0.  1.
         24    1    1    2    0    0 -0.17635016931E+02  0.14465077653E+02  0.12648131971E+04  0.12675724325E+04  0.80419002446E+02 0. -1.
        -24    1    1    2    0    0  0.17635016931E+02 -0.14465077653E+02  0.98307709452E+02  0.12904206285E+03  0.80419002446E+02 0.  1.
<mgrwt>
<rscale>  0 0.83590958E+02</rscale>
<asrwt>0</asrwt>
<pdfrwt beam="1">  1        2 0.21228725E+00 0.83590958E+02</pdfrwt>
<pdfrwt beam="2">  1       -2 0.25764310E-02 0.83590958E+02</pdfrwt>
<totfact> 0.80393507E+03</totfact>
</mgrwt>
</event>
<event>
 4    1  0.4844629E-001  0.1000534E+03  0.7546771E-02  0.1280184E+00
          1   -1    0    0  501    0  0.00000000000E+00  0.00000000000E+00  0.73850952031E+03  0.73850952031E+03  0.00000000000E+00 0. -1.
         -1   -1    0    0    0  501 -0.00000000000E+00 -0.00000000000E+00 -0.13808414112E+02  0.13808414112E+02  0.00000000000E+00 0.  1.
         24    1    1    2    0    0 -0.59200693896E+02 -0.62248926666E+01  0.31141824504E+03  0.32709633251E+03  0.80419002446E+02 0.  1.
        -24    1    1    2    0    0  0.59200693896E+02  0.62248926666E+01  0.41328286116E+03  0.42522160191E+03  0.80419002446E+02 0. -1.
<mgrwt>
<rscale>  0 0.10005342E+03</rscale>
<asrwt>0</asrwt>
<pdfrwt beam="1">  1        1 0.11361682E+00 0.10005342E+03</pdfrwt>
<pdfrwt beam="2">  1       -1 0.21243720E-02 0.10005342E+03</pdfrwt>
<totfact> 0.15175045E+04</totfact>
</mgrwt>
</event>
<event>
 4    1  0.4844629E-001  0.8061330E+02  0.7546771E-02  0.1327320E+00
          2   -1    0    0  501    0  0.00000000000E+00  0.00000000000E+00  0.20731993568E+03  0.20731993568E+03  0.00000000000E+00 0. -1.
         -2   -1    0    0    0  501 -0.00000000000E+00 -0.00000000000E+00 -0.31857747704E+02  0.31857747704E+02  0.00000000000E+00 0.  1.
         24    1    1    2    0    0 -0.51309303653E+01  0.22275891148E+01  0.10289845408E+03  0.13071570833E+03  0.80419002446E+02 0. -1.
        -24    1    1    2    0    0  0.51309303653E+01 -0.22275891148E+01  0.72563733896E+02  0.10846197505E+03  0.80419002446E+02 0.  1.
<mgrwt>
<rscale>  0 0.80613303E+02</rscale>
<asrwt>0</asrwt>
<pdfrwt beam="1">  1        2 0.31895374E-01 0.80613303E+02</pdfrwt>
<pdfrwt beam="2">  1       -2 0.49011921E-02 0.80613303E+02</pdfrwt>
<totfact> 0.28810731E+04</totfact>
</mgrwt>
</event>
<event>
 4    1  0.4844629E-001  0.9764512E+02  0.7546771E-02  0.1285327E+00
         -2   -1    0    0    0  501 -0.00000000000E+00  0.00000000000E+00  0.10332322821E+03  0.10332322821E+03  0.00000000000E+00 0.  1.
          2   -1    0    0  501    0  0.00000000000E+00 -0.00000000000E+00 -0.36925499490E+03  0.36925499490E+03  0.00000000000E+00 0. -1.
         24    1    1    2    0    0 -0.52411702187E+02  0.17898790359E+02 -0.33761107625E+03  0.35144815832E+03  0.80419002446E+02 0. -1.
        -24    1    1    2    0    0  0.52411702187E+02 -0.17898790359E+02  0.71679309562E+02  0.12113006479E+03  0.80419002446E+02 0.  1.
<mgrwt>
<rscale>  0 0.97645119E+02</rscale>
<asrwt>0</asrwt>
<pdfrwt beam="1">  1        2 0.56808460E-01 0.97645119E+02</pdfrwt>
<pdfrwt beam="2">  1       -2 0.15895882E-01 0.97645119E+02</pdfrwt>
<totfact> 0.25976214E+03</totfact>
</mgrwt>
</event>
<event>
 4    1  0.4844629E-001  0.8335661E+02  0.7546771E-02  0.1319787E+00
         -2   -1    0    0    0  501 -0.00000000000E+00  0.00000000000E+00  0.60836070772E+02  0.60836070772E+02  0.00000000000E+00 0.  1.
          2   -1    0    0  501    0  0.00000000000E+00 -0.00000000000E+00 -0.30435018367E+03  0.30435018367E+03  0.00000000000E+00 0. -1.
         24    1    1    2    0    0 -0.21586955299E+02 -0.38873469695E+01 -0.26607826567E+03  0.27882963889E+03  0.80419002446E+02 0. -1.
        -24    1    1    2    0    0  0.21586955299E+02  0.38873469695E+01  0.22564152771E+02  0.86356615556E+02  0.80419002446E+02 0.  1.
<mgrwt>
<rscale>  0 0.83356608E+02</rscale>
<asrwt>0</asrwt>
<pdfrwt beam="1">  1        2 0.46823106E-01 0.83356608E+02</pdfrwt>
<pdfrwt beam="2">  1       -2 0.93593954E-02 0.83356608E+02</pdfrwt>
<totfact> 0.72865319E+03</totfact>
</mgrwt>
</event>
<event>
 4    1  0.4844629E-001  0.8094047E+02  0.7546771E-02  0.1326404E+00
         -1   -1    0    0    0  501 -0.00000000000E+00  0.00000000000E+00  0.29416157775E+02  0.29416157775E+02  0.00000000000E+00 0.  1.
          1   -1    0    0  501    0  0.00000000000E+00 -0.00000000000E+00 -0.46506873301E+03  0.46506873301E+03  0.00000000000E+00 0. -1.
         24    1    1    2    0    0 -0.78045626175E+01 -0.48199881639E+01 -0.39345633964E+02  0.89996879668E+02  0.80419002446E+02 0.  1.
        -24    1    1    2    0    0  0.78045626175E+01  0.48199881639E+01 -0.39630694127E+03  0.40448801112E+03  0.80419002446E+02 0. -1.
<mgrwt>
<rscale>  0 0.80940468E+02</rscale>
<asrwt>0</asrwt>
<pdfrwt beam="1">  1        1 0.71549034E-01 0.80940468E+02</pdfrwt>
<pdfrwt beam="2">  1       -1 0.45255628E-02 0.80940468E+02</pdfrwt>
<totfact> 0.93006375E+03</totfact>
</mgrwt>
</event>
<event>
 4    1  0.4844629E-001  0.9124135E+02  0.7546771E-02  0.1299873E+00
         -2   -1    0    0    0  501 -0.00000000000E+00  0.00000000000E+00  0.27615981891E+02  0.27615981891E+02  0.00000000000E+00 0.  1.
          2   -1    0    0  501    0  0.00000000000E+00 -0.00000000000E+00 -0.35729650012E+03  0.35729650012E+03  0.00000000000E+00 0. -1.
         24    1    1    2    0    0 -0.92337356597E+01 -0.42101130811E+02 -0.24092457485E+03  0.25762304596E+03  0.80419002446E+02 0. -1.
        -24    1    1    2    0    0  0.92337356597E+01  0.42101130811E+02 -0.88755943375E+02  0.12728943604E+03  0.80419002446E+02 0.  1.
<mgrwt>
<rscale>  0 0.91241345E+02</rscale>
<asrwt>0</asrwt>
<pdfrwt beam="1">  1        2 0.54968690E-01 0.91241345E+02</pdfrwt>
<pdfrwt beam="2">  1       -2 0.42486128E-02 0.91241345E+02</pdfrwt>
<totfact> 0.20399338E+04</totfact>
</mgrwt>
</event>
<event>
 4    1  0.4844629E-001  0.8091720E+02  0.7546771E-02  0.1326469E+00
          2   -1    0    0  501    0  0.00000000000E+00  0.00000000000E+00  0.16684318527E+02  0.16684318527E+02  0.00000000000E+00 0. -1.
         -2   -1    0    0    0  501 -0.00000000000E+00 -0.00000000000E+00 -0.40159261505E+03  0.40159261505E+03  0.00000000000E+00 0.  1.
         24    1    1    2    0    0  0.87152346654E+01 -0.21029455791E+01 -0.16088127514E+03  0.18008436451E+03  0.80419002446E+02 0.  1.
        -24    1    1    2    0    0 -0.87152346654E+01  0.21029455791E+01 -0.22402702137E+03  0.23819256906E+03  0.80419002446E+02 0.  0.
<mgrwt>
<rscale>  0 0.80917202E+02</rscale>
<asrwt>0</asrwt>
<pdfrwt beam="1">  1        2 0.25668186E-02 0.80917202E+02</pdfrwt>
<pdfrwt beam="2">  1       -2 0.61783471E-01 0.80917202E+02</pdfrwt>
<totfact> 0.85611667E+03</totfact>
</mgrwt>
</event>
<event>
 4    1  0.4844629E-001  0.9284983E+02  0.7546771E-02  0.1296094E+00
          1   -1    0    0  501    0  0.00000000000E+00  0.00000000000E+00  0.19748734084E+03  0.19748734084E+03  0.00000000000E+00 0. -1.
         -1   -1    0    0    0  501 -0.00000000000E+00 -0.00000000000E+00 -0.76422915576E+02  0.76422915576E+02  0.00000000000E+00 0.  1.
         24    1    1    2    0    0 -0.34513722079E+02  0.31027053061E+02 -0.29148334697E+02  0.97317605824E+02  0.80419002446E+02 0.  1.
        -24    1    1    2    0    0  0.34513722079E+02 -0.31027053061E+02  0.15021275997E+03  0.17659265060E+03  0.80419002446E+02 0. -1.
<mgrwt>
<rscale>  0 0.92849830E+02</rscale>
<asrwt>0</asrwt>
<pdfrwt beam="1">  1        1 0.30382668E-01 0.92849830E+02</pdfrwt>
<pdfrwt beam="2">  1       -1 0.11757372E-01 0.92849830E+02</pdfrwt>
<totfact> 0.65191551E+03</totfact>
</mgrwt>
</event>
<event>
 4    1  0.4844629E-001  0.9842498E+02  0.7546771E-02  0.1283643E+00
          2   -1    0    0  501    0  0.00000000000E+00  0.00000000000E+00  0.30535244014E+02  0.30535244014E+02  0.00000000000E+00 0. -1.
         -2   -1    0    0    0  501 -0.00000000000E+00 -0.00000000000E+00 -0.31750866655E+03  0.31750866655E+03  0.00000000000E+00 0.  1.
         24    1    1    2    0    0  0.47944831414E+02 -0.30357023013E+02 -0.14840142417E+03  0.17807429448E+03  0.80419002446E+02 0.  0.
        -24    1    1    2    0    0 -0.47944831414E+02  0.30357023013E+02 -0.13857199837E+03  0.16996961609E+03  0.80419002446E+02 0.  1.
<mgrwt>
<rscale>  0 0.98424967E+02</rscale>
<asrwt>0</asrwt>
<pdfrwt beam="1">  1        2 0.46977300E-02 0.98424979E+02</pdfrwt>
<pdfrwt beam="2">  1       -2 0.48847485E-01 0.98424979E+02</pdfrwt>
<totfact> 0.63079758E+03</totfact>
</mgrwt>
</event>
<event>
 4    1  0.4844629E-001  0.8504789E+02  0.7546771E-02  0.1315307E+00
          1   -1    0    0  501    0  0.00000000000E+00  0.00000000000E+00  0.41069076773E+04  0.41069076773E+04  0.00000000000E+00 0. -1.
         -1   -1    0    0    0  501 -0.00000000000E+00 -0.00000000000E+00 -0.17631776282E+01  0.17631776282E+01  0.00000000000E+00 0.  1.
         24    1    1    2    0    0 -0.59602004664E+01 -0.27025918212E+02  0.21211426022E+04  0.21228469279E+04  0.80419002446E+02 0.  0.
        -24    1    1    2    0    0  0.59602004664E+01  0.27025918212E+02  0.19840018974E+04  0.19858239271E+04  0.80419002446E+02 0. -1.
<mgrwt>
<rscale>  0 0.85047881E+02</rscale>
<asrwt>0</asrwt>
<pdfrwt beam="1">  1        1 0.63182429E+00 0.85047891E+02</pdfrwt>
<pdfrwt beam="2">  1       -1 0.27126138E-03 0.85047891E+02</pdfrwt>
<totfact> 0.12852546E+03</totfact>
</mgrwt>
</event>
<event>
 4    1  0.4844629E-001  0.8348329E+02  0.7546771E-02  0.1319447E+00
          2   -1    0    0  501    0  0.00000000000E+00  0.00000000000E+00  0.66421578573E+03  0.66421578573E+03  0.00000000000E+00 0. -1.
         -2   -1    0    0    0  501 -0.00000000000E+00 -0.00000000000E+00 -0.43087721857E+02  0.43087721857E+02  0.00000000000E+00 0.  1.
         24    1    1    2    0    0 -0.10384975726E+02 -0.19859414288E+02  0.61815547989E+03  0.62376731024E+03  0.80419002446E+02 0.  0.
        -24    1    1    2    0    0  0.10384975726E+02  0.19859414288E+02  0.29725839826E+01  0.83536197344E+02  0.80419002446E+02 0.  1.
<mgrwt>
<rscale>  0 0.83483292E+02</rscale>
<asrwt>0</asrwt>
<pdfrwt beam="1">  1        2 0.10218704E+00 0.83483292E+02</pdfrwt>
<pdfrwt beam="2">  1       -2 0.66288807E-02 0.83483292E+02</pdfrwt>
<totfact> 0.53397875E+03</totfact>
</mgrwt>
</event>
<event>
 4    1  0.4844629E-001  0.1000565E+03  0.7546771E-02  0.1280177E+00
         -2   -1    0    0    0  501 -0.00000000000E+00  0.00000000000E+00  0.73380377888E+02  0.73380377888E+02  0.00000000000E+00 0.  1.
          2   -1    0    0  501    0  0.00000000000E+00 -0.00000000000E+00 -0.37374900648E+03  0.37374900648E+03  0.00000000000E+00 0. -1.
         24    1    1    2    0    0  0.44818432717E+02 -0.39184063835E+02 -0.32833162951E+03  0.34323892213E+03  0.80419002446E+02 0. -1.
        -24    1    1    2    0    0 -0.44818432717E+02  0.39184063835E+02  0.27963000920E+02  0.10389046224E+03  0.80419002446E+02 0.  1.
<mgrwt>
<rscale>  0 0.10005648E+03</rscale>
<asrwt>0</asrwt>
<pdfrwt beam="1">  1        2 0.57499847E-01 0.10005648E+03</pdfrwt>
<pdfrwt beam="2">  1       -2 0.11289289E-01 0.10005648E+03</pdfrwt>
<totfact> 0.44435724E+03</totfact>
</mgrwt>
</event>
<event>
 4    1  0.4844629E-001  0.8285905E+02  0.7546771E-02  0.1321128E+00
         -2   -1    0    0    0  501 -0.00000000000E+00  0.00000000000E+00  0.61021254540E+01  0.61021254540E+01  0.00000000000E+00 0.  1.
          2   -1    0    0  501    0  0.00000000000E+00 -0.00000000000E+00 -0.12640784188E+04  0.12640784188E+04  0.00000000000E+00 0. -1.
         24    1    1    2    0    0  0.10719788385E+02  0.16837207078E+02 -0.83955567738E+03  0.84363461094E+03  0.80419002446E+02 0.  0.
        -24    1    1    2    0    0 -0.10719788385E+02 -0.16837207078E+02 -0.41842061600E+03  0.42654593335E+03  0.80419002446E+02 0.  0.
<mgrwt>
<rscale>  0 0.82859045E+02</rscale>
<asrwt>0</asrwt>
<pdfrwt beam="1">  1        2 0.19447348E+00 0.82859045E+02</pdfrwt>
<pdfrwt beam="2">  1       -2 0.93878913E-03 0.82859045E+02</pdfrwt>
<totfact> 0.38943087E+04</totfact>
</mgrwt>
</event>
<event>
 4    1  0.4844629E-001  0.1372694E+03  0.7546771E-02  0.1217051E+00
          2   -1    0    0  501    0  0.00000000000E+00  0.00000000000E+00  0.16304671939E+04  0.16304671939E+04  0.00000000000E+00 0. -1.
         -2   -1    0    0    0  501 -0.00000000000E+00 -0.00000000000E+00 -0.20733561031E+02  0.20733561031E+02  0.00000000000E+00 0.  1.
         24    1    1    2    0    0 -0.60502327160E+02  0.93354884106E+02  0.13541282614E+04  0.13610680476E+04  0.80419002446E+02 0. -1.
        -24    1    1    2    0    0  0.60502327160E+02 -0.93354884106E+02  0.25560537155E+03  0.29013270739E+03  0.80419002446E+02 0.  1.
<mgrwt>
<rscale>  0 0.13726938E+03</rscale>
<asrwt>0</asrwt>
<pdfrwt beam="1">  1        2 0.25084101E+00 0.13726938E+03</pdfrwt>
<pdfrwt beam="2">  1       -2 0.31897799E-02 0.13726938E+03</pdfrwt>
<totfact> 0.44489088E+03</totfact>
</mgrwt>
</event>
<event>
 4    1  0.4844629E-001  0.8482749E+02  0.7546771E-02  0.1315884E+00
         -3   -1    0    0    0  501 -0.00000000000E+00  0.00000000000E+00  0.68237266168E+02  0.68237266168E+02  0.00000000000E+00 0.  1.
          3   -1    0    0  501    0  0.00000000000E+00 -0.00000000000E+00 -0.26451057738E+03  0.26451057738E+03  0.00000000000E+00 0. -1.
         24    1    1    2    0    0  0.26732781045E+02 -0.37209378848E+01  0.30879276673E+02  0.90273100331E+02  0.80419002446E+02 0.  1.
        -24    1    1    2    0    0 -0.26732781045E+02  0.37209378848E+01 -0.22715258789E+03  0.24247474322E+03  0.80419002446E+02 0. -1.
<mgrwt>
<rscale>  0 0.84827489E+02</rscale>
<asrwt>0</asrwt>
<pdfrwt beam="1">  1        3 0.40693935E-01 0.84827489E+02</pdfrwt>
<pdfrwt beam="2">  1       -3 0.10498041E-01 0.84827489E+02</pdfrwt>
<totfact> 0.86988106E+02</totfact>
</mgrwt>
</event>
<event>
 4    1  0.4844629E-001  0.8151569E+02  0.7546771E-02  0.1324804E+00
         -1   -1    0    0    0  501 -0.00000000000E+00  0.00000000000E+00  0.11181567371E+03  0.11181567371E+03  0.00000000000E+00 0.  1.
          1   -1    0    0  501    0  0.00000000000E+00 -0.00000000000E+00 -0.21744855202E+03  0.21744855202E+03  0.00000000000E+00 0. -1.
         24    1    1    2    0    0  0.95521063008E+01 -0.92923947574E+01  0.87528004909E+02  0.11960752039E+03  0.80419002446E+02 0.  1.
        -24    1    1    2    0    0 -0.95521063008E+01  0.92923947574E+01 -0.19316088322E+03  0.20965670535E+03  0.80419002446E+02 0. -1.
<mgrwt>
<rscale>  0 0.81515687E+02</rscale>
<asrwt>0</asrwt>
<pdfrwt beam="1">  1        1 0.33453623E-01 0.81515687E+02</pdfrwt>
<pdfrwt beam="2">  1       -1 0.17202412E-01 0.81515687E+02</pdfrwt>
<totfact> 0.31922606E+03</totfact>
</mgrwt>
</event>
<event>
 4    1  0.4844629E-001  0.8993002E+02  0.7546771E-02  0.1303021E+00
          2   -1    0    0  501    0  0.00000000000E+00  0.00000000000E+00  0.24796165948E+03  0.24796165948E+03  0.00000000000E+00 0. -1.
         -2   -1    0    0    0  501 -0.00000000000E+00 -0.00000000000E+00 -0.90609163515E+02  0.90609163515E+02  0.00000000000E+00 0.  1.
         24    1    1    2    0    0  0.23380507824E+01 -0.40183657808E+02  0.21410894103E+03  0.23222843801E+03  0.80419002446E+02 0. -1.
        -24    1    1    2    0    0 -0.23380507824E+01  0.40183657808E+02 -0.56756445058E+02  0.10634238499E+03  0.80419002446E+02 0.  1.
<mgrwt>
<rscale>  0 0.89930022E+02</rscale>
<asrwt>0</asrwt>
<pdfrwt beam="1">  1        2 0.38147947E-01 0.89930022E+02</pdfrwt>
<pdfrwt beam="2">  1       -2 0.13939871E-01 0.89930022E+02</pdfrwt>
<totfact> 0.48528189E+03</totfact>
</mgrwt>
</event>
<event>
 4    1  0.4844629E-001  0.9067810E+02  0.7546771E-02  0.1301218E+00
         -2   -1    0    0    0  501 -0.00000000000E+00  0.00000000000E+00  0.87163887168E+02  0.87163887168E+02  0.00000000000E+00 0.  1.
          2   -1    0    0  501    0  0.00000000000E+00 -0.00000000000E+00 -0.10887605513E+03  0.10887605513E+03  0.00000000000E+00 0. -1.
         24    1    1    2    0    0 -0.35128614749E+02 -0.22831624265E+02 -0.46679021531E+02  0.10198749750E+03  0.80419002446E+02 0. -1.
        -24    1    1    2    0    0  0.35128614749E+02  0.22831624265E+02  0.24966853571E+02  0.94052444797E+02  0.80419002446E+02 0.  1.
<mgrwt>
<rscale>  0 0.90678104E+02</rscale>
<asrwt>0</asrwt>
<pdfrwt beam="1">  1        2 0.16750162E-01 0.90678104E+02</pdfrwt>
<pdfrwt beam="2">  1       -2 0.13409829E-01 0.90678104E+02</pdfrwt>
<totfact> 0.12676763E+04</totfact>
</mgrwt>
</event>
<event>
 4    1  0.4844629E-001  0.1292305E+03  0.7546771E-02  0.1228602E+00
         -2   -1    0    0    0  501 -0.00000000000E+00  0.00000000000E+00  0.11248760946E+02  0.11248760946E+02  0.00000000000E+00 0.  1.
          2   -1    0    0  501    0  0.00000000000E+00 -0.00000000000E+00 -0.15355345975E+04  0.15355345975E+04  0.00000000000E+00 0. -1.
         24    1    1    2    0    0 -0.98836944395E+02  0.21553852472E+02 -0.90292348200E+03  0.91212462988E+03  0.80419002446E+02 0. -1.
        -24    1    1    2    0    0  0.98836944395E+02 -0.21553852472E+02 -0.62136235460E+03  0.63465872861E+03  0.80419002446E+02 0.  1.
<mgrwt>
<rscale>  0 0.12923052E+03</rscale>
<asrwt>0</asrwt>
<pdfrwt beam="1">  1        2 0.23623608E+00 0.12923052E+03</pdfrwt>
<pdfrwt beam="2">  1       -2 0.17305787E-02 0.12923052E+03</pdfrwt>
<totfact> 0.12122195E+04</totfact>
</mgrwt>
</event>
<event>
 4    1  0.4844629E-001  0.1018344E+03  0.7546771E-02  0.1276485E+00
          2   -1    0    0  501    0  0.00000000000E+00  0.00000000000E+00  0.29308755606E+02  0.29308755606E+02  0.00000000000E+00 0. -1.
         -2   -1    0    0    0  501 -0.00000000000E+00 -0.00000000000E+00 -0.36994287959E+03  0.36994287959E+03  0.00000000000E+00 0.  1.
         24    1    1    2    0    0 -0.50856995478E+02 -0.36284780422E+02 -0.12865185490E+03  0.16407783215E+03  0.80419002446E+02 0. -1.
        -24    1    1    2    0    0  0.50856995478E+02  0.36284780422E+02 -0.21198226908E+03  0.23517380305E+03  0.80419002446E+02 0.  1.
<mgrwt>
<rscale>  0 0.10183435E+03</rscale>
<asrwt>0</asrwt>
<pdfrwt beam="1">  1        2 0.45090395E-02 0.10183435E+03</pdfrwt>
<pdfrwt beam="2">  1       -2 0.56914287E-01 0.10183435E+03</pdfrwt>
<totfact> 0.49255412E+03</totfact>
</mgrwt>
</event>
<event>
 4    1  0.4844629E-001  0.8084811E+02  0.7546771E-02  0.1326662E+00
         -2   -1    0    0    0  501 -0.00000000000E+00  0.00000000000E+00  0.88000158234E+02  0.88000158234E+02  0.00000000000E+00 0.  1.
          2   -1    0    0  501    0  0.00000000000E+00 -0.00000000000E+00 -0.11163336033E+04  0.11163336033E+04  0.00000000000E+00 0. -1.
         24    1    1    2    0    0  0.83184203108E+01  0.69310069374E-01 -0.10959556516E+04  0.10989336682E+04  0.80419002446E+02 0. -1.
        -24    1    1    2    0    0 -0.83184203108E+01 -0.69310069374E-01  0.67622206474E+02  0.10540009337E+03  0.80419002446E+02 0.  1.
<mgrwt>
<rscale>  0 0.80848110E+02</rscale>
<asrwt>0</asrwt>
<pdfrwt beam="1">  1        2 0.17174363E+00 0.80848110E+02</pdfrwt>
<pdfrwt beam="2">  1       -2 0.13538486E-01 0.80848110E+02</pdfrwt>
<totfact> 0.91790185E+02</totfact>
</mgrwt>
</event>
<event>
 4    1  0.4844629E-001  0.8631409E+02  0.7546771E-02  0.1312031E+00
          2   -1    0    0  501    0  0.00000000000E+00  0.00000000000E+00  0.17518057584E+04  0.17518057584E+04  0.00000000000E+00 0. -1.
         -2   -1    0    0    0  501 -0.00000000000E+00 -0.00000000000E+00 -0.58998858576E+01  0.58998858576E+01  0.00000000000E+00 0.  1.
         24    1    1    2    0    0 -0.12258322461E+02 -0.28855502854E+02  0.13373069827E+04  0.13400895823E+04  0.80419002446E+02 0. -1.
        -24    1    1    2    0    0  0.12258322461E+02  0.28855502854E+02  0.40859888985E+03  0.41761606201E+03  0.80419002446E+02 0. -1.
<mgrwt>
<rscale>  0 0.86314092E+02</rscale>
<asrwt>0</asrwt>
<pdfrwt beam="1">  1        2 0.26950816E+00 0.86314092E+02</pdfrwt>
<pdfrwt beam="2">  1       -2 0.90767614E-03 0.86314092E+02</pdfrwt>
<totfact> 0.23085965E+04</totfact>
</mgrwt>
</event>
<event>
 4    1  0.4844629E-001  0.1226092E+03  0.7546771E-02  0.1238854E+00
         -2   -1    0    0    0  501 -0.00000000000E+00  0.00000000000E+00  0.29543396171E+03  0.29543396171E+03  0.00000000000E+00 0.  1.
          2   -1    0    0  501    0  0.00000000000E+00 -0.00000000000E+00 -0.30331373116E+03  0.30331373116E+03  0.00000000000E+00 0. -1.
         24    1    1    2    0    0  0.86907522355E+02  0.31825634874E+02 -0.27704992003E+03  0.30296808845E+03  0.80419002446E+02 0. -1.
        -24    1    1    2    0    0 -0.86907522355E+02 -0.31825634874E+02  0.26917015058E+03  0.29577960443E+03  0.80419002446E+02 0.  1.
<mgrwt>
<rscale>  0 0.12260915E+03</rscale>
<asrwt>0</asrwt>
<pdfrwt beam="1">  1        2 0.46663651E-01 0.12260915E+03</pdfrwt>
<pdfrwt beam="2">  1       -2 0.45451379E-01 0.12260915E+03</pdfrwt>
<totfact> 0.50268849E+02</totfact>
</mgrwt>
</event>
<event>
 4    1  0.4844629E-001  0.8572587E+02  0.7546771E-02  0.1313545E+00
          2   -1    0    0  501    0  0.00000000000E+00  0.00000000000E+00  0.79185706379E+02  0.79185706379E+02  0.00000000000E+00 0. -1.
         -2   -1    0    0    0  501 -0.00000000000E+00 -0.00000000000E+00 -0.37750061090E+03  0.37750061090E+03  0.00000000000E+00 0.  1.
         24    1    1    2    0    0  0.18898446455E+02 -0.22903230944E+02  0.49140686816E+02  0.98811600135E+02  0.80419002446E+02 0. -1.
        -24    1    1    2    0    0 -0.18898446455E+02  0.22903230944E+02 -0.34745559133E+03  0.35787471714E+03  0.80419002446E+02 0.  1.
<mgrwt>
<rscale>  0 0.85725873E+02</rscale>
<asrwt>0</asrwt>
<pdfrwt beam="1">  1        2 0.12182416E-01 0.85725873E+02</pdfrwt>
<pdfrwt beam="2">  1       -2 0.58077016E-01 0.85725873E+02</pdfrwt>
<totfact> 0.13516590E+03</totfact>
</mgrwt>
</event>
<event>
 4    1  0.4844629E-001  0.9651196E+02  0.7546771E-02  0.1287807E+00
         -2   -1    0    0    0  501 -0.00000000000E+00  0.00000000000E+00  0.56910133001E+03  0.56910133001E+03  0.00000000000E+00 0.  1.
          2   -1    0    0  501    0  0.00000000000E+00 -0.00000000000E+00 -0.16367631292E+02  0.16367631292E+02  0.00000000000E+00 0. -1.
         24    1    1    2    0    0  0.49989062744E+02 -0.18666432381E+02  0.27475419107E+03  0.29121199075E+03  0.80419002446E+02 0. -1.
        -24    1    1    2    0    0 -0.49989062744E+02  0.18666432381E+02  0.27797950764E+03  0.29425697055E+03  0.80419002446E+02 0.  1.
<mgrwt>
<rscale>  0 0.96511958E+02</rscale>
<asrwt>0</asrwt>
<pdfrwt beam="1">  1        2 0.25180976E-02 0.96511958E+02</pdfrwt>
<pdfrwt beam="2">  1       -2 0.87554036E-01 0.96511958E+02</pdfrwt>
<totfact> 0.42580551E+03</totfact>
</mgrwt>
</event>
<event>
 4    1  0.4844629E-001  0.1004140E+03  0.7546771E-02  0.1279428E+00
         -2   -1    0    0    0  501 -0.00000000000E+00  0.00000000000E+00  0.96270128914E+01  0.96270128914E+01  0.00000000000E+00 0.  1.
          2   -1    0    0  501    0  0.00000000000E+00 -0.00000000000E+00 -0.10552043314E+04  0.10552043314E+04  0.00000000000E+00 0. -1.
         24    1    1    2    0    0  0.58786023447E+02 -0.12647107949E+02 -0.47688774518E+03  0.48734472742E+03  0.80419002446E+02 0. -1.
        -24    1    1    2    0    0 -0.58786023447E+02  0.12647107949E+02 -0.56868957333E+03  0.57748661687E+03  0.80419002446E+02 0.  1.
<mgrwt>
<rscale>  0 0.10041397E+03</rscale>
<asrwt>0</asrwt>
<pdfrwt beam="1">  1        2 0.16233914E+00 0.10041398E+03</pdfrwt>
<pdfrwt beam="2">  1       -2 0.14810788E-02 0.10041398E+03</pdfrwt>
<totfact> 0.27051050E+04</totfact>
</mgrwt>
</event>
<event>
 4    1  0.4844629E-001  0.1069295E+03  0.7546771E-02  0.1266364E+00
         -2   -1    0    0    0  501 -0.00000000000E+00  0.00000000000E+00  0.18311182039E+02  0.18311182039E+02  0.00000000000E+00 0.  1.
          2   -1    0    0  501    0  0.00000000000E+00 -0.00000000000E+00 -0.62605979282E+03  0.62605979282E+03  0.00000000000E+00 0. -1.
         24    1    1    2    0    0 -0.52721269015E+01 -0.70277366242E+02 -0.32034917626E+03  0.33772402078E+03  0.80419002446E+02 0.  1.
        -24    1    1    2    0    0  0.52721269015E+01  0.70277366242E+02 -0.28739943452E+03  0.30664695408E+03  0.80419002446E+02 0. -1.
<mgrwt>
<rscale>  0 0.10692951E+03</rscale>
<asrwt>0</asrwt>
<pdfrwt beam="1">  1        2 0.96316879E-01 0.10692951E+03</pdfrwt>
<pdfrwt beam="2">  1       -2 0.28171053E-02 0.10692951E+03</pdfrwt>
<totfact> 0.20628140E+04</totfact>
</mgrwt>
</event>
<event>
 4    1  0.4844629E-001  0.8853761E+02  0.7546771E-02  0.1306432E+00
         -2   -1    0    0    0  501 -0.00000000000E+00  0.00000000000E+00  0.77729233758E+02  0.77729233758E+02  0.00000000000E+00 0.  1.
          2   -1    0    0  501    0  0.00000000000E+00 -0.00000000000E+00 -0.11475006983E+03  0.11475006983E+03  0.00000000000E+00 0. -1.
         24    1    1    2    0    0 -0.28097394147E+02 -0.24129413545E+02 -0.52007205701E+02  0.10268231374E+03  0.80419002446E+02 0.  1.
        -24    1    1    2    0    0  0.28097394147E+02  0.24129413545E+02  0.14986369634E+02  0.89796989844E+02  0.80419002446E+02 0.  0.
<mgrwt>
<rscale>  0 0.88537608E+02</rscale>
<asrwt>0</asrwt>
<pdfrwt beam="1">  1        2 0.17653857E-01 0.88537608E+02</pdfrwt>
<pdfrwt beam="2">  1       -2 0.11958344E-01 0.88537608E+02</pdfrwt>
<totfact> 0.14289288E+04</totfact>
</mgrwt>
</event>
<event>
 4    1  0.4844629E-001  0.8465865E+02  0.7546771E-02  0.1316328E+00
          2   -1    0    0  501    0  0.00000000000E+00  0.00000000000E+00  0.24732804188E+04  0.24732804188E+04  0.00000000000E+00 0. -1.
         -2   -1    0    0    0  501 -0.00000000000E+00 -0.00000000000E+00 -0.53697813043E+01  0.53697813043E+01  0.00000000000E+00 0.  1.
         24    1    1    2    0    0 -0.23890996524E+02  0.11361817403E+02  0.20748256316E+04  0.20765520673E+04  0.80419002446E+02 0. -1.
        -24    1    1    2    0    0  0.23890996524E+02 -0.11361817403E+02  0.39308500589E+03  0.40209813283E+03  0.80419002446E+02 0.  1.
<mgrwt>
<rscale>  0 0.84658647E+02</rscale>
<asrwt>0</asrwt>
<pdfrwt beam="1">  1        2 0.38050377E+00 0.84658647E+02</pdfrwt>
<pdfrwt beam="2">  1       -2 0.82612218E-03 0.84658647E+02</pdfrwt>
<totfact> 0.11355362E+04</totfact>
</mgrwt>
</event>
<event>
 4    1  0.4844629E-001  0.9925215E+02  0.7546771E-02  0.1281876E+00
         -2   -1    0    0    0  501 -0.00000000000E+00  0.00000000000E+00  0.37531344575E+03  0.37531344575E+03  0.00000000000E+00 0.  1.
          2   -1    0    0  501    0  0.00000000000E+00 -0.00000000000E+00 -0.31043197198E+02  0.31043197198E+02  0.00000000000E+00 0. -1.
         24    1    1    2    0    0 -0.49480572212E+02  0.30584984349E+02  0.25199464678E+03  0.27083627204E+03  0.80419002446E+02 0.  1.
        -24    1    1    2    0    0  0.49480572212E+02 -0.30584984349E+02  0.92275601776E+02  0.13552037091E+03  0.80419002446E+02 0. -1.
<mgrwt>
<rscale>  0 0.99252137E+02</rscale>
<asrwt>0</asrwt>
<pdfrwt beam="1">  1        2 0.47758768E-02 0.99252149E+02</pdfrwt>
<pdfrwt beam="2">  1       -2 0.57740527E-01 0.99252149E+02</pdfrwt>
<totfact> 0.44294858E+03</totfact>
</mgrwt>
</event>
<event>
 4    1  0.4844629E-001  0.1075349E+03  0.7546771E-02  0.1265204E+00
         -2   -1    0    0    0  501 -0.00000000000E+00  0.00000000000E+00  0.23241775348E+02  0.23241775348E+02  0.00000000000E+00 0.  1.
          2   -1    0    0  501    0  0.00000000000E+00 -0.00000000000E+00 -0.12289598809E+04  0.12289598809E+04  0.00000000000E+00 0. -1.
         24    1    1    2    0    0 -0.70450077828E+02  0.11546534571E+02 -0.10858714836E+04  0.10911831335E+04  0.80419002446E+02 0. -1.
        -24    1    1    2    0    0  0.70450077828E+02 -0.11546534571E+02 -0.11984662192E+03  0.16101852275E+03  0.80419002446E+02 0.  1.
<mgrwt>
<rscale>  0 0.10753489E+03</rscale>
<asrwt>0</asrwt>
<pdfrwt beam="1">  1        2 0.18907073E+00 0.10753489E+03</pdfrwt>
<pdfrwt beam="2">  1       -2 0.35756581E-02 0.10753489E+03</pdfrwt>
<totfact> 0.60664008E+03</totfact>
</mgrwt>
</event>
<event>
 4    1  0.4844629E-001  0.8740229E+02  0.7546771E-02  0.1309267E+00
         -1   -1    0    0    0  501 -0.00000000000E+00  0.00000000000E+00  0.16870881384E+03  0.16870881384E+03  0.00000000000E+00 0.  1.
          1   -1    0    0  501    0  0.00000000000E+00 -0.00000000000E+00 -0.16678978639E+03  0.16678978639E+03  0.00000000000E+00 0. -1.
         24    1    1    2    0    0  0.34174227595E+02 -0.20164445612E+01  0.14413918376E+03  0.16856827735E+03  0.80419002446E+02 0.  1.
        -24    1    1    2    0    0 -0.34174227595E+02  0.20164445612E+01 -0.14222015631E+03  0.16693032287E+03  0.80419002446E+02 0. -1.
<mgrwt>
<rscale>  0 0.87402287E+02</rscale>
<asrwt>0</asrwt>
<pdfrwt beam="1">  1        1 0.25659967E-01 0.87402287E+02</pdfrwt>
<pdfrwt beam="2">  1       -1 0.25955202E-01 0.87402287E+02</pdfrwt>
<totfact> 0.23028863E+03</totfact>
</mgrwt>
</event>
<event>
 4    1  0.4844629E-001  0.8194232E+02  0.7546771E-02  0.1323628E+00
          2   -1    0    0  501    0  0.00000000000E+00  0.00000000000E+00  0.21588340014E+04  0.21588340014E+04  0.00000000000E+00 0. -1.
         -2   -1    0    0    0  501 -0.00000000000E+00 -0.00000000000E+00 -0.16545908705E+02  0.16545908705E+02  0.00000000000E+00 0.  1.
         24    1    1    2    0    0 -0.94709472777E+01 -0.12555013196E+02  0.20512861946E+04  0.20529222088E+04  0.80419002446E+02 0. -1.
        -24    1    1    2    0    0  0.94709472777E+01  0.12555013196E+02  0.91001898043E+02  0.12245770127E+03  0.80419002446E+02 0.  1.
<mgrwt>
<rscale>  0 0.81942316E+02</rscale>
<asrwt>0</asrwt>
<pdfrwt beam="1">  1        2 0.33212808E+00 0.81942316E+02</pdfrwt>
<pdfrwt beam="2">  1       -2 0.25455261E-02 0.81942316E+02</pdfrwt>
<totfact> 0.33151951E+03</totfact>
</mgrwt>
</event>
<event>
 4    1  0.4844629E-001  0.8271269E+02  0.7546771E-02  0.1321525E+00
         -2   -1    0    0    0  501 -0.00000000000E+00  0.00000000000E+00  0.19210658146E+02  0.19210658146E+02  0.00000000000E+00 0.  1.
          2   -1    0    0  501    0  0.00000000000E+00 -0.00000000000E+00 -0.87211711485E+03  0.87211711485E+03  0.00000000000E+00 0. -1.
         24    1    1    2    0    0 -0.17985361598E+02  0.71203864973E+01 -0.76925393968E+03  0.77368792985E+03  0.80419002446E+02 0. -1.
        -24    1    1    2    0    0  0.17985361598E+02 -0.71203864973E+01 -0.83652517026E+02  0.11763984314E+03  0.80419002446E+02 0.  0.
<mgrwt>
<rscale>  0 0.82712690E+02</rscale>
<asrwt>0</asrwt>
<pdfrwt beam="1">  1        2 0.13417186E+00 0.82712690E+02</pdfrwt>
<pdfrwt beam="2">  1       -2 0.29554860E-02 0.82712690E+02</pdfrwt>
<totfact> 0.12677203E+04</totfact>
</mgrwt>
</event>
<event>
 4    1  0.4844629E-001  0.8711896E+02  0.7546771E-02  0.1309982E+00
          1   -1    0    0  501    0  0.00000000000E+00  0.00000000000E+00  0.58422525728E+02  0.58422525728E+02  0.00000000000E+00 0. -1.
         -1   -1    0    0    0  501 -0.00000000000E+00 -0.00000000000E+00 -0.15070172975E+03  0.15070172975E+03  0.00000000000E+00 0.  1.
         24    1    1    2    0    0  0.30187640222E+02 -0.14532742763E+02 -0.73019043463E+01  0.87424413043E+02  0.80419002446E+02 0.  1.
        -24    1    1    2    0    0 -0.30187640222E+02  0.14532742763E+02 -0.84977299679E+02  0.12169984244E+03  0.80419002446E+02 0.  1.
<mgrwt>
<rscale>  0 0.87118954E+02</rscale>
<asrwt>0</asrwt>
<pdfrwt beam="1">  1        1 0.89880810E-02 0.87118965E+02</pdfrwt>
<pdfrwt beam="2">  1       -1 0.23184881E-01 0.87118965E+02</pdfrwt>
<totfact> 0.10539467E+04</totfact>
</mgrwt>
</event>
<event>
 4    1  0.4844629E-001  0.8419560E+02  0.7546771E-02  0.1317550E+00
         -3   -1    0    0    0  501 -0.00000000000E+00  0.00000000000E+00  0.58752392547E+02  0.58752392547E+02  0.00000000000E+00 0.  1.
          3   -1    0    0  501    0  0.00000000000E+00 -0.00000000000E+00 -0.13756144217E+03  0.13756144217E+03  0.00000000000E+00 0. -1.
         24    1    1    2    0    0  0.67262527729E+01  0.24009195072E+02 -0.49956674907E+01  0.84343681283E+02  0.80419002446E+02 0.  1.
        -24    1    1    2    0    0 -0.67262527729E+01 -0.24009195072E+02 -0.73813382137E+02  0.11197015344E+03  0.80419002446E+02 0. -1.
<mgrwt>
<rscale>  0 0.84195605E+02</rscale>
<asrwt>0</asrwt>
<pdfrwt beam="1">  1        3 0.21163299E-01 0.84195605E+02</pdfrwt>
<pdfrwt beam="2">  1       -3 0.90388296E-02 0.84195605E+02</pdfrwt>
<totfact> 0.36576474E+03</totfact>
</mgrwt>
</event>
<event>
 4    1  0.4844629E-001  0.8891626E+02  0.7546771E-02  0.1305498E+00
          2   -1    0    0  501    0  0.00000000000E+00  0.00000000000E+00  0.56285683629E+03  0.56285683629E+03  0.00000000000E+00 0. -1.
         -2   -1    0    0    0  501 -0.00000000000E+00 -0.00000000000E+00 -0.23567828848E+02  0.23567828848E+02  0.00000000000E+00 0.  1.
         24    1    1    2    0    0 -0.36866731384E+02  0.89291803714E+01  0.45601360895E+03  0.46460145678E+03  0.80419002446E+02 0. -1.
        -24    1    1    2    0    0  0.36866731384E+02 -0.89291803714E+01  0.83275398494E+02  0.12182320835E+03  0.80419002446E+02 0.  1.
<mgrwt>
<rscale>  0 0.88916265E+02</rscale>
<asrwt>0</asrwt>
<pdfrwt beam="1">  1        2 0.86593349E-01 0.88916265E+02</pdfrwt>
<pdfrwt beam="2">  1       -2 0.36258202E-02 0.88916265E+02</pdfrwt>
<totfact> 0.15807142E+04</totfact>
</mgrwt>
</event>
<event>
 4    1  0.4844629E-001  0.8314214E+02  0.7546771E-02  0.1320364E+00
         -2   -1    0    0    0  501 -0.00000000000E+00  0.00000000000E+00  0.77326095694E+01  0.77326095694E+01  0.00000000000E+00 0.  1.
          2   -1    0    0  501    0  0.00000000000E+00 -0.00000000000E+00 -0.10756230184E+04  0.10756230184E+04  0.00000000000E+00 0. -1.
         24    1    1    2    0    0  0.17567630507E+02  0.11695231269E+02 -0.75655718672E+03  0.76111194499E+03  0.80419002446E+02 0.  0.
        -24    1    1    2    0    0 -0.17567630507E+02 -0.11695231269E+02 -0.31133322215E+03  0.32224368302E+03  0.80419002446E+02 0.  1.
<mgrwt>
<rscale>  0 0.83142144E+02</rscale>
<asrwt>0</asrwt>
<pdfrwt beam="1">  1        2 0.16548048E+00 0.83142144E+02</pdfrwt>
<pdfrwt beam="2">  1       -2 0.11896321E-02 0.83142144E+02</pdfrwt>
<totfact> 0.35333639E+04</totfact>
</mgrwt>
</event>
<event>
 4    1  0.4844629E-001  0.1010416E+03  0.7546771E-02  0.1278121E+00
         -2   -1    0    0    0  501 -0.00000000000E+00  0.00000000000E+00  0.13211617370E+02  0.13211617370E+02  0.00000000000E+00 0.  1.
          2   -1    0    0  501    0  0.00000000000E+00 -0.00000000000E+00 -0.16398124804E+04  0.16398124804E+04  0.00000000000E+00 0. -1.
         24    1    1    2    0    0  0.25280366715E+01 -0.61121113215E+02 -0.14143011843E+04  0.14179059338E+04  0.80419002446E+02 0. -1.
        -24    1    1    2    0    0 -0.25280366715E+01  0.61121113215E+02 -0.21229967873E+03  0.23511816390E+03  0.80419002446E+02 0.  1.
<mgrwt>
<rscale>  0 0.10104156E+03</rscale>
<asrwt>0</asrwt>
<pdfrwt beam="1">  1        2 0.25227897E+00 0.10104156E+03</pdfrwt>
<pdfrwt beam="2">  1       -2 0.20325555E-02 0.10104156E+03</pdfrwt>
<totfact> 0.84067677E+03</totfact>
</mgrwt>
</event>
<event>
 4    1  0.4844629E-001  0.8116063E+02  0.7546771E-02  0.1325790E+00
         -1   -1    0    0    0  501 -0.00000000000E+00  0.00000000000E+00  0.17363630047E+02  0.17363630047E+02  0.00000000000E+00 0.  1.
          1   -1    0    0  501    0  0.00000000000E+00 -0.00000000000E+00 -0.94606507524E+03  0.94606507524E+03  0.00000000000E+00 0. -1.
         24    1    1    2    0    0 -0.10292196067E+02  0.37286255366E+01 -0.91523129811E+02  0.12232551325E+03  0.80419002446E+02 0.  1.
        -24    1    1    2    0    0  0.10292196067E+02 -0.37286255366E+01 -0.83717831538E+03  0.84110319203E+03  0.80419002446E+02 0.  0.
<mgrwt>
<rscale>  0 0.81160630E+02</rscale>
<asrwt>0</asrwt>
<pdfrwt beam="1">  1        1 0.14554845E+00 0.81160630E+02</pdfrwt>
<pdfrwt beam="2">  1       -1 0.26713281E-02 0.81160630E+02</pdfrwt>
<totfact> 0.73969280E+03</totfact>
</mgrwt>
</event>
<event>
 4    1  0.4844629E-001  0.8393725E+02  0.7546771E-02  0.1318235E+00
          2   -1    0    0  501    0  0.00000000000E+00  0.00000000000E+00  0.13088406965E+04  0.13088406965E+04  0.00000000000E+00 0. -1.
         -2   -1    0    0    0  501 -0.00000000000E+00 -0.00000000000E+00 -0.13658908855E+02  0.13658908855E+02  0.00000000000E+00 0.  1.
         24    1    1    2    0    0 -0.79100914406E+01 -0.22708492819E+02  0.11623048798E+04  0.11653317531E+04  0.80419002446E+02 0. -1.
        -24    1    1    2    0    0  0.79100914406E+01  0.22708492819E+02  0.13287690783E+03  0.15716785225E+03  0.80419002446E+02 0.  1.
<mgrwt>
<rscale>  0 0.83937245E+02</rscale>
<asrwt>0</asrwt>
<pdfrwt beam="1">  1        2 0.20136001E+00 0.83937245E+02</pdfrwt>
<pdfrwt beam="2">  1       -2 0.21013716E-02 0.83937245E+02</pdfrwt>
<totfact> 0.11742777E+04</totfact>
</mgrwt>
</event>
<event>
 4    1  0.4844629E-001  0.8766942E+02  0.7546771E-02  0.1308596E+00
          1   -1    0    0  501    0  0.00000000000E+00  0.00000000000E+00  0.48704250612E+04  0.48704250612E+04  0.00000000000E+00 0. -1.
         -1   -1    0    0    0  501 -0.00000000000E+00 -0.00000000000E+00 -0.15783769773E+01  0.15783769773E+01  0.00000000000E+00 0.  1.
         24    1    1    2    0    0  0.24652633261E+02  0.24717515879E+02  0.24677974015E+04  0.24693541541E+04  0.80419002446E+02 0.  1.
        -24    1    1    2    0    0 -0.24652633261E+02 -0.24717515879E+02  0.24010492828E+04  0.24026492841E+04  0.80419002446E+02 0. -1.
<mgrwt>
<rscale>  0 0.87669412E+02</rscale>
<asrwt>0</asrwt>
<pdfrwt beam="1">  1        1 0.74928413E+00 0.87669423E+02</pdfrwt>
<pdfrwt beam="2">  1       -1 0.24283113E-03 0.87669423E+02</pdfrwt>
<totfact> 0.27777473E+02</totfact>
</mgrwt>
</event>
<event>
 4    1  0.4844629E-001  0.8077567E+02  0.7546771E-02  0.1326865E+00
         -1   -1    0    0    0  501 -0.00000000000E+00  0.00000000000E+00  0.63972036503E+02  0.63972036503E+02  0.00000000000E+00 0.  1.
          1   -1    0    0  501    0  0.00000000000E+00 -0.00000000000E+00 -0.12678296097E+03  0.12678296097E+03  0.00000000000E+00 0. -1.
         24    1    1    2    0    0 -0.75257614762E+01  0.92322524441E+00 -0.73580225825E+02  0.10926461009E+03  0.80419002446E+02 0. -1.
        -24    1    1    2    0    0  0.75257614762E+01 -0.92322524441E+00  0.10769301355E+02  0.81490387388E+02  0.80419002446E+02 0.  0.
<mgrwt>
<rscale>  0 0.80775659E+02</rscale>
<asrwt>0</asrwt>
<pdfrwt beam="1">  1        1 0.19505071E-01 0.80775669E+02</pdfrwt>
<pdfrwt beam="2">  1       -1 0.98418520E-02 0.80775669E+02</pdfrwt>
<totfact> 0.14591799E+04</totfact>
</mgrwt>
</event>
<event>
 4    1  0.4844629E-001  0.9195648E+02  0.7546771E-02  0.1298182E+00
         -2   -1    0    0    0  501 -0.00000000000E+00  0.00000000000E+00  0.73508263946E+01  0.73508263946E+01  0.00000000000E+00 0.  1.
          2   -1    0    0  501    0  0.00000000000E+00 -0.00000000000E+00 -0.17108149705E+04  0.17108149705E+04  0.00000000000E+00 0. -1.
         24    1    1    2    0    0  0.65088262503E+01  0.44118184420E+02 -0.13434423370E+04  0.13465857966E+04  0.80419002446E+02 0.  0.
        -24    1    1    2    0    0 -0.65088262503E+01 -0.44118184420E+02 -0.36002180712E+03  0.37158000023E+03  0.80419002446E+02 0. -1.
<mgrwt>
<rscale>  0 0.91956484E+02</rscale>
<asrwt>0</asrwt>
<pdfrwt beam="1">  1        2 0.26320238E+00 0.91956484E+02</pdfrwt>
<pdfrwt beam="2">  1       -2 0.11308960E-02 0.91956484E+02</pdfrwt>
<totfact> 0.17808083E+04</totfact>
</mgrwt>
</event>
<event>
 4    1  0.4844629E-001  0.9494317E+02  0.7546771E-02  0.1291304E+00
          1   -1    0    0  501    0  0.00000000000E+00  0.00000000000E+00  0.17830539400E+04  0.17830539400E+04  0.00000000000E+00 0. -1.
         -1   -1    0    0    0  501 -0.00000000000E+00 -0.00000000000E+00 -0.51290920518E+01  0.51290920518E+01  0.00000000000E+00 0.  1.
         24    1    1    2    0    0  0.45991744495E+02  0.20778440015E+02  0.99607127183E+03  0.10005859177E+04  0.80419002446E+02 0.  1.
        -24    1    1    2    0    0 -0.45991744495E+02 -0.20778440015E+02  0.78185357615E+03  0.78759711441E+03  0.80419002446E+02 0.  0.
<mgrwt>
<rscale>  0 0.94943153E+02</rscale>
<asrwt>0</asrwt>
<pdfrwt beam="1">  1        1 0.27431550E+00 0.94943165E+02</pdfrwt>
<pdfrwt beam="2">  1       -1 0.78909251E-03 0.94943165E+02</pdfrwt>
<totfact> 0.11807772E+04</totfact>
</mgrwt>
</event>
<event>
 4    1  0.4844629E-001  0.8351210E+02  0.7546771E-02  0.1319370E+00
          2   -1    0    0  501    0  0.00000000000E+00  0.00000000000E+00  0.29912361270E+03  0.29912361270E+03  0.00000000000E+00 0. -1.
         -2   -1    0    0    0  501 -0.00000000000E+00 -0.00000000000E+00 -0.24915160882E+02  0.24915160882E+02  0.00000000000E+00 0.  1.
         24    1    1    2    0    0  0.15377453708E+02 -0.16449580218E+02  0.17815530053E+03  0.19675767287E+03  0.80419002446E+02 0. -1.
        -24    1    1    2    0    0 -0.15377453708E+02  0.16449580218E+02  0.96053151286E+02  0.12728110071E+03  0.80419002446E+02 0.  1.
<mgrwt>
<rscale>  0 0.83512099E+02</rscale>
<asrwt>0</asrwt>
<pdfrwt beam="1">  1        2 0.46019015E-01 0.83512099E+02</pdfrwt>
<pdfrwt beam="2">  1       -2 0.38331019E-02 0.83512099E+02</pdfrwt>
<totfact> 0.28285299E+04</totfact>
</mgrwt>
</event>
<event>
 4    1  0.4844629E-001  0.3528269E+03  0.7546771E-02  0.1061461E+00
         -2   -1    0    0    0  501 -0.00000000000E+00  0.00000000000E+00  0.56151693978E+03  0.56151693978E+03  0.00000000000E+00 0.  1.
          2   -1    0    0  501    0  0.00000000000E+00 -0.00000000000E+00 -0.52905418769E+03  0.52905418769E+03  0.00000000000E+00 0. -1.
         24    1    1    2    0    0 -0.32459187644E+03 -0.11251542982E+03 -0.39938758570E+03  0.53291394030E+03  0.80419002446E+02 0. -1.
        -24    1    1    2    0    0  0.32459187644E+03  0.11251542982E+03  0.43185033779E+03  0.55765718717E+03  0.80419002446E+02 0.  1.
<mgrwt>
<rscale>  0 0.35282690E+03</rscale>
<asrwt>0</asrwt>
<pdfrwt beam="1">  1        2 0.81392952E-01 0.35282690E+03</pdfrwt>
<pdfrwt beam="2">  1       -2 0.86387221E-01 0.35282690E+03</pdfrwt>
<totfact> 0.70066845E+01</totfact>
</mgrwt>
</event>
<event>
 4    1  0.4844629E-001  0.1322863E+03  0.7546771E-02  0.1224102E+00
         -1   -1    0    0    0  501 -0.00000000000E+00  0.00000000000E+00  0.76424231689E+01  0.76424231689E+01  0.00000000000E+00 0.  1.
          1   -1    0    0  501    0  0.00000000000E+00 -0.00000000000E+00 -0.24260522550E+04  0.24260522550E+04  0.00000000000E+00 0. -1.
         24    1    1    2    0    0  0.33810679959E+02  0.99444853245E+02 -0.92083476750E+03  0.93028830257E+03  0.80419002446E+02 0.  1.
        -24    1    1    2    0    0 -0.33810679959E+02 -0.99444853245E+02 -0.14975750643E+04  0.15034063756E+04  0.80419002446E+02 0. -1.
<mgrwt>
<rscale>  0 0.13228627E+03</rscale>
<asrwt>0</asrwt>
<pdfrwt beam="1">  1        1 0.37323917E+00 0.13228627E+03</pdfrwt>
<pdfrwt beam="2">  1       -1 0.11757563E-02 0.13228627E+03</pdfrwt>
<totfact> 0.26458391E+03</totfact>
</mgrwt>
</event>
<event>
 4    1  0.4844629E-001  0.8720918E+02  0.7546771E-02  0.1309754E+00
         -2   -1    0    0    0  501 -0.00000000000E+00  0.00000000000E+00  0.11983837231E+02  0.11983837231E+02  0.00000000000E+00 0.  1.
          2   -1    0    0  501    0  0.00000000000E+00 -0.00000000000E+00 -0.93200321204E+03  0.93200321204E+03  0.00000000000E+00 0. -1.
         24    1    1    2    0    0 -0.32204437122E+02 -0.10054779240E+02 -0.72661565600E+03  0.73183041195E+03  0.80419002446E+02 0. -1.
        -24    1    1    2    0    0  0.32204437122E+02  0.10054779240E+02 -0.19340371880E+03  0.21215663732E+03  0.80419002446E+02 0.  1.
<mgrwt>
<rscale>  0 0.87209176E+02</rscale>
<asrwt>0</asrwt>
<pdfrwt beam="1">  1        2 0.14338516E+00 0.87209176E+02</pdfrwt>
<pdfrwt beam="2">  1       -2 0.18436666E-02 0.87209176E+02</pdfrwt>
<totfact> 0.23078123E+04</totfact>
</mgrwt>
</event>
<event>
 4    1  0.4844629E-001  0.1100686E+03  0.7546771E-02  0.1260443E+00
          1   -1    0    0  501    0  0.00000000000E+00  0.00000000000E+00  0.75882027631E+03  0.75882027631E+03  0.00000000000E+00 0. -1.
         -1   -1    0    0    0  501 -0.00000000000E+00 -0.00000000000E+00 -0.16095429913E+02  0.16095429913E+02  0.00000000000E+00 0.  1.
         24    1    1    2    0    0  0.74132688192E+02 -0.12338070471E+02  0.40614707836E+03  0.42079751504E+03  0.80419002446E+02 0. -1.
        -24    1    1    2    0    0 -0.74132688192E+02  0.12338070471E+02  0.33657776803E+03  0.35411819119E+03  0.80419002446E+02 0. -1.
<mgrwt>
<rscale>  0 0.11006863E+03</rscale>
<asrwt>0</asrwt>
<pdfrwt beam="1">  1        1 0.11674155E+00 0.11006864E+03</pdfrwt>
<pdfrwt beam="2">  1       -1 0.24762206E-02 0.11006864E+03</pdfrwt>
<totfact> 0.11794542E+04</totfact>
</mgrwt>
</event>
<event>
 4    1  0.4844629E-001  0.8517982E+02  0.7546771E-02  0.1314963E+00
         -2   -1    0    0    0  501 -0.00000000000E+00  0.00000000000E+00  0.95071958735E+01  0.95071958735E+01  0.00000000000E+00 0.  1.
          2   -1    0    0  501    0  0.00000000000E+00 -0.00000000000E+00 -0.21585632265E+04  0.21585632265E+04  0.00000000000E+00 0. -1.
         24    1    1    2    0    0 -0.27747872398E+02  0.42944201827E+01 -0.19461122715E+04  0.19479755070E+04  0.80419002446E+02 0. -1.
        -24    1    1    2    0    0  0.27747872398E+02 -0.42944201827E+01 -0.20294375907E+03  0.22009491536E+03  0.80419002446E+02 0.  1.
<mgrwt>
<rscale>  0 0.85179824E+02</rscale>
<asrwt>0</asrwt>
<pdfrwt beam="1">  1        2 0.33208714E+00 0.85179824E+02</pdfrwt>
<pdfrwt beam="2">  1       -2 0.14626433E-02 0.85179824E+02</pdfrwt>
<totfact> 0.73372779E+03</totfact>
</mgrwt>
</event>
<event>
 4    1  0.4844629E-001  0.9124840E+02  0.7546771E-02  0.1299856E+00
          1   -1    0    0  501    0  0.00000000000E+00  0.00000000000E+00  0.61442110622E+02  0.61442110622E+02  0.00000000000E+00 0. -1.
         -1   -1    0    0    0  501 -0.00000000000E+00 -0.00000000000E+00 -0.19530039900E+03  0.19530039900E+03  0.00000000000E+00 0.  1.
         24    1    1    2    0    0  0.22816206664E+02 -0.36585166648E+02 -0.13795512071E+03  0.16540219161E+03  0.80419002446E+02 0.  1.
        -24    1    1    2    0    0 -0.22816206664E+02  0.36585166648E+02  0.40968323300E+01  0.91340318013E+02  0.80419002446E+02 0. -1.
<mgrwt>
<rscale>  0 0.91248395E+02</rscale>
<asrwt>0</asrwt>
<pdfrwt beam="1">  1        1 0.94526324E-02 0.91248395E+02</pdfrwt>
<pdfrwt beam="2">  1       -1 0.30046215E-01 0.91248395E+02</pdfrwt>
<totfact> 0.64837780E+03</totfact>
</mgrwt>
</event>
<event>
 4    1  0.4844629E-001  0.8266532E+02  0.7546771E-02  0.1321653E+00
         -2   -1    0    0    0  501 -0.00000000000E+00  0.00000000000E+00  0.95723093979E+01  0.95723093979E+01  0.00000000000E+00 0.  1.
          2   -1    0    0  501    0  0.00000000000E+00 -0.00000000000E+00 -0.73653075125E+03  0.73653075125E+03  0.00000000000E+00 0. -1.
         24    1    1    2    0    0 -0.19116741602E+02  0.94307224154E+00 -0.42888854287E+03  0.43678248288E+03  0.80419002446E+02 0. -1.
        -24    1    1    2    0    0  0.19116741602E+02 -0.94307224154E+00 -0.29806989898E+03  0.30932057777E+03  0.80419002446E+02 0.  1.
<mgrwt>
<rscale>  0 0.82665320E+02</rscale>
<asrwt>0</asrwt>
<pdfrwt beam="1">  1        2 0.11331248E+00 0.82665320E+02</pdfrwt>
<pdfrwt beam="2">  1       -2 0.14726623E-02 0.82665320E+02</pdfrwt>
<totfact> 0.42305543E+04</totfact>
</mgrwt>
</event>
<event>
 4    1  0.4844629E-001  0.8827343E+02  0.7546771E-02  0.1307088E+00
          1   -1    0    0  501    0  0.00000000000E+00  0.00000000000E+00  0.97965107180E+03  0.97965107180E+03  0.00000000000E+00 0. -1.
         -1   -1    0    0    0  501 -0.00000000000E+00 -0.00000000000E+00 -0.29441346854E+02  0.29441346854E+02  0.00000000000E+00 0.  1.
         24    1    1    2    0    0 -0.17772258707E+02  0.31766807999E+02  0.44069457094E+02  0.98662638688E+02  0.80419002446E+02 0.  1.
        -24    1    1    2    0    0  0.17772258707E+02 -0.31766807999E+02  0.90614026785E+03  0.91042977997E+03  0.80419002446E+02 0. -1.
<mgrwt>
<rscale>  0 0.88273434E+02</rscale>
<asrwt>0</asrwt>
<pdfrwt beam="1">  1        1 0.15071552E+00 0.88273434E+02</pdfrwt>
<pdfrwt beam="2">  1       -1 0.45294387E-02 0.88273434E+02</pdfrwt>
<totfact> 0.32761630E+03</totfact>
</mgrwt>
</event>
<event>
 4    1  0.4844629E-001  0.8094012E+02  0.7546771E-02  0.1326404E+00
          2   -1    0    0  501    0  0.00000000000E+00  0.00000000000E+00  0.19106830687E+04  0.19106830687E+04  0.00000000000E+00 0. -1.
         -2   -1    0    0    0  501 -0.00000000000E+00 -0.00000000000E+00 -0.82996199289E+01  0.82996199289E+01  0.00000000000E+00 0.  1.
         24    1    1    2    0    0 -0.56486132521E+01 -0.72235731553E+01  0.16862370158E+04  0.16881784788E+04  0.80419002446E+02 0. -1.
        -24    1    1    2    0    0  0.56486132521E+01  0.72235731553E+01  0.21614643304E+03  0.23080420990E+03  0.80419002446E+02 0.  1.
<mgrwt>
<rscale>  0 0.80940119E+02</rscale>
<asrwt>0</asrwt>
<pdfrwt beam="1">  1        2 0.29395089E+00 0.80940119E+02</pdfrwt>
<pdfrwt beam="2">  1       -2 0.12768661E-02 0.80940119E+02</pdfrwt>
<totfact> 0.11823642E+04</totfact>
</mgrwt>
</event>
<event>
 4    1  0.4844629E-001  0.1098939E+03  0.7546771E-02  0.1260767E+00
         -3   -1    0    0    0  501 -0.00000000000E+00  0.00000000000E+00  0.47841792024E+03  0.47841792024E+03  0.00000000000E+00 0.  1.
          3   -1    0    0  501    0  0.00000000000E+00 -0.00000000000E+00 -0.29668643846E+02  0.29668643846E+02  0.00000000000E+00 0. -1.
         24    1    1    2    0    0  0.73229570876E+02  0.15712224834E+02  0.32249328812E+03  0.34070306852E+03  0.80419002446E+02 0.  1.
        -24    1    1    2    0    0 -0.73229570876E+02 -0.15712224834E+02  0.12625598827E+03  0.16738349557E+03  0.80419002446E+02 0. -1.
<mgrwt>
<rscale>  0 0.10989386E+03</rscale>
<asrwt>0</asrwt>
<pdfrwt beam="1">  1        3 0.45644071E-02 0.10989386E+03</pdfrwt>
<pdfrwt beam="2">  1       -3 0.73602752E-01 0.10989386E+03</pdfrwt>
<totfact> 0.10481196E+03</totfact>
</mgrwt>
</event>
<event>
 4    1  0.4844629E-001  0.8866023E+02  0.7546771E-02  0.1306129E+00
          4   -1    0    0  501    0  0.00000000000E+00  0.00000000000E+00  0.46873560183E+02  0.46873560183E+02  0.00000000000E+00 0. -1.
         -4   -1    0    0    0  501 -0.00000000000E+00 -0.00000000000E+00 -0.19452104362E+03  0.19452104362E+03  0.00000000000E+00 0.  1.
         24    1    1    2    0    0 -0.10936603968E+02  0.35690487125E+02 -0.29004711994E+02  0.93284025695E+02  0.80419002446E+02 0.  0.
        -24    1    1    2    0    0  0.10936603968E+02 -0.35690487125E+02 -0.11864277144E+03  0.14811057811E+03  0.80419002446E+02 0.  0.
<mgrwt>
<rscale>  0 0.88660229E+02</rscale>
<asrwt>0</asrwt>
<pdfrwt beam="1">  1        4 0.72113168E-02 0.88660229E+02</pdfrwt>
<pdfrwt beam="2">  1       -4 0.29926315E-01 0.88660229E+02</pdfrwt>
<totfact> 0.20726947E+03</totfact>
</mgrwt>
</event>
<event>
 4    1  0.4844629E-001  0.1249758E+03  0.7546771E-02  0.1235107E+00
          1   -1    0    0  501    0  0.00000000000E+00  0.00000000000E+00  0.87331479885E+03  0.87331479885E+03  0.00000000000E+00 0. -1.
         -1   -1    0    0    0  501 -0.00000000000E+00 -0.00000000000E+00 -0.34507100254E+02  0.34507100254E+02  0.00000000000E+00 0.  1.
         24    1    1    2    0    0  0.88686329798E+02  0.35867485415E+02  0.10436542405E+03  0.16282229361E+03  0.80419002446E+02 0.  1.
        -24    1    1    2    0    0 -0.88686329798E+02 -0.35867485415E+02  0.73444227454E+03  0.74499960550E+03  0.80419002446E+02 0. -1.
<mgrwt>
<rscale>  0 0.12497583E+03</rscale>
<asrwt>0</asrwt>
<pdfrwt beam="1">  1        1 0.13435611E+00 0.12497583E+03</pdfrwt>
<pdfrwt beam="2">  1       -1 0.53087853E-02 0.12497583E+03</pdfrwt>
<totfact> 0.31563727E+03</totfact>
</mgrwt>
</event>
<event>
 4    1  0.4844629E-001  0.1663258E+03  0.7546771E-02  0.1181735E+00
         -2   -1    0    0    0  501 -0.00000000000E+00  0.00000000000E+00  0.13489374794E+02  0.13489374794E+02  0.00000000000E+00 0.  1.
          2   -1    0    0  501    0  0.00000000000E+00 -0.00000000000E+00 -0.20515277759E+04  0.20515277759E+04  0.00000000000E+00 0. -1.
         24    1    1    2    0    0 -0.10632749858E+03 -0.99456100817E+02 -0.10382079410E+04  0.10514466214E+04  0.80419002446E+02 0. -1.
        -24    1    1    2    0    0  0.10632749858E+03  0.99456100817E+02 -0.99983046003E+03  0.10135705292E+04  0.80419002446E+02 0.  1.
<mgrwt>
<rscale>  0 0.16632579E+03</rscale>
<asrwt>0</asrwt>
<pdfrwt beam="1">  1        2 0.31561948E+00 0.16632579E+03</pdfrwt>
<pdfrwt beam="2">  1       -2 0.20752896E-02 0.16632579E+03</pdfrwt>
<totfact> 0.50908446E+03</totfact>
</mgrwt>
</event>
<event>
 4    1  0.4844629E-001  0.8543132E+02  0.7546771E-02  0.1314308E+00
         -2   -1    0    0    0  501 -0.00000000000E+00  0.00000000000E+00  0.52111184182E+01  0.52111184182E+01  0.00000000000E+00 0.  1.
          2   -1    0    0  501    0  0.00000000000E+00 -0.00000000000E+00 -0.15577509627E+04  0.15577509627E+04  0.00000000000E+00 0. -1.
         24    1    1    2    0    0 -0.16515504456E+02 -0.23633284326E+02 -0.10245125371E+04  0.10280683094E+04  0.80419002446E+02 0. -1.
        -24    1    1    2    0    0  0.16515504456E+02  0.23633284326E+02 -0.52802730715E+03  0.53489377176E+03  0.80419002446E+02 0.  1.
<mgrwt>
<rscale>  0 0.85431317E+02</rscale>
<asrwt>0</asrwt>
<pdfrwt beam="1">  1        2 0.23965449E+00 0.85431317E+02</pdfrwt>
<pdfrwt beam="2">  1       -2 0.80170888E-03 0.85431317E+02</pdfrwt>
<totfact> 0.34400328E+04</totfact>
</mgrwt>
</event>
<event>
 4    1  0.4844629E-001  0.9586580E+02  0.7546771E-02  0.1289238E+00
         -1   -1    0    0    0  501 -0.00000000000E+00  0.00000000000E+00  0.22920668702E+03  0.22920668702E+03  0.00000000000E+00 0.  1.
          1   -1    0    0  501    0  0.00000000000E+00 -0.00000000000E+00 -0.49455521648E+02  0.49455521648E+02  0.00000000000E+00 0. -1.
         24    1    1    2    0    0 -0.44717146261E+02 -0.26896328237E+02  0.15048910318E+03  0.17842987915E+03  0.80419002446E+02 0.  1.
        -24    1    1    2    0    0  0.44717146261E+02  0.26896328237E+02  0.29262062189E+02  0.10023232952E+03  0.80419002446E+02 0. -1.
<mgrwt>
<rscale>  0 0.95865800E+02</rscale>
<asrwt>0</asrwt>
<pdfrwt beam="1">  1        1 0.76085419E-02 0.95865800E+02</pdfrwt>
<pdfrwt beam="2">  1       -1 0.35262567E-01 0.95865800E+02</pdfrwt>
<totfact> 0.66265802E+03</totfact>
</mgrwt>
</event>
<event>
 4    1  0.4844629E-001  0.8759747E+02  0.7546771E-02  0.1308776E+00
          2   -1    0    0  501    0  0.00000000000E+00  0.00000000000E+00  0.15266227366E+04  0.15266227366E+04  0.00000000000E+00 0. -1.
         -2   -1    0    0    0  501 -0.00000000000E+00 -0.00000000000E+00 -0.14504710438E+02  0.14504710438E+02  0.00000000000E+00 0.  1.
         24    1    1    2    0    0  0.21001819839E+02  0.27659080877E+02  0.13789628179E+04  0.13817422952E+04  0.80419002446E+02 0. -1.
        -24    1    1    2    0    0 -0.21001819839E+02 -0.27659080877E+02  0.13315520829E+03  0.15938515188E+03  0.80419002446E+02 0.  1.
<mgrwt>
<rscale>  0 0.87597472E+02</rscale>
<asrwt>0</asrwt>
<pdfrwt beam="1">  1        2 0.23486491E+00 0.87597472E+02</pdfrwt>
<pdfrwt beam="2">  1       -2 0.22314951E-02 0.87597472E+02</pdfrwt>
<totfact> 0.83353439E+03</totfact>
</mgrwt>
</event>
<event>
 4    1  0.4844629E-001  0.9109262E+02  0.7546771E-02  0.1300227E+00
         -3   -1    0    0    0  501 -0.00000000000E+00  0.00000000000E+00  0.13520811041E+03  0.13520811041E+03  0.00000000000E+00 0.  1.
          3   -1    0    0  501    0  0.00000000000E+00 -0.00000000000E+00 -0.66344982991E+02  0.66344982991E+02  0.00000000000E+00 0. -1.
         24    1    1    2    0    0 -0.41313513363E+02  0.11128452369E+02  0.62024952638E+02  0.11020417207E+03  0.80419002446E+02 0.  1.
        -24    1    1    2    0    0  0.41313513363E+02 -0.11128452369E+02  0.68381747802E+01  0.91348921325E+02  0.80419002446E+02 0. -1.
<mgrwt>
<rscale>  0 0.91092617E+02</rscale>
<asrwt>0</asrwt>
<pdfrwt beam="1">  1        3 0.10206921E-01 0.91092617E+02</pdfrwt>
<pdfrwt beam="2">  1       -3 0.20801248E-01 0.91092617E+02</pdfrwt>
<totfact> 0.31462778E+03</totfact>
</mgrwt>
</event>
<event>
 4    1  0.4844629E-001  0.8485740E+02  0.7546771E-02  0.1315806E+00
          4   -1    0    0  501    0  0.00000000000E+00  0.00000000000E+00  0.11268198458E+03  0.11268198458E+03  0.00000000000E+00 0. -1.
         -4   -1    0    0    0  501 -0.00000000000E+00 -0.00000000000E+00 -0.71546493127E+02  0.71546493127E+02  0.00000000000E+00 0.  1.
         24    1    1    2    0    0 -0.15246819138E+02  0.22385182132E+02  0.50674446097E+02  0.98836619299E+02  0.80419002446E+02 0. -1.
        -24    1    1    2    0    0  0.15246819138E+02 -0.22385182132E+02 -0.95389546406E+01  0.85391858411E+02  0.80419002446E+02 0.  1.
<mgrwt>
<rscale>  0 0.84857397E+02</rscale>
<asrwt>0</asrwt>
<pdfrwt beam="1">  1        4 0.17335690E-01 0.84857397E+02</pdfrwt>
<pdfrwt beam="2">  1       -4 0.11007153E-01 0.84857397E+02</pdfrwt>
<totfact> 0.27324565E+03</totfact>
</mgrwt>
</event>
<event>
 4    1  0.4844629E-001  0.8087383E+02  0.7546771E-02  0.1326590E+00
         -1   -1    0    0    0  501 -0.00000000000E+00  0.00000000000E+00  0.22103231599E+02  0.22103231599E+02  0.00000000000E+00 0.  1.
          1   -1    0    0  501    0  0.00000000000E+00 -0.00000000000E+00 -0.30098014428E+03  0.30098014428E+03  0.00000000000E+00 0. -1.
         24    1    1    2    0    0 -0.34261725971E+01  0.78497161398E+01 -0.16040444759E+03  0.17963896978E+03  0.80419002446E+02 0.  0.
        -24    1    1    2    0    0  0.34261725971E+01 -0.78497161398E+01 -0.11847246509E+03  0.14344440610E+03  0.80419002446E+02 0.  0.
<mgrwt>
<rscale>  0 0.80873817E+02</rscale>
<asrwt>0</asrwt>
<pdfrwt beam="1">  1        1 0.46304636E-01 0.80873827E+02</pdfrwt>
<pdfrwt beam="2">  1       -1 0.34004973E-02 0.80873827E+02</pdfrwt>
<totfact> 0.24048690E+04</totfact>
</mgrwt>
</event>
<event>
 4    1  0.4844629E-001  0.9810319E+02  0.7546771E-02  0.1284336E+00
          1   -1    0    0  501    0  0.00000000000E+00  0.00000000000E+00  0.11395133089E+03  0.11395133089E+03  0.00000000000E+00 0. -1.
         -1   -1    0    0    0  501 -0.00000000000E+00 -0.00000000000E+00 -0.84900478690E+02  0.84900478690E+02  0.00000000000E+00 0.  1.
         24    1    1    2    0    0 -0.25777053900E+02  0.49925529708E+02  0.21693992962E+02  0.10047318204E+03  0.80419002446E+02 0.  0.
        -24    1    1    2    0    0  0.25777053900E+02 -0.49925529708E+02  0.73568592388E+01  0.98378627540E+02  0.80419002446E+02 0.  0.
<mgrwt>
<rscale>  0 0.98103177E+02</rscale>
<asrwt>0</asrwt>
<pdfrwt beam="1">  1        1 0.17530974E-01 0.98103190E+02</pdfrwt>
<pdfrwt beam="2">  1       -1 0.13061612E-01 0.98103190E+02</pdfrwt>
<totfact> 0.11070042E+04</totfact>
</mgrwt>
</event>
<event>
 4    1  0.4844629E-001  0.1089321E+03  0.7546771E-02  0.1262560E+00
         -2   -1    0    0    0  501 -0.00000000000E+00  0.00000000000E+00  0.26900123489E+02  0.26900123489E+02  0.00000000000E+00 0.  1.
          2   -1    0    0  501    0  0.00000000000E+00 -0.00000000000E+00 -0.44112668060E+03  0.44112668060E+03  0.00000000000E+00 0. -1.
         24    1    1    2    0    0 -0.40255677808E+02  0.61469204245E+02 -0.20624447213E+03  0.23324446597E+03  0.80419002446E+02 0. -1.
        -24    1    1    2    0    0  0.40255677808E+02 -0.61469204245E+02 -0.20798208498E+03  0.23478233812E+03  0.80419002446E+02 0.  0.
<mgrwt>
<rscale>  0 0.10893210E+03</rscale>
<asrwt>0</asrwt>
<pdfrwt beam="1">  1        2 0.67865645E-01 0.10893211E+03</pdfrwt>
<pdfrwt beam="2">  1       -2 0.41384804E-02 0.10893211E+03</pdfrwt>
<totfact> 0.17265606E+04</totfact>
</mgrwt>
</event>
<event>
 4    1  0.4844629E-001  0.8760705E+02  0.7546771E-02  0.1308752E+00
          1   -1    0    0  501    0  0.00000000000E+00  0.00000000000E+00  0.18463418785E+03  0.18463418785E+03  0.00000000000E+00 0. -1.
         -1   -1    0    0    0  501 -0.00000000000E+00 -0.00000000000E+00 -0.42430404169E+02  0.42430404169E+02  0.00000000000E+00 0.  1.
         24    1    1    2    0    0  0.22196301303E+02 -0.26741433715E+02  0.54922221069E+02  0.10339945063E+03  0.80419002446E+02 0.  0.
        -24    1    1    2    0    0 -0.22196301303E+02  0.26741433715E+02  0.87281562614E+02  0.12366514139E+03  0.80419002446E+02 0.  1.
<mgrwt>
<rscale>  0 0.87607055E+02</rscale>
<asrwt>0</asrwt>
<pdfrwt beam="1">  1        1 0.28405259E-01 0.87607055E+02</pdfrwt>
<pdfrwt beam="2">  1       -1 0.65277546E-02 0.87607055E+02</pdfrwt>
<totfact> 0.17020667E+04</totfact>
</mgrwt>
</event>
<event>
 4    1  0.4844629E-001  0.8241303E+02  0.7546771E-02  0.1322340E+00
         -2   -1    0    0    0  501 -0.00000000000E+00  0.00000000000E+00  0.10968787360E+03  0.10968787360E+03  0.00000000000E+00 0.  1.
          2   -1    0    0  501    0  0.00000000000E+00 -0.00000000000E+00 -0.86574937612E+02  0.86574937612E+02  0.00000000000E+00 0. -1.
         24    1    1    2    0    0 -0.14230095776E+00  0.18018632139E+02 -0.40810946930E+02  0.91964344707E+02  0.80419002446E+02 0. -1.
        -24    1    1    2    0    0  0.14230095776E+00 -0.18018632139E+02  0.63923882918E+02  0.10429846651E+03  0.80419002446E+02 0.  1.
<mgrwt>
<rscale>  0 0.82413029E+02</rscale>
<asrwt>0</asrwt>
<pdfrwt beam="1">  1        2 0.13319221E-01 0.82413029E+02</pdfrwt>
<pdfrwt beam="2">  1       -2 0.16875057E-01 0.82413029E+02</pdfrwt>
<totfact> 0.11282005E+04</totfact>
</mgrwt>
</event>
<event>
 4    1  0.4844629E-001  0.9248884E+02  0.7546771E-02  0.1296934E+00
          2   -1    0    0  501    0  0.00000000000E+00  0.00000000000E+00  0.22311501227E+03  0.22311501227E+03  0.00000000000E+00 0. -1.
         -2   -1    0    0    0  501 -0.00000000000E+00 -0.00000000000E+00 -0.38359408697E+02  0.38359408697E+02  0.00000000000E+00 0.  1.
         24    1    1    2    0    0 -0.37392292121E+02  0.26244641005E+02  0.89420463378E+02  0.12864758030E+03  0.80419002446E+02 0.  0.
        -24    1    1    2    0    0  0.37392292121E+02 -0.26244641005E+02  0.95335140193E+02  0.13282684067E+03  0.80419002446E+02 0.  1.
<mgrwt>
<rscale>  0 0.92488825E+02</rscale>
<asrwt>0</asrwt>
<pdfrwt beam="1">  1        2 0.34325386E-01 0.92488837E+02</pdfrwt>
<pdfrwt beam="2">  1       -2 0.59014476E-02 0.92488837E+02</pdfrwt>
<totfact> 0.20538316E+04</totfact>
</mgrwt>
</event>
<event>
 4    1  0.4844629E-001  0.8046476E+02  0.7546771E-02  0.1327738E+00
          1   -1    0    0  501    0  0.00000000000E+00  0.00000000000E+00  0.19818230066E+04  0.19818230066E+04  0.00000000000E+00 0. -1.
         -1   -1    0    0    0  501 -0.00000000000E+00 -0.00000000000E+00 -0.45736624809E+01  0.45736624809E+01  0.00000000000E+00 0.  1.
         24    1    1    2    0    0  0.13280544072E+01  0.23659176407E+01  0.45775383722E+03  0.46477215142E+03  0.80419002446E+02 0.  0.
        -24    1    1    2    0    0 -0.13280544072E+01 -0.23659176407E+01  0.15194955069E+04  0.15216245176E+04  0.80419002446E+02 0. -1.
<mgrwt>
<rscale>  0 0.80464758E+02</rscale>
<asrwt>0</asrwt>
<pdfrwt beam="1">  1        1 0.30489516E+00 0.80464758E+02</pdfrwt>
<pdfrwt beam="2">  1       -1 0.70364196E-03 0.80464758E+02</pdfrwt>
<totfact> 0.10320821E+04</totfact>
</mgrwt>
</event>
<event>
 4    1  0.4844629E-001  0.1102624E+03  0.7546771E-02  0.1260085E+00
          1   -1    0    0  501    0  0.00000000000E+00  0.00000000000E+00  0.55036778261E+03  0.55036778261E+03  0.00000000000E+00 0. -1.
         -1   -1    0    0    0  501 -0.00000000000E+00 -0.00000000000E+00 -0.78359922087E+02  0.78359922087E+02  0.00000000000E+00 0.  1.
         24    1    1    2    0    0  0.25486635312E+02 -0.71000137302E+02 -0.30388881127E+02  0.11437345901E+03  0.80419002446E+02 0.  1.
        -24    1    1    2    0    0 -0.25486635312E+02  0.71000137302E+02  0.50239674165E+03  0.51435424568E+03  0.80419002446E+02 0. -1.
<mgrwt>
<rscale>  0 0.11026243E+03</rscale>
<asrwt>0</asrwt>
<pdfrwt beam="1">  1        1 0.84671964E-01 0.11026243E+03</pdfrwt>
<pdfrwt beam="2">  1       -1 0.12055373E-01 0.11026243E+03</pdfrwt>
<totfact> 0.17680273E+03</totfact>
</mgrwt>
</event>
<event>
 4    1  0.4844629E-001  0.9320372E+02  0.7546771E-02  0.1295274E+00
          2   -1    0    0  501    0  0.00000000000E+00  0.00000000000E+00  0.72147812870E+03  0.72147812870E+03  0.00000000000E+00 0. -1.
         -2   -1    0    0    0  501 -0.00000000000E+00 -0.00000000000E+00 -0.20915270649E+02  0.20915270649E+02  0.00000000000E+00 0.  1.
         24    1    1    2    0    0 -0.45682160624E+02  0.11526417088E+02  0.59207888286E+03  0.59936995051E+03  0.80419002446E+02 0. -1.
        -24    1    1    2    0    0  0.45682160624E+02 -0.11526417088E+02  0.10848397519E+03  0.14302344884E+03  0.80419002446E+02 0.  1.
<mgrwt>
<rscale>  0 0.93203723E+02</rscale>
<asrwt>0</asrwt>
<pdfrwt beam="1">  1        2 0.11099662E+00 0.93203723E+02</pdfrwt>
<pdfrwt beam="2">  1       -2 0.32177345E-02 0.93203723E+02</pdfrwt>
<totfact> 0.14247708E+04</totfact>
</mgrwt>
</event>
<event>
 4    1  0.4844629E-001  0.8936440E+02  0.7546771E-02  0.1304398E+00
         -2   -1    0    0    0  501 -0.00000000000E+00  0.00000000000E+00  0.34093276525E+01  0.34093276525E+01  0.00000000000E+00 0.  1.
          2   -1    0    0  501    0  0.00000000000E+00 -0.00000000000E+00 -0.23497025547E+04  0.23497025547E+04  0.00000000000E+00 0. -1.
         24    1    1    2    0    0  0.12094751092E+02  0.37047166582E+02 -0.11075325629E+04  0.11111320216E+04  0.80419002446E+02 0. -1.
        -24    1    1    2    0    0 -0.12094751092E+02 -0.37047166582E+02 -0.12387606641E+04  0.12419798607E+04  0.80419002446E+02 0.  0.
<mgrwt>
<rscale>  0 0.89364386E+02</rscale>
<asrwt>0</asrwt>
<pdfrwt beam="1">  1        2 0.36149198E+00 0.89364397E+02</pdfrwt>
<pdfrwt beam="2">  1       -2 0.52451299E-03 0.89364397E+02</pdfrwt>
<totfact> 0.24973553E+04</totfact>
</mgrwt>
</event>
<event>
 4    1  0.4844629E-001  0.8402332E+02  0.7546771E-02  0.1318007E+00
          2   -1    0    0  501    0  0.00000000000E+00  0.00000000000E+00  0.19469860335E+04  0.19469860335E+04  0.00000000000E+00 0. -1.
         -2   -1    0    0    0  501 -0.00000000000E+00 -0.00000000000E+00 -0.51264749976E+01  0.51264749976E+01  0.00000000000E+00 0.  1.
         24    1    1    2    0    0  0.38748703544E+01 -0.24035123036E+02  0.14989723412E+04  0.15013254136E+04  0.80419002446E+02 0.  0.
        -24    1    1    2    0    0 -0.38748703544E+01  0.24035123036E+02  0.44288721731E+03  0.45078709495E+03  0.80419002446E+02 0.  1.
<mgrwt>
<rscale>  0 0.84023316E+02</rscale>
<asrwt>0</asrwt>
<pdfrwt beam="1">  1        2 0.29953572E+00 0.84023316E+02</pdfrwt>
<pdfrwt beam="2">  1       -2 0.78869002E-03 0.84023316E+02</pdfrwt>
<totfact> 0.22437922E+04</totfact>
</mgrwt>
</event>
<event>
 4    1  0.4844629E-001  0.8202854E+02  0.7546771E-02  0.1323391E+00
         -1   -1    0    0    0  501 -0.00000000000E+00  0.00000000000E+00  0.84748504879E+01  0.84748504879E+01  0.00000000000E+00 0.  1.
          1   -1    0    0  501    0  0.00000000000E+00 -0.00000000000E+00 -0.88374945658E+03  0.88374945658E+03  0.00000000000E+00 0. -1.
         24    1    1    2    0    0  0.31781583665E+01 -0.15854508748E+02 -0.29543878917E+03  0.30661500328E+03  0.80419002446E+02 0.  1.
        -24    1    1    2    0    0 -0.31781583665E+01  0.15854508748E+02 -0.57983581692E+03  0.58560930378E+03  0.80419002446E+02 0.  0.
<mgrwt>
<rscale>  0 0.82028544E+02</rscale>
<asrwt>0</asrwt>
<pdfrwt beam="1">  1        1 0.13596148E+00 0.82028544E+02</pdfrwt>
<pdfrwt beam="2">  1       -1 0.13038229E-02 0.82028544E+02</pdfrwt>
<totfact> 0.22832823E+04</totfact>
</mgrwt>
</event>
<event>
 4    1  0.4844629E-001  0.1189061E+03  0.7546771E-02  0.1244913E+00
         -2   -1    0    0    0  501 -0.00000000000E+00  0.00000000000E+00  0.21716746416E+02  0.21716746416E+02  0.00000000000E+00 0.  1.
          2   -1    0    0  501    0  0.00000000000E+00 -0.00000000000E+00 -0.75903729760E+03  0.75903729760E+03  0.00000000000E+00 0. -1.
         24    1    1    2    0    0  0.42482974530E+02  0.76593987852E+02 -0.51590568872E+03  0.52943114539E+03  0.80419002446E+02 0. -1.
        -24    1    1    2    0    0 -0.42482974530E+02 -0.76593987852E+02 -0.22141486246E+03  0.25132289863E+03  0.80419002446E+02 0.  1.
<mgrwt>
<rscale>  0 0.11890609E+03</rscale>
<asrwt>0</asrwt>
<pdfrwt beam="1">  1        2 0.11677497E+00 0.11890609E+03</pdfrwt>
<pdfrwt beam="2">  1       -2 0.33410378E-02 0.11890609E+03</pdfrwt>
<totfact> 0.12930187E+04</totfact>
</mgrwt>
</event>
<event>
 4    1  0.4844629E-001  0.8552881E+02  0.7546771E-02  0.1314055E+00
          2   -1    0    0  501    0  0.00000000000E+00  0.00000000000E+00  0.20681912504E+02  0.20681912504E+02  0.00000000000E+00 0. -1.
         -2   -1    0    0    0  501 -0.00000000000E+00 -0.00000000000E+00 -0.35452695484E+03  0.35452695484E+03  0.00000000000E+00 0.  1.
         24    1    1    2    0    0 -0.25874626169E+02  0.13359110920E+02 -0.15785806425E+03  0.17953926180E+03  0.80419002446E+02 0.  0.
        -24    1    1    2    0    0  0.25874626169E+02 -0.13359110920E+02 -0.17598697809E+03  0.19566960555E+03  0.80419002446E+02 0.  1.
<mgrwt>
<rscale>  0 0.85528814E+02</rscale>
<asrwt>0</asrwt>
<pdfrwt beam="1">  1        2 0.31818325E-02 0.85528814E+02</pdfrwt>
<pdfrwt beam="2">  1       -2 0.54542612E-01 0.85528814E+02</pdfrwt>
<totfact> 0.83343238E+03</totfact>
</mgrwt>
</event>
<event>
 4    1  0.4844629E-001  0.9004449E+02  0.7546771E-02  0.1302744E+00
          2   -1    0    0  501    0  0.00000000000E+00  0.00000000000E+00  0.89922416794E+02  0.89922416794E+02  0.00000000000E+00 0. -1.
         -2   -1    0    0    0  501 -0.00000000000E+00 -0.00000000000E+00 -0.13604572871E+03  0.13604572871E+03  0.00000000000E+00 0.  1.
         24    1    1    2    0    0  0.39300958989E+02 -0.98096082407E+01  0.42550115517E+02  0.99591777151E+02  0.80419002446E+02 0. -1.
        -24    1    1    2    0    0 -0.39300958989E+02  0.98096082407E+01 -0.88673427433E+02  0.12637636835E+03  0.80419002446E+02 0.  1.
<mgrwt>
<rscale>  0 0.90044488E+02</rscale>
<asrwt>0</asrwt>
<pdfrwt beam="1">  1        2 0.13834218E-01 0.90044488E+02</pdfrwt>
<pdfrwt beam="2">  1       -2 0.20930112E-01 0.90044488E+02</pdfrwt>
<totfact> 0.76132602E+03</totfact>
</mgrwt>
</event>
<event>
 4    1  0.4844629E-001  0.9021044E+02  0.7546771E-02  0.1302343E+00
          1   -1    0    0  501    0  0.00000000000E+00  0.00000000000E+00  0.12031416202E+03  0.12031416202E+03  0.00000000000E+00 0. -1.
         -1   -1    0    0    0  501 -0.00000000000E+00 -0.00000000000E+00 -0.67870830528E+02  0.67870830528E+02  0.00000000000E+00 0.  1.
         24    1    1    2    0    0  0.36994148536E+02 -0.17382084809E+02  0.31721816988E+02  0.95625276604E+02  0.80419002446E+02 0.  0.
        -24    1    1    2    0    0 -0.36994148536E+02  0.17382084809E+02  0.20721514507E+02  0.92559715946E+02  0.80419002446E+02 0. -1.
<mgrwt>
<rscale>  0 0.90210431E+02</rscale>
<asrwt>0</asrwt>
<pdfrwt beam="1">  1        1 0.18509871E-01 0.90210442E+02</pdfrwt>
<pdfrwt beam="2">  1       -1 0.10441666E-01 0.90210442E+02</pdfrwt>
<totfact> 0.14422607E+04</totfact>
</mgrwt>
</event>
<event>
 4    1  0.4844629E-001  0.9177574E+02  0.7546771E-02  0.1298608E+00
          2   -1    0    0  501    0  0.00000000000E+00  0.00000000000E+00  0.32096359445E+03  0.32096359445E+03  0.00000000000E+00 0. -1.
         -2   -1    0    0    0  501 -0.00000000000E+00 -0.00000000000E+00 -0.26960399353E+02  0.26960399353E+02  0.00000000000E+00 0.  1.
         24    1    1    2    0    0 -0.92537471128E+01  0.43242786231E+02  0.17539503383E+03  0.19795505612E+03  0.80419002446E+02 0.  1.
        -24    1    1    2    0    0  0.92537471128E+01 -0.43242786231E+02  0.11860816127E+03  0.14996893768E+03  0.80419002446E+02 0. -1.
<mgrwt>
<rscale>  0 0.91775739E+02</rscale>
<asrwt>0</asrwt>
<pdfrwt beam="1">  1        2 0.49379012E-01 0.91775739E+02</pdfrwt>
<pdfrwt beam="2">  1       -2 0.41477540E-02 0.91775739E+02</pdfrwt>
<totfact> 0.23659112E+04</totfact>
</mgrwt>
</event>
<event>
 4    1  0.4844629E-001  0.8112271E+02  0.7546771E-02  0.1325895E+00
          1   -1    0    0  501    0  0.00000000000E+00  0.00000000000E+00  0.10612068491E+04  0.10612068491E+04  0.00000000000E+00 0. -1.
         -1   -1    0    0    0  501 -0.00000000000E+00 -0.00000000000E+00 -0.70949808764E+01  0.70949808764E+01  0.00000000000E+00 0.  1.
         24    1    1    2    0    0  0.31922575778E+00 -0.10657179367E+02  0.33748470406E+03  0.34709770787E+03  0.80419002446E+02 0.  0.
        -24    1    1    2    0    0 -0.31922575778E+00  0.10657179367E+02  0.71662716415E+03  0.72120412210E+03  0.80419002446E+02 0. -1.
<mgrwt>
<rscale>  0 0.81122705E+02</rscale>
<asrwt>0</asrwt>
<pdfrwt beam="1">  1        1 0.16326247E+00 0.81122705E+02</pdfrwt>
<pdfrwt beam="2">  1       -1 0.10915364E-02 0.81122705E+02</pdfrwt>
<totfact> 0.21773833E+04</totfact>
</mgrwt>
</event>
<event>
 4    1  0.4844629E-001  0.9121000E+02  0.7546771E-02  0.1299948E+00
         -2   -1    0    0    0  501 -0.00000000000E+00  0.00000000000E+00  0.76021654083E+01  0.76021654083E+01  0.00000000000E+00 0.  1.
          2   -1    0    0  501    0  0.00000000000E+00 -0.00000000000E+00 -0.11877702826E+04  0.11877702826E+04  0.00000000000E+00 0. -1.
         24    1    1    2    0    0 -0.10598259192E+02  0.41710013528E+02 -0.75772426357E+03  0.76319415870E+03  0.80419002446E+02 0. -1.
        -24    1    1    2    0    0  0.10598259192E+02 -0.41710013528E+02 -0.42244385360E+03  0.43217828928E+03  0.80419002446E+02 0. -1.
<mgrwt>
<rscale>  0 0.91210001E+02</rscale>
<asrwt>0</asrwt>
<pdfrwt beam="1">  1        2 0.18273382E+00 0.91210001E+02</pdfrwt>
<pdfrwt beam="2">  1       -2 0.11695644E-02 0.91210001E+02</pdfrwt>
<totfact> 0.31653698E+04</totfact>
</mgrwt>
</event>
<event>
 4    1  0.4844629E-001  0.1011593E+03  0.7546771E-02  0.1277877E+00
         -1   -1    0    0    0  501 -0.00000000000E+00  0.00000000000E+00  0.11355412926E+04  0.11355412926E+04  0.00000000000E+00 0.  1.
          1   -1    0    0  501    0  0.00000000000E+00 -0.00000000000E+00 -0.14458497884E+02  0.14458497884E+02  0.00000000000E+00 0. -1.
         24    1    1    2    0    0  0.55963858311E+02  0.25180137211E+02  0.91346037210E+03  0.91904464533E+03  0.80419002446E+02 0.  1.
        -24    1    1    2    0    0 -0.55963858311E+02 -0.25180137211E+02  0.20762242257E+03  0.23095514512E+03  0.80419002446E+02 0. -1.
<mgrwt>
<rscale>  0 0.10115932E+03</rscale>
<asrwt>0</asrwt>
<pdfrwt beam="1">  1        1 0.22243852E-02 0.10115932E+03</pdfrwt>
<pdfrwt beam="2">  1       -1 0.17469859E+00 0.10115932E+03</pdfrwt>
<totfact> 0.12507457E+03</totfact>
</mgrwt>
</event>
<event>
 4    1  0.4844629E-001  0.9361978E+02  0.7546771E-02  0.1294315E+00
          1   -1    0    0  501    0  0.00000000000E+00  0.00000000000E+00  0.12615663586E+02  0.12615663586E+02  0.00000000000E+00 0. -1.
         -1   -1    0    0    0  501 -0.00000000000E+00 -0.00000000000E+00 -0.79326218338E+03  0.79326218338E+03  0.00000000000E+00 0.  1.
         24    1    1    2    0    0  0.28176001423E+02  0.38775772518E+02 -0.53232309086E+03  0.54049286453E+03  0.80419002446E+02 0.  1.
        -24    1    1    2    0    0 -0.28176001423E+02 -0.38775772518E+02 -0.24832342893E+03  0.26538498243E+03  0.80419002446E+02 0. -1.
<mgrwt>
<rscale>  0 0.93619782E+02</rscale>
<asrwt>0</asrwt>
<pdfrwt beam="1">  1        1 0.19408708E-02 0.93619782E+02</pdfrwt>
<pdfrwt beam="2">  1       -1 0.12204037E+00 0.93619782E+02</pdfrwt>
<totfact> 0.37419868E+03</totfact>
</mgrwt>
</event>
<event>
 4    1  0.4844629E-001  0.8896866E+02  0.7546771E-02  0.1305369E+00
          1   -1    0    0  501    0  0.00000000000E+00  0.00000000000E+00  0.29085618037E+03  0.29085618037E+03  0.00000000000E+00 0. -1.
         -1   -1    0    0    0  501 -0.00000000000E+00 -0.00000000000E+00 -0.44624555514E+02  0.44624555514E+02  0.00000000000E+00 0.  1.
         24    1    1    2    0    0 -0.36041543769E+02  0.12215304155E+02  0.18341630580E+02  0.90839627363E+02  0.80419002446E+02 0.  1.
        -24    1    1    2    0    0  0.36041543769E+02 -0.12215304155E+02  0.22788999427E+03  0.24464110852E+03  0.80419002446E+02 0. -1.
<mgrwt>
<rscale>  0 0.88968660E+02</rscale>
<asrwt>0</asrwt>
<pdfrwt beam="1">  1        1 0.44747103E-01 0.88968660E+02</pdfrwt>
<pdfrwt beam="2">  1       -1 0.68653164E-02 0.88968660E+02</pdfrwt>
<totfact> 0.90807511E+03</totfact>
</mgrwt>
</event>
<event>
 4    1  0.4844629E-001  0.9640523E+02  0.7546771E-02  0.1288042E+00
          4   -1    0    0  501    0  0.00000000000E+00  0.00000000000E+00  0.38756674660E+02  0.38756674660E+02  0.00000000000E+00 0. -1.
         -4   -1    0    0    0  501 -0.00000000000E+00 -0.00000000000E+00 -0.75073968593E+03  0.75073968593E+03  0.00000000000E+00 0.  1.
         24    1    1    2    0    0 -0.50685843742E+02 -0.16052985294E+02 -0.30335592137E+02  0.10106541049E+03  0.80419002446E+02 0.  0.
        -24    1    1    2    0    0  0.50685843742E+02  0.16052985294E+02 -0.68164741914E+03  0.68843095010E+03  0.80419002446E+02 0.  0.
<mgrwt>
<rscale>  0 0.96405234E+02</rscale>
<asrwt>0</asrwt>
<pdfrwt beam="1">  1        4 0.59625655E-02 0.96405234E+02</pdfrwt>
<pdfrwt beam="2">  1       -4 0.11549841E+00 0.96405234E+02</pdfrwt>
<totfact> 0.17148739E+02</totfact>
</mgrwt>
</event>
<event>
 4    1  0.4844629E-001  0.9914905E+02  0.7546771E-02  0.1282096E+00
         -1   -1    0    0    0  501 -0.00000000000E+00  0.00000000000E+00  0.59859832848E+03  0.59859832848E+03  0.00000000000E+00 0.  1.
          1   -1    0    0  501    0  0.00000000000E+00 -0.00000000000E+00 -0.17289355254E+02  0.17289355254E+02  0.00000000000E+00 0. -1.
         24    1    1    2    0    0 -0.11273163283E+02 -0.56887857199E+02  0.22170427937E+03  0.24286481004E+03  0.80419002446E+02 0.  1.
        -24    1    1    2    0    0  0.11273163283E+02  0.56887857199E+02  0.35960469385E+03  0.37302287369E+03  0.80419002446E+02 0. -1.
<mgrwt>
<rscale>  0 0.99149034E+02</rscale>
<asrwt>0</asrwt>
<pdfrwt beam="1">  1        1 0.26599013E-02 0.99149046E+02</pdfrwt>
<pdfrwt beam="2">  1       -1 0.92092035E-01 0.99149046E+02</pdfrwt>
<totfact> 0.45583453E+03</totfact>
</mgrwt>
</event>
<event>
 4    1  0.4844629E-001  0.8629396E+02  0.7546771E-02  0.1312083E+00
          2   -1    0    0  501    0  0.00000000000E+00  0.00000000000E+00  0.25906167001E+03  0.25906167001E+03  0.00000000000E+00 0. -1.
         -2   -1    0    0    0  501 -0.00000000000E+00 -0.00000000000E+00 -0.22246369563E+03  0.22246369563E+03  0.00000000000E+00 0.  1.
         24    1    1    2    0    0 -0.27820130373E+02 -0.14334261893E+02  0.24296931498E+03  0.25783858264E+03  0.80419002446E+02 0. -1.
        -24    1    1    2    0    0  0.27820130373E+02  0.14334261893E+02 -0.20637134060E+03  0.22368678301E+03  0.80419002446E+02 0.  1.
<mgrwt>
<rscale>  0 0.86293955E+02</rscale>
<asrwt>0</asrwt>
<pdfrwt beam="1">  1        2 0.39855642E-01 0.86293955E+02</pdfrwt>
<pdfrwt beam="2">  1       -2 0.34225184E-01 0.86293955E+02</pdfrwt>
<totfact> 0.10036673E+03</totfact>
</mgrwt>
</event>
<event>
 4    1  0.4844629E-001  0.1264481E+03  0.7546771E-02  0.1232823E+00
         -2   -1    0    0    0  501 -0.00000000000E+00  0.00000000000E+00  0.20411274726E+02  0.20411274726E+02  0.00000000000E+00 0.  1.
          2   -1    0    0  501    0  0.00000000000E+00 -0.00000000000E+00 -0.89185837850E+03  0.89185837850E+03  0.00000000000E+00 0. -1.
         24    1    1    2    0    0  0.92192026075E+02  0.31977130838E+02 -0.59482780072E+03  0.60811942497E+03  0.80419002446E+02 0. -1.
        -24    1    1    2    0    0 -0.92192026075E+02 -0.31977130838E+02 -0.27661930306E+03  0.30415022826E+03  0.80419002446E+02 0.  1.
<mgrwt>
<rscale>  0 0.12644810E+03</rscale>
<asrwt>0</asrwt>
<pdfrwt beam="1">  1        2 0.13720897E+00 0.12644810E+03</pdfrwt>
<pdfrwt beam="2">  1       -2 0.31401964E-02 0.12644810E+03</pdfrwt>
<totfact> 0.11621174E+04</totfact>
</mgrwt>
</event>
<event>
 4    1  0.4844629E-001  0.9662696E+02  0.7546771E-02  0.1287553E+00
         -4   -1    0    0    0  501 -0.00000000000E+00  0.00000000000E+00  0.15132664478E+03  0.15132664478E+03  0.00000000000E+00 0.  1.
          4   -1    0    0  501    0  0.00000000000E+00 -0.00000000000E+00 -0.16812832275E+03  0.16812832275E+03  0.00000000000E+00 0. -1.
         24    1    1    2    0    0  0.10920841891E+02 -0.52443194259E+02 -0.13548427829E+03  0.16641141496E+03  0.80419002446E+02 0. -1.
        -24    1    1    2    0    0 -0.10920841891E+02  0.52443194259E+02  0.11868260032E+03  0.15304355258E+03  0.80419002446E+02 0.  1.
<mgrwt>
<rscale>  0 0.96626960E+02</rscale>
<asrwt>0</asrwt>
<pdfrwt beam="1">  1        4 0.25865896E-01 0.96626960E+02</pdfrwt>
<pdfrwt beam="2">  1       -4 0.23281022E-01 0.96626960E+02</pdfrwt>
<totfact> 0.37259097E+02</totfact>
</mgrwt>
</event>
<event>
 4    1  0.4844629E-001  0.8366441E+02  0.7546771E-02  0.1318963E+00
          2   -1    0    0  501    0  0.00000000000E+00  0.00000000000E+00  0.43599377436E+02  0.43599377436E+02  0.00000000000E+00 0. -1.
         -2   -1    0    0    0  501 -0.00000000000E+00 -0.00000000000E+00 -0.18044942951E+03  0.18044942951E+03  0.00000000000E+00 0.  1.
         24    1    1    2    0    0 -0.69879991560E-01  0.23076154009E+02 -0.10562929859E+03  0.13474894597E+03  0.80419002446E+02 0.  0.
        -24    1    1    2    0    0  0.69879991560E-01 -0.23076154009E+02 -0.31220753491E+02  0.89299860974E+02  0.80419002446E+02 0.  0.
<mgrwt>
<rscale>  0 0.83664398E+02</rscale>
<asrwt>0</asrwt>
<pdfrwt beam="1">  1        2 0.67075965E-02 0.83664408E+02</pdfrwt>
<pdfrwt beam="2">  1       -2 0.27761451E-01 0.83664408E+02</pdfrwt>
<totfact> 0.11197992E+04</totfact>
</mgrwt>
</event>
<event>
 4    1  0.4844629E-001  0.8461941E+02  0.7546771E-02  0.1316431E+00
         -2   -1    0    0    0  501 -0.00000000000E+00  0.00000000000E+00  0.15518303483E+02  0.15518303483E+02  0.00000000000E+00 0.  1.
          2   -1    0    0  501    0  0.00000000000E+00 -0.00000000000E+00 -0.11303117019E+04  0.11303117019E+04  0.00000000000E+00 0. -1.
         24    1    1    2    0    0 -0.14831790531E+02  0.21754235740E+02 -0.99812324986E+03  0.10017037819E+04  0.80419002446E+02 0. -1.
        -24    1    1    2    0    0  0.14831790531E+02 -0.21754235740E+02 -0.11667014861E+03  0.14412622355E+03  0.80419002446E+02 0.  1.
<mgrwt>
<rscale>  0 0.84619411E+02</rscale>
<asrwt>0</asrwt>
<pdfrwt beam="1">  1        2 0.17389415E+00 0.84619411E+02</pdfrwt>
<pdfrwt beam="2">  1       -2 0.23874307E-02 0.84619411E+02</pdfrwt>
<totfact> 0.12202280E+04</totfact>
</mgrwt>
</event>
<event>
 4    1  0.4844629E-001  0.8080004E+02  0.7546771E-02  0.1326796E+00
         -2   -1    0    0    0  501 -0.00000000000E+00  0.00000000000E+00  0.13475386747E+03  0.13475386747E+03  0.00000000000E+00 0.  1.
          2   -1    0    0  501    0  0.00000000000E+00 -0.00000000000E+00 -0.22952189659E+03  0.22952189659E+03  0.00000000000E+00 0. -1.
         24    1    1    2    0    0  0.26609013875E+00  0.78332139094E+01 -0.20916047806E+03  0.22422477914E+03  0.80419002446E+02 0. -1.
        -24    1    1    2    0    0 -0.26609013875E+00 -0.78332139094E+01  0.11439244895E+03  0.14005098491E+03  0.80419002446E+02 0.  0.
<mgrwt>
<rscale>  0 0.80800037E+02</rscale>
<asrwt>0</asrwt>
<pdfrwt beam="1">  1        2 0.35311061E-01 0.80800037E+02</pdfrwt>
<pdfrwt beam="2">  1       -2 0.20731364E-01 0.80800037E+02</pdfrwt>
<totfact> 0.27269553E+03</totfact>
</mgrwt>
</event>
<event>
 4    1  0.4844629E-001  0.8324688E+02  0.7546771E-02  0.1320082E+00
         -3   -1    0    0    0  501 -0.00000000000E+00  0.00000000000E+00  0.26957320266E+02  0.26957320266E+02  0.00000000000E+00 0.  1.
          3   -1    0    0  501    0  0.00000000000E+00 -0.00000000000E+00 -0.27971894636E+03  0.27971894636E+03  0.00000000000E+00 0. -1.
         24    1    1    2    0    0 -0.15396465652E+01  0.21458186549E+02 -0.17000927146E+03  0.18929657318E+03  0.80419002446E+02 0.  1.
        -24    1    1    2    0    0  0.15396465652E+01 -0.21458186549E+02 -0.82752354641E+02  0.11737969345E+03  0.80419002446E+02 0.  0.
<mgrwt>
<rscale>  0 0.83246874E+02</rscale>
<asrwt>0</asrwt>
<pdfrwt beam="1">  1        3 0.43033684E-01 0.83246884E+02</pdfrwt>
<pdfrwt beam="2">  1       -3 0.41472800E-02 0.83246884E+02</pdfrwt>
<totfact> 0.34105835E+03</totfact>
</mgrwt>
</event>
<event>
 4    1  0.4844629E-001  0.9861719E+02  0.7546771E-02  0.1283231E+00
         -2   -1    0    0    0  501 -0.00000000000E+00  0.00000000000E+00  0.10975598809E+03  0.10975598809E+03  0.00000000000E+00 0.  1.
          2   -1    0    0  501    0  0.00000000000E+00 -0.00000000000E+00 -0.91594321078E+02  0.91594321078E+02  0.00000000000E+00 0. -1.
         24    1    1    2    0    0  0.56241510175E+02 -0.97481244162E+01 -0.90950757149E+01  0.99035699387E+02  0.80419002446E+02 0.  1.
        -24    1    1    2    0    0 -0.56241510175E+02  0.97481244162E+01  0.27256742728E+02  0.10231460978E+03  0.80419002446E+02 0. -1.
<mgrwt>
<rscale>  0 0.98617186E+02</rscale>
<asrwt>0</asrwt>
<pdfrwt beam="1">  1        2 0.14091434E-01 0.98617186E+02</pdfrwt>
<pdfrwt beam="2">  1       -2 0.16885537E-01 0.98617186E+02</pdfrwt>
<totfact> 0.10739620E+04</totfact>
</mgrwt>
</event>
<event>
 4    1  0.4844629E-001  0.8276572E+02  0.7546771E-02  0.1321381E+00
          2   -1    0    0  501    0  0.00000000000E+00  0.00000000000E+00  0.11784308897E+03  0.11784308897E+03  0.00000000000E+00 0. -1.
         -2   -1    0    0    0  501 -0.00000000000E+00 -0.00000000000E+00 -0.60508006625E+02  0.60508006625E+02  0.00000000000E+00 0.  1.
         24    1    1    2    0    0 -0.18923204482E+02  0.49857207062E+01  0.10987200798E+02  0.83491793696E+02  0.80419002446E+02 0.  1.
        -24    1    1    2    0    0  0.18923204482E+02 -0.49857207062E+01  0.46347881551E+02  0.94859301903E+02  0.80419002446E+02 0. -1.
<mgrwt>
<rscale>  0 0.82765710E+02</rscale>
<asrwt>0</asrwt>
<pdfrwt beam="1">  1        2 0.18129706E-01 0.82765720E+02</pdfrwt>
<pdfrwt beam="2">  1       -2 0.93089241E-02 0.82765720E+02</pdfrwt>
<totfact> 0.20342903E+04</totfact>
</mgrwt>
</event>
<event>
 4    1  0.4844629E-001  0.9158240E+02  0.7546771E-02  0.1299064E+00
         -1   -1    0    0    0  501 -0.00000000000E+00  0.00000000000E+00  0.12333679934E+03  0.12333679934E+03  0.00000000000E+00 0.  1.
          1   -1    0    0  501    0  0.00000000000E+00 -0.00000000000E+00 -0.13647456936E+03  0.13647456936E+03  0.00000000000E+00 0. -1.
         24    1    1    2    0    0  0.14786837628E+02 -0.41248881681E+02  0.85445509785E+02  0.12525283192E+03  0.80419002446E+02 0.  1.
        -24    1    1    2    0    0 -0.14786837628E+02  0.41248881681E+02 -0.98583279809E+02  0.13455853678E+03  0.80419002446E+02 0. -1.
<mgrwt>
<rscale>  0 0.91582404E+02</rscale>
<asrwt>0</asrwt>
<pdfrwt beam="1">  1        1 0.20996088E-01 0.91582404E+02</pdfrwt>
<pdfrwt beam="2">  1       -1 0.18974892E-01 0.91582404E+02</pdfrwt>
<totfact> 0.49002962E+03</totfact>
</mgrwt>
</event>
<event>
 4    1  0.4844629E-001  0.8753924E+02  0.7546771E-02  0.1308923E+00
         -4   -1    0    0    0  501 -0.00000000000E+00  0.00000000000E+00  0.36523472300E+02  0.36523472300E+02  0.00000000000E+00 0.  1.
          4   -1    0    0  501    0  0.00000000000E+00 -0.00000000000E+00 -0.21216492496E+03  0.21216492496E+03  0.00000000000E+00 0. -1.
         24    1    1    2    0    0  0.72788215908E+01  0.33807116651E+02 -0.10091110853E+03  0.13358955857E+03  0.80419002446E+02 0. -1.
        -24    1    1    2    0    0 -0.72788215908E+01 -0.33807116651E+02 -0.74730344134E+02  0.11509883869E+03  0.80419002446E+02 0.  1.
<mgrwt>
<rscale>  0 0.87539239E+02</rscale>
<asrwt>0</asrwt>
<pdfrwt beam="1">  1        4 0.32640757E-01 0.87539239E+02</pdfrwt>
<pdfrwt beam="2">  1       -4 0.56189958E-02 0.87539239E+02</pdfrwt>
<totfact> 0.26250956E+03</totfact>
</mgrwt>
</event>
<event>
 4    1  0.4844629E-001  0.9151107E+02  0.7546771E-02  0.1299233E+00
         -1   -1    0    0    0  501 -0.00000000000E+00  0.00000000000E+00  0.14214864640E+03  0.14214864640E+03  0.00000000000E+00 0.  1.
          1   -1    0    0  501    0  0.00000000000E+00 -0.00000000000E+00 -0.81310924362E+02  0.81310924362E+02  0.00000000000E+00 0. -1.
         24    1    1    2    0    0  0.30057130056E+02 -0.31680092520E+02  0.89060638639E+02  0.12769523342E+03  0.80419002446E+02 0.  1.
        -24    1    1    2    0    0 -0.30057130056E+02  0.31680092520E+02 -0.28222916605E+02  0.95764337336E+02  0.80419002446E+02 0. -1.
<mgrwt>
<rscale>  0 0.91511066E+02</rscale>
<asrwt>0</asrwt>
<pdfrwt beam="1">  1        1 0.12509373E-01 0.91511066E+02</pdfrwt>
<pdfrwt beam="2">  1       -1 0.21869022E-01 0.91511066E+02</pdfrwt>
<totfact> 0.75560713E+03</totfact>
</mgrwt>
</event>
<event>
 4    1  0.4844629E-001  0.8469236E+02  0.7546771E-02  0.1316239E+00
          2   -1    0    0  501    0  0.00000000000E+00  0.00000000000E+00  0.64707761070E+03  0.64707761070E+03  0.00000000000E+00 0. -1.
         -2   -1    0    0    0  501 -0.00000000000E+00 -0.00000000000E+00 -0.17075093091E+02  0.17075093091E+02  0.00000000000E+00 0.  1.
         24    1    1    2    0    0 -0.33879014341E+01  0.26345813279E+02  0.51168865655E+03  0.51865024530E+03  0.80419002446E+02 0. -1.
        -24    1    1    2    0    0  0.33879014341E+01 -0.26345813279E+02  0.11831386105E+03  0.14550245849E+03  0.80419002446E+02 0.  1.
<mgrwt>
<rscale>  0 0.84692359E+02</rscale>
<asrwt>0</asrwt>
<pdfrwt beam="1">  1        2 0.99550383E-01 0.84692359E+02</pdfrwt>
<pdfrwt beam="2">  1       -2 0.26269379E-02 0.84692359E+02</pdfrwt>
<totfact> 0.21504931E+04</totfact>
</mgrwt>
</event>
<event>
 4    1  0.4844629E-001  0.8054480E+02  0.7546771E-02  0.1327512E+00
         -2   -1    0    0    0  501 -0.00000000000E+00  0.00000000000E+00  0.75298942636E+01  0.75298942636E+01  0.00000000000E+00 0.  1.
          2   -1    0    0  501    0  0.00000000000E+00 -0.00000000000E+00 -0.86640869981E+03  0.86640869981E+03  0.00000000000E+00 0. -1.
         24    1    1    2    0    0  0.40208771660E+01 -0.20203129750E+01 -0.46212424790E+03  0.46909091397E+03  0.80419002446E+02 0.  0.
        -24    1    1    2    0    0 -0.40208771660E+01  0.20203129750E+01 -0.39675455765E+03  0.40484768010E+03  0.80419002446E+02 0.  1.
<mgrwt>
<rscale>  0 0.80544802E+02</rscale>
<asrwt>0</asrwt>
<pdfrwt beam="1">  1        2 0.13329362E+00 0.80544802E+02</pdfrwt>
<pdfrwt beam="2">  1       -2 0.11584455E-02 0.80544802E+02</pdfrwt>
<totfact> 0.48656664E+04</totfact>
</mgrwt>
</event>
<event>
 4    1  0.4844629E-001  0.9887275E+02  0.7546771E-02  0.1282684E+00
          2   -1    0    0  501    0  0.00000000000E+00  0.00000000000E+00  0.86303497814E+03  0.86303497814E+03  0.00000000000E+00 0. -1.
         -2   -1    0    0    0  501 -0.00000000000E+00 -0.00000000000E+00 -0.11533566670E+02  0.11533566670E+02  0.00000000000E+00 0.  1.
         24    1    1    2    0    0  0.41697491944E+02  0.39622258515E+02  0.48423515687E+03  0.49422617019E+03  0.80419002446E+02 0.  0.
        -24    1    1    2    0    0 -0.41697491944E+02 -0.39622258515E+02  0.36726625461E+03  0.38034237462E+03  0.80419002446E+02 0.  1.
<mgrwt>
<rscale>  0 0.98872747E+02</rscale>
<asrwt>0</asrwt>
<pdfrwt beam="1">  1        2 0.13277456E+00 0.98872747E+02</pdfrwt>
<pdfrwt beam="2">  1       -2 0.17743956E-02 0.98872747E+02</pdfrwt>
<totfact> 0.27223360E+04</totfact>
</mgrwt>
</event>
<event>
 4    1  0.4844629E-001  0.8843534E+02  0.7546771E-02  0.1306686E+00
         -2   -1    0    0    0  501 -0.00000000000E+00  0.00000000000E+00  0.23401072925E+03  0.23401072925E+03  0.00000000000E+00 0.  1.
          2   -1    0    0  501    0  0.00000000000E+00 -0.00000000000E+00 -0.91655262480E+02  0.91655262480E+02  0.00000000000E+00 0. -1.
         24    1    1    2    0    0 -0.35616612764E+02  0.92222674885E+01 -0.58616085007E+02  0.10609738309E+03  0.80419002446E+02 0. -1.
        -24    1    1    2    0    0  0.35616612764E+02 -0.92222674885E+01  0.20097155178E+03  0.21956860864E+03  0.80419002446E+02 0.  1.
<mgrwt>
<rscale>  0 0.88435340E+02</rscale>
<asrwt>0</asrwt>
<pdfrwt beam="1">  1        2 0.14100810E-01 0.88435340E+02</pdfrwt>
<pdfrwt beam="2">  1       -2 0.36001650E-01 0.88435340E+02</pdfrwt>
<totfact> 0.28659733E+03</totfact>
</mgrwt>
</event>
<event>
 4    1  0.4844629E-001  0.9189892E+02  0.7546771E-02  0.1298317E+00
          2   -1    0    0  501    0  0.00000000000E+00  0.00000000000E+00  0.17070178470E+04  0.17070178470E+04  0.00000000000E+00 0. -1.
         -2   -1    0    0    0  501 -0.00000000000E+00 -0.00000000000E+00 -0.11332036724E+02  0.11332036724E+02  0.00000000000E+00 0.  1.
         24    1    1    2    0    0 -0.11208779074E+02 -0.43041355433E+02  0.14927445765E+04  0.14955707210E+04  0.80419002446E+02 0. -1.
        -24    1    1    2    0    0  0.11208779074E+02  0.43041355433E+02  0.20294123378E+03  0.22277916269E+03  0.80419002446E+02 0.  1.
<mgrwt>
<rscale>  0 0.91898917E+02</rscale>
<asrwt>0</asrwt>
<pdfrwt beam="1">  1        2 0.26261793E+00 0.91898917E+02</pdfrwt>
<pdfrwt beam="2">  1       -2 0.17433916E-02 0.91898917E+02</pdfrwt>
<totfact> 0.96522914E+03</totfact>
</mgrwt>
</event>
<event>
 4    1  0.4844629E-001  0.9234637E+02  0.7546771E-02  0.1297267E+00
          2   -1    0    0  501    0  0.00000000000E+00  0.00000000000E+00  0.16311407116E+04  0.16311407116E+04  0.00000000000E+00 0. -1.
         -2   -1    0    0    0  501 -0.00000000000E+00 -0.00000000000E+00 -0.57056800075E+01  0.57056800075E+01  0.00000000000E+00 0.  1.
         24    1    1    2    0    0  0.23419541469E+02  0.38886515792E+02  0.10494858032E+04  0.10535408407E+04  0.80419002446E+02 0. -1.
        -24    1    1    2    0    0 -0.23419541469E+02 -0.38886515792E+02  0.57594922838E+03  0.58330555086E+03  0.80419002446E+02 0.  0.
<mgrwt>
<rscale>  0 0.92346370E+02</rscale>
<asrwt>0</asrwt>
<pdfrwt beam="1">  1        2 0.25094435E+00 0.92346370E+02</pdfrwt>
<pdfrwt beam="2">  1       -2 0.87779822E-03 0.92346370E+02</pdfrwt>
<totfact> 0.27969824E+04</totfact>
</mgrwt>
</event>
<event>
 4    1  0.4844629E-001  0.8323472E+02  0.7546771E-02  0.1320115E+00
         -3   -1    0    0    0  501 -0.00000000000E+00  0.00000000000E+00  0.31828883755E+02  0.31828883755E+02  0.00000000000E+00 0.  1.
          3   -1    0    0  501    0  0.00000000000E+00 -0.00000000000E+00 -0.29268829834E+03  0.29268829834E+03  0.00000000000E+00 0. -1.
         24    1    1    2    0    0  0.22911274728E+01 -0.21343712615E+02 -0.48280300109E+02  0.96223732344E+02  0.80419002446E+02 0.  1.
        -24    1    1    2    0    0 -0.22911274728E+01  0.21343712615E+02 -0.21257911448E+03  0.22829344976E+03  0.80419002446E+02 0. -1.
<mgrwt>
<rscale>  0 0.83234724E+02</rscale>
<asrwt>0</asrwt>
<pdfrwt beam="1">  1        3 0.45028969E-01 0.83234724E+02</pdfrwt>
<pdfrwt beam="2">  1       -3 0.48967514E-02 0.83234724E+02</pdfrwt>
<totfact> 0.24128504E+03</totfact>
</mgrwt>
</event>
<event>
 4    1  0.4844629E-001  0.8657799E+02  0.7546771E-02  0.1311357E+00
         -2   -1    0    0    0  501 -0.00000000000E+00  0.00000000000E+00  0.30981094983E+02  0.30981094983E+02  0.00000000000E+00 0.  1.
          2   -1    0    0  501    0  0.00000000000E+00 -0.00000000000E+00 -0.25328698453E+03  0.25328698453E+03  0.00000000000E+00 0. -1.
         24    1    1    2    0    0  0.29950228718E+02 -0.11468016722E+02 -0.14122892488E+03  0.16565432921E+03  0.80419002446E+02 0. -1.
        -24    1    1    2    0    0 -0.29950228718E+02  0.11468016722E+02 -0.81076964665E+02  0.11861375030E+03  0.80419002446E+02 0.  1.
<mgrwt>
<rscale>  0 0.86577985E+02</rscale>
<asrwt>0</asrwt>
<pdfrwt beam="1">  1        2 0.38967227E-01 0.86577985E+02</pdfrwt>
<pdfrwt beam="2">  1       -2 0.47663225E-02 0.86577985E+02</pdfrwt>
<totfact> 0.24519098E+04</totfact>
</mgrwt>
</event>
<event>
 4    1  0.4844629E-001  0.8827070E+02  0.7546771E-02  0.1307094E+00
         -3   -1    0    0    0  501 -0.00000000000E+00  0.00000000000E+00  0.38716999941E+03  0.38716999941E+03  0.00000000000E+00 0.  1.
          3   -1    0    0  501    0  0.00000000000E+00 -0.00000000000E+00 -0.20336528891E+02  0.20336528891E+02  0.00000000000E+00 0. -1.
         24    1    1    2    0    0 -0.18958690628E+02 -0.31065562879E+02  0.20420703410E+03  0.22246849187E+03  0.80419002446E+02 0.  1.
        -24    1    1    2    0    0  0.18958690628E+02  0.31065562879E+02  0.16262643642E+03  0.18503803642E+03  0.80419002446E+02 0.  0.
<mgrwt>
<rscale>  0 0.88270704E+02</rscale>
<asrwt>0</asrwt>
<pdfrwt beam="1">  1        3 0.31286970E-02 0.88270704E+02</pdfrwt>
<pdfrwt beam="2">  1       -3 0.59564610E-01 0.88270704E+02</pdfrwt>
<totfact> 0.28015524E+03</totfact>
</mgrwt>
</event>
<event>
 4    1  0.4844629E-001  0.8130822E+02  0.7546771E-02  0.1325379E+00
          2   -1    0    0  501    0  0.00000000000E+00  0.00000000000E+00  0.31482125379E+02  0.31482125379E+02  0.00000000000E+00 0. -1.
         -2   -1    0    0    0  501 -0.00000000000E+00 -0.00000000000E+00 -0.27927238008E+03  0.27927238008E+03  0.00000000000E+00 0.  1.
         24    1    1    2    0    0 -0.13093854244E+01  0.11920408944E+02 -0.46506814627E+02  0.93669153945E+02  0.80419002446E+02 0.  0.
        -24    1    1    2    0    0  0.13093854244E+01 -0.11920408944E+02 -0.20128344007E+03  0.21708535151E+03  0.80419002446E+02 0.  1.
<mgrwt>
<rscale>  0 0.81308220E+02</rscale>
<asrwt>0</asrwt>
<pdfrwt beam="1">  1        2 0.48434039E-02 0.81308220E+02</pdfrwt>
<pdfrwt beam="2">  1       -2 0.42964982E-01 0.81308220E+02</pdfrwt>
<totfact> 0.76191644E+03</totfact>
</mgrwt>
</event>
<event>
 4    1  0.4844629E-001  0.9066625E+02  0.7546771E-02  0.1301246E+00
          1   -1    0    0  501    0  0.00000000000E+00  0.00000000000E+00  0.29469484535E+04  0.29469484535E+04  0.00000000000E+00 0. -1.
         -1   -1    0    0    0  501 -0.00000000000E+00 -0.00000000000E+00 -0.49341093282E+01  0.49341093282E+01  0.00000000000E+00 0.  1.
         24    1    1    2    0    0 -0.10700076842E+02  0.40480377963E+02  0.49793793560E+03  0.50612504019E+03  0.80419002446E+02 0.  1.
        -24    1    1    2    0    0  0.10700076842E+02 -0.40480377963E+02  0.24440764086E+04  0.24457575226E+04  0.80419002446E+02 0. -1.
<mgrwt>
<rscale>  0 0.90666248E+02</rscale>
<asrwt>0</asrwt>
<pdfrwt beam="1">  1        1 0.45337528E+00 0.90666248E+02</pdfrwt>
<pdfrwt beam="2">  1       -1 0.75909610E-03 0.90666248E+02</pdfrwt>
<totfact> 0.22277922E+03</totfact>
</mgrwt>
</event>
<event>
 4    1  0.4844629E-001  0.8762728E+02  0.7546771E-02  0.1308701E+00
         -2   -1    0    0    0  501 -0.00000000000E+00  0.00000000000E+00  0.12124295701E+03  0.12124295701E+03  0.00000000000E+00 0.  1.
          2   -1    0    0  501    0  0.00000000000E+00 -0.00000000000E+00 -0.65549604935E+02  0.65549604935E+02  0.00000000000E+00 0. -1.
         24    1    1    2    0    0 -0.34194220972E+02 -0.64868515853E+01  0.10667513675E+02  0.88274207976E+02  0.80419002446E+02 0. -1.
        -24    1    1    2    0    0  0.34194220972E+02  0.64868515853E+01  0.45025838404E+02  0.98518353974E+02  0.80419002446E+02 0.  1.
<mgrwt>
<rscale>  0 0.87627279E+02</rscale>
<asrwt>0</asrwt>
<pdfrwt beam="1">  1        2 0.10084555E-01 0.87627279E+02</pdfrwt>
<pdfrwt beam="2">  1       -2 0.18652763E-01 0.87627279E+02</pdfrwt>
<totfact> 0.13404990E+04</totfact>
</mgrwt>
</event>
<event>
 4    1  0.4844629E-001  0.1083697E+03  0.7546771E-02  0.1263619E+00
          1   -1    0    0  501    0  0.00000000000E+00  0.00000000000E+00  0.19449485334E+04  0.19449485334E+04  0.00000000000E+00 0. -1.
         -1   -1    0    0    0  501 -0.00000000000E+00 -0.00000000000E+00 -0.12105947470E+02  0.12105947470E+02  0.00000000000E+00 0.  1.
         24    1    1    2    0    0  0.50025552108E+02 -0.52670766772E+02  0.27365396000E+03  0.29433054771E+03  0.80419002446E+02 0.  1.
        -24    1    1    2    0    0 -0.50025552108E+02  0.52670766772E+02  0.16591886260E+04  0.16627239332E+04  0.80419002446E+02 0. -1.
<mgrwt>
<rscale>  0 0.10836965E+03</rscale>
<asrwt>0</asrwt>
<pdfrwt beam="1">  1        1 0.29922260E+00 0.10836965E+03</pdfrwt>
<pdfrwt beam="2">  1       -1 0.18624550E-02 0.10836965E+03</pdfrwt>
<totfact> 0.27735788E+03</totfact>
</mgrwt>
</event>
<event>
 4    1  0.4844629E-001  0.8297035E+02  0.7546771E-02  0.1320827E+00
         -2   -1    0    0    0  501 -0.00000000000E+00  0.00000000000E+00  0.30498226673E+03  0.30498226673E+03  0.00000000000E+00 0.  1.
          2   -1    0    0  501    0  0.00000000000E+00 -0.00000000000E+00 -0.22720882420E+02  0.22720882420E+02  0.00000000000E+00 0. -1.
         24    1    1    2    0    0  0.98888369078E+01 -0.17862627692E+02  0.12786988869E+03  0.15242961311E+03  0.80419002446E+02 0. -1.
        -24    1    1    2    0    0 -0.98888369078E+01  0.17862627692E+02  0.15439149562E+03  0.17527353604E+03  0.80419002446E+02 0.  1.
<mgrwt>
<rscale>  0 0.82970347E+02</rscale>
<asrwt>0</asrwt>
<pdfrwt beam="1">  1        2 0.34955206E-02 0.82970347E+02</pdfrwt>
<pdfrwt beam="2">  1       -2 0.46920346E-01 0.82970347E+02</pdfrwt>
<totfact> 0.98615437E+03</totfact>
</mgrwt>
</event>
<event>
 4    1  0.4844629E-001  0.1097041E+03  0.7546771E-02  0.1261119E+00
          1   -1    0    0  501    0  0.00000000000E+00  0.00000000000E+00  0.27180973617E+03  0.27180973617E+03  0.00000000000E+00 0. -1.
         -1   -1    0    0    0  501 -0.00000000000E+00 -0.00000000000E+00 -0.46364243791E+02  0.46364243791E+02  0.00000000000E+00 0.  1.
         24    1    1    2    0    0 -0.20731195205E+02  0.71679748614E+02  0.78970338994E+02  0.13517136979E+03  0.80419002446E+02 0.  1.
        -24    1    1    2    0    0  0.20731195205E+02 -0.71679748614E+02  0.14647515339E+03  0.18300261017E+03  0.80419002446E+02 0. -1.
<mgrwt>
<rscale>  0 0.10970408E+03</rscale>
<asrwt>0</asrwt>
<pdfrwt beam="1">  1        1 0.41816882E-01 0.10970408E+03</pdfrwt>
<pdfrwt beam="2">  1       -1 0.71329607E-02 0.10970408E+03</pdfrwt>
<totfact> 0.94834187E+03</totfact>
</mgrwt>
</event>
<event>
 4    1  0.4844629E-001  0.1296280E+03  0.7546771E-02  0.1228009E+00
          1   -1    0    0  501    0  0.00000000000E+00  0.00000000000E+00  0.27030621307E+04  0.27030621307E+04  0.00000000000E+00 0. -1.
         -1   -1    0    0    0  501 -0.00000000000E+00 -0.00000000000E+00 -0.66408034636E+01  0.66408034636E+01  0.00000000000E+00 0.  1.
         24    1    1    2    0    0  0.82552595989E+01 -0.10133136411E+03  0.10057167852E+04  0.10140363221E+04  0.80419002446E+02 0.  1.
        -24    1    1    2    0    0 -0.82552595989E+01  0.10133136411E+03  0.16907045421E+04  0.16956666120E+04  0.80419002446E+02 0. -1.
<mgrwt>
<rscale>  0 0.12962797E+03</rscale>
<asrwt>0</asrwt>
<pdfrwt beam="1">  1        1 0.41585483E+00 0.12962797E+03</pdfrwt>
<pdfrwt beam="2">  1       -1 0.10216642E-02 0.12962797E+03</pdfrwt>
<totfact> 0.21286566E+03</totfact>
</mgrwt>
</event>
<event>
 4    1  0.4844629E-001  0.8069182E+02  0.7546771E-02  0.1327100E+00
         -2   -1    0    0    0  501 -0.00000000000E+00  0.00000000000E+00  0.78299606258E+02  0.78299606258E+02  0.00000000000E+00 0.  1.
          2   -1    0    0  501    0  0.00000000000E+00 -0.00000000000E+00 -0.22008297672E+03  0.22008297672E+03  0.00000000000E+00 0. -1.
         24    1    1    2    0    0  0.38754828912E+01  0.53791162015E+01 -0.18856906018E+03  0.20510841199E+03  0.80419002446E+02 0.  0.
        -24    1    1    2    0    0 -0.38754828912E+01 -0.53791162015E+01  0.46785689709E+02  0.93274170994E+02  0.80419002446E+02 0.  1.
<mgrwt>
<rscale>  0 0.80691822E+02</rscale>
<asrwt>0</asrwt>
<pdfrwt beam="1">  1        2 0.33858920E-01 0.80691822E+02</pdfrwt>
<pdfrwt beam="2">  1       -2 0.12046093E-01 0.80691822E+02</pdfrwt>
<totfact> 0.68832286E+03</totfact>
</mgrwt>
</event>
<event>
 4    1  0.4844629E-001  0.8750380E+02  0.7546771E-02  0.1309012E+00
         -2   -1    0    0    0  501 -0.00000000000E+00  0.00000000000E+00  0.12296759410E+02  0.12296759410E+02  0.00000000000E+00 0.  1.
          2   -1    0    0  501    0  0.00000000000E+00 -0.00000000000E+00 -0.84745856358E+03  0.84745856358E+03  0.00000000000E+00 0. -1.
         24    1    1    2    0    0 -0.16695707363E+02  0.30181995553E+02 -0.63897472454E+03  0.64493845757E+03  0.80419002446E+02 0.  1.
        -24    1    1    2    0    0  0.16695707363E+02 -0.30181995553E+02 -0.19618707964E+03  0.21481686542E+03  0.80419002446E+02 0. -1.
<mgrwt>
<rscale>  0 0.87503803E+02</rscale>
<asrwt>0</asrwt>
<pdfrwt beam="1">  1        2 0.13037828E+00 0.87503803E+02</pdfrwt>
<pdfrwt beam="2">  1       -2 0.18918086E-02 0.87503803E+02</pdfrwt>
<totfact> 0.25113345E+04</totfact>
</mgrwt>
</event>
<event>
 4    1  0.4844629E-001  0.1005816E+03  0.7546771E-02  0.1279078E+00
         -2   -1    0    0    0  501 -0.00000000000E+00  0.00000000000E+00  0.10032584940E+02  0.10032584940E+02  0.00000000000E+00 0.  1.
          2   -1    0    0  501    0  0.00000000000E+00 -0.00000000000E+00 -0.12390877853E+04  0.12390877853E+04  0.00000000000E+00 0. -1.
         24    1    1    2    0    0 -0.54070912429E+02 -0.26940294561E+02 -0.88402481982E+03  0.88972835240E+03  0.80419002446E+02 0. -1.
        -24    1    1    2    0    0  0.54070912429E+02  0.26940294561E+02 -0.34503038054E+03  0.35939201785E+03  0.80419002446E+02 0.  1.
<mgrwt>
<rscale>  0 0.10058160E+03</rscale>
<asrwt>0</asrwt>
<pdfrwt beam="1">  1        2 0.19062897E+00 0.10058160E+03</pdfrwt>
<pdfrwt beam="2">  1       -2 0.15434740E-02 0.10058160E+03</pdfrwt>
<totfact> 0.20157164E+04</totfact>
</mgrwt>
</event>
<event>
 4    1  0.4844629E-001  0.1034408E+03  0.7546771E-02  0.1273222E+00
          1   -1    0    0  501    0  0.00000000000E+00  0.00000000000E+00  0.38598449161E+03  0.38598449161E+03  0.00000000000E+00 0. -1.
         -1   -1    0    0    0  501 -0.00000000000E+00 -0.00000000000E+00 -0.94128554399E+02  0.94128554399E+02  0.00000000000E+00 0.  1.
         24    1    1    2    0    0 -0.94972962714E+00 -0.65052957892E+02 -0.55704499398E+02  0.11748615461E+03  0.80419002446E+02 0.  1.
        -24    1    1    2    0    0  0.94972962714E+00  0.65052957892E+02  0.34756043661E+03  0.36262689140E+03  0.80419002446E+02 0. -1.
<mgrwt>
<rscale>  0 0.10344083E+03</rscale>
<asrwt>0</asrwt>
<pdfrwt beam="1">  1        1 0.59382229E-01 0.10344083E+03</pdfrwt>
<pdfrwt beam="2">  1       -1 0.14481316E-01 0.10344083E+03</pdfrwt>
<totfact> 0.20913458E+03</totfact>
</mgrwt>
</event>
<event>
 4    1  0.4844629E-001  0.1029297E+03  0.7546771E-02  0.1274253E+00
          2   -1    0    0  501    0  0.00000000000E+00  0.00000000000E+00  0.18563869110E+04  0.18563869110E+04  0.00000000000E+00 0. -1.
         -2   -1    0    0    0  501 -0.00000000000E+00 -0.00000000000E+00 -0.65743907803E+01  0.65743907803E+01  0.00000000000E+00 0.  1.
         24    1    1    2    0    0 -0.91971299821E+00 -0.64237571740E+02  0.12632329868E+04  0.12674194674E+04  0.80419002446E+02 0. -1.
        -24    1    1    2    0    0  0.91971299821E+00  0.64237571740E+02  0.58657953344E+03  0.59554183438E+03  0.80419002446E+02 0.  1.
<mgrwt>
<rscale>  0 0.10292972E+03</rscale>
<asrwt>0</asrwt>
<pdfrwt beam="1">  1        2 0.28559757E+00 0.10292972E+03</pdfrwt>
<pdfrwt beam="2">  1       -2 0.10114462E-02 0.10292972E+03</pdfrwt>
<totfact> 0.17746549E+04</totfact>
</mgrwt>
</event>
<event>
 4    1  0.4844629E-001  0.9164638E+02  0.7546771E-02  0.1298913E+00
          1   -1    0    0  501    0  0.00000000000E+00  0.00000000000E+00  0.28957274452E+03  0.28957274452E+03  0.00000000000E+00 0. -1.
         -1   -1    0    0    0  501 -0.00000000000E+00 -0.00000000000E+00 -0.24859876848E+03  0.24859876848E+03  0.00000000000E+00 0.  1.
         24    1    1    2    0    0  0.43479786056E+02  0.64305231512E+01 -0.23241440573E+03  0.24983097359E+03  0.80419002446E+02 0.  1.
        -24    1    1    2    0    0 -0.43479786056E+02 -0.64305231512E+01  0.27338838177E+03  0.28834053940E+03  0.80419002446E+02 0. -1.
<mgrwt>
<rscale>  0 0.91646382E+02</rscale>
<asrwt>0</asrwt>
<pdfrwt beam="1">  1        1 0.44549653E-01 0.91646382E+02</pdfrwt>
<pdfrwt beam="2">  1       -1 0.38245964E-01 0.91646382E+02</pdfrwt>
<totfact> 0.61351498E+02</totfact>
</mgrwt>
</event>
<event>
 4    1  0.4844629E-001  0.1071192E+03  0.7546771E-02  0.1266000E+00
          1   -1    0    0  501    0  0.00000000000E+00  0.00000000000E+00  0.39169244844E+03  0.39169244844E+03  0.00000000000E+00 0. -1.
         -1   -1    0    0    0  501 -0.00000000000E+00 -0.00000000000E+00 -0.38265670708E+02  0.38265670708E+02  0.00000000000E+00 0.  1.
         24    1    1    2    0    0  0.24923928057E+02  0.66227702749E+02  0.72623067645E+02  0.12941652410E+03  0.80419002446E+02 0.  1.
        -24    1    1    2    0    0 -0.24923928057E+02 -0.66227702749E+02  0.28080371008E+03  0.30054159504E+03  0.80419002446E+02 0. -1.
<mgrwt>
<rscale>  0 0.10711922E+03</rscale>
<asrwt>0</asrwt>
<pdfrwt beam="1">  1        1 0.60260374E-01 0.10711922E+03</pdfrwt>
<pdfrwt beam="2">  1       -1 0.58870265E-02 0.10711922E+03</pdfrwt>
<totfact> 0.80195279E+03</totfact>
</mgrwt>
</event>
<event>
 4    1  0.4844629E-001  0.9687971E+02  0.7546771E-02  0.1286998E+00
         -2   -1    0    0    0  501 -0.00000000000E+00  0.00000000000E+00  0.49685733463E+02  0.49685733463E+02  0.00000000000E+00 0.  1.
          2   -1    0    0  501    0  0.00000000000E+00 -0.00000000000E+00 -0.19799986381E+03  0.19799986381E+03  0.00000000000E+00 0. -1.
         24    1    1    2    0    0 -0.49580936153E+02 -0.21452106777E+02 -0.10070526616E+03  0.13973986082E+03  0.80419002446E+02 0.  1.
        -24    1    1    2    0    0  0.49580936153E+02  0.21452106777E+02 -0.47608864186E+02  0.10794573645E+03  0.80419002446E+02 0. -1.
<mgrwt>
<rscale>  0 0.96879709E+02</rscale>
<asrwt>0</asrwt>
<pdfrwt beam="1">  1        2 0.30461517E-01 0.96879709E+02</pdfrwt>
<pdfrwt beam="2">  1       -2 0.76439591E-02 0.96879709E+02</pdfrwt>
<totfact> 0.15844832E+04</totfact>
</mgrwt>
</event>
<event>
 4    1  0.4844629E-001  0.8379105E+02  0.7546771E-02  0.1318625E+00
          2   -1    0    0  501    0  0.00000000000E+00  0.00000000000E+00  0.17999788483E+03  0.17999788483E+03  0.00000000000E+00 0. -1.
         -2   -1    0    0    0  501 -0.00000000000E+00 -0.00000000000E+00 -0.10637645785E+03  0.10637645785E+03  0.00000000000E+00 0.  1.
         24    1    1    2    0    0  0.21451926803E+02  0.96715806179E+01  0.15076144451E+03  0.17248174900E+03  0.80419002446E+02 0. -1.
        -24    1    1    2    0    0 -0.21451926803E+02 -0.96715806179E+01 -0.77140017533E+02  0.11389259368E+03  0.80419002446E+02 0.  1.
<mgrwt>
<rscale>  0 0.83791053E+02</rscale>
<asrwt>0</asrwt>
<pdfrwt beam="1">  1        2 0.27691982E-01 0.83791053E+02</pdfrwt>
<pdfrwt beam="2">  1       -2 0.16365609E-01 0.83791053E+02</pdfrwt>
<totfact> 0.52327317E+03</totfact>
</mgrwt>
</event>
<event>
 4    1  0.4844629E-001  0.1013564E+03  0.7546771E-02  0.1277469E+00
         -3   -1    0    0    0  501 -0.00000000000E+00  0.00000000000E+00  0.78433507695E+03  0.78433507695E+03  0.00000000000E+00 0.  1.
          3   -1    0    0  501    0  0.00000000000E+00 -0.00000000000E+00 -0.17181362937E+02  0.17181362937E+02  0.00000000000E+00 0. -1.
         24    1    1    2    0    0 -0.54929892180E+02  0.28082227684E+02  0.57895205255E+03  0.58775726255E+03  0.80419002446E+02 0.  1.
        -24    1    1    2    0    0  0.54929892180E+02 -0.28082227684E+02  0.18820166146E+03  0.21375917734E+03  0.80419002446E+02 0. -1.
<mgrwt>
<rscale>  0 0.10135640E+03</rscale>
<asrwt>0</asrwt>
<pdfrwt beam="1">  1        3 0.26432872E-02 0.10135640E+03</pdfrwt>
<pdfrwt beam="2">  1       -3 0.12066691E+00 0.10135640E+03</pdfrwt>
<totfact> 0.79845204E+02</totfact>
</mgrwt>
</event>
<event>
 4    1  0.4844629E-001  0.1389432E+03  0.7546771E-02  0.1214758E+00
         -2   -1    0    0    0  501 -0.00000000000E+00  0.00000000000E+00  0.18262979116E+02  0.18262979116E+02  0.00000000000E+00 0.  1.
          2   -1    0    0  501    0  0.00000000000E+00 -0.00000000000E+00 -0.11640164223E+04  0.11640164223E+04  0.00000000000E+00 0. -1.
         24    1    1    2    0    0  0.83918107613E+02  0.76129816165E+02 -0.39369345534E+03  0.41749221601E+03  0.80419002446E+02 0.  0.
        -24    1    1    2    0    0 -0.83918107613E+02 -0.76129816165E+02 -0.75205998780E+03  0.76478718537E+03  0.80419002446E+02 0.  1.
<mgrwt>
<rscale>  0 0.13894322E+03</rscale>
<asrwt>0</asrwt>
<pdfrwt beam="1">  1        2 0.17907951E+00 0.13894324E+03</pdfrwt>
<pdfrwt beam="2">  1       -2 0.28096881E-02 0.13894324E+03</pdfrwt>
<totfact> 0.94960142E+03</totfact>
</mgrwt>
</event>
<event>
 4    1  0.4844629E-001  0.2177900E+03  0.7546771E-02  0.1135541E+00
          2   -1    0    0  501    0  0.00000000000E+00  0.00000000000E+00  0.15211162703E+04  0.15211162703E+04  0.00000000000E+00 0. -1.
         -2   -1    0    0    0  501 -0.00000000000E+00 -0.00000000000E+00 -0.32323665261E+02  0.32323665261E+02  0.00000000000E+00 0.  1.
         24    1    1    2    0    0  0.20096162395E+03  0.24076741826E+02  0.89032626001E+03  0.91657696295E+03  0.80419002446E+02 0.  1.
        -24    1    1    2    0    0 -0.20096162395E+03 -0.24076741826E+02  0.59846634507E+03  0.63686297265E+03  0.80419002446E+02 0. -1.
<mgrwt>
<rscale>  0 0.21778999E+03</rscale>
<asrwt>0</asrwt>
<pdfrwt beam="1">  1        2 0.23401783E+00 0.21778999E+03</pdfrwt>
<pdfrwt beam="2">  1       -2 0.49728728E-02 0.21778999E+03</pdfrwt>
<totfact> 0.26242476E+03</totfact>
</mgrwt>
</event>
<event>
 4    1  0.4844629E-001  0.8169562E+02  0.7546771E-02  0.1324307E+00
         -2   -1    0    0    0  501 -0.00000000000E+00  0.00000000000E+00  0.25411847219E+02  0.25411847219E+02  0.00000000000E+00 0.  1.
          2   -1    0    0  501    0  0.00000000000E+00 -0.00000000000E+00 -0.26318853650E+03  0.26318853650E+03  0.00000000000E+00 0. -1.
         24    1    1    2    0    0 -0.12781479610E+02 -0.66024209490E+01 -0.12547452463E+03  0.14972651893E+03  0.80419002446E+02 0.  0.
        -24    1    1    2    0    0  0.12781479610E+02  0.66024209490E+01 -0.11230216465E+03  0.13887386479E+03  0.80419002446E+02 0.  1.
<mgrwt>
<rscale>  0 0.81695619E+02</rscale>
<asrwt>0</asrwt>
<pdfrwt beam="1">  1        2 0.40490546E-01 0.81695619E+02</pdfrwt>
<pdfrwt beam="2">  1       -2 0.39095148E-02 0.81695619E+02</pdfrwt>
<totfact> 0.31317113E+04</totfact>
</mgrwt>
</event>
<event>
 4    1  0.4844629E-001  0.8193718E+02  0.7546771E-02  0.1323642E+00
          2   -1    0    0  501    0  0.00000000000E+00  0.00000000000E+00  0.15709857056E+04  0.15709857056E+04  0.00000000000E+00 0. -1.
         -2   -1    0    0    0  501 -0.00000000000E+00 -0.00000000000E+00 -0.89118892401E+01  0.89118892401E+01  0.00000000000E+00 0.  1.
         24    1    1    2    0    0 -0.12724700704E+02 -0.91960559953E+01  0.13509319077E+04  0.13534144674E+04  0.80419002446E+02 0. -1.
        -24    1    1    2    0    0  0.12724700704E+02  0.91960559953E+01  0.21114190865E+03  0.22648312740E+03  0.80419002446E+02 0.  1.
<mgrwt>
<rscale>  0 0.81937180E+02</rscale>
<asrwt>0</asrwt>
<pdfrwt beam="1">  1        2 0.24168989E+00 0.81937180E+02</pdfrwt>
<pdfrwt beam="2">  1       -2 0.13710611E-02 0.81937180E+02</pdfrwt>
<totfact> 0.15815426E+04</totfact>
</mgrwt>
</event>
<event>
 4    1  0.4844629E-001  0.9914330E+02  0.7546771E-02  0.1282108E+00
         -1   -1    0    0    0  501 -0.00000000000E+00  0.00000000000E+00  0.29485783880E+03  0.29485783880E+03  0.00000000000E+00 0.  1.
          1   -1    0    0  501    0  0.00000000000E+00 -0.00000000000E+00 -0.11832238418E+04  0.11832238418E+04  0.00000000000E+00 0. -1.
         24    1    1    2    0    0 -0.17653664139E+02  0.55231561474E+02  0.28437262384E+03  0.30115972903E+03  0.80419002446E+02 0.  1.
        -24    1    1    2    0    0  0.17653664139E+02 -0.55231561474E+02 -0.11727386269E+04  0.11769219516E+04  0.80419002446E+02 0. -1.
<mgrwt>
<rscale>  0 0.99143296E+02</rscale>
<asrwt>0</asrwt>
<pdfrwt beam="1">  1        1 0.18203443E+00 0.99143296E+02</pdfrwt>
<pdfrwt beam="2">  1       -1 0.45362745E-01 0.99143296E+02</pdfrwt>
<totfact> 0.63433323E+01</totfact>
</mgrwt>
</event>
<event>
 4    1  0.4844629E-001  0.1024177E+03  0.7546771E-02  0.1275293E+00
          1   -1    0    0  501    0  0.00000000000E+00  0.00000000000E+00  0.10250380505E+03  0.10250380505E+03  0.00000000000E+00 0. -1.
         -1   -1    0    0    0  501 -0.00000000000E+00 -0.00000000000E+00 -0.19763189358E+03  0.19763189358E+03  0.00000000000E+00 0.  1.
         24    1    1    2    0    0  0.32358809723E+02  0.54544188686E+02 -0.15177329938E+03  0.18309700010E+03  0.80419002446E+02 0.  1.
        -24    1    1    2    0    0 -0.32358809723E+02 -0.54544188686E+02  0.56645210851E+02  0.11703869853E+03  0.80419002446E+02 0. -1.
<mgrwt>
<rscale>  0 0.10241766E+03</rscale>
<asrwt>0</asrwt>
<pdfrwt beam="1">  1        1 0.15769816E-01 0.10241766E+03</pdfrwt>
<pdfrwt beam="2">  1       -1 0.30404906E-01 0.10241766E+03</pdfrwt>
<totfact> 0.32997672E+03</totfact>
</mgrwt>
</event>
<event>
 4    1  0.4844629E-001  0.1277316E+03  0.7546771E-02  0.1230861E+00
         -4   -1    0    0    0  501 -0.00000000000E+00  0.00000000000E+00  0.99921230501E+01  0.99921230501E+01  0.00000000000E+00 0.  1.
          4   -1    0    0  501    0  0.00000000000E+00 -0.00000000000E+00 -0.17750694530E+04  0.17750694530E+04  0.00000000000E+00 0. -1.
         24    1    1    2    0    0  0.42509784923E+02  0.89671921019E+02 -0.11352000506E+04  0.11423635613E+04  0.80419002446E+02 0. -1.
        -24    1    1    2    0    0 -0.42509784923E+02 -0.89671921019E+02 -0.62987727935E+03  0.64269801480E+03  0.80419002446E+02 0.  1.
<mgrwt>
<rscale>  0 0.12773156E+03</rscale>
<asrwt>0</asrwt>
<pdfrwt beam="1">  1        4 0.27308717E+00 0.12773156E+03</pdfrwt>
<pdfrwt beam="2">  1       -4 0.15372522E-02 0.12773156E+03</pdfrwt>
<totfact> 0.13721543E+02</totfact>
</mgrwt>
</event>
<event>
 4    1  0.4844629E-001  0.8937471E+02  0.7546771E-02  0.1304373E+00
          3   -1    0    0  501    0  0.00000000000E+00  0.00000000000E+00  0.46148237428E+03  0.46148237428E+03  0.00000000000E+00 0. -1.
         -3   -1    0    0    0  501 -0.00000000000E+00 -0.00000000000E+00 -0.20646623956E+02  0.20646623956E+02  0.00000000000E+00 0.  1.
         24    1    1    2    0    0  0.15622163590E+02  0.35729127041E+02  0.12349600420E+03  0.15244376511E+03  0.80419002446E+02 0.  0.
        -24    1    1    2    0    0 -0.15622163590E+02 -0.35729127041E+02  0.31733974613E+03  0.32968523312E+03  0.80419002446E+02 0.  0.
<mgrwt>
<rscale>  0 0.89374708E+02</rscale>
<asrwt>0</asrwt>
<pdfrwt beam="1">  1        3 0.70997281E-01 0.89374708E+02</pdfrwt>
<pdfrwt beam="2">  1       -3 0.31764040E-02 0.89374708E+02</pdfrwt>
<totfact> 0.19104550E+03</totfact>
</mgrwt>
</event>
<event>
 4    1  0.4844629E-001  0.8199461E+02  0.7546771E-02  0.1323484E+00
         -1   -1    0    0    0  501 -0.00000000000E+00  0.00000000000E+00  0.55897071423E+02  0.55897071423E+02  0.00000000000E+00 0.  1.
          1   -1    0    0  501    0  0.00000000000E+00 -0.00000000000E+00 -0.19620575491E+03  0.19620575491E+03  0.00000000000E+00 0. -1.
         24    1    1    2    0    0 -0.15833059305E+02 -0.22834530606E+01  0.82600567094E+01  0.82409613614E+02  0.80419002446E+02 0.  0.
        -24    1    1    2    0    0  0.15833059305E+02  0.22834530606E+01 -0.14856874019E+03  0.16969321271E+03  0.80419002446E+02 0. -1.
<mgrwt>
<rscale>  0 0.81994609E+02</rscale>
<asrwt>0</asrwt>
<pdfrwt beam="1">  1        1 0.30185501E-01 0.81994609E+02</pdfrwt>
<pdfrwt beam="2">  1       -1 0.85995494E-02 0.81994609E+02</pdfrwt>
<totfact> 0.10421381E+04</totfact>
</mgrwt>
</event>
<event>
 4    1  0.4844629E-001  0.1042953E+03  0.7546771E-02  0.1271514E+00
         -2   -1    0    0    0  501 -0.00000000000E+00  0.00000000000E+00  0.20129987244E+03  0.20129987244E+03  0.00000000000E+00 0.  1.
          2   -1    0    0  501    0  0.00000000000E+00 -0.00000000000E+00 -0.46048250921E+03  0.46048250921E+03  0.00000000000E+00 0. -1.
         24    1    1    2    0    0 -0.23297245912E+02  0.62189472896E+02 -0.44046227794E+03  0.45264171974E+03  0.80419002446E+02 0. -1.
        -24    1    1    2    0    0  0.23297245912E+02 -0.62189472896E+02  0.18127964117E+03  0.20914066191E+03  0.80419002446E+02 0.  1.
<mgrwt>
<rscale>  0 0.10429529E+03</rscale>
<asrwt>0</asrwt>
<pdfrwt beam="1">  1        2 0.70843462E-01 0.10429529E+03</pdfrwt>
<pdfrwt beam="2">  1       -2 0.30969211E-01 0.10429529E+03</pdfrwt>
<totfact> 0.65923358E+02</totfact>
</mgrwt>
</event>
<event>
 4    1  0.4844629E-001  0.1068529E+03  0.7546771E-02  0.1266511E+00
         -1   -1    0    0    0  501 -0.00000000000E+00  0.00000000000E+00  0.13846946293E+03  0.13846946293E+03  0.00000000000E+00 0.  1.
          1   -1    0    0  501    0  0.00000000000E+00 -0.00000000000E+00 -0.87925139341E+02  0.87925139341E+02  0.00000000000E+00 0. -1.
         24    1    1    2    0    0  0.69765989206E+02  0.91121405708E+01  0.53505813538E+02  0.11950067946E+03  0.80419002446E+02 0.  0.
        -24    1    1    2    0    0 -0.69765989206E+02 -0.91121405708E+01 -0.29614899513E+01  0.10689392281E+03  0.80419002446E+02 0. -1.
<mgrwt>
<rscale>  0 0.10685289E+03</rscale>
<asrwt>0</asrwt>
<pdfrwt beam="1">  1        1 0.13526945E-01 0.10685289E+03</pdfrwt>
<pdfrwt beam="2">  1       -1 0.21302994E-01 0.10685289E+03</pdfrwt>
<totfact> 0.72152074E+03</totfact>
</mgrwt>
</event>
<event>
 4    1  0.4844629E-001  0.1096709E+03  0.7546771E-02  0.1261181E+00
         -2   -1    0    0    0  501 -0.00000000000E+00  0.00000000000E+00  0.31325801881E+03  0.31325801881E+03  0.00000000000E+00 0.  1.
          2   -1    0    0  501    0  0.00000000000E+00 -0.00000000000E+00 -0.53717204554E+02  0.53717204554E+02  0.00000000000E+00 0. -1.
         24    1    1    2    0    0 -0.71761111969E+02 -0.20268971000E+02  0.31775543445E+02  0.11418138855E+03  0.80419002446E+02 0. -1.
        -24    1    1    2    0    0  0.71761111969E+02  0.20268971000E+02  0.22776527081E+03  0.25279383481E+03  0.80419002446E+02 0.  1.
<mgrwt>
<rscale>  0 0.10967089E+03</rscale>
<asrwt>0</asrwt>
<pdfrwt beam="1">  1        2 0.82641855E-02 0.10967089E+03</pdfrwt>
<pdfrwt beam="2">  1       -2 0.48193540E-01 0.10967089E+03</pdfrwt>
<totfact> 0.31843090E+03</totfact>
</mgrwt>
</event>
<event>
 4    1  0.4844629E-001  0.8324315E+02  0.7546771E-02  0.1320092E+00
          2   -1    0    0  501    0  0.00000000000E+00  0.00000000000E+00  0.18134793507E+04  0.18134793507E+04  0.00000000000E+00 0. -1.
         -2   -1    0    0    0  501 -0.00000000000E+00 -0.00000000000E+00 -0.39283107625E+01  0.39283107625E+01  0.00000000000E+00 0.  1.
         24    1    1    2    0    0 -0.17193434738E+01  0.21430112942E+02  0.10549202951E+04  0.10581995326E+04  0.80419002446E+02 0. -1.
        -24    1    1    2    0    0  0.17193434738E+01 -0.21430112942E+02  0.75463074487E+03  0.75920812887E+03  0.80419002446E+02 0.  1.
<mgrwt>
<rscale>  0 0.83243149E+02</rscale>
<asrwt>0</asrwt>
<pdfrwt beam="1">  1        2 0.27899616E+00 0.83243149E+02</pdfrwt>
<pdfrwt beam="2">  1       -2 0.60435695E-03 0.83243149E+02</pdfrwt>
<totfact> 0.37990605E+04</totfact>
</mgrwt>
</event>
<event>
 4    1  0.4844629E-001  0.8643898E+02  0.7546771E-02  0.1311712E+00
         -1   -1    0    0    0  501 -0.00000000000E+00  0.00000000000E+00  0.14435674373E+04  0.14435674373E+04  0.00000000000E+00 0.  1.
          1   -1    0    0  501    0  0.00000000000E+00 -0.00000000000E+00 -0.66645814226E+01  0.66645814226E+01  0.00000000000E+00 0. -1.
         24    1    1    2    0    0  0.30953111293E+02  0.68107567282E+01  0.10611626526E+04  0.10646773562E+04  0.80419002446E+02 0.  1.
        -24    1    1    2    0    0 -0.30953111293E+02 -0.68107567282E+01  0.37574020329E+03  0.38555466257E+03  0.80419002446E+02 0. -1.
<mgrwt>
<rscale>  0 0.86438981E+02</rscale>
<asrwt>0</asrwt>
<pdfrwt beam="1">  1        1 0.10253214E-02 0.86438981E+02</pdfrwt>
<pdfrwt beam="2">  1       -1 0.22208705E+00 0.86438981E+02</pdfrwt>
<totfact> 0.17695618E+03</totfact>
</mgrwt>
</event>
<event>
 4    1  0.4844629E-001  0.8150234E+02  0.7546771E-02  0.1324841E+00
          2   -1    0    0  501    0  0.00000000000E+00  0.00000000000E+00  0.34652516995E+02  0.34652516995E+02  0.00000000000E+00 0. -1.
         -2   -1    0    0    0  501 -0.00000000000E+00 -0.00000000000E+00 -0.43756127771E+03  0.43756127771E+03  0.00000000000E+00 0.  1.
         24    1    1    2    0    0 -0.89273257546E+01  0.97835610568E+01 -0.24467597962E+02  0.85095796115E+02  0.80419002446E+02 0. -1.
        -24    1    1    2    0    0  0.89273257546E+01 -0.97835610568E+01 -0.37844116275E+03  0.38711799859E+03  0.80419002446E+02 0.  0.
<mgrwt>
<rscale>  0 0.81502338E+02</rscale>
<asrwt>0</asrwt>
<pdfrwt beam="1">  1        2 0.53311568E-02 0.81502338E+02</pdfrwt>
<pdfrwt beam="2">  1       -2 0.67317115E-01 0.81502338E+02</pdfrwt>
<totfact> 0.27587045E+03</totfact>
</mgrwt>
</event>
<event>
 4    1  0.4844629E-001  0.8865618E+02  0.7546771E-02  0.1306139E+00
         -2   -1    0    0    0  501 -0.00000000000E+00  0.00000000000E+00  0.19604436740E+02  0.19604436740E+02  0.00000000000E+00 0.  1.
          2   -1    0    0  501    0  0.00000000000E+00 -0.00000000000E+00 -0.65539570799E+03  0.65539570799E+03  0.00000000000E+00 0. -1.
         24    1    1    2    0    0 -0.35633449903E+02 -0.11088698782E+02 -0.52819626611E+03  0.53558492648E+03  0.80419002446E+02 0. -1.
        -24    1    1    2    0    0  0.35633449903E+02  0.11088698782E+02 -0.10759500514E+03  0.13941521825E+03  0.80419002446E+02 0.  1.
<mgrwt>
<rscale>  0 0.88656178E+02</rscale>
<asrwt>0</asrwt>
<pdfrwt beam="1">  1        2 0.10083009E+00 0.88656178E+02</pdfrwt>
<pdfrwt beam="2">  1       -2 0.30160676E-02 0.88656178E+02</pdfrwt>
<totfact> 0.17426186E+04</totfact>
</mgrwt>
</event>
<event>
 4    1  0.4844629E-001  0.8305923E+02  0.7546771E-02  0.1320587E+00
         -2   -1    0    0    0  501 -0.00000000000E+00  0.00000000000E+00  0.23827083042E+02  0.23827083042E+02  0.00000000000E+00 0.  1.
          2   -1    0    0  501    0  0.00000000000E+00 -0.00000000000E+00 -0.10139434361E+04  0.10139434361E+04  0.00000000000E+00 0. -1.
         24    1    1    2    0    0  0.79387248347E+01 -0.19198846372E+02 -0.93364487650E+03  0.93733216653E+03  0.80419002446E+02 0. -1.
        -24    1    1    2    0    0 -0.79387248347E+01  0.19198846372E+02 -0.56471476543E+02  0.10043835259E+03  0.80419002446E+02 0.  1.
<mgrwt>
<rscale>  0 0.83059226E+02</rscale>
<asrwt>0</asrwt>
<pdfrwt beam="1">  1        2 0.15599132E+00 0.83059226E+02</pdfrwt>
<pdfrwt beam="2">  1       -2 0.36657044E-02 0.83059226E+02</pdfrwt>
<totfact> 0.76152651E+03</totfact>
</mgrwt>
</event>
<event>
 4    1  0.4844629E-001  0.8183786E+02  0.7546771E-02  0.1323915E+00
         -2   -1    0    0    0  501 -0.00000000000E+00  0.00000000000E+00  0.55982956412E+01  0.55982956412E+01  0.00000000000E+00 0.  1.
          2   -1    0    0  501    0  0.00000000000E+00 -0.00000000000E+00 -0.28668005771E+04  0.28668005771E+04  0.00000000000E+00 0. -1.
         24    1    1    2    0    0 -0.68098300902E+01 -0.13558948318E+02 -0.25269148038E+04  0.25282396763E+04  0.80419002446E+02 0. -1.
        -24    1    1    2    0    0  0.68098300902E+01  0.13558948318E+02 -0.33428747759E+03  0.34415919644E+03  0.80419002446E+02 0.  0.
<mgrwt>
<rscale>  0 0.81837857E+02</rscale>
<asrwt>0</asrwt>
<pdfrwt beam="1">  1        2 0.44104552E+00 0.81837857E+02</pdfrwt>
<pdfrwt beam="2">  1       -2 0.86127767E-03 0.81837857E+02</pdfrwt>
<totfact> 0.65823199E+03</totfact>
</mgrwt>
</event>
<event>
 4    1  0.4844629E-001  0.1126092E+03  0.7546771E-02  0.1255813E+00
         -2   -1    0    0    0  501 -0.00000000000E+00  0.00000000000E+00  0.59193701553E+02  0.59193701553E+02  0.00000000000E+00 0.  1.
          2   -1    0    0  501    0  0.00000000000E+00 -0.00000000000E+00 -0.22316493829E+03  0.22316493829E+03  0.00000000000E+00 0. -1.
         24    1    1    2    0    0  0.29247108536E+01 -0.78772181248E+02 -0.11024108621E+03  0.15758782794E+03  0.80419002446E+02 0. -1.
        -24    1    1    2    0    0 -0.29247108536E+01  0.78772181248E+02 -0.53730150529E+02  0.12477081190E+03  0.80419002446E+02 0.  1.
<mgrwt>
<rscale>  0 0.11260918E+03</rscale>
<asrwt>0</asrwt>
<pdfrwt beam="1">  1        2 0.34333068E-01 0.11260918E+03</pdfrwt>
<pdfrwt beam="2">  1       -2 0.91067232E-02 0.11260918E+03</pdfrwt>
<totfact> 0.10799649E+04</totfact>
</mgrwt>
</event>
<event>
 4    1  0.4844629E-001  0.8885628E+02  0.7546771E-02  0.1305645E+00
          2   -1    0    0  501    0  0.00000000000E+00  0.00000000000E+00  0.58886642947E+02  0.58886642947E+02  0.00000000000E+00 0. -1.
         -2   -1    0    0    0  501 -0.00000000000E+00 -0.00000000000E+00 -0.13541874612E+03  0.13541874612E+03  0.00000000000E+00 0.  1.
         24    1    1    2    0    0 -0.15290827239E+02  0.34560293355E+02 -0.28601317128E+02  0.93345993863E+02  0.80419002446E+02 0.  0.
        -24    1    1    2    0    0  0.15290827239E+02 -0.34560293355E+02 -0.47930786042E+02  0.10095939520E+03  0.80419002446E+02 0. -1.
<mgrwt>
<rscale>  0 0.88856284E+02</rscale>
<asrwt>0</asrwt>
<pdfrwt beam="1">  1        2 0.90594837E-02 0.88856284E+02</pdfrwt>
<pdfrwt beam="2">  1       -2 0.20833653E-01 0.88856284E+02</pdfrwt>
<totfact> 0.12713629E+04</totfact>
</mgrwt>
</event>
<event>
 4    1  0.4844629E-001  0.8470606E+02  0.7546771E-02  0.1316203E+00
          2   -1    0    0  501    0  0.00000000000E+00  0.00000000000E+00  0.21986235616E+04  0.21986235616E+04  0.00000000000E+00 0. -1.
         -2   -1    0    0    0  501 -0.00000000000E+00 -0.00000000000E+00 -0.39211301893E+01  0.39211301893E+01  0.00000000000E+00 0.  1.
         24    1    1    2    0    0 -0.13045464651E+01  0.26574415236E+02  0.15483689176E+04  0.15506841788E+04  0.80419002446E+02 0. -1.
        -24    1    1    2    0    0  0.13045464651E+01 -0.26574415236E+02  0.64633351384E+03  0.65186051303E+03  0.80419002446E+02 0.  0.
<mgrwt>
<rscale>  0 0.84706064E+02</rscale>
<asrwt>0</asrwt>
<pdfrwt beam="1">  1        2 0.33824879E+00 0.84706064E+02</pdfrwt>
<pdfrwt beam="2">  1       -2 0.60325256E-03 0.84706064E+02</pdfrwt>
<totfact> 0.24442956E+04</totfact>
</mgrwt>
</event>
<event>
 4    1  0.4844629E-001  0.8496426E+02  0.7546771E-02  0.1315526E+00
         -2   -1    0    0    0  501 -0.00000000000E+00  0.00000000000E+00  0.19519835190E+02  0.19519835190E+02  0.00000000000E+00 0.  1.
          2   -1    0    0  501    0  0.00000000000E+00 -0.00000000000E+00 -0.10096511012E+04  0.10096511012E+04  0.00000000000E+00 0. -1.
         24    1    1    2    0    0 -0.24846578132E+02  0.11591275788E+02 -0.90470603142E+03  0.90868692593E+03  0.80419002446E+02 0. -1.
        -24    1    1    2    0    0  0.24846578132E+02 -0.11591275788E+02 -0.85425234627E+02  0.12048401049E+03  0.80419002446E+02 0.  1.
<mgrwt>
<rscale>  0 0.84964264E+02</rscale>
<asrwt>0</asrwt>
<pdfrwt beam="1">  1        2 0.15533098E+00 0.84964264E+02</pdfrwt>
<pdfrwt beam="2">  1       -2 0.30030508E-02 0.84964264E+02</pdfrwt>
<totfact> 0.10254320E+04</totfact>
</mgrwt>
</event>
<event>
 4    1  0.4844629E-001  0.1225721E+03  0.7546771E-02  0.1238913E+00
         -2   -1    0    0    0  501 -0.00000000000E+00  0.00000000000E+00  0.13616424421E+02  0.13616424421E+02  0.00000000000E+00 0.  1.
          2   -1    0    0  501    0  0.00000000000E+00 -0.00000000000E+00 -0.27850345356E+04  0.27850345356E+04  0.00000000000E+00 0. -1.
         24    1    1    2    0    0  0.29401595217E+02 -0.87705504529E+02 -0.24730691907E+04  0.24761048336E+04  0.80419002446E+02 0. -1.
        -24    1    1    2    0    0 -0.29401595217E+02  0.87705504529E+02 -0.29834892047E+03  0.32254612635E+03  0.80419002446E+02 0.  1.
<mgrwt>
<rscale>  0 0.12257212E+03</rscale>
<asrwt>0</asrwt>
<pdfrwt beam="1">  1        2 0.42846700E+00 0.12257212E+03</pdfrwt>
<pdfrwt beam="2">  1       -2 0.20948338E-02 0.12257212E+03</pdfrwt>
<totfact> 0.20495217E+03</totfact>
</mgrwt>
</event>
<event>
 4    1  0.4844629E-001  0.1050338E+03  0.7546771E-02  0.1270053E+00
          2   -1    0    0  501    0  0.00000000000E+00  0.00000000000E+00  0.15149642730E+04  0.15149642730E+04  0.00000000000E+00 0. -1.
         -2   -1    0    0    0  501 -0.00000000000E+00 -0.00000000000E+00 -0.13539846565E+02  0.13539846565E+02  0.00000000000E+00 0.  1.
         24    1    1    2    0    0  0.59865324645E+02 -0.31321203118E+02  0.12702766666E+04  0.12746116666E+04  0.80419002446E+02 0. -1.
        -24    1    1    2    0    0 -0.59865324645E+02  0.31321203118E+02  0.23114775976E+03  0.25389245293E+03  0.80419002446E+02 0.  1.
<mgrwt>
<rscale>  0 0.10503376E+03</rscale>
<asrwt>0</asrwt>
<pdfrwt beam="1">  1        2 0.23307129E+00 0.10503376E+03</pdfrwt>
<pdfrwt beam="2">  1       -2 0.20830545E-02 0.10503376E+03</pdfrwt>
<totfact> 0.94118907E+03</totfact>
</mgrwt>
</event>
<event>
 4    1  0.4844629E-001  0.9013765E+02  0.7546771E-02  0.1302519E+00
          2   -1    0    0  501    0  0.00000000000E+00  0.00000000000E+00  0.15740284717E+04  0.15740284717E+04  0.00000000000E+00 0. -1.
         -2   -1    0    0    0  501 -0.00000000000E+00 -0.00000000000E+00 -0.82451885061E+01  0.82451885061E+01  0.00000000000E+00 0.  1.
         24    1    1    2    0    0  0.40709328852E+02  0.57521045476E+00  0.12666923519E+04  0.12698953936E+04  0.80419002446E+02 0. -1.
        -24    1    1    2    0    0 -0.40709328852E+02 -0.57521045476E+00  0.29909093129E+03  0.31237826662E+03  0.80419002446E+02 0.  1.
<mgrwt>
<rscale>  0 0.90137652E+02</rscale>
<asrwt>0</asrwt>
<pdfrwt beam="1">  1        2 0.24215799E+00 0.90137652E+02</pdfrwt>
<pdfrwt beam="2">  1       -2 0.12684918E-02 0.90137652E+02</pdfrwt>
<totfact> 0.17711640E+04</totfact>
</mgrwt>
</event>
<event>
 4    1  0.4844629E-001  0.8408994E+02  0.7546771E-02  0.1317830E+00
          1   -1    0    0  501    0  0.00000000000E+00  0.00000000000E+00  0.66946416415E+03  0.66946416415E+03  0.00000000000E+00 0. -1.
         -1   -1    0    0    0  501 -0.00000000000E+00 -0.00000000000E+00 -0.11684664591E+02  0.11684664591E+02  0.00000000000E+00 0.  1.
         24    1    1    2    0    0  0.24497962666E+02 -0.19359238260E+01  0.43444053131E+03  0.44250388605E+03  0.80419002446E+02 0. -1.
        -24    1    1    2    0    0 -0.24497962666E+02  0.19359238260E+01  0.22333896825E+03  0.23864494269E+03  0.80419002446E+02 0.  1.
<mgrwt>
<rscale>  0 0.84089926E+02</rscale>
<asrwt>0</asrwt>
<pdfrwt beam="1">  1        1 0.10299446E+00 0.84089937E+02</pdfrwt>
<pdfrwt beam="2">  1       -1 0.17976412E-02 0.84089937E+02</pdfrwt>
<totfact> 0.21761666E+04</totfact>
</mgrwt>
</event>
<event>
 4    1  0.4844629E-001  0.8046456E+02  0.7546771E-02  0.1327738E+00
         -2   -1    0    0    0  501 -0.00000000000E+00  0.00000000000E+00  0.88554884506E+01  0.88554884506E+01  0.00000000000E+00 0.  1.
          2   -1    0    0  501    0  0.00000000000E+00 -0.00000000000E+00 -0.82561084292E+03  0.82561084292E+03  0.00000000000E+00 0. -1.
         24    1    1    2    0    0  0.16581341331E+01 -0.21399464120E+01 -0.54951921430E+03  0.55537907021E+03  0.80419002446E+02 0. -1.
        -24    1    1    2    0    0 -0.16581341331E+01  0.21399464120E+01 -0.26723614017E+03  0.27908726117E+03  0.80419002446E+02 0.  1.
<mgrwt>
<rscale>  0 0.80464556E+02</rscale>
<asrwt>0</asrwt>
<pdfrwt beam="1">  1        2 0.12701705E+00 0.80464556E+02</pdfrwt>
<pdfrwt beam="2">  1       -2 0.13623828E-02 0.80464556E+02</pdfrwt>
<totfact> 0.41053466E+04</totfact>
</mgrwt>
</event>
<event>
 4    1  0.4844629E-001  0.9001186E+02  0.7546771E-02  0.1302823E+00
          2   -1    0    0  501    0  0.00000000000E+00  0.00000000000E+00  0.22768195529E+04  0.22768195529E+04  0.00000000000E+00 0. -1.
         -2   -1    0    0    0  501 -0.00000000000E+00 -0.00000000000E+00 -0.44968828477E+01  0.44968828477E+01  0.00000000000E+00 0.  1.
         24    1    1    2    0    0  0.32171285389E+02  0.24493410472E+02  0.16572149646E+04  0.16596576676E+04  0.80419002446E+02 0.  0.
        -24    1    1    2    0    0 -0.32171285389E+02 -0.24493410472E+02  0.61510770552E+03  0.62165876822E+03  0.80419002446E+02 0.  0.
<mgrwt>
<rscale>  0 0.90011859E+02</rscale>
<asrwt>0</asrwt>
<pdfrwt beam="1">  1        2 0.35027901E+00 0.90011859E+02</pdfrwt>
<pdfrwt beam="2">  1       -2 0.69182995E-03 0.90011859E+02</pdfrwt>
<totfact> 0.18460320E+04</totfact>
</mgrwt>
</event>
<event>
 4    1  0.4844629E-001  0.1085068E+03  0.7546771E-02  0.1263360E+00
         -1   -1    0    0    0  501 -0.00000000000E+00  0.00000000000E+00  0.42750741795E+01  0.42750741795E+01  0.00000000000E+00 0.  1.
          1   -1    0    0  501    0  0.00000000000E+00 -0.00000000000E+00 -0.29139977060E+04  0.29139977060E+04  0.00000000000E+00 0. -1.
         24    1    1    2    0    0 -0.60252928945E+02 -0.40940124922E+02 -0.11129969066E+04  0.11182735977E+04  0.80419002446E+02 0.  0.
        -24    1    1    2    0    0  0.60252928945E+02  0.40940124922E+02 -0.17967257252E+04  0.17999991825E+04  0.80419002446E+02 0. -1.
<mgrwt>
<rscale>  0 0.10850680E+03</rscale>
<asrwt>0</asrwt>
<pdfrwt beam="1">  1        1 0.44830727E+00 0.10850680E+03</pdfrwt>
<pdfrwt beam="2">  1       -1 0.65770382E-03 0.10850680E+03</pdfrwt>
<totfact> 0.28707094E+03</totfact>
</mgrwt>
</event>
<event>
 4    1  0.4844629E-001  0.8053319E+02  0.7546771E-02  0.1327545E+00
          2   -1    0    0  501    0  0.00000000000E+00  0.00000000000E+00  0.11949219670E+03  0.11949219670E+03  0.00000000000E+00 0. -1.
         -2   -1    0    0    0  501 -0.00000000000E+00 -0.00000000000E+00 -0.54779176465E+02  0.54779176465E+02  0.00000000000E+00 0.  1.
         24    1    1    2    0    0 -0.36049779137E+00  0.42719071574E+01  0.40705157429E+02  0.90235829608E+02  0.80419002446E+02 0. -1.
        -24    1    1    2    0    0  0.36049779137E+00 -0.42719071574E+01  0.24007862802E+02  0.84035543552E+02  0.80419002446E+02 0.  1.
<mgrwt>
<rscale>  0 0.80533193E+02</rscale>
<asrwt>0</asrwt>
<pdfrwt beam="1">  1        2 0.18383415E-01 0.80533193E+02</pdfrwt>
<pdfrwt beam="2">  1       -2 0.84275656E-02 0.80533193E+02</pdfrwt>
<totfact> 0.23257057E+04</totfact>
</mgrwt>
</event>
<event>
 4    1  0.4844629E-001  0.8128692E+02  0.7546771E-02  0.1325439E+00
         -4   -1    0    0    0  501 -0.00000000000E+00  0.00000000000E+00  0.10239506174E+03  0.10239506174E+03  0.00000000000E+00 0.  1.
          4   -1    0    0  501    0  0.00000000000E+00 -0.00000000000E+00 -0.71090203449E+02  0.71090203449E+02  0.00000000000E+00 0. -1.
         24    1    1    2    0    0 -0.10246068711E+02 -0.59469397028E+01 -0.10697711393E+02  0.81987834459E+02  0.80419002446E+02 0. -1.
        -24    1    1    2    0    0  0.10246068711E+02  0.59469397028E+01  0.42002569687E+02  0.91497430732E+02  0.80419002446E+02 0.  1.
<mgrwt>
<rscale>  0 0.81286924E+02</rscale>
<asrwt>0</asrwt>
<pdfrwt beam="1">  1        4 0.10936954E-01 0.81286924E+02</pdfrwt>
<pdfrwt beam="2">  1       -4 0.15753086E-01 0.81286924E+02</pdfrwt>
<totfact> 0.32243417E+03</totfact>
</mgrwt>
</event>
<event>
 4    1  0.4844629E-001  0.1135828E+03  0.7546771E-02  0.1254075E+00
         -2   -1    0    0    0  501 -0.00000000000E+00  0.00000000000E+00  0.30443683697E+03  0.30443683697E+03  0.00000000000E+00 0.  1.
          2   -1    0    0  501    0  0.00000000000E+00 -0.00000000000E+00 -0.52244503201E+02  0.52244503201E+02  0.00000000000E+00 0. -1.
         24    1    1    2    0    0  0.67288193306E+02 -0.43659428806E+02  0.48589713381E+02  0.12353955999E+03  0.80419002446E+02 0. -1.
        -24    1    1    2    0    0 -0.67288193306E+02  0.43659428806E+02  0.20360262039E+03  0.23314178018E+03  0.80419002446E+02 0.  1.
<mgrwt>
<rscale>  0 0.11358284E+03</rscale>
<asrwt>0</asrwt>
<pdfrwt beam="1">  1        2 0.80376161E-02 0.11358284E+03</pdfrwt>
<pdfrwt beam="2">  1       -2 0.46836435E-01 0.11358284E+03</pdfrwt>
<totfact> 0.34936108E+03</totfact>
</mgrwt>
</event>
<event>
 4    1  0.4844629E-001  0.9115087E+02  0.7546771E-02  0.1300088E+00
         -3   -1    0    0    0  501 -0.00000000000E+00  0.00000000000E+00  0.33869377739E+02  0.33869377739E+02  0.00000000000E+00 0.  1.
          3   -1    0    0  501    0  0.00000000000E+00 -0.00000000000E+00 -0.85801811918E+03  0.85801811918E+03  0.00000000000E+00 0. -1.
         24    1    1    2    0    0 -0.24538968509E+02  0.35200900147E+02 -0.35232766908E+02  0.97723222240E+02  0.80419002446E+02 0.  1.
        -24    1    1    2    0    0  0.24538968509E+02 -0.35200900147E+02 -0.78891597453E+03  0.79416427468E+03  0.80419002446E+02 0. -1.
<mgrwt>
<rscale>  0 0.91150866E+02</rscale>
<asrwt>0</asrwt>
<pdfrwt beam="1">  1        3 0.13200279E+00 0.91150866E+02</pdfrwt>
<pdfrwt beam="2">  1       -3 0.52106734E-02 0.91150866E+02</pdfrwt>
<totfact> 0.22276762E+02</totfact>
</mgrwt>
</event>
<event>
 4    1  0.4844629E-001  0.8901113E+02  0.7546771E-02  0.1305264E+00
          2   -1    0    0  501    0  0.00000000000E+00  0.00000000000E+00  0.21555468605E+04  0.21555468605E+04  0.00000000000E+00 0. -1.
         -2   -1    0    0    0  501 -0.00000000000E+00 -0.00000000000E+00 -0.40011927289E+01  0.40011927289E+01  0.00000000000E+00 0.  1.
         24    1    1    2    0    0  0.28619197353E+02  0.25233050178E+02  0.13837787310E+04  0.13866385822E+04  0.80419002446E+02 0. -1.
        -24    1    1    2    0    0 -0.28619197353E+02 -0.25233050178E+02  0.76776693681E+03  0.77290947109E+03  0.80419002446E+02 0.  1.
<mgrwt>
<rscale>  0 0.89011130E+02</rscale>
<asrwt>0</asrwt>
<pdfrwt beam="1">  1        2 0.33162167E+00 0.89011130E+02</pdfrwt>
<pdfrwt beam="2">  1       -2 0.61556983E-03 0.89011130E+02</pdfrwt>
<totfact> 0.25061212E+04</totfact>
</mgrwt>
</event>
<event>
 4    1  0.4844629E-001  0.8076954E+02  0.7546771E-02  0.1326882E+00
          1   -1    0    0  501    0  0.00000000000E+00  0.00000000000E+00  0.13040352271E+03  0.13040352271E+03  0.00000000000E+00 0. -1.
         -1   -1    0    0    0  501 -0.00000000000E+00 -0.00000000000E+00 -0.56654935300E+02  0.56654935300E+02  0.00000000000E+00 0.  1.
         24    1    1    2    0    0  0.55561050679E+01  0.50628067176E+01  0.48844384975E+01  0.80917093430E+02  0.80419002446E+02 0.  1.
        -24    1    1    2    0    0 -0.55561050679E+01 -0.50628067176E+01  0.68864148914E+02  0.10614136458E+03  0.80419002446E+02 0.  0.
<mgrwt>
<rscale>  0 0.80769538E+02</rscale>
<asrwt>0</asrwt>
<pdfrwt beam="1">  1        1 0.20062080E-01 0.80769538E+02</pdfrwt>
<pdfrwt beam="2">  1       -1 0.87161440E-02 0.80769538E+02</pdfrwt>
<totfact> 0.16898661E+04</totfact>
</mgrwt>
</event>
<event>
 4    1  0.4844629E-001  0.8214730E+02  0.7546771E-02  0.1323066E+00
          1   -1    0    0  501    0  0.00000000000E+00  0.00000000000E+00  0.40262592170E+02  0.40262592170E+02  0.00000000000E+00 0. -1.
         -1   -1    0    0    0  501 -0.00000000000E+00 -0.00000000000E+00 -0.20171605568E+03  0.20171605568E+03  0.00000000000E+00 0.  1.
         24    1    1    2    0    0  0.16533705419E+02 -0.27565928887E+01 -0.13048092707E+03  0.15418641478E+03  0.80419002446E+02 0.  0.
        -24    1    1    2    0    0 -0.16533705419E+02  0.27565928887E+01 -0.30972536438E+02  0.87792233068E+02  0.80419002446E+02 0. -1.
<mgrwt>
<rscale>  0 0.82147296E+02</rscale>
<asrwt>0</asrwt>
<pdfrwt beam="1">  1        1 0.61942449E-02 0.82147296E+02</pdfrwt>
<pdfrwt beam="2">  1       -1 0.31033239E-01 0.82147296E+02</pdfrwt>
<totfact> 0.10651742E+04</totfact>
</mgrwt>
</event>
<event>
 4    1  0.4844629E-001  0.8193736E+02  0.7546771E-02  0.1323642E+00
         -1   -1    0    0    0  501 -0.00000000000E+00  0.00000000000E+00  0.23131856273E+02  0.23131856273E+02  0.00000000000E+00 0.  1.
          1   -1    0    0  501    0  0.00000000000E+00 -0.00000000000E+00 -0.45012447567E+03  0.45012447567E+03  0.00000000000E+00 0. -1.
         24    1    1    2    0    0  0.13424362264E+02  0.81426041874E+01 -0.72467868074E+02  0.10938612052E+03  0.80419002446E+02 0.  1.
        -24    1    1    2    0    0 -0.13424362264E+02 -0.81426041874E+01 -0.35452475133E+03  0.36387021143E+03  0.80419002446E+02 0. -1.
<mgrwt>
<rscale>  0 0.81937363E+02</rscale>
<asrwt>0</asrwt>
<pdfrwt beam="1">  1        1 0.69249915E-01 0.81937363E+02</pdfrwt>
<pdfrwt beam="2">  1       -1 0.35587473E-02 0.81937363E+02</pdfrwt>
<totfact> 0.13739846E+04</totfact>
</mgrwt>
</event>
<event>
 4    1  0.4844629E-001  0.8284549E+02  0.7546771E-02  0.1321165E+00
          1   -1    0    0  501    0  0.00000000000E+00  0.00000000000E+00  0.11389216628E+04  0.11389216628E+04  0.00000000000E+00 0. -1.
         -1   -1    0    0    0  501 -0.00000000000E+00 -0.00000000000E+00 -0.13124010763E+02  0.13124010763E+02  0.00000000000E+00 0.  1.
         24    1    1    2    0    0 -0.11059687528E+02 -0.16548205505E+02  0.13928662624E+03  0.16206214856E+03  0.80419002446E+02 0.  1.
        -24    1    1    2    0    0  0.11059687528E+02  0.16548205505E+02  0.98651102585E+03  0.98998352505E+03  0.80419002446E+02 0. -1.
<mgrwt>
<rscale>  0 0.82845493E+02</rscale>
<asrwt>0</asrwt>
<pdfrwt beam="1">  1        1 0.17521864E+00 0.82845493E+02</pdfrwt>
<pdfrwt beam="2">  1       -1 0.20190795E-02 0.82845493E+02</pdfrwt>
<totfact> 0.80727883E+03</totfact>
</mgrwt>
</event>
<event>
 4    1  0.4844629E-001  0.8555507E+02  0.7546771E-02  0.1313987E+00
         -1   -1    0    0    0  501 -0.00000000000E+00  0.00000000000E+00  0.59553511340E+02  0.59553511340E+02  0.00000000000E+00 0.  1.
          1   -1    0    0  501    0  0.00000000000E+00 -0.00000000000E+00 -0.25539111089E+03  0.25539111089E+03  0.00000000000E+00 0. -1.
         24    1    1    2    0    0  0.16814417224E+02 -0.23869022042E+02  0.15498604827E+02  0.86947556295E+02  0.80419002446E+02 0.  1.
        -24    1    1    2    0    0 -0.16814417224E+02  0.23869022042E+02 -0.21133620438E+03  0.22799706594E+03  0.80419002446E+02 0. -1.
<mgrwt>
<rscale>  0 0.85555075E+02</rscale>
<asrwt>0</asrwt>
<pdfrwt beam="1">  1        1 0.39290941E-01 0.85555075E+02</pdfrwt>
<pdfrwt beam="2">  1       -1 0.91620784E-02 0.85555075E+02</pdfrwt>
<totfact> 0.68974554E+03</totfact>
</mgrwt>
</event>
<event>
 4    1  0.4844629E-001  0.1002924E+03  0.7546771E-02  0.1279682E+00
          2   -1    0    0  501    0  0.00000000000E+00  0.00000000000E+00  0.30279376159E+02  0.30279376159E+02  0.00000000000E+00 0. -1.
         -2   -1    0    0    0  501 -0.00000000000E+00 -0.00000000000E+00 -0.44548971997E+03  0.44548971997E+03  0.00000000000E+00 0.  1.
         24    1    1    2    0    0  0.59753831646E+02 -0.45649597064E+01 -0.87639380009E+02  0.13318872376E+03  0.80419002446E+02 0. -1.
        -24    1    1    2    0    0 -0.59753831646E+02  0.45649597064E+01 -0.32757096381E+03  0.34258037238E+03  0.80419002446E+02 0.  1.
<mgrwt>
<rscale>  0 0.10029245E+03</rscale>
<asrwt>0</asrwt>
<pdfrwt beam="1">  1        2 0.46583655E-02 0.10029245E+03</pdfrwt>
<pdfrwt beam="2">  1       -2 0.68536882E-01 0.10029245E+03</pdfrwt>
<totfact> 0.32151720E+03</totfact>
</mgrwt>
</event>
<event>
 4    1  0.4844629E-001  0.1254898E+03  0.7546771E-02  0.1234306E+00
          2   -1    0    0  501    0  0.00000000000E+00  0.00000000000E+00  0.40886148433E+02  0.40886148433E+02  0.00000000000E+00 0. -1.
         -2   -1    0    0    0  501 -0.00000000000E+00 -0.00000000000E+00 -0.41646703750E+03  0.41646703750E+03  0.00000000000E+00 0.  1.
         24    1    1    2    0    0 -0.38490482669E+02  0.88311723431E+02 -0.12509226000E+03  0.17718850758E+03  0.80419002446E+02 0.  0.
        -24    1    1    2    0    0  0.38490482669E+02 -0.88311723431E+02 -0.25048862906E+03  0.28016467835E+03  0.80419002446E+02 0.  1.
<mgrwt>
<rscale>  0 0.12548982E+03</rscale>
<asrwt>0</asrwt>
<pdfrwt beam="1">  1        2 0.62901770E-02 0.12548982E+03</pdfrwt>
<pdfrwt beam="2">  1       -2 0.64071848E-01 0.12548982E+03</pdfrwt>
<totfact> 0.25534492E+03</totfact>
</mgrwt>
</event>
<event>
 4    1  0.4844629E-001  0.9154575E+02  0.7546771E-02  0.1299151E+00
         -2   -1    0    0    0  501 -0.00000000000E+00  0.00000000000E+00  0.96491490753E+01  0.96491490753E+01  0.00000000000E+00 0.  1.
          2   -1    0    0  501    0  0.00000000000E+00 -0.00000000000E+00 -0.13930004885E+04  0.13930004885E+04  0.00000000000E+00 0. -1.
         24    1    1    2    0    0 -0.40424378248E+02 -0.16711622269E+02 -0.11220060341E+04  0.11257345003E+04  0.80419002446E+02 0. -1.
        -24    1    1    2    0    0  0.40424378248E+02  0.16711622269E+02 -0.26134530527E+03  0.27691513721E+03  0.80419002446E+02 0.  1.
<mgrwt>
<rscale>  0 0.91545752E+02</rscale>
<asrwt>0</asrwt>
<pdfrwt beam="1">  1        2 0.21430767E+00 0.91545752E+02</pdfrwt>
<pdfrwt beam="2">  1       -2 0.14844852E-02 0.91545752E+02</pdfrwt>
<totfact> 0.17548786E+04</totfact>
</mgrwt>
</event>
<event>
 4    1  0.4844629E-001  0.9139504E+02  0.7546771E-02  0.1299508E+00
          1   -1    0    0  501    0  0.00000000000E+00  0.00000000000E+00  0.17405144520E+03  0.17405144520E+03  0.00000000000E+00 0. -1.
         -1   -1    0    0    0  501 -0.00000000000E+00 -0.00000000000E+00 -0.59966404531E+02  0.59966404531E+02  0.00000000000E+00 0.  1.
         24    1    1    2    0    0  0.35214011693E+02 -0.25412795657E+02  0.47554308152E+01  0.91518669566E+02  0.80419002446E+02 0.  0.
        -24    1    1    2    0    0 -0.35214011693E+02  0.25412795657E+02  0.10932960986E+03  0.14249918017E+03  0.80419002446E+02 0.  0.
<mgrwt>
<rscale>  0 0.91395037E+02</rscale>
<asrwt>0</asrwt>
<pdfrwt beam="1">  1        1 0.26777145E-01 0.91395037E+02</pdfrwt>
<pdfrwt beam="2">  1       -1 0.92256008E-02 0.91395037E+02</pdfrwt>
<totfact> 0.10980566E+04</totfact>
</mgrwt>
</event>
<event>
 4    1  0.4844629E-001  0.8823627E+02  0.7546771E-02  0.1307180E+00
          1   -1    0    0  501    0  0.00000000000E+00  0.00000000000E+00  0.18025311124E+03  0.18025311124E+03  0.00000000000E+00 0. -1.
         -1   -1    0    0    0  501 -0.00000000000E+00 -0.00000000000E+00 -0.75657961222E+02  0.75657961222E+02  0.00000000000E+00 0.  1.
         24    1    1    2    0    0 -0.19723020716E+02  0.30486475804E+02 -0.31521037465E+02  0.93697462668E+02  0.80419002446E+02 0.  1.
        -24    1    1    2    0    0  0.19723020716E+02 -0.30486475804E+02  0.13611618748E+03  0.16221360979E+03  0.80419002446E+02 0. -1.
<mgrwt>
<rscale>  0 0.88236266E+02</rscale>
<asrwt>0</asrwt>
<pdfrwt beam="1">  1        1 0.27731248E-01 0.88236266E+02</pdfrwt>
<pdfrwt beam="2">  1       -1 0.11639686E-01 0.88236266E+02</pdfrwt>
<totfact> 0.73759984E+03</totfact>
</mgrwt>
</event>
<event>
 4    1  0.4844629E-001  0.9405938E+02  0.7546771E-02  0.1293309E+00
          2   -1    0    0  501    0  0.00000000000E+00  0.00000000000E+00  0.14040476064E+04  0.14040476064E+04  0.00000000000E+00 0. -1.
         -2   -1    0    0    0  501 -0.00000000000E+00 -0.00000000000E+00 -0.89938116893E+01  0.89938116893E+01  0.00000000000E+00 0.  1.
         24    1    1    2    0    0  0.42510479858E+02 -0.23933445063E+02  0.10841082541E+04  0.10881809929E+04  0.80419002446E+02 0. -1.
        -24    1    1    2    0    0 -0.42510479858E+02  0.23933445063E+02  0.31094554059E+03  0.32486042519E+03  0.80419002446E+02 0.  1.
<mgrwt>
<rscale>  0 0.94059378E+02</rscale>
<asrwt>0</asrwt>
<pdfrwt beam="1">  1        2 0.21600715E+00 0.94059378E+02</pdfrwt>
<pdfrwt beam="2">  1       -2 0.13836644E-02 0.94059378E+02</pdfrwt>
<totfact> 0.19182533E+04</totfact>
</mgrwt>
</event>
<event>
 4    1  0.4844629E-001  0.8281161E+02  0.7546771E-02  0.1321257E+00
         -2   -1    0    0    0  501 -0.00000000000E+00  0.00000000000E+00  0.29426229182E+01  0.29426229182E+01  0.00000000000E+00 0.  1.
          2   -1    0    0  501    0  0.00000000000E+00 -0.00000000000E+00 -0.32851166454E+04  0.32851166454E+04  0.00000000000E+00 0. -1.
         24    1    1    2    0    0 -0.19576210332E+02  0.27053763882E+01 -0.25273248061E+04  0.25286811659E+04  0.80419002446E+02 0. -1.
        -24    1    1    2    0    0  0.19576210332E+02 -0.27053763882E+01 -0.75484921638E+03  0.75937810246E+03  0.80419002446E+02 0.  0.
<mgrwt>
<rscale>  0 0.82811612E+02</rscale>
<asrwt>0</asrwt>
<pdfrwt beam="1">  1        2 0.50540298E+00 0.82811612E+02</pdfrwt>
<pdfrwt beam="2">  1       -2 0.45271084E-03 0.82811612E+02</pdfrwt>
<totfact> 0.93074459E+03</totfact>
</mgrwt>
</event>
<event>
 4    1  0.4844629E-001  0.1065157E+03  0.7546771E-02  0.1267162E+00
         -2   -1    0    0    0  501 -0.00000000000E+00  0.00000000000E+00  0.86187318695E+02  0.86187318695E+02  0.00000000000E+00 0.  1.
          2   -1    0    0  501    0  0.00000000000E+00 -0.00000000000E+00 -0.13256954080E+03  0.13256954080E+03  0.00000000000E+00 0. -1.
         24    1    1    2    0    0  0.60993726788E+02  0.34031655300E+02 -0.32355421137E+02  0.11132150512E+03  0.80419002446E+02 0. -1.
        -24    1    1    2    0    0 -0.60993726788E+02 -0.34031655300E+02 -0.14026800963E+02  0.10743535437E+03  0.80419002446E+02 0.  1.
<mgrwt>
<rscale>  0 0.10651575E+03</rscale>
<asrwt>0</asrwt>
<pdfrwt beam="1">  1        2 0.20395314E-01 0.10651575E+03</pdfrwt>
<pdfrwt beam="2">  1       -2 0.13259588E-01 0.10651575E+03</pdfrwt>
<totfact> 0.10489270E+04</totfact>
</mgrwt>
</event>
<event>
 4    1  0.4844629E-001  0.9634389E+02  0.7546771E-02  0.1288178E+00
         -4   -1    0    0    0  501 -0.00000000000E+00  0.00000000000E+00  0.27410361303E+03  0.27410361303E+03  0.00000000000E+00 0.  1.
          4   -1    0    0  501    0  0.00000000000E+00 -0.00000000000E+00 -0.44118223649E+02  0.44118223649E+02  0.00000000000E+00 0. -1.
         24    1    1    2    0    0  0.47799277505E+02 -0.23025167521E+02  0.38283035167E+02  0.10367128824E+03  0.80419002446E+02 0. -1.
        -24    1    1    2    0    0 -0.47799277505E+02  0.23025167521E+02  0.19170235421E+03  0.21455054844E+03  0.80419002446E+02 0.  1.
<mgrwt>
<rscale>  0 0.96343890E+02</rscale>
<asrwt>0</asrwt>
<pdfrwt beam="1">  1        4 0.67874192E-02 0.96343890E+02</pdfrwt>
<pdfrwt beam="2">  1       -4 0.42169786E-01 0.96343890E+02</pdfrwt>
<totfact> 0.12099634E+03</totfact>
</mgrwt>
</event>
<event>
 4    1  0.4844629E-001  0.8780648E+02  0.7546771E-02  0.1308252E+00
          1   -1    0    0  501    0  0.00000000000E+00  0.00000000000E+00  0.10730863017E+04  0.10730863017E+04  0.00000000000E+00 0. -1.
         -1   -1    0    0    0  501 -0.00000000000E+00 -0.00000000000E+00 -0.93078074580E+01  0.93078074580E+01  0.00000000000E+00 0.  1.
         24    1    1    2    0    0  0.13584293385E+02  0.32530424083E+02  0.27342462807E+03  0.28717765357E+03  0.80419002446E+02 0.  1.
        -24    1    1    2    0    0 -0.13584293385E+02 -0.32530424083E+02  0.79035386615E+03  0.79521645557E+03  0.80419002446E+02 0. -1.
<mgrwt>
<rscale>  0 0.87806477E+02</rscale>
<asrwt>0</asrwt>
<pdfrwt beam="1">  1        1 0.16509010E+00 0.87806477E+02</pdfrwt>
<pdfrwt beam="2">  1       -1 0.14319712E-02 0.87806477E+02</pdfrwt>
<totfact> 0.14658902E+04</totfact>
</mgrwt>
</event>
<event>
 4    1  0.4844629E-001  0.8403334E+02  0.7546771E-02  0.1317980E+00
          1   -1    0    0  501    0  0.00000000000E+00  0.00000000000E+00  0.52759495377E+02  0.52759495377E+02  0.00000000000E+00 0. -1.
         -1   -1    0    0    0  501 -0.00000000000E+00 -0.00000000000E+00 -0.31344562632E+03  0.31344562632E+03  0.00000000000E+00 0.  1.
         24    1    1    2    0    0 -0.20645470637E+02 -0.12967285988E+02 -0.26894429032E+03  0.28176698390E+03  0.80419002446E+02 0.  1.
        -24    1    1    2    0    0  0.20645470637E+02  0.12967285988E+02  0.82581593827E+01  0.84438137796E+02  0.80419002446E+02 0. -1.
<mgrwt>
<rscale>  0 0.84033338E+02</rscale>
<asrwt>0</asrwt>
<pdfrwt beam="1">  1        1 0.81168456E-02 0.84033338E+02</pdfrwt>
<pdfrwt beam="2">  1       -1 0.48222403E-01 0.84033338E+02</pdfrwt>
<totfact> 0.34880332E+03</totfact>
</mgrwt>
</event>
<event>
 4    1  0.4844629E-001  0.1036455E+03  0.7546771E-02  0.1272812E+00
          3   -1    0    0  501    0  0.00000000000E+00  0.00000000000E+00  0.38720886127E+02  0.38720886127E+02  0.00000000000E+00 0. -1.
         -3   -1    0    0    0  501 -0.00000000000E+00 -0.00000000000E+00 -0.43332147263E+03  0.43332147263E+03  0.00000000000E+00 0.  1.
         24    1    1    2    0    0 -0.20747925247E+02  0.62005577323E+02 -0.33886510139E+03  0.35436131408E+03  0.80419002446E+02 0.  1.
        -24    1    1    2    0    0  0.20747925247E+02 -0.62005577323E+02 -0.55735485109E+02  0.11768104468E+03  0.80419002446E+02 0. -1.
<mgrwt>
<rscale>  0 0.10364547E+03</rscale>
<asrwt>0</asrwt>
<pdfrwt beam="1">  1        3 0.59570598E-02 0.10364547E+03</pdfrwt>
<pdfrwt beam="2">  1       -3 0.66664837E-01 0.10364547E+03</pdfrwt>
<totfact> 0.83972916E+02</totfact>
</mgrwt>
</event>
<event>
 4    1  0.4844629E-001  0.1074176E+03  0.7546771E-02  0.1265428E+00
          2   -1    0    0  501    0  0.00000000000E+00  0.00000000000E+00  0.28116684290E+04  0.28116684290E+04  0.00000000000E+00 0. -1.
         -2   -1    0    0    0  501 -0.00000000000E+00 -0.00000000000E+00 -0.42662373776E+01  0.42662373776E+01  0.00000000000E+00 0.  1.
         24    1    1    2    0    0 -0.27512884300E+02 -0.65683835567E+02  0.11289715334E+04  0.11340702202E+04  0.80419002446E+02 0. -1.
        -24    1    1    2    0    0  0.27512884300E+02  0.65683835567E+02  0.16784306582E+04  0.16818644462E+04  0.80419002446E+02 0.  0.
<mgrwt>
<rscale>  0 0.10741761E+03</rscale>
<asrwt>0</asrwt>
<pdfrwt beam="1">  1        2 0.43256289E+00 0.10741763E+03</pdfrwt>
<pdfrwt beam="2">  1       -2 0.65634646E-03 0.10741763E+03</pdfrwt>
<totfact> 0.10407771E+04</totfact>
</mgrwt>
</event>
<event>
 4    1  0.4844629E-001  0.2229228E+03  0.7546771E-02  0.1131723E+00
          2   -1    0    0  501    0  0.00000000000E+00  0.00000000000E+00  0.10024550395E+04  0.10024550395E+04  0.00000000000E+00 0.  1.
         -2   -1    0    0    0  501 -0.00000000000E+00 -0.00000000000E+00 -0.61588964220E+02  0.61588964220E+02  0.00000000000E+00 0. -1.
         24    1    1    2    0    0  0.20776487186E+03 -0.78167471605E+01  0.70542881342E+03  0.73981374025E+03  0.80419002446E+02 0.  0.
        -24    1    1    2    0    0 -0.20776487186E+03  0.78167471605E+01  0.23543726182E+03  0.32423026343E+03  0.80419002446E+02 0.  0.
<mgrwt>
<rscale>  0 0.22292277E+03</rscale>
<asrwt>0</asrwt>
<pdfrwt beam="1">  1        2 0.15422384E+00 0.22292277E+03</pdfrwt>
<pdfrwt beam="2">  1       -2 0.94752260E-02 0.22292277E+03</pdfrwt>
<totfact> 0.18894713E+03</totfact>
</mgrwt>
</event>
<event>
 4    1  0.4844629E-001  0.8061095E+02  0.7546771E-02  0.1327327E+00
          3   -1    0    0  501    0  0.00000000000E+00  0.00000000000E+00  0.56842119452E+03  0.56842119452E+03  0.00000000000E+00 0. -1.
         -3   -1    0    0    0  501 -0.00000000000E+00 -0.00000000000E+00 -0.12173989937E+02  0.12173989937E+02  0.00000000000E+00 0.  1.
         24    1    1    2    0    0  0.54905997153E+01 -0.87346970707E+00  0.20644992347E+03  0.22162963811E+03  0.80419002446E+02 0.  0.
        -24    1    1    2    0    0 -0.54905997153E+01  0.87346970707E+00  0.34979728111E+03  0.35896554634E+03  0.80419002446E+02 0. -1.
<mgrwt>
<rscale>  0 0.80610952E+02</rscale>
<asrwt>0</asrwt>
<pdfrwt beam="1">  1        3 0.87449394E-01 0.80610952E+02</pdfrwt>
<pdfrwt beam="2">  1       -3 0.18729220E-02 0.80610952E+02</pdfrwt>
<totfact> 0.26677904E+03</totfact>
</mgrwt>
</event>
<event>
 4    1  0.4844629E-001  0.9774658E+02  0.7546771E-02  0.1285107E+00
         -2   -1    0    0    0  501 -0.00000000000E+00  0.00000000000E+00  0.58520639359E+02  0.58520639359E+02  0.00000000000E+00 0.  1.
          2   -1    0    0  501    0  0.00000000000E+00 -0.00000000000E+00 -0.18102766283E+03  0.18102766283E+03  0.00000000000E+00 0. -1.
         24    1    1    2    0    0 -0.43644652409E+02  0.34384906355E+02 -0.98771559214E+02  0.13896119722E+03  0.80419002446E+02 0.  0.
        -24    1    1    2    0    0  0.43644652409E+02 -0.34384906355E+02 -0.23735464261E+02  0.10058710497E+03  0.80419002446E+02 0. -1.
<mgrwt>
<rscale>  0 0.97746578E+02</rscale>
<asrwt>0</asrwt>
<pdfrwt beam="1">  1        2 0.27850410E-01 0.97746578E+02</pdfrwt>
<pdfrwt beam="2">  1       -2 0.90031753E-02 0.97746578E+02</pdfrwt>
<totfact> 0.13581946E+04</totfact>
</mgrwt>
</event>
<event>
 4    1  0.4844629E-001  0.9484493E+02  0.7546771E-02  0.1291526E+00
         -2   -1    0    0    0  501 -0.00000000000E+00  0.00000000000E+00  0.46228056203E+03  0.46228056203E+03  0.00000000000E+00 0.  1.
          2   -1    0    0  501    0  0.00000000000E+00 -0.00000000000E+00 -0.64750963767E+02  0.64750963767E+02  0.00000000000E+00 0. -1.
         24    1    1    2    0    0 -0.19810718549E+02 -0.46215584731E+02 -0.21626074508E+02  0.97279226428E+02  0.80419002446E+02 0. -1.
        -24    1    1    2    0    0  0.19810718549E+02  0.46215584731E+02  0.41915567277E+03  0.42975229937E+03  0.80419002446E+02 0.  1.
<mgrwt>
<rscale>  0 0.94844930E+02</rscale>
<asrwt>0</asrwt>
<pdfrwt beam="1">  1        2 0.99616870E-02 0.94844930E+02</pdfrwt>
<pdfrwt beam="2">  1       -2 0.71120085E-01 0.94844930E+02</pdfrwt>
<totfact> 0.11373114E+03</totfact>
</mgrwt>
</event>
<event>
 4    1  0.4844629E-001  0.8259814E+02  0.7546771E-02  0.1321836E+00
         -2   -1    0    0    0  501 -0.00000000000E+00  0.00000000000E+00  0.17316457008E+02  0.17316457008E+02  0.00000000000E+00 0.  1.
          2   -1    0    0  501    0  0.00000000000E+00 -0.00000000000E+00 -0.66917356465E+03  0.66917356465E+03  0.00000000000E+00 0. -1.
         24    1    1    2    0    0 -0.13983690955E+02 -0.12636970006E+02 -0.54604310264E+03  0.55225494341E+03  0.80419002446E+02 0. -1.
        -24    1    1    2    0    0  0.13983690955E+02  0.12636970006E+02 -0.10581400500E+03  0.13423507825E+03  0.80419002446E+02 0.  0.
<mgrwt>
<rscale>  0 0.82598139E+02</rscale>
<asrwt>0</asrwt>
<pdfrwt beam="1">  1        2 0.10294978E+00 0.82598139E+02</pdfrwt>
<pdfrwt beam="2">  1       -2 0.26640703E-02 0.82598139E+02</pdfrwt>
<totfact> 0.20230742E+04</totfact>
</mgrwt>
</event>
<event>
 4    1  0.4844629E-001  0.8065682E+02  0.7546771E-02  0.1327198E+00
         -4   -1    0    0    0  501 -0.00000000000E+00  0.00000000000E+00  0.42528971131E+03  0.42528971131E+03  0.00000000000E+00 0.  1.
          4   -1    0    0  501    0  0.00000000000E+00 -0.00000000000E+00 -0.17781721675E+02  0.17781721675E+02  0.00000000000E+00 0. -1.
         24    1    1    2    0    0  0.89727931694E+00  0.61238359630E+01  0.12093626601E+03  0.14536541152E+03  0.80419002446E+02 0. -1.
        -24    1    1    2    0    0 -0.89727931694E+00 -0.61238359630E+01  0.28657172362E+03  0.29770602146E+03  0.80419002446E+02 0.  0.
<mgrwt>
<rscale>  0 0.80656819E+02</rscale>
<asrwt>0</asrwt>
<pdfrwt beam="1">  1        4 0.27356498E-02 0.80656819E+02</pdfrwt>
<pdfrwt beam="2">  1       -4 0.65429179E-01 0.80656819E+02</pdfrwt>
<totfact> 0.19876686E+03</totfact>
</mgrwt>
</event>
<event>
 4    1  0.4844629E-001  0.9451525E+02  0.7546771E-02  0.1292272E+00
         -2   -1    0    0    0  501 -0.00000000000E+00  0.00000000000E+00  0.79111279694E+01  0.79111279694E+01  0.00000000000E+00 0.  1.
          2   -1    0    0  501    0  0.00000000000E+00 -0.00000000000E+00 -0.14559774287E+04  0.14559774287E+04  0.00000000000E+00 0. -1.
         24    1    1    2    0    0 -0.41793893727E+02 -0.26817651235E+02 -0.10707989688E+04  0.10749621219E+04  0.80419002446E+02 0. -1.
        -24    1    1    2    0    0  0.41793893727E+02  0.26817651235E+02 -0.37726733194E+03  0.38892643479E+03  0.80419002446E+02 0.  0.
<mgrwt>
<rscale>  0 0.94515247E+02</rscale>
<asrwt>0</asrwt>
<pdfrwt beam="1">  1        2 0.22399640E+00 0.94515247E+02</pdfrwt>
<pdfrwt beam="2">  1       -2 0.12170973E-02 0.94515247E+02</pdfrwt>
<totfact> 0.21653071E+04</totfact>
</mgrwt>
</event>
<event>
 4    1  0.4844629E-001  0.9393506E+02  0.7546771E-02  0.1293593E+00
         -2   -1    0    0    0  501 -0.00000000000E+00  0.00000000000E+00  0.10095592680E+03  0.10095592680E+03  0.00000000000E+00 0.  1.
          2   -1    0    0  501    0  0.00000000000E+00 -0.00000000000E+00 -0.28919235596E+03  0.28919235596E+03  0.00000000000E+00 0. -1.
         24    1    1    2    0    0 -0.48535959930E+02 -0.91659762067E+00 -0.25706883433E+03  0.27369358979E+03  0.80419002446E+02 0. -1.
        -24    1    1    2    0    0  0.48535959930E+02  0.91659762067E+00  0.68832405164E+02  0.11645469296E+03  0.80419002446E+02 0.  1.
<mgrwt>
<rscale>  0 0.93935060E+02</rscale>
<asrwt>0</asrwt>
<pdfrwt beam="1">  1        2 0.44491132E-01 0.93935060E+02</pdfrwt>
<pdfrwt beam="2">  1       -2 0.15531681E-01 0.93935060E+02</pdfrwt>
<totfact> 0.34780824E+03</totfact>
</mgrwt>
</event>
<event>
 4    1  0.4844629E-001  0.8341993E+02  0.7546771E-02  0.1319617E+00
          2   -1    0    0  501    0  0.00000000000E+00  0.00000000000E+00  0.18779474331E+02  0.18779474331E+02  0.00000000000E+00 0. -1.
         -2   -1    0    0    0  501 -0.00000000000E+00 -0.00000000000E+00 -0.41897800222E+03  0.41897800222E+03  0.00000000000E+00 0.  1.
         24    1    1    2    0    0  0.17453403818E+02 -0.13676549474E+02 -0.12569117106E+03  0.15085475049E+03  0.80419002446E+02 0. -1.
        -24    1    1    2    0    0 -0.17453403818E+02  0.13676549474E+02 -0.27450735683E+03  0.28690272606E+03  0.80419002446E+02 0.  1.
<mgrwt>
<rscale>  0 0.83419933E+02</rscale>
<asrwt>0</asrwt>
<pdfrwt beam="1">  1        2 0.28891498E-02 0.83419933E+02</pdfrwt>
<pdfrwt beam="2">  1       -2 0.64458157E-01 0.83419933E+02</pdfrwt>
<totfact> 0.67280488E+03</totfact>
</mgrwt>
</event>
<event>
 4    1  0.4844629E-001  0.9678136E+02  0.7546771E-02  0.1287214E+00
          2   -1    0    0  501    0  0.00000000000E+00  0.00000000000E+00  0.17419781425E+03  0.17419781425E+03  0.00000000000E+00 0. -1.
         -2   -1    0    0    0  501 -0.00000000000E+00 -0.00000000000E+00 -0.55073571953E+02  0.55073571953E+02  0.00000000000E+00 0.  1.
         24    1    1    2    0    0 -0.38295564506E+02 -0.37853159065E+02  0.41925928002E+02  0.10547232483E+03  0.80419002446E+02 0.  1.
        -24    1    1    2    0    0  0.38295564506E+02  0.37853159065E+02  0.77198314292E+02  0.12379906137E+03  0.80419002446E+02 0. -1.
<mgrwt>
<rscale>  0 0.96781353E+02</rscale>
<asrwt>0</asrwt>
<pdfrwt beam="1">  1        2 0.26799663E-01 0.96781365E+02</pdfrwt>
<pdfrwt beam="2">  1       -2 0.84728573E-02 0.96781365E+02</pdfrwt>
<totfact> 0.15532135E+04</totfact>
</mgrwt>
</event>
<event>
 4    1  0.4844629E-001  0.8433034E+02  0.7546771E-02  0.1317193E+00
          4   -1    0    0  501    0  0.00000000000E+00  0.00000000000E+00  0.15546109898E+03  0.15546109898E+03  0.00000000000E+00 0. -1.
         -4   -1    0    0    0  501 -0.00000000000E+00 -0.00000000000E+00 -0.58973993723E+02  0.58973993723E+02  0.00000000000E+00 0.  1.
         24    1    1    2    0    0 -0.17930636006E+02  0.17968912607E+02  0.99023826566E+02  0.13006661259E+03  0.80419002446E+02 0. -1.
        -24    1    1    2    0    0  0.17930636006E+02 -0.17968912607E+02 -0.25367213079E+01  0.84368480117E+02  0.80419002446E+02 0.  1.
<mgrwt>
<rscale>  0 0.84330335E+02</rscale>
<asrwt>0</asrwt>
<pdfrwt beam="1">  1        4 0.23917092E-01 0.84330335E+02</pdfrwt>
<pdfrwt beam="2">  1       -4 0.90729222E-02 0.84330335E+02</pdfrwt>
<totfact> 0.21202010E+03</totfact>
</mgrwt>
</event>
<event>
 4    1  0.4844629E-001  0.1276904E+03  0.7546771E-02  0.1230924E+00
          2   -1    0    0  501    0  0.00000000000E+00  0.00000000000E+00  0.68336358989E+03  0.68336358989E+03  0.00000000000E+00 0. -1.
         -2   -1    0    0    0  501 -0.00000000000E+00 -0.00000000000E+00 -0.23954325707E+02  0.23954325707E+02  0.00000000000E+00 0.  1.
         24    1    1    2    0    0  0.80035920742E+02 -0.58582095764E+02  0.35193655139E+03  0.37438504606E+03  0.80419002446E+02 0.  1.
        -24    1    1    2    0    0 -0.80035920742E+02  0.58582095764E+02  0.30747271279E+03  0.33293286954E+03  0.80419002446E+02 0.  0.
<mgrwt>
<rscale>  0 0.12769035E+03</rscale>
<asrwt>0</asrwt>
<pdfrwt beam="1">  1        2 0.10513284E+00 0.12769035E+03</pdfrwt>
<pdfrwt beam="2">  1       -2 0.36852814E-02 0.12769035E+03</pdfrwt>
<totfact> 0.12748671E+04</totfact>
</mgrwt>
</event>
<event>
 4    1  0.4844629E-001  0.8213294E+02  0.7546771E-02  0.1323105E+00
          1   -1    0    0  501    0  0.00000000000E+00  0.00000000000E+00  0.94732045784E+03  0.94732045784E+03  0.00000000000E+00 0. -1.
         -1   -1    0    0    0  501 -0.00000000000E+00 -0.00000000000E+00 -0.84895155997E+01  0.84895155997E+01  0.00000000000E+00 0.  1.
         24    1    1    2    0    0 -0.13204365238E+02  0.10210246842E+02  0.27753396121E+03  0.28943206454E+03  0.80419002446E+02 0.  1.
        -24    1    1    2    0    0  0.13204365238E+02 -0.10210246842E+02  0.66129698103E+03  0.66637790890E+03  0.80419002446E+02 0. -1.
<mgrwt>
<rscale>  0 0.82132943E+02</rscale>
<asrwt>0</asrwt>
<pdfrwt beam="1">  1        1 0.14574153E+00 0.82132943E+02</pdfrwt>
<pdfrwt beam="2">  1       -1 0.13060801E-02 0.82132943E+02</pdfrwt>
<totfact> 0.20421796E+04</totfact>
</mgrwt>
</event>
<event>
 4    1  0.4844629E-001  0.8272859E+02  0.7546771E-02  0.1321482E+00
         -2   -1    0    0    0  501 -0.00000000000E+00  0.00000000000E+00  0.19320109958E+02  0.19320109958E+02  0.00000000000E+00 0.  1.
          2   -1    0    0  501    0  0.00000000000E+00 -0.00000000000E+00 -0.44751392854E+03  0.44751392854E+03  0.00000000000E+00 0. -1.
         24    1    1    2    0    0  0.21216867437E+01  0.19295148546E+02 -0.32065872225E+03  0.33115862728E+03  0.80419002446E+02 0. -1.
        -24    1    1    2    0    0 -0.21216867437E+01 -0.19295148546E+02 -0.10753509633E+03  0.13567541122E+03  0.80419002446E+02 0.  0.
<mgrwt>
<rscale>  0 0.82728594E+02</rscale>
<asrwt>0</asrwt>
<pdfrwt beam="1">  1        2 0.68848295E-01 0.82728594E+02</pdfrwt>
<pdfrwt beam="2">  1       -2 0.29723247E-02 0.82728594E+02</pdfrwt>
<totfact> 0.26844884E+04</totfact>
</mgrwt>
</event>
<event>
 4    1  0.4844629E-001  0.9139099E+02  0.7546771E-02  0.1299518E+00
          2   -1    0    0  501    0  0.00000000000E+00  0.00000000000E+00  0.26029176462E+02  0.26029176462E+02  0.00000000000E+00 0. -1.
         -2   -1    0    0    0  501 -0.00000000000E+00 -0.00000000000E+00 -0.41005721052E+03  0.41005721052E+03  0.00000000000E+00 0.  1.
         24    1    1    2    0    0 -0.41366396198E+02 -0.13187834336E+02 -0.90332841463E+02  0.12850033428E+03  0.80419002446E+02 0. -1.
        -24    1    1    2    0    0  0.41366396198E+02  0.13187834336E+02 -0.29369519260E+03  0.30758605270E+03  0.80419002446E+02 0.  1.
<mgrwt>
<rscale>  0 0.91390993E+02</rscale>
<asrwt>0</asrwt>
<pdfrwt beam="1">  1        2 0.40044890E-02 0.91390993E+02</pdfrwt>
<pdfrwt beam="2">  1       -2 0.63085720E-01 0.91390993E+02</pdfrwt>
<totfact> 0.46168454E+03</totfact>
</mgrwt>
</event>
<event>
 4    1  0.4844629E-001  0.8679952E+02  0.7546771E-02  0.1310793E+00
         -2   -1    0    0    0  501 -0.00000000000E+00  0.00000000000E+00  0.60838674981E+02  0.60838674981E+02  0.00000000000E+00 0.  1.
          2   -1    0    0  501    0  0.00000000000E+00 -0.00000000000E+00 -0.51594776669E+03  0.51594776669E+03  0.00000000000E+00 0. -1.
         24    1    1    2    0    0 -0.30977535328E+02 -0.10360131215E+02 -0.47896646425E+03  0.48676794250E+03  0.80419002446E+02 0. -1.
        -24    1    1    2    0    0  0.30977535328E+02  0.10360131215E+02  0.23857372544E+02  0.90018499170E+02  0.80419002446E+02 0.  1.
<mgrwt>
<rscale>  0 0.86799516E+02</rscale>
<asrwt>0</asrwt>
<pdfrwt beam="1">  1        2 0.79376577E-01 0.86799516E+02</pdfrwt>
<pdfrwt beam="2">  1       -2 0.93597965E-02 0.86799516E+02</pdfrwt>
<totfact> 0.41880985E+03</totfact>
</mgrwt>
</event>
<event>
 4    1  0.4844629E-001  0.9451770E+02  0.7546771E-02  0.1292266E+00
          3   -1    0    0  501    0  0.00000000000E+00  0.00000000000E+00  0.52355077232E+02  0.52355077232E+02  0.00000000000E+00 0. -1.
         -3   -1    0    0    0  501 -0.00000000000E+00 -0.00000000000E+00 -0.17881641628E+03  0.17881641628E+03  0.00000000000E+00 0.  1.
         24    1    1    2    0    0 -0.94939125730E+01 -0.48746752012E+02 -0.87954806573E+02  0.12911097615E+03  0.80419002446E+02 0.  1.
        -24    1    1    2    0    0  0.94939125730E+01  0.48746752012E+02 -0.38506532477E+02  0.10206051737E+03  0.80419002446E+02 0. -1.
<mgrwt>
<rscale>  0 0.94517703E+02</rscale>
<asrwt>0</asrwt>
<pdfrwt beam="1">  1        3 0.80546272E-02 0.94517703E+02</pdfrwt>
<pdfrwt beam="2">  1       -3 0.27510218E-01 0.94517703E+02</pdfrwt>
<totfact> 0.28318270E+03</totfact>
</mgrwt>
</event>
<event>
 4    1  0.4844629E-001  0.8750448E+02  0.7546771E-02  0.1309010E+00
         -3   -1    0    0    0  501 -0.00000000000E+00  0.00000000000E+00  0.14748931774E+03  0.14748931774E+03  0.00000000000E+00 0.  1.
          3   -1    0    0  501    0  0.00000000000E+00 -0.00000000000E+00 -0.52482522020E+02  0.52482522020E+02  0.00000000000E+00 0. -1.
         24    1    1    2    0    0 -0.34347213745E+02  0.31759297316E+01  0.57892945906E+02  0.10492200323E+03  0.80419002446E+02 0. -1.
        -24    1    1    2    0    0  0.34347213745E+02 -0.31759297316E+01  0.37113849811E+02  0.95049836527E+02  0.80419002446E+02 0.  0.
<mgrwt>
<rscale>  0 0.87504477E+02</rscale>
<asrwt>0</asrwt>
<pdfrwt beam="1">  1        3 0.80742342E-02 0.87504477E+02</pdfrwt>
<pdfrwt beam="2">  1       -3 0.22690664E-01 0.87504477E+02</pdfrwt>
<totfact> 0.39164519E+03</totfact>
</mgrwt>
</event>
<event>
 4    1  0.4844629E-001  0.9998345E+02  0.7546771E-02  0.1280331E+00
          4   -1    0    0  501    0  0.00000000000E+00  0.00000000000E+00  0.26739926694E+03  0.26739926694E+03  0.00000000000E+00 0. -1.
         -4   -1    0    0    0  501 -0.00000000000E+00 -0.00000000000E+00 -0.18361253938E+03  0.18361253938E+03  0.00000000000E+00 0.  1.
         24    1    1    2    0    0  0.35523398000E+02 -0.47618926311E+02  0.24313670006E+03  0.26289188808E+03  0.80419002446E+02 0. -1.
        -24    1    1    2    0    0 -0.35523398000E+02  0.47618926311E+02 -0.15934997250E+03  0.18811991824E+03  0.80419002446E+02 0.  1.
<mgrwt>
<rscale>  0 0.99983448E+02</rscale>
<asrwt>0</asrwt>
<pdfrwt beam="1">  1        4 0.41138349E-01 0.99983448E+02</pdfrwt>
<pdfrwt beam="2">  1       -4 0.28248083E-01 0.99983448E+02</pdfrwt>
<totfact> 0.10890274E+02</totfact>
</mgrwt>
</event>
<event>
 4    1  0.4844629E-001  0.1211985E+03  0.7546771E-02  0.1241133E+00
          1   -1    0    0  501    0  0.00000000000E+00  0.00000000000E+00  0.30532132771E+02  0.30532132771E+02  0.00000000000E+00 0. -1.
         -1   -1    0    0    0  501 -0.00000000000E+00 -0.00000000000E+00 -0.62761147206E+03  0.62761147206E+03  0.00000000000E+00 0.  1.
         24    1    1    2    0    0 -0.42917543916E+02  0.79874490354E+02 -0.13954656181E+03  0.18483048626E+03  0.80419002446E+02 0. -1.
        -24    1    1    2    0    0  0.42917543916E+02 -0.79874490354E+02 -0.45753277748E+03  0.47331311857E+03  0.80419002446E+02 0.  1.
<mgrwt>
<rscale>  0 0.12119847E+03</rscale>
<asrwt>0</asrwt>
<pdfrwt beam="1">  1        1 0.46972518E-02 0.12119849E+03</pdfrwt>
<pdfrwt beam="2">  1       -1 0.96555598E-01 0.12119849E+03</pdfrwt>
<totfact> 0.19125456E+03</totfact>
</mgrwt>
</event>
<event>
 4    1  0.4844629E-001  0.8608992E+02  0.7546771E-02  0.1312607E+00
         -2   -1    0    0    0  501 -0.00000000000E+00  0.00000000000E+00  0.18315201325E+02  0.18315201325E+02  0.00000000000E+00 0.  1.
          2   -1    0    0  501    0  0.00000000000E+00 -0.00000000000E+00 -0.44902923548E+03  0.44902923548E+03  0.00000000000E+00 0. -1.
         24    1    1    2    0    0  0.29450795277E+02  0.87698126382E+01 -0.28880816296E+03  0.30136627201E+03  0.80419002446E+02 0.  1.
        -24    1    1    2    0    0 -0.29450795277E+02 -0.87698126382E+01 -0.14190587119E+03  0.16597816480E+03  0.80419002446E+02 0.  1.
<mgrwt>
<rscale>  0 0.86089923E+02</rscale>
<asrwt>0</asrwt>
<pdfrwt beam="1">  1        2 0.69081418E-01 0.86089923E+02</pdfrwt>
<pdfrwt beam="2">  1       -2 0.28177234E-02 0.86089923E+02</pdfrwt>
<totfact> 0.29032117E+04</totfact>
</mgrwt>
</event>
<event>
 4    1  0.4844629E-001  0.8155645E+02  0.7546771E-02  0.1324692E+00
          2   -1    0    0  501    0  0.00000000000E+00  0.00000000000E+00  0.86790777477E+02  0.86790777477E+02  0.00000000000E+00 0. -1.
         -2   -1    0    0    0  501 -0.00000000000E+00 -0.00000000000E+00 -0.83870737393E+02  0.83870737393E+02  0.00000000000E+00 0.  1.
         24    1    1    2    0    0  0.13471950677E+02 -0.16566496384E+01  0.26518680039E+02  0.85759514274E+02  0.80419002446E+02 0.  1.
        -24    1    1    2    0    0 -0.13471950677E+02  0.16566496384E+01 -0.23598639955E+02  0.84902000596E+02  0.80419002446E+02 0.  1.
<mgrwt>
<rscale>  0 0.81556446E+02</rscale>
<asrwt>0</asrwt>
<pdfrwt beam="1">  1        2 0.13352427E-01 0.81556446E+02</pdfrwt>
<pdfrwt beam="2">  1       -2 0.12903190E-01 0.81556446E+02</pdfrwt>
<totfact> 0.17313507E+04</totfact>
</mgrwt>
</event>
<event>
 4    1  0.4844629E-001  0.8966411E+02  0.7546771E-02  0.1303667E+00
          1   -1    0    0  501    0  0.00000000000E+00  0.00000000000E+00  0.18659317212E+02  0.18659317212E+02  0.00000000000E+00 0. -1.
         -1   -1    0    0    0  501 -0.00000000000E+00 -0.00000000000E+00 -0.74064118328E+03  0.74064118328E+03  0.00000000000E+00 0.  1.
         24    1    1    2    0    0  0.39446624233E+02  0.40497079347E+01 -0.60652036887E+03  0.61311223288E+03  0.80419002446E+02 0.  0.
        -24    1    1    2    0    0 -0.39446624233E+02 -0.40497079347E+01 -0.11546149719E+03  0.14618826761E+03  0.80419002446E+02 0.  0.
<mgrwt>
<rscale>  0 0.89664108E+02</rscale>
<asrwt>0</asrwt>
<pdfrwt beam="1">  1        1 0.28706643E-02 0.89664108E+02</pdfrwt>
<pdfrwt beam="2">  1       -1 0.11394479E+00 0.89664108E+02</pdfrwt>
<totfact> 0.25519955E+03</totfact>
</mgrwt>
</event>
<event>
 4    1  0.4844629E-001  0.1414261E+03  0.7546771E-02  0.1211423E+00
          2   -1    0    0  501    0  0.00000000000E+00  0.00000000000E+00  0.11370629986E+04  0.11370629986E+04  0.00000000000E+00 0. -1.
         -2   -1    0    0    0  501 -0.00000000000E+00 -0.00000000000E+00 -0.18422759829E+02  0.18422759829E+02  0.00000000000E+00 0.  1.
         24    1    1    2    0    0  0.11632405365E+03  0.16851019357E+01  0.68212757689E+03  0.69663431737E+03  0.80419002446E+02 0. -1.
        -24    1    1    2    0    0 -0.11632405365E+03 -0.16851019357E+01  0.43651266183E+03  0.45885144102E+03  0.80419002446E+02 0.  1.
<mgrwt>
<rscale>  0 0.14142610E+03</rscale>
<asrwt>0</asrwt>
<pdfrwt beam="1">  1        2 0.17493271E+00 0.14142610E+03</pdfrwt>
<pdfrwt beam="2">  1       -2 0.28342716E-02 0.14142610E+03</pdfrwt>
<totfact> 0.97171788E+03</totfact>
</mgrwt>
</event>
<event>
 4    1  0.4844629E-001  0.8351149E+02  0.7546771E-02  0.1319372E+00
          4   -1    0    0  501    0  0.00000000000E+00  0.00000000000E+00  0.14466059031E+03  0.14466059031E+03  0.00000000000E+00 0. -1.
         -4   -1    0    0    0  501 -0.00000000000E+00 -0.00000000000E+00 -0.13400149655E+03  0.13400149655E+03  0.00000000000E+00 0.  1.
         24    1    1    2    0    0 -0.18741560035E+02  0.12478260311E+02  0.11681385763E+03  0.14359542591E+03  0.80419002446E+02 0. -1.
        -24    1    1    2    0    0  0.18741560035E+02 -0.12478260311E+02 -0.10615476388E+03  0.13506666095E+03  0.80419002446E+02 0.  1.
<mgrwt>
<rscale>  0 0.83511490E+02</rscale>
<asrwt>0</asrwt>
<pdfrwt beam="1">  1        4 0.22255475E-01 0.83511490E+02</pdfrwt>
<pdfrwt beam="2">  1       -4 0.20615615E-01 0.83511490E+02</pdfrwt>
<totfact> 0.58964330E+02</totfact>
</mgrwt>
</event>
<event>
 4    1  0.4844629E-001  0.9317209E+02  0.7546771E-02  0.1295347E+00
          1   -1    0    0  501    0  0.00000000000E+00  0.00000000000E+00  0.27193714116E+03  0.27193714116E+03  0.00000000000E+00 0. -1.
         -1   -1    0    0    0  501 -0.00000000000E+00 -0.00000000000E+00 -0.39833595005E+03  0.39833595005E+03  0.00000000000E+00 0.  1.
         24    1    1    2    0    0  0.27158737174E+02 -0.38421680561E+02 -0.38462648819E+03  0.39575064613E+03  0.80419002446E+02 0.  1.
        -24    1    1    2    0    0 -0.27158737174E+02  0.38421680561E+02  0.25822767930E+03  0.27452244508E+03  0.80419002446E+02 0. -1.
<mgrwt>
<rscale>  0 0.93172091E+02</rscale>
<asrwt>0</asrwt>
<pdfrwt beam="1">  1        1 0.41836483E-01 0.93172091E+02</pdfrwt>
<pdfrwt beam="2">  1       -1 0.61282454E-01 0.93172091E+02</pdfrwt>
<totfact> 0.28360400E+02</totfact>
</mgrwt>
</event>
<event>
 4    1  0.4844629E-001  0.1162175E+03  0.7546771E-02  0.1249471E+00
          1   -1    0    0  501    0  0.00000000000E+00  0.00000000000E+00  0.17083585335E+04  0.17083585335E+04  0.00000000000E+00 0. -1.
         -1   -1    0    0    0  501 -0.00000000000E+00 -0.00000000000E+00 -0.90160469980E+01  0.90160469980E+01  0.00000000000E+00 0.  1.
         24    1    1    2    0    0  0.48642930656E+02 -0.68360500913E+02  0.54839025014E+03  0.56056968808E+03  0.80419002446E+02 0.  1.
        -24    1    1    2    0    0 -0.48642930656E+02  0.68360500913E+02  0.11509522364E+04  0.11568048924E+04  0.80419002446E+02 0. -1.
<mgrwt>
<rscale>  0 0.11621751E+03</rscale>
<asrwt>0</asrwt>
<pdfrwt beam="1">  1        1 0.26282413E+00 0.11621751E+03</pdfrwt>
<pdfrwt beam="2">  1       -1 0.13870855E-02 0.11621751E+03</pdfrwt>
<totfact> 0.59723327E+03</totfact>
</mgrwt>
</event>
<event>
 4    1  0.4844629E-001  0.8514437E+02  0.7546771E-02  0.1315055E+00
          1   -1    0    0  501    0  0.00000000000E+00  0.00000000000E+00  0.27010060844E+03  0.27010060844E+03  0.00000000000E+00 0. -1.
         -1   -1    0    0    0  501 -0.00000000000E+00 -0.00000000000E+00 -0.16092749658E+03  0.16092749658E+03  0.00000000000E+00 0.  1.
         24    1    1    2    0    0  0.23858472184E+02 -0.14598657424E+02 -0.14213603180E+03  0.16568709963E+03  0.80419002446E+02 0.  1.
        -24    1    1    2    0    0 -0.23858472184E+02  0.14598657424E+02  0.25130914367E+03  0.26534100539E+03  0.80419002446E+02 0. -1.
<mgrwt>
<rscale>  0 0.85144368E+02</rscale>
<asrwt>0</asrwt>
<pdfrwt beam="1">  1        1 0.41553940E-01 0.85144368E+02</pdfrwt>
<pdfrwt beam="2">  1       -1 0.24758076E-01 0.85144368E+02</pdfrwt>
<totfact> 0.13769749E+03</totfact>
</mgrwt>
</event>
<event>
 4    1  0.4844629E-001  0.8063866E+02  0.7546771E-02  0.1327249E+00
          2   -1    0    0  501    0  0.00000000000E+00  0.00000000000E+00  0.79636448726E+02  0.79636448726E+02  0.00000000000E+00 0. -1.
         -2   -1    0    0    0  501 -0.00000000000E+00 -0.00000000000E+00 -0.84588108250E+02  0.84588108250E+02  0.00000000000E+00 0.  1.
         24    1    1    2    0    0 -0.27237325468E+00 -0.59414477070E+01 -0.17770216473E+02  0.82573431174E+02  0.80419002446E+02 0.  1.
        -24    1    1    2    0    0  0.27237325468E+00  0.59414477070E+01  0.12818556949E+02  0.81651125802E+02  0.80419002446E+02 0.  1.
<mgrwt>
<rscale>  0 0.80638654E+02</rscale>
<asrwt>0</asrwt>
<pdfrwt beam="1">  1        2 0.12251761E-01 0.80638664E+02</pdfrwt>
<pdfrwt beam="2">  1       -2 0.13013555E-01 0.80638664E+02</pdfrwt>
<totfact> 0.18872104E+04</totfact>
</mgrwt>
</event>
<event>
 4    1  0.4844629E-001  0.9401956E+02  0.7546771E-02  0.1293400E+00
         -2   -1    0    0    0  501 -0.00000000000E+00  0.00000000000E+00  0.16513831365E+03  0.16513831365E+03  0.00000000000E+00 0.  1.
          2   -1    0    0  501    0  0.00000000000E+00 -0.00000000000E+00 -0.54163425957E+03  0.54163425957E+03  0.00000000000E+00 0. -1.
         24    1    1    2    0    0 -0.13064483820E+02  0.46923131491E+02 -0.52371775357E+03  0.53209018255E+03  0.80419002446E+02 0. -1.
        -24    1    1    2    0    0  0.13064483820E+02 -0.46923131491E+02  0.14722180765E+03  0.17468239067E+03  0.80419002446E+02 0.  1.
<mgrwt>
<rscale>  0 0.94019556E+02</rscale>
<asrwt>0</asrwt>
<pdfrwt beam="1">  1        2 0.83328346E-01 0.94019556E+02</pdfrwt>
<pdfrwt beam="2">  1       -2 0.25405895E-01 0.94019556E+02</pdfrwt>
<totfact> 0.78339790E+02</totfact>
</mgrwt>
</event>
<event>
 4    1  0.4844629E-001  0.8640628E+02  0.7546771E-02  0.1311795E+00
         -2   -1    0    0    0  501 -0.00000000000E+00  0.00000000000E+00  0.47907545772E+01  0.47907545772E+01  0.00000000000E+00 0. -1.
          2   -1    0    0  501    0  0.00000000000E+00 -0.00000000000E+00 -0.18810468851E+04  0.18810468851E+04  0.00000000000E+00 0.  1.
         24    1    1    2    0    0  0.25452574577E+02 -0.18734889734E+02 -0.13286266402E+04  0.13314333609E+04  0.80419002446E+02 0.  0.
        -24    1    1    2    0    0 -0.25452574577E+02  0.18734889734E+02 -0.54762949033E+03  0.55440427873E+03  0.80419002446E+02 0. -1.
<mgrwt>
<rscale>  0 0.86406282E+02</rscale>
<asrwt>0</asrwt>
<pdfrwt beam="1">  1        2 0.28939220E+00 0.86406282E+02</pdfrwt>
<pdfrwt beam="2">  1       -2 0.73703822E-03 0.86406282E+02</pdfrwt>
<totfact> 0.26678796E+04</totfact>
</mgrwt>
</event>
<event>
 4    1  0.4844629E-001  0.1238496E+03  0.7546771E-02  0.1236878E+00
          2   -1    0    0  501    0  0.00000000000E+00  0.00000000000E+00  0.61140419594E+03  0.61140419594E+03  0.00000000000E+00 0. -1.
         -2   -1    0    0    0  501 -0.00000000000E+00 -0.00000000000E+00 -0.78974718061E+02  0.78974718061E+02  0.00000000000E+00 0.  1.
         24    1    1    2    0    0 -0.32741150258E+02  0.88314941097E+02  0.55135302784E+03  0.56509192969E+03  0.80419002446E+02 0. -1.
        -24    1    1    2    0    0  0.32741150258E+02 -0.88314941097E+02 -0.18923549955E+02  0.12528698431E+03  0.80419002446E+02 0.  1.
<mgrwt>
<rscale>  0 0.12384962E+03</rscale>
<asrwt>0</asrwt>
<pdfrwt beam="1">  1        2 0.94062181E-01 0.12384962E+03</pdfrwt>
<pdfrwt beam="2">  1       -2 0.12149957E-01 0.12384962E+03</pdfrwt>
<totfact> 0.23395738E+03</totfact>
</mgrwt>
</event>
<event>
 4    1  0.4844629E-001  0.9058439E+02  0.7546771E-02  0.1301443E+00
          2   -1    0    0  501    0  0.00000000000E+00  0.00000000000E+00  0.57994374969E+03  0.57994374969E+03  0.00000000000E+00 0. -1.
         -2   -1    0    0    0  501 -0.00000000000E+00 -0.00000000000E+00 -0.11333453764E+03  0.11333453764E+03  0.00000000000E+00 0.  1.
         24    1    1    2    0    0 -0.30756988832E+02  0.28148237783E+02  0.55758522227E+03  0.56489539890E+03  0.80419002446E+02 0. -1.
        -24    1    1    2    0    0  0.30756988832E+02 -0.28148237783E+02 -0.90976010214E+02  0.12838288843E+03  0.80419002446E+02 0.  1.
<mgrwt>
<rscale>  0 0.90584389E+02</rscale>
<asrwt>0</asrwt>
<pdfrwt beam="1">  1        2 0.89222114E-01 0.90584389E+02</pdfrwt>
<pdfrwt beam="2">  1       -2 0.17436083E-01 0.90584389E+02</pdfrwt>
<totfact> 0.13712885E+03</totfact>
</mgrwt>
</event>
<event>
 4    1  0.4844629E-001  0.1299491E+03  0.7546771E-02  0.1227531E+00
          1   -1    0    0  501    0  0.00000000000E+00  0.00000000000E+00  0.27253879917E+03  0.27253879917E+03  0.00000000000E+00 0. -1.
         -1   -1    0    0    0  501 -0.00000000000E+00 -0.00000000000E+00 -0.88046271495E+02  0.88046271495E+02  0.00000000000E+00 0.  1.
         24    1    1    2    0    0 -0.68356554992E+02  0.75808551575E+02 -0.58878735060E+01  0.13008242814E+03  0.80419002446E+02 0.  1.
        -24    1    1    2    0    0  0.68356554992E+02 -0.75808551575E+02  0.19038040118E+03  0.23050264252E+03  0.80419002446E+02 0. -1.
<mgrwt>
<rscale>  0 0.12994911E+03</rscale>
<asrwt>0</asrwt>
<pdfrwt beam="1">  1        1 0.41929046E-01 0.12994911E+03</pdfrwt>
<pdfrwt beam="2">  1       -1 0.13545580E-01 0.12994911E+03</pdfrwt>
<totfact> 0.36040374E+03</totfact>
</mgrwt>
</event>
<event>
 4    1  0.4844629E-001  0.8099303E+02  0.7546771E-02  0.1326257E+00
          2   -1    0    0  501    0  0.00000000000E+00  0.00000000000E+00  0.12944361969E+04  0.12944361969E+04  0.00000000000E+00 0. -1.
         -2   -1    0    0    0  501 -0.00000000000E+00 -0.00000000000E+00 -0.50827513054E+01  0.50827513054E+01  0.00000000000E+00 0.  1.
         24    1    1    2    0    0  0.23207302899E+01  0.93415931152E+01  0.60936644772E+03  0.61472541408E+03  0.80419002446E+02 0.  0.
        -24    1    1    2    0    0 -0.23207302899E+01 -0.93415931152E+01  0.67998699788E+03  0.68479353413E+03  0.80419002446E+02 0.  0.
<mgrwt>
<rscale>  0 0.80993017E+02</rscale>
<asrwt>0</asrwt>
<pdfrwt beam="1">  1        2 0.19914377E+00 0.80993027E+02</pdfrwt>
<pdfrwt beam="2">  1       -2 0.78196277E-03 0.80993027E+02</pdfrwt>
<totfact> 0.48430078E+04</totfact>
</mgrwt>
</event>
<event>
 4    1  0.4844629E-001  0.1050171E+03  0.7546771E-02  0.1270086E+00
         -2   -1    0    0    0  501 -0.00000000000E+00  0.00000000000E+00  0.22477438761E+02  0.22477438761E+02  0.00000000000E+00 0.  1.
          2   -1    0    0  501    0  0.00000000000E+00 -0.00000000000E+00 -0.12210905366E+04  0.12210905366E+04  0.00000000000E+00 0. -1.
         24    1    1    2    0    0  0.13482130693E+01  0.67524553114E+02 -0.10802095177E+04  0.10853023547E+04  0.80419002446E+02 0. -1.
        -24    1    1    2    0    0 -0.13482130693E+01 -0.67524553114E+02 -0.11840358015E+03  0.15826562071E+03  0.80419002446E+02 0.  1.
<mgrwt>
<rscale>  0 0.10501714E+03</rscale>
<asrwt>0</asrwt>
<pdfrwt beam="1">  1        2 0.18786015E+00 0.10501714E+03</pdfrwt>
<pdfrwt beam="2">  1       -2 0.34580662E-02 0.10501714E+03</pdfrwt>
<totfact> 0.64282914E+03</totfact>
</mgrwt>
</event>
<event>
 4    1  0.4844629E-001  0.8382130E+02  0.7546771E-02  0.1318544E+00
         -2   -1    0    0    0  501 -0.00000000000E+00  0.00000000000E+00  0.25577201436E+02  0.25577201436E+02  0.00000000000E+00 0.  1.
          2   -1    0    0  501    0  0.00000000000E+00 -0.00000000000E+00 -0.54015572821E+03  0.54015572821E+03  0.00000000000E+00 0. -1.
         24    1    1    2    0    0 -0.13426794028E+02 -0.19455481885E+02 -0.45558780228E+03  0.46323455842E+03  0.80419002446E+02 0. -1.
        -24    1    1    2    0    0  0.13426794028E+02  0.19455481885E+02 -0.58990724494E+02  0.10249837123E+03  0.80419002446E+02 0.  1.
<mgrwt>
<rscale>  0 0.83821301E+02</rscale>
<asrwt>0</asrwt>
<pdfrwt beam="1">  1        2 0.83100877E-01 0.83821301E+02</pdfrwt>
<pdfrwt beam="2">  1       -2 0.39349543E-02 0.83821301E+02</pdfrwt>
<totfact> 0.14589449E+04</totfact>
</mgrwt>
</event>
<event>
 4    1  0.4844629E-001  0.8591362E+02  0.7546771E-02  0.1313060E+00
          2   -1    0    0  501    0  0.00000000000E+00  0.00000000000E+00  0.45292780551E+03  0.45292780551E+03  0.00000000000E+00 0. -1.
         -2   -1    0    0    0  501 -0.00000000000E+00 -0.00000000000E+00 -0.87239127637E+02  0.87239127637E+02  0.00000000000E+00 0.  1.
         24    1    1    2    0    0 -0.12881970524E+02  0.27349379453E+02  0.42639869318E+03  0.43496780941E+03  0.80419002446E+02 0. -1.
        -24    1    1    2    0    0  0.12881970524E+02 -0.27349379453E+02 -0.60710015312E+02  0.10519912373E+03  0.80419002446E+02 0.  1.
<mgrwt>
<rscale>  0 0.85913618E+02</rscale>
<asrwt>0</asrwt>
<pdfrwt beam="1">  1        2 0.69681200E-01 0.85913618E+02</pdfrwt>
<pdfrwt beam="2">  1       -2 0.13421404E-01 0.85913618E+02</pdfrwt>
<totfact> 0.27345105E+03</totfact>
</mgrwt>
</event>
<event>
 4    1  0.4844629E-001  0.1756698E+03  0.7546771E-02  0.1172061E+00
          1   -1    0    0  501    0  0.00000000000E+00  0.00000000000E+00  0.15973037652E+04  0.15973037652E+04  0.00000000000E+00 0. -1.
         -1   -1    0    0    0  501 -0.00000000000E+00 -0.00000000000E+00 -0.11590742247E+03  0.11590742247E+03  0.00000000000E+00 0.  1.
         24    1    1    2    0    0 -0.13355544350E+03  0.80966716731E+02 -0.41263756159E+02  0.18045104387E+03  0.80419002446E+02 0.  1.
        -24    1    1    2    0    0  0.13355544350E+03 -0.80966716731E+02  0.15226600989E+04  0.15327601438E+04  0.80419002446E+02 0. -1.
<mgrwt>
<rscale>  0 0.17566981E+03</rscale>
<asrwt>0</asrwt>
<pdfrwt beam="1">  1        1 0.24573903E+00 0.17566981E+03</pdfrwt>
<pdfrwt beam="2">  1       -1 0.17831912E-01 0.17566981E+03</pdfrwt>
<totfact> 0.15525636E+02</totfact>
</mgrwt>
</event>
<event>
 4    1  0.4844629E-001  0.9960110E+02  0.7546771E-02  0.1281137E+00
          2   -1    0    0  501    0  0.00000000000E+00  0.00000000000E+00  0.21697832832E+04  0.21697832832E+04  0.00000000000E+00 0. -1.
         -2   -1    0    0    0  501 -0.00000000000E+00 -0.00000000000E+00 -0.45734011980E+01  0.45734011980E+01  0.00000000000E+00 0.  1.
         24    1    1    2    0    0 -0.13766197861E+02 -0.57128411861E+02  0.11012219342E+04  0.11057170199E+04  0.80419002446E+02 0. -1.
        -24    1    1    2    0    0  0.13766197861E+02  0.57128411861E+02  0.10639879478E+04  0.10686396645E+04  0.80419002446E+02 0.  0.
<mgrwt>
<rscale>  0 0.99601102E+02</rscale>
<asrwt>0</asrwt>
<pdfrwt beam="1">  1        2 0.33381199E+00 0.99601102E+02</pdfrwt>
<pdfrwt beam="2">  1       -2 0.70360192E-03 0.99601102E+02</pdfrwt>
<totfact> 0.20555188E+04</totfact>
</mgrwt>
</event>
<event>
 4    1  0.4844629E-001  0.8689644E+02  0.7546771E-02  0.1310546E+00
         -2   -1    0    0    0  501 -0.00000000000E+00  0.00000000000E+00  0.10169134853E+03  0.10169134853E+03  0.00000000000E+00 0.  1.
          2   -1    0    0  501    0  0.00000000000E+00 -0.00000000000E+00 -0.75068712755E+02  0.75068712755E+02  0.00000000000E+00 0. -1.
         24    1    1    2    0    0 -0.31083048004E+02  0.10845041050E+02  0.22518651273E+02  0.89766788948E+02  0.80419002446E+02 0.  1.
        -24    1    1    2    0    0  0.31083048004E+02 -0.10845041050E+02  0.41039845030E+01  0.86993272336E+02  0.80419002446E+02 0. -1.
<mgrwt>
<rscale>  0 0.86896425E+02</rscale>
<asrwt>0</asrwt>
<pdfrwt beam="1">  1        2 0.11549033E-01 0.86896436E+02</pdfrwt>
<pdfrwt beam="2">  1       -2 0.15644823E-01 0.86896436E+02</pdfrwt>
<totfact> 0.15187620E+04</totfact>
</mgrwt>
</event>
<event>
 4    1  0.4844629E-001  0.8362187E+02  0.7546771E-02  0.1319076E+00
          1   -1    0    0  501    0  0.00000000000E+00  0.00000000000E+00  0.88987862681E+03  0.88987862681E+03  0.00000000000E+00 0. -1.
         -1   -1    0    0    0  501 -0.00000000000E+00 -0.00000000000E+00 -0.83785184399E+01  0.83785184399E+01  0.00000000000E+00 0.  1.
         24    1    1    2    0    0  0.22615054801E+02 -0.37364633872E+01  0.32879909118E+03  0.33926606104E+03  0.80419002446E+02 0. -1.
        -24    1    1    2    0    0 -0.22615054801E+02  0.37364633872E+01  0.55270101720E+03  0.55899108421E+03  0.80419002446E+02 0. -1.
<mgrwt>
<rscale>  0 0.83621874E+02</rscale>
<asrwt>0</asrwt>
<pdfrwt beam="1">  1        1 0.13690433E+00 0.83621874E+02</pdfrwt>
<pdfrwt beam="2">  1       -1 0.12890035E-02 0.83621874E+02</pdfrwt>
<totfact> 0.23000706E+04</totfact>
</mgrwt>
</event>
<event>
 4    1  0.4844629E-001  0.2173928E+03  0.7546771E-02  0.1135842E+00
          2   -1    0    0  501    0  0.00000000000E+00  0.00000000000E+00  0.10404498974E+04  0.10404498974E+04  0.00000000000E+00 0. -1.
         -2   -1    0    0    0  501 -0.00000000000E+00 -0.00000000000E+00 -0.46137153328E+02  0.46137153328E+02  0.00000000000E+00 0.  1.
         24    1    1    2    0    0  0.17493553135E+03 -0.10094531615E+03  0.56478363634E+03  0.60517779934E+03  0.80419002446E+02 0.  1.
        -24    1    1    2    0    0 -0.17493553135E+03  0.10094531615E+03  0.42952910772E+03  0.48140925138E+03  0.80419002446E+02 0. -1.
<mgrwt>
<rscale>  0 0.21739276E+03</rscale>
<asrwt>0</asrwt>
<pdfrwt beam="1">  1        2 0.16006920E+00 0.21739276E+03</pdfrwt>
<pdfrwt beam="2">  1       -2 0.70980244E-02 0.21739276E+03</pdfrwt>
<totfact> 0.28160391E+03</totfact>
</mgrwt>
</event>
<event>
 4    1  0.4844629E-001  0.9157241E+02  0.7546771E-02  0.1299088E+00
         -1   -1    0    0    0  501 -0.00000000000E+00  0.00000000000E+00  0.74887140801E+02  0.74887140801E+02  0.00000000000E+00 0.  1.
          1   -1    0    0  501    0  0.00000000000E+00 -0.00000000000E+00 -0.13480884891E+03  0.13480884891E+03  0.00000000000E+00 0. -1.
         24    1    1    2    0    0 -0.18388698883E+02 -0.39751051661E+02  0.13189872602E+02  0.92517452669E+02  0.80419002446E+02 0.  0.
        -24    1    1    2    0    0  0.18388698883E+02  0.39751051661E+02 -0.73111580708E+02  0.11717853704E+03  0.80419002446E+02 0.  0.
<mgrwt>
<rscale>  0 0.91572410E+02</rscale>
<asrwt>0</asrwt>
<pdfrwt beam="1">  1        1 0.20739823E-01 0.91572410E+02</pdfrwt>
<pdfrwt beam="2">  1       -1 0.11521099E-01 0.91572410E+02</pdfrwt>
<totfact> 0.10782957E+04</totfact>
</mgrwt>
</event>
<event>
 4    1  0.4844629E-001  0.8401881E+02  0.7546771E-02  0.1318019E+00
          2   -1    0    0  501    0  0.00000000000E+00  0.00000000000E+00  0.33326129689E+03  0.33326129689E+03  0.00000000000E+00 0. -1.
         -2   -1    0    0    0  501 -0.00000000000E+00 -0.00000000000E+00 -0.21260164996E+02  0.21260164996E+02  0.00000000000E+00 0.  1.
         24    1    1    2    0    0 -0.19821426562E+02  0.14108726200E+02  0.16674457448E+03  0.18671613261E+03  0.80419002446E+02 0.  1.
        -24    1    1    2    0    0  0.19821426562E+02 -0.14108726200E+02  0.14525655742E+03  0.16780532928E+03  0.80419002446E+02 0. -1.
<mgrwt>
<rscale>  0 0.84018814E+02</rscale>
<asrwt>0</asrwt>
<pdfrwt beam="1">  1        2 0.51270965E-01 0.84018814E+02</pdfrwt>
<pdfrwt beam="2">  1       -2 0.32707949E-02 0.84018814E+02</pdfrwt>
<totfact> 0.31881857E+04</totfact>
</mgrwt>
</event>
<event>
 4    1  0.4844629E-001  0.8220682E+02  0.7546771E-02  0.1322903E+00
          1   -1    0    0  501    0  0.00000000000E+00  0.00000000000E+00  0.21506949754E+04  0.21506949754E+04  0.00000000000E+00 0. -1.
         -1   -1    0    0    0  501 -0.00000000000E+00 -0.00000000000E+00 -0.21836291991E+02  0.21836291991E+02  0.00000000000E+00 0.  1.
         24    1    1    2    0    0 -0.41058852189E+01 -0.16549540045E+02  0.59354220034E+02  0.10139469887E+03  0.80419002446E+02 0.  1.
        -24    1    1    2    0    0  0.41058852189E+01  0.16549540045E+02  0.20695044634E+04  0.20711365685E+04  0.80419002446E+02 0. -1.
<mgrwt>
<rscale>  0 0.82206822E+02</rscale>
<asrwt>0</asrwt>
<pdfrwt beam="1">  1        1 0.33087598E+00 0.82206822E+02</pdfrwt>
<pdfrwt beam="2">  1       -1 0.33594312E-02 0.82206822E+02</pdfrwt>
<totfact> 0.88379038E+02</totfact>
</mgrwt>
</event>
<event>
 4    1  0.4844629E-001  0.9841001E+02  0.7546771E-02  0.1283675E+00
         -4   -1    0    0    0  501 -0.00000000000E+00  0.00000000000E+00  0.42647646799E+01  0.42647646799E+01  0.00000000000E+00 0.  1.
          4   -1    0    0  501    0  0.00000000000E+00 -0.00000000000E+00 -0.23199038753E+04  0.23199038753E+04  0.00000000000E+00 0. -1.
         24    1    1    2    0    0 -0.41947815771E+02  0.38179708130E+02 -0.98879133445E+03  0.99367642037E+03  0.80419002446E+02 0.  1.
        -24    1    1    2    0    0  0.41947815771E+02 -0.38179708130E+02 -0.13268477761E+04  0.13304922196E+04  0.80419002446E+02 0. -1.
<mgrwt>
<rscale>  0 0.98409998E+02</rscale>
<asrwt>0</asrwt>
<pdfrwt beam="1">  1        4 0.35690806E+00 0.98410010E+02</pdfrwt>
<pdfrwt beam="2">  1       -4 0.65611807E-03 0.98410010E+02</pdfrwt>
<totfact> 0.15434059E+02</totfact>
</mgrwt>
</event>
<event>
 4    1  0.4844629E-001  0.9729466E+02  0.7546771E-02  0.1286090E+00
          1   -1    0    0  501    0  0.00000000000E+00  0.00000000000E+00  0.21118972731E+03  0.21118972731E+03  0.00000000000E+00 0. -1.
         -1   -1    0    0    0  501 -0.00000000000E+00 -0.00000000000E+00 -0.75774018212E+02  0.75774018212E+02  0.00000000000E+00 0.  1.
         24    1    1    2    0    0 -0.49123015613E+02  0.24206707625E+02 -0.23992543271E+02  0.10020924830E+03  0.80419002446E+02 0.  1.
        -24    1    1    2    0    0  0.49123015613E+02 -0.24206707625E+02  0.15940825237E+03  0.18675449723E+03  0.80419002446E+02 0. -1.
<mgrwt>
<rscale>  0 0.97294662E+02</rscale>
<asrwt>0</asrwt>
<pdfrwt beam="1">  1        1 0.32490727E-01 0.97294662E+02</pdfrwt>
<pdfrwt beam="2">  1       -1 0.11657541E-01 0.97294662E+02</pdfrwt>
<totfact> 0.61035746E+03</totfact>
</mgrwt>
</event>
<event>
 4    1  0.4844629E-001  0.8432469E+02  0.7546771E-02  0.1317208E+00
         -2   -1    0    0    0  501 -0.00000000000E+00  0.00000000000E+00  0.11921233647E+02  0.11921233647E+02  0.00000000000E+00 0.  1.
          2   -1    0    0  501    0  0.00000000000E+00 -0.00000000000E+00 -0.11606981497E+04  0.11606981497E+04  0.00000000000E+00 0. -1.
         24    1    1    2    0    0 -0.34762670819E+01  0.25126727664E+02 -0.98317348143E+03  0.98678302955E+03  0.80419002446E+02 0. -1.
        -24    1    1    2    0    0  0.34762670819E+01 -0.25126727664E+02 -0.16560343458E+03  0.18583635375E+03  0.80419002446E+02 0.  1.
<mgrwt>
<rscale>  0 0.84324687E+02</rscale>
<asrwt>0</asrwt>
<pdfrwt beam="1">  1        2 0.17856900E+00 0.84324687E+02</pdfrwt>
<pdfrwt beam="2">  1       -2 0.18340354E-02 0.84324687E+02</pdfrwt>
<totfact> 0.17138082E+04</totfact>
</mgrwt>
</event>
<event>
 4    1  0.4844629E-001  0.8392996E+02  0.7546771E-02  0.1318255E+00
         -2   -1    0    0    0  501 -0.00000000000E+00  0.00000000000E+00  0.76243715191E+01  0.76243715191E+01  0.00000000000E+00 0.  1.
          2   -1    0    0  501    0  0.00000000000E+00 -0.00000000000E+00 -0.17386925999E+04  0.17386925999E+04  0.00000000000E+00 0. -1.
         24    1    1    2    0    0  0.18028504491E+02  0.15874352074E+02 -0.14632604319E+04  0.14656654903E+04  0.80419002446E+02 0.  0.
        -24    1    1    2    0    0 -0.18028504491E+02 -0.15874352074E+02 -0.26780779653E+03  0.28065148114E+03  0.80419002446E+02 0.  1.
<mgrwt>
<rscale>  0 0.83929959E+02</rscale>
<asrwt>0</asrwt>
<pdfrwt beam="1">  1        2 0.26749152E+00 0.83929959E+02</pdfrwt>
<pdfrwt beam="2">  1       -2 0.11729787E-02 0.83929959E+02</pdfrwt>
<totfact> 0.16280605E+04</totfact>
</mgrwt>
</event>
<event>
 4    1  0.4844629E-001  0.1075462E+03  0.7546771E-02  0.1265183E+00
         -2   -1    0    0    0  501 -0.00000000000E+00  0.00000000000E+00  0.11719702198E+03  0.11719702198E+03  0.00000000000E+00 0.  1.
          2   -1    0    0  501    0  0.00000000000E+00 -0.00000000000E+00 -0.26301539960E+03  0.26301539960E+03  0.00000000000E+00 0. -1.
         24    1    1    2    0    0  0.12877583388E+02 -0.70236248979E+02 -0.22317425004E+03  0.24773559426E+03  0.80419002446E+02 0. -1.
        -24    1    1    2    0    0 -0.12877583388E+02  0.70236248979E+02  0.77355872424E+02  0.13247682732E+03  0.80419002446E+02 0.  1.
<mgrwt>
<rscale>  0 0.10754617E+03</rscale>
<asrwt>0</asrwt>
<pdfrwt beam="1">  1        2 0.40463907E-01 0.10754617E+03</pdfrwt>
<pdfrwt beam="2">  1       -2 0.18030311E-01 0.10754617E+03</pdfrwt>
<totfact> 0.30298304E+03</totfact>
</mgrwt>
</event>
<event>
 4    1  0.4844629E-001  0.1068581E+03  0.7546771E-02  0.1266501E+00
         -1   -1    0    0    0  501 -0.00000000000E+00  0.00000000000E+00  0.24475857308E+03  0.24475857308E+03  0.00000000000E+00 0.  1.
          1   -1    0    0  501    0  0.00000000000E+00 -0.00000000000E+00 -0.48178240274E+02  0.48178240274E+02  0.00000000000E+00 0. -1.
         24    1    1    2    0    0 -0.68596865052E+02  0.15681318971E+02  0.12435347552E+03  0.16395864261E+03  0.80419002446E+02 0.  1.
        -24    1    1    2    0    0  0.68596865052E+02 -0.15681318971E+02  0.72226857286E+02  0.12897817074E+03  0.80419002446E+02 0. -1.
<mgrwt>
<rscale>  0 0.10685808E+03</rscale>
<asrwt>0</asrwt>
<pdfrwt beam="1">  1        1 0.74120371E-02 0.10685808E+03</pdfrwt>
<pdfrwt beam="2">  1       -1 0.37655164E-01 0.10685808E+03</pdfrwt>
<totfact> 0.61868516E+03</totfact>
</mgrwt>
</event>
<event>
 4    1  0.4844629E-001  0.9725342E+02  0.7546771E-02  0.1286180E+00
         -4   -1    0    0    0  501 -0.00000000000E+00  0.00000000000E+00  0.19152142684E+03  0.19152142684E+03  0.00000000000E+00 0.  1.
          4   -1    0    0  501    0  0.00000000000E+00 -0.00000000000E+00 -0.52563137545E+02  0.52563137545E+02  0.00000000000E+00 0. -1.
         24    1    1    2    0    0 -0.50298048267E+02 -0.21473642264E+02  0.39468385706E+02  0.10495704072E+03  0.80419002446E+02 0.  0.
        -24    1    1    2    0    0  0.50298048267E+02  0.21473642264E+02  0.99489903591E+02  0.13912752367E+03  0.80419002446E+02 0.  1.
<mgrwt>
<rscale>  0 0.97253416E+02</rscale>
<asrwt>0</asrwt>
<pdfrwt beam="1">  1        4 0.80866366E-02 0.97253416E+02</pdfrwt>
<pdfrwt beam="2">  1       -4 0.29464835E-01 0.97253416E+02</pdfrwt>
<totfact> 0.18116722E+03</totfact>
</mgrwt>
</event>
<event>
 4    1  0.4844629E-001  0.8213191E+02  0.7546771E-02  0.1323108E+00
         -1   -1    0    0    0  501 -0.00000000000E+00  0.00000000000E+00  0.22874209277E+03  0.22874209277E+03  0.00000000000E+00 0.  1.
          1   -1    0    0  501    0  0.00000000000E+00 -0.00000000000E+00 -0.51445680039E+02  0.51445680039E+02  0.00000000000E+00 0. -1.
         24    1    1    2    0    0  0.98062069712E+01 -0.13500851208E+02  0.18016824002E+03  0.19800566998E+03  0.80419002446E+02 0.  1.
        -24    1    1    2    0    0 -0.98062069712E+01  0.13500851208E+02 -0.28718272922E+01  0.82182102826E+02  0.80419002446E+02 0. -1.
<mgrwt>
<rscale>  0 0.82131910E+02</rscale>
<asrwt>0</asrwt>
<pdfrwt beam="1">  1        1 0.79147201E-02 0.82131910E+02</pdfrwt>
<pdfrwt beam="2">  1       -1 0.35191091E-01 0.82131910E+02</pdfrwt>
<totfact> 0.62271335E+03</totfact>
</mgrwt>
</event>
<event>
 4    1  0.4844629E-001  0.8564865E+02  0.7546771E-02  0.1313745E+00
         -2   -1    0    0    0  501 -0.00000000000E+00  0.00000000000E+00  0.53170216211E+01  0.53170216211E+01  0.00000000000E+00 0.  1.
          2   -1    0    0  501    0  0.00000000000E+00 -0.00000000000E+00 -0.23024035716E+04  0.23024035716E+04  0.00000000000E+00 0. -1.
         24    1    1    2    0    0 -0.23980293183E+02 -0.17129548309E+02 -0.18790136133E+04  0.18809646065E+04  0.80419002446E+02 0. -1.
        -24    1    1    2    0    0  0.23980293183E+02  0.17129548309E+02 -0.41807293665E+03  0.42675598672E+03  0.80419002446E+02 0.  1.
<mgrwt>
<rscale>  0 0.85648653E+02</rscale>
<asrwt>0</asrwt>
<pdfrwt beam="1">  1        2 0.35421600E+00 0.85648653E+02</pdfrwt>
<pdfrwt beam="2">  1       -2 0.81800318E-03 0.85648653E+02</pdfrwt>
<totfact> 0.14115575E+04</totfact>
</mgrwt>
</event>
<event>
 4    1  0.4844629E-001  0.9547114E+02  0.7546771E-02  0.1290118E+00
          2   -1    0    0  501    0  0.00000000000E+00  0.00000000000E+00  0.18106238631E+04  0.18106238631E+04  0.00000000000E+00 0. -1.
         -2   -1    0    0    0  501 -0.00000000000E+00 -0.00000000000E+00 -0.67127231219E+01  0.67127231219E+01  0.00000000000E+00 0.  1.
         24    1    1    2    0    0  0.40688999570E+02  0.31494876598E+02  0.13563588366E+04  0.13597146875E+04  0.80419002446E+02 0. -1.
        -24    1    1    2    0    0 -0.40688999570E+02 -0.31494876598E+02  0.44755230333E+03  0.45762189864E+03  0.80419002446E+02 0.  1.
<mgrwt>
<rscale>  0 0.95471136E+02</rscale>
<asrwt>0</asrwt>
<pdfrwt beam="1">  1        2 0.27855713E+00 0.95471136E+02</pdfrwt>
<pdfrwt beam="2">  1       -2 0.10327281E-02 0.95471136E+02</pdfrwt>
<totfact> 0.18088966E+04</totfact>
</mgrwt>
</event>
<event>
 4    1  0.4844629E-001  0.9019318E+02  0.7546771E-02  0.1302385E+00
         -2   -1    0    0    0  501 -0.00000000000E+00  0.00000000000E+00  0.49457242796E+01  0.49457242796E+01  0.00000000000E+00 0.  1.
          2   -1    0    0  501    0  0.00000000000E+00 -0.00000000000E+00 -0.32997275597E+04  0.32997275597E+04  0.00000000000E+00 0. -1.
         24    1    1    2    0    0  0.10238990752E+02 -0.39531719712E+02 -0.28175550941E+04  0.28189983182E+04  0.80419002446E+02 0. -1.
        -24    1    1    2    0    0 -0.10238990752E+02  0.39531719712E+02 -0.47722674131E+03  0.48567496577E+03  0.80419002446E+02 0.  1.
<mgrwt>
<rscale>  0 0.90193180E+02</rscale>
<asrwt>0</asrwt>
<pdfrwt beam="1">  1        2 0.50764987E+00 0.90193180E+02</pdfrwt>
<pdfrwt beam="2">  1       -2 0.76088144E-03 0.90193180E+02</pdfrwt>
<totfact> 0.44042174E+03</totfact>
</mgrwt>
</event>
<event>
 4    1  0.4844629E-001  0.1413875E+03  0.7546771E-02  0.1211474E+00
          2   -1    0    0  501    0  0.00000000000E+00  0.00000000000E+00  0.13225257649E+04  0.13225257649E+04  0.00000000000E+00 0. -1.
         -2   -1    0    0    0  501 -0.00000000000E+00 -0.00000000000E+00 -0.41647440393E+02  0.41647440393E+02  0.00000000000E+00 0.  1.
         24    1    1    2    0    0  0.54173833024E+02 -0.10289997172E+03  0.11848555526E+04  0.11932615409E+04  0.80419002446E+02 0. -1.
        -24    1    1    2    0    0 -0.54173833024E+02  0.10289997172E+03  0.96022771892E+02  0.17091166444E+03  0.80419002446E+02 0.  1.
<mgrwt>
<rscale>  0 0.14138750E+03</rscale>
<asrwt>0</asrwt>
<pdfrwt beam="1">  1        2 0.20346547E+00 0.14138750E+03</pdfrwt>
<pdfrwt beam="2">  1       -2 0.64072995E-02 0.14138750E+03</pdfrwt>
<totfact> 0.22727425E+03</totfact>
</mgrwt>
</event>
<event>
 4    1  0.4844629E-001  0.1070349E+03  0.7546771E-02  0.1266161E+00
          1   -1    0    0  501    0  0.00000000000E+00  0.00000000000E+00  0.15583758525E+04  0.15583758525E+04  0.00000000000E+00 0. -1.
         -1   -1    0    0    0  501 -0.00000000000E+00 -0.00000000000E+00 -0.13429811816E+02  0.13429811816E+02  0.00000000000E+00 0.  1.
         24    1    1    2    0    0  0.69616173678E+02 -0.11951547122E+02  0.24375532929E+03  0.26622007367E+03  0.80419002446E+02 0.  1.
        -24    1    1    2    0    0 -0.69616173678E+02  0.11951547122E+02  0.13011907114E+04  0.13055855906E+04  0.80419002446E+02 0. -1.
<mgrwt>
<rscale>  0 0.10703489E+03</rscale>
<asrwt>0</asrwt>
<pdfrwt beam="1">  1        1 0.23974999E+00 0.10703489E+03</pdfrwt>
<pdfrwt beam="2">  1       -1 0.20661261E-02 0.10703489E+03</pdfrwt>
<totfact> 0.41963842E+03</totfact>
</mgrwt>
</event>
<event>
 4    1  0.4844629E-001  0.8160746E+02  0.7546771E-02  0.1324551E+00
          2   -1    0    0  501    0  0.00000000000E+00  0.00000000000E+00  0.18859078657E+02  0.18859078657E+02  0.00000000000E+00 0. -1.
         -2   -1    0    0    0  501 -0.00000000000E+00 -0.00000000000E+00 -0.35808526984E+03  0.35808526984E+03  0.00000000000E+00 0.  1.
         24    1    1    2    0    0 -0.11863538541E+02 -0.71985238873E+01 -0.14745049273E+03  0.16852722645E+03  0.80419002446E+02 0. -1.
        -24    1    1    2    0    0  0.11863538541E+02  0.71985238873E+01 -0.19177569845E+03  0.20841712205E+03  0.80419002446E+02 0.  1.
<mgrwt>
<rscale>  0 0.81607464E+02</rscale>
<asrwt>0</asrwt>
<pdfrwt beam="1">  1        2 0.29013968E-02 0.81607464E+02</pdfrwt>
<pdfrwt beam="2">  1       -2 0.55090040E-01 0.81607464E+02</pdfrwt>
<totfact> 0.91820772E+03</totfact>
</mgrwt>
</event>
<event>
 4    1  0.4844629E-001  0.8203108E+02  0.7546771E-02  0.1323384E+00
         -2   -1    0    0    0  501 -0.00000000000E+00  0.00000000000E+00  0.70432670791E+01  0.70432670791E+01  0.00000000000E+00 0.  1.
          2   -1    0    0  501    0  0.00000000000E+00 -0.00000000000E+00 -0.12666139469E+04  0.12666139469E+04  0.00000000000E+00 0. -1.
         24    1    1    2    0    0 -0.49634271581E+01  0.15402827107E+02 -0.94545569060E+03  0.94900767201E+03  0.80419002446E+02 0.  0.
        -24    1    1    2    0    0  0.49634271581E+01 -0.15402827107E+02 -0.31411498918E+03  0.32464954192E+03  0.80419002446E+02 0.  1.
<mgrwt>
<rscale>  0 0.82031083E+02</rscale>
<asrwt>0</asrwt>
<pdfrwt beam="1">  1        2 0.19486357E+00 0.82031083E+02</pdfrwt>
<pdfrwt beam="2">  1       -2 0.10835802E-02 0.82031083E+02</pdfrwt>
<totfact> 0.31674794E+04</totfact>
</mgrwt>
</event>
<event>
 4    1  0.4844629E-001  0.8591841E+02  0.7546771E-02  0.1313048E+00
         -1   -1    0    0    0  501 -0.00000000000E+00  0.00000000000E+00  0.36988657160E+02  0.36988657160E+02  0.00000000000E+00 0.  1.
          1   -1    0    0  501    0  0.00000000000E+00 -0.00000000000E+00 -0.60619605404E+03  0.60619605404E+03  0.00000000000E+00 0. -1.
         24    1    1    2    0    0  0.11886088041E+02 -0.27811468932E+02 -0.21216508007E+02  0.88499226321E+02  0.80419002446E+02 0.  1.
        -24    1    1    2    0    0 -0.11886088041E+02  0.27811468932E+02 -0.54799088887E+03  0.55468548488E+03  0.80419002446E+02 0. -1.
<mgrwt>
<rscale>  0 0.85918408E+02</rscale>
<asrwt>0</asrwt>
<pdfrwt beam="1">  1        1 0.93260928E-01 0.85918408E+02</pdfrwt>
<pdfrwt beam="2">  1       -1 0.56905628E-02 0.85918408E+02</pdfrwt>
<totfact> 0.47390891E+03</totfact>
</mgrwt>
</event>
<event>
 4    1  0.4844629E-001  0.8536859E+02  0.7546771E-02  0.1314471E+00
         -3   -1    0    0    0  501 -0.00000000000E+00  0.00000000000E+00  0.15562399394E+02  0.15562399394E+02  0.00000000000E+00 0.  1.
          3   -1    0    0  501    0  0.00000000000E+00 -0.00000000000E+00 -0.46948891037E+03  0.46948891037E+03  0.00000000000E+00 0. -1.
         24    1    1    2    0    0  0.22333017232E+02 -0.17939159346E+02 -0.23919363443E+03  0.25397123420E+03  0.80419002446E+02 0.  0.
        -24    1    1    2    0    0 -0.22333017232E+02  0.17939159346E+02 -0.21473287654E+03  0.23108007556E+03  0.80419002446E+02 0.  0.
<mgrwt>
<rscale>  0 0.85368582E+02</rscale>
<asrwt>0</asrwt>
<pdfrwt beam="1">  1        3 0.72229042E-01 0.85368593E+02</pdfrwt>
<pdfrwt beam="2">  1       -3 0.23942160E-02 0.85368593E+02</pdfrwt>
<totfact> 0.28083225E+03</totfact>
</mgrwt>
</event>
<event>
 4    1  0.4844629E-001  0.1238579E+03  0.7546771E-02  0.1236865E+00
          1   -1    0    0  501    0  0.00000000000E+00  0.00000000000E+00  0.73298950341E+03  0.73298950341E+03  0.00000000000E+00 0. -1.
         -1   -1    0    0    0  501 -0.00000000000E+00 -0.00000000000E+00 -0.21143854712E+02  0.21143854712E+02  0.00000000000E+00 0.  1.
         24    1    1    2    0    0 -0.93332719862E+02 -0.12750258877E+02  0.31791811862E+03  0.34119307115E+03  0.80419002446E+02 0.  1.
        -24    1    1    2    0    0  0.93332719862E+02  0.12750258877E+02  0.39392753008E+03  0.41294028698E+03  0.80419002446E+02 0. -1.
<mgrwt>
<rscale>  0 0.12385791E+03</rscale>
<asrwt>0</asrwt>
<pdfrwt beam="1">  1        1 0.11276760E+00 0.12385791E+03</pdfrwt>
<pdfrwt beam="2">  1       -1 0.32529013E-02 0.12385791E+03</pdfrwt>
<totfact> 0.84217220E+03</totfact>
</mgrwt>
</event>
<event>
 4    1  0.4844629E-001  0.8689747E+02  0.7546771E-02  0.1310544E+00
         -2   -1    0    0    0  501 -0.00000000000E+00  0.00000000000E+00  0.94897230005E+02  0.94897230005E+02  0.00000000000E+00 0.  1.
          2   -1    0    0  501    0  0.00000000000E+00 -0.00000000000E+00 -0.17734086105E+03  0.17734086105E+03  0.00000000000E+00 0. -1.
         24    1    1    2    0    0 -0.31775832609E+02  0.86168914489E+01 -0.14229002720E+03  0.16672618916E+03  0.80419002446E+02 0.  0.
        -24    1    1    2    0    0  0.31775832609E+02 -0.86168914489E+01  0.59846396150E+02  0.10551190190E+03  0.80419002446E+02 0.  1.
<mgrwt>
<rscale>  0 0.86897470E+02</rscale>
<asrwt>0</asrwt>
<pdfrwt beam="1">  1        2 0.27283209E-01 0.86897470E+02</pdfrwt>
<pdfrwt beam="2">  1       -2 0.14599574E-01 0.86897470E+02</pdfrwt>
<totfact> 0.64163379E+03</totfact>
</mgrwt>
</event>
<event>
 4    1  0.4844629E-001  0.8078358E+02  0.7546771E-02  0.1326842E+00
          2   -1    0    0  501    0  0.00000000000E+00  0.00000000000E+00  0.17447232649E+04  0.17447232649E+04  0.00000000000E+00 0. -1.
         -2   -1    0    0    0  501 -0.00000000000E+00 -0.00000000000E+00 -0.37446335039E+01  0.37446335039E+01  0.00000000000E+00 0.  1.
         24    1    1    2    0    0  0.50880312444E+01  0.57340011858E+01  0.84113394388E+03  0.84500431616E+03  0.80419002446E+02 0.  1.
        -24    1    1    2    0    0 -0.50880312444E+01 -0.57340011858E+01  0.89984468754E+03  0.90346358227E+03  0.80419002446E+02 0. -1.
<mgrwt>
<rscale>  0 0.80783565E+02</rscale>
<asrwt>0</asrwt>
<pdfrwt beam="1">  1        2 0.26841831E+00 0.80783575E+02</pdfrwt>
<pdfrwt beam="2">  1       -2 0.57609886E-03 0.80783575E+02</pdfrwt>
<totfact> 0.43848782E+04</totfact>
</mgrwt>
</event>
<event>
 4    1  0.4844629E-001  0.1240949E+03  0.7546771E-02  0.1236491E+00
         -1   -1    0    0    0  501 -0.00000000000E+00  0.00000000000E+00  0.58005124886E+03  0.58005124886E+03  0.00000000000E+00 0.  1.
          1   -1    0    0  501    0  0.00000000000E+00 -0.00000000000E+00 -0.27084585266E+02  0.27084585266E+02  0.00000000000E+00 0. -1.
         24    1    1    2    0    0  0.42456389536E+02  0.84437979519E+02  0.23377802550E+03  0.26467281416E+03  0.80419002446E+02 0. -1.
        -24    1    1    2    0    0 -0.42456389536E+02 -0.84437979519E+02  0.31918863809E+03  0.34246301996E+03  0.80419002446E+02 0.  1.
<mgrwt>
<rscale>  0 0.12409487E+03</rscale>
<asrwt>0</asrwt>
<pdfrwt beam="1">  1        1 0.41668597E-02 0.12409489E+03</pdfrwt>
<pdfrwt beam="2">  1       -1 0.89238644E-01 0.12409489E+03</pdfrwt>
<totfact> 0.26699368E+03</totfact>
</mgrwt>
</event>
<event>
 4    1  0.4844629E-001  0.1076441E+03  0.7546771E-02  0.1264996E+00
          2   -1    0    0  501    0  0.00000000000E+00  0.00000000000E+00  0.27678291372E+02  0.27678291372E+02  0.00000000000E+00 0. -1.
         -2   -1    0    0    0  501 -0.00000000000E+00 -0.00000000000E+00 -0.43028850414E+03  0.43028850414E+03  0.00000000000E+00 0.  1.
         24    1    1    2    0    0  0.17952490650E+02  0.69265740042E+02 -0.16363021718E+03  0.19586244814E+03  0.80419002446E+02 0.  1.
        -24    1    1    2    0    0 -0.17952490650E+02 -0.69265740042E+02 -0.23897999559E+03  0.26210434737E+03  0.80419002446E+02 0. -1.
<mgrwt>
<rscale>  0 0.10764409E+03</rscale>
<asrwt>0</asrwt>
<pdfrwt beam="1">  1        2 0.42581990E-02 0.10764409E+03</pdfrwt>
<pdfrwt beam="2">  1       -2 0.66198226E-01 0.10764409E+03</pdfrwt>
<totfact> 0.39105576E+03</totfact>
</mgrwt>
</event>
<event>
 4    1  0.4844629E-001  0.1096862E+03  0.7546771E-02  0.1261152E+00
          1   -1    0    0  501    0  0.00000000000E+00  0.00000000000E+00  0.22203335132E+03  0.22203335132E+03  0.00000000000E+00 0. -1.
         -1   -1    0    0    0  501 -0.00000000000E+00 -0.00000000000E+00 -0.56562396363E+02  0.56562396363E+02  0.00000000000E+00 0.  1.
         24    1    1    2    0    0  0.17667212719E+02  0.72468705678E+02  0.54182178861E+02  0.12233874353E+03  0.80419002446E+02 0. -1.
        -24    1    1    2    0    0 -0.17667212719E+02 -0.72468705678E+02  0.11128877610E+03  0.15625700416E+03  0.80419002446E+02 0.  1.
<mgrwt>
<rscale>  0 0.10968619E+03</rscale>
<asrwt>0</asrwt>
<pdfrwt beam="1">  1        1 0.34158977E-01 0.10968619E+03</pdfrwt>
<pdfrwt beam="2">  1       -1 0.87019073E-02 0.10968619E+03</pdfrwt>
<totfact> 0.90249419E+03</totfact>
</mgrwt>
</event>
<event>
 4    1  0.4844629E-001  0.8168586E+02  0.7546771E-02  0.1324334E+00
          1   -1    0    0  501    0  0.00000000000E+00  0.00000000000E+00  0.73695298358E+02  0.73695298358E+02  0.00000000000E+00 0. -1.
         -1   -1    0    0    0  501 -0.00000000000E+00 -0.00000000000E+00 -0.10483880244E+03  0.10483880244E+03  0.00000000000E+00 0.  1.
         24    1    1    2    0    0  0.55578330885E+01 -0.13208841537E+02 -0.48535562228E+02  0.95017260319E+02  0.80419002446E+02 0.  0.
        -24    1    1    2    0    0 -0.55578330885E+01  0.13208841537E+02  0.17392058143E+02  0.83516840483E+02  0.80419002446E+02 0. -1.
<mgrwt>
<rscale>  0 0.81685855E+02</rscale>
<asrwt>0</asrwt>
<pdfrwt beam="1">  1        1 0.11337738E-01 0.81685855E+02</pdfrwt>
<pdfrwt beam="2">  1       -1 0.16129046E-01 0.81685855E+02</pdfrwt>
<totfact> 0.13718861E+04</totfact>
</mgrwt>
</event>
<event>
 4    1  0.4844629E-001  0.9310570E+02  0.7546771E-02  0.1295500E+00
         -1   -1    0    0    0  501 -0.00000000000E+00  0.00000000000E+00  0.45853354445E+02  0.45853354445E+02  0.00000000000E+00 0.  1.
          1   -1    0    0  501    0  0.00000000000E+00 -0.00000000000E+00 -0.56255151600E+03  0.56255151600E+03  0.00000000000E+00 0. -1.
         24    1    1    2    0    0 -0.46738010794E+02 -0.41246655720E+01 -0.10477616903E+02  0.93693387864E+02  0.80419002446E+02 0.  1.
        -24    1    1    2    0    0  0.46738010794E+02  0.41246655720E+01 -0.50622054465E+03  0.51471148258E+03  0.80419002446E+02 0. -1.
<mgrwt>
<rscale>  0 0.93105695E+02</rscale>
<asrwt>0</asrwt>
<pdfrwt beam="1">  1        1 0.86546387E-01 0.93105695E+02</pdfrwt>
<pdfrwt beam="2">  1       -1 0.70543622E-02 0.93105695E+02</pdfrwt>
<totfact> 0.38286961E+03</totfact>
</mgrwt>
</event>
<event>
 4    1  0.4844629E-001  0.8994786E+02  0.7546771E-02  0.1302978E+00
          2   -1    0    0  501    0  0.00000000000E+00  0.00000000000E+00  0.26175337881E+04  0.26175337881E+04  0.00000000000E+00 0. -1.
         -2   -1    0    0    0  501 -0.00000000000E+00 -0.00000000000E+00 -0.65480351533E+01  0.65480351533E+01  0.00000000000E+00 0.  1.
         24    1    1    2    0    0 -0.15960393535E+02 -0.36995497450E+02  0.22588334864E+04  0.22606236609E+04  0.80419002446E+02 0. -1.
        -24    1    1    2    0    0  0.15960393535E+02  0.36995497450E+02  0.35215226663E+03  0.36345816244E+03  0.80419002446E+02 0.  1.
<mgrwt>
<rscale>  0 0.89947857E+02</rscale>
<asrwt>0</asrwt>
<pdfrwt beam="1">  1        2 0.40269667E+00 0.89947857E+02</pdfrwt>
<pdfrwt beam="2">  1       -2 0.10073921E-02 0.89947857E+02</pdfrwt>
<totfact> 0.72144496E+03</totfact>
</mgrwt>
</event>
<event>
 4    1  0.4844629E-001  0.8940251E+02  0.7546771E-02  0.1304305E+00
          2   -1    0    0  501    0  0.00000000000E+00  0.00000000000E+00  0.10645314869E+03  0.10645314869E+03  0.00000000000E+00 0. -1.
         -2   -1    0    0    0  501 -0.00000000000E+00 -0.00000000000E+00 -0.75109712898E+02  0.75109712898E+02  0.00000000000E+00 0.  1.
         24    1    1    2    0    0  0.38259919256E+02 -0.78592619451E+01  0.13954768938E+02  0.90485031636E+02  0.80419002446E+02 0. -1.
        -24    1    1    2    0    0 -0.38259919256E+02  0.78592619451E+01  0.17388666857E+02  0.91077829954E+02  0.80419002446E+02 0.  0.
<mgrwt>
<rscale>  0 0.89402502E+02</rscale>
<asrwt>0</asrwt>
<pdfrwt beam="1">  1        2 0.16377408E-01 0.89402513E+02</pdfrwt>
<pdfrwt beam="2">  1       -2 0.11555340E-01 0.89402513E+02</pdfrwt>
<totfact> 0.16445337E+04</totfact>
</mgrwt>
</event>
<event>
 4    1  0.4844629E-001  0.8202378E+02  0.7546771E-02  0.1323404E+00
         -2   -1    0    0    0  501 -0.00000000000E+00  0.00000000000E+00  0.49543786567E+01  0.49543786567E+01  0.00000000000E+00 0.  1.
          2   -1    0    0  501    0  0.00000000000E+00 -0.00000000000E+00 -0.13698116409E+04  0.13698116409E+04  0.00000000000E+00 0. -1.
         24    1    1    2    0    0 -0.83250802530E+01  0.13833786376E+02 -0.61851726548E+03  0.62393229141E+03  0.80419002446E+02 0.  1.
        -24    1    1    2    0    0  0.83250802530E+01 -0.13833786376E+02 -0.74633999671E+03  0.75083372810E+03  0.80419002446E+02 0. -1.
<mgrwt>
<rscale>  0 0.82023766E+02</rscale>
<asrwt>0</asrwt>
<pdfrwt beam="1">  1        2 0.21074023E+00 0.82023777E+02</pdfrwt>
<pdfrwt beam="2">  1       -2 0.76221218E-03 0.82023777E+02</pdfrwt>
<totfact> 0.45911313E+04</totfact>
</mgrwt>
</event>
<event>
 4    1  0.4844629E-001  0.8307969E+02  0.7546771E-02  0.1320532E+00
          2   -1    0    0  501    0  0.00000000000E+00  0.00000000000E+00  0.98842870819E+03  0.98842870819E+03  0.00000000000E+00 0. -1.
         -2   -1    0    0    0  501 -0.00000000000E+00 -0.00000000000E+00 -0.11759602835E+02  0.11759602835E+02  0.00000000000E+00 0.  1.
         24    1    1    2    0    0  0.20566165779E+02  0.34715901477E+01  0.80705747439E+03  0.81132237861E+03  0.80419002446E+02 0.  0.
        -24    1    1    2    0    0 -0.20566165779E+02 -0.34715901477E+01  0.16961163096E+03  0.18886593241E+03  0.80419002446E+02 0.  1.
<mgrwt>
<rscale>  0 0.83079691E+02</rscale>
<asrwt>0</asrwt>
<pdfrwt beam="1">  1        2 0.15206589E+00 0.83079691E+02</pdfrwt>
<pdfrwt beam="2">  1       -2 0.18091704E-02 0.83079691E+02</pdfrwt>
<totfact> 0.21844858E+04</totfact>
</mgrwt>
</event>
<event>
 4    1  0.4844629E-001  0.8353201E+02  0.7546771E-02  0.1319317E+00
          2   -1    0    0  501    0  0.00000000000E+00  0.00000000000E+00  0.23778691388E+03  0.23778691388E+03  0.00000000000E+00 0. -1.
         -2   -1    0    0    0  501 -0.00000000000E+00 -0.00000000000E+00 -0.18224510764E+03  0.18224510764E+03  0.00000000000E+00 0.  1.
         24    1    1    2    0    0  0.49487648208E+01 -0.22042914768E+02  0.22013761336E+03  0.23545310602E+03  0.80419002446E+02 0. -1.
        -24    1    1    2    0    0 -0.49487648208E+01  0.22042914768E+02 -0.16459580713E+03  0.18457891549E+03  0.80419002446E+02 0.  1.
<mgrwt>
<rscale>  0 0.83532008E+02</rscale>
<asrwt>0</asrwt>
<pdfrwt beam="1">  1        2 0.36582602E-01 0.83532008E+02</pdfrwt>
<pdfrwt beam="2">  1       -2 0.28037709E-01 0.83532008E+02</pdfrwt>
<totfact> 0.15670271E+03</totfact>
</mgrwt>
</event>
<event>
 4    1  0.4844629E-001  0.8982352E+02  0.7546771E-02  0.1303280E+00
         -2   -1    0    0    0  501 -0.00000000000E+00  0.00000000000E+00  0.42331037281E+02  0.42331037281E+02  0.00000000000E+00 0.  1.
          2   -1    0    0  501    0  0.00000000000E+00 -0.00000000000E+00 -0.30974466158E+03  0.30974466158E+03  0.00000000000E+00 0. -1.
         24    1    1    2    0    0 -0.39268604670E+02 -0.76828496632E+01 -0.24288672320E+03  0.25896375374E+03  0.80419002446E+02 0. -1.
        -24    1    1    2    0    0  0.39268604670E+02  0.76828496632E+01 -0.24526901098E+02  0.93111945117E+02  0.80419002446E+02 0.  1.
<mgrwt>
<rscale>  0 0.89823524E+02</rscale>
<asrwt>0</asrwt>
<pdfrwt beam="1">  1        2 0.47653025E-01 0.89823524E+02</pdfrwt>
<pdfrwt beam="2">  1       -2 0.65124673E-02 0.89823524E+02</pdfrwt>
<totfact> 0.12515506E+04</totfact>
</mgrwt>
</event>
<event>
 4    1  0.4844629E-001  0.8629212E+02  0.7546771E-02  0.1312088E+00
          2   -1    0    0  501    0  0.00000000000E+00  0.00000000000E+00  0.54857943967E+03  0.54857943967E+03  0.00000000000E+00 0. -1.
         -2   -1    0    0    0  501 -0.00000000000E+00 -0.00000000000E+00 -0.15234294341E+02  0.15234294341E+02  0.00000000000E+00 0.  1.
         24    1    1    2    0    0 -0.27351074054E+02  0.15199611778E+02  0.17360273874E+03  0.19386654250E+03  0.80419002446E+02 0.  0.
        -24    1    1    2    0    0  0.27351074054E+02 -0.15199611778E+02  0.35974240659E+03  0.36994719151E+03  0.80419002446E+02 0. -1.
<mgrwt>
<rscale>  0 0.86292104E+02</rscale>
<asrwt>0</asrwt>
<pdfrwt beam="1">  1        2 0.84396821E-01 0.86292115E+02</pdfrwt>
<pdfrwt beam="2">  1       -2 0.23437380E-02 0.86292115E+02</pdfrwt>
<totfact> 0.30535899E+04</totfact>
</mgrwt>
</event>
<event>
 4    1  0.4844629E-001  0.9220028E+02  0.7546771E-02  0.1297609E+00
         -1   -1    0    0    0  501 -0.00000000000E+00  0.00000000000E+00  0.33215815080E+03  0.33215815080E+03  0.00000000000E+00 0.  1.
          1   -1    0    0  501    0  0.00000000000E+00 -0.00000000000E+00 -0.84677144033E+02  0.84677144033E+02  0.00000000000E+00 0. -1.
         24    1    1    2    0    0 -0.44148510054E+02  0.91970246935E+01  0.29783586878E+03  0.31178052680E+03  0.80419002446E+02 0.  1.
        -24    1    1    2    0    0  0.44148510054E+02 -0.91970246935E+01 -0.50354862017E+02  0.10505476803E+03  0.80419002446E+02 0. -1.
<mgrwt>
<rscale>  0 0.92200283E+02</rscale>
<asrwt>0</asrwt>
<pdfrwt beam="1">  1        1 0.13027253E-01 0.92200283E+02</pdfrwt>
<pdfrwt beam="2">  1       -1 0.51101253E-01 0.92200283E+02</pdfrwt>
<totfact> 0.17029120E+03</totfact>
</mgrwt>
</event>
<event>
 4    1  0.4844629E-001  0.8436493E+02  0.7546771E-02  0.1317102E+00
          2   -1    0    0  501    0  0.00000000000E+00  0.00000000000E+00  0.77713915349E+03  0.77713915349E+03  0.00000000000E+00 0. -1.
         -2   -1    0    0    0  501 -0.00000000000E+00 -0.00000000000E+00 -0.21023865555E+02  0.21023865555E+02  0.00000000000E+00 0.  1.
         24    1    1    2    0    0 -0.15837075413E+02  0.19985321589E+02  0.67786727153E+03  0.68309697687E+03  0.80419002446E+02 0. -1.
        -24    1    1    2    0    0  0.15837075413E+02 -0.19985321589E+02  0.78248016399E+02  0.11506604217E+03  0.80419002446E+02 0.  1.
<mgrwt>
<rscale>  0 0.84364933E+02</rscale>
<asrwt>0</asrwt>
<pdfrwt beam="1">  1        2 0.11955985E+00 0.84364933E+02</pdfrwt>
<pdfrwt beam="2">  1       -2 0.32344415E-02 0.84364933E+02</pdfrwt>
<totfact> 0.12836956E+04</totfact>
</mgrwt>
</event>
<event>
 4    1  0.4844629E-001  0.8386475E+02  0.7546771E-02  0.1318428E+00
         -1   -1    0    0    0  501 -0.00000000000E+00  0.00000000000E+00  0.54136864808E+03  0.54136864808E+03  0.00000000000E+00 0.  1.
          1   -1    0    0  501    0  0.00000000000E+00 -0.00000000000E+00 -0.22573876540E+02  0.22573876540E+02  0.00000000000E+00 0. -1.
         24    1    1    2    0    0 -0.21769159992E+02  0.96012712545E+01  0.44310787731E+03  0.45097437579E+03  0.80419002446E+02 0.  1.
        -24    1    1    2    0    0  0.21769159992E+02 -0.96012712545E+01  0.75686894234E+02  0.11296814883E+03  0.80419002446E+02 0. -1.
<mgrwt>
<rscale>  0 0.83864752E+02</rscale>
<asrwt>0</asrwt>
<pdfrwt beam="1">  1        1 0.34729045E-02 0.83864752E+02</pdfrwt>
<pdfrwt beam="2">  1       -1 0.83287475E-01 0.83864752E+02</pdfrwt>
<totfact> 0.38496386E+03</totfact>
</mgrwt>
</event>
<event>
 4    1  0.4844629E-001  0.8788213E+02  0.7546771E-02  0.1308063E+00
          1   -1    0    0  501    0  0.00000000000E+00  0.00000000000E+00  0.49856967213E+03  0.49856967213E+03  0.00000000000E+00 0. -1.
         -1   -1    0    0    0  501 -0.00000000000E+00 -0.00000000000E+00 -0.47540735740E+02  0.47540735740E+02  0.00000000000E+00 0.  1.
         24    1    1    2    0    0  0.10307475269E+02 -0.33908836147E+02  0.13169836989E+01  0.87891999725E+02  0.80419002446E+02 0.  1.
        -24    1    1    2    0    0 -0.10307475269E+02  0.33908836147E+02  0.44971195269E+03  0.45821840815E+03  0.80419002446E+02 0. -1.
<mgrwt>
<rscale>  0 0.87882132E+02</rscale>
<asrwt>0</asrwt>
<pdfrwt beam="1">  1        1 0.76703023E-01 0.87882132E+02</pdfrwt>
<pdfrwt beam="2">  1       -1 0.73139597E-02 0.87882132E+02</pdfrwt>
<totfact> 0.42318074E+03</totfact>
</mgrwt>
</event>
<event>
 4    1  0.4844629E-001  0.9148034E+02  0.7546771E-02  0.1299306E+00
          2   -1    0    0  501    0  0.00000000000E+00  0.00000000000E+00  0.11224316626E+04  0.11224316626E+04  0.00000000000E+00 0. -1.
         -2   -1    0    0    0  501 -0.00000000000E+00 -0.00000000000E+00 -0.75655511813E+01  0.75655511813E+01  0.00000000000E+00 0.  1.
         24    1    1    2    0    0 -0.41873955558E+02  0.12165710312E+02  0.48938874714E+03  0.49786543809E+03  0.80419002446E+02 0.  1.
        -24    1    1    2    0    0  0.41873955558E+02 -0.12165710312E+02  0.62547736430E+03  0.63213177572E+03  0.80419002446E+02 0. -1.
<mgrwt>
<rscale>  0 0.91480330E+02</rscale>
<asrwt>0</asrwt>
<pdfrwt beam="1">  1        2 0.17268166E+00 0.91480341E+02</pdfrwt>
<pdfrwt beam="2">  1       -2 0.11639318E-02 0.91480341E+02</pdfrwt>
<totfact> 0.34635410E+04</totfact>
</mgrwt>
</event>
<event>
 4    1  0.4844629E-001  0.8874995E+02  0.7546771E-02  0.1305907E+00
         -2   -1    0    0    0  501 -0.00000000000E+00  0.00000000000E+00  0.99171162353E+01  0.99171162353E+01  0.00000000000E+00 0.  1.
          2   -1    0    0  501    0  0.00000000000E+00 -0.00000000000E+00 -0.10487323457E+04  0.10487323457E+04  0.00000000000E+00 0. -1.
         24    1    1    2    0    0 -0.34922652616E+02 -0.13774811576E+02 -0.78016025145E+03  0.78519205994E+03  0.80419002446E+02 0. -1.
        -24    1    1    2    0    0  0.34922652616E+02  0.13774811576E+02 -0.25865497805E+03  0.27345740203E+03  0.80419002446E+02 0.  1.
<mgrwt>
<rscale>  0 0.88749947E+02</rscale>
<asrwt>0</asrwt>
<pdfrwt beam="1">  1        2 0.16134344E+00 0.88749947E+02</pdfrwt>
<pdfrwt beam="2">  1       -2 0.15257102E-02 0.88749947E+02</pdfrwt>
<totfact> 0.25862126E+04</totfact>
</mgrwt>
</event>
<event>
 4    1  0.4844629E-001  0.8259828E+02  0.7546771E-02  0.1321836E+00
          2   -1    0    0  501    0  0.00000000000E+00  0.00000000000E+00  0.44428122302E+03  0.44428122302E+03  0.00000000000E+00 0. -1.
         -2   -1    0    0    0  501 -0.00000000000E+00 -0.00000000000E+00 -0.14626837262E+03  0.14626837262E+03  0.00000000000E+00 0.  1.
         24    1    1    2    0    0  0.13426281763E+02 -0.13228532692E+02  0.42835159564E+03  0.43624255244E+03  0.80419002446E+02 0. -1.
        -24    1    1    2    0    0 -0.13426281763E+02  0.13228532692E+02 -0.13033874523E+03  0.15430704320E+03  0.80419002446E+02 0.  1.
<mgrwt>
<rscale>  0 0.82598275E+02</rscale>
<asrwt>0</asrwt>
<pdfrwt beam="1">  1        2 0.68350957E-01 0.82598275E+02</pdfrwt>
<pdfrwt beam="2">  1       -2 0.22502827E-01 0.82598275E+02</pdfrwt>
<totfact> 0.11913485E+03</totfact>
</mgrwt>
</event>
<event>
 4    1  0.4844629E-001  0.8322860E+02  0.7546771E-02  0.1320131E+00
         -1   -1    0    0    0  501 -0.00000000000E+00  0.00000000000E+00  0.43454236986E+02  0.43454236986E+02  0.00000000000E+00 0.  1.
          1   -1    0    0  501    0  0.00000000000E+00 -0.00000000000E+00 -0.59494099126E+03  0.59494099126E+03  0.00000000000E+00 0. -1.
         24    1    1    2    0    0 -0.13930504855E+02  0.16301089453E+02 -0.26364756641E+01  0.83270351514E+02  0.80419002446E+02 0.  1.
        -24    1    1    2    0    0  0.13930504855E+02 -0.16301089453E+02 -0.54885027861E+03  0.55512487673E+03  0.80419002446E+02 0. -1.
<mgrwt>
<rscale>  0 0.83228603E+02</rscale>
<asrwt>0</asrwt>
<pdfrwt beam="1">  1        1 0.91529373E-01 0.83228603E+02</pdfrwt>
<pdfrwt beam="2">  1       -1 0.66852680E-02 0.83228603E+02</pdfrwt>
<totfact> 0.38264242E+03</totfact>
</mgrwt>
</event>
<event>
 4    1  0.4844629E-001  0.8592800E+02  0.7546771E-02  0.1313023E+00
         -1   -1    0    0    0  501 -0.00000000000E+00  0.00000000000E+00  0.28766140421E+03  0.28766140421E+03  0.00000000000E+00 0.  1.
          1   -1    0    0  501    0  0.00000000000E+00 -0.00000000000E+00 -0.27210898444E+02  0.27210898444E+02  0.00000000000E+00 0. -1.
         24    1    1    2    0    0  0.29541851492E+02 -0.66094376307E+01  0.16771707796E+03  0.18844797650E+03  0.80419002446E+02 0.  1.
        -24    1    1    2    0    0 -0.29541851492E+02  0.66094376307E+01  0.92733427812E+02  0.12642432615E+03  0.80419002446E+02 0. -1.
<mgrwt>
<rscale>  0 0.85928002E+02</rscale>
<asrwt>0</asrwt>
<pdfrwt beam="1">  1        1 0.41862923E-02 0.85928002E+02</pdfrwt>
<pdfrwt beam="2">  1       -1 0.44255599E-01 0.85928002E+02</pdfrwt>
<totfact> 0.98814182E+03</totfact>
</mgrwt>
</event>
<event>
 4    1  0.4844629E-001  0.9341799E+02  0.7546771E-02  0.1294779E+00
          1   -1    0    0  501    0  0.00000000000E+00  0.00000000000E+00  0.10360823262E+04  0.10360823262E+04  0.00000000000E+00 0. -1.
         -1   -1    0    0    0  501 -0.00000000000E+00 -0.00000000000E+00 -0.94708609489E+01  0.94708609489E+01  0.00000000000E+00 0.  1.
         24    1    1    2    0    0  0.32297952740E+02 -0.34879037485E+02  0.33941624549E+03  0.35203736828E+03  0.80419002446E+02 0. -1.
        -24    1    1    2    0    0 -0.32297952740E+02  0.34879037485E+02  0.68719521974E+03  0.69351581885E+03  0.80419002446E+02 0.  1.
<mgrwt>
<rscale>  0 0.93417991E+02</rscale>
<asrwt>0</asrwt>
<pdfrwt beam="1">  1        1 0.15939719E+00 0.93417991E+02</pdfrwt>
<pdfrwt beam="2">  1       -1 0.14570563E-02 0.93417991E+02</pdfrwt>
<totfact> 0.15261171E+04</totfact>
</mgrwt>
</event>
<event>
 4    1  0.4844629E-001  0.9023738E+02  0.7546771E-02  0.1302278E+00
          1   -1    0    0  501    0  0.00000000000E+00  0.00000000000E+00  0.16085563317E+03  0.16085563317E+03  0.00000000000E+00 0. -1.
         -1   -1    0    0    0  501 -0.00000000000E+00 -0.00000000000E+00 -0.65127131385E+02  0.65127131385E+02  0.00000000000E+00 0.  1.
         24    1    1    2    0    0 -0.16598597709E+02 -0.37417313601E+02 -0.54606123512E+01  0.90402450435E+02  0.80419002446E+02 0.  1.
        -24    1    1    2    0    0  0.16598597709E+02  0.37417313601E+02  0.10118911414E+03  0.13558031412E+03  0.80419002446E+02 0. -1.
<mgrwt>
<rscale>  0 0.90237380E+02</rscale>
<asrwt>0</asrwt>
<pdfrwt beam="1">  1        1 0.24747020E-01 0.90237380E+02</pdfrwt>
<pdfrwt beam="2">  1       -1 0.10019559E-01 0.90237380E+02</pdfrwt>
<totfact> 0.10677452E+04</totfact>
</mgrwt>
</event>
<event>
 4    1  0.4844629E-001  0.8216674E+02  0.7546771E-02  0.1323013E+00
          2   -1    0    0  501    0  0.00000000000E+00  0.00000000000E+00  0.22723069897E+02  0.22723069897E+02  0.00000000000E+00 0. -1.
         -2   -1    0    0    0  501 -0.00000000000E+00 -0.00000000000E+00 -0.67979563311E+03  0.67979563311E+03  0.00000000000E+00 0.  1.
         24    1    1    2    0    0 -0.81041491701E+01  0.14781095359E+02 -0.64990101561E+02  0.10476205071E+03  0.80419002446E+02 0. -1.
        -24    1    1    2    0    0  0.81041491701E+01 -0.14781095359E+02 -0.59208246166E+03  0.59775665230E+03  0.80419002446E+02 0.  1.
<mgrwt>
<rscale>  0 0.82166745E+02</rscale>
<asrwt>0</asrwt>
<pdfrwt beam="1">  1        2 0.34958569E-02 0.82166745E+02</pdfrwt>
<pdfrwt beam="2">  1       -2 0.10458394E+00 0.82166745E+02</pdfrwt>
<totfact> 0.18170400E+03</totfact>
</mgrwt>
</event>
<event>
 4    1  0.4844629E-001  0.8932420E+02  0.7546771E-02  0.1304497E+00
         -1   -1    0    0    0  501 -0.00000000000E+00  0.00000000000E+00  0.21397951393E+04  0.21397951393E+04  0.00000000000E+00 0.  1.
          1   -1    0    0  501    0  0.00000000000E+00 -0.00000000000E+00 -0.56712039178E+02  0.56712039178E+02  0.00000000000E+00 0. -1.
         24    1    1    2    0    0 -0.30042150855E+02 -0.24679278201E+02  0.21030766455E+04  0.21049727291E+04  0.80419002446E+02 0.  1.
        -24    1    1    2    0    0  0.30042150855E+02  0.24679278201E+02 -0.19993545400E+02  0.91534449321E+02  0.80419002446E+02 0. -1.
<mgrwt>
<rscale>  0 0.89324205E+02</rscale>
<asrwt>0</asrwt>
<pdfrwt beam="1">  1        1 0.87249308E-02 0.89324205E+02</pdfrwt>
<pdfrwt beam="2">  1       -1 0.32919919E+00 0.89324205E+02</pdfrwt>
<totfact> 0.21215567E+01</totfact>
</mgrwt>
</event>
<event>
 4    1  0.4844629E-001  0.8601933E+02  0.7546771E-02  0.1312788E+00
         -2   -1    0    0    0  501 -0.00000000000E+00  0.00000000000E+00  0.30807794804E+01  0.30807794804E+01  0.00000000000E+00 0.  1.
          2   -1    0    0  501    0  0.00000000000E+00 -0.00000000000E+00 -0.28230108053E+04  0.28230108053E+04  0.00000000000E+00 0. -1.
         24    1    1    2    0    0  0.17299239587E+02  0.25156404599E+02 -0.19558046658E+04  0.19576953836E+04  0.80419002446E+02 0. -1.
        -24    1    1    2    0    0 -0.17299239587E+02 -0.25156404599E+02 -0.86412536007E+03  0.86839620120E+03  0.80419002446E+02 0.  1.
<mgrwt>
<rscale>  0 0.86019325E+02</rscale>
<asrwt>0</asrwt>
<pdfrwt beam="1">  1        2 0.43430906E+00 0.86019325E+02</pdfrwt>
<pdfrwt beam="2">  1       -2 0.47396639E-03 0.86019325E+02</pdfrwt>
<totfact> 0.16104973E+04</totfact>
</mgrwt>
</event>
<event>
 4    1  0.4844629E-001  0.9574905E+02  0.7546771E-02  0.1289498E+00
         -2   -1    0    0    0  501 -0.00000000000E+00  0.00000000000E+00  0.30245439519E+02  0.30245439519E+02  0.00000000000E+00 0.  1.
          2   -1    0    0  501    0  0.00000000000E+00 -0.00000000000E+00 -0.30348462586E+03  0.30348462586E+03  0.00000000000E+00 0. -1.
         24    1    1    2    0    0  0.51634067137E+02 -0.58806759514E+01 -0.13080367660E+03  0.16210329116E+03  0.80419002446E+02 0.  0.
        -24    1    1    2    0    0 -0.51634067137E+02  0.58806759514E+01 -0.14243550974E+03  0.17162677422E+03  0.80419002446E+02 0.  0.
<mgrwt>
<rscale>  0 0.95749034E+02</rscale>
<asrwt>0</asrwt>
<pdfrwt beam="1">  1        2 0.46689942E-01 0.95749046E+02</pdfrwt>
<pdfrwt beam="2">  1       -2 0.46531446E-02 0.95749046E+02</pdfrwt>
<totfact> 0.21261053E+04</totfact>
</mgrwt>
</event>
<event>
 4    1  0.4844629E-001  0.8203327E+02  0.7546771E-02  0.1323378E+00
          2   -1    0    0  501    0  0.00000000000E+00  0.00000000000E+00  0.16433162493E+02  0.16433162493E+02  0.00000000000E+00 0. -1.
         -2   -1    0    0    0  501 -0.00000000000E+00 -0.00000000000E+00 -0.50955338962E+03  0.50955338962E+03  0.00000000000E+00 0.  1.
         24    1    1    2    0    0 -0.11698080963E+02  0.11198046839E+02 -0.13002535085E+03  0.15374020024E+03  0.80419002446E+02 0. -1.
        -24    1    1    2    0    0  0.11698080963E+02 -0.11198046839E+02 -0.36309487628E+03  0.37224635188E+03  0.80419002446E+02 0. -1.
<mgrwt>
<rscale>  0 0.82033270E+02</rscale>
<asrwt>0</asrwt>
<pdfrwt beam="1">  1        2 0.25281789E-02 0.82033270E+02</pdfrwt>
<pdfrwt beam="2">  1       -2 0.78392828E-01 0.82033270E+02</pdfrwt>
<totfact> 0.53049161E+03</totfact>
</mgrwt>
</event>
<event>
 4    1  0.4844629E-001  0.8500945E+02  0.7546771E-02  0.1315408E+00
         -2   -1    0    0    0  501 -0.00000000000E+00  0.00000000000E+00  0.44626860869E+02  0.44626860869E+02  0.00000000000E+00 0.  1.
          2   -1    0    0  501    0  0.00000000000E+00 -0.00000000000E+00 -0.26827317954E+03  0.26827317954E+03  0.00000000000E+00 0. -1.
         24    1    1    2    0    0  0.26361856258E+02  0.80276861634E+01 -0.21032256242E+03  0.22685278801E+03  0.80419002446E+02 0. -1.
        -24    1    1    2    0    0 -0.26361856258E+02 -0.80276861634E+01 -0.13323756252E+02  0.86047252400E+02  0.80419002446E+02 0.  1.
<mgrwt>
<rscale>  0 0.85009453E+02</rscale>
<asrwt>0</asrwt>
<pdfrwt beam="1">  1        2 0.41272797E-01 0.85009453E+02</pdfrwt>
<pdfrwt beam="2">  1       -2 0.68656708E-02 0.85009453E+02</pdfrwt>
<totfact> 0.13356975E+04</totfact>
</mgrwt>
</event>
<event>
 4    1  0.4844629E-001  0.9244249E+02  0.7546771E-02  0.1297042E+00
          2   -1    0    0  501    0  0.00000000000E+00  0.00000000000E+00  0.16925007769E+03  0.16925007769E+03  0.00000000000E+00 0. -1.
         -2   -1    0    0    0  501 -0.00000000000E+00 -0.00000000000E+00 -0.50845000477E+02  0.50845000477E+02  0.00000000000E+00 0.  1.
         24    1    1    2    0    0  0.34616724831E+02  0.29666133535E+02  0.68384412293E+02  0.11498713370E+03  0.80419002446E+02 0. -1.
        -24    1    1    2    0    0 -0.34616724831E+02 -0.29666133535E+02  0.50020664916E+02  0.10510794447E+03  0.80419002446E+02 0.  1.
<mgrwt>
<rscale>  0 0.92442485E+02</rscale>
<asrwt>0</asrwt>
<pdfrwt beam="1">  1        2 0.26038473E-01 0.92442485E+02</pdfrwt>
<pdfrwt beam="2">  1       -2 0.78223079E-02 0.92442485E+02</pdfrwt>
<totfact> 0.18027222E+04</totfact>
</mgrwt>
</event>
<event>
 4    1  0.4844629E-001  0.8518938E+02  0.7546771E-02  0.1314938E+00
          2   -1    0    0  501    0  0.00000000000E+00  0.00000000000E+00  0.27669030648E+04  0.27669030648E+04  0.00000000000E+00 0. -1.
         -2   -1    0    0    0  501 -0.00000000000E+00 -0.00000000000E+00 -0.45024844166E+01  0.45024844166E+01  0.00000000000E+00 0.  1.
         24    1    1    2    0    0 -0.27566034329E+02 -0.54889284336E+01  0.22765201439E+04  0.22781135170E+04  0.80419002446E+02 0. -1.
        -24    1    1    2    0    0  0.27566034329E+02  0.54889284336E+01  0.48588043650E+03  0.49329203228E+03  0.80419002446E+02 0.  1.
<mgrwt>
<rscale>  0 0.85189380E+02</rscale>
<asrwt>0</asrwt>
<pdfrwt beam="1">  1        2 0.42567604E+00 0.85189380E+02</pdfrwt>
<pdfrwt beam="2">  1       -2 0.69269212E-03 0.85189380E+02</pdfrwt>
<totfact> 0.10152649E+04</totfact>
</mgrwt>
</event>
<event>
 4    1  0.4844629E-001  0.8899608E+02  0.7546771E-02  0.1305301E+00
         -2   -1    0    0    0  501 -0.00000000000E+00  0.00000000000E+00  0.70672499441E+01  0.70672499441E+01  0.00000000000E+00 0.  1.
          2   -1    0    0  501    0  0.00000000000E+00 -0.00000000000E+00 -0.11735300676E+04  0.11735300676E+04  0.00000000000E+00 0. -1.
         24    1    1    2    0    0  0.15494003544E+02  0.34828480255E+02 -0.70847175457E+03  0.71403958585E+03  0.80419002446E+02 0.  0.
        -24    1    1    2    0    0 -0.15494003544E+02 -0.34828480255E+02 -0.45799106307E+03  0.46655773168E+03  0.80419002446E+02 0.  1.
<mgrwt>
<rscale>  0 0.88996085E+02</rscale>
<asrwt>0</asrwt>
<pdfrwt beam="1">  1        2 0.18054298E+00 0.88996085E+02</pdfrwt>
<pdfrwt beam="2">  1       -2 0.10872699E-02 0.88996085E+02</pdfrwt>
<totfact> 0.35655059E+04</totfact>
</mgrwt>
</event>
<event>
 4    1  0.4844629E-001  0.1084774E+03  0.7546771E-02  0.1263416E+00
          2   -1    0    0  501    0  0.00000000000E+00  0.00000000000E+00  0.71384072766E+03  0.71384072766E+03  0.00000000000E+00 0. -1.
         -2   -1    0    0    0  501 -0.00000000000E+00 -0.00000000000E+00 -0.18855039925E+02  0.18855039925E+02  0.00000000000E+00 0.  1.
         24    1    1    2    0    0  0.72758033408E+02 -0.25292179935E+01  0.47738976805E+03  0.48955932731E+03  0.80419002446E+02 0. -1.
        -24    1    1    2    0    0 -0.72758033408E+02  0.25292179935E+01  0.21759591969E+03  0.24313644027E+03  0.80419002446E+02 0.  1.
<mgrwt>
<rscale>  0 0.10847739E+03</rscale>
<asrwt>0</asrwt>
<pdfrwt beam="1">  1        2 0.10982163E+00 0.10847739E+03</pdfrwt>
<pdfrwt beam="2">  1       -2 0.29007759E-02 0.10847739E+03</pdfrwt>
<totfact> 0.16996943E+04</totfact>
</mgrwt>
</event>
<event>
 4    1  0.4844629E-001  0.1176609E+03  0.7546771E-02  0.1247007E+00
         -2   -1    0    0    0  501 -0.00000000000E+00  0.00000000000E+00  0.35632564523E+02  0.35632564523E+02  0.00000000000E+00 0.  1.
          2   -1    0    0  501    0  0.00000000000E+00 -0.00000000000E+00 -0.38954353435E+03  0.38954353435E+03  0.00000000000E+00 0. -1.
         24    1    1    2    0    0  0.85571530902E+02  0.73737980810E+01 -0.18783590027E+03  0.22164476349E+03  0.80419002446E+02 0. -1.
        -24    1    1    2    0    0 -0.85571530902E+02 -0.73737980810E+01 -0.16607506956E+03  0.20353133539E+03  0.80419002446E+02 0.  0.
<mgrwt>
<rscale>  0 0.11766085E+03</rscale>
<asrwt>0</asrwt>
<pdfrwt beam="1">  1        2 0.59929776E-01 0.11766085E+03</pdfrwt>
<pdfrwt beam="2">  1       -2 0.54819329E-02 0.11766085E+03</pdfrwt>
<totfact> 0.13047862E+04</totfact>
</mgrwt>
</event>
<event>
 4    1  0.4844629E-001  0.1008836E+03  0.7546771E-02  0.1278449E+00
         -1   -1    0    0    0  501 -0.00000000000E+00  0.00000000000E+00  0.31029955454E+03  0.31029955454E+03  0.00000000000E+00 0.  1.
          1   -1    0    0  501    0  0.00000000000E+00 -0.00000000000E+00 -0.32495549661E+03  0.32495549661E+03  0.00000000000E+00 0. -1.
         24    1    1    2    0    0 -0.15662266130E+02  0.58864065450E+02  0.29384361496E+03  0.31067920882E+03  0.80419002446E+02 0.  1.
        -24    1    1    2    0    0  0.15662266130E+02 -0.58864065450E+02 -0.30849955703E+03  0.32457584233E+03  0.80419002446E+02 0. -1.
<mgrwt>
<rscale>  0 0.10088360E+03</rscale>
<asrwt>0</asrwt>
<pdfrwt beam="1">  1        1 0.49993154E-01 0.10088360E+03</pdfrwt>
<pdfrwt beam="2">  1       -1 0.47738393E-01 0.10088360E+03</pdfrwt>
<totfact> 0.36084686E+02</totfact>
</mgrwt>
</event>
<event>
 4    1  0.4844629E-001  0.8178010E+02  0.7546771E-02  0.1324074E+00
          2   -1    0    0  501    0  0.00000000000E+00  0.00000000000E+00  0.20311752624E+04  0.20311752624E+04  0.00000000000E+00 0. -1.
         -2   -1    0    0    0  501 -0.00000000000E+00 -0.00000000000E+00 -0.38927828517E+01  0.38927828517E+01  0.00000000000E+00 0.  1.
         24    1    1    2    0    0 -0.12209881573E+02  0.84668642881E+01  0.14131590884E+04  0.14155234347E+04  0.80419002446E+02 0. -1.
        -24    1    1    2    0    0  0.12209881573E+02 -0.84668642881E+01  0.61412339109E+03  0.61954461053E+03  0.80419002446E+02 0.  1.
<mgrwt>
<rscale>  0 0.81780101E+02</rscale>
<asrwt>0</asrwt>
<pdfrwt beam="1">  1        2 0.31248765E+00 0.81780101E+02</pdfrwt>
<pdfrwt beam="2">  1       -2 0.59889129E-03 0.81780101E+02</pdfrwt>
<totfact> 0.29913350E+04</totfact>
</mgrwt>
</event>
<event>
 4    1  0.4844629E-001  0.9255441E+02  0.7546771E-02  0.1296781E+00
          2   -1    0    0  501    0  0.00000000000E+00  0.00000000000E+00  0.31126946104E+02  0.31126946104E+02  0.00000000000E+00 0. -1.
         -2   -1    0    0    0  501 -0.00000000000E+00 -0.00000000000E+00 -0.31200946138E+03  0.31200946138E+03  0.00000000000E+00 0.  1.
         24    1    1    2    0    0 -0.37244454517E+02  0.26682446005E+02 -0.81516470168E+02  0.12333390929E+03  0.80419002446E+02 0. -1.
        -24    1    1    2    0    0  0.37244454517E+02 -0.26682446005E+02 -0.19936604511E+03  0.21980249820E+03  0.80419002446E+02 0.  1.
<mgrwt>
<rscale>  0 0.92554407E+02</rscale>
<asrwt>0</asrwt>
<pdfrwt beam="1">  1        2 0.47887612E-02 0.92554407E+02</pdfrwt>
<pdfrwt beam="2">  1       -2 0.48001453E-01 0.92554407E+02</pdfrwt>
<totfact> 0.63297923E+03</totfact>
</mgrwt>
</event>
<event>
 4    1  0.4844629E-001  0.8320256E+02  0.7546771E-02  0.1320201E+00
          1   -1    0    0  501    0  0.00000000000E+00  0.00000000000E+00  0.10651467781E+02  0.10651467781E+02  0.00000000000E+00 0. -1.
         -1   -1    0    0    0  501 -0.00000000000E+00 -0.00000000000E+00 -0.82495031893E+03  0.82495031893E+03  0.00000000000E+00 0.  1.
         24    1    1    2    0    0 -0.55372977530E+01  0.20610394723E+02 -0.59959354664E+03  0.60533882013E+03  0.80419002446E+02 0.  1.
        -24    1    1    2    0    0  0.55372977530E+01 -0.20610394723E+02 -0.21470530452E+03  0.23026296658E+03  0.80419002446E+02 0. -1.
<mgrwt>
<rscale>  0 0.83202560E+02</rscale>
<asrwt>0</asrwt>
<pdfrwt beam="1">  1        1 0.16386872E-02 0.83202560E+02</pdfrwt>
<pdfrwt beam="2">  1       -1 0.12691544E+00 0.83202560E+02</pdfrwt>
<totfact> 0.42661891E+03</totfact>
</mgrwt>
</event>
<event>
 4    1  0.4844629E-001  0.8843628E+02  0.7546771E-02  0.1306683E+00
         -1   -1    0    0    0  501 -0.00000000000E+00  0.00000000000E+00  0.73035584563E+01  0.73035584563E+01  0.00000000000E+00 0.  1.
          1   -1    0    0  501    0  0.00000000000E+00 -0.00000000000E+00 -0.10709105371E+04  0.10709105371E+04  0.00000000000E+00 0. -1.
         24    1    1    2    0    0 -0.99472806268E+01 -0.35423324400E+02 -0.52757381180E+03  0.53493467186E+03  0.80419002446E+02 0.  1.
        -24    1    1    2    0    0  0.99472806268E+01  0.35423324400E+02 -0.53603316682E+03  0.54327942367E+03  0.80419002446E+02 0. -1.
<mgrwt>
<rscale>  0 0.88436284E+02</rscale>
<asrwt>0</asrwt>
<pdfrwt beam="1">  1        1 0.16475544E+00 0.88436284E+02</pdfrwt>
<pdfrwt beam="2">  1       -1 0.11236245E-02 0.88436284E+02</pdfrwt>
<totfact> 0.20740118E+04</totfact>
</mgrwt>
</event>
<event>
 4    1  0.4844629E-001  0.1117596E+03  0.7546771E-02  0.1257346E+00
         -2   -1    0    0    0  501 -0.00000000000E+00  0.00000000000E+00  0.28867325752E+02  0.28867325752E+02  0.00000000000E+00 0.  1.
          2   -1    0    0  501    0  0.00000000000E+00 -0.00000000000E+00 -0.90069733679E+03  0.90069733679E+03  0.00000000000E+00 0. -1.
         24    1    1    2    0    0  0.74660899237E+02  0.21183356905E+02 -0.77095216232E+03  0.77901055001E+03  0.80419002446E+02 0. -1.
        -24    1    1    2    0    0 -0.74660899237E+02 -0.21183356905E+02 -0.10087784872E+03  0.15055411254E+03  0.80419002446E+02 0.  1.
<mgrwt>
<rscale>  0 0.11175957E+03</rscale>
<asrwt>0</asrwt>
<pdfrwt beam="1">  1        2 0.13856879E+00 0.11175957E+03</pdfrwt>
<pdfrwt beam="2">  1       -2 0.44411280E-02 0.11175957E+03</pdfrwt>
<totfact> 0.68273826E+03</totfact>
</mgrwt>
</event>
<event>
 4    1  0.4844629E-001  0.1109471E+03  0.7546771E-02  0.1258826E+00
          2   -1    0    0  501    0  0.00000000000E+00  0.00000000000E+00  0.20018681744E+04  0.20018681744E+04  0.00000000000E+00 0. -1.
         -2   -1    0    0    0  501 -0.00000000000E+00 -0.00000000000E+00 -0.16517074677E+02  0.16517074677E+02  0.00000000000E+00 0.  1.
         24    1    1    2    0    0  0.71544438932E+02  0.26896588533E+02  0.17922502658E+04  0.17956810029E+04  0.80419002446E+02 0. -1.
        -24    1    1    2    0    0 -0.71544438932E+02 -0.26896588533E+02  0.19310083391E+03  0.22270424609E+03  0.80419002446E+02 0.  1.
<mgrwt>
<rscale>  0 0.11094706E+03</rscale>
<asrwt>0</asrwt>
<pdfrwt beam="1">  1        2 0.30797953E+00 0.11094706E+03</pdfrwt>
<pdfrwt beam="2">  1       -2 0.25410900E-02 0.11094706E+03</pdfrwt>
<totfact> 0.40016076E+03</totfact>
</mgrwt>
</event>
<event>
 4    1  0.4844629E-001  0.8262887E+02  0.7546771E-02  0.1321752E+00
         -2   -1    0    0    0  501 -0.00000000000E+00  0.00000000000E+00  0.27059999289E+02  0.27059999289E+02  0.00000000000E+00 0.  1.
          2   -1    0    0  501    0  0.00000000000E+00 -0.00000000000E+00 -0.91790335553E+03  0.91790335553E+03  0.00000000000E+00 0. -1.
         24    1    1    2    0    0  0.15205184826E+02 -0.11362947269E+02 -0.84775936933E+03  0.85177665996E+03  0.80419002446E+02 0. -1.
        -24    1    1    2    0    0 -0.15205184826E+02  0.11362947269E+02 -0.43083986916E+02  0.93186694861E+02  0.80419002446E+02 0.  1.
<mgrwt>
<rscale>  0 0.82628870E+02</rscale>
<asrwt>0</asrwt>
<pdfrwt beam="1">  1        2 0.14121588E+00 0.82628870E+02</pdfrwt>
<pdfrwt beam="2">  1       -2 0.41630775E-02 0.82628870E+02</pdfrwt>
<totfact> 0.72052902E+03</totfact>
</mgrwt>
</event>
<event>
 4    1  0.4844629E-001  0.9321454E+02  0.7546771E-02  0.1295249E+00
          1   -1    0    0  501    0  0.00000000000E+00  0.00000000000E+00  0.79800956446E+03  0.79800956446E+03  0.00000000000E+00 0. -1.
         -1   -1    0    0    0  501 -0.00000000000E+00 -0.00000000000E+00 -0.11411090822E+02  0.11411090822E+02  0.00000000000E+00 0.  1.
         24    1    1    2    0    0  0.33397413085E+02  0.33261802203E+02  0.30667219594E+03  0.32052579678E+03  0.80419002446E+02 0. -1.
        -24    1    1    2    0    0 -0.33397413085E+02 -0.33261802203E+02  0.47992627770E+03  0.48889485850E+03  0.80419002446E+02 0.  1.
<mgrwt>
<rscale>  0 0.93214541E+02</rscale>
<asrwt>0</asrwt>
<pdfrwt beam="1">  1        1 0.12277066E+00 0.93214541E+02</pdfrwt>
<pdfrwt beam="2">  1       -1 0.17555531E-02 0.93214541E+02</pdfrwt>
<totfact> 0.17685676E+04</totfact>
</mgrwt>
</event>
<event>
 4    1  0.4844629E-001  0.1080411E+03  0.7546771E-02  0.1264241E+00
         -1   -1    0    0    0  501 -0.00000000000E+00  0.00000000000E+00  0.56457854459E+02  0.56457854459E+02  0.00000000000E+00 0.  1.
          1   -1    0    0  501    0  0.00000000000E+00 -0.00000000000E+00 -0.49752728534E+03  0.49752728534E+03  0.00000000000E+00 0. -1.
         24    1    1    2    0    0 -0.70817705586E+01 -0.71801855974E+02 -0.87780470512E+01  0.10839708511E+03  0.80419002446E+02 0.  1.
        -24    1    1    2    0    0  0.70817705586E+01  0.71801855974E+02 -0.43229138383E+03  0.44558805469E+03  0.80419002446E+02 0. -1.
<mgrwt>
<rscale>  0 0.10804108E+03</rscale>
<asrwt>0</asrwt>
<pdfrwt beam="1">  1        1 0.76542656E-01 0.10804108E+03</pdfrwt>
<pdfrwt beam="2">  1       -1 0.86858242E-02 0.10804108E+03</pdfrwt>
<totfact> 0.33171263E+03</totfact>
</mgrwt>
</event>
<event>
 4    1  0.4844629E-001  0.1056956E+03  0.7546771E-02  0.1268755E+00
         -1   -1    0    0    0  501 -0.00000000000E+00  0.00000000000E+00  0.24926341764E+03  0.24926341764E+03  0.00000000000E+00 0.  1.
          1   -1    0    0  501    0  0.00000000000E+00 -0.00000000000E+00 -0.48390045752E+02  0.48390045752E+02  0.00000000000E+00 0. -1.
         24    1    1    2    0    0 -0.36334630095E+02  0.58173378110E+02  0.14087034578E+03  0.17611364949E+03  0.80419002446E+02 0.  0.
        -24    1    1    2    0    0  0.36334630095E+02 -0.58173378110E+02  0.60003026109E+02  0.12153981389E+03  0.80419002446E+02 0. -1.
<mgrwt>
<rscale>  0 0.10569562E+03</rscale>
<asrwt>0</asrwt>
<pdfrwt beam="1">  1        1 0.74446225E-02 0.10569562E+03</pdfrwt>
<pdfrwt beam="2">  1       -1 0.38348217E-01 0.10569562E+03</pdfrwt>
<totfact> 0.59548003E+03</totfact>
</mgrwt>
</event>
<event>
 4    1  0.4844629E-001  0.9922547E+02  0.7546771E-02  0.1281933E+00
          1   -1    0    0  501    0  0.00000000000E+00  0.00000000000E+00  0.17419317712E+03  0.17419317712E+03  0.00000000000E+00 0. -1.
         -1   -1    0    0    0  501 -0.00000000000E+00 -0.00000000000E+00 -0.76592426000E+02  0.76592426000E+02  0.00000000000E+00 0.  1.
         24    1    1    2    0    0 -0.38513646700E+02  0.43533626671E+02 -0.15388725031E+02  0.10041168481E+03  0.80419002446E+02 0.  1.
        -24    1    1    2    0    0  0.38513646700E+02 -0.43533626671E+02  0.11298947615E+03  0.15037391831E+03  0.80419002446E+02 0. -1.
<mgrwt>
<rscale>  0 0.99225468E+02</rscale>
<asrwt>0</asrwt>
<pdfrwt beam="1">  1        1 0.26798950E-01 0.99225468E+02</pdfrwt>
<pdfrwt beam="2">  1       -1 0.11783450E-01 0.99225468E+02</pdfrwt>
<totfact> 0.76239632E+03</totfact>
</mgrwt>
</event>
<event>
 4    1  0.4844629E-001  0.8519488E+02  0.7546771E-02  0.1314924E+00
          1   -1    0    0  501    0  0.00000000000E+00  0.00000000000E+00  0.27476502356E+03  0.27476502356E+03  0.00000000000E+00 0. -1.
         -1   -1    0    0    0  501 -0.00000000000E+00 -0.00000000000E+00 -0.34079758549E+02  0.34079758549E+02  0.00000000000E+00 0.  1.
         24    1    1    2    0    0  0.20009040308E+02  0.19763332894E+02  0.47113212502E+02  0.97354105038E+02  0.80419002446E+02 0.  1.
        -24    1    1    2    0    0 -0.20009040308E+02 -0.19763332894E+02  0.19357205251E+03  0.21149067707E+03  0.80419002446E+02 0. -1.
<mgrwt>
<rscale>  0 0.85194876E+02</rscale>
<asrwt>0</asrwt>
<pdfrwt beam="1">  1        1 0.42271541E-01 0.85194876E+02</pdfrwt>
<pdfrwt beam="2">  1       -1 0.52430400E-02 0.85194876E+02</pdfrwt>
<totfact> 0.14413348E+04</totfact>
</mgrwt>
</event>
<event>
 4    1  0.4844629E-001  0.2170971E+03  0.7546771E-02  0.1136066E+00
         -2   -1    0    0    0  501 -0.00000000000E+00  0.00000000000E+00  0.61284061786E+02  0.61284061786E+02  0.00000000000E+00 0.  1.
          2   -1    0    0  501    0  0.00000000000E+00 -0.00000000000E+00 -0.15976538673E+04  0.15976538673E+04  0.00000000000E+00 0. -1.
         24    1    1    2    0    0  0.10770784889E+03  0.17047862596E+03 -0.13655357559E+04  0.13826854520E+04  0.80419002446E+02 0. -1.
        -24    1    1    2    0    0 -0.10770784889E+03 -0.17047862596E+03 -0.17083404958E+03  0.27625247704E+03  0.80419002446E+02 0.  1.
<mgrwt>
<rscale>  0 0.21709712E+03</rscale>
<asrwt>0</asrwt>
<pdfrwt beam="1">  1        2 0.24579286E+00 0.21709712E+03</pdfrwt>
<pdfrwt beam="2">  1       -2 0.94283187E-02 0.21709712E+03</pdfrwt>
<totfact> 0.88881956E+02</totfact>
</mgrwt>
</event>
<event>
 4    1  0.4844629E-001  0.8458939E+02  0.7546771E-02  0.1316510E+00
         -2   -1    0    0    0  501 -0.00000000000E+00  0.00000000000E+00  0.59473092351E+02  0.59473092351E+02  0.00000000000E+00 0.  1.
          2   -1    0    0  501    0  0.00000000000E+00 -0.00000000000E+00 -0.18031103954E+04  0.18031103954E+04  0.00000000000E+00 0. -1.
         24    1    1    2    0    0 -0.19456453261E+02  0.17595315105E+02 -0.17715038105E+04  0.17735222342E+04  0.80419002446E+02 0. -1.
        -24    1    1    2    0    0  0.19456453261E+02 -0.17595315105E+02  0.27866507461E+02  0.89061253526E+02  0.80419002446E+02 0.  1.
<mgrwt>
<rscale>  0 0.84589388E+02</rscale>
<asrwt>0</asrwt>
<pdfrwt beam="1">  1        2 0.27740156E+00 0.84589388E+02</pdfrwt>
<pdfrwt beam="2">  1       -2 0.91497078E-02 0.84589388E+02</pdfrwt>
<totfact> 0.74879336E+02</totfact>
</mgrwt>
</event>
<event>
 4    1  0.4844629E-001  0.1149388E+03  0.7546771E-02  0.1251688E+00
         -2   -1    0    0    0  501 -0.00000000000E+00  0.00000000000E+00  0.11430878301E+03  0.11430878301E+03  0.00000000000E+00 0.  1.
          2   -1    0    0  501    0  0.00000000000E+00 -0.00000000000E+00 -0.27754529674E+03  0.27754529674E+03  0.00000000000E+00 0. -1.
         24    1    1    2    0    0 -0.54859076779E+02 -0.61108105120E+02 -0.23129305515E+03  0.25827778095E+03  0.80419002446E+02 0. -1.
        -24    1    1    2    0    0  0.54859076779E+02  0.61108105120E+02  0.68056541418E+02  0.13357629880E+03  0.80419002446E+02 0.  1.
<mgrwt>
<rscale>  0 0.11493883E+03</rscale>
<asrwt>0</asrwt>
<pdfrwt beam="1">  1        2 0.42699276E-01 0.11493883E+03</pdfrwt>
<pdfrwt beam="2">  1       -2 0.17585967E-01 0.11493883E+03</pdfrwt>
<totfact> 0.29939009E+03</totfact>
</mgrwt>
</event>
<event>
 4    1  0.4844629E-001  0.1283980E+03  0.7546771E-02  0.1229852E+00
          2   -1    0    0  501    0  0.00000000000E+00  0.00000000000E+00  0.11588600566E+04  0.11588600566E+04  0.00000000000E+00 0. -1.
         -2   -1    0    0    0  501 -0.00000000000E+00 -0.00000000000E+00 -0.15955274058E+02  0.15955274058E+02  0.00000000000E+00 0.  1.
         24    1    1    2    0    0 -0.20814020304E+01 -0.10007244100E+03  0.76483112778E+03  0.77553381336E+03  0.80419002446E+02 0. -1.
        -24    1    1    2    0    0  0.20814020304E+01  0.10007244100E+03  0.37807365479E+03  0.39928151733E+03  0.80419002446E+02 0.  1.
<mgrwt>
<rscale>  0 0.12839798E+03</rscale>
<asrwt>0</asrwt>
<pdfrwt beam="1">  1        2 0.17828610E+00 0.12839798E+03</pdfrwt>
<pdfrwt beam="2">  1       -2 0.24546585E-02 0.12839798E+03</pdfrwt>
<totfact> 0.11599394E+04</totfact>
</mgrwt>
</event>
<event>
 4    1  0.4844629E-001  0.1309285E+03  0.7546771E-02  0.1226084E+00
         -1   -1    0    0    0  501 -0.00000000000E+00  0.00000000000E+00  0.73190472784E+02  0.73190472784E+02  0.00000000000E+00 0.  1.
          1   -1    0    0  501    0  0.00000000000E+00 -0.00000000000E+00 -0.34606116436E+03  0.34606116436E+03  0.00000000000E+00 0. -1.
         24    1    1    2    0    0 -0.10012409502E+03  0.25499509559E+02 -0.17261840027E+02  0.13206152531E+03  0.80419002446E+02 0.  1.
        -24    1    1    2    0    0  0.10012409502E+03 -0.25499509559E+02 -0.25560885155E+03  0.28719011183E+03  0.80419002446E+02 0. -1.
<mgrwt>
<rscale>  0 0.13092851E+03</rscale>
<asrwt>0</asrwt>
<pdfrwt beam="1">  1        1 0.53240178E-01 0.13092851E+03</pdfrwt>
<pdfrwt beam="2">  1       -1 0.11260073E-01 0.13092851E+03</pdfrwt>
<totfact> 0.35685411E+03</totfact>
</mgrwt>
</event>
<event>
 4    1  0.4844629E-001  0.8309720E+02  0.7546771E-02  0.1320485E+00
         -2   -1    0    0    0  501 -0.00000000000E+00  0.00000000000E+00  0.24925290663E+02  0.24925290663E+02  0.00000000000E+00 0.  1.
          2   -1    0    0  501    0  0.00000000000E+00 -0.00000000000E+00 -0.31016290336E+03  0.31016290336E+03  0.00000000000E+00 0. -1.
         24    1    1    2    0    0 -0.20911678909E+02 -0.79390644020E+00 -0.19737584440E+03  0.21415501047E+03  0.80419002446E+02 0. -1.
        -24    1    1    2    0    0  0.20911678909E+02  0.79390644020E+00 -0.87861768305E+02  0.12093318356E+03  0.80419002446E+02 0. -1.
<mgrwt>
<rscale>  0 0.83097199E+02</rscale>
<asrwt>0</asrwt>
<pdfrwt beam="1">  1        2 0.47717366E-01 0.83097199E+02</pdfrwt>
<pdfrwt beam="2">  1       -2 0.38346604E-02 0.83097199E+02</pdfrwt>
<totfact> 0.27205651E+04</totfact>
</mgrwt>
</event>
<event>
 4    1  0.4844629E-001  0.8249966E+02  0.7546771E-02  0.1322104E+00
          1   -1    0    0  501    0  0.00000000000E+00  0.00000000000E+00  0.40937768523E+03  0.40937768523E+03  0.00000000000E+00 0. -1.
         -1   -1    0    0    0  501 -0.00000000000E+00 -0.00000000000E+00 -0.17584569829E+02  0.17584569829E+02  0.00000000000E+00 0.  1.
         24    1    1    2    0    0  0.12280633471E+02  0.13717276631E+02  0.14604579864E+03  0.16773660570E+03  0.80419002446E+02 0.  1.
        -24    1    1    2    0    0 -0.12280633471E+02 -0.13717276631E+02  0.24574731676E+03  0.25922564936E+03  0.80419002446E+02 0. -1.
<mgrwt>
<rscale>  0 0.82499658E+02</rscale>
<asrwt>0</asrwt>
<pdfrwt beam="1">  1        1 0.62981176E-01 0.82499658E+02</pdfrwt>
<pdfrwt beam="2">  1       -1 0.27053187E-02 0.82499658E+02</pdfrwt>
<totfact> 0.22957322E+04</totfact>
</mgrwt>
</event>
<event>
 4    1  0.4844629E-001  0.1193266E+03  0.7546771E-02  0.1244212E+00
         -1   -1    0    0    0  501 -0.00000000000E+00  0.00000000000E+00  0.11689801337E+02  0.11689801337E+02  0.00000000000E+00 0.  1.
          1   -1    0    0  501    0  0.00000000000E+00 -0.00000000000E+00 -0.12889982725E+04  0.12889982725E+04  0.00000000000E+00 0. -1.
         24    1    1    2    0    0  0.48037225960E+02  0.73919198174E+02 -0.79122380156E+03  0.80017119609E+03  0.80419002446E+02 0.  0.
        -24    1    1    2    0    0 -0.48037225960E+02 -0.73919198174E+02 -0.48608466963E+03  0.50051687778E+03  0.80419002446E+02 0.  0.
<mgrwt>
<rscale>  0 0.11932662E+03</rscale>
<asrwt>0</asrwt>
<pdfrwt beam="1">  1        1 0.19830722E+00 0.11932664E+03</pdfrwt>
<pdfrwt beam="2">  1       -1 0.17984328E-02 0.11932664E+03</pdfrwt>
<totfact> 0.76990248E+03</totfact>
</mgrwt>
</event>
<event>
 4    1  0.4844629E-001  0.8281102E+02  0.7546771E-02  0.1321258E+00
          1   -1    0    0  501    0  0.00000000000E+00  0.00000000000E+00  0.18019468586E+02  0.18019468586E+02  0.00000000000E+00 0. -1.
         -1   -1    0    0    0  501 -0.00000000000E+00 -0.00000000000E+00 -0.41129064825E+03  0.41129064825E+03  0.00000000000E+00 0.  1.
         24    1    1    2    0    0  0.67073337065E+01 -0.18586496971E+02 -0.13796983709E+03  0.16091407054E+03  0.80419002446E+02 0.  0.
        -24    1    1    2    0    0 -0.67073337065E+01  0.18586496971E+02 -0.25530134257E+03  0.26839604630E+03  0.80419002446E+02 0.  1.
<mgrwt>
<rscale>  0 0.82811013E+02</rscale>
<asrwt>0</asrwt>
<pdfrwt beam="1">  1        1 0.27722259E-02 0.82811023E+02</pdfrwt>
<pdfrwt beam="2">  1       -1 0.63275484E-01 0.82811023E+02</pdfrwt>
<totfact> 0.89827342E+03</totfact>
</mgrwt>
</event>
<event>
 4    1  0.4844629E-001  0.8277523E+02  0.7546771E-02  0.1321355E+00
         -2   -1    0    0    0  501 -0.00000000000E+00  0.00000000000E+00  0.48737075398E+01  0.48737075398E+01  0.00000000000E+00 0.  1.
          2   -1    0    0  501    0  0.00000000000E+00 -0.00000000000E+00 -0.14100138509E+04  0.14100138509E+04  0.00000000000E+00 0. -1.
         24    1    1    2    0    0  0.16851389895E+02 -0.10027435995E+02 -0.66415743011E+03  0.66929576925E+03  0.80419002446E+02 0. -1.
        -24    1    1    2    0    0 -0.16851389895E+02  0.10027435995E+02 -0.74098271325E+03  0.74559178918E+03  0.80419002446E+02 0.  0.
<mgrwt>
<rscale>  0 0.82775217E+02</rscale>
<asrwt>0</asrwt>
<pdfrwt beam="1">  1        2 0.21692523E+00 0.82775227E+02</pdfrwt>
<pdfrwt beam="2">  1       -2 0.74980107E-03 0.82775227E+02</pdfrwt>
<totfact> 0.44829115E+04</totfact>
</mgrwt>
</event>
<event>
 4    1  0.4844629E-001  0.1001691E+03  0.7546771E-02  0.1279941E+00
         -2   -1    0    0    0  501 -0.00000000000E+00  0.00000000000E+00  0.40028171875E+03  0.40028171875E+03  0.00000000000E+00 0.  1.
          2   -1    0    0  501    0  0.00000000000E+00 -0.00000000000E+00 -0.26431063692E+02  0.26431063692E+02  0.00000000000E+00 0. -1.
         24    1    1    2    0    0  0.81095537549E+01  0.59168115792E+02  0.13845547855E+03  0.17089109480E+03  0.80419002446E+02 0. -1.
        -24    1    1    2    0    0 -0.81095537549E+01 -0.59168115792E+02  0.23539517651E+03  0.25582168764E+03  0.80419002446E+02 0.  0.
<mgrwt>
<rscale>  0 0.10016909E+03</rscale>
<asrwt>0</asrwt>
<pdfrwt beam="1">  1        2 0.40663178E-02 0.10016909E+03</pdfrwt>
<pdfrwt beam="2">  1       -2 0.61581799E-01 0.10016909E+03</pdfrwt>
<totfact> 0.47948577E+03</totfact>
</mgrwt>
</event>
<event>
 4    1  0.4844629E-001  0.1171367E+03  0.7546771E-02  0.1247897E+00
          2   -1    0    0  501    0  0.00000000000E+00  0.00000000000E+00  0.31515962452E+03  0.31515962452E+03  0.00000000000E+00 0. -1.
         -2   -1    0    0    0  501 -0.00000000000E+00 -0.00000000000E+00 -0.45238821372E+02  0.45238821372E+02  0.00000000000E+00 0.  1.
         24    1    1    2    0    0 -0.15839700401E+02  0.83683196134E+02  0.10000607875E+03  0.15402014532E+03  0.80419002446E+02 0.  0.
        -24    1    1    2    0    0  0.15839700401E+02 -0.83683196134E+02  0.16991472440E+03  0.20637830057E+03  0.80419002446E+02 0.  0.
<mgrwt>
<rscale>  0 0.11713664E+03</rscale>
<asrwt>0</asrwt>
<pdfrwt beam="1">  1        2 0.48486095E-01 0.11713666E+03</pdfrwt>
<pdfrwt beam="2">  1       -2 0.69598189E-02 0.11713666E+03</pdfrwt>
<totfact> 0.11370816E+04</totfact>
</mgrwt>
</event>
<event>
 4    1  0.4844629E-001  0.8055157E+02  0.7546771E-02  0.1327493E+00
         -1   -1    0    0    0  501 -0.00000000000E+00  0.00000000000E+00  0.49753697564E+02  0.49753697564E+02  0.00000000000E+00 0.  1.
          1   -1    0    0  501    0  0.00000000000E+00 -0.00000000000E+00 -0.17550978695E+03  0.17550978695E+03  0.00000000000E+00 0. -1.
         24    1    1    2    0    0 -0.45503107959E+01 -0.79637842354E+00 -0.57853733209E+01  0.80759061694E+02  0.80419002446E+02 0.  0.
        -24    1    1    2    0    0  0.45503107959E+01  0.79637842354E+00 -0.11997071606E+03  0.14450442282E+03  0.80419002446E+02 0. -1.
<mgrwt>
<rscale>  0 0.80551570E+02</rscale>
<asrwt>0</asrwt>
<pdfrwt beam="1">  1        1 0.27001506E-01 0.80551570E+02</pdfrwt>
<pdfrwt beam="2">  1       -1 0.76544149E-02 0.80551570E+02</pdfrwt>
<totfact> 0.14183346E+04</totfact>
</mgrwt>
</event>
<event>
 4    1  0.4844629E-001  0.8325029E+02  0.7546771E-02  0.1320073E+00
         -1   -1    0    0    0  501 -0.00000000000E+00  0.00000000000E+00  0.81837186898E+02  0.81837186898E+02  0.00000000000E+00 0.  1.
          1   -1    0    0  501    0  0.00000000000E+00 -0.00000000000E+00 -0.98706767101E+02  0.98706767101E+02  0.00000000000E+00 0. -1.
         24    1    1    2    0    0  0.16279102177E+02  0.14084924335E+02  0.25585476021E+02  0.87093207535E+02  0.80419002446E+02 0.  1.
        -24    1    1    2    0    0 -0.16279102177E+02 -0.14084924335E+02 -0.42455056224E+02  0.93450746463E+02  0.80419002446E+02 0. -1.
<mgrwt>
<rscale>  0 0.83250287E+02</rscale>
<asrwt>0</asrwt>
<pdfrwt beam="1">  1        1 0.15185656E-01 0.83250287E+02</pdfrwt>
<pdfrwt beam="2">  1       -1 0.12590336E-01 0.83250287E+02</pdfrwt>
<totfact> 0.13829604E+04</totfact>
</mgrwt>
</event>
<event>
 4    1  0.4844629E-001  0.8187102E+02  0.7546771E-02  0.1323824E+00
          4   -1    0    0  501    0  0.00000000000E+00  0.00000000000E+00  0.15068118009E+03  0.15068118009E+03  0.00000000000E+00 0. -1.
         -4   -1    0    0    0  501 -0.00000000000E+00 -0.00000000000E+00 -0.53293722707E+02  0.53293722707E+02  0.00000000000E+00 0.  1.
         24    1    1    2    0    0  0.66719361208E+01  0.13825081551E+02  0.90160102056E+02  0.12178549819E+03  0.80419002446E+02 0.  0.
        -24    1    1    2    0    0 -0.66719361208E+01 -0.13825081551E+02  0.72273553321E+01  0.82189404615E+02  0.80419002446E+02 0.  0.
<mgrwt>
<rscale>  0 0.81871018E+02</rscale>
<asrwt>0</asrwt>
<pdfrwt beam="1">  1        4 0.23181720E-01 0.81871018E+02</pdfrwt>
<pdfrwt beam="2">  1       -4 0.81990343E-02 0.81871018E+02</pdfrwt>
<totfact> 0.26295271E+03</totfact>
</mgrwt>
</event>
<event>
 4    1  0.4844629E-001  0.8754280E+02  0.7546771E-02  0.1308914E+00
         -1   -1    0    0    0  501 -0.00000000000E+00  0.00000000000E+00  0.24319291439E+02  0.24319291439E+02  0.00000000000E+00 0.  1.
          1   -1    0    0  501    0  0.00000000000E+00 -0.00000000000E+00 -0.41141790582E+03  0.41141790582E+03  0.00000000000E+00 0. -1.
         24    1    1    2    0    0  0.26033262439E+02  0.22777068855E+02 -0.88149791943E+02  0.12423416355E+03  0.80419002446E+02 0.  1.
        -24    1    1    2    0    0 -0.26033262439E+02 -0.22777068855E+02 -0.29894882244E+03  0.31150303371E+03  0.80419002446E+02 0. -1.
<mgrwt>
<rscale>  0 0.87542799E+02</rscale>
<asrwt>0</asrwt>
<pdfrwt beam="1">  1        1 0.63295060E-01 0.87542799E+02</pdfrwt>
<pdfrwt beam="2">  1       -1 0.37414296E-02 0.87542799E+02</pdfrwt>
<totfact> 0.14392690E+04</totfact>
</mgrwt>
</event>
<event>
 4    1  0.4844629E-001  0.8921331E+02  0.7546771E-02  0.1304768E+00
         -1   -1    0    0    0  501 -0.00000000000E+00  0.00000000000E+00  0.15526250446E+03  0.15526250446E+03  0.00000000000E+00 0.  1.
          1   -1    0    0  501    0  0.00000000000E+00 -0.00000000000E+00 -0.61522456516E+03  0.61522456516E+03  0.00000000000E+00 0. -1.
         24    1    1    2    0    0  0.17577591600E+01 -0.38583800885E+02  0.13886387616E+03  0.16505208713E+03  0.80419002446E+02 0.  1.
        -24    1    1    2    0    0 -0.17577591600E+01  0.38583800885E+02 -0.59882593686E+03  0.60543498249E+03  0.80419002446E+02 0. -1.
<mgrwt>
<rscale>  0 0.89213314E+02</rscale>
<asrwt>0</asrwt>
<pdfrwt beam="1">  1        1 0.94649933E-01 0.89213314E+02</pdfrwt>
<pdfrwt beam="2">  1       -1 0.23886539E-01 0.89213314E+02</pdfrwt>
<totfact> 0.51903900E+02</totfact>
</mgrwt>
</event>
<event>
 4    1  0.4844629E-001  0.8057593E+02  0.7546771E-02  0.1327425E+00
         -2   -1    0    0    0  501 -0.00000000000E+00  0.00000000000E+00  0.65740934535E+03  0.65740934535E+03  0.00000000000E+00 0.  1.
          2   -1    0    0  501    0  0.00000000000E+00 -0.00000000000E+00 -0.16698219500E+03  0.16698219500E+03  0.00000000000E+00 0. -1.
         24    1    1    2    0    0  0.40427746894E+01 -0.29866482847E+01 -0.15460714977E+03  0.17434405872E+03  0.80419002446E+02 0. -1.
        -24    1    1    2    0    0 -0.40427746894E+01  0.29866482847E+01  0.64503430012E+03  0.65004748164E+03  0.80419002446E+02 0.  1.
<mgrwt>
<rscale>  0 0.80575927E+02</rscale>
<asrwt>0</asrwt>
<pdfrwt beam="1">  1        2 0.25689569E-01 0.80575927E+02</pdfrwt>
<pdfrwt beam="2">  1       -2 0.10113990E+00 0.80575927E+02</pdfrwt>
<totfact> 0.17619402E+02</totfact>
</mgrwt>
</event>
<event>
 4    1  0.4844629E-001  0.8220118E+02  0.7546771E-02  0.1322918E+00
          3   -1    0    0  501    0  0.00000000000E+00  0.00000000000E+00  0.23816580253E+02  0.23816580253E+02  0.00000000000E+00 0. -1.
         -3   -1    0    0    0  501 -0.00000000000E+00 -0.00000000000E+00 -0.48887895900E+03  0.48887895900E+03  0.00000000000E+00 0.  1.
         24    1    1    2    0    0  0.11266381639E+02  0.12762728889E+02 -0.39859815491E+03  0.40698590106E+03  0.80419002446E+02 0.  1.
        -24    1    1    2    0    0 -0.11266381639E+02 -0.12762728889E+02 -0.66464223837E+02  0.10570963820E+03  0.80419002446E+02 0. -1.
<mgrwt>
<rscale>  0 0.82201183E+02</rscale>
<asrwt>0</asrwt>
<pdfrwt beam="1">  1        3 0.36640892E-02 0.82201183E+02</pdfrwt>
<pdfrwt beam="2">  1       -3 0.75212149E-01 0.82201183E+02</pdfrwt>
<totfact> 0.13334982E+03</totfact>
</mgrwt>
</event>
<event>
 4    1  0.4844629E-001  0.8298130E+02  0.7546771E-02  0.1320798E+00
         -2   -1    0    0    0  501 -0.00000000000E+00  0.00000000000E+00  0.48547772998E+03  0.48547772998E+03  0.00000000000E+00 0.  1.
          2   -1    0    0  501    0  0.00000000000E+00 -0.00000000000E+00 -0.15471626061E+02  0.15471626061E+02  0.00000000000E+00 0. -1.
         24    1    1    2    0    0 -0.20329660971E+02  0.23204830600E+01  0.16273729615E+03  0.18267272174E+03  0.80419002446E+02 0. -1.
        -24    1    1    2    0    0  0.20329660971E+02 -0.23204830600E+01  0.30726880777E+03  0.31827663430E+03  0.80419002446E+02 0.  1.
<mgrwt>
<rscale>  0 0.82981297E+02</rscale>
<asrwt>0</asrwt>
<pdfrwt beam="1">  1        2 0.23802505E-02 0.82981297E+02</pdfrwt>
<pdfrwt beam="2">  1       -2 0.74688870E-01 0.82981297E+02</pdfrwt>
<totfact> 0.63870296E+03</totfact>
</mgrwt>
</event>
<event>
 4    1  0.4844629E-001  0.1236229E+03  0.7546771E-02  0.1237237E+00
          1   -1    0    0  501    0  0.00000000000E+00  0.00000000000E+00  0.72319130985E+03  0.72319130985E+03  0.00000000000E+00 0. -1.
         -1   -1    0    0    0  501 -0.00000000000E+00 -0.00000000000E+00 -0.37230834370E+02  0.37230834370E+02  0.00000000000E+00 0.  1.
         24    1    1    2    0    0  0.73022168505E+02  0.59018366671E+02  0.92964155872E+02  0.15467693729E+03  0.80419002446E+02 0.  1.
        -24    1    1    2    0    0 -0.73022168505E+02 -0.59018366671E+02  0.59299631961E+03  0.60574520693E+03  0.80419002446E+02 0. -1.
<mgrwt>
<rscale>  0 0.12362290E+03</rscale>
<asrwt>0</asrwt>
<pdfrwt beam="1">  1        1 0.11126019E+00 0.12362290E+03</pdfrwt>
<pdfrwt beam="2">  1       -1 0.57278212E-02 0.12362290E+03</pdfrwt>
<totfact> 0.37403997E+03</totfact>
</mgrwt>
</event>
<event>
 4    1  0.4844629E-001  0.9908553E+02  0.7546771E-02  0.1282231E+00
          2   -1    0    0  501    0  0.00000000000E+00  0.00000000000E+00  0.26318553599E+04  0.26318553599E+04  0.00000000000E+00 0. -1.
         -2   -1    0    0    0  501 -0.00000000000E+00 -0.00000000000E+00 -0.42049866826E+01  0.42049866826E+01  0.00000000000E+00 0.  1.
         24    1    1    2    0    0  0.83822089687E+01 -0.57275337715E+02  0.17566061208E+04  0.17593984782E+04  0.80419002446E+02 0.  1.
        -24    1    1    2    0    0 -0.83822089687E+01  0.57275337715E+02  0.87104425247E+03  0.87666186837E+03  0.80419002446E+02 0.  0.
<mgrwt>
<rscale>  0 0.99085527E+02</rscale>
<asrwt>0</asrwt>
<pdfrwt beam="1">  1        2 0.40489951E+00 0.99085527E+02</pdfrwt>
<pdfrwt beam="2">  1       -2 0.64692313E-03 0.99085527E+02</pdfrwt>
<totfact> 0.13282929E+04</totfact>
</mgrwt>
</event>
<event>
 4    1  0.4844629E-001  0.1045928E+03  0.7546771E-02  0.1270924E+00
         -2   -1    0    0    0  501 -0.00000000000E+00  0.00000000000E+00  0.36016204092E+02  0.36016204092E+02  0.00000000000E+00 0.  1.
          2   -1    0    0  501    0  0.00000000000E+00 -0.00000000000E+00 -0.72827659574E+03  0.72827659574E+03  0.00000000000E+00 0. -1.
         24    1    1    2    0    0  0.43992746572E+02 -0.50369342594E+02 -0.63789838047E+03  0.64641626850E+03  0.80419002446E+02 0. -1.
        -24    1    1    2    0    0 -0.43992746572E+02  0.50369342594E+02 -0.54362011177E+02  0.11787653133E+03  0.80419002446E+02 0.  1.
<mgrwt>
<rscale>  0 0.10459277E+03</rscale>
<asrwt>0</asrwt>
<pdfrwt beam="1">  1        2 0.11204255E+00 0.10459277E+03</pdfrwt>
<pdfrwt beam="2">  1       -2 0.55409545E-02 0.10459277E+03</pdfrwt>
<totfact> 0.63621811E+03</totfact>
</mgrwt>
</event>
<event>
 4    1  0.4844629E-001  0.8330002E+02  0.7546771E-02  0.1319939E+00
         -2   -1    0    0    0  501 -0.00000000000E+00  0.00000000000E+00  0.11121006414E+03  0.11121006414E+03  0.00000000000E+00 0.  1.
          2   -1    0    0  501    0  0.00000000000E+00 -0.00000000000E+00 -0.44973485420E+03  0.44973485420E+03  0.00000000000E+00 0. -1.
         24    1    1    2    0    0 -0.55128002404E+00 -0.21711128353E+02 -0.42955290778E+03  0.43755524627E+03  0.80419002446E+02 0. -1.
        -24    1    1    2    0    0  0.55128002404E+00  0.21711128353E+02  0.91028117716E+02  0.12338967207E+03  0.80419002446E+02 0.  1.
<mgrwt>
<rscale>  0 0.83300018E+02</rscale>
<asrwt>0</asrwt>
<pdfrwt beam="1">  1        2 0.69189979E-01 0.83300018E+02</pdfrwt>
<pdfrwt beam="2">  1       -2 0.17109240E-01 0.83300018E+02</pdfrwt>
<totfact> 0.18581562E+03</totfact>
</mgrwt>
</event>
<event>
 4    1  0.4844629E-001  0.1038543E+03  0.7546771E-02  0.1272393E+00
         -2   -1    0    0    0  501 -0.00000000000E+00  0.00000000000E+00  0.48911735387E+03  0.48911735387E+03  0.00000000000E+00 0.  1.
          2   -1    0    0  501    0  0.00000000000E+00 -0.00000000000E+00 -0.23139057968E+02  0.23139057968E+02  0.00000000000E+00 0. -1.
         24    1    1    2    0    0  0.65248417728E+02  0.78198311678E+01  0.17745871957E+03  0.20561449093E+03  0.80419002446E+02 0. -1.
        -24    1    1    2    0    0 -0.65248417728E+02 -0.78198311678E+01  0.28851957633E+03  0.30664192090E+03  0.80419002446E+02 0.  0.
<mgrwt>
<rscale>  0 0.10385433E+03</rscale>
<asrwt>0</asrwt>
<pdfrwt beam="1">  1        2 0.35598554E-02 0.10385433E+03</pdfrwt>
<pdfrwt beam="2">  1       -2 0.75248816E-01 0.10385433E+03</pdfrwt>
<totfact> 0.37620160E+03</totfact>
</mgrwt>
</event>
<event>
 4    1  0.4844629E-001  0.8829459E+02  0.7546771E-02  0.1307035E+00
          2   -1    0    0  501    0  0.00000000000E+00  0.00000000000E+00  0.82080528124E+03  0.82080528124E+03  0.00000000000E+00 0. -1.
         -2   -1    0    0    0  501 -0.00000000000E+00 -0.00000000000E+00 -0.26013065636E+02  0.26013065636E+02  0.00000000000E+00 0.  1.
         24    1    1    2    0    0  0.37457005799E+00  0.36449676441E+02  0.73476561158E+03  0.74005164626E+03  0.80419002446E+02 0. -1.
        -24    1    1    2    0    0 -0.37457005799E+00 -0.36449676441E+02  0.60026604020E+02  0.10676670061E+03  0.80419002446E+02 0.  1.
<mgrwt>
<rscale>  0 0.88294593E+02</rscale>
<asrwt>0</asrwt>
<pdfrwt beam="1">  1        2 0.12627772E+00 0.88294593E+02</pdfrwt>
<pdfrwt beam="2">  1       -2 0.40020107E-02 0.88294593E+02</pdfrwt>
<totfact> 0.88276136E+03</totfact>
</mgrwt>
</event>
<event>
 4    1  0.4844629E-001  0.9823485E+02  0.7546771E-02  0.1284052E+00
         -3   -1    0    0    0  501 -0.00000000000E+00  0.00000000000E+00  0.10263594836E+04  0.10263594836E+04  0.00000000000E+00 0.  1.
          3   -1    0    0  501    0  0.00000000000E+00 -0.00000000000E+00 -0.11804591705E+02  0.11804591705E+02  0.00000000000E+00 0. -1.
         24    1    1    2    0    0  0.56416027012E+02  0.31768426565E+00  0.74144580456E+03  0.74792510727E+03  0.80419002446E+02 0.  1.
        -24    1    1    2    0    0 -0.56416027012E+02 -0.31768426565E+00  0.27310908730E+03  0.29023896800E+03  0.80419002446E+02 0. -1.
<mgrwt>
<rscale>  0 0.98234846E+02</rscale>
<asrwt>0</asrwt>
<pdfrwt beam="1">  1        3 0.18160918E-02 0.98234846E+02</pdfrwt>
<pdfrwt beam="2">  1       -3 0.15790139E+00 0.98234846E+02</pdfrwt>
<totfact> 0.73236698E+02</totfact>
</mgrwt>
</event>
<event>
 4    1  0.4844629E-001  0.9589732E+02  0.7546771E-02  0.1289168E+00
          3   -1    0    0  501    0  0.00000000000E+00  0.00000000000E+00  0.95009553632E+02  0.95009553632E+02  0.00000000000E+00 0. -1.
         -3   -1    0    0    0  501 -0.00000000000E+00 -0.00000000000E+00 -0.15805736935E+03  0.15805736935E+03  0.00000000000E+00 0.  1.
         24    1    1    2    0    0 -0.51253180005E+02 -0.10109007190E+02 -0.11030112375E+03  0.14615961940E+03  0.80419002446E+02 0.  0.
        -24    1    1    2    0    0  0.51253180005E+02  0.10109007190E+02  0.47253308028E+02  0.10690730359E+03  0.80419002446E+02 0.  0.
<mgrwt>
<rscale>  0 0.95897322E+02</rscale>
<asrwt>0</asrwt>
<pdfrwt beam="1">  1        3 0.14616855E-01 0.95897322E+02</pdfrwt>
<pdfrwt beam="2">  1       -3 0.24316518E-01 0.95897322E+02</pdfrwt>
<totfact> 0.13260747E+03</totfact>
</mgrwt>
</event>
<event>
 4    1  0.4844629E-001  0.9268855E+02  0.7546771E-02  0.1296469E+00
         -2   -1    0    0    0  501 -0.00000000000E+00  0.00000000000E+00  0.12881716713E+02  0.12881716713E+02  0.00000000000E+00 0.  1.
          2   -1    0    0  501    0  0.00000000000E+00 -0.00000000000E+00 -0.99117662658E+03  0.99117662658E+03  0.00000000000E+00 0. -1.
         24    1    1    2    0    0 -0.91229906073E+01  0.45174360155E+02 -0.77628700237E+03  0.78180091953E+03  0.80419002446E+02 0. -1.
        -24    1    1    2    0    0  0.91229906073E+01 -0.45174360155E+02 -0.20200790750E+03  0.22225742377E+03  0.80419002446E+02 0.  1.
<mgrwt>
<rscale>  0 0.92688552E+02</rscale>
<asrwt>0</asrwt>
<pdfrwt beam="1">  1        2 0.15248870E+00 0.92688552E+02</pdfrwt>
<pdfrwt beam="2">  1       -2 0.19818027E-02 0.92688552E+02</pdfrwt>
<totfact> 0.19282827E+04</totfact>
</mgrwt>
</event>
<event>
 4    1  0.4844629E-001  0.1168803E+03  0.7546771E-02  0.1248334E+00
          2   -1    0    0  501    0  0.00000000000E+00  0.00000000000E+00  0.93101728556E+03  0.93101728556E+03  0.00000000000E+00 0. -1.
         -2   -1    0    0    0  501 -0.00000000000E+00 -0.00000000000E+00 -0.19154536432E+02  0.19154536432E+02  0.00000000000E+00 0.  1.
         24    1    1    2    0    0  0.83749161175E+02 -0.13411652945E+02  0.68572591694E+03  0.69561558605E+03  0.80419002446E+02 0. -1.
        -24    1    1    2    0    0 -0.83749161175E+02  0.13411652945E+02  0.22613683218E+03  0.25455623594E+03  0.80419002446E+02 0.  1.
<mgrwt>
<rscale>  0 0.11688033E+03</rscale>
<asrwt>0</asrwt>
<pdfrwt beam="1">  1        2 0.14323339E+00 0.11688033E+03</pdfrwt>
<pdfrwt beam="2">  1       -2 0.29468525E-02 0.11688033E+03</pdfrwt>
<totfact> 0.11997929E+04</totfact>
</mgrwt>
</event>
<event>
 4    1  0.4844629E-001  0.1004472E+03  0.7546771E-02  0.1279358E+00
         -2   -1    0    0    0  501 -0.00000000000E+00  0.00000000000E+00  0.81733530326E+01  0.81733530326E+01  0.00000000000E+00 0.  1.
          2   -1    0    0  501    0  0.00000000000E+00 -0.00000000000E+00 -0.28133614644E+04  0.28133614644E+04  0.00000000000E+00 0. -1.
         24    1    1    2    0    0 -0.11673987409E+02 -0.59043498980E+02 -0.24594624644E+04  0.24615127963E+04  0.80419002446E+02 0. -1.
        -24    1    1    2    0    0  0.11673987409E+02  0.59043498980E+02 -0.34572564701E+03  0.36002202114E+03  0.80419002446E+02 0.  1.
<mgrwt>
<rscale>  0 0.10044716E+03</rscale>
<asrwt>0</asrwt>
<pdfrwt beam="1">  1        2 0.43282523E+00 0.10044716E+03</pdfrwt>
<pdfrwt beam="2">  1       -2 0.12574378E-02 0.10044716E+03</pdfrwt>
<totfact> 0.41269115E+03</totfact>
</mgrwt>
</event>
<event>
 4    1  0.4844629E-001  0.8378471E+02  0.7546771E-02  0.1318642E+00
          2   -1    0    0  501    0  0.00000000000E+00  0.00000000000E+00  0.12697528630E+04  0.12697528630E+04  0.00000000000E+00 0. -1.
         -2   -1    0    0    0  501 -0.00000000000E+00 -0.00000000000E+00 -0.35231229514E+02  0.35231229514E+02  0.00000000000E+00 0.  1.
         24    1    1    2    0    0 -0.22111493986E+02 -0.79839014644E+01  0.12163744819E+04  0.12192566411E+04  0.80419002446E+02 0. -1.
        -24    1    1    2    0    0  0.22111493986E+02  0.79839014644E+01  0.18147151577E+02  0.85727451342E+02  0.80419002446E+02 0.  1.
<mgrwt>
<rscale>  0 0.83784705E+02</rscale>
<asrwt>0</asrwt>
<pdfrwt beam="1">  1        2 0.19534656E+00 0.83784705E+02</pdfrwt>
<pdfrwt beam="2">  1       -2 0.54201901E-02 0.83784705E+02</pdfrwt>
<totfact> 0.30915207E+03</totfact>
</mgrwt>
</event>
<event>
 4    1  0.4844629E-001  0.9132695E+02  0.7546771E-02  0.1299670E+00
         -1   -1    0    0    0  501 -0.00000000000E+00  0.00000000000E+00  0.71655571549E+03  0.71655571549E+03  0.00000000000E+00 0.  1.
          1   -1    0    0  501    0  0.00000000000E+00 -0.00000000000E+00 -0.35688019171E+02  0.35688019171E+02  0.00000000000E+00 0. -1.
         24    1    1    2    0    0 -0.21552960399E+02  0.37534857952E+02  0.64918475210E+03  0.65557719147E+03  0.80419002446E+02 0.  1.
        -24    1    1    2    0    0  0.21552960399E+02 -0.37534857952E+02  0.31682944218E+02  0.96666543189E+02  0.80419002446E+02 0. -1.
<mgrwt>
<rscale>  0 0.91326949E+02</rscale>
<asrwt>0</asrwt>
<pdfrwt beam="1">  1        1 0.54904650E-02 0.91326949E+02</pdfrwt>
<pdfrwt beam="2">  1       -1 0.11023933E+00 0.91326949E+02</pdfrwt>
<totfact> 0.11403506E+03</totfact>
</mgrwt>
</event>
<event>
 4    1  0.4844629E-001  0.9735293E+02  0.7546771E-02  0.1285963E+00
          2   -1    0    0  501    0  0.00000000000E+00  0.00000000000E+00  0.34640249082E+02  0.34640249082E+02  0.00000000000E+00 0. -1.
         -2   -1    0    0    0  501 -0.00000000000E+00 -0.00000000000E+00 -0.10686556071E+04  0.10686556071E+04  0.00000000000E+00 0.  1.
         24    1    1    2    0    0 -0.42333733273E+02  0.34903167196E+02 -0.41188763524E+02  0.10570764517E+03  0.80419002446E+02 0. -1.
        -24    1    1    2    0    0  0.42333733273E+02 -0.34903167196E+02 -0.99282659452E+03  0.99758821104E+03  0.80419002446E+02 0.  1.
<mgrwt>
<rscale>  0 0.97352925E+02</rscale>
<asrwt>0</asrwt>
<pdfrwt beam="1">  1        2 0.53292689E-02 0.97352925E+02</pdfrwt>
<pdfrwt beam="2">  1       -2 0.16440856E+00 0.97352925E+02</pdfrwt>
<totfact> 0.35103340E+02</totfact>
</mgrwt>
</event>
<event>
 4    1  0.4844629E-001  0.1240745E+03  0.7546771E-02  0.1236523E+00
          1   -1    0    0  501    0  0.00000000000E+00  0.00000000000E+00  0.19670655990E+04  0.19670655990E+04  0.00000000000E+00 0. -1.
         -1   -1    0    0    0  501 -0.00000000000E+00 -0.00000000000E+00 -0.22396555793E+03  0.22396555793E+03  0.00000000000E+00 0.  1.
         24    1    1    2    0    0 -0.58898306735E+02  0.73879954867E+02 -0.20465485985E+03  0.23932840592E+03  0.80419002446E+02 0.  1.
        -24    1    1    2    0    0  0.58898306735E+02 -0.73879954867E+02  0.19477549009E+04  0.19517027510E+04  0.80419002446E+02 0. -1.
<mgrwt>
<rscale>  0 0.12407447E+03</rscale>
<asrwt>0</asrwt>
<pdfrwt beam="1">  1        1 0.30262547E+00 0.12407447E+03</pdfrwt>
<pdfrwt beam="2">  1       -1 0.34456241E-01 0.12407447E+03</pdfrwt>
<totfact> 0.31342088E+01</totfact>
</mgrwt>
</event>
<event>
 4    1  0.4844629E-001  0.9388924E+02  0.7546771E-02  0.1293698E+00
         -1   -1    0    0    0  501 -0.00000000000E+00  0.00000000000E+00  0.11122725311E+03  0.11122725311E+03  0.00000000000E+00 0.  1.
          1   -1    0    0  501    0  0.00000000000E+00 -0.00000000000E+00 -0.96315424106E+02  0.96315424106E+02  0.00000000000E+00 0. -1.
         24    1    1    2    0    0 -0.30837484364E+02 -0.37376768114E+02  0.51131517973E+02  0.10690940708E+03  0.80419002446E+02 0.  1.
        -24    1    1    2    0    0  0.30837484364E+02  0.37376768114E+02 -0.36219688966E+02  0.10063327014E+03  0.80419002446E+02 0. -1.
<mgrwt>
<rscale>  0 0.93889239E+02</rscale>
<asrwt>0</asrwt>
<pdfrwt beam="1">  1        1 0.14817758E-01 0.93889239E+02</pdfrwt>
<pdfrwt beam="2">  1       -1 0.17111885E-01 0.93889239E+02</pdfrwt>
<totfact> 0.89829255E+03</totfact>
</mgrwt>
</event>
<event>
 4    1  0.4844629E-001  0.1042193E+03  0.7546771E-02  0.1271665E+00
         -2   -1    0    0    0  501 -0.00000000000E+00  0.00000000000E+00  0.82735729137E+01  0.82735729137E+01  0.00000000000E+00 0.  1.
          2   -1    0    0  501    0  0.00000000000E+00 -0.00000000000E+00 -0.19670221868E+04  0.19670221868E+04  0.00000000000E+00 0. -1.
         24    1    1    2    0    0 -0.22086007159E+02 -0.62503245295E+02 -0.15489552551E+04  0.15524574216E+04  0.80419002446E+02 0. -1.
        -24    1    1    2    0    0  0.22086007159E+02  0.62503245295E+02 -0.40979335879E+03  0.42283833820E+03  0.80419002446E+02 0.  0.
<mgrwt>
<rscale>  0 0.10421930E+03</rscale>
<asrwt>0</asrwt>
<pdfrwt beam="1">  1        2 0.30261916E+00 0.10421930E+03</pdfrwt>
<pdfrwt beam="2">  1       -2 0.12728558E-02 0.10421930E+03</pdfrwt>
<totfact> 0.11256488E+04</totfact>
</mgrwt>
</event>
<event>
 4    1  0.4844629E-001  0.9181529E+02  0.7546771E-02  0.1298514E+00
          1   -1    0    0  501    0  0.00000000000E+00  0.00000000000E+00  0.19512166990E+04  0.19512166990E+04  0.00000000000E+00 0. -1.
         -1   -1    0    0    0  501 -0.00000000000E+00 -0.00000000000E+00 -0.14083558018E+02  0.14083558018E+02  0.00000000000E+00 0.  1.
         24    1    1    2    0    0  0.41056403665E+02  0.16649431966E+02  0.15040749290E+03  0.17621708697E+03  0.80419002446E+02 0.  1.
        -24    1    1    2    0    0 -0.41056403665E+02 -0.16649431966E+02  0.17867256481E+04  0.17890831701E+04  0.80419002446E+02 0. -1.
<mgrwt>
<rscale>  0 0.91815292E+02</rscale>
<asrwt>0</asrwt>
<pdfrwt beam="1">  1        1 0.30018697E+00 0.91815292E+02</pdfrwt>
<pdfrwt beam="2">  1       -1 0.21667028E-02 0.91815292E+02</pdfrwt>
<totfact> 0.22097761E+03</totfact>
</mgrwt>
</event>
<event>
 4    1  0.4844629E-001  0.1005881E+03  0.7546771E-02  0.1279064E+00
          2   -1    0    0  501    0  0.00000000000E+00  0.00000000000E+00  0.21057339823E+04  0.21057339823E+04  0.00000000000E+00 0. -1.
         -2   -1    0    0    0  501 -0.00000000000E+00 -0.00000000000E+00 -0.18727456782E+02  0.18727456782E+02  0.00000000000E+00 0.  1.
         24    1    1    2    0    0  0.20106807473E+02  0.56977778425E+02  0.19593820981E+04  0.19619623272E+04  0.80419002446E+02 0. -1.
        -24    1    1    2    0    0 -0.20106807473E+02 -0.56977778425E+02  0.12762442739E+03  0.16249911188E+03  0.80419002446E+02 0.  1.
<mgrwt>
<rscale>  0 0.10058811E+03</rscale>
<asrwt>0</asrwt>
<pdfrwt beam="1">  1        2 0.32395889E+00 0.10058811E+03</pdfrwt>
<pdfrwt beam="2">  1       -2 0.28811489E-02 0.10058811E+03</pdfrwt>
<totfact> 0.29504970E+03</totfact>
</mgrwt>
</event>
<event>
 4    1  0.4844629E-001  0.1028831E+03  0.7546771E-02  0.1274347E+00
         -2   -1    0    0    0  501 -0.00000000000E+00  0.00000000000E+00  0.75311919283E+02  0.75311919283E+02  0.00000000000E+00 0.  1.
          2   -1    0    0  501    0  0.00000000000E+00 -0.00000000000E+00 -0.61262835759E+03  0.61262835759E+03  0.00000000000E+00 0. -1.
         24    1    1    2    0    0 -0.16323798378E+02  0.62058419650E+02 -0.57060487129E+03  0.57980587177E+03  0.80419002446E+02 0. -1.
        -24    1    1    2    0    0  0.16323798378E+02 -0.62058419650E+02  0.33288432981E+02  0.10813440511E+03  0.80419002446E+02 0.  1.
<mgrwt>
<rscale>  0 0.10288309E+03</rscale>
<asrwt>0</asrwt>
<pdfrwt beam="1">  1        2 0.94250515E-01 0.10288309E+03</pdfrwt>
<pdfrwt beam="2">  1       -2 0.11586449E-01 0.10288309E+03</pdfrwt>
<totfact> 0.25013608E+03</totfact>
</mgrwt>
</event>
<event>
 4    1  0.4844629E-001  0.8448794E+02  0.7546771E-02  0.1316777E+00
          2   -1    0    0  501    0  0.00000000000E+00  0.00000000000E+00  0.11091878780E+03  0.11091878780E+03  0.00000000000E+00 0. -1.
         -2   -1    0    0    0  501 -0.00000000000E+00 -0.00000000000E+00 -0.87422903139E+02  0.87422903139E+02  0.00000000000E+00 0.  1.
         24    1    1    2    0    0 -0.21843702321E+02  0.13922826054E+02 -0.39193699219E+02  0.93136214381E+02  0.80419002446E+02 0. -1.
        -24    1    1    2    0    0  0.21843702321E+02 -0.13922826054E+02  0.62689583878E+02  0.10520547656E+03  0.80419002446E+02 0.  1.
<mgrwt>
<rscale>  0 0.84487929E+02</rscale>
<asrwt>0</asrwt>
<pdfrwt beam="1">  1        2 0.17064429E-01 0.84487940E+02</pdfrwt>
<pdfrwt beam="2">  1       -2 0.13449677E-01 0.84487940E+02</pdfrwt>
<totfact> 0.12263646E+04</totfact>
</mgrwt>
</event>
<event>
 4    1  0.4844629E-001  0.8253471E+02  0.7546771E-02  0.1322008E+00
         -1   -1    0    0    0  501 -0.00000000000E+00  0.00000000000E+00  0.68700950716E+03  0.68700950716E+03  0.00000000000E+00 0.  1.
          1   -1    0    0  501    0  0.00000000000E+00 -0.00000000000E+00 -0.35761631309E+02  0.35761631309E+02  0.00000000000E+00 0. -1.
         24    1    1    2    0    0 -0.16714981492E+02 -0.80852782855E+01  0.63285187693E+03  0.63821115348E+03  0.80419002446E+02 0.  1.
        -24    1    1    2    0    0  0.16714981492E+02  0.80852782855E+01  0.18395998920E+02  0.84559984992E+02  0.80419002446E+02 0. -1.
<mgrwt>
<rscale>  0 0.82534710E+02</rscale>
<asrwt>0</asrwt>
<pdfrwt beam="1">  1        1 0.55017899E-02 0.82534710E+02</pdfrwt>
<pdfrwt beam="2">  1       -1 0.10569376E+00 0.82534710E+02</pdfrwt>
<totfact> 0.12438316E+03</totfact>
</mgrwt>
</event>
<event>
 4    1  0.4844629E-001  0.9570096E+02  0.7546771E-02  0.1289605E+00
          2   -1    0    0  501    0  0.00000000000E+00  0.00000000000E+00  0.74223852955E+03  0.74223852955E+03  0.00000000000E+00 0. -1.
         -2   -1    0    0    0  501 -0.00000000000E+00 -0.00000000000E+00 -0.18748720627E+02  0.18748720627E+02  0.00000000000E+00 0.  1.
         24    1    1    2    0    0  0.51830186552E+02 -0.22560955519E+01  0.58421534243E+03  0.59200189230E+03  0.80419002446E+02 0. -1.
        -24    1    1    2    0    0 -0.51830186552E+02  0.22560955519E+01  0.13927446650E+03  0.16898535788E+03  0.80419002446E+02 0.  1.
<mgrwt>
<rscale>  0 0.95700962E+02</rscale>
<asrwt>0</asrwt>
<pdfrwt beam="1">  1        2 0.11419052E+00 0.95700962E+02</pdfrwt>
<pdfrwt beam="2">  1       -2 0.28844191E-02 0.95700962E+02</pdfrwt>
<totfact> 0.16190486E+04</totfact>
</mgrwt>
</event>
<event>
 4    1  0.4844629E-001  0.9946626E+02  0.7546771E-02  0.1281422E+00
          2   -1    0    0  501    0  0.00000000000E+00  0.00000000000E+00  0.16836587138E+04  0.16836587138E+04  0.00000000000E+00 0. -1.
         -2   -1    0    0    0  501 -0.00000000000E+00 -0.00000000000E+00 -0.58964408812E+01  0.58964408812E+01  0.00000000000E+00 0.  1.
         24    1    1    2    0    0 -0.26214658842E+02 -0.52336481167E+02  0.78939782724E+03  0.79563965538E+03  0.80419002446E+02 0. -1.
        -24    1    1    2    0    0  0.26214658842E+02  0.52336481167E+02  0.88836444563E+03  0.89391549925E+03  0.80419002446E+02 0.  0.
<mgrwt>
<rscale>  0 0.99466246E+02</rscale>
<asrwt>0</asrwt>
<pdfrwt beam="1">  1        2 0.25902403E+00 0.99466258E+02</pdfrwt>
<pdfrwt beam="2">  1       -2 0.90714609E-03 0.99466258E+02</pdfrwt>
<totfact> 0.25254697E+04</totfact>
</mgrwt>
</event>
<event>
 4    1  0.4844629E-001  0.8432086E+02  0.7546771E-02  0.1317218E+00
         -4   -1    0    0    0  501 -0.00000000000E+00  0.00000000000E+00  0.10006481699E+04  0.10006481699E+04  0.00000000000E+00 0.  1.
          4   -1    0    0  501    0  0.00000000000E+00 -0.00000000000E+00 -0.21912904616E+02  0.21912904616E+02  0.00000000000E+00 0. -1.
         24    1    1    2    0    0 -0.20831545948E+02 -0.14451253360E+02  0.69076537283E+02  0.10900264211E+03  0.80419002446E+02 0. -1.
        -24    1    1    2    0    0  0.20831545948E+02  0.14451253360E+02  0.90965872799E+03  0.91355843240E+03  0.80419002446E+02 0.  1.
<mgrwt>
<rscale>  0 0.84320863E+02</rscale>
<asrwt>0</asrwt>
<pdfrwt beam="1">  1        4 0.33712169E-02 0.84320863E+02</pdfrwt>
<pdfrwt beam="2">  1       -4 0.15394584E+00 0.84320863E+02</pdfrwt>
<totfact> 0.20440008E+02</totfact>
</mgrwt>
</event>
<event>
 4    1  0.4844629E-001  0.8392071E+02  0.7546771E-02  0.1318279E+00
          1   -1    0    0  501    0  0.00000000000E+00  0.00000000000E+00  0.70699101825E+02  0.70699101825E+02  0.00000000000E+00 0. -1.
         -1   -1    0    0    0  501 -0.00000000000E+00 -0.00000000000E+00 -0.12722671176E+03  0.12722671176E+03  0.00000000000E+00 0.  1.
         24    1    1    2    0    0 -0.66085983876E+01 -0.23060694283E+02 -0.74366956223E+02  0.11212996623E+03  0.80419002446E+02 0.  0.
        -24    1    1    2    0    0  0.66085983876E+01  0.23060694283E+02  0.17839346290E+02  0.85795847358E+02  0.80419002446E+02 0.  0.
<mgrwt>
<rscale>  0 0.83920708E+02</rscale>
<asrwt>0</asrwt>
<pdfrwt beam="1">  1        1 0.10876785E-01 0.83920708E+02</pdfrwt>
<pdfrwt beam="2">  1       -1 0.19573340E-01 0.83920708E+02</pdfrwt>
<totfact> 0.10719604E+04</totfact>
</mgrwt>
</event>
<event>
 4    1  0.4844629E-001  0.8854377E+02  0.7546771E-02  0.1306417E+00
          2   -1    0    0  501    0  0.00000000000E+00  0.00000000000E+00  0.85767239606E+02  0.85767239606E+02  0.00000000000E+00 0. -1.
         -2   -1    0    0    0  501 -0.00000000000E+00 -0.00000000000E+00 -0.21624176203E+03  0.21624176203E+03  0.00000000000E+00 0.  1.
         24    1    1    2    0    0  0.27476658544E+02  0.24855897420E+02  0.49494154549E+02  0.10143800910E+03  0.80419002446E+02 0. -1.
        -24    1    1    2    0    0 -0.27476658544E+02 -0.24855897420E+02 -0.17996867697E+03  0.20057099253E+03  0.80419002446E+02 0.  1.
<mgrwt>
<rscale>  0 0.88543765E+02</rscale>
<asrwt>0</asrwt>
<pdfrwt beam="1">  1        2 0.13194960E-01 0.88543765E+02</pdfrwt>
<pdfrwt beam="2">  1       -2 0.33267963E-01 0.88543765E+02</pdfrwt>
<totfact> 0.35778289E+03</totfact>
</mgrwt>
</event>
<event>
 4    1  0.4844629E-001  0.9233351E+02  0.7546771E-02  0.1297297E+00
         -1   -1    0    0    0  501 -0.00000000000E+00  0.00000000000E+00  0.25086339879E+02  0.25086339879E+02  0.00000000000E+00 0.  1.
          1   -1    0    0  501    0  0.00000000000E+00 -0.00000000000E+00 -0.35308094507E+03  0.35308094507E+03  0.00000000000E+00 0. -1.
         24    1    1    2    0    0  0.45320981980E+02 -0.20664324292E+01 -0.12738832983E+03  0.15733170082E+03  0.80419002446E+02 0. -1.
        -24    1    1    2    0    0 -0.45320981980E+02  0.20664324292E+01 -0.20060627536E+03  0.22083558413E+03  0.80419002446E+02 0.  0.
<mgrwt>
<rscale>  0 0.92333512E+02</rscale>
<asrwt>0</asrwt>
<pdfrwt beam="1">  1        1 0.54320140E-01 0.92333512E+02</pdfrwt>
<pdfrwt beam="2">  1       -1 0.38594373E-02 0.92333512E+02</pdfrwt>
<totfact> 0.16711859E+04</totfact>
</mgrwt>
</event>
<event>
 4    1  0.4844629E-001  0.1006550E+03  0.7546771E-02  0.1278925E+00
         -1   -1    0    0    0  501 -0.00000000000E+00  0.00000000000E+00  0.66289012614E+01  0.66289012614E+01  0.00000000000E+00 0.  1.
          1   -1    0    0  501    0  0.00000000000E+00 -0.00000000000E+00 -0.25927767651E+04  0.25927767651E+04  0.00000000000E+00 0. -1.
         24    1    1    2    0    0  0.28281614996E+02  0.53519735122E+02 -0.46032346090E+03  0.47119965663E+03  0.80419002446E+02 0.  1.
        -24    1    1    2    0    0 -0.28281614996E+02 -0.53519735122E+02 -0.21258244029E+04  0.21282060097E+04  0.80419002446E+02 0. -1.
<mgrwt>
<rscale>  0 0.10065499E+03</rscale>
<asrwt>0</asrwt>
<pdfrwt beam="1">  1        1 0.39888952E+00 0.10065499E+03</pdfrwt>
<pdfrwt beam="2">  1       -1 0.10198289E-02 0.10065499E+03</pdfrwt>
<totfact> 0.25221046E+03</totfact>
</mgrwt>
</event>
<event>
 4    1  0.4844629E-001  0.1021844E+03  0.7546771E-02  0.1275768E+00
         -2   -1    0    0    0  501 -0.00000000000E+00  0.00000000000E+00  0.56127121805E+03  0.56127121805E+03  0.00000000000E+00 0.  1.
          2   -1    0    0  501    0  0.00000000000E+00 -0.00000000000E+00 -0.19250012020E+02  0.19250012020E+02  0.00000000000E+00 0. -1.
         24    1    1    2    0    0  0.34200900488E+02 -0.52959669984E+02  0.21781938787E+03  0.24059702809E+03  0.80419002446E+02 0.  0.
        -24    1    1    2    0    0 -0.34200900488E+02  0.52959669984E+02  0.32420181816E+03  0.33992420198E+03  0.80419002446E+02 0.  0.
<mgrwt>
<rscale>  0 0.10218436E+03</rscale>
<asrwt>0</asrwt>
<pdfrwt beam="1">  1        2 0.29615407E-02 0.10218436E+03</pdfrwt>
<pdfrwt beam="2">  1       -2 0.86349406E-01 0.10218436E+03</pdfrwt>
<totfact> 0.35534395E+03</totfact>
</mgrwt>
</event>
<event>
 4    1  0.4844629E-001  0.8606175E+02  0.7546771E-02  0.1312679E+00
          1   -1    0    0  501    0  0.00000000000E+00  0.00000000000E+00  0.78137553071E+02  0.78137553071E+02  0.00000000000E+00 0. -1.
         -1   -1    0    0    0  501 -0.00000000000E+00 -0.00000000000E+00 -0.95476232073E+02  0.95476232073E+02  0.00000000000E+00 0.  1.
         24    1    1    2    0    0 -0.16163791265E+02 -0.26041049283E+02 -0.13073168259E+01  0.86071652868E+02  0.80419002446E+02 0.  0.
        -24    1    1    2    0    0  0.16163791265E+02  0.26041049283E+02 -0.16031362176E+02  0.87542132276E+02  0.80419002446E+02 0. -1.
<mgrwt>
<rscale>  0 0.86061735E+02</rscale>
<asrwt>0</asrwt>
<pdfrwt beam="1">  1        1 0.12021162E-01 0.86061746E+02</pdfrwt>
<pdfrwt beam="2">  1       -1 0.14688651E-01 0.86061746E+02</pdfrwt>
<totfact> 0.14785017E+04</totfact>
</mgrwt>
</event>
