<event>
 4    1  0.4053645E-001  0.2202456E+03  0.7546771E-02  0.1133700E+00
         21   -1    0    0  501  502  0.00000000000E+00  0.00000000000E+00  0.61644900655E+03  0.61644900655E+03  0.00000000000E+00 0.  1.
         21   -1    0    0  502  503 -0.00000000000E+00 -0.00000000000E+00 -0.78926650097E+02  0.78926650097E+02  0.00000000000E+00 0. -1.
          6    1    1    2  501    0 -0.13543600350E+03  0.15369917015E+02  0.28781440435E+03  0.36241588920E+03  0.17300000000E+03 0.  1.
         -6    1    1    2    0  503  0.13543600350E+03 -0.15369917015E+02  0.24970795210E+03  0.33295976745E+03  0.17300000000E+03 0. -1.
<mgrwt>
<rscale>  2 0.22024565E+03</rscale>
<asrwt>0</asrwt>
<pdfrwt beam="1">  1       21 0.94838306E-01 0.22024565E+03</pdfrwt>
<pdfrwt beam="2">  1       21 0.12142562E-01 0.22024565E+03</pdfrwt>
<totfact> 0.52720079E+04</totfact>
</mgrwt>
</event>
<event>
 4    1  0.4053645E-001  0.2088411E+03  0.7546771E-02  0.1142487E+00
         21   -1    0    0  501  502  0.00000000000E+00  0.00000000000E+00  0.58435673317E+03  0.58435673317E+03  0.00000000000E+00 0.  1.
         21   -1    0    0  502  503 -0.00000000000E+00 -0.00000000000E+00 -0.75922127189E+02  0.75922127189E+02  0.00000000000E+00 0. -1.
          6    1    1    2  501    0 -0.89440738564E+02 -0.75405185683E+02  0.21126370996E+03  0.29706387005E+03  0.17300000000E+03 0.  1.
         -6    1    1    2    0  503  0.89440738564E+02  0.75405185683E+02  0.29717089602E+03  0.36321499031E+03  0.17300000000E+03 0.  1.
<mgrwt>
<rscale>  2 0.20884106E+03</rscale>
<asrwt>0</asrwt>
<pdfrwt beam="1">  1       21 0.89901033E-01 0.20884106E+03</pdfrwt>
<pdfrwt beam="2">  1       21 0.11680328E-01 0.20884106E+03</pdfrwt>
<totfact> 0.64368946E+04</totfact>
</mgrwt>
</event>
<event>
 4    1  0.4053645E-001  0.1996768E+03  0.7546771E-02  0.1150012E+00
         21   -1    0    0  501  502  0.00000000000E+00  0.00000000000E+00  0.11873926929E+03  0.11873926929E+03  0.00000000000E+00 0. -1.
         21   -1    0    0  502  503 -0.00000000000E+00 -0.00000000000E+00 -0.38018238957E+03  0.38018238957E+03  0.00000000000E+00 0. -1.
          6    1    1    2  501    0 -0.97189609878E+02 -0.22270915374E+02 -0.45472969618E+02  0.20478917185E+03  0.17300000000E+03 0. -1.
         -6    1    1    2    0  503  0.97189609878E+02  0.22270915374E+02 -0.21597015067E+03  0.29413248702E+03  0.17300000000E+03 0. -1.
<mgrwt>
<rscale>  2 0.19967677E+03</rscale>
<asrwt>0</asrwt>
<pdfrwt beam="1">  1       21 0.18267580E-01 0.19967677E+03</pdfrwt>
<pdfrwt beam="2">  1       21 0.58489598E-01 0.19967677E+03</pdfrwt>
<totfact> 0.74533329E+04</totfact>
</mgrwt>
</event>
<event>
 4    1  0.4053645E-001  0.1864281E+03  0.7546771E-02  0.1161723E+00
         21   -1    0    0  501  502  0.00000000000E+00  0.00000000000E+00  0.10422375721E+04  0.10422375721E+04  0.00000000000E+00 0.  1.
         21   -1    0    0  502  503 -0.00000000000E+00 -0.00000000000E+00 -0.39051872827E+02  0.39051872827E+02  0.00000000000E+00 0. -1.
          6    1    1    2  501    0  0.23516990204E+02 -0.65371288329E+02  0.70823340380E+03  0.73235920723E+03  0.17300000000E+03 0.  1.
         -6    1    1    2    0  503 -0.23516990204E+02  0.65371288329E+02  0.29495229544E+03  0.34893023766E+03  0.17300000000E+03 0. -1.
<mgrwt>
<rscale>  2 0.18642815E+03</rscale>
<asrwt>0</asrwt>
<pdfrwt beam="1">  1       21 0.16034422E+00 0.18642815E+03</pdfrwt>
<pdfrwt beam="2">  1       21 0.60079812E-02 0.18642815E+03</pdfrwt>
<totfact> 0.49406690E+04</totfact>
</mgrwt>
</event>
<event>
 4    1  0.4053645E-001  0.1818713E+03  0.7546771E-02  0.1166004E+00
         21   -1    0    0  501  502  0.00000000000E+00  0.00000000000E+00  0.53514955519E+03  0.53514955519E+03  0.00000000000E+00 0. -1.
         21   -1    0    0  502  503 -0.00000000000E+00 -0.00000000000E+00 -0.61913822367E+02  0.61913822367E+02  0.00000000000E+00 0. -1.
          6    1    1    2  501    0  0.56055580125E+02 -0.24357116247E+01  0.22434548610E+03  0.28880453232E+03  0.17300000000E+03 0. -1.
         -6    1    1    2    0  503 -0.56055580125E+02  0.24357116247E+01  0.24889024672E+03  0.30825884524E+03  0.17300000000E+03 0. -1.
<mgrwt>
<rscale>  2 0.18187128E+03</rscale>
<asrwt>0</asrwt>
<pdfrwt beam="1">  1       21 0.82330697E-01 0.18187128E+03</pdfrwt>
<pdfrwt beam="2">  1       21 0.95252038E-02 0.18187128E+03</pdfrwt>
<totfact> 0.11440335E+05</totfact>
</mgrwt>
</event>
<event>
 4    1  0.4053645E-001  0.1859853E+03  0.7546771E-02  0.1162133E+00
         21   -1    0    0  501  502  0.00000000000E+00  0.00000000000E+00  0.35886933576E+02  0.35886933576E+02  0.00000000000E+00 0.  1.
         21   -1    0    0  502  503 -0.00000000000E+00 -0.00000000000E+00 -0.10329482145E+04  0.10329482145E+04  0.00000000000E+00 0.  1.
          6    1    1    2  501    0  0.67827609328E+02  0.78066434124E+01 -0.36033466376E+03  0.40550166236E+03  0.17300000000E+03 0.  1.
         -6    1    1    2    0  503 -0.67827609328E+02 -0.78066434124E+01 -0.63672661716E+03  0.66333348571E+03  0.17300000000E+03 0.  1.
<mgrwt>
<rscale>  2 0.18598529E+03</rscale>
<asrwt>0</asrwt>
<pdfrwt beam="1">  1       21 0.55210671E-02 0.18598529E+03</pdfrwt>
<pdfrwt beam="2">  1       21 0.15891510E+00 0.18598529E+03</pdfrwt>
<totfact> 0.58478626E+04</totfact>
</mgrwt>
</event>
<event>
 4    1  0.4053645E-001  0.1983599E+03  0.7546771E-02  0.1151130E+00
         21   -1    0    0  501  502  0.00000000000E+00  0.00000000000E+00  0.31764809402E+02  0.31764809402E+02  0.00000000000E+00 0.  1.
         21   -1    0    0  502  503 -0.00000000000E+00 -0.00000000000E+00 -0.13773284793E+04  0.13773284793E+04  0.00000000000E+00 0. -1.
          6    1    1    2  501    0 -0.27299793140E+02  0.93125481715E+02 -0.44925035992E+03  0.49109318865E+03  0.17300000000E+03 0. -1.
         -6    1    1    2    0  503  0.27299793140E+02 -0.93125481715E+02 -0.89631330993E+03  0.91800010000E+03  0.17300000000E+03 0. -1.
<mgrwt>
<rscale>  2 0.19835986E+03</rscale>
<asrwt>0</asrwt>
<pdfrwt beam="1">  1       21 0.48868951E-02 0.19835986E+03</pdfrwt>
<pdfrwt beam="2">  1       21 0.21189663E+00 0.19835986E+03</pdfrwt>
<totfact> 0.31441278E+04</totfact>
</mgrwt>
</event>
<event>
 4    1  0.4053645E-001  0.2103040E+03  0.7546771E-02  0.1141326E+00
         21   -1    0    0  503  502  0.00000000000E+00  0.00000000000E+00  0.19762118431E+03  0.19762118431E+03  0.00000000000E+00 0.  1.
         21   -1    0    0  501  503 -0.00000000000E+00 -0.00000000000E+00 -0.28376739795E+03  0.28376739795E+03  0.00000000000E+00 0. -1.
          6    1    1    2  501    0 -0.16673407836E+02  0.11840925281E+03 -0.15372012454E+03  0.26049497186E+03  0.17300000000E+03 0. -1.
         -6    1    1    2    0  502  0.16673407836E+02 -0.11840925281E+03  0.67573910893E+02  0.22089361039E+03  0.17300000000E+03 0.  1.
<mgrwt>
<rscale>  2 0.21030396E+03</rscale>
<asrwt>0</asrwt>
<pdfrwt beam="1">  1       21 0.30403259E-01 0.21030396E+03</pdfrwt>
<pdfrwt beam="2">  1       21 0.43656523E-01 0.21030396E+03</pdfrwt>
<totfact> 0.51910627E+04</totfact>
</mgrwt>
</event>
<event>
 4    1  0.4053645E-001  0.1905362E+03  0.7546771E-02  0.1157979E+00
         21   -1    0    0  503  502  0.00000000000E+00  0.00000000000E+00  0.45154133458E+03  0.45154133458E+03  0.00000000000E+00 0. -1.
         21   -1    0    0  501  503 -0.00000000000E+00 -0.00000000000E+00 -0.81286739844E+02  0.81286739844E+02  0.00000000000E+00 0. -1.
          6    1    1    2  501    0  0.79771891991E+02  0.33895953107E+01  0.15730584259E+03  0.24708130690E+03  0.17300000000E+03 0. -1.
         -6    1    1    2    0  502 -0.79771891991E+02 -0.33895953107E+01  0.21294875215E+03  0.28574676753E+03  0.17300000000E+03 0. -1.
<mgrwt>
<rscale>  2 0.19053620E+03</rscale>
<asrwt>0</asrwt>
<pdfrwt beam="1">  1       21 0.69467897E-01 0.19053620E+03</pdfrwt>
<pdfrwt beam="2">  1       21 0.12505652E-01 0.19053620E+03</pdfrwt>
<totfact> 0.10278016E+05</totfact>
</mgrwt>
</event>
<event>
 4    1  0.4053645E-001  0.1924631E+03  0.7546771E-02  0.1156258E+00
         21   -1    0    0  503  502  0.00000000000E+00  0.00000000000E+00  0.74592213222E+02  0.74592213222E+02  0.00000000000E+00 0.  1.
         21   -1    0    0  501  503 -0.00000000000E+00 -0.00000000000E+00 -0.53995578478E+03  0.53995578478E+03  0.00000000000E+00 0. -1.
          6    1    1    2  501    0 -0.76208551774E+02 -0.36128710219E+02 -0.31975839877E+03  0.37321235329E+03  0.17300000000E+03 0.  1.
         -6    1    1    2    0  502  0.76208551774E+02  0.36128710219E+02 -0.14560517279E+03  0.24133564471E+03  0.17300000000E+03 0.  1.
<mgrwt>
<rscale>  2 0.19246305E+03</rscale>
<asrwt>0</asrwt>
<pdfrwt beam="1">  1       21 0.11475725E-01 0.19246305E+03</pdfrwt>
<pdfrwt beam="2">  1       21 0.83070125E-01 0.19246305E+03</pdfrwt>
<totfact> 0.80266053E+04</totfact>
</mgrwt>
</event>
<event>
 4    1  0.4053645E-001  0.1930015E+03  0.7546771E-02  0.1155782E+00
         21   -1    0    0  503  502  0.00000000000E+00  0.00000000000E+00  0.81253893647E+02  0.81253893647E+02  0.00000000000E+00 0. -1.
         21   -1    0    0  501  503 -0.00000000000E+00 -0.00000000000E+00 -0.46886646830E+03  0.46886646830E+03  0.00000000000E+00 0. -1.
          6    1    1    2  501    0  0.92054546431E+01  0.85063667510E+02 -0.23483533500E+03  0.30396908147E+03  0.17300000000E+03 0. -1.
         -6    1    1    2    0  502 -0.92054546431E+01 -0.85063667510E+02 -0.15277723966E+03  0.24615128048E+03  0.17300000000E+03 0. -1.
<mgrwt>
<rscale>  2 0.19300147E+03</rscale>
<asrwt>0</asrwt>
<pdfrwt beam="1">  1       21 0.12500599E-01 0.19300147E+03</pdfrwt>
<pdfrwt beam="2">  1       21 0.72133304E-01 0.19300147E+03</pdfrwt>
<totfact> 0.94558759E+04</totfact>
</mgrwt>
</event>
<event>
 4    1  0.4053645E-001  0.1911552E+03  0.7546771E-02  0.1157423E+00
         21   -1    0    0  503  502  0.00000000000E+00  0.00000000000E+00  0.10248965003E+03  0.10248965003E+03  0.00000000000E+00 0.  1.
         21   -1    0    0  501  503 -0.00000000000E+00 -0.00000000000E+00 -0.36352319945E+03  0.36352319945E+03  0.00000000000E+00 0.  1.
          6    1    1    2  501    0 -0.80913221212E+02 -0.80237103330E+01 -0.16284131558E+03  0.25111277020E+03  0.17300000000E+03 0.  1.
         -6    1    1    2    0  502  0.80913221212E+02  0.80237103330E+01 -0.98192233837E+02  0.21490007929E+03  0.17300000000E+03 0.  1.
<mgrwt>
<rscale>  2 0.19115525E+03</rscale>
<asrwt>0</asrwt>
<pdfrwt beam="1">  1       21 0.15767638E-01 0.19115525E+03</pdfrwt>
<pdfrwt beam="2">  1       21 0.55926647E-01 0.19115525E+03</pdfrwt>
<totfact> 0.10788946E+05</totfact>
</mgrwt>
</event>
<event>
 4    1  0.4053645E-001  0.2115597E+03  0.7546771E-02  0.1140337E+00
         21   -1    0    0  501  502  0.00000000000E+00  0.00000000000E+00  0.67871404497E+02  0.67871404497E+02  0.00000000000E+00 0.  1.
         21   -1    0    0  502  503 -0.00000000000E+00 -0.00000000000E+00 -0.80915371361E+03  0.80915371361E+03  0.00000000000E+00 0.  1.
          6    1    1    2  501    0  0.19797070524E+02  0.12015237042E+03 -0.18202068364E+03  0.27908608957E+03  0.17300000000E+03 0.  1.
         -6    1    1    2    0  503 -0.19797070524E+02 -0.12015237042E+03 -0.55926162547E+03  0.59793902854E+03  0.17300000000E+03 0.  1.
<mgrwt>
<rscale>  2 0.21155972E+03</rscale>
<asrwt>0</asrwt>
<pdfrwt beam="1">  1       21 0.10441754E-01 0.21155972E+03</pdfrwt>
<pdfrwt beam="2">  1       21 0.12448519E+00 0.21155972E+03</pdfrwt>
<totfact> 0.35844170E+04</totfact>
</mgrwt>
</event>
<event>
 4    1  0.4053645E-001  0.2236621E+03  0.7546771E-02  0.1131182E+00
         21   -1    0    0  503  502  0.00000000000E+00  0.00000000000E+00  0.12746626999E+03  0.12746626999E+03  0.00000000000E+00 0. -1.
         21   -1    0    0  501  503 -0.00000000000E+00 -0.00000000000E+00 -0.51165241568E+03  0.51165241568E+03  0.00000000000E+00 0.  1.
          6    1    1    2  501    0  0.73235515246E+01  0.14157008949E+03 -0.34633347333E+03  0.41227612033E+03  0.17300000000E+03 0.  1.
         -6    1    1    2    0  502 -0.73235515246E+01 -0.14157008949E+03 -0.37852672362E+02  0.22684256534E+03  0.17300000000E+03 0. -1.
<mgrwt>
<rscale>  2 0.22366208E+03</rscale>
<asrwt>0</asrwt>
<pdfrwt beam="1">  1       21 0.19610195E-01 0.22366208E+03</pdfrwt>
<pdfrwt beam="2">  1       21 0.78715757E-01 0.22366208E+03</pdfrwt>
<totfact> 0.33607630E+04</totfact>
</mgrwt>
</event>
<event>
 4    1  0.4053645E-001  0.2721335E+03  0.7546771E-02  0.1100065E+00
         21   -1    0    0  501  502  0.00000000000E+00  0.00000000000E+00  0.58294721087E+03  0.58294721087E+03  0.00000000000E+00 0.  1.
         21   -1    0    0  502  503 -0.00000000000E+00 -0.00000000000E+00 -0.17145407447E+03  0.17145407447E+03  0.00000000000E+00 0. -1.
          6    1    1    2  501    0  0.16436838752E+03 -0.13080767989E+03  0.39773152257E+03  0.48192009709E+03  0.17300000000E+03 0.  1.
         -6    1    1    2    0  503 -0.16436838752E+03  0.13080767989E+03  0.13761613833E+02  0.27248118825E+03  0.17300000000E+03 0. -1.
<mgrwt>
<rscale>  2 0.27213345E+03</rscale>
<asrwt>0</asrwt>
<pdfrwt beam="1">  1       21 0.89684186E-01 0.27213345E+03</pdfrwt>
<pdfrwt beam="2">  1       21 0.26377550E-01 0.27213345E+03</pdfrwt>
<totfact> 0.13836013E+04</totfact>
</mgrwt>
</event>
<event>
 4    1  0.4053645E-001  0.2045313E+03  0.7546771E-02  0.1145971E+00
         21   -1    0    0  501  502  0.00000000000E+00  0.00000000000E+00  0.72488217744E+03  0.72488217744E+03  0.00000000000E+00 0. -1.
         21   -1    0    0  502  503 -0.00000000000E+00 -0.00000000000E+00 -0.58037201063E+02  0.58037201063E+02  0.00000000000E+00 0. -1.
          6    1    1    2  501    0 -0.10822484627E+03  0.13836347371E+02  0.36280839912E+03  0.41648889100E+03  0.17300000000E+03 0. -1.
         -6    1    1    2    0  503  0.10822484627E+03 -0.13836347371E+02  0.30403657726E+03  0.36643048750E+03  0.17300000000E+03 0. -1.
<mgrwt>
<rscale>  2 0.20453132E+03</rscale>
<asrwt>0</asrwt>
<pdfrwt beam="1">  1       21 0.11152033E+00 0.20453132E+03</pdfrwt>
<pdfrwt beam="2">  1       21 0.89288007E-02 0.20453132E+03</pdfrwt>
<totfact> 0.62207205E+04</totfact>
</mgrwt>
</event>
<event>
 4    1  0.4053645E-001  0.1892402E+03  0.7546771E-02  0.1159148E+00
         21   -1    0    0  503  502  0.00000000000E+00  0.00000000000E+00  0.20396144595E+03  0.20396144595E+03  0.00000000000E+00 0. -1.
         21   -1    0    0  501  503 -0.00000000000E+00 -0.00000000000E+00 -0.22417392137E+03  0.22417392137E+03  0.00000000000E+00 0. -1.
          6    1    1    2  501    0  0.66264559819E+02 -0.38624625819E+02 -0.10977129063E+03  0.21877291846E+03  0.17300000000E+03 0. -1.
         -6    1    1    2    0  502 -0.66264559819E+02  0.38624625819E+02  0.89558815215E+02  0.20936244885E+03  0.17300000000E+03 0. -1.
<mgrwt>
<rscale>  2 0.18924020E+03</rscale>
<asrwt>0</asrwt>
<pdfrwt beam="1">  1       21 0.31378684E-01 0.18924020E+03</pdfrwt>
<pdfrwt beam="2">  1       21 0.34488295E-01 0.18924020E+03</pdfrwt>
<totfact> 0.79196673E+04</totfact>
</mgrwt>
</event>
<event>
 4    1  0.4053645E-001  0.1907514E+03  0.7546771E-02  0.1157785E+00
         21   -1    0    0  501  502  0.00000000000E+00  0.00000000000E+00  0.95429194779E+02  0.95429194779E+02  0.00000000000E+00 0. -1.
         21   -1    0    0  502  503 -0.00000000000E+00 -0.00000000000E+00 -0.40395930396E+03  0.40395930396E+03  0.00000000000E+00 0. -1.
          6    1    1    2  501    0 -0.66132268688E+02 -0.45646841110E+02 -0.95113315263E+02  0.21314936970E+03  0.17300000000E+03 0. -1.
         -6    1    1    2    0  503  0.66132268688E+02  0.45646841110E+02 -0.21341679392E+03  0.28623912904E+03  0.17300000000E+03 0. -1.
<mgrwt>
<rscale>  2 0.19075144E+03</rscale>
<asrwt>0</asrwt>
<pdfrwt beam="1">  1       21 0.14681414E-01 0.19075144E+03</pdfrwt>
<pdfrwt beam="2">  1       21 0.62147587E-01 0.19075144E+03</pdfrwt>
<totfact> 0.98062904E+04</totfact>
</mgrwt>
</event>
<event>
 4    1  0.4053645E-001  0.1754369E+03  0.7546771E-02  0.1172294E+00
         21   -1    0    0  501  502  0.00000000000E+00  0.00000000000E+00  0.16748433728E+03  0.16748433728E+03  0.00000000000E+00 0.  1.
         21   -1    0    0  502  503 -0.00000000000E+00 -0.00000000000E+00 -0.18847921994E+03  0.18847921994E+03  0.00000000000E+00 0.  1.
          6    1    1    2  501    0  0.25465158195E+02  0.14164906050E+02 -0.38639107232E+02  0.17964158609E+03  0.17300000000E+03 0.  1.
         -6    1    1    2    0  503 -0.25465158195E+02 -0.14164906050E+02  0.17644224572E+02  0.17632197114E+03  0.17300000000E+03 0.  1.
<mgrwt>
<rscale>  2 0.17543694E+03</rscale>
<asrwt>0</asrwt>
<pdfrwt beam="1">  1       21 0.25766821E-01 0.17543694E+03</pdfrwt>
<pdfrwt beam="2">  1       21 0.28996803E-01 0.17543694E+03</pdfrwt>
<totfact> 0.16364180E+05</totfact>
</mgrwt>
</event>
<event>
 4    1  0.4053645E-001  0.1818741E+03  0.7546771E-02  0.1166002E+00
         21   -1    0    0  501  502  0.00000000000E+00  0.00000000000E+00  0.39211548683E+03  0.39211548683E+03  0.00000000000E+00 0.  1.
         21   -1    0    0  502  503 -0.00000000000E+00 -0.00000000000E+00 -0.93474002379E+02  0.93474002379E+02  0.00000000000E+00 0.  1.
          6    1    1    2  501    0 -0.19308024588E+02 -0.52691357621E+02  0.22514182070E+03  0.28942532441E+03  0.17300000000E+03 0.  1.
         -6    1    1    2    0  503  0.19308024588E+02  0.52691357621E+02  0.73499663758E+02  0.19616416481E+03  0.17300000000E+03 0.  1.
<mgrwt>
<rscale>  2 0.18187407E+03</rscale>
<asrwt>0</asrwt>
<pdfrwt beam="1">  1       21 0.60325458E-01 0.18187407E+03</pdfrwt>
<pdfrwt beam="2">  1       21 0.14380616E-01 0.18187407E+03</pdfrwt>
<totfact> 0.10891325E+05</totfact>
</mgrwt>
</event>
<event>
 4    1  0.4053645E-001  0.2932713E+03  0.7546771E-02  0.1088653E+00
         21   -1    0    0  503  502  0.00000000000E+00  0.00000000000E+00  0.12952760991E+04  0.12952760991E+04  0.00000000000E+00 0. -1.
         21   -1    0    0  501  503 -0.00000000000E+00 -0.00000000000E+00 -0.75388890811E+02  0.75388890811E+02  0.00000000000E+00 0.  1.
          6    1    1    2  501    0 -0.20281739415E+03 -0.12224618940E+03  0.37331397733E+03  0.47473292688E+03  0.17300000000E+03 0.  1.
         -6    1    1    2    0  502  0.20281739415E+03  0.12224618940E+03  0.84657323094E+03  0.89593206302E+03  0.17300000000E+03 0. -1.
<mgrwt>
<rscale>  2 0.29327125E+03</rscale>
<asrwt>0</asrwt>
<pdfrwt beam="1">  1       21 0.19927323E+00 0.29327125E+03</pdfrwt>
<pdfrwt beam="2">  1       21 0.11598292E-01 0.29327125E+03</pdfrwt>
<totfact> 0.78777886E+03</totfact>
</mgrwt>
</event>
<event>
 4    1  0.4053645E-001  0.2047766E+03  0.7546771E-02  0.1145770E+00
         21   -1    0    0  501  502  0.00000000000E+00  0.00000000000E+00  0.68681959222E+03  0.68681959222E+03  0.00000000000E+00 0. -1.
         21   -1    0    0  502  503 -0.00000000000E+00 -0.00000000000E+00 -0.61722550635E+02  0.61722550635E+02  0.00000000000E+00 0. -1.
          6    1    1    2  501    0 -0.36332972533E+02 -0.10336527678E+03  0.35148447089E+03  0.40678593709E+03  0.17300000000E+03 0. -1.
         -6    1    1    2    0  503  0.36332972533E+02  0.10336527678E+03  0.27361257070E+03  0.34175620577E+03  0.17300000000E+03 0. -1.
<mgrwt>
<rscale>  2 0.20477662E+03</rscale>
<asrwt>0</asrwt>
<pdfrwt beam="1">  1       21 0.10566455E+00 0.20477662E+03</pdfrwt>
<pdfrwt beam="2">  1       21 0.94957775E-02 0.20477662E+03</pdfrwt>
<totfact> 0.63593957E+04</totfact>
</mgrwt>
</event>
<event>
 4    1  0.4053645E-001  0.1736071E+03  0.7546771E-02  0.1174138E+00
         21   -1    0    0  501  502  0.00000000000E+00  0.00000000000E+00  0.19209375374E+03  0.19209375374E+03  0.00000000000E+00 0.  1.
         21   -1    0    0  502  503 -0.00000000000E+00 -0.00000000000E+00 -0.15724251910E+03  0.15724251910E+03  0.00000000000E+00 0.  1.
          6    1    1    2  501    0  0.13171977884E+02 -0.60754931858E+01  0.92674593097E+01  0.17385424476E+03  0.17300000000E+03 0.  1.
         -6    1    1    2    0  503 -0.13171977884E+02  0.60754931858E+01  0.25583775333E+02  0.17548202808E+03  0.17300000000E+03 0.  1.
<mgrwt>
<rscale>  2 0.17360706E+03</rscale>
<asrwt>0</asrwt>
<pdfrwt beam="1">  1       21 0.29552885E-01 0.17360706E+03</pdfrwt>
<pdfrwt beam="2">  1       21 0.24191157E-01 0.17360706E+03</pdfrwt>
<totfact> 0.17796541E+05</totfact>
</mgrwt>
</event>
<event>
 4    1  0.4053645E-001  0.2079191E+03  0.7546771E-02  0.1143224E+00
         21   -1    0    0  501  502  0.00000000000E+00  0.00000000000E+00  0.27111583300E+03  0.27111583300E+03  0.00000000000E+00 0.  1.
         21   -1    0    0  502  503 -0.00000000000E+00 -0.00000000000E+00 -0.16281731145E+03  0.16281731145E+03  0.00000000000E+00 0.  1.
          6    1    1    2  501    0 -0.11528853318E+03  0.31486126744E+01  0.85335317410E+02  0.22474980766E+03  0.17300000000E+03 0.  1.
         -6    1    1    2    0  503  0.11528853318E+03 -0.31486126744E+01  0.22963204142E+02  0.20918333679E+03  0.17300000000E+03 0.  1.
<mgrwt>
<rscale>  2 0.20791912E+03</rscale>
<asrwt>0</asrwt>
<pdfrwt beam="1">  1       21 0.41710128E-01 0.20791912E+03</pdfrwt>
<pdfrwt beam="2">  1       21 0.25048817E-01 0.20791912E+03</pdfrwt>
<totfact> 0.82966189E+04</totfact>
</mgrwt>
</event>
<event>
 4    1  0.4053645E-001  0.2151847E+03  0.7546771E-02  0.1137525E+00
         21   -1    0    0  501  502  0.00000000000E+00  0.00000000000E+00  0.47712301690E+03  0.47712301690E+03  0.00000000000E+00 0.  1.
         21   -1    0    0  502  503 -0.00000000000E+00 -0.00000000000E+00 -0.10653247520E+03  0.10653247520E+03  0.00000000000E+00 0.  1.
          6    1    1    2  501    0 -0.26293101002E+02  0.12523634714E+03  0.27236390648E+03  0.34711175054E+03  0.17300000000E+03 0.  1.
         -6    1    1    2    0  503  0.26293101002E+02 -0.12523634714E+03  0.98226635213E+02  0.23654374156E+03  0.17300000000E+03 0.  1.
<mgrwt>
<rscale>  2 0.21518473E+03</rscale>
<asrwt>0</asrwt>
<pdfrwt beam="1">  1       21 0.73403540E-01 0.21518473E+03</pdfrwt>
<pdfrwt beam="2">  1       21 0.16389612E-01 0.21518473E+03</pdfrwt>
<totfact> 0.55058786E+04</totfact>
</mgrwt>
</event>
<event>
 4    1  0.4053645E-001  0.2511713E+03  0.7546771E-02  0.1112567E+00
         21   -1    0    0  501  502  0.00000000000E+00  0.00000000000E+00  0.34086300300E+03  0.34086300300E+03  0.00000000000E+00 0.  1.
         21   -1    0    0  502  503 -0.00000000000E+00 -0.00000000000E+00 -0.18519108336E+03  0.18519108336E+03  0.00000000000E+00 0.  1.
          6    1    1    2  501    0 -0.82766162359E+02 -0.16219676145E+03  0.71402768600E+02  0.26112330884E+03  0.17300000000E+03 0.  1.
         -6    1    1    2    0  503  0.82766162359E+02  0.16219676145E+03  0.84269151043E+02  0.26493077752E+03  0.17300000000E+03 0.  1.
<mgrwt>
<rscale>  2 0.25117131E+03</rscale>
<asrwt>0</asrwt>
<pdfrwt beam="1">  1       21 0.52440462E-01 0.25117131E+03</pdfrwt>
<pdfrwt beam="2">  1       21 0.28490936E-01 0.25117131E+03</pdfrwt>
<totfact> 0.39526618E+04</totfact>
</mgrwt>
</event>
<event>
 4    1  0.4053645E-001  0.4171129E+03  0.7546771E-02  0.1038010E+00
         21   -1    0    0  501  502  0.00000000000E+00  0.00000000000E+00  0.35602599884E+03  0.35602599884E+03  0.00000000000E+00 0. -1.
         21   -1    0    0  502  503 -0.00000000000E+00 -0.00000000000E+00 -0.54215544634E+03  0.54215544634E+03  0.00000000000E+00 0.  1.
          6    1    1    2  501    0 -0.27700271478E+03 -0.25946812444E+03  0.47975996062E+02  0.41986296311E+03  0.17300000000E+03 0. -1.
         -6    1    1    2    0  503  0.27700271478E+03  0.25946812444E+03 -0.23410544356E+03  0.47831848208E+03  0.17300000000E+03 0.  1.
<mgrwt>
<rscale>  2 0.41711295E+03</rscale>
<asrwt>0</asrwt>
<pdfrwt beam="1">  1       21 0.54773231E-01 0.41711295E+03</pdfrwt>
<pdfrwt beam="2">  1       21 0.83408530E-01 0.41711295E+03</pdfrwt>
<totfact> 0.34776240E+03</totfact>
</mgrwt>
</event>
<event>
 4    1  0.4053645E-001  0.1909590E+03  0.7546771E-02  0.1157599E+00
         21   -1    0    0  503  502  0.00000000000E+00  0.00000000000E+00  0.33931228770E+02  0.33931228770E+02  0.00000000000E+00 0.  1.
         21   -1    0    0  501  503 -0.00000000000E+00 -0.00000000000E+00 -0.27254271916E+04  0.27254271916E+04  0.00000000000E+00 0.  1.
          6    1    1    2  501    0 -0.23488856734E+02  0.77360174532E+02 -0.24194918199E+04  0.24270158610E+04  0.17300000000E+03 0.  1.
         -6    1    1    2    0  502  0.23488856734E+02 -0.77360174532E+02 -0.27200414291E+03  0.33234255935E+03  0.17300000000E+03 0.  1.
<mgrwt>
<rscale>  2 0.19095896E+03</rscale>
<asrwt>0</asrwt>
<pdfrwt beam="1">  1       21 0.52201888E-02 0.19095896E+03</pdfrwt>
<pdfrwt beam="2">  1       21 0.41929651E+00 0.19095896E+03</pdfrwt>
<totfact> 0.16509503E+03</totfact>
</mgrwt>
</event>
<event>
 4    1  0.4053645E-001  0.3804647E+03  0.7546771E-02  0.1050762E+00
         21   -1    0    0  501  502  0.00000000000E+00  0.00000000000E+00  0.26523157112E+04  0.26523157112E+04  0.00000000000E+00 0.  1.
         21   -1    0    0  502  503 -0.00000000000E+00 -0.00000000000E+00 -0.59546604391E+02  0.59546604391E+02  0.00000000000E+00 0. -1.
          6    1    1    2  501    0 -0.13894712953E+03 -0.30906000105E+03  0.16881298083E+04  0.17304726634E+04  0.17300000000E+03 0.  1.
         -6    1    1    2    0  503  0.13894712953E+03  0.30906000105E+03  0.90463929855E+03  0.98138965224E+03  0.17300000000E+03 0. -1.
<mgrwt>
<rscale>  2 0.38046470E+03</rscale>
<asrwt>0</asrwt>
<pdfrwt beam="1">  1       21 0.40804848E+00 0.38046470E+03</pdfrwt>
<pdfrwt beam="2">  1       21 0.91610181E-02 0.38046470E+03</pdfrwt>
<totfact> 0.59870425E+02</totfact>
</mgrwt>
</event>
<event>
 4    1  0.4053645E-001  0.2201121E+03  0.7546771E-02  0.1133800E+00
         21   -1    0    0  501  502  0.00000000000E+00  0.00000000000E+00  0.31498061690E+03  0.31498061690E+03  0.00000000000E+00 0.  1.
         21   -1    0    0  502  503 -0.00000000000E+00 -0.00000000000E+00 -0.16629492266E+03  0.16629492266E+03  0.00000000000E+00 0.  1.
          6    1    1    2  501    0 -0.59496246837E+02  0.12239494496E+03  0.84257498708E+01  0.22027328299E+03  0.17300000000E+03 0.  1.
         -6    1    1    2    0  503  0.59496246837E+02 -0.12239494496E+03  0.14025994437E+03  0.26100225657E+03  0.17300000000E+03 0.  1.
<mgrwt>
<rscale>  2 0.22011208E+03</rscale>
<asrwt>0</asrwt>
<pdfrwt beam="1">  1       21 0.48458557E-01 0.22011208E+03</pdfrwt>
<pdfrwt beam="2">  1       21 0.25583834E-01 0.22011208E+03</pdfrwt>
<totfact> 0.58207425E+04</totfact>
</mgrwt>
</event>
<event>
 4    1  0.4053645E-001  0.2837272E+03  0.7546771E-02  0.1093670E+00
         21   -1    0    0  501  502  0.00000000000E+00  0.00000000000E+00  0.19346788781E+04  0.19346788781E+04  0.00000000000E+00 0.  1.
         21   -1    0    0  502  503 -0.00000000000E+00 -0.00000000000E+00 -0.51386157924E+02  0.51386157924E+02  0.00000000000E+00 0. -1.
          6    1    1    2  501    0 -0.16941299122E+03 -0.14788966699E+03  0.13747925739E+04  0.14037648437E+04  0.17300000000E+03 0.  1.
         -6    1    1    2    0  503  0.16941299122E+03  0.14788966699E+03  0.50850014625E+03  0.58230019228E+03  0.17300000000E+03 0. -1.
<mgrwt>
<rscale>  2 0.28372718E+03</rscale>
<asrwt>0</asrwt>
<pdfrwt beam="1">  1       21 0.29764285E+00 0.28372718E+03</pdfrwt>
<pdfrwt beam="2">  1       21 0.79055643E-02 0.28372718E+03</pdfrwt>
<totfact> 0.39494948E+03</totfact>
</mgrwt>
</event>
<event>
 4    1  0.4053645E-001  0.1842725E+03  0.7546771E-02  0.1163731E+00
         21   -1    0    0  501  502  0.00000000000E+00  0.00000000000E+00  0.14229401321E+03  0.14229401321E+03  0.00000000000E+00 0. -1.
         21   -1    0    0  502  503 -0.00000000000E+00 -0.00000000000E+00 -0.55505864188E+03  0.55505864188E+03  0.00000000000E+00 0. -1.
          6    1    1    2  501    0 -0.12842095209E+02 -0.62148402836E+02  0.56879236577E+02  0.19285121451E+03  0.17300000000E+03 0. -1.
         -6    1    1    2    0  503  0.12842095209E+02  0.62148402836E+02 -0.46964386525E+03  0.50450144058E+03  0.17300000000E+03 0. -1.
<mgrwt>
<rscale>  2 0.18427247E+03</rscale>
<asrwt>0</asrwt>
<pdfrwt beam="1">  1       21 0.21891386E-01 0.18427247E+03</pdfrwt>
<pdfrwt beam="2">  1       21 0.85393638E-01 0.18427247E+03</pdfrwt>
<totfact> 0.23214680E+04</totfact>
</mgrwt>
</event>
<event>
 4    1  0.4053645E-001  0.2252852E+03  0.7546771E-02  0.1130003E+00
         21   -1    0    0  503  502  0.00000000000E+00  0.00000000000E+00  0.73381572543E+02  0.73381572543E+02  0.00000000000E+00 0.  1.
         21   -1    0    0  501  503 -0.00000000000E+00 -0.00000000000E+00 -0.70604326112E+03  0.70604326112E+03  0.00000000000E+00 0. -1.
          6    1    1    2  501    0 -0.13965553618E+03  0.36341899670E+02 -0.26066280574E+03  0.34452648774E+03  0.17300000000E+03 0.  1.
         -6    1    1    2    0  502  0.13965553618E+03 -0.36341899670E+02 -0.37199888284E+03  0.43489834592E+03  0.17300000000E+03 0.  1.
<mgrwt>
<rscale>  2 0.22528516E+03</rscale>
<asrwt>0</asrwt>
<pdfrwt beam="1">  1       21 0.11289473E-01 0.22528516E+03</pdfrwt>
<pdfrwt beam="2">  1       21 0.10862204E+00 0.22528516E+03</pdfrwt>
<totfact> 0.43323699E+04</totfact>
</mgrwt>
</event>
<event>
 4    1  0.4053645E-001  0.2571519E+03  0.7546771E-02  0.1108867E+00
         21   -1    0    0  501  502  0.00000000000E+00  0.00000000000E+00  0.23729473374E+03  0.23729473374E+03  0.00000000000E+00 0.  1.
         21   -1    0    0  502  503 -0.00000000000E+00 -0.00000000000E+00 -0.28115272247E+03  0.28115272247E+03  0.00000000000E+00 0.  1.
          6    1    1    2  501    0 -0.19012134730E+03 -0.72085447011E+01  0.24270279543E+01  0.25716333386E+03  0.17300000000E+03 0.  1.
         -6    1    1    2    0  503  0.19012134730E+03  0.72085447011E+01 -0.46285016685E+02  0.26128412234E+03  0.17300000000E+03 0.  1.
<mgrwt>
<rscale>  2 0.25715188E+03</rscale>
<asrwt>0</asrwt>
<pdfrwt beam="1">  1       21 0.36506882E-01 0.25715188E+03</pdfrwt>
<pdfrwt beam="2">  1       21 0.43254265E-01 0.25715188E+03</pdfrwt>
<totfact> 0.36068147E+04</totfact>
</mgrwt>
</event>
<event>
 4    1  0.4053645E-001  0.2803067E+03  0.7546771E-02  0.1095522E+00
         21   -1    0    0  503  502  0.00000000000E+00  0.00000000000E+00  0.13472640098E+03  0.13472640098E+03  0.00000000000E+00 0. -1.
         21   -1    0    0  501  503 -0.00000000000E+00 -0.00000000000E+00 -0.60796055230E+03  0.60796055230E+03  0.00000000000E+00 0.  1.
          6    1    1    2  501    0  0.51343309321E+02  0.21449180295E+03 -0.16166990545E+03  0.32358774278E+03  0.17300000000E+03 0.  1.
         -6    1    1    2    0  502 -0.51343309321E+02 -0.21449180295E+03 -0.31156424586E+03  0.41909921051E+03  0.17300000000E+03 0.  1.
<mgrwt>
<rscale>  2 0.28030674E+03</rscale>
<asrwt>0</asrwt>
<pdfrwt beam="1">  1       21 0.20727138E-01 0.28030674E+03</pdfrwt>
<pdfrwt beam="2">  1       21 0.93532393E-01 0.28030674E+03</pdfrwt>
<totfact> 0.19805210E+04</totfact>
</mgrwt>
</event>
<event>
 4    1  0.4053645E-001  0.2030231E+03  0.7546771E-02  0.1147213E+00
         21   -1    0    0  503  502  0.00000000000E+00  0.00000000000E+00  0.17130845156E+03  0.17130845156E+03  0.00000000000E+00 0. -1.
         21   -1    0    0  501  503 -0.00000000000E+00 -0.00000000000E+00 -0.25960060689E+03  0.25960060689E+03  0.00000000000E+00 0. -1.
          6    1    1    2  501    0  0.93317243302E+02 -0.50806069108E+02 -0.10242117526E+03  0.22739494651E+03  0.17300000000E+03 0. -1.
         -6    1    1    2    0  502 -0.93317243302E+02  0.50806069108E+02  0.14129019933E+02  0.20351411194E+03  0.17300000000E+03 0. -1.
<mgrwt>
<rscale>  2 0.20302306E+03</rscale>
<asrwt>0</asrwt>
<pdfrwt beam="1">  1       21 0.26355147E-01 0.20302306E+03</pdfrwt>
<pdfrwt beam="2">  1       21 0.39938555E-01 0.20302306E+03</pdfrwt>
<totfact> 0.82358744E+04</totfact>
</mgrwt>
</event>
<event>
 4    1  0.4053645E-001  0.2856851E+03  0.7546771E-02  0.1092624E+00
         21   -1    0    0  501  502  0.00000000000E+00  0.00000000000E+00  0.16451045713E+04  0.16451045713E+04  0.00000000000E+00 0. -1.
         21   -1    0    0  502  503 -0.00000000000E+00 -0.00000000000E+00 -0.53624522888E+02  0.53624522888E+02  0.00000000000E+00 0. -1.
          6    1    1    2  501    0 -0.35243698918E+02  0.22459938475E+03  0.56338523349E+03  0.63167944660E+03  0.17300000000E+03 0. -1.
         -6    1    1    2    0  503  0.35243698918E+02 -0.22459938475E+03  0.10280948149E+04  0.10670496476E+04  0.17300000000E+03 0. -1.
<mgrwt>
<rscale>  2 0.28568514E+03</rscale>
<asrwt>0</asrwt>
<pdfrwt beam="1">  1       21 0.25309297E+00 0.28568514E+03</pdfrwt>
<pdfrwt beam="2">  1       21 0.82499278E-02 0.28568514E+03</pdfrwt>
<totfact> 0.67118375E+03</totfact>
</mgrwt>
</event>
<event>
 4    1  0.4053645E-001  0.1921968E+03  0.7546771E-02  0.1156495E+00
         21   -1    0    0  501  502  0.00000000000E+00  0.00000000000E+00  0.23776937819E+03  0.23776937819E+03  0.00000000000E+00 0.  1.
         21   -1    0    0  502  503 -0.00000000000E+00 -0.00000000000E+00 -0.15592591467E+03  0.15592591467E+03  0.00000000000E+00 0.  1.
          6    1    1    2  501    0 -0.71473305350E+02 -0.43614008031E+02  0.29052399115E+02  0.19438018667E+03  0.17300000000E+03 0.  1.
         -6    1    1    2    0  503  0.71473305350E+02  0.43614008031E+02  0.52791064411E+02  0.19931510619E+03  0.17300000000E+03 0.  1.
<mgrwt>
<rscale>  2 0.19219681E+03</rscale>
<asrwt>0</asrwt>
<pdfrwt beam="1">  1       21 0.36579904E-01 0.19219681E+03</pdfrwt>
<pdfrwt beam="2">  1       21 0.23988602E-01 0.19219681E+03</pdfrwt>
<totfact> 0.11812996E+05</totfact>
</mgrwt>
</event>
<event>
 4    1  0.4053645E-001  0.4138624E+03  0.7546771E-02  0.1039083E+00
         21   -1    0    0  501  502  0.00000000000E+00  0.00000000000E+00  0.38192663190E+03  0.38192663190E+03  0.00000000000E+00 0. -1.
         21   -1    0    0  502  503 -0.00000000000E+00 -0.00000000000E+00 -0.44861195360E+03  0.44861195360E+03  0.00000000000E+00 0.  1.
          6    1    1    2  501    0 -0.22268151170E+03  0.30292908624E+03 -0.40767004418E+02  0.41586540562E+03  0.17300000000E+03 0.  1.
         -6    1    1    2    0  503  0.22268151170E+03 -0.30292908624E+03 -0.25918317285E+02  0.41467317988E+03  0.17300000000E+03 0. -1.
<mgrwt>
<rscale>  2 0.41386240E+03</rscale>
<asrwt>0</asrwt>
<pdfrwt beam="1">  1       21 0.58757943E-01 0.41386240E+03</pdfrwt>
<pdfrwt beam="2">  1       21 0.69017224E-01 0.41386240E+03</pdfrwt>
<totfact> 0.46075758E+03</totfact>
</mgrwt>
</event>
<event>
 4    1  0.4053645E-001  0.1928163E+03  0.7546771E-02  0.1155945E+00
         21   -1    0    0  503  502  0.00000000000E+00  0.00000000000E+00  0.61325961936E+03  0.61325961936E+03  0.00000000000E+00 0. -1.
         21   -1    0    0  501  503 -0.00000000000E+00 -0.00000000000E+00 -0.67568146161E+02  0.67568146161E+02  0.00000000000E+00 0.  1.
          6    1    1    2  501    0 -0.36336864230E+02 -0.76998500872E+02  0.38197758663E+03  0.42788434597E+03  0.17300000000E+03 0.  1.
         -6    1    1    2    0  502  0.36336864230E+02  0.76998500872E+02  0.16371388657E+03  0.25294341955E+03  0.17300000000E+03 0.  1.
<mgrwt>
<rscale>  2 0.19281633E+03</rscale>
<asrwt>0</asrwt>
<pdfrwt beam="1">  1       21 0.94347630E-01 0.19281633E+03</pdfrwt>
<pdfrwt beam="2">  1       21 0.10395100E-01 0.19281633E+03</pdfrwt>
<totfact> 0.71328367E+04</totfact>
</mgrwt>
</event>
<event>
 4    1  0.4053645E-001  0.2145667E+03  0.7546771E-02  0.1138000E+00
         21   -1    0    0  501  502  0.00000000000E+00  0.00000000000E+00  0.13502229195E+03  0.13502229195E+03  0.00000000000E+00 0.  1.
         21   -1    0    0  502  503 -0.00000000000E+00 -0.00000000000E+00 -0.34189577967E+03  0.34189577967E+03  0.00000000000E+00 0.  1.
          6    1    1    2  501    0 -0.10629223099E+03 -0.69367473029E+02 -0.91044781238E+02  0.23308375506E+03  0.17300000000E+03 0.  1.
         -6    1    1    2    0  503  0.10629223099E+03  0.69367473029E+02 -0.11582870648E+03  0.24383431655E+03  0.17300000000E+03 0.  1.
<mgrwt>
<rscale>  2 0.21456674E+03</rscale>
<asrwt>0</asrwt>
<pdfrwt beam="1">  1       21 0.20772660E-01 0.21456674E+03</pdfrwt>
<pdfrwt beam="2">  1       21 0.52599351E-01 0.21456674E+03</pdfrwt>
<totfact> 0.72986703E+04</totfact>
</mgrwt>
</event>
<event>
 4    1  0.4053645E-001  0.1964895E+03  0.7546771E-02  0.1152735E+00
         21   -1    0    0  501  502  0.00000000000E+00  0.00000000000E+00  0.15289252447E+04  0.15289252447E+04  0.00000000000E+00 0.  1.
         21   -1    0    0  502  503 -0.00000000000E+00 -0.00000000000E+00 -0.31082744723E+02  0.31082744723E+02  0.00000000000E+00 0.  1.
          6    1    1    2  501    0  0.33356363467E+02  0.86985550004E+02  0.41108506818E+03  0.45563040523E+03  0.17300000000E+03 0. -1.
         -6    1    1    2    0  503 -0.33356363467E+02 -0.86985550004E+02  0.10867574318E+04  0.11043775842E+04  0.17300000000E+03 0. -1.
<mgrwt>
<rscale>  2 0.19648952E+03</rscale>
<asrwt>0</asrwt>
<pdfrwt beam="1">  1       21 0.23521921E+00 0.19648952E+03</pdfrwt>
<pdfrwt beam="2">  1       21 0.47819619E-02 0.19648952E+03</pdfrwt>
<totfact> 0.23527184E+04</totfact>
</mgrwt>
</event>
<event>
 4    1  0.4053645E-001  0.2180902E+03  0.7546771E-02  0.1135315E+00
         21   -1    0    0  503  502  0.00000000000E+00  0.00000000000E+00  0.59971547585E+02  0.59971547585E+02  0.00000000000E+00 0.  1.
         21   -1    0    0  501  503 -0.00000000000E+00 -0.00000000000E+00 -0.84585338975E+03  0.84585338975E+03  0.00000000000E+00 0. -1.
          6    1    1    2  501    0  0.78412361568E+02 -0.10717193636E+03 -0.50605055655E+03  0.55104490577E+03  0.17300000000E+03 0. -1.
         -6    1    1    2    0  502 -0.78412361568E+02  0.10717193636E+03 -0.27983128561E+03  0.35478003156E+03  0.17300000000E+03 0.  1.
<mgrwt>
<rscale>  2 0.21809017E+03</rscale>
<asrwt>0</asrwt>
<pdfrwt beam="1">  1       21 0.92263916E-02 0.21809017E+03</pdfrwt>
<pdfrwt beam="2">  1       21 0.13013130E+00 0.21809017E+03</pdfrwt>
<totfact> 0.39753910E+04</totfact>
</mgrwt>
</event>
<event>
 4    1  0.4053645E-001  0.2980019E+03  0.7546771E-02  0.1086244E+00
         21   -1    0    0  501  502  0.00000000000E+00  0.00000000000E+00  0.10952904381E+03  0.10952904381E+03  0.00000000000E+00 0.  1.
         21   -1    0    0  502  503 -0.00000000000E+00 -0.00000000000E+00 -0.83570248593E+03  0.83570248593E+03  0.00000000000E+00 0. -1.
          6    1    1    2  501    0 -0.22260705019E+03  0.96551733992E+02 -0.28148782022E+03  0.40992746805E+03  0.17300000000E+03 0.  1.
         -6    1    1    2    0  503  0.22260705019E+03 -0.96551733992E+02 -0.44468562190E+03  0.53530406169E+03  0.17300000000E+03 0. -1.
<mgrwt>
<rscale>  2 0.29800191E+03</rscale>
<asrwt>0</asrwt>
<pdfrwt beam="1">  1       21 0.16850622E-01 0.29800191E+03</pdfrwt>
<pdfrwt beam="2">  1       21 0.12856961E+00 0.29800191E+03</pdfrwt>
<totfact> 0.13269359E+04</totfact>
</mgrwt>
</event>
<event>
 4    1  0.4053645E-001  0.2186082E+03  0.7546771E-02  0.1134925E+00
         21   -1    0    0  503  502  0.00000000000E+00  0.00000000000E+00  0.19164919356E+03  0.19164919356E+03  0.00000000000E+00 0.  1.
         21   -1    0    0  501  503 -0.00000000000E+00 -0.00000000000E+00 -0.29619322239E+03  0.29619322239E+03  0.00000000000E+00 0.  1.
          6    1    1    2  501    0  0.11289444907E+03  0.71521931080E+02 -0.14926524729E+03  0.26470673831E+03  0.17300000000E+03 0.  1.
         -6    1    1    2    0  502 -0.11289444907E+03 -0.71521931080E+02  0.44721218462E+02  0.22313567764E+03  0.17300000000E+03 0.  1.
<mgrwt>
<rscale>  2 0.21860820E+03</rscale>
<asrwt>0</asrwt>
<pdfrwt beam="1">  1       21 0.29484491E-01 0.21860820E+03</pdfrwt>
<pdfrwt beam="2">  1       21 0.45568188E-01 0.21860820E+03</pdfrwt>
<totfact> 0.50276552E+04</totfact>
</mgrwt>
</event>
<event>
 4    1  0.4053645E-001  0.2630491E+03  0.7546771E-02  0.1105325E+00
         21   -1    0    0  501  502  0.00000000000E+00  0.00000000000E+00  0.40704109554E+03  0.40704109554E+03  0.00000000000E+00 0.  1.
         21   -1    0    0  502  503 -0.00000000000E+00 -0.00000000000E+00 -0.17104934480E+03  0.17104934480E+03  0.00000000000E+00 0. -1.
          6    1    1    2  501    0  0.89454960848E+02 -0.17681520307E+03  0.95298807391E+02  0.27977967894E+03  0.17300000000E+03 0. -1.
         -6    1    1    2    0  503 -0.89454960848E+02  0.17681520307E+03  0.14069294335E+03  0.29831076140E+03  0.17300000000E+03 0.  1.
<mgrwt>
<rscale>  2 0.26304906E+03</rscale>
<asrwt>0</asrwt>
<pdfrwt beam="1">  1       21 0.62621707E-01 0.26304906E+03</pdfrwt>
<pdfrwt beam="2">  1       21 0.26315284E-01 0.26304906E+03</pdfrwt>
<totfact> 0.31358118E+04</totfact>
</mgrwt>
</event>
<event>
 4    1  0.4053645E-001  0.1929710E+03  0.7546771E-02  0.1155809E+00
         21   -1    0    0  503  502  0.00000000000E+00  0.00000000000E+00  0.46939791325E+02  0.46939791325E+02  0.00000000000E+00 0. -1.
         21   -1    0    0  501  503 -0.00000000000E+00 -0.00000000000E+00 -0.87476457572E+03  0.87476457572E+03  0.00000000000E+00 0. -1.
          6    1    1    2  501    0  0.67508560016E+01  0.85224658364E+02 -0.55454084445E+03  0.58715701870E+03  0.17300000000E+03 0. -1.
         -6    1    1    2    0  502 -0.67508560016E+01 -0.85224658364E+02 -0.27328393995E+03  0.33454734834E+03  0.17300000000E+03 0. -1.
<mgrwt>
<rscale>  2 0.19297102E+03</rscale>
<asrwt>0</asrwt>
<pdfrwt beam="1">  1       21 0.72215066E-02 0.19297102E+03</pdfrwt>
<pdfrwt beam="2">  1       21 0.13457916E+00 0.19297102E+03</pdfrwt>
<totfact> 0.56749729E+04</totfact>
</mgrwt>
</event>
<event>
 4    1  0.4053645E-001  0.2347990E+03  0.7546771E-02  0.1123307E+00
         21   -1    0    0  503  502  0.00000000000E+00  0.00000000000E+00  0.68280164696E+03  0.68280164696E+03  0.00000000000E+00 0.  1.
         21   -1    0    0  501  503 -0.00000000000E+00 -0.00000000000E+00 -0.80896616839E+02  0.80896616839E+02  0.00000000000E+00 0.  1.
          6    1    1    2  501    0 -0.15648137059E+03  0.26742227360E+02  0.31766246964E+03  0.39501900041E+03  0.17300000000E+03 0.  1.
         -6    1    1    2    0  502  0.15648137059E+03 -0.26742227360E+02  0.28424256048E+03  0.36867926339E+03  0.17300000000E+03 0.  1.
<mgrwt>
<rscale>  2 0.23479899E+03</rscale>
<asrwt>0</asrwt>
<pdfrwt beam="1">  1       21 0.10504640E+00 0.23479899E+03</pdfrwt>
<pdfrwt beam="2">  1       21 0.12445634E-01 0.23479899E+03</pdfrwt>
<totfact> 0.39260468E+04</totfact>
</mgrwt>
</event>
<event>
 4    1  0.4053645E-001  0.1758275E+03  0.7546771E-02  0.1171903E+00
         21   -1    0    0  503  502  0.00000000000E+00  0.00000000000E+00  0.57840726933E+03  0.57840726933E+03  0.00000000000E+00 0. -1.
         21   -1    0    0  501  503 -0.00000000000E+00 -0.00000000000E+00 -0.53542805619E+02  0.53542805619E+02  0.00000000000E+00 0. -1.
          6    1    1    2  501    0 -0.20206951512E+02 -0.24041255012E+02  0.24920814081E+03  0.30499180362E+03  0.17300000000E+03 0.  1.
         -6    1    1    2    0  502  0.20206951512E+02  0.24041255012E+02  0.27565632290E+03  0.32695827133E+03  0.17300000000E+03 0.  1.
<mgrwt>
<rscale>  2 0.17582748E+03</rscale>
<asrwt>0</asrwt>
<pdfrwt beam="1">  1       21 0.88985729E-01 0.17582748E+03</pdfrwt>
<pdfrwt beam="2">  1       21 0.82373551E-02 0.17582748E+03</pdfrwt>
<totfact> 0.12377426E+05</totfact>
</mgrwt>
</event>
<event>
 4    1  0.4053645E-001  0.2546551E+03  0.7546771E-02  0.1110398E+00
         21   -1    0    0  503  502  0.00000000000E+00  0.00000000000E+00  0.26938306832E+03  0.26938306832E+03  0.00000000000E+00 0.  1.
         21   -1    0    0  501  503 -0.00000000000E+00 -0.00000000000E+00 -0.26539052772E+03  0.26539052772E+03  0.00000000000E+00 0.  1.
          6    1    1    2  501    0 -0.17536884441E+02  0.18604485487E+03 -0.79507438720E+02  0.26677830337E+03  0.17300000000E+03 0.  1.
         -6    1    1    2    0  502  0.17536884441E+02 -0.18604485487E+03  0.83499979320E+02  0.26799529266E+03  0.17300000000E+03 0.  1.
<mgrwt>
<rscale>  2 0.25465512E+03</rscale>
<asrwt>0</asrwt>
<pdfrwt beam="1">  1       21 0.41443549E-01 0.25465512E+03</pdfrwt>
<pdfrwt beam="2">  1       21 0.40829312E-01 0.25465512E+03</pdfrwt>
<totfact> 0.31426546E+04</totfact>
</mgrwt>
</event>
<event>
 4    1  0.4053645E-001  0.2237807E+03  0.7546771E-02  0.1131095E+00
         21   -1    0    0  503  502  0.00000000000E+00  0.00000000000E+00  0.34893812508E+03  0.34893812508E+03  0.00000000000E+00 0.  1.
         21   -1    0    0  501  503 -0.00000000000E+00 -0.00000000000E+00 -0.14359241309E+03  0.14359241309E+03  0.00000000000E+00 0.  1.
          6    1    1    2  501    0 -0.58373889692E+02 -0.12938808444E+03  0.10839801543E+03  0.24865220116E+03  0.17300000000E+03 0.  1.
         -6    1    1    2    0  502  0.58373889692E+02  0.12938808444E+03  0.96947696555E+02  0.24387833701E+03  0.17300000000E+03 0.  1.
<mgrwt>
<rscale>  2 0.22378067E+03</rscale>
<asrwt>0</asrwt>
<pdfrwt beam="1">  1       21 0.53682788E-01 0.22378067E+03</pdfrwt>
<pdfrwt beam="2">  1       21 0.22091141E-01 0.22378067E+03</pdfrwt>
<totfact> 0.62011499E+04</totfact>
</mgrwt>
</event>
<event>
 4    1  0.4053645E-001  0.2781129E+03  0.7546771E-02  0.1096724E+00
         21   -1    0    0  503  502  0.00000000000E+00  0.00000000000E+00  0.17123734596E+03  0.17123734596E+03  0.00000000000E+00 0.  1.
         21   -1    0    0  501  503 -0.00000000000E+00 -0.00000000000E+00 -0.46130658332E+03  0.46130658332E+03  0.00000000000E+00 0. -1.
          6    1    1    2  501    0  0.21390367182E+03  0.40780163320E+02 -0.19069046294E+03  0.33720862266E+03  0.17300000000E+03 0. -1.
         -6    1    1    2    0  502 -0.21390367182E+03 -0.40780163320E+02 -0.99378774419E+02  0.29533530663E+03  0.17300000000E+03 0.  1.
<mgrwt>
<rscale>  2 0.27811293E+03</rscale>
<asrwt>0</asrwt>
<pdfrwt beam="1">  1       21 0.26344207E-01 0.27811293E+03</pdfrwt>
<pdfrwt beam="2">  1       21 0.70970244E-01 0.27811293E+03</pdfrwt>
<totfact> 0.23594566E+04</totfact>
</mgrwt>
</event>
<event>
 4    1  0.4053645E-001  0.1947845E+03  0.7546771E-02  0.1154215E+00
         21   -1    0    0  501  502  0.00000000000E+00  0.00000000000E+00  0.42979629800E+03  0.42979629800E+03  0.00000000000E+00 0. -1.
         21   -1    0    0  502  503 -0.00000000000E+00 -0.00000000000E+00 -0.12020476351E+03  0.12020476351E+03  0.00000000000E+00 0. -1.
          6    1    1    2  501    0 -0.30276512026E+02  0.84233768939E+02  0.29652487173E+03  0.35477879667E+03  0.17300000000E+03 0. -1.
         -6    1    1    2    0  503  0.30276512026E+02 -0.84233768939E+02  0.13066662756E+02  0.19522226483E+03  0.17300000000E+03 0. -1.
<mgrwt>
<rscale>  2 0.19478448E+03</rscale>
<asrwt>0</asrwt>
<pdfrwt beam="1">  1       21 0.66122506E-01 0.19478448E+03</pdfrwt>
<pdfrwt beam="2">  1       21 0.18493041E-01 0.19478448E+03</pdfrwt>
<totfact> 0.56018417E+04</totfact>
</mgrwt>
</event>
<event>
 4    1  0.4053645E-001  0.1876440E+03  0.7546771E-02  0.1160604E+00
         21   -1    0    0  503  502  0.00000000000E+00  0.00000000000E+00  0.58032338591E+03  0.58032338591E+03  0.00000000000E+00 0.  1.
         21   -1    0    0  501  503 -0.00000000000E+00 -0.00000000000E+00 -0.76409802523E+02  0.76409802523E+02  0.00000000000E+00 0.  1.
          6    1    1    2  501    0 -0.72630155911E+02  0.24795773672E+01  0.10294010578E+03  0.21402559013E+03  0.17300000000E+03 0.  1.
         -6    1    1    2    0  502  0.72630155911E+02 -0.24795773672E+01  0.40097347761E+03  0.44270759830E+03  0.17300000000E+03 0.  1.
<mgrwt>
<rscale>  2 0.18764405E+03</rscale>
<asrwt>0</asrwt>
<pdfrwt beam="1">  1       21 0.89280518E-01 0.18764405E+03</pdfrwt>
<pdfrwt beam="2">  1       21 0.11755355E-01 0.18764405E+03</pdfrwt>
<totfact> 0.65309589E+04</totfact>
</mgrwt>
</event>
<event>
 4    1  0.4053645E-001  0.2193093E+03  0.7546771E-02  0.1134399E+00
         21   -1    0    0  503  502  0.00000000000E+00  0.00000000000E+00  0.22148887544E+03  0.22148887544E+03  0.00000000000E+00 0.  1.
         21   -1    0    0  501  503 -0.00000000000E+00 -0.00000000000E+00 -0.31253896314E+03  0.31253896314E+03  0.00000000000E+00 0.  1.
          6    1    1    2  501    0 -0.10022737170E+03 -0.90122309082E+02  0.10198729196E+03  0.24186352423E+03  0.17300000000E+03 0.  1.
         -6    1    1    2    0  502  0.10022737170E+03  0.90122309082E+02 -0.19303737967E+03  0.29216431435E+03  0.17300000000E+03 0.  1.
<mgrwt>
<rscale>  2 0.21930927E+03</rscale>
<asrwt>0</asrwt>
<pdfrwt beam="1">  1       21 0.34075211E-01 0.21930927E+03</pdfrwt>
<pdfrwt beam="2">  1       21 0.48082918E-01 0.21930927E+03</pdfrwt>
<totfact> 0.33824699E+04</totfact>
</mgrwt>
</event>
<event>
 4    1  0.4053645E-001  0.1749948E+03  0.7546771E-02  0.1172737E+00
         21   -1    0    0  503  502  0.00000000000E+00  0.00000000000E+00  0.22888302558E+02  0.22888302558E+02  0.00000000000E+00 0.  1.
         21   -1    0    0  501  503 -0.00000000000E+00 -0.00000000000E+00 -0.14396850821E+04  0.14396850821E+04  0.00000000000E+00 0.  1.
          6    1    1    2  501    0  0.24965011907E+02 -0.84212294141E+01 -0.90280509808E+03  0.91960872878E+03  0.17300000000E+03 0.  1.
         -6    1    1    2    0  502 -0.24965011907E+02  0.84212294141E+01 -0.51399168150E+03  0.54296465591E+03  0.17300000000E+03 0.  1.
<mgrwt>
<rscale>  2 0.17499477E+03</rscale>
<asrwt>0</asrwt>
<pdfrwt beam="1">  1       21 0.35212771E-02 0.17499477E+03</pdfrwt>
<pdfrwt beam="2">  1       21 0.22149003E+00 0.17499477E+03</pdfrwt>
<totfact> 0.48378714E+04</totfact>
</mgrwt>
</event>
<event>
 4    1  0.4053645E-001  0.2291163E+03  0.7546771E-02  0.1127263E+00
         21   -1    0    0  503  502  0.00000000000E+00  0.00000000000E+00  0.70334362633E+03  0.70334362633E+03  0.00000000000E+00 0. -1.
         21   -1    0    0  501  503 -0.00000000000E+00 -0.00000000000E+00 -0.97864583794E+02  0.97864583794E+02  0.00000000000E+00 0.  1.
          6    1    1    2  501    0 -0.12129135002E+03 -0.88620943015E+02  0.10756616934E+03  0.25311014187E+03  0.17300000000E+03 0.  1.
         -6    1    1    2    0  502  0.12129135002E+03  0.88620943015E+02  0.49791287320E+03  0.54809806826E+03  0.17300000000E+03 0. -1.
<mgrwt>
<rscale>  2 0.22911627E+03</rscale>
<asrwt>0</asrwt>
<pdfrwt beam="1">  1       21 0.10820671E+00 0.22911627E+03</pdfrwt>
<pdfrwt beam="2">  1       21 0.15056090E-01 0.22911627E+03</pdfrwt>
<totfact> 0.25934567E+04</totfact>
</mgrwt>
</event>
<event>
 4    1  0.4053645E-001  0.2023021E+03  0.7546771E-02  0.1147811E+00
         21   -1    0    0  503  502  0.00000000000E+00  0.00000000000E+00  0.20520389835E+03  0.20520389835E+03  0.00000000000E+00 0.  1.
         21   -1    0    0  501  503 -0.00000000000E+00 -0.00000000000E+00 -0.24842629992E+03  0.24842629992E+03  0.00000000000E+00 0. -1.
          6    1    1    2  501    0 -0.75836444734E+02 -0.72429047498E+02 -0.12232864823E+03  0.23641157215E+03  0.17300000000E+03 0. -1.
         -6    1    1    2    0  502  0.75836444734E+02  0.72429047498E+02  0.79106246662E+02  0.21721862612E+03  0.17300000000E+03 0.  1.
<mgrwt>
<rscale>  2 0.20230208E+03</rscale>
<asrwt>0</asrwt>
<pdfrwt beam="1">  1       21 0.31569831E-01 0.20230208E+03</pdfrwt>
<pdfrwt beam="2">  1       21 0.38219431E-01 0.20230208E+03</pdfrwt>
<totfact> 0.63394361E+04</totfact>
</mgrwt>
</event>
<event>
 4    1  0.4053645E-001  0.2305408E+03  0.7546771E-02  0.1126260E+00
         21   -1    0    0  501  502  0.00000000000E+00  0.00000000000E+00  0.28936155258E+03  0.28936155258E+03  0.00000000000E+00 0. -1.
         21   -1    0    0  502  503 -0.00000000000E+00 -0.00000000000E+00 -0.20003152526E+03  0.20003152526E+03  0.00000000000E+00 0. -1.
          6    1    1    2  501    0  0.58771805992E+02  0.14059131523E+03  0.11463284881E+03  0.25746792640E+03  0.17300000000E+03 0. -1.
         -6    1    1    2    0  503 -0.58771805992E+02 -0.14059131523E+03 -0.25302821492E+02  0.23192515144E+03  0.17300000000E+03 0. -1.
<mgrwt>
<rscale>  2 0.23054076E+03</rscale>
<asrwt>0</asrwt>
<pdfrwt beam="1">  1       21 0.44517162E-01 0.23054076E+03</pdfrwt>
<pdfrwt beam="2">  1       21 0.30774081E-01 0.23054076E+03</pdfrwt>
<totfact> 0.48260091E+04</totfact>
</mgrwt>
</event>
<event>
 4    1  0.4053645E-001  0.2027213E+03  0.7546771E-02  0.1147463E+00
         21   -1    0    0  503  502  0.00000000000E+00  0.00000000000E+00  0.12269385368E+03  0.12269385368E+03  0.00000000000E+00 0. -1.
         21   -1    0    0  501  503 -0.00000000000E+00 -0.00000000000E+00 -0.48788873230E+03  0.48788873230E+03  0.00000000000E+00 0.  1.
          6    1    1    2  501    0 -0.10366243908E+03  0.20519327850E+02 -0.35352691422E+03  0.40752573314E+03  0.17300000000E+03 0.  1.
         -6    1    1    2    0  502  0.10366243908E+03 -0.20519327850E+02 -0.11667964403E+02  0.20305685284E+03  0.17300000000E+03 0. -1.
<mgrwt>
<rscale>  2 0.20272135E+03</rscale>
<asrwt>0</asrwt>
<pdfrwt beam="1">  1       21 0.18875978E-01 0.20272135E+03</pdfrwt>
<pdfrwt beam="2">  1       21 0.75059804E-01 0.20272135E+03</pdfrwt>
<totfact> 0.40589187E+04</totfact>
</mgrwt>
</event>
<event>
 4    1  0.4053645E-001  0.1745416E+03  0.7546771E-02  0.1173193E+00
         21   -1    0    0  503  502  0.00000000000E+00  0.00000000000E+00  0.97370055538E+02  0.97370055538E+02  0.00000000000E+00 0. -1.
         21   -1    0    0  501  503 -0.00000000000E+00 -0.00000000000E+00 -0.38698937864E+03  0.38698937864E+03  0.00000000000E+00 0. -1.
          6    1    1    2  501    0 -0.60634820327E+01  0.22338766340E+02 -0.25079250420E+03  0.30555141377E+03  0.17300000000E+03 0. -1.
         -6    1    1    2    0  502  0.60634820327E+01 -0.22338766340E+02 -0.38826818906E+02  0.17880802041E+03  0.17300000000E+03 0. -1.
<mgrwt>
<rscale>  2 0.17454165E+03</rscale>
<asrwt>0</asrwt>
<pdfrwt beam="1">  1       21 0.14980009E-01 0.17454165E+03</pdfrwt>
<pdfrwt beam="2">  1       21 0.59536826E-01 0.17454165E+03</pdfrwt>
<totfact> 0.10432187E+05</totfact>
</mgrwt>
</event>
<event>
 4    1  0.4053645E-001  0.1766850E+03  0.7546771E-02  0.1171050E+00
         21   -1    0    0  501  502  0.00000000000E+00  0.00000000000E+00  0.40745683185E+03  0.40745683185E+03  0.00000000000E+00 0.  1.
         21   -1    0    0  502  503 -0.00000000000E+00 -0.00000000000E+00 -0.79615072146E+02  0.79615072146E+02  0.00000000000E+00 0.  1.
          6    1    1    2  501    0  0.18799706121E+02  0.30580455947E+02  0.21119028186E+03  0.27535237131E+03  0.17300000000E+03 0. -1.
         -6    1    1    2    0  503 -0.18799706121E+02 -0.30580455947E+02  0.11665147784E+03  0.21171953268E+03  0.17300000000E+03 0. -1.
<mgrwt>
<rscale>  2 0.17668501E+03</rscale>
<asrwt>0</asrwt>
<pdfrwt beam="1">  1       21 0.62685665E-01 0.17668501E+03</pdfrwt>
<pdfrwt beam="2">  1       21 0.12248473E-01 0.17668501E+03</pdfrwt>
<totfact> 0.13412205E+05</totfact>
</mgrwt>
</event>
<event>
 4    1  0.4053645E-001  0.1732268E+03  0.7546771E-02  0.1174524E+00
         21   -1    0    0  501  502  0.00000000000E+00  0.00000000000E+00  0.46398440908E+03  0.46398440908E+03  0.00000000000E+00 0. -1.
         21   -1    0    0  502  503 -0.00000000000E+00 -0.00000000000E+00 -0.69203650631E+02  0.69203650631E+02  0.00000000000E+00 0. -1.
          6    1    1    2  501    0 -0.29919198319E+01 -0.83415048628E+01  0.26559887258E+03  0.31709666256E+03  0.17300000000E+03 0.  1.
         -6    1    1    2    0  503  0.29919198319E+01  0.83415048628E+01  0.12918188586E+03  0.21609139715E+03  0.17300000000E+03 0.  1.
<mgrwt>
<rscale>  2 0.17322682E+03</rscale>
<asrwt>0</asrwt>
<pdfrwt beam="1">  1       21 0.71382215E-01 0.17322682E+03</pdfrwt>
<pdfrwt beam="2">  1       21 0.10646716E-01 0.17322682E+03</pdfrwt>
<totfact> 0.12978239E+05</totfact>
</mgrwt>
</event>
<event>
 4    1  0.4053645E-001  0.1887227E+03  0.7546771E-02  0.1159618E+00
         21   -1    0    0  501  502  0.00000000000E+00  0.00000000000E+00  0.49106761692E+03  0.49106761692E+03  0.00000000000E+00 0. -1.
         21   -1    0    0  502  503 -0.00000000000E+00 -0.00000000000E+00 -0.96207017958E+02  0.96207017958E+02  0.00000000000E+00 0.  1.
          6    1    1    2  501    0 -0.60355494507E+02 -0.45215964405E+02  0.34310613882E+03  0.39158407992E+03  0.17300000000E+03 0. -1.
         -6    1    1    2    0  503  0.60355494507E+02  0.45215964405E+02  0.51754460145E+02  0.19569055496E+03  0.17300000000E+03 0.  1.
<mgrwt>
<rscale>  2 0.18872273E+03</rscale>
<asrwt>0</asrwt>
<pdfrwt beam="1">  1       21 0.75548863E-01 0.18872273E+03</pdfrwt>
<pdfrwt beam="2">  1       21 0.14801080E-01 0.18872273E+03</pdfrwt>
<totfact> 0.62982997E+04</totfact>
</mgrwt>
</event>
<event>
 4    1  0.4053645E-001  0.1929996E+03  0.7546771E-02  0.1155783E+00
         21   -1    0    0  503  502  0.00000000000E+00  0.00000000000E+00  0.25689606353E+02  0.25689606353E+02  0.00000000000E+00 0.  1.
         21   -1    0    0  501  503 -0.00000000000E+00 -0.00000000000E+00 -0.15927898938E+04  0.15927898938E+04  0.00000000000E+00 0. -1.
          6    1    1    2  501    0 -0.82474269551E+02  0.22756478685E+02 -0.10258816245E+04  0.10438783310E+04  0.17300000000E+03 0. -1.
         -6    1    1    2    0  502  0.82474269551E+02 -0.22756478685E+02 -0.54121866294E+03  0.57460116914E+03  0.17300000000E+03 0. -1.
<mgrwt>
<rscale>  2 0.19299964E+03</rscale>
<asrwt>0</asrwt>
<pdfrwt beam="1">  1       21 0.39522471E-02 0.19299964E+03</pdfrwt>
<pdfrwt beam="2">  1       21 0.24504460E+00 0.19299964E+03</pdfrwt>
<totfact> 0.28427339E+04</totfact>
</mgrwt>
</event>
<event>
 4    1  0.4053645E-001  0.2064915E+03  0.7546771E-02  0.1144375E+00
         21   -1    0    0  501  502  0.00000000000E+00  0.00000000000E+00  0.12433332597E+03  0.12433332597E+03  0.00000000000E+00 0.  1.
         21   -1    0    0  502  503 -0.00000000000E+00 -0.00000000000E+00 -0.34995328738E+03  0.34995328738E+03  0.00000000000E+00 0.  1.
          6    1    1    2  501    0 -0.77502037017E+02 -0.81872954392E+02 -0.79236402606E+02  0.22117222678E+03  0.17300000000E+03 0.  1.
         -6    1    1    2    0  503  0.77502037017E+02  0.81872954392E+02 -0.14638355880E+03  0.25311438657E+03  0.17300000000E+03 0.  1.
<mgrwt>
<rscale>  2 0.20649152E+03</rscale>
<asrwt>0</asrwt>
<pdfrwt beam="1">  1       21 0.19128204E-01 0.20649152E+03</pdfrwt>
<pdfrwt beam="2">  1       21 0.53838966E-01 0.20649152E+03</pdfrwt>
<totfact> 0.81358413E+04</totfact>
</mgrwt>
</event>
<event>
 4    1  0.4053645E-001  0.2029159E+03  0.7546771E-02  0.1147302E+00
         21   -1    0    0  501  502  0.00000000000E+00  0.00000000000E+00  0.25441032732E+03  0.25441032732E+03  0.00000000000E+00 0.  1.
         21   -1    0    0  502  503 -0.00000000000E+00 -0.00000000000E+00 -0.16240011975E+03  0.16240011975E+03  0.00000000000E+00 0.  1.
          6    1    1    2  501    0 -0.56273307342E+02  0.89884202510E+02  0.58197587319E+02  0.21109669384E+03  0.17300000000E+03 0.  1.
         -6    1    1    2    0  503  0.56273307342E+02 -0.89884202510E+02  0.33812620243E+02  0.20571375323E+03  0.17300000000E+03 0.  1.
<mgrwt>
<rscale>  2 0.20291588E+03</rscale>
<asrwt>0</asrwt>
<pdfrwt beam="1">  1       21 0.39140050E-01 0.20291588E+03</pdfrwt>
<pdfrwt beam="2">  1       21 0.24984634E-01 0.20291588E+03</pdfrwt>
<totfact> 0.95037555E+04</totfact>
</mgrwt>
</event>
<event>
 4    1  0.4053645E-001  0.2318578E+03  0.7546771E-02  0.1125339E+00
         21   -1    0    0  503  502  0.00000000000E+00  0.00000000000E+00  0.71934273972E+03  0.71934273972E+03  0.00000000000E+00 0.  1.
         21   -1    0    0  501  503 -0.00000000000E+00 -0.00000000000E+00 -0.74808151208E+02  0.74808151208E+02  0.00000000000E+00 0. -1.
          6    1    1    2  501    0  0.15016782582E+03 -0.35758702971E+02  0.30961454891E+03  0.38680644985E+03  0.17300000000E+03 0.  1.
         -6    1    1    2    0  502 -0.15016782582E+03  0.35758702971E+02  0.33492003961E+03  0.40734444108E+03  0.17300000000E+03 0.  1.
<mgrwt>
<rscale>  2 0.23185785E+03</rscale>
<asrwt>0</asrwt>
<pdfrwt beam="1">  1       21 0.11066811E+00 0.23185785E+03</pdfrwt>
<pdfrwt beam="2">  1       21 0.11508947E-01 0.23185785E+03</pdfrwt>
<totfact> 0.39872589E+04</totfact>
</mgrwt>
</event>
<event>
 4    1  0.4053645E-001  0.1972623E+03  0.7546771E-02  0.1152070E+00
         21   -1    0    0  503  502  0.00000000000E+00  0.00000000000E+00  0.27591874310E+03  0.27591874310E+03  0.00000000000E+00 0. -1.
         21   -1    0    0  501  503 -0.00000000000E+00 -0.00000000000E+00 -0.15351547606E+03  0.15351547606E+03  0.00000000000E+00 0.  1.
          6    1    1    2  501    0 -0.49483004235E+02 -0.80838422539E+02 -0.36009396778E-01  0.19726231156E+03  0.17300000000E+03 0.  1.
         -6    1    1    2    0  502  0.49483004235E+02  0.80838422539E+02  0.12243927644E+03  0.23217190761E+03  0.17300000000E+03 0. -1.
<mgrwt>
<rscale>  2 0.19726231E+03</rscale>
<asrwt>0</asrwt>
<pdfrwt beam="1">  1       21 0.42449037E-01 0.19726231E+03</pdfrwt>
<pdfrwt beam="2">  1       21 0.23617766E-01 0.19726231E+03</pdfrwt>
<totfact> 0.89951397E+04</totfact>
</mgrwt>
</event>
<event>
 4    1  0.4053645E-001  0.2701383E+03  0.7546771E-02  0.1101200E+00
         21   -1    0    0  501  502  0.00000000000E+00  0.00000000000E+00  0.42350064667E+02  0.42350064667E+02  0.00000000000E+00 0.  1.
         21   -1    0    0  502  503 -0.00000000000E+00 -0.00000000000E+00 -0.21784968363E+04  0.21784968363E+04  0.00000000000E+00 0. -1.
          6    1    1    2  501    0 -0.17187848500E+03  0.11620444696E+03 -0.56039271319E+03  0.62210503943E+03  0.17300000000E+03 0.  1.
         -6    1    1    2    0  503  0.17187848500E+03 -0.11620444696E+03 -0.15757540584E+04  0.15987418615E+04  0.17300000000E+03 0. -1.
<mgrwt>
<rscale>  2 0.27013827E+03</rscale>
<asrwt>0</asrwt>
<pdfrwt beam="1">  1       21 0.65153957E-02 0.27013827E+03</pdfrwt>
<pdfrwt beam="2">  1       21 0.33515330E+00 0.27013827E+03</pdfrwt>
<totfact> 0.33641329E+03</totfact>
</mgrwt>
</event>
<event>
 4    1  0.4053645E-001  0.1916465E+03  0.7546771E-02  0.1156985E+00
         21   -1    0    0  501  502  0.00000000000E+00  0.00000000000E+00  0.31926840688E+03  0.31926840688E+03  0.00000000000E+00 0.  1.
         21   -1    0    0  502  503 -0.00000000000E+00 -0.00000000000E+00 -0.11703313341E+03  0.11703313341E+03  0.00000000000E+00 0. -1.
          6    1    1    2  501    0  0.29135076121E+02  0.77139575223E+02  0.12959258261E+03  0.23134952819E+03  0.17300000000E+03 0.  1.
         -6    1    1    2    0  503 -0.29135076121E+02 -0.77139575223E+02  0.72642690855E+02  0.20495201209E+03  0.17300000000E+03 0.  1.
<mgrwt>
<rscale>  2 0.19164646E+03</rscale>
<asrwt>0</asrwt>
<pdfrwt beam="1">  1       21 0.49118216E-01 0.19164646E+03</pdfrwt>
<pdfrwt beam="2">  1       21 0.18005098E-01 0.19164646E+03</pdfrwt>
<totfact> 0.11100635E+05</totfact>
</mgrwt>
</event>
<event>
 4    1  0.4053645E-001  0.2050949E+03  0.7546771E-02  0.1145510E+00
         21   -1    0    0  503  502  0.00000000000E+00  0.00000000000E+00  0.64369896166E+02  0.64369896166E+02  0.00000000000E+00 0.  1.
         21   -1    0    0  501  503 -0.00000000000E+00 -0.00000000000E+00 -0.75915624007E+03  0.75915624007E+03  0.00000000000E+00 0.  1.
          6    1    1    2  501    0  0.91427859461E+02  0.61448049917E+02 -0.50102712059E+03  0.54137980373E+03  0.17300000000E+03 0.  1.
         -6    1    1    2    0  502 -0.91427859461E+02 -0.61448049917E+02 -0.19375922331E+03  0.28214633250E+03  0.17300000000E+03 0.  1.
<mgrwt>
<rscale>  2 0.20509490E+03</rscale>
<asrwt>0</asrwt>
<pdfrwt beam="1">  1       21 0.99030603E-02 0.20509490E+03</pdfrwt>
<pdfrwt beam="2">  1       21 0.11679327E+00 0.20509490E+03</pdfrwt>
<totfact> 0.46293675E+04</totfact>
</mgrwt>
</event>
<event>
 4    1  0.4053645E-001  0.1799465E+03  0.7546771E-02  0.1167855E+00
         21   -1    0    0  503  502  0.00000000000E+00  0.00000000000E+00  0.26980199090E+02  0.26980199090E+02  0.00000000000E+00 0. -1.
         21   -1    0    0  501  503 -0.00000000000E+00 -0.00000000000E+00 -0.30486797680E+04  0.30486797680E+04  0.00000000000E+00 0. -1.
          6    1    1    2  501    0 -0.33911497470E+02  0.36079631799E+02 -0.27083172232E+04  0.27142886565E+04  0.17300000000E+03 0. -1.
         -6    1    1    2    0  502  0.33911497470E+02 -0.36079631799E+02 -0.31338234570E+03  0.36137131055E+03  0.17300000000E+03 0. -1.
<mgrwt>
<rscale>  2 0.17994646E+03</rscale>
<asrwt>0</asrwt>
<pdfrwt beam="1">  1       21 0.41508006E-02 0.17994646E+03</pdfrwt>
<pdfrwt beam="2">  1       21 0.46902758E+00 0.17994646E+03</pdfrwt>
<totfact> 0.11665029E+03</totfact>
</mgrwt>
</event>
<event>
 4    1  0.4053645E-001  0.2728714E+03  0.7546771E-02  0.1099647E+00
         21   -1    0    0  501  502  0.00000000000E+00  0.00000000000E+00  0.11862749945E+04  0.11862749945E+04  0.00000000000E+00 0.  1.
         21   -1    0    0  502  503 -0.00000000000E+00 -0.00000000000E+00 -0.62873026768E+02  0.62873026768E+02  0.00000000000E+00 0. -1.
          6    1    1    2  501    0  0.13560561493E+03 -0.16168154712E+03  0.58736127387E+03  0.64765119587E+03  0.17300000000E+03 0.  1.
         -6    1    1    2    0  503 -0.13560561493E+03  0.16168154712E+03  0.53604069389E+03  0.60149682541E+03  0.17300000000E+03 0. -1.
<mgrwt>
<rscale>  2 0.27287141E+03</rscale>
<asrwt>0</asrwt>
<pdfrwt beam="1">  1       21 0.18250383E+00 0.27287141E+03</pdfrwt>
<pdfrwt beam="2">  1       21 0.96727742E-02 0.27287141E+03</pdfrwt>
<totfact> 0.14281954E+04</totfact>
</mgrwt>
</event>
<event>
 4    1  0.4053645E-001  0.1842871E+03  0.7546771E-02  0.1163717E+00
         21   -1    0    0  501  502  0.00000000000E+00  0.00000000000E+00  0.14637473740E+02  0.14637473740E+02  0.00000000000E+00 0. -1.
         21   -1    0    0  502  503 -0.00000000000E+00 -0.00000000000E+00 -0.24316915627E+04  0.24316915627E+04  0.00000000000E+00 0. -1.
          6    1    1    2  501    0  0.15974576281E+02 -0.61461894323E+02 -0.14704460044E+04  0.14819491231E+04  0.17300000000E+03 0. -1.
         -6    1    1    2    0  503 -0.15974576281E+02  0.61461894323E+02 -0.94660808462E+03  0.96437991342E+03  0.17300000000E+03 0. -1.
<mgrwt>
<rscale>  2 0.18428714E+03</rscale>
<asrwt>0</asrwt>
<pdfrwt beam="1">  1       21 0.22519206E-02 0.18428714E+03</pdfrwt>
<pdfrwt beam="2">  1       21 0.37410613E+00 0.18428714E+03</pdfrwt>
<totfact> 0.12868165E+04</totfact>
</mgrwt>
</event>
<event>
 4    1  0.4053645E-001  0.2317848E+03  0.7546771E-02  0.1125390E+00
         21   -1    0    0  503  502  0.00000000000E+00  0.00000000000E+00  0.64423363433E+03  0.64423363433E+03  0.00000000000E+00 0.  1.
         21   -1    0    0  501  503 -0.00000000000E+00 -0.00000000000E+00 -0.10343467178E+03  0.10343467178E+03  0.00000000000E+00 0.  1.
          6    1    1    2  501    0 -0.10872126089E+01  0.15425300697E+03  0.10584123131E+03  0.25480686497E+03  0.17300000000E+03 0.  1.
         -6    1    1    2    0  502  0.10872126089E+01 -0.15425300697E+03  0.43495773125E+03  0.49286144114E+03  0.17300000000E+03 0.  1.
<mgrwt>
<rscale>  2 0.23178475E+03</rscale>
<asrwt>0</asrwt>
<pdfrwt beam="1">  1       21 0.99112865E-01 0.23178475E+03</pdfrwt>
<pdfrwt beam="2">  1       21 0.15913027E-01 0.23178475E+03</pdfrwt>
<totfact> 0.28903936E+04</totfact>
</mgrwt>
</event>
<event>
 4    1  0.4053645E-001  0.2078638E+03  0.7546771E-02  0.1143269E+00
         21   -1    0    0  503  502  0.00000000000E+00  0.00000000000E+00  0.53614788146E+03  0.53614788146E+03  0.00000000000E+00 0. -1.
         21   -1    0    0  501  503 -0.00000000000E+00 -0.00000000000E+00 -0.80614237990E+02  0.80614237990E+02  0.00000000000E+00 0. -1.
          6    1    1    2  501    0 -0.11486604674E+03  0.91737162306E+01  0.22225903930E+03  0.30431307286E+03  0.17300000000E+03 0. -1.
         -6    1    1    2    0  502  0.11486604674E+03 -0.91737162306E+01  0.23327460417E+03  0.31244904659E+03  0.17300000000E+03 0. -1.
<mgrwt>
<rscale>  2 0.20786382E+03</rscale>
<asrwt>0</asrwt>
<pdfrwt beam="1">  1       21 0.82484287E-01 0.20786382E+03</pdfrwt>
<pdfrwt beam="2">  1       21 0.12402191E-01 0.20786382E+03</pdfrwt>
<totfact> 0.70492309E+04</totfact>
</mgrwt>
</event>
<event>
 4    1  0.4053645E-001  0.1977485E+03  0.7546771E-02  0.1151653E+00
         21   -1    0    0  501  502  0.00000000000E+00  0.00000000000E+00  0.19031496865E+03  0.19031496865E+03  0.00000000000E+00 0. -1.
         21   -1    0    0  502  503 -0.00000000000E+00 -0.00000000000E+00 -0.20788194574E+03  0.20788194574E+03  0.00000000000E+00 0. -1.
          6    1    1    2  501    0  0.80704146051E+02  0.51597464305E+02  0.12652059999E+02  0.19815279997E+03  0.17300000000E+03 0. -1.
         -6    1    1    2    0  503 -0.80704146051E+02 -0.51597464305E+02 -0.30219037092E+02  0.20004411442E+03  0.17300000000E+03 0. -1.
<mgrwt>
<rscale>  2 0.19774847E+03</rscale>
<asrwt>0</asrwt>
<pdfrwt beam="1">  1       21 0.29279226E-01 0.19774847E+03</pdfrwt>
<pdfrwt beam="2">  1       21 0.31981838E-01 0.19774847E+03</pdfrwt>
<totfact> 0.10484405E+05</totfact>
</mgrwt>
</event>
<event>
 4    1  0.4053645E-001  0.2478878E+03  0.7546771E-02  0.1114647E+00
         21   -1    0    0  503  502  0.00000000000E+00  0.00000000000E+00  0.10542012488E+04  0.10542012488E+04  0.00000000000E+00 0. -1.
         21   -1    0    0  501  503 -0.00000000000E+00 -0.00000000000E+00 -0.59129647629E+02  0.59129647629E+02  0.00000000000E+00 0.  1.
          6    1    1    2  501    0  0.77047948913E+02  0.15994676411E+03  0.43116234879E+03  0.49734226122E+03  0.17300000000E+03 0.  1.
         -6    1    1    2    0  502 -0.77047948913E+02 -0.15994676411E+03  0.56390925236E+03  0.61598863519E+03  0.17300000000E+03 0. -1.
<mgrwt>
<rscale>  2 0.24788778E+03</rscale>
<asrwt>0</asrwt>
<pdfrwt beam="1">  1       21 0.16218479E+00 0.24788778E+03</pdfrwt>
<pdfrwt beam="2">  1       21 0.90968697E-02 0.24788778E+03</pdfrwt>
<totfact> 0.22479215E+04</totfact>
</mgrwt>
</event>
<event>
 4    1  0.4053645E-001  0.3168842E+03  0.7546771E-02  0.1077092E+00
         21   -1    0    0  501  502  0.00000000000E+00  0.00000000000E+00  0.23186670407E+03  0.23186670407E+03  0.00000000000E+00 0. -1.
         21   -1    0    0  502  503 -0.00000000000E+00 -0.00000000000E+00 -0.44838613641E+03  0.44838613641E+03  0.00000000000E+00 0. -1.
          6    1    1    2  501    0  0.24322845478E+03 -0.10642616582E+03 -0.45407320066E+02  0.32012096886E+03  0.17300000000E+03 0. -1.
         -6    1    1    2    0  503 -0.24322845478E+03  0.10642616582E+03 -0.17111211227E+03  0.36013187162E+03  0.17300000000E+03 0. -1.
<mgrwt>
<rscale>  2 0.31688422E+03</rscale>
<asrwt>0</asrwt>
<pdfrwt beam="1">  1       21 0.35671801E-01 0.31688422E+03</pdfrwt>
<pdfrwt beam="2">  1       21 0.68982482E-01 0.31688422E+03</pdfrwt>
<totfact> 0.13598662E+04</totfact>
</mgrwt>
</event>
<event>
 4    1  0.4053645E-001  0.1932511E+03  0.7546771E-02  0.1155561E+00
         21   -1    0    0  503  502  0.00000000000E+00  0.00000000000E+00  0.20989362041E+03  0.20989362041E+03  0.00000000000E+00 0. -1.
         21   -1    0    0  501  503 -0.00000000000E+00 -0.00000000000E+00 -0.18064559399E+03  0.18064559399E+03  0.00000000000E+00 0. -1.
          6    1    1    2  501    0 -0.74814372418E+02  0.42659182316E+02 -0.93254882739E+01  0.19347599564E+03  0.17300000000E+03 0. -1.
         -6    1    1    2    0  502  0.74814372418E+02 -0.42659182316E+02  0.38573514695E+02  0.19706321877E+03  0.17300000000E+03 0. -1.
<mgrwt>
<rscale>  2 0.19325112E+03</rscale>
<asrwt>0</asrwt>
<pdfrwt beam="1">  1       21 0.32291326E-01 0.19325112E+03</pdfrwt>
<pdfrwt beam="2">  1       21 0.27791630E-01 0.19325112E+03</pdfrwt>
<totfact> 0.11402935E+05</totfact>
</mgrwt>
</event>
<event>
 4    1  0.4053645E-001  0.1790641E+03  0.7546771E-02  0.1168712E+00
         21   -1    0    0  501  502  0.00000000000E+00  0.00000000000E+00  0.14281607789E+03  0.14281607789E+03  0.00000000000E+00 0. -1.
         21   -1    0    0  502  503 -0.00000000000E+00 -0.00000000000E+00 -0.22719759033E+03  0.22719759033E+03  0.00000000000E+00 0. -1.
          6    1    1    2  501    0  0.31727002685E+02  0.33590881548E+02 -0.22077117157E+02  0.18041992441E+03  0.17300000000E+03 0. -1.
         -6    1    1    2    0  503 -0.31727002685E+02 -0.33590881548E+02 -0.62304395280E+02  0.18959374381E+03  0.17300000000E+03 0. -1.
<mgrwt>
<rscale>  2 0.17906409E+03</rscale>
<asrwt>0</asrwt>
<pdfrwt beam="1">  1       21 0.21971705E-01 0.17906409E+03</pdfrwt>
<pdfrwt beam="2">  1       21 0.34953475E-01 0.17906409E+03</pdfrwt>
<totfact> 0.15333787E+05</totfact>
</mgrwt>
</event>
<event>
 4    1  0.4053645E-001  0.2363322E+03  0.7546771E-02  0.1122261E+00
         21   -1    0    0  503  502  0.00000000000E+00  0.00000000000E+00  0.80595711392E+02  0.80595711392E+02  0.00000000000E+00 0. -1.
         21   -1    0    0  501  503 -0.00000000000E+00 -0.00000000000E+00 -0.69432616186E+03  0.69432616186E+03  0.00000000000E+00 0.  1.
          6    1    1    2  501    0  0.30993746628E+02  0.15799772194E+03 -0.32379352727E+03  0.40086798422E+03  0.17300000000E+03 0. -1.
         -6    1    1    2    0  502 -0.30993746628E+02 -0.15799772194E+03 -0.28993692320E+03  0.37405388904E+03  0.17300000000E+03 0.  1.
<mgrwt>
<rscale>  2 0.23633217E+03</rscale>
<asrwt>0</asrwt>
<pdfrwt beam="1">  1       21 0.12399341E-01 0.23633217E+03</pdfrwt>
<pdfrwt beam="2">  1       21 0.10681941E+00 0.23633217E+03</pdfrwt>
<totfact> 0.37929147E+04</totfact>
</mgrwt>
</event>
<event>
 4    1  0.4053645E-001  0.1931234E+03  0.7546771E-02  0.1155674E+00
         21   -1    0    0  503  502  0.00000000000E+00  0.00000000000E+00  0.10806672583E+04  0.10806672583E+04  0.00000000000E+00 0.  1.
         21   -1    0    0  501  503 -0.00000000000E+00 -0.00000000000E+00 -0.42250736154E+02  0.42250736154E+02  0.00000000000E+00 0.  1.
          6    1    1    2  501    0  0.82644669580E+02  0.23183840566E+02  0.27892737908E+03  0.33925965671E+03  0.17300000000E+03 0.  1.
         -6    1    1    2    0  502 -0.82644669580E+02 -0.23183840566E+02  0.75948914308E+03  0.78365833775E+03  0.17300000000E+03 0.  1.
<mgrwt>
<rscale>  2 0.19312336E+03</rscale>
<asrwt>0</asrwt>
<pdfrwt beam="1">  1       21 0.16625648E+00 0.19312336E+03</pdfrwt>
<pdfrwt beam="2">  1       21 0.65001141E-02 0.19312336E+03</pdfrwt>
<totfact> 0.38972201E+04</totfact>
</mgrwt>
</event>
<event>
 4    1  0.4053645E-001  0.2204802E+03  0.7546771E-02  0.1133526E+00
         21   -1    0    0  501  502  0.00000000000E+00  0.00000000000E+00  0.23168343876E+03  0.23168343876E+03  0.00000000000E+00 0. -1.
         21   -1    0    0  502  503 -0.00000000000E+00 -0.00000000000E+00 -0.20989345130E+03  0.20989345130E+03  0.00000000000E+00 0. -1.
          6    1    1    2  501    0  0.13631204921E+03 -0.10076281356E+02  0.15063046864E+02  0.22099412116E+03  0.17300000000E+03 0. -1.
         -6    1    1    2    0  503 -0.13631204921E+03  0.10076281356E+02  0.67269406034E+01  0.22058276890E+03  0.17300000000E+03 0. -1.
<mgrwt>
<rscale>  2 0.22048017E+03</rscale>
<asrwt>0</asrwt>
<pdfrwt beam="1">  1       21 0.35643606E-01 0.22048017E+03</pdfrwt>
<pdfrwt beam="2">  1       21 0.32291300E-01 0.22048017E+03</pdfrwt>
<totfact> 0.69184069E+04</totfact>
</mgrwt>
</event>
<event>
 4    1  0.4053645E-001  0.1848525E+03  0.7546771E-02  0.1163188E+00
         21   -1    0    0  501  502  0.00000000000E+00  0.00000000000E+00  0.25212957154E+04  0.25212957154E+04  0.00000000000E+00 0. -1.
         21   -1    0    0  502  503 -0.00000000000E+00 -0.00000000000E+00 -0.15559423173E+02  0.15559423173E+02  0.00000000000E+00 0. -1.
          6    1    1    2  501    0  0.55750813867E+01  0.64887374641E+02  0.79734666476E+03  0.81849383426E+03  0.17300000000E+03 0. -1.
         -6    1    1    2    0  503 -0.55750813867E+01 -0.64887374641E+02  0.17083896274E+04  0.17183613043E+04  0.17300000000E+03 0. -1.
<mgrwt>
<rscale>  2 0.18485252E+03</rscale>
<asrwt>0</asrwt>
<pdfrwt beam="1">  1       21 0.38789132E+00 0.18485252E+03</pdfrwt>
<pdfrwt beam="2">  1       21 0.23937594E-02 0.18485252E+03</pdfrwt>
<totfact> 0.95953405E+03</totfact>
</mgrwt>
</event>
<event>
 4    1  0.4053645E-001  0.1750557E+03  0.7546771E-02  0.1172676E+00
         21   -1    0    0  501  502  0.00000000000E+00  0.00000000000E+00  0.13089302304E+03  0.13089302304E+03  0.00000000000E+00 0. -1.
         21   -1    0    0  502  503 -0.00000000000E+00 -0.00000000000E+00 -0.24549304150E+03  0.24549304150E+03  0.00000000000E+00 0. -1.
          6    1    1    2  501    0 -0.97246692171E+01  0.24918190436E+02 -0.97808853011E+02  0.20052694865E+03  0.17300000000E+03 0. -1.
         -6    1    1    2    0  503  0.97246692171E+01 -0.24918190436E+02 -0.16791165446E+02  0.17585911589E+03  0.17300000000E+03 0. -1.
<mgrwt>
<rscale>  2 0.17505566E+03</rscale>
<asrwt>0</asrwt>
<pdfrwt beam="1">  1       21 0.20137388E-01 0.17505566E+03</pdfrwt>
<pdfrwt beam="2">  1       21 0.37768160E-01 0.17505566E+03</pdfrwt>
<totfact> 0.15495283E+05</totfact>
</mgrwt>
</event>
<event>
 4    1  0.4053645E-001  0.2192065E+03  0.7546771E-02  0.1134476E+00
         21   -1    0    0  501  502  0.00000000000E+00  0.00000000000E+00  0.38895635680E+02  0.38895635680E+02  0.00000000000E+00 0.  1.
         21   -1    0    0  502  503 -0.00000000000E+00 -0.00000000000E+00 -0.12569112893E+04  0.12569112893E+04  0.00000000000E+00 0. -1.
          6    1    1    2  501    0 -0.12836325418E+03 -0.40563246266E+02 -0.69377630301E+03  0.72758302660E+03  0.17300000000E+03 0.  1.
         -6    1    1    2    0  503  0.12836325418E+03  0.40563246266E+02 -0.52423935065E+03  0.56822389843E+03  0.17300000000E+03 0. -1.
<mgrwt>
<rscale>  2 0.21920653E+03</rscale>
<asrwt>0</asrwt>
<pdfrwt beam="1">  1       21 0.59839439E-02 0.21920653E+03</pdfrwt>
<pdfrwt beam="2">  1       21 0.19337097E+00 0.21920653E+03</pdfrwt>
<totfact> 0.28833879E+04</totfact>
</mgrwt>
</event>
<event>
 4    1  0.4053645E-001  0.2311049E+03  0.7546771E-02  0.1125865E+00
         21   -1    0    0  503  502  0.00000000000E+00  0.00000000000E+00  0.13823895943E+03  0.13823895943E+03  0.00000000000E+00 0. -1.
         21   -1    0    0  501  503 -0.00000000000E+00 -0.00000000000E+00 -0.38745999717E+03  0.38745999717E+03  0.00000000000E+00 0.  1.
          6    1    1    2  501    0  0.40752944935E+02 -0.14771479831E+03 -0.11058045912E+03  0.25619816959E+03  0.17300000000E+03 0.  1.
         -6    1    1    2    0  502 -0.40752944935E+02  0.14771479831E+03 -0.13864057861E+03  0.26950078701E+03  0.17300000000E+03 0. -1.
<mgrwt>
<rscale>  2 0.23110488E+03</rscale>
<asrwt>0</asrwt>
<pdfrwt beam="1">  1       21 0.21267532E-01 0.23110488E+03</pdfrwt>
<pdfrwt beam="2">  1       21 0.59609230E-01 0.23110488E+03</pdfrwt>
<totfact> 0.53115804E+04</totfact>
</mgrwt>
</event>
<event>
 4    1  0.4053645E-001  0.2113706E+03  0.7546771E-02  0.1140485E+00
         21   -1    0    0  501  502  0.00000000000E+00  0.00000000000E+00  0.69737926713E+03  0.69737926713E+03  0.00000000000E+00 0. -1.
         21   -1    0    0  502  503 -0.00000000000E+00 -0.00000000000E+00 -0.70501340777E+02  0.70501340777E+02  0.00000000000E+00 0. -1.
          6    1    1    2  501    0 -0.11941292710E+03 -0.22115412255E+02  0.42944688148E+03  0.47864617687E+03  0.17300000000E+03 0. -1.
         -6    1    1    2    0  503  0.11941292710E+03  0.22115412255E+02  0.19743104487E+03  0.28923443104E+03  0.17300000000E+03 0. -1.
<mgrwt>
<rscale>  2 0.21137062E+03</rscale>
<asrwt>0</asrwt>
<pdfrwt beam="1">  1       21 0.10728911E+00 0.21137062E+03</pdfrwt>
<pdfrwt beam="2">  1       21 0.10846361E-01 0.21137062E+03</pdfrwt>
<totfact> 0.48273607E+04</totfact>
</mgrwt>
</event>
<event>
 4    1  0.4053645E-001  0.3347493E+03  0.7546771E-02  0.1069055E+00
         21   -1    0    0  503  502  0.00000000000E+00  0.00000000000E+00  0.29138453454E+03  0.29138453454E+03  0.00000000000E+00 0.  1.
         21   -1    0    0  501  503 -0.00000000000E+00 -0.00000000000E+00 -0.41593640727E+03  0.41593640727E+03  0.00000000000E+00 0.  1.
          6    1    1    2  501    0 -0.14902710546E+03  0.24478357477E+03  0.34846920704E+02  0.33655814434E+03  0.17300000000E+03 0.  1.
         -6    1    1    2    0  502  0.14902710546E+03 -0.24478357477E+03 -0.15939879343E+03  0.37076279747E+03  0.17300000000E+03 0.  1.
<mgrwt>
<rscale>  2 0.33474927E+03</rscale>
<asrwt>0</asrwt>
<pdfrwt beam="1">  1       21 0.44828390E-01 0.33474927E+03</pdfrwt>
<pdfrwt beam="2">  1       21 0.63990217E-01 0.33474927E+03</pdfrwt>
<totfact> 0.99904326E+03</totfact>
</mgrwt>
</event>
<event>
 4    1  0.4053645E-001  0.2057062E+03  0.7546771E-02  0.1145012E+00
         21   -1    0    0  503  502  0.00000000000E+00  0.00000000000E+00  0.49457810687E+03  0.49457810687E+03  0.00000000000E+00 0. -1.
         21   -1    0    0  501  503 -0.00000000000E+00 -0.00000000000E+00 -0.86211616543E+02  0.86211616543E+02  0.00000000000E+00 0.  1.
          6    1    1    2  501    0 -0.22635483927E+02  0.10896631813E+03  0.17889445624E+03  0.27261373790E+03  0.17300000000E+03 0. -1.
         -6    1    1    2    0  502  0.22635483927E+02 -0.10896631813E+03  0.22947203408E+03  0.30817598551E+03  0.17300000000E+03 0.  1.
<mgrwt>
<rscale>  2 0.20570616E+03</rscale>
<asrwt>0</asrwt>
<pdfrwt beam="1">  1       21 0.76088938E-01 0.20570616E+03</pdfrwt>
<pdfrwt beam="2">  1       21 0.13263326E-01 0.20570616E+03</pdfrwt>
<totfact> 0.75036158E+04</totfact>
</mgrwt>
</event>
<event>
 4    1  0.4053645E-001  0.3373647E+03  0.7546771E-02  0.1067924E+00
         21   -1    0    0  501  502  0.00000000000E+00  0.00000000000E+00  0.68641233404E+02  0.68641233404E+02  0.00000000000E+00 0. -1.
         21   -1    0    0  502  503 -0.00000000000E+00 -0.00000000000E+00 -0.16628314709E+04  0.16628314709E+04  0.00000000000E+00 0.  1.
          6    1    1    2  501    0  0.17877504614E+03  0.22787154364E+03 -0.84320966965E+03  0.90819464022E+03  0.17300000000E+03 0. -1.
         -6    1    1    2    0  503 -0.17877504614E+03 -0.22787154364E+03 -0.75098056785E+03  0.82327806409E+03  0.17300000000E+03 0.  1.
<mgrwt>
<rscale>  2 0.33736472E+03</rscale>
<asrwt>0</asrwt>
<pdfrwt beam="1">  1       21 0.10560190E-01 0.33736472E+03</pdfrwt>
<pdfrwt beam="2">  1       21 0.25582022E+00 0.33736472E+03</pdfrwt>
<totfact> 0.40318684E+03</totfact>
</mgrwt>
</event>
<event>
 4    1  0.4053645E-001  0.2190045E+03  0.7546771E-02  0.1134627E+00
         21   -1    0    0  501  502  0.00000000000E+00  0.00000000000E+00  0.46876813706E+03  0.46876813706E+03  0.00000000000E+00 0.  1.
         21   -1    0    0  502  503 -0.00000000000E+00 -0.00000000000E+00 -0.16030237283E+03  0.16030237283E+03  0.00000000000E+00 0. -1.
          6    1    1    2  501    0  0.90909110708E+02 -0.98840881846E+02 -0.34939741830E+02  0.22177414613E+03  0.17300000000E+03 0. -1.
         -6    1    1    2    0  503 -0.90909110708E+02  0.98840881846E+02  0.34340550606E+03  0.40729636375E+03  0.17300000000E+03 0.  1.
<mgrwt>
<rscale>  2 0.21900453E+03</rscale>
<asrwt>0</asrwt>
<pdfrwt beam="1">  1       21 0.72118174E-01 0.21900453E+03</pdfrwt>
<pdfrwt beam="2">  1       21 0.24661904E-01 0.21900453E+03</pdfrwt>
<totfact> 0.26575258E+04</totfact>
</mgrwt>
</event>
<event>
 4    1  0.4053645E-001  0.1825590E+03  0.7546771E-02  0.1165349E+00
         21   -1    0    0  503  502  0.00000000000E+00  0.00000000000E+00  0.10273568425E+03  0.10273568425E+03  0.00000000000E+00 0.  1.
         21   -1    0    0  501  503 -0.00000000000E+00 -0.00000000000E+00 -0.32562077281E+03  0.32562077281E+03  0.00000000000E+00 0.  1.
          6    1    1    2  501    0  0.55359628350E+02  0.18278093456E+02 -0.98345301217E+02  0.20736338978E+03  0.17300000000E+03 0. -1.
         -6    1    1    2    0  502 -0.55359628350E+02 -0.18278093456E+02 -0.12453978735E+03  0.22099306727E+03  0.17300000000E+03 0. -1.
<mgrwt>
<rscale>  2 0.18255897E+03</rscale>
<asrwt>0</asrwt>
<pdfrwt beam="1">  1       21 0.15805490E-01 0.18255897E+03</pdfrwt>
<pdfrwt beam="2">  1       21 0.50095502E-01 0.18255897E+03</pdfrwt>
<totfact> 0.13579151E+05</totfact>
</mgrwt>
</event>
<event>
 4    1  0.4053645E-001  0.2914196E+03  0.7546771E-02  0.1089610E+00
         21   -1    0    0  503  502  0.00000000000E+00  0.00000000000E+00  0.15363101242E+03  0.15363101242E+03  0.00000000000E+00 0. -1.
         21   -1    0    0  501  503 -0.00000000000E+00 -0.00000000000E+00 -0.57483811416E+03  0.57483811416E+03  0.00000000000E+00 0. -1.
          6    1    1    2  501    0 -0.91716381964E+02 -0.21583441609E+03 -0.13926682543E+03  0.32298705632E+03  0.17300000000E+03 0. -1.
         -6    1    1    2    0  502  0.91716381964E+02  0.21583441609E+03 -0.28194027632E+03  0.40548207026E+03  0.17300000000E+03 0. -1.
<mgrwt>
<rscale>  2 0.29141961E+03</rscale>
<asrwt>0</asrwt>
<pdfrwt beam="1">  1       21 0.23635541E-01 0.29141961E+03</pdfrwt>
<pdfrwt beam="2">  1       21 0.88436632E-01 0.29141961E+03</pdfrwt>
<totfact> 0.17507251E+04</totfact>
</mgrwt>
</event>
<event>
 4    1  0.4053645E-001  0.2046018E+03  0.7546771E-02  0.1145914E+00
         21   -1    0    0  503  502  0.00000000000E+00  0.00000000000E+00  0.16387584780E+02  0.16387584780E+02  0.00000000000E+00 0.  1.
         21   -1    0    0  501  503 -0.00000000000E+00 -0.00000000000E+00 -0.26025766651E+04  0.26025766651E+04  0.00000000000E+00 0. -1.
          6    1    1    2  501    0  0.10563947525E+03  0.27806658068E+02 -0.11150971736E+04  0.11337123160E+04  0.17300000000E+03 0.  1.
         -6    1    1    2    0  502 -0.10563947525E+03 -0.27806658068E+02 -0.14710919067E+04  0.14852519338E+04  0.17300000000E+03 0. -1.
<mgrwt>
<rscale>  2 0.20460183E+03</rscale>
<asrwt>0</asrwt>
<pdfrwt beam="1">  1       21 0.25211657E-02 0.20460183E+03</pdfrwt>
<pdfrwt beam="2">  1       21 0.40039660E+00 0.20460183E+03</pdfrwt>
<totfact> 0.71907295E+03</totfact>
</mgrwt>
</event>
<event>
 4    1  0.4053645E-001  0.2245907E+03  0.7546771E-02  0.1130506E+00
         21   -1    0    0  503  502  0.00000000000E+00  0.00000000000E+00  0.84823618937E+03  0.84823618937E+03  0.00000000000E+00 0. -1.
         21   -1    0    0  501  503 -0.00000000000E+00 -0.00000000000E+00 -0.71189759290E+02  0.71189759290E+02  0.00000000000E+00 0. -1.
          6    1    1    2  501    0  0.18125600241E+02 -0.14206845760E+03  0.20196410984E+03  0.30204384730E+03  0.17300000000E+03 0. -1.
         -6    1    1    2    0  502 -0.18125600241E+02  0.14206845760E+03  0.57508232024E+03  0.61738210136E+03  0.17300000000E+03 0. -1.
<mgrwt>
<rscale>  2 0.22459070E+03</rscale>
<asrwt>0</asrwt>
<pdfrwt beam="1">  1       21 0.13049787E+00 0.22459070E+03</pdfrwt>
<pdfrwt beam="2">  1       21 0.10952271E-01 0.22459070E+03</pdfrwt>
<totfact> 0.29022105E+04</totfact>
</mgrwt>
</event>
<event>
 4    1  0.4053645E-001  0.1778593E+03  0.7546771E-02  0.1169891E+00
         21   -1    0    0  501  502  0.00000000000E+00  0.00000000000E+00  0.63866796713E+03  0.63866796713E+03  0.00000000000E+00 0.  1.
         21   -1    0    0  502  503 -0.00000000000E+00 -0.00000000000E+00 -0.63299364027E+02  0.63299364027E+02  0.00000000000E+00 0. -1.
          6    1    1    2  501    0  0.36311684272E+02 -0.19657043135E+02  0.45137596340E+03  0.48515378808E+03  0.17300000000E+03 0.  1.
         -6    1    1    2    0  503 -0.36311684272E+02  0.19657043135E+02  0.12399263971E+03  0.21681354308E+03  0.17300000000E+03 0. -1.
<mgrwt>
<rscale>  2 0.17785932E+03</rscale>
<asrwt>0</asrwt>
<pdfrwt beam="1">  1       21 0.98256606E-01 0.17785932E+03</pdfrwt>
<pdfrwt beam="2">  1       21 0.97383641E-02 0.17785932E+03</pdfrwt>
<totfact> 0.73258617E+04</totfact>
</mgrwt>
</event>
<event>
 4    1  0.4053645E-001  0.2594335E+03  0.7546771E-02  0.1107484E+00
         21   -1    0    0  501  502  0.00000000000E+00  0.00000000000E+00  0.15211899032E+03  0.15211899032E+03  0.00000000000E+00 0. -1.
         21   -1    0    0  502  503 -0.00000000000E+00 -0.00000000000E+00 -0.52405647970E+03  0.52405647970E+03  0.00000000000E+00 0. -1.
          6    1    1    2  501    0 -0.19258307802E+03  0.16985114258E+02 -0.52558051206E+02  0.26470376800E+03  0.17300000000E+03 0. -1.
         -6    1    1    2    0  503  0.19258307802E+03 -0.16985114258E+02 -0.31937943817E+03  0.41147170203E+03  0.17300000000E+03 0. -1.
<mgrwt>
<rscale>  2 0.25943349E+03</rscale>
<asrwt>0</asrwt>
<pdfrwt beam="1">  1       21 0.23402922E-01 0.25943349E+03</pdfrwt>
<pdfrwt beam="2">  1       21 0.80624072E-01 0.25943349E+03</pdfrwt>
<totfact> 0.22401695E+04</totfact>
</mgrwt>
</event>
<event>
 4    1  0.4053645E-001  0.2089018E+03  0.7546771E-02  0.1142439E+00
         21   -1    0    0  503  502  0.00000000000E+00  0.00000000000E+00  0.74866913844E+03  0.74866913844E+03  0.00000000000E+00 0. -1.
         21   -1    0    0  501  503 -0.00000000000E+00 -0.00000000000E+00 -0.58826068565E+02  0.58826068565E+02  0.00000000000E+00 0. -1.
          6    1    1    2  501    0  0.95365253187E+02 -0.67944174791E+02  0.38346274105E+03  0.43667335180E+03  0.17300000000E+03 0. -1.
         -6    1    1    2    0  502 -0.95365253187E+02  0.67944174791E+02  0.30638032883E+03  0.37082185520E+03  0.17300000000E+03 0. -1.
<mgrwt>
<rscale>  2 0.20890175E+03</rscale>
<asrwt>0</asrwt>
<pdfrwt beam="1">  1       21 0.11517986E+00 0.20890175E+03</pdfrwt>
<pdfrwt beam="2">  1       21 0.90501649E-02 0.20890175E+03</pdfrwt>
<totfact> 0.56030202E+04</totfact>
</mgrwt>
</event>
<event>
 4    1  0.4053645E-001  0.2970225E+03  0.7546771E-02  0.1086739E+00
         21   -1    0    0  501  502  0.00000000000E+00  0.00000000000E+00  0.62193323790E+03  0.62193323790E+03  0.00000000000E+00 0. -1.
         21   -1    0    0  502  503 -0.00000000000E+00 -0.00000000000E+00 -0.15633015809E+03  0.15633015809E+03  0.00000000000E+00 0. -1.
          6    1    1    2  501    0  0.38697460660E+02  0.23831885601E+03  0.35122407896E+03  0.45997904760E+03  0.17300000000E+03 0. -1.
         -6    1    1    2    0  503 -0.38697460660E+02 -0.23831885601E+03  0.11437900085E+03  0.31828434839E+03  0.17300000000E+03 0. -1.
<mgrwt>
<rscale>  2 0.29702251E+03</rscale>
<asrwt>0</asrwt>
<pdfrwt beam="1">  1       21 0.95682035E-01 0.29702251E+03</pdfrwt>
<pdfrwt beam="2">  1       21 0.24050794E-01 0.29702251E+03</pdfrwt>
<totfact> 0.14033786E+04</totfact>
</mgrwt>
</event>
<event>
 4    1  0.4053645E-001  0.1844414E+03  0.7546771E-02  0.1163573E+00
         21   -1    0    0  501  502  0.00000000000E+00  0.00000000000E+00  0.19593462887E+03  0.19593462887E+03  0.00000000000E+00 0.  1.
         21   -1    0    0  502  503 -0.00000000000E+00 -0.00000000000E+00 -0.17431495517E+03  0.17431495517E+03  0.00000000000E+00 0.  1.
          6    1    1    2  501    0  0.62847397804E+02  0.11824645890E+02  0.22479572129E+02  0.18580621309E+03  0.17300000000E+03 0.  1.
         -6    1    1    2    0  503 -0.62847397804E+02 -0.11824645890E+02 -0.85989843289E+00  0.18444337095E+03  0.17300000000E+03 0.  1.
<mgrwt>
<rscale>  2 0.18444137E+03</rscale>
<asrwt>0</asrwt>
<pdfrwt beam="1">  1       21 0.30143789E-01 0.18444137E+03</pdfrwt>
<pdfrwt beam="2">  1       21 0.26817685E-01 0.18444137E+03</pdfrwt>
<totfact> 0.14016444E+05</totfact>
</mgrwt>
</event>
<event>
 4    1  0.4053645E-001  0.1759868E+03  0.7546771E-02  0.1171745E+00
         21   -1    0    0  501  502  0.00000000000E+00  0.00000000000E+00  0.41128631267E+02  0.41128631267E+02  0.00000000000E+00 0. -1.
         21   -1    0    0  502  503 -0.00000000000E+00 -0.00000000000E+00 -0.91800396110E+03  0.91800396110E+03  0.00000000000E+00 0. -1.
          6    1    1    2  501    0  0.31836516175E+02  0.53645650475E+01 -0.23514294261E+03  0.29370656407E+03  0.17300000000E+03 0. -1.
         -6    1    1    2    0  503 -0.31836516175E+02 -0.53645650475E+01 -0.64173238722E+03  0.66542602829E+03  0.17300000000E+03 0. -1.
<mgrwt>
<rscale>  2 0.17598677E+03</rscale>
<asrwt>0</asrwt>
<pdfrwt beam="1">  1       21 0.63274823E-02 0.17598677E+03</pdfrwt>
<pdfrwt beam="2">  1       21 0.14123136E+00 0.17598677E+03</pdfrwt>
<totfact> 0.63519672E+04</totfact>
</mgrwt>
</event>
<event>
 4    1  0.4053645E-001  0.3431252E+03  0.7546771E-02  0.1065473E+00
         21   -1    0    0  503  502  0.00000000000E+00  0.00000000000E+00  0.16419502234E+03  0.16419502234E+03  0.00000000000E+00 0. -1.
         21   -1    0    0  501  503 -0.00000000000E+00 -0.00000000000E+00 -0.13016789824E+04  0.13016789824E+04  0.00000000000E+00 0.  1.
          6    1    1    2  501    0  0.21148293803E+03  0.20755929902E+03 -0.10599409668E+04  0.11140959334E+04  0.17300000000E+03 0.  1.
         -6    1    1    2    0  502 -0.21148293803E+03 -0.20755929902E+03 -0.77542993264E+02  0.35177807136E+03  0.17300000000E+03 0. -1.
<mgrwt>
<rscale>  2 0.34312519E+03</rscale>
<asrwt>0</asrwt>
<pdfrwt beam="1">  1       21 0.25260772E-01 0.34312519E+03</pdfrwt>
<pdfrwt beam="2">  1       21 0.20025831E+00 0.34312519E+03</pdfrwt>
<totfact> 0.17657950E+03</totfact>
</mgrwt>
</event>
<event>
 4    1  0.4053645E-001  0.1807114E+03  0.7546771E-02  0.1167116E+00
         21   -1    0    0  503  502  0.00000000000E+00  0.00000000000E+00  0.60884257260E+03  0.60884257260E+03  0.00000000000E+00 0. -1.
         21   -1    0    0  501  503 -0.00000000000E+00 -0.00000000000E+00 -0.61118618748E+02  0.61118618748E+02  0.00000000000E+00 0. -1.
          6    1    1    2  501    0  0.96603309905E+01  0.51325455450E+02  0.15666289179E+03  0.23916497661E+03  0.17300000000E+03 0. -1.
         -6    1    1    2    0  502 -0.96603309905E+01 -0.51325455450E+02  0.39106106207E+03  0.43079621474E+03  0.17300000000E+03 0. -1.
<mgrwt>
<rscale>  2 0.18071144E+03</rscale>
<asrwt>0</asrwt>
<pdfrwt beam="1">  1       21 0.93668084E-01 0.18071144E+03</pdfrwt>
<pdfrwt beam="2">  1       21 0.94028648E-02 0.18071144E+03</pdfrwt>
<totfact> 0.87036760E+04</totfact>
</mgrwt>
</event>
<event>
 4    1  0.4053645E-001  0.1795327E+03  0.7546771E-02  0.1168256E+00
         21   -1    0    0  503  502  0.00000000000E+00  0.00000000000E+00  0.46572809114E+03  0.46572809114E+03  0.00000000000E+00 0. -1.
         21   -1    0    0  501  503 -0.00000000000E+00 -0.00000000000E+00 -0.10808680832E+03  0.10808680832E+03  0.00000000000E+00 0. -1.
          6    1    1    2  501    0  0.37528497165E+02 -0.29910004765E+02  0.67474120840E+01  0.17965946692E+03  0.17300000000E+03 0. -1.
         -6    1    1    2    0  502 -0.37528497165E+02  0.29910004765E+02  0.35089387073E+03  0.39415543254E+03  0.17300000000E+03 0. -1.
<mgrwt>
<rscale>  2 0.17953272E+03</rscale>
<asrwt>0</asrwt>
<pdfrwt beam="1">  1       21 0.71650474E-01 0.17953272E+03</pdfrwt>
<pdfrwt beam="2">  1       21 0.16628740E-01 0.17953272E+03</pdfrwt>
<totfact> 0.57525474E+04</totfact>
</mgrwt>
</event>
<event>
 4    1  0.4053645E-001  0.1802628E+03  0.7546771E-02  0.1167549E+00
         21   -1    0    0  503  502  0.00000000000E+00  0.00000000000E+00  0.18939344273E+03  0.18939344273E+03  0.00000000000E+00 0. -1.
         21   -1    0    0  501  503 -0.00000000000E+00 -0.00000000000E+00 -0.18554036492E+03  0.18554036492E+03  0.00000000000E+00 0. -1.
          6    1    1    2  501    0  0.18104523386E+02 -0.47306301004E+02 -0.49510296293E+02  0.18693830351E+03  0.17300000000E+03 0. -1.
         -6    1    1    2    0  502 -0.18104523386E+02  0.47306301004E+02  0.53363374103E+02  0.18799550414E+03  0.17300000000E+03 0. -1.
<mgrwt>
<rscale>  2 0.18026275E+03</rscale>
<asrwt>0</asrwt>
<pdfrwt beam="1">  1       21 0.29137453E-01 0.18026275E+03</pdfrwt>
<pdfrwt beam="2">  1       21 0.28544671E-01 0.18026275E+03</pdfrwt>
<totfact> 0.13293516E+05</totfact>
</mgrwt>
</event>
<event>
 4    1  0.4053645E-001  0.2137612E+03  0.7546771E-02  0.1138622E+00
         21   -1    0    0  501  502  0.00000000000E+00  0.00000000000E+00  0.35826836255E+03  0.35826836255E+03  0.00000000000E+00 0.  1.
         21   -1    0    0  502  503 -0.00000000000E+00 -0.00000000000E+00 -0.18618496095E+03  0.18618496095E+03  0.00000000000E+00 0. -1.
          6    1    1    2  501    0 -0.26214251816E+02  0.12279116162E+03  0.23882310999E+03  0.32051573165E+03  0.17300000000E+03 0.  1.
         -6    1    1    2    0  503  0.26214251816E+02 -0.12279116162E+03 -0.66739708385E+02  0.22393759185E+03  0.17300000000E+03 0. -1.
<mgrwt>
<rscale>  2 0.21376121E+03</rscale>
<asrwt>0</asrwt>
<pdfrwt beam="1">  1       21 0.55118210E-01 0.21376121E+03</pdfrwt>
<pdfrwt beam="2">  1       21 0.28643840E-01 0.21376121E+03</pdfrwt>
<totfact> 0.35805216E+04</totfact>
</mgrwt>
</event>
<event>
 4    1  0.4053645E-001  0.2201071E+03  0.7546771E-02  0.1133803E+00
         21   -1    0    0  501  502  0.00000000000E+00  0.00000000000E+00  0.16415486186E+03  0.16415486186E+03  0.00000000000E+00 0. -1.
         21   -1    0    0  502  503 -0.00000000000E+00 -0.00000000000E+00 -0.29804612758E+03  0.29804612758E+03  0.00000000000E+00 0. -1.
          6    1    1    2  501    0 -0.10199851312E+03  0.90080178810E+02 -0.44089009347E+02  0.22447934435E+03  0.17300000000E+03 0. -1.
         -6    1    1    2    0  503  0.10199851312E+03 -0.90080178810E+02 -0.89802256375E+02  0.23772164509E+03  0.17300000000E+03 0. -1.
<mgrwt>
<rscale>  2 0.22010710E+03</rscale>
<asrwt>0</asrwt>
<pdfrwt beam="1">  1       21 0.25254595E-01 0.22010710E+03</pdfrwt>
<pdfrwt beam="2">  1       21 0.45853250E-01 0.22010710E+03</pdfrwt>
<totfact> 0.66919289E+04</totfact>
</mgrwt>
</event>
<event>
 4    1  0.4053645E-001  0.1733921E+03  0.7546771E-02  0.1174356E+00
         21   -1    0    0  503  502  0.00000000000E+00  0.00000000000E+00  0.82400816723E+02  0.82400816723E+02  0.00000000000E+00 0. -1.
         21   -1    0    0  501  503 -0.00000000000E+00 -0.00000000000E+00 -0.53088352712E+03  0.53088352712E+03  0.00000000000E+00 0. -1.
          6    1    1    2  501    0 -0.11370170508E+02 -0.25566227508E+01 -0.39572243154E+03  0.43204289130E+03  0.17300000000E+03 0. -1.
         -6    1    1    2    0  502  0.11370170508E+02  0.25566227508E+01 -0.52760278865E+02  0.18124145255E+03  0.17300000000E+03 0. -1.
<mgrwt>
<rscale>  2 0.17339209E+03</rscale>
<asrwt>0</asrwt>
<pdfrwt beam="1">  1       21 0.12677049E-01 0.17339209E+03</pdfrwt>
<pdfrwt beam="2">  1       21 0.81674388E-01 0.17339209E+03</pdfrwt>
<totfact> 0.70396619E+04</totfact>
</mgrwt>
</event>
<event>
 4    1  0.4053645E-001  0.1841629E+03  0.7546771E-02  0.1163834E+00
         21   -1    0    0  501  502  0.00000000000E+00  0.00000000000E+00  0.98135843601E+02  0.98135843601E+02  0.00000000000E+00 0. -1.
         21   -1    0    0  502  503 -0.00000000000E+00 -0.00000000000E+00 -0.39373671898E+03  0.39373671898E+03  0.00000000000E+00 0.  1.
          6    1    1    2  501    0  0.53901900770E+01  0.62911977290E+02 -0.61810504360E+02  0.19425887235E+03  0.17300000000E+03 0. -1.
         -6    1    1    2    0  503 -0.53901900770E+01 -0.62911977290E+02 -0.23379037102E+03  0.29761369024E+03  0.17300000000E+03 0.  1.
<mgrwt>
<rscale>  2 0.18416289E+03</rscale>
<asrwt>0</asrwt>
<pdfrwt beam="1">  1       21 0.15097822E-01 0.18416289E+03</pdfrwt>
<pdfrwt beam="2">  1       21 0.60574880E-01 0.18416289E+03</pdfrwt>
<totfact> 0.98735047E+04</totfact>
</mgrwt>
</event>
<event>
 4    1  0.4053645E-001  0.1840292E+03  0.7546771E-02  0.1163960E+00
         21   -1    0    0  501  502  0.00000000000E+00  0.00000000000E+00  0.32442996298E+02  0.32442996298E+02  0.00000000000E+00 0. -1.
         21   -1    0    0  502  503 -0.00000000000E+00 -0.00000000000E+00 -0.10444149258E+04  0.10444149258E+04  0.00000000000E+00 0. -1.
          6    1    1    2  501    0 -0.58441550453E+02 -0.22854438341E+02 -0.49385167807E+03  0.52702582489E+03  0.17300000000E+03 0.  1.
         -6    1    1    2    0  503  0.58441550453E+02  0.22854438341E+02 -0.51812025140E+03  0.54983209717E+03  0.17300000000E+03 0.  1.
<mgrwt>
<rscale>  2 0.18402918E+03</rscale>
<asrwt>0</asrwt>
<pdfrwt beam="1">  1       21 0.49912309E-02 0.18402918E+03</pdfrwt>
<pdfrwt beam="2">  1       21 0.16067920E+00 0.18402918E+03</pdfrwt>
<totfact> 0.67446693E+04</totfact>
</mgrwt>
</event>
<event>
 4    1  0.4053645E-001  0.1848138E+03  0.7546771E-02  0.1163224E+00
         21   -1    0    0  503  502  0.00000000000E+00  0.00000000000E+00  0.51317569167E+03  0.51317569167E+03  0.00000000000E+00 0.  1.
         21   -1    0    0  501  503 -0.00000000000E+00 -0.00000000000E+00 -0.74008093823E+02  0.74008093823E+02  0.00000000000E+00 0.  1.
          6    1    1    2  501    0  0.50327863791E+02 -0.41161394810E+02  0.12643578801E+03  0.22392445777E+03  0.17300000000E+03 0.  1.
         -6    1    1    2    0  502 -0.50327863791E+02  0.41161394810E+02  0.31273180983E+03  0.36325932772E+03  0.17300000000E+03 0.  1.
<mgrwt>
<rscale>  2 0.18481384E+03</rscale>
<asrwt>0</asrwt>
<pdfrwt beam="1">  1       21 0.78950104E-01 0.18481384E+03</pdfrwt>
<pdfrwt beam="2">  1       21 0.11385861E-01 0.18481384E+03</pdfrwt>
<totfact> 0.91618301E+04</totfact>
</mgrwt>
</event>
<event>
 4    1  0.4053645E-001  0.1741582E+03  0.7546771E-02  0.1173580E+00
         21   -1    0    0  503  502  0.00000000000E+00  0.00000000000E+00  0.34873555076E+02  0.34873555076E+02  0.00000000000E+00 0.  1.
         21   -1    0    0  501  503 -0.00000000000E+00 -0.00000000000E+00 -0.88258852941E+03  0.88258852941E+03  0.00000000000E+00 0.  1.
          6    1    1    2  501    0 -0.99347187341E+01 -0.17418044436E+02 -0.36851895864E+03  0.40759944772E+03  0.17300000000E+03 0.  1.
         -6    1    1    2    0  502  0.99347187341E+01  0.17418044436E+02 -0.47919601569E+03  0.50986263676E+03  0.17300000000E+03 0.  1.
<mgrwt>
<rscale>  2 0.17415822E+03</rscale>
<asrwt>0</asrwt>
<pdfrwt beam="1">  1       21 0.53651626E-02 0.17415822E+03</pdfrwt>
<pdfrwt beam="2">  1       21 0.13578284E+00 0.17415822E+03</pdfrwt>
<totfact> 0.93179556E+04</totfact>
</mgrwt>
</event>
<event>
 4    1  0.4053645E-001  0.2106275E+03  0.7546771E-02  0.1141070E+00
         21   -1    0    0  501  502  0.00000000000E+00  0.00000000000E+00  0.23379153941E+03  0.23379153941E+03  0.00000000000E+00 0.  1.
         21   -1    0    0  502  503 -0.00000000000E+00 -0.00000000000E+00 -0.21784294469E+03  0.21784294469E+03  0.00000000000E+00 0.  1.
          6    1    1    2  501    0  0.27631110382E+02 -0.11692503267E+03  0.89055083230E+02  0.22868045254E+03  0.17300000000E+03 0.  1.
         -6    1    1    2    0  503 -0.27631110382E+02  0.11692503267E+03 -0.73106488514E+02  0.22295403156E+03  0.17300000000E+03 0.  1.
<mgrwt>
<rscale>  2 0.21062749E+03</rscale>
<asrwt>0</asrwt>
<pdfrwt beam="1">  1       21 0.35967929E-01 0.21062749E+03</pdfrwt>
<pdfrwt beam="2">  1       21 0.33514299E-01 0.21062749E+03</pdfrwt>
<totfact> 0.63398651E+04</totfact>
</mgrwt>
</event>
<event>
 4    1  0.4053645E-001  0.2956804E+03  0.7546771E-02  0.1087420E+00
         21   -1    0    0  501  502  0.00000000000E+00  0.00000000000E+00  0.32082783312E+03  0.32082783312E+03  0.00000000000E+00 0. -1.
         21   -1    0    0  502  503 -0.00000000000E+00 -0.00000000000E+00 -0.40884306234E+03  0.40884306234E+03  0.00000000000E+00 0.  1.
          6    1    1    2  501    0 -0.10657318774E+03  0.21480234071E+03  0.16667502631E+03  0.33942223604E+03  0.17300000000E+03 0. -1.
         -6    1    1    2    0  503  0.10657318774E+03 -0.21480234071E+03 -0.25469025553E+03  0.39024865942E+03  0.17300000000E+03 0.  1.
<mgrwt>
<rscale>  2 0.29568038E+03</rscale>
<asrwt>0</asrwt>
<pdfrwt beam="1">  1       21 0.49358128E-01 0.29568038E+03</pdfrwt>
<pdfrwt beam="2">  1       21 0.62898932E-01 0.29568038E+03</pdfrwt>
<totfact> 0.86286063E+03</totfact>
</mgrwt>
</event>
<event>
 4    1  0.4053645E-001  0.1929566E+03  0.7546771E-02  0.1155821E+00
         21   -1    0    0  501  502  0.00000000000E+00  0.00000000000E+00  0.51514452597E+03  0.51514452597E+03  0.00000000000E+00 0. -1.
         21   -1    0    0  502  503 -0.00000000000E+00 -0.00000000000E+00 -0.34422840388E+03  0.34422840388E+03  0.00000000000E+00 0. -1.
          6    1    1    2  501    0 -0.64169272218E+02 -0.56440577015E+02  0.46738062569E+03  0.50564501728E+03  0.17300000000E+03 0. -1.
         -6    1    1    2    0  503  0.64169272218E+02  0.56440577015E+02 -0.29646450361E+03  0.35372791257E+03  0.17300000000E+03 0. -1.
<mgrwt>
<rscale>  2 0.19295656E+03</rscale>
<asrwt>0</asrwt>
<pdfrwt beam="1">  1       21 0.79253004E-01 0.19295656E+03</pdfrwt>
<pdfrwt beam="2">  1       21 0.52958216E-01 0.19295656E+03</pdfrwt>
<totfact> 0.47450120E+03</totfact>
</mgrwt>
</event>
<event>
 4    1  0.4053645E-001  0.2022779E+03  0.7546771E-02  0.1147831E+00
         21   -1    0    0  503  502  0.00000000000E+00  0.00000000000E+00  0.13736362556E+04  0.13736362556E+04  0.00000000000E+00 0. -1.
         21   -1    0    0  501  503 -0.00000000000E+00 -0.00000000000E+00 -0.43321018060E+02  0.43321018060E+02  0.00000000000E+00 0. -1.
          6    1    1    2  501    0 -0.86030124602E+01 -0.10446687572E+03  0.26915987252E+03  0.33669478303E+03  0.17300000000E+03 0. -1.
         -6    1    1    2    0  502  0.86030124602E+01  0.10446687572E+03  0.10611553651E+04  0.10802624907E+04  0.17300000000E+03 0. -1.
<mgrwt>
<rscale>  2 0.20227788E+03</rscale>
<asrwt>0</asrwt>
<pdfrwt beam="1">  1       21 0.21132862E+00 0.20227788E+03</pdfrwt>
<pdfrwt beam="2">  1       21 0.66647730E-02 0.20227788E+03</pdfrwt>
<totfact> 0.18599480E+04</totfact>
</mgrwt>
</event>
<event>
 4    1  0.4053645E-001  0.2073559E+03  0.7546771E-02  0.1143677E+00
         21   -1    0    0  501  502  0.00000000000E+00  0.00000000000E+00  0.34987079422E+03  0.34987079422E+03  0.00000000000E+00 0.  1.
         21   -1    0    0  502  503 -0.00000000000E+00 -0.00000000000E+00 -0.12463682580E+03  0.12463682580E+03  0.00000000000E+00 0.  1.
          6    1    1    2  501    0 -0.10975591160E+03  0.31954911446E+02  0.14068495090E+03  0.25057679842E+03  0.17300000000E+03 0.  1.
         -6    1    1    2    0  503  0.10975591160E+03 -0.31954911446E+02  0.84549017523E+02  0.22393082160E+03  0.17300000000E+03 0.  1.
<mgrwt>
<rscale>  2 0.20735592E+03</rscale>
<asrwt>0</asrwt>
<pdfrwt beam="1">  1       21 0.53826276E-01 0.20735592E+03</pdfrwt>
<pdfrwt beam="2">  1       21 0.19174896E-01 0.20735592E+03</pdfrwt>
<totfact> 0.81000420E+04</totfact>
</mgrwt>
</event>
<event>
 4    1  0.4053645E-001  0.2173984E+03  0.7546771E-02  0.1135838E+00
         21   -1    0    0  501  502  0.00000000000E+00  0.00000000000E+00  0.18172533461E+03  0.18172533461E+03  0.00000000000E+00 0. -1.
         21   -1    0    0  502  503 -0.00000000000E+00 -0.00000000000E+00 -0.28863403109E+03  0.28863403109E+03  0.00000000000E+00 0. -1.
          6    1    1    2  501    0  0.86790477854E+02 -0.98997408004E+02  0.20523847034E+02  0.21836506620E+03  0.17300000000E+03 0. -1.
         -6    1    1    2    0  503 -0.86790477854E+02  0.98997408004E+02 -0.12743254351E+03  0.25199429951E+03  0.17300000000E+03 0. -1.
<mgrwt>
<rscale>  2 0.21739842E+03</rscale>
<asrwt>0</asrwt>
<pdfrwt beam="1">  1       21 0.27957744E-01 0.21739842E+03</pdfrwt>
<pdfrwt beam="2">  1       21 0.44405236E-01 0.21739842E+03</pdfrwt>
<totfact> 0.58835682E+04</totfact>
</mgrwt>
</event>
<event>
 4    1  0.4053645E-001  0.1844737E+03  0.7546771E-02  0.1163542E+00
         21   -1    0    0  503  502  0.00000000000E+00  0.00000000000E+00  0.28891280271E+03  0.28891280271E+03  0.00000000000E+00 0. -1.
         21   -1    0    0  501  503 -0.00000000000E+00 -0.00000000000E+00 -0.21692036814E+03  0.21692036814E+03  0.00000000000E+00 0. -1.
          6    1    1    2  501    0 -0.61705808469E+02 -0.17144218459E+02 -0.13497946859E+03  0.22858256269E+03  0.17300000000E+03 0.  1.
         -6    1    1    2    0  502  0.61705808469E+02  0.17144218459E+02  0.20697190316E+03  0.27725060816E+03  0.17300000000E+03 0.  1.
<mgrwt>
<rscale>  2 0.18447366E+03</rscale>
<asrwt>0</asrwt>
<pdfrwt beam="1">  1       21 0.44448124E-01 0.18447366E+03</pdfrwt>
<pdfrwt beam="2">  1       21 0.33372364E-01 0.18447366E+03</pdfrwt>
<totfact> 0.42195234E+04</totfact>
</mgrwt>
</event>
<event>
 4    1  0.4053645E-001  0.1983181E+03  0.7546771E-02  0.1151166E+00
         21   -1    0    0  501  502  0.00000000000E+00  0.00000000000E+00  0.87901371250E+02  0.87901371250E+02  0.00000000000E+00 0.  1.
         21   -1    0    0  502  503 -0.00000000000E+00 -0.00000000000E+00 -0.46071171598E+03  0.46071171598E+03  0.00000000000E+00 0.  1.
          6    1    1    2  501    0  0.75830345006E+02 -0.60422212614E+02 -0.23297224894E+03  0.30595122777E+03  0.17300000000E+03 0.  1.
         -6    1    1    2    0  503 -0.75830345006E+02  0.60422212614E+02 -0.13983809580E+03  0.24266185946E+03  0.17300000000E+03 0.  1.
<mgrwt>
<rscale>  2 0.19831814E+03</rscale>
<asrwt>0</asrwt>
<pdfrwt beam="1">  1       21 0.13523288E-01 0.19831814E+03</pdfrwt>
<pdfrwt beam="2">  1       21 0.70878724E-01 0.19831814E+03</pdfrwt>
<totfact> 0.85124813E+04</totfact>
</mgrwt>
</event>
<event>
 4    1  0.4053645E-001  0.2177076E+03  0.7546771E-02  0.1135604E+00
         21   -1    0    0  501  502  0.00000000000E+00  0.00000000000E+00  0.11810226385E+03  0.11810226385E+03  0.00000000000E+00 0.  1.
         21   -1    0    0  502  503 -0.00000000000E+00 -0.00000000000E+00 -0.40726235978E+03  0.40726235978E+03  0.00000000000E+00 0.  1.
          6    1    1    2  501    0  0.13146572077E+03  0.13577793022E+02 -0.17631498305E+03  0.28014918427E+03  0.17300000000E+03 0. -1.
         -6    1    1    2    0  503 -0.13146572077E+03 -0.13577793022E+02 -0.11284511288E+03  0.24521543936E+03  0.17300000000E+03 0. -1.
<mgrwt>
<rscale>  2 0.21770758E+03</rscale>
<asrwt>0</asrwt>
<pdfrwt beam="1">  1       21 0.18169579E-01 0.21770758E+03</pdfrwt>
<pdfrwt beam="2">  1       21 0.62655747E-01 0.21770758E+03</pdfrwt>
<totfact> 0.64395849E+04</totfact>
</mgrwt>
</event>
<event>
 4    1  0.4053645E-001  0.2782843E+03  0.7546771E-02  0.1096630E+00
         21   -1    0    0  503  502  0.00000000000E+00  0.00000000000E+00  0.23991286525E+03  0.23991286525E+03  0.00000000000E+00 0.  1.
         21   -1    0    0  501  503 -0.00000000000E+00 -0.00000000000E+00 -0.32773444747E+03  0.32773444747E+03  0.00000000000E+00 0. -1.
          6    1    1    2  501    0  0.14180687160E+03  0.16554142404E+03 -0.90592283382E+01  0.27843171789E+03  0.17300000000E+03 0. -1.
         -6    1    1    2    0  502 -0.14180687160E+03 -0.16554142404E+03 -0.78762353885E+02  0.28921559484E+03  0.17300000000E+03 0. -1.
<mgrwt>
<rscale>  2 0.27828430E+03</rscale>
<asrwt>0</asrwt>
<pdfrwt beam="1">  1       21 0.36909672E-01 0.27828430E+03</pdfrwt>
<pdfrwt beam="2">  1       21 0.50420684E-01 0.27828430E+03</pdfrwt>
<totfact> 0.25419916E+04</totfact>
</mgrwt>
</event>
<event>
 4    1  0.4053645E-001  0.2370304E+03  0.7546771E-02  0.1121787E+00
         21   -1    0    0  503  502  0.00000000000E+00  0.00000000000E+00  0.56714737279E+02  0.56714737279E+02  0.00000000000E+00 0.  1.
         21   -1    0    0  501  503 -0.00000000000E+00 -0.00000000000E+00 -0.10052154405E+04  0.10052154405E+04  0.00000000000E+00 0.  1.
          6    1    1    2  501    0  0.38057872527E+02 -0.15749922699E+03 -0.53820514088E+03  0.58808858332E+03  0.17300000000E+03 0. -1.
         -6    1    1    2    0  502 -0.38057872527E+02  0.15749922699E+03 -0.41029556236E+03  0.47384159448E+03  0.17300000000E+03 0. -1.
<mgrwt>
<rscale>  2 0.23703040E+03</rscale>
<asrwt>0</asrwt>
<pdfrwt beam="1">  1       21 0.87253436E-02 0.23703040E+03</pdfrwt>
<pdfrwt beam="2">  1       21 0.15464854E+00 0.23703040E+03</pdfrwt>
<totfact> 0.27688315E+04</totfact>
</mgrwt>
</event>
<event>
 4    1  0.4053645E-001  0.1745671E+03  0.7546771E-02  0.1173167E+00
         21   -1    0    0  501  502  0.00000000000E+00  0.00000000000E+00  0.33572606936E+04  0.33572606936E+04  0.00000000000E+00 0. -1.
         21   -1    0    0  502  503 -0.00000000000E+00 -0.00000000000E+00 -0.94801344853E+01  0.94801344853E+01  0.00000000000E+00 0. -1.
          6    1    1    2  501    0 -0.10324002489E+02 -0.20930568946E+02  0.20210477746E+04  0.20285728433E+04  0.17300000000E+03 0. -1.
         -6    1    1    2    0  503  0.10324002489E+02  0.20930568946E+02  0.13267327845E+04  0.13381679847E+04  0.17300000000E+03 0. -1.
<mgrwt>
<rscale>  2 0.17456710E+03</rscale>
<asrwt>0</asrwt>
<pdfrwt beam="1">  1       21 0.51650069E+00 0.17456710E+03</pdfrwt>
<pdfrwt beam="2">  1       21 0.14584849E-02 0.17456710E+03</pdfrwt>
<totfact> 0.30493811E+03</totfact>
</mgrwt>
</event>
<event>
 4    1  0.4053645E-001  0.2367619E+03  0.7546771E-02  0.1121969E+00
         21   -1    0    0  503  502  0.00000000000E+00  0.00000000000E+00  0.22497667673E+03  0.22497667673E+03  0.00000000000E+00 0. -1.
         21   -1    0    0  501  503 -0.00000000000E+00 -0.00000000000E+00 -0.25996714220E+03  0.25996714220E+03  0.00000000000E+00 0.  1.
          6    1    1    2  501    0  0.54383715687E+02  0.15221570767E+03  0.31932010908E+02  0.23890555354E+03  0.17300000000E+03 0.  1.
         -6    1    1    2    0  502 -0.54383715687E+02 -0.15221570767E+03 -0.66922476377E+02  0.24603826539E+03  0.17300000000E+03 0.  1.
<mgrwt>
<rscale>  2 0.23676193E+03</rscale>
<asrwt>0</asrwt>
<pdfrwt beam="1">  1       21 0.34611797E-01 0.23676193E+03</pdfrwt>
<pdfrwt beam="2">  1       21 0.39994945E-01 0.23676193E+03</pdfrwt>
<totfact> 0.47495835E+04</totfact>
</mgrwt>
</event>
<event>
 4    1  0.4053645E-001  0.1926729E+03  0.7546771E-02  0.1156072E+00
         21   -1    0    0  503  502  0.00000000000E+00  0.00000000000E+00  0.30144470515E+03  0.30144470515E+03  0.00000000000E+00 0. -1.
         21   -1    0    0  501  503 -0.00000000000E+00 -0.00000000000E+00 -0.12406398595E+03  0.12406398595E+03  0.00000000000E+00 0. -1.
          6    1    1    2  501    0  0.57724650862E+02 -0.62142720361E+02  0.70427258121E+02  0.20514105317E+03  0.17300000000E+03 0. -1.
         -6    1    1    2    0  502 -0.57724650862E+02  0.62142720361E+02  0.10695346108E+03  0.22036763793E+03  0.17300000000E+03 0. -1.
<mgrwt>
<rscale>  2 0.19267292E+03</rscale>
<asrwt>0</asrwt>
<pdfrwt beam="1">  1       21 0.46376108E-01 0.19267292E+03</pdfrwt>
<pdfrwt beam="2">  1       21 0.19086767E-01 0.19267292E+03</pdfrwt>
<totfact> 0.11217148E+05</totfact>
</mgrwt>
</event>
<event>
 4    1  0.4053645E-001  0.1956791E+03  0.7546771E-02  0.1153437E+00
         21   -1    0    0  503  502  0.00000000000E+00  0.00000000000E+00  0.19447944399E+03  0.19447944399E+03  0.00000000000E+00 0. -1.
         21   -1    0    0  501  503 -0.00000000000E+00 -0.00000000000E+00 -0.21641953812E+03  0.21641953812E+03  0.00000000000E+00 0. -1.
          6    1    1    2  501    0 -0.61740017604E+02  0.67449740716E+02 -0.72692943038E+02  0.20874520657E+03  0.17300000000E+03 0. -1.
         -6    1    1    2    0  502  0.61740017604E+02 -0.67449740716E+02  0.50752848901E+02  0.20215377555E+03  0.17300000000E+03 0. -1.
<mgrwt>
<rscale>  2 0.19567907E+03</rscale>
<asrwt>0</asrwt>
<pdfrwt beam="1">  1       21 0.29919914E-01 0.19567907E+03</pdfrwt>
<pdfrwt beam="2">  1       21 0.33295314E-01 0.19567907E+03</pdfrwt>
<totfact> 0.92938119E+04</totfact>
</mgrwt>
</event>
<event>
 4    1  0.4053645E-001  0.2062200E+03  0.7546771E-02  0.1144595E+00
         21   -1    0    0  503  502  0.00000000000E+00  0.00000000000E+00  0.11520316211E+04  0.11520316211E+04  0.00000000000E+00 0.  1.
         21   -1    0    0  501  503 -0.00000000000E+00 -0.00000000000E+00 -0.46784498243E+02  0.46784498243E+02  0.00000000000E+00 0.  1.
          6    1    1    2  501    0 -0.54332030708E+02  0.98212719096E+02  0.27730884194E+03  0.34558197518E+03  0.17300000000E+03 0.  1.
         -6    1    1    2    0  502  0.54332030708E+02 -0.98212719096E+02  0.82793828096E+03  0.85323414420E+03  0.17300000000E+03 0.  1.
<mgrwt>
<rscale>  2 0.20622005E+03</rscale>
<asrwt>0</asrwt>
<pdfrwt beam="1">  1       21 0.17723561E+00 0.20622005E+03</pdfrwt>
<pdfrwt beam="2">  1       21 0.71976160E-02 0.20622005E+03</pdfrwt>
<totfact> 0.27147560E+04</totfact>
</mgrwt>
</event>
<event>
 4    1  0.4053645E-001  0.2288677E+03  0.7546771E-02  0.1127439E+00
         21   -1    0    0  501  502  0.00000000000E+00  0.00000000000E+00  0.16166992472E+04  0.16166992472E+04  0.00000000000E+00 0. -1.
         21   -1    0    0  502  503 -0.00000000000E+00 -0.00000000000E+00 -0.38858837339E+02  0.38858837339E+02  0.00000000000E+00 0. -1.
          6    1    1    2  501    0 -0.11972246126E+03 -0.90099677326E+02  0.45143096934E+03  0.50613272930E+03  0.17300000000E+03 0. -1.
         -6    1    1    2    0  503  0.11972246126E+03  0.90099677326E+02  0.11264094405E+04  0.11494253552E+04  0.17300000000E+03 0. -1.
<mgrwt>
<rscale>  2 0.22886769E+03</rscale>
<asrwt>0</asrwt>
<pdfrwt beam="1">  1       21 0.24872291E+00 0.22886769E+03</pdfrwt>
<pdfrwt beam="2">  1       21 0.59782839E-02 0.22886769E+03</pdfrwt>
<totfact> 0.13008782E+04</totfact>
</mgrwt>
</event>
<event>
 4    1  0.4053645E-001  0.2573597E+03  0.7546771E-02  0.1108740E+00
         21   -1    0    0  501  502  0.00000000000E+00  0.00000000000E+00  0.68636416666E+02  0.68636416666E+02  0.00000000000E+00 0. -1.
         21   -1    0    0  502  503 -0.00000000000E+00 -0.00000000000E+00 -0.10395998419E+04  0.10395998419E+04  0.00000000000E+00 0.  1.
          6    1    1    2  501    0 -0.12218544838E+03 -0.14620449325E+03 -0.33704455148E+03  0.42406729103E+03  0.17300000000E+03 0. -1.
         -6    1    1    2    0  503  0.12218544838E+03  0.14620449325E+03 -0.63391887379E+03  0.68416896757E+03  0.17300000000E+03 0.  1.
<mgrwt>
<rscale>  2 0.25735974E+03</rscale>
<asrwt>0</asrwt>
<pdfrwt beam="1">  1       21 0.10559448E-01 0.25735974E+03</pdfrwt>
<pdfrwt beam="2">  1       21 0.15993844E+00 0.25735974E+03</pdfrwt>
<totfact> 0.17830155E+04</totfact>
</mgrwt>
</event>
<event>
 4    1  0.4053645E-001  0.2077804E+03  0.7546771E-02  0.1143336E+00
         21   -1    0    0  501  502  0.00000000000E+00  0.00000000000E+00  0.10421633568E+04  0.10421633568E+04  0.00000000000E+00 0. -1.
         21   -1    0    0  502  503 -0.00000000000E+00 -0.00000000000E+00 -0.41914559277E+02  0.41914559277E+02  0.00000000000E+00 0.  1.
          6    1    1    2  501    0  0.11460662182E+03 -0.10440829677E+02  0.44160577377E+03  0.48804543653E+03  0.17300000000E+03 0.  1.
         -6    1    1    2    0  503 -0.11460662182E+03  0.10440829677E+02  0.55864302376E+03  0.59603247955E+03  0.17300000000E+03 0. -1.
<mgrwt>
<rscale>  2 0.20778039E+03</rscale>
<asrwt>0</asrwt>
<pdfrwt beam="1">  1       21 0.16033280E+00 0.20778039E+03</pdfrwt>
<pdfrwt beam="2">  1       21 0.64483945E-02 0.20778039E+03</pdfrwt>
<totfact> 0.43220394E+04</totfact>
</mgrwt>
</event>
<event>
 4    1  0.4053645E-001  0.2156155E+03  0.7546771E-02  0.1137195E+00
         21   -1    0    0  501  502  0.00000000000E+00  0.00000000000E+00  0.91793215814E+02  0.91793215814E+02  0.00000000000E+00 0. -1.
         21   -1    0    0  502  503 -0.00000000000E+00 -0.00000000000E+00 -0.57903728538E+03  0.57903728538E+03  0.00000000000E+00 0. -1.
          6    1    1    2  501    0  0.79963934120E+02  0.10083068101E+03 -0.12487719488E+03  0.24916735499E+03  0.17300000000E+03 0. -1.
         -6    1    1    2    0  503 -0.79963934120E+02 -0.10083068101E+03 -0.36236687469E+03  0.42166314620E+03  0.17300000000E+03 0. -1.
<mgrwt>
<rscale>  2 0.21561553E+03</rscale>
<asrwt>0</asrwt>
<pdfrwt beam="1">  1       21 0.14122033E-01 0.21561553E+03</pdfrwt>
<pdfrwt beam="2">  1       21 0.89082658E-01 0.21561553E+03</pdfrwt>
<totfact> 0.46545888E+04</totfact>
</mgrwt>
</event>
<event>
 4    1  0.4053645E-001  0.1887337E+03  0.7546771E-02  0.1159608E+00
         21   -1    0    0  501  502  0.00000000000E+00  0.00000000000E+00  0.11950522707E+03  0.11950522707E+03  0.00000000000E+00 0. -1.
         21   -1    0    0  502  503 -0.00000000000E+00 -0.00000000000E+00 -0.44124119072E+03  0.44124119072E+03  0.00000000000E+00 0. -1.
          6    1    1    2  501    0 -0.20437073540E+02 -0.72620466027E+02 -0.32057826059E+03  0.37200917626E+03  0.17300000000E+03 0. -1.
         -6    1    1    2    0  503  0.20437073540E+02  0.72620466027E+02 -0.11577030623E+01  0.18873724152E+03  0.17300000000E+03 0. -1.
<mgrwt>
<rscale>  2 0.18873369E+03</rscale>
<asrwt>0</asrwt>
<pdfrwt beam="1">  1       21 0.18385419E-01 0.18873369E+03</pdfrwt>
<pdfrwt beam="2">  1       21 0.67883261E-01 0.18873369E+03</pdfrwt>
<totfact> 0.53613946E+04</totfact>
</mgrwt>
</event>
<event>
 4    1  0.4053645E-001  0.1730060E+03  0.7546771E-02  0.1174749E+00
         21   -1    0    0  503  502  0.00000000000E+00  0.00000000000E+00  0.29205828583E+03  0.29205828583E+03  0.00000000000E+00 0. -1.
         21   -1    0    0  501  503 -0.00000000000E+00 -0.00000000000E+00 -0.13434888285E+03  0.13434888285E+03  0.00000000000E+00 0. -1.
          6    1    1    2  501    0  0.82292778149E+00  0.11861998686E+01 -0.24979087058E+02  0.17479999734E+03  0.17300000000E+03 0. -1.
         -6    1    1    2    0  502 -0.82292778149E+00 -0.11861998686E+01  0.18268849004E+03  0.25160717135E+03  0.17300000000E+03 0. -1.
<mgrwt>
<rscale>  2 0.17300602E+03</rscale>
<asrwt>0</asrwt>
<pdfrwt beam="1">  1       21 0.44932044E-01 0.17300602E+03</pdfrwt>
<pdfrwt beam="2">  1       21 0.20669059E-01 0.17300602E+03</pdfrwt>
<totfact> 0.10394033E+05</totfact>
</mgrwt>
</event>
<event>
 4    1  0.4053645E-001  0.1843453E+03  0.7546771E-02  0.1163663E+00
         21   -1    0    0  501  502  0.00000000000E+00  0.00000000000E+00  0.16009500215E+03  0.16009500215E+03  0.00000000000E+00 0.  1.
         21   -1    0    0  502  503 -0.00000000000E+00 -0.00000000000E+00 -0.52094026278E+03  0.52094026278E+03  0.00000000000E+00 0. -1.
          6    1    1    2  501    0  0.56937193631E+02 -0.28501529582E+02  0.81693562401E+02  0.20163585828E+03  0.17300000000E+03 0.  1.
         -6    1    1    2    0  503 -0.56937193631E+02  0.28501529582E+02 -0.44253882303E+03  0.47939940665E+03  0.17300000000E+03 0. -1.
<mgrwt>
<rscale>  2 0.18434528E+03</rscale>
<asrwt>0</asrwt>
<pdfrwt beam="1">  1       21 0.24630000E-01 0.18434528E+03</pdfrwt>
<pdfrwt beam="2">  1       21 0.80144658E-01 0.18434528E+03</pdfrwt>
<totfact> 0.21451122E+04</totfact>
</mgrwt>
</event>
<event>
 4    1  0.4053645E-001  0.2045264E+03  0.7546771E-02  0.1145975E+00
         21   -1    0    0  503  502  0.00000000000E+00  0.00000000000E+00  0.15254805808E+03  0.15254805808E+03  0.00000000000E+00 0. -1.
         21   -1    0    0  501  503 -0.00000000000E+00 -0.00000000000E+00 -0.27486457240E+03  0.27486457240E+03  0.00000000000E+00 0.  1.
          6    1    1    2  501    0 -0.59079577023E+02 -0.91715015011E+02 -0.71543295347E+02  0.21667829496E+03  0.17300000000E+03 0. -1.
         -6    1    1    2    0  502  0.59079577023E+02  0.91715015011E+02 -0.50773218976E+02  0.21073433552E+03  0.17300000000E+03 0.  1.
<mgrwt>
<rscale>  2 0.20452638E+03</rscale>
<asrwt>0</asrwt>
<pdfrwt beam="1">  1       21 0.23468932E-01 0.20452638E+03</pdfrwt>
<pdfrwt beam="2">  1       21 0.42286857E-01 0.20452638E+03</pdfrwt>
<totfact> 0.91472930E+04</totfact>
</mgrwt>
</event>
<event>
 4    1  0.4053645E-001  0.1838138E+03  0.7546771E-02  0.1164162E+00
         21   -1    0    0  501  502  0.00000000000E+00  0.00000000000E+00  0.90088948886E+03  0.90088948886E+03  0.00000000000E+00 0. -1.
         21   -1    0    0  502  503 -0.00000000000E+00 -0.00000000000E+00 -0.39257310036E+02  0.39257310036E+02  0.00000000000E+00 0.  1.
          6    1    1    2  501    0  0.57130879902E+02  0.24383768306E+02  0.33149084008E+03  0.37904311450E+03  0.17300000000E+03 0.  1.
         -6    1    1    2    0  503 -0.57130879902E+02 -0.24383768306E+02  0.53014133875E+03  0.56110368439E+03  0.17300000000E+03 0. -1.
<mgrwt>
<rscale>  2 0.18381378E+03</rscale>
<asrwt>0</asrwt>
<pdfrwt beam="1">  1       21 0.13859837E+00 0.18381378E+03</pdfrwt>
<pdfrwt beam="2">  1       21 0.60395868E-02 0.18381378E+03</pdfrwt>
<totfact> 0.71917030E+04</totfact>
</mgrwt>
</event>
<event>
 4    1  0.4053645E-001  0.1855852E+03  0.7546771E-02  0.1162505E+00
         21   -1    0    0  503  502  0.00000000000E+00  0.00000000000E+00  0.17097969448E+03  0.17097969448E+03  0.00000000000E+00 0. -1.
         21   -1    0    0  501  503 -0.00000000000E+00 -0.00000000000E+00 -0.20266228578E+03  0.20266228578E+03  0.00000000000E+00 0. -1.
          6    1    1    2  501    0  0.38763553330E+02 -0.54865807849E+02 -0.30359604439E+02  0.18805205534E+03  0.17300000000E+03 0. -1.
         -6    1    1    2    0  502 -0.38763553330E+02  0.54865807849E+02 -0.13229868595E+01  0.18558992492E+03  0.17300000000E+03 0. -1.
<mgrwt>
<rscale>  2 0.18558521E+03</rscale>
<asrwt>0</asrwt>
<pdfrwt beam="1">  1       21 0.26304568E-01 0.18558521E+03</pdfrwt>
<pdfrwt beam="2">  1       21 0.31178813E-01 0.18558521E+03</pdfrwt>
<totfact> 0.13613224E+05</totfact>
</mgrwt>
</event>
<event>
 4    1  0.4053645E-001  0.1890823E+03  0.7546771E-02  0.1159292E+00
         21   -1    0    0  503  502  0.00000000000E+00  0.00000000000E+00  0.13114303297E+03  0.13114303297E+03  0.00000000000E+00 0. -1.
         21   -1    0    0  501  503 -0.00000000000E+00 -0.00000000000E+00 -0.27272668941E+03  0.27272668941E+03  0.00000000000E+00 0. -1.
          6    1    1    2  501    0  0.71071065478E+02 -0.27784959788E+02 -0.66781687444E+02  0.20052903559E+03  0.17300000000E+03 0.  1.
         -6    1    1    2    0  502 -0.71071065478E+02  0.27784959788E+02 -0.74801968992E+02  0.20334068679E+03  0.17300000000E+03 0.  1.
<mgrwt>
<rscale>  2 0.18908226E+03</rscale>
<asrwt>0</asrwt>
<pdfrwt beam="1">  1       21 0.20175851E-01 0.18908226E+03</pdfrwt>
<pdfrwt beam="2">  1       21 0.41957952E-01 0.18908226E+03</pdfrwt>
<totfact> 0.12431197E+05</totfact>
</mgrwt>
</event>
<event>
 4    1  0.4053645E-001  0.2186698E+03  0.7546771E-02  0.1134879E+00
         21   -1    0    0  501  502  0.00000000000E+00  0.00000000000E+00  0.15349401586E+04  0.15349401586E+04  0.00000000000E+00 0. -1.
         21   -1    0    0  502  503 -0.00000000000E+00 -0.00000000000E+00 -0.35160927658E+02  0.35160927658E+02  0.00000000000E+00 0. -1.
          6    1    1    2  501    0  0.35794693145E+02  0.12886518766E+03  0.10149715462E+04  0.10382599560E+04  0.17300000000E+03 0. -1.
         -6    1    1    2    0  503 -0.35794693145E+02 -0.12886518766E+03  0.48480768478E+03  0.53184113030E+03  0.17300000000E+03 0. -1.
<mgrwt>
<rscale>  2 0.21866983E+03</rscale>
<asrwt>0</asrwt>
<pdfrwt beam="1">  1       21 0.23614459E+00 0.21866983E+03</pdfrwt>
<pdfrwt beam="2">  1       21 0.54093747E-02 0.21866983E+03</pdfrwt>
<totfact> 0.18506291E+04</totfact>
</mgrwt>
</event>
<event>
 4    1  0.4053645E-001  0.1741565E+03  0.7546771E-02  0.1173581E+00
         21   -1    0    0  503  502  0.00000000000E+00  0.00000000000E+00  0.15384691852E+02  0.15384691852E+02  0.00000000000E+00 0. -1.
         21   -1    0    0  501  503 -0.00000000000E+00 -0.00000000000E+00 -0.24155895112E+04  0.24155895112E+04  0.00000000000E+00 0. -1.
          6    1    1    2  501    0  0.50942039615E+01  0.19378698566E+02 -0.17212825683E+04  0.17300705665E+04  0.17300000000E+03 0. -1.
         -6    1    1    2    0  502 -0.50942039615E+01 -0.19378698566E+02 -0.67892225106E+03  0.70090363664E+03  0.17300000000E+03 0. -1.
<mgrwt>
<rscale>  2 0.17415650E+03</rscale>
<asrwt>0</asrwt>
<pdfrwt beam="1">  1       21 0.23668748E-02 0.17415650E+03</pdfrwt>
<pdfrwt beam="2">  1       21 0.37162929E+00 0.17415650E+03</pdfrwt>
<totfact> 0.12438691E+04</totfact>
</mgrwt>
</event>
<event>
 4    1  0.4053645E-001  0.1814611E+03  0.7546771E-02  0.1166396E+00
         21   -1    0    0  503  502  0.00000000000E+00  0.00000000000E+00  0.32378973346E+03  0.32378973346E+03  0.00000000000E+00 0.  1.
         21   -1    0    0  501  503 -0.00000000000E+00 -0.00000000000E+00 -0.11218400736E+03  0.11218400736E+03  0.00000000000E+00 0.  1.
          6    1    1    2  501    0 -0.51709147043E+02  0.18036219457E+02  0.39151344132E+02  0.18563665815E+03  0.17300000000E+03 0. -1.
         -6    1    1    2    0  502  0.51709147043E+02 -0.18036219457E+02  0.17245438197E+03  0.25033708268E+03  0.17300000000E+03 0. -1.
<mgrwt>
<rscale>  2 0.18146113E+03</rscale>
<asrwt>0</asrwt>
<pdfrwt beam="1">  1       21 0.49813805E-01 0.18146113E+03</pdfrwt>
<pdfrwt beam="2">  1       21 0.17259078E-01 0.18146113E+03</pdfrwt>
<totfact> 0.11697905E+05</totfact>
</mgrwt>
</event>
<event>
 4    1  0.4053645E-001  0.2103263E+03  0.7546771E-02  0.1141308E+00
         21   -1    0    0  503  502  0.00000000000E+00  0.00000000000E+00  0.10261375690E+03  0.10261375690E+03  0.00000000000E+00 0. -1.
         21   -1    0    0  501  503 -0.00000000000E+00 -0.00000000000E+00 -0.43702896137E+03  0.43702896137E+03  0.00000000000E+00 0. -1.
          6    1    1    2  501    0  0.11947830034E+03  0.57532978024E+01 -0.13578971578E+03  0.25035177571E+03  0.17300000000E+03 0. -1.
         -6    1    1    2    0  502 -0.11947830034E+03 -0.57532978024E+01 -0.19862548869E+03  0.28929094256E+03  0.17300000000E+03 0. -1.
<mgrwt>
<rscale>  2 0.21032633E+03</rscale>
<asrwt>0</asrwt>
<pdfrwt beam="1">  1       21 0.15786732E-01 0.21032633E+03</pdfrwt>
<pdfrwt beam="2">  1       21 0.67235224E-01 0.21032633E+03</pdfrwt>
<totfact> 0.71774055E+04</totfact>
</mgrwt>
</event>
<event>
 4    1  0.4053645E-001  0.2078364E+03  0.7546771E-02  0.1143291E+00
         21   -1    0    0  501  502  0.00000000000E+00  0.00000000000E+00  0.14086410164E+04  0.14086410164E+04  0.00000000000E+00 0.  1.
         21   -1    0    0  502  503 -0.00000000000E+00 -0.00000000000E+00 -0.41782520150E+02  0.41782520150E+02  0.00000000000E+00 0.  1.
          6    1    1    2  501    0  0.40371889548E+02 -0.10787521777E+03  0.10575155730E+04  0.10777453963E+04  0.17300000000E+03 0.  1.
         -6    1    1    2    0  503 -0.40371889548E+02  0.10787521777E+03  0.30934292330E+03  0.37267814031E+03  0.17300000000E+03 0.  1.
<mgrwt>
<rscale>  2 0.20783636E+03</rscale>
<asrwt>0</asrwt>
<pdfrwt beam="1">  1       21 0.21671397E+00 0.20783636E+03</pdfrwt>
<pdfrwt beam="2">  1       21 0.64280811E-02 0.20783636E+03</pdfrwt>
<totfact> 0.18243598E+04</totfact>
</mgrwt>
</event>
<event>
 4    1  0.4053645E-001  0.2106870E+03  0.7546771E-02  0.1141023E+00
         21   -1    0    0  503  502  0.00000000000E+00  0.00000000000E+00  0.34454836941E+02  0.34454836941E+02  0.00000000000E+00 0. -1.
         21   -1    0    0  501  503 -0.00000000000E+00 -0.00000000000E+00 -0.17293448896E+04  0.17293448896E+04  0.00000000000E+00 0. -1.
          6    1    1    2  501    0 -0.11906228490E+02  0.11965894088E+03 -0.12928013893E+04  0.13098566534E+04  0.17300000000E+03 0.  1.
         -6    1    1    2    0  502  0.11906228490E+02 -0.11965894088E+03 -0.40208866340E+03  0.45394307313E+03  0.17300000000E+03 0.  1.
<mgrwt>
<rscale>  2 0.21068702E+03</rscale>
<asrwt>0</asrwt>
<pdfrwt beam="1">  1       21 0.53007454E-02 0.21068702E+03</pdfrwt>
<pdfrwt beam="2">  1       21 0.26605300E+00 0.21068702E+03</pdfrwt>
<totfact> 0.12834740E+04</totfact>
</mgrwt>
</event>
<event>
 4    1  0.4053645E-001  0.1823093E+03  0.7546771E-02  0.1165587E+00
         21   -1    0    0  503  502  0.00000000000E+00  0.00000000000E+00  0.17223489789E+03  0.17223489789E+03  0.00000000000E+00 0.  1.
         21   -1    0    0  501  503 -0.00000000000E+00 -0.00000000000E+00 -0.20704480411E+03  0.20704480411E+03  0.00000000000E+00 0.  1.
          6    1    1    2  501    0 -0.37268751199E+02  0.43803268347E+02  0.32034336487E+02  0.18510236316E+03  0.17300000000E+03 0. -1.
         -6    1    1    2    0  502  0.37268751199E+02 -0.43803268347E+02 -0.66844242707E+02  0.19417733883E+03  0.17300000000E+03 0. -1.
<mgrwt>
<rscale>  2 0.18230931E+03</rscale>
<asrwt>0</asrwt>
<pdfrwt beam="1">  1       21 0.26497677E-01 0.18230931E+03</pdfrwt>
<pdfrwt beam="2">  1       21 0.31853047E-01 0.18230931E+03</pdfrwt>
<totfact> 0.12887124E+05</totfact>
</mgrwt>
</event>
<event>
 4    1  0.4053645E-001  0.1816790E+03  0.7546771E-02  0.1166188E+00
         21   -1    0    0  503  502  0.00000000000E+00  0.00000000000E+00  0.13458296837E+03  0.13458296837E+03  0.00000000000E+00 0.  1.
         21   -1    0    0  501  503 -0.00000000000E+00 -0.00000000000E+00 -0.26213673884E+03  0.26213673884E+03  0.00000000000E+00 0.  1.
          6    1    1    2  501    0 -0.37953966381E+02 -0.40469412159E+02 -0.11411372002E+03  0.21454420985E+03  0.17300000000E+03 0.  1.
         -6    1    1    2    0  502  0.37953966381E+02  0.40469412159E+02 -0.13440050453E+02  0.18217549737E+03  0.17300000000E+03 0.  1.
<mgrwt>
<rscale>  2 0.18167905E+03</rscale>
<asrwt>0</asrwt>
<pdfrwt beam="1">  1       21 0.20705072E-01 0.18167905E+03</pdfrwt>
<pdfrwt beam="2">  1       21 0.40328728E-01 0.18167905E+03</pdfrwt>
<totfact> 0.12865761E+05</totfact>
</mgrwt>
</event>
<event>
 4    1  0.4053645E-001  0.2129614E+03  0.7546771E-02  0.1139242E+00
         21   -1    0    0  501  502  0.00000000000E+00  0.00000000000E+00  0.40028156848E+03  0.40028156848E+03  0.00000000000E+00 0. -1.
         21   -1    0    0  502  503 -0.00000000000E+00 -0.00000000000E+00 -0.11882469194E+03  0.11882469194E+03  0.00000000000E+00 0. -1.
          6    1    1    2  501    0  0.91332309676E+02 -0.84154435365E+02  0.19668645680E+03  0.28989329429E+03  0.17300000000E+03 0.  1.
         -6    1    1    2    0  503 -0.91332309676E+02  0.84154435365E+02  0.84770419744E+02  0.22921296614E+03  0.17300000000E+03 0.  1.
<mgrwt>
<rscale>  2 0.21296140E+03</rscale>
<asrwt>0</asrwt>
<pdfrwt beam="1">  1       21 0.61581779E-01 0.21296140E+03</pdfrwt>
<pdfrwt beam="2">  1       21 0.18280722E-01 0.21296140E+03</pdfrwt>
<totfact> 0.66236434E+04</totfact>
</mgrwt>
</event>
<event>
 4    1  0.4053645E-001  0.1983527E+03  0.7546771E-02  0.1151136E+00
         21   -1    0    0  501  502  0.00000000000E+00  0.00000000000E+00  0.78489929864E+03  0.78489929864E+03  0.00000000000E+00 0. -1.
         21   -1    0    0  502  503 -0.00000000000E+00 -0.00000000000E+00 -0.50142050040E+02  0.50142050040E+02  0.00000000000E+00 0. -1.
          6    1    1    2  501    0  0.76978631711E+02  0.59068363875E+02  0.35988477592E+03  0.41092679797E+03  0.17300000000E+03 0. -1.
         -6    1    1    2    0  503 -0.76978631711E+02 -0.59068363875E+02  0.37487247267E+03  0.42411455071E+03  0.17300000000E+03 0. -1.
<mgrwt>
<rscale>  2 0.19835267E+03</rscale>
<asrwt>0</asrwt>
<pdfrwt beam="1">  1       21 0.12075373E+00 0.19835267E+03</pdfrwt>
<pdfrwt beam="2">  1       21 0.77141621E-02 0.19835267E+03</pdfrwt>
<totfact> 0.66281847E+04</totfact>
</mgrwt>
</event>
<event>
 4    1  0.4053645E-001  0.2076539E+03  0.7546771E-02  0.1143437E+00
         21   -1    0    0  501  502  0.00000000000E+00  0.00000000000E+00  0.15850282185E+03  0.15850282185E+03  0.00000000000E+00 0. -1.
         21   -1    0    0  502  503 -0.00000000000E+00 -0.00000000000E+00 -0.30027354026E+03  0.30027354026E+03  0.00000000000E+00 0. -1.
          6    1    1    2  501    0  0.96096167583E+02  0.62901980984E+02 -0.55457927126E+00  0.20765461756E+03  0.17300000000E+03 0. -1.
         -6    1    1    2    0  503 -0.96096167583E+02 -0.62901980984E+02 -0.14121613913E+03  0.25112174455E+03  0.17300000000E+03 0. -1.
<mgrwt>
<rscale>  2 0.20765388E+03</rscale>
<asrwt>0</asrwt>
<pdfrwt beam="1">  1       21 0.24385050E-01 0.20765388E+03</pdfrwt>
<pdfrwt beam="2">  1       21 0.46195929E-01 0.20765388E+03</pdfrwt>
<totfact> 0.70838818E+04</totfact>
</mgrwt>
</event>
<event>
 4    1  0.4053645E-001  0.1831076E+03  0.7546771E-02  0.1164829E+00
         21   -1    0    0  501  502  0.00000000000E+00  0.00000000000E+00  0.16204852444E+03  0.16204852444E+03  0.00000000000E+00 0.  1.
         21   -1    0    0  502  503 -0.00000000000E+00 -0.00000000000E+00 -0.21233873473E+03  0.21233873473E+03  0.00000000000E+00 0.  1.
          6    1    1    2  501    0 -0.42305286374E+02  0.42540264824E+02 -0.55094254561E+02  0.19121660041E+03  0.17300000000E+03 0.  1.
         -6    1    1    2    0  503  0.42305286374E+02 -0.42540264824E+02  0.48040442700E+01  0.18317065875E+03  0.17300000000E+03 0.  1.
<mgrwt>
<rscale>  2 0.18310765E+03</rscale>
<asrwt>0</asrwt>
<pdfrwt beam="1">  1       21 0.24930542E-01 0.18310765E+03</pdfrwt>
<pdfrwt beam="2">  1       21 0.32667498E-01 0.18310765E+03</pdfrwt>
<totfact> 0.13776609E+05</totfact>
</mgrwt>
</event>
<event>
 4    1  0.4053645E-001  0.1790009E+03  0.7546771E-02  0.1168773E+00
         21   -1    0    0  503  502  0.00000000000E+00  0.00000000000E+00  0.97300513034E+02  0.97300513034E+02  0.00000000000E+00 0.  1.
         21   -1    0    0  501  503 -0.00000000000E+00 -0.00000000000E+00 -0.39409731803E+03  0.39409731803E+03  0.00000000000E+00 0.  1.
          6    1    1    2  501    0  0.28640579040E+02 -0.35945051140E+02 -0.48772860363E+02  0.18552660558E+03  0.17300000000E+03 0.  1.
         -6    1    1    2    0  502 -0.28640579040E+02  0.35945051140E+02 -0.24802394463E+03  0.30587122549E+03  0.17300000000E+03 0.  1.
<mgrwt>
<rscale>  2 0.17900092E+03</rscale>
<asrwt>0</asrwt>
<pdfrwt beam="1">  1       21 0.14969310E-01 0.17900092E+03</pdfrwt>
<pdfrwt beam="2">  1       21 0.60630356E-01 0.17900092E+03</pdfrwt>
<totfact> 0.10028562E+05</totfact>
</mgrwt>
</event>
<event>
 4    1  0.4053645E-001  0.3029314E+03  0.7546771E-02  0.1083784E+00
         21   -1    0    0  503  502  0.00000000000E+00  0.00000000000E+00  0.97919989803E+03  0.97919989803E+03  0.00000000000E+00 0. -1.
         21   -1    0    0  501  503 -0.00000000000E+00 -0.00000000000E+00 -0.99440961817E+02  0.99440961817E+02  0.00000000000E+00 0. -1.
          6    1    1    2  501    0  0.24786682365E+03  0.20012224476E+02  0.31048333076E+03  0.43378260693E+03  0.17300000000E+03 0. -1.
         -6    1    1    2    0  502 -0.24786682365E+03 -0.20012224476E+02  0.56927560545E+03  0.64485825292E+03  0.17300000000E+03 0. -1.
<mgrwt>
<rscale>  2 0.30293143E+03</rscale>
<asrwt>0</asrwt>
<pdfrwt beam="1">  1       21 0.15064613E+00 0.30293143E+03</pdfrwt>
<pdfrwt beam="2">  1       21 0.15298610E-01 0.30293143E+03</pdfrwt>
<totfact> 0.10456409E+04</totfact>
</mgrwt>
</event>
<event>
 4    1  0.4053645E-001  0.2426707E+03  0.7546771E-02  0.1118026E+00
         21   -1    0    0  501  502  0.00000000000E+00  0.00000000000E+00  0.62219257886E+02  0.62219257886E+02  0.00000000000E+00 0.  1.
         21   -1    0    0  502  503 -0.00000000000E+00 -0.00000000000E+00 -0.94978095927E+03  0.94978095927E+03  0.00000000000E+00 0.  1.
          6    1    1    2  501    0  0.83822469638E+02 -0.14810083716E+03 -0.41393457173E+03  0.47982381565E+03  0.17300000000E+03 0.  1.
         -6    1    1    2    0  503 -0.83822469638E+02  0.14810083716E+03 -0.47362712965E+03  0.53217640151E+03  0.17300000000E+03 0.  1.
<mgrwt>
<rscale>  2 0.24267069E+03</rscale>
<asrwt>0</asrwt>
<pdfrwt beam="1">  1       21 0.95721948E-02 0.24267069E+03</pdfrwt>
<pdfrwt beam="2">  1       21 0.14612013E+00 0.24267069E+03</pdfrwt>
<totfact> 0.27255133E+04</totfact>
</mgrwt>
</event>
<event>
 4    1  0.4053645E-001  0.2605815E+03  0.7546771E-02  0.1106794E+00
         21   -1    0    0  503  502  0.00000000000E+00  0.00000000000E+00  0.13638273848E+03  0.13638273848E+03  0.00000000000E+00 0. -1.
         21   -1    0    0  501  503 -0.00000000000E+00 -0.00000000000E+00 -0.68534499629E+03  0.68534499629E+03  0.00000000000E+00 0.  1.
          6    1    1    2  501    0  0.19486793207E+03  0.42927810413E+00 -0.48936288057E+03  0.55441746375E+03  0.17300000000E+03 0.  1.
         -6    1    1    2    0  502 -0.19486793207E+03 -0.42927810413E+00 -0.59599377236E+02  0.26731027103E+03  0.17300000000E+03 0. -1.
<mgrwt>
<rscale>  2 0.26058146E+03</rscale>
<asrwt>0</asrwt>
<pdfrwt beam="1">  1       21 0.20981960E-01 0.26058146E+03</pdfrwt>
<pdfrwt beam="2">  1       21 0.10543769E+00 0.26058146E+03</pdfrwt>
<totfact> 0.14667267E+04</totfact>
</mgrwt>
</event>
<event>
 4    1  0.4053645E-001  0.2157223E+03  0.7546771E-02  0.1137113E+00
         21   -1    0    0  503  502  0.00000000000E+00  0.00000000000E+00  0.66625219485E+02  0.66625219485E+02  0.00000000000E+00 0. -1.
         21   -1    0    0  501  503 -0.00000000000E+00 -0.00000000000E+00 -0.72659509463E+03  0.72659509463E+03  0.00000000000E+00 0.  1.
          6    1    1    2  501    0  0.89105745847E+02 -0.93098141106E+02 -0.40800754655E+03  0.46152600778E+03  0.17300000000E+03 0.  1.
         -6    1    1    2    0  502 -0.89105745847E+02  0.93098141106E+02 -0.25196232859E+03  0.33169430633E+03  0.17300000000E+03 0. -1.
<mgrwt>
<rscale>  2 0.21572227E+03</rscale>
<asrwt>0</asrwt>
<pdfrwt beam="1">  1       21 0.10250033E-01 0.21572227E+03</pdfrwt>
<pdfrwt beam="2">  1       21 0.11178386E+00 0.21572227E+03</pdfrwt>
<totfact> 0.48213939E+04</totfact>
</mgrwt>
</event>
<event>
 4    1  0.4053645E-001  0.1771405E+03  0.7546771E-02  0.1170600E+00
         21   -1    0    0  501  502  0.00000000000E+00  0.00000000000E+00  0.43589896861E+03  0.43589896861E+03  0.00000000000E+00 0. -1.
         21   -1    0    0  502  503 -0.00000000000E+00 -0.00000000000E+00 -0.72435445112E+02  0.72435445112E+02  0.00000000000E+00 0. -1.
          6    1    1    2  501    0  0.35689743965E+02 -0.13266630904E+02  0.20174554012E+03  0.26847723232E+03  0.17300000000E+03 0. -1.
         -6    1    1    2    0  503 -0.35689743965E+02  0.13266630904E+02  0.16171798338E+03  0.23985718140E+03  0.17300000000E+03 0. -1.
<mgrwt>
<rscale>  2 0.17714051E+03</rscale>
<asrwt>0</asrwt>
<pdfrwt beam="1">  1       21 0.67061378E-01 0.17714051E+03</pdfrwt>
<pdfrwt beam="2">  1       21 0.11143915E-01 0.17714051E+03</pdfrwt>
<totfact> 0.13707710E+05</totfact>
</mgrwt>
</event>
<event>
 4    1  0.4053645E-001  0.1971483E+03  0.7546771E-02  0.1152168E+00
         21   -1    0    0  503  502  0.00000000000E+00  0.00000000000E+00  0.12554483956E+03  0.12554483956E+03  0.00000000000E+00 0. -1.
         21   -1    0    0  501  503 -0.00000000000E+00 -0.00000000000E+00 -0.33277548221E+03  0.33277548221E+03  0.00000000000E+00 0. -1.
          6    1    1    2  501    0  0.80513366276E+02  0.49558667197E+02 -0.43127383097E+02  0.20181039323E+03  0.17300000000E+03 0. -1.
         -6    1    1    2    0  502 -0.80513366276E+02 -0.49558667197E+02 -0.16410325955E+03  0.25650992854E+03  0.17300000000E+03 0. -1.
<mgrwt>
<rscale>  2 0.19714833E+03</rscale>
<asrwt>0</asrwt>
<pdfrwt beam="1">  1       21 0.19314591E-01 0.19714833E+03</pdfrwt>
<pdfrwt beam="2">  1       21 0.51196228E-01 0.19714833E+03</pdfrwt>
<totfact> 0.89176903E+04</totfact>
</mgrwt>
</event>
<event>
 4    1  0.4053645E-001  0.1731796E+03  0.7546771E-02  0.1174572E+00
         21   -1    0    0  501  502  0.00000000000E+00  0.00000000000E+00  0.11388923134E+03  0.11388923134E+03  0.00000000000E+00 0. -1.
         21   -1    0    0  502  503 -0.00000000000E+00 -0.00000000000E+00 -0.27188366579E+03  0.27188366579E+03  0.00000000000E+00 0. -1.
          6    1    1    2  501    0 -0.77406853958E+01  0.15015911378E+01 -0.44797275360E+02  0.17887976092E+03  0.17300000000E+03 0.  1.
         -6    1    1    2    0  503  0.77406853958E+01 -0.15015911378E+01 -0.11319715909E+03  0.20689313621E+03  0.17300000000E+03 0.  1.
<mgrwt>
<rscale>  2 0.17317960E+03</rscale>
<asrwt>0</asrwt>
<pdfrwt beam="1">  1       21 0.17521421E-01 0.17317960E+03</pdfrwt>
<pdfrwt beam="2">  1       21 0.41828255E-01 0.17317960E+03</pdfrwt>
<totfact> 0.16335180E+05</totfact>
</mgrwt>
</event>
<event>
 4    1  0.4053645E-001  0.1950820E+03  0.7546771E-02  0.1153956E+00
         21   -1    0    0  501  502  0.00000000000E+00  0.00000000000E+00  0.38370924421E+02  0.38370924421E+02  0.00000000000E+00 0.  1.
         21   -1    0    0  502  503 -0.00000000000E+00 -0.00000000000E+00 -0.10176179769E+04  0.10176179769E+04  0.00000000000E+00 0.  1.
          6    1    1    2  501    0 -0.83254972536E+02  0.34591657582E+02 -0.40555243292E+03  0.45003305331E+03  0.17300000000E+03 0.  1.
         -6    1    1    2    0  503  0.83254972536E+02 -0.34591657582E+02 -0.57369461959E+03  0.60595584804E+03  0.17300000000E+03 0.  1.
<mgrwt>
<rscale>  2 0.19508197E+03</rscale>
<asrwt>0</asrwt>
<pdfrwt beam="1">  1       21 0.59032185E-02 0.19508197E+03</pdfrwt>
<pdfrwt beam="2">  1       21 0.15655663E+00 0.19508197E+03</pdfrwt>
<totfact> 0.54028322E+04</totfact>
</mgrwt>
</event>
<event>
 4    1  0.4053645E-001  0.2291707E+03  0.7546771E-02  0.1127225E+00
         21   -1    0    0  503  502  0.00000000000E+00  0.00000000000E+00  0.19195623550E+03  0.19195623550E+03  0.00000000000E+00 0. -1.
         21   -1    0    0  501  503 -0.00000000000E+00 -0.00000000000E+00 -0.30869305728E+03  0.30869305728E+03  0.00000000000E+00 0. -1.
          6    1    1    2  501    0  0.30488396035E+02 -0.14717560381E+03 -0.14277018999E+03  0.27000468107E+03  0.17300000000E+03 0. -1.
         -6    1    1    2    0  502 -0.30488396035E+02  0.14717560381E+03  0.26033368215E+02  0.23064461171E+03  0.17300000000E+03 0. -1.
<mgrwt>
<rscale>  2 0.22917068E+03</rscale>
<asrwt>0</asrwt>
<pdfrwt beam="1">  1       21 0.29531729E-01 0.22917068E+03</pdfrwt>
<pdfrwt beam="2">  1       21 0.47491239E-01 0.22917068E+03</pdfrwt>
<totfact> 0.45791632E+04</totfact>
</mgrwt>
</event>
<event>
 4    1  0.4053645E-001  0.1891891E+03  0.7546771E-02  0.1159195E+00
         21   -1    0    0  501  502  0.00000000000E+00  0.00000000000E+00  0.92136176583E+02  0.92136176583E+02  0.00000000000E+00 0.  1.
         21   -1    0    0  502  503 -0.00000000000E+00 -0.00000000000E+00 -0.39326532782E+03  0.39326532782E+03  0.00000000000E+00 0.  1.
          6    1    1    2  501    0 -0.64136160716E+02  0.41833838567E+02 -0.12377583777E+03  0.22608178869E+03  0.17300000000E+03 0. -1.
         -6    1    1    2    0  503  0.64136160716E+02 -0.41833838567E+02 -0.17735331346E+03  0.25931971571E+03  0.17300000000E+03 0. -1.
<mgrwt>
<rscale>  2 0.18918910E+03</rscale>
<asrwt>0</asrwt>
<pdfrwt beam="1">  1       21 0.14174796E-01 0.18918910E+03</pdfrwt>
<pdfrwt beam="2">  1       21 0.60502358E-01 0.18918910E+03</pdfrwt>
<totfact> 0.11079721E+05</totfact>
</mgrwt>
</event>
<event>
 4    1  0.4053645E-001  0.1960721E+03  0.7546771E-02  0.1153096E+00
         21   -1    0    0  501  502  0.00000000000E+00  0.00000000000E+00  0.49528948961E+03  0.49528948961E+03  0.00000000000E+00 0. -1.
         21   -1    0    0  502  503 -0.00000000000E+00 -0.00000000000E+00 -0.93064209315E+02  0.93064209315E+02  0.00000000000E+00 0. -1.
          6    1    1    2  501    0  0.91150701605E+02 -0.14381447876E+02  0.81272406517E+02  0.21224862899E+03  0.17300000000E+03 0. -1.
         -6    1    1    2    0  503 -0.91150701605E+02  0.14381447876E+02  0.32095287378E+03  0.37610506994E+03  0.17300000000E+03 0. -1.
<mgrwt>
<rscale>  2 0.19607212E+03</rscale>
<asrwt>0</asrwt>
<pdfrwt beam="1">  1       21 0.76198381E-01 0.19607212E+03</pdfrwt>
<pdfrwt beam="2">  1       21 0.14317571E-01 0.19607212E+03</pdfrwt>
<totfact> 0.65411749E+04</totfact>
</mgrwt>
</event>
<event>
 4    1  0.4053645E-001  0.2011858E+03  0.7546771E-02  0.1148742E+00
         21   -1    0    0  501  502  0.00000000000E+00  0.00000000000E+00  0.40031575178E+03  0.40031575178E+03  0.00000000000E+00 0. -1.
         21   -1    0    0  502  503 -0.00000000000E+00 -0.00000000000E+00 -0.10500443303E+03  0.10500443303E+03  0.00000000000E+00 0. -1.
          6    1    1    2  501    0 -0.96749265155E+02  0.34442985829E+02  0.19631664154E+03  0.28109778250E+03  0.17300000000E+03 0. -1.
         -6    1    1    2    0  503  0.96749265155E+02 -0.34442985829E+02  0.98994677210E+02  0.22422240231E+03  0.17300000000E+03 0. -1.
<mgrwt>
<rscale>  2 0.20118583E+03</rscale>
<asrwt>0</asrwt>
<pdfrwt beam="1">  1       21 0.61587038E-01 0.20118583E+03</pdfrwt>
<pdfrwt beam="2">  1       21 0.16154528E-01 0.20118583E+03</pdfrwt>
<totfact> 0.83616341E+04</totfact>
</mgrwt>
</event>
<event>
 4    1  0.4053645E-001  0.3050049E+03  0.7546771E-02  0.1082765E+00
         21   -1    0    0  501  502  0.00000000000E+00  0.00000000000E+00  0.13314946024E+04  0.13314946024E+04  0.00000000000E+00 0. -1.
         21   -1    0    0  502  503 -0.00000000000E+00 -0.00000000000E+00 -0.10056714221E+03  0.10056714221E+03  0.00000000000E+00 0.  1.
          6    1    1    2  501    0 -0.19761710794E+03  0.15506916378E+03  0.10110776680E+04  0.10560804977E+04  0.17300000000E+03 0. -1.
         -6    1    1    2    0  503  0.19761710794E+03 -0.15506916378E+03  0.21984979222E+03  0.37598124693E+03  0.17300000000E+03 0.  1.
<mgrwt>
<rscale>  2 0.30500486E+03</rscale>
<asrwt>0</asrwt>
<pdfrwt beam="1">  1       21 0.20484531E+00 0.30500486E+03</pdfrwt>
<pdfrwt beam="2">  1       21 0.15471869E-01 0.30500486E+03</pdfrwt>
<totfact> 0.42557274E+03</totfact>
</mgrwt>
</event>
<event>
 4    1  0.4053645E-001  0.1736007E+03  0.7546771E-02  0.1174144E+00
         21   -1    0    0  501  502  0.00000000000E+00  0.00000000000E+00  0.17074157793E+03  0.17074157793E+03  0.00000000000E+00 0. -1.
         21   -1    0    0  502  503 -0.00000000000E+00 -0.00000000000E+00 -0.20578997606E+03  0.20578997606E+03  0.00000000000E+00 0. -1.
          6    1    1    2  501    0 -0.46595098600E+01 -0.13656147155E+02  0.53492710204E+02  0.18165536445E+03  0.17300000000E+03 0. -1.
         -6    1    1    2    0  503  0.46595098600E+01  0.13656147155E+02 -0.88541108337E+02  0.19487618955E+03  0.17300000000E+03 0. -1.
<mgrwt>
<rscale>  2 0.17360070E+03</rscale>
<asrwt>0</asrwt>
<pdfrwt beam="1">  1       21 0.26267935E-01 0.17360070E+03</pdfrwt>
<pdfrwt beam="2">  1       21 0.31659996E-01 0.17360070E+03</pdfrwt>
<totfact> 0.13301226E+05</totfact>
</mgrwt>
</event>
<event>
 4    1  0.4053645E-001  0.1905871E+03  0.7546771E-02  0.1157933E+00
         21   -1    0    0  501  502  0.00000000000E+00  0.00000000000E+00  0.55295425767E+02  0.55295425767E+02  0.00000000000E+00 0.  1.
         21   -1    0    0  502  503 -0.00000000000E+00 -0.00000000000E+00 -0.65711316071E+03  0.65711316071E+03  0.00000000000E+00 0.  1.
          6    1    1    2  501    0  0.41050878781E+02  0.68624237731E+02 -0.29446495015E+03  0.35076069837E+03  0.17300000000E+03 0.  1.
         -6    1    1    2    0  503 -0.41050878781E+02 -0.68624237731E+02 -0.30735278479E+03  0.36164788810E+03  0.17300000000E+03 0.  1.
<mgrwt>
<rscale>  2 0.19058715E+03</rscale>
<asrwt>0</asrwt>
<pdfrwt beam="1">  1       21 0.85069883E-02 0.19058715E+03</pdfrwt>
<pdfrwt beam="2">  1       21 0.10109434E+00 0.19058715E+03</pdfrwt>
<totfact> 0.86321459E+04</totfact>
</mgrwt>
</event>
<event>
 4    1  0.4053645E-001  0.2442317E+03  0.7546771E-02  0.1117005E+00
         21   -1    0    0  501  502  0.00000000000E+00  0.00000000000E+00  0.33646916222E+03  0.33646916222E+03  0.00000000000E+00 0.  1.
         21   -1    0    0  502  503 -0.00000000000E+00 -0.00000000000E+00 -0.24209494616E+03  0.24209494616E+03  0.00000000000E+00 0. -1.
          6    1    1    2  501    0 -0.35598785449E+01 -0.17235855914E+03  0.19686831727E+03  0.31369775260E+03  0.17300000000E+03 0.  1.
         -6    1    1    2    0  503  0.35598785449E+01  0.17235855914E+03 -0.10249410121E+03  0.26486635578E+03  0.17300000000E+03 0. -1.
<mgrwt>
<rscale>  2 0.24423175E+03</rscale>
<asrwt>0</asrwt>
<pdfrwt beam="1">  1       21 0.51764487E-01 0.24423175E+03</pdfrwt>
<pdfrwt beam="2">  1       21 0.37245376E-01 0.24423175E+03</pdfrwt>
<totfact> 0.23972143E+04</totfact>
</mgrwt>
</event>
<event>
 4    1  0.4053645E-001  0.1921866E+03  0.7546771E-02  0.1156504E+00
         21   -1    0    0  503  502  0.00000000000E+00  0.00000000000E+00  0.65217925876E+03  0.65217925876E+03  0.00000000000E+00 0. -1.
         21   -1    0    0  501  503 -0.00000000000E+00 -0.00000000000E+00 -0.65619011878E+02  0.65619011878E+02  0.00000000000E+00 0. -1.
          6    1    1    2  501    0 -0.80246437788E+02 -0.23816204330E+02  0.16047643295E+03  0.25037649230E+03  0.17300000000E+03 0. -1.
         -6    1    1    2    0  502  0.80246437788E+02  0.23816204330E+02  0.42608381393E+03  0.46742177833E+03  0.17300000000E+03 0. -1.
<mgrwt>
<rscale>  2 0.19218663E+03</rscale>
<asrwt>0</asrwt>
<pdfrwt beam="1">  1       21 0.10033527E+00 0.19218663E+03</pdfrwt>
<pdfrwt beam="2">  1       21 0.10095233E-01 0.19218663E+03</pdfrwt>
<totfact> 0.65008879E+04</totfact>
</mgrwt>
</event>
<event>
 4    1  0.4053645E-001  0.1959181E+03  0.7546771E-02  0.1153229E+00
         21   -1    0    0  501  502  0.00000000000E+00  0.00000000000E+00  0.31329750581E+03  0.31329750581E+03  0.00000000000E+00 0. -1.
         21   -1    0    0  502  503 -0.00000000000E+00 -0.00000000000E+00 -0.12275873841E+03  0.12275873841E+03  0.00000000000E+00 0.  1.
          6    1    1    2  501    0  0.38830373793E+02 -0.83349292948E+02  0.85570727312E+02  0.21379020543E+03  0.17300000000E+03 0.  1.
         -6    1    1    2    0  503 -0.38830373793E+02  0.83349292948E+02  0.10496804009E+03  0.22226603880E+03  0.17300000000E+03 0.  1.
<mgrwt>
<rscale>  2 0.19591810E+03</rscale>
<asrwt>0</asrwt>
<pdfrwt beam="1">  1       21 0.48199616E-01 0.19591810E+03</pdfrwt>
<pdfrwt beam="2">  1       21 0.18885960E-01 0.19591810E+03</pdfrwt>
<totfact> 0.10548912E+05</totfact>
</mgrwt>
</event>
<event>
 4    1  0.4053645E-001  0.2282994E+03  0.7546771E-02  0.1127842E+00
         21   -1    0    0  501  502  0.00000000000E+00  0.00000000000E+00  0.36317736728E+03  0.36317736728E+03  0.00000000000E+00 0.  1.
         21   -1    0    0  502  503 -0.00000000000E+00 -0.00000000000E+00 -0.16256087769E+03  0.16256087769E+03  0.00000000000E+00 0.  1.
          6    1    1    2  501    0  0.14895706326E+03  0.18507346472E+01  0.19029035220E+03  0.29720540045E+03  0.17300000000E+03 0.  1.
         -6    1    1    2    0  503 -0.14895706326E+03 -0.18507346472E+01  0.10326137392E+02  0.22853284452E+03  0.17300000000E+03 0.  1.
<mgrwt>
<rscale>  2 0.22829943E+03</rscale>
<asrwt>0</asrwt>
<pdfrwt beam="1">  1       21 0.55873441E-01 0.22829943E+03</pdfrwt>
<pdfrwt beam="2">  1       21 0.25009366E-01 0.22829943E+03</pdfrwt>
<totfact> 0.44887556E+04</totfact>
</mgrwt>
</event>
<event>
 4    1  0.4053645E-001  0.2113495E+03  0.7546771E-02  0.1140502E+00
         21   -1    0    0  501  502  0.00000000000E+00  0.00000000000E+00  0.25088430422E+03  0.25088430422E+03  0.00000000000E+00 0. -1.
         21   -1    0    0  502  503 -0.00000000000E+00 -0.00000000000E+00 -0.19747659016E+03  0.19747659016E+03  0.00000000000E+00 0. -1.
          6    1    1    2  501    0  0.81500682530E+02 -0.89984769787E+02  0.97026870531E+02  0.23255716212E+03  0.17300000000E+03 0. -1.
         -6    1    1    2    0  503 -0.81500682530E+02  0.89984769787E+02 -0.43619156473E+02  0.21580373226E+03  0.17300000000E+03 0. -1.
<mgrwt>
<rscale>  2 0.21134952E+03</rscale>
<asrwt>0</asrwt>
<pdfrwt beam="1">  1       21 0.38597585E-01 0.21134952E+03</pdfrwt>
<pdfrwt beam="2">  1       21 0.30381014E-01 0.21134952E+03</pdfrwt>
<totfact> 0.66737008E+04</totfact>
</mgrwt>
</event>
<event>
 4    1  0.4053645E-001  0.1825767E+03  0.7546771E-02  0.1165332E+00
         21   -1    0    0  501  502  0.00000000000E+00  0.00000000000E+00  0.66101070453E+03  0.66101070453E+03  0.00000000000E+00 0.  1.
         21   -1    0    0  502  503 -0.00000000000E+00 -0.00000000000E+00 -0.55978986442E+02  0.55978986442E+02  0.00000000000E+00 0.  1.
          6    1    1    2  501    0 -0.20777173150E+02  0.54530286315E+02  0.41539362775E+03  0.45374674547E+03  0.17300000000E+03 0.  1.
         -6    1    1    2    0  503  0.20777173150E+02 -0.54530286315E+02  0.18963809034E+03  0.26324294550E+03  0.17300000000E+03 0.  1.
<mgrwt>
<rscale>  2 0.18257668E+03</rscale>
<asrwt>0</asrwt>
<pdfrwt beam="1">  1       21 0.10169395E+00 0.18257668E+03</pdfrwt>
<pdfrwt beam="2">  1       21 0.86121522E-02 0.18257668E+03</pdfrwt>
<totfact> 0.83592650E+04</totfact>
</mgrwt>
</event>
<event>
 4    1  0.4053645E-001  0.1899419E+03  0.7546771E-02  0.1158514E+00
         21   -1    0    0  503  502  0.00000000000E+00  0.00000000000E+00  0.40500480554E+02  0.40500480554E+02  0.00000000000E+00 0. -1.
         21   -1    0    0  501  503 -0.00000000000E+00 -0.00000000000E+00 -0.93139584612E+03  0.93139584612E+03  0.00000000000E+00 0. -1.
          6    1    1    2  501    0 -0.78370323698E+02  0.26455422969E+01 -0.34399740659E+03  0.39295307897E+03  0.17300000000E+03 0. -1.
         -6    1    1    2    0  502  0.78370323698E+02 -0.26455422969E+01 -0.54689795898E+03  0.57894324771E+03  0.17300000000E+03 0. -1.
<mgrwt>
<rscale>  2 0.18994185E+03</rscale>
<asrwt>0</asrwt>
<pdfrwt beam="1">  1       21 0.62308433E-02 0.18994185E+03</pdfrwt>
<pdfrwt beam="2">  1       21 0.14329167E+00 0.18994185E+03</pdfrwt>
<totfact> 0.62358146E+04</totfact>
</mgrwt>
</event>
<event>
 4    1  0.4053645E-001  0.1742557E+03  0.7546771E-02  0.1173481E+00
         21   -1    0    0  501  502  0.00000000000E+00  0.00000000000E+00  0.33149465059E+03  0.33149465059E+03  0.00000000000E+00 0.  1.
         21   -1    0    0  502  503 -0.00000000000E+00 -0.00000000000E+00 -0.10114564342E+03  0.10114564342E+03  0.00000000000E+00 0.  1.
          6    1    1    2  501    0  0.15455922728E+02  0.14041636734E+02  0.18162774368E+03  0.25170158995E+03  0.17300000000E+03 0. -1.
         -6    1    1    2    0  503 -0.15455922728E+02 -0.14041636734E+02  0.48721263496E+02  0.18093870406E+03  0.17300000000E+03 0. -1.
<mgrwt>
<rscale>  2 0.17425571E+03</rscale>
<asrwt>0</asrwt>
<pdfrwt beam="1">  1       21 0.50999177E-01 0.17425571E+03</pdfrwt>
<pdfrwt beam="2">  1       21 0.15560868E-01 0.17425571E+03</pdfrwt>
<totfact> 0.13498996E+05</totfact>
</mgrwt>
</event>
<event>
 4    1  0.4053645E-001  0.2490457E+03  0.7546771E-02  0.1113909E+00
         21   -1    0    0  501  502  0.00000000000E+00  0.00000000000E+00  0.10366126844E+04  0.10366126844E+04  0.00000000000E+00 0.  1.
         21   -1    0    0  502  503 -0.00000000000E+00 -0.00000000000E+00 -0.72155927807E+02  0.72155927807E+02  0.00000000000E+00 0. -1.
          6    1    1    2  501    0 -0.40844828592E+02 -0.17443179437E+03  0.71133102230E+03  0.75366807959E+03  0.17300000000E+03 0.  1.
         -6    1    1    2    0  503  0.40844828592E+02  0.17443179437E+03  0.25312573433E+03  0.35510053265E+03  0.17300000000E+03 0. -1.
<mgrwt>
<rscale>  2 0.24904568E+03</rscale>
<asrwt>0</asrwt>
<pdfrwt beam="1">  1       21 0.15947886E+00 0.24904568E+03</pdfrwt>
<pdfrwt beam="2">  1       21 0.11100913E-01 0.24904568E+03</pdfrwt>
<totfact> 0.16510238E+04</totfact>
</mgrwt>
</event>
<event>
 4    1  0.4053645E-001  0.3683117E+03  0.7546771E-02  0.1055340E+00
         21   -1    0    0  503  502  0.00000000000E+00  0.00000000000E+00  0.27739779695E+03  0.27739779695E+03  0.00000000000E+00 0.  1.
         21   -1    0    0  501  503 -0.00000000000E+00 -0.00000000000E+00 -0.50740132655E+03  0.50740132655E+03  0.00000000000E+00 0. -1.
          6    1    1    2  501    0  0.28208624975E+03 -0.16171525771E+03 -0.40318406294E+02  0.37051187668E+03  0.17300000000E+03 0. -1.
         -6    1    1    2    0  502 -0.28208624975E+03  0.16171525771E+03 -0.18968512331E+03  0.41428724682E+03  0.17300000000E+03 0.  1.
<mgrwt>
<rscale>  2 0.36831166E+03</rscale>
<asrwt>0</asrwt>
<pdfrwt beam="1">  1       21 0.42676585E-01 0.36831166E+03</pdfrwt>
<pdfrwt beam="2">  1       21 0.78061741E-01 0.36831166E+03</pdfrwt>
<totfact> 0.69909335E+03</totfact>
</mgrwt>
</event>
<event>
 4    1  0.4053645E-001  0.1911424E+03  0.7546771E-02  0.1157435E+00
         21   -1    0    0  503  502  0.00000000000E+00  0.00000000000E+00  0.43148303803E+03  0.43148303803E+03  0.00000000000E+00 0. -1.
         21   -1    0    0  501  503 -0.00000000000E+00 -0.00000000000E+00 -0.84781911965E+02  0.84781911965E+02  0.00000000000E+00 0. -1.
          6    1    1    2  501    0 -0.47164608467E+02 -0.66195975861E+02  0.18255858559E+03  0.26431618317E+03  0.17300000000E+03 0. -1.
         -6    1    1    2    0  502  0.47164608467E+02  0.66195975861E+02  0.16414254048E+03  0.25194876683E+03  0.17300000000E+03 0. -1.
<mgrwt>
<rscale>  2 0.19114237E+03</rscale>
<asrwt>0</asrwt>
<pdfrwt beam="1">  1       21 0.66382005E-01 0.19114237E+03</pdfrwt>
<pdfrwt beam="2">  1       21 0.13043371E-01 0.19114237E+03</pdfrwt>
<totfact> 0.10524991E+05</totfact>
</mgrwt>
</event>
<event>
 4    1  0.4053645E-001  0.2689876E+03  0.7546771E-02  0.1101860E+00
         21   -1    0    0  503  502  0.00000000000E+00  0.00000000000E+00  0.90757113326E+03  0.90757113326E+03  0.00000000000E+00 0. -1.
         21   -1    0    0  501  503 -0.00000000000E+00 -0.00000000000E+00 -0.97401511877E+02  0.97401511877E+02  0.00000000000E+00 0.  1.
          6    1    1    2  501    0 -0.20147149758E+03  0.42832056049E+02  0.19101102381E+03  0.32990841241E+03  0.17300000000E+03 0.  1.
         -6    1    1    2    0  502  0.20147149758E+03 -0.42832056049E+02  0.61915859758E+03  0.67506423273E+03  0.17300000000E+03 0. -1.
<mgrwt>
<rscale>  2 0.26898764E+03</rscale>
<asrwt>0</asrwt>
<pdfrwt beam="1">  1       21 0.13962632E+00 0.26898764E+03</pdfrwt>
<pdfrwt beam="2">  1       21 0.14984849E-01 0.26898764E+03</pdfrwt>
<totfact> 0.13511100E+04</totfact>
</mgrwt>
</event>
<event>
 4    1  0.4053645E-001  0.3393525E+03  0.7546771E-02  0.1067072E+00
         21   -1    0    0  501  502  0.00000000000E+00  0.00000000000E+00  0.55202162101E+03  0.55202162101E+03  0.00000000000E+00 0.  1.
         21   -1    0    0  502  503 -0.00000000000E+00 -0.00000000000E+00 -0.21213137846E+03  0.21213137846E+03  0.00000000000E+00 0. -1.
          6    1    1    2  501    0  0.51578639890E+02 -0.28735126892E+03  0.12075447321E+03  0.36019682209E+03  0.17300000000E+03 0.  1.
         -6    1    1    2    0  503 -0.51578639890E+02  0.28735126892E+03  0.21913576934E+03  0.40395617738E+03  0.17300000000E+03 0. -1.
<mgrwt>
<rscale>  2 0.33935248E+03</rscale>
<asrwt>0</asrwt>
<pdfrwt beam="1">  1       21 0.84926403E-01 0.33935248E+03</pdfrwt>
<pdfrwt beam="2">  1       21 0.32635597E-01 0.33935248E+03</pdfrwt>
<totfact> 0.10038202E+04</totfact>
</mgrwt>
</event>
<event>
 4    1  0.4053645E-001  0.2200069E+03  0.7546771E-02  0.1133878E+00
         21   -1    0    0  501  502  0.00000000000E+00  0.00000000000E+00  0.96348303234E+02  0.96348303234E+02  0.00000000000E+00 0. -1.
         21   -1    0    0  502  503 -0.00000000000E+00 -0.00000000000E+00 -0.52401105955E+03  0.52401105955E+03  0.00000000000E+00 0.  1.
          6    1    1    2  501    0 -0.35816025483E+01 -0.13587209389E+03 -0.27685805321E+03  0.35362895159E+03  0.17300000000E+03 0. -1.
         -6    1    1    2    0  503  0.35816025483E+01  0.13587209389E+03 -0.15080470310E+03  0.26673041119E+03  0.17300000000E+03 0. -1.
<mgrwt>
<rscale>  2 0.22000694E+03</rscale>
<asrwt>0</asrwt>
<pdfrwt beam="1">  1       21 0.14822816E-01 0.22000694E+03</pdfrwt>
<pdfrwt beam="2">  1       21 0.80617085E-01 0.22000694E+03</pdfrwt>
<totfact> 0.53478594E+04</totfact>
</mgrwt>
</event>
<event>
 4    1  0.4053645E-001  0.2572243E+03  0.7546771E-02  0.1108822E+00
         21   -1    0    0  503  502  0.00000000000E+00  0.00000000000E+00  0.72548555954E+03  0.72548555954E+03  0.00000000000E+00 0. -1.
         21   -1    0    0  501  503 -0.00000000000E+00 -0.00000000000E+00 -0.92332627749E+02  0.92332627749E+02  0.00000000000E+00 0.  1.
          6    1    1    2  501    0  0.11651916759E+03  0.15052777537E+03  0.36186424233E+03  0.44397078446E+03  0.17300000000E+03 0. -1.
         -6    1    1    2    0  502 -0.11651916759E+03 -0.15052777537E+03  0.27128868946E+03  0.37384740283E+03  0.17300000000E+03 0.  1.
<mgrwt>
<rscale>  2 0.25722427E+03</rscale>
<asrwt>0</asrwt>
<pdfrwt beam="1">  1       21 0.11161316E+00 0.25722427E+03</pdfrwt>
<pdfrwt beam="2">  1       21 0.14205020E-01 0.25722427E+03</pdfrwt>
<totfact> 0.26377154E+04</totfact>
</mgrwt>
</event>
<event>
 4    1  0.4053645E-001  0.2106477E+03  0.7546771E-02  0.1141054E+00
         21   -1    0    0  503  502  0.00000000000E+00  0.00000000000E+00  0.40604036828E+03  0.40604036828E+03  0.00000000000E+00 0. -1.
         21   -1    0    0  501  503 -0.00000000000E+00 -0.00000000000E+00 -0.10928120977E+03  0.10928120977E+03  0.00000000000E+00 0.  1.
          6    1    1    2  501    0  0.11614534044E+02  0.11961844808E+03  0.14878918744E+03  0.25789667082E+03  0.17300000000E+03 0. -1.
         -6    1    1    2    0  502 -0.11614534044E+02 -0.11961844808E+03  0.14796997108E+03  0.25742490723E+03  0.17300000000E+03 0.  1.
<mgrwt>
<rscale>  2 0.21064774E+03</rscale>
<asrwt>0</asrwt>
<pdfrwt beam="1">  1       21 0.62467748E-01 0.21064774E+03</pdfrwt>
<pdfrwt beam="2">  1       21 0.16812494E-01 0.21064774E+03</pdfrwt>
<totfact> 0.75045771E+04</totfact>
</mgrwt>
</event>
<event>
 4    1  0.4053645E-001  0.2318266E+03  0.7546771E-02  0.1125361E+00
         21   -1    0    0  501  502  0.00000000000E+00  0.00000000000E+00  0.13804647416E+03  0.13804647416E+03  0.00000000000E+00 0. -1.
         21   -1    0    0  502  503 -0.00000000000E+00 -0.00000000000E+00 -0.46838216498E+03  0.46838216498E+03  0.00000000000E+00 0. -1.
          6    1    1    2  501    0  0.15431554397E+03  0.11432585088E+01 -0.40588226483E+02  0.23535292282E+03  0.17300000000E+03 0. -1.
         -6    1    1    2    0  503 -0.15431554397E+03 -0.11432585088E+01 -0.28974746434E+03  0.37107571632E+03  0.17300000000E+03 0. -1.
<mgrwt>
<rscale>  2 0.23182665E+03</rscale>
<asrwt>0</asrwt>
<pdfrwt beam="1">  1       21 0.21237919E-01 0.23182665E+03</pdfrwt>
<pdfrwt beam="2">  1       21 0.72058796E-01 0.23182665E+03</pdfrwt>
<totfact> 0.35139706E+04</totfact>
</mgrwt>
</event>
<event>
 4    1  0.4053645E-001  0.2119709E+03  0.7546771E-02  0.1140015E+00
         21   -1    0    0  503  502  0.00000000000E+00  0.00000000000E+00  0.29083665567E+03  0.29083665567E+03  0.00000000000E+00 0.  1.
         21   -1    0    0  501  503 -0.00000000000E+00 -0.00000000000E+00 -0.16763109125E+03  0.16763109125E+03  0.00000000000E+00 0. -1.
          6    1    1    2  501    0  0.11982827564E+02  0.12189776444E+03 -0.25773014820E+01  0.21198654583E+03  0.17300000000E+03 0. -1.
         -6    1    1    2    0  502 -0.11982827564E+02 -0.12189776444E+03  0.12578286591E+03  0.24648120108E+03  0.17300000000E+03 0. -1.
<mgrwt>
<rscale>  2 0.21197088E+03</rscale>
<asrwt>0</asrwt>
<pdfrwt beam="1">  1       21 0.44744101E-01 0.21197088E+03</pdfrwt>
<pdfrwt beam="2">  1       21 0.25789399E-01 0.21197088E+03</pdfrwt>
<totfact> 0.67843408E+04</totfact>
</mgrwt>
</event>
<event>
 4    1  0.4053645E-001  0.1984513E+03  0.7546771E-02  0.1151052E+00
         21   -1    0    0  503  502  0.00000000000E+00  0.00000000000E+00  0.10824603235E+03  0.10824603235E+03  0.00000000000E+00 0. -1.
         21   -1    0    0  501  503 -0.00000000000E+00 -0.00000000000E+00 -0.78368174287E+03  0.78368174287E+03  0.00000000000E+00 0. -1.
          6    1    1    2  501    0  0.68863211588E+02  0.68642306065E+02 -0.66413952571E+03  0.69315526233E+03  0.17300000000E+03 0. -1.
         -6    1    1    2    0  502 -0.68863211588E+02 -0.68642306065E+02 -0.11296184812E+02  0.19877251290E+03  0.17300000000E+03 0. -1.
<mgrwt>
<rscale>  2 0.19845127E+03</rscale>
<asrwt>0</asrwt>
<pdfrwt beam="1">  1       21 0.16653236E-01 0.19845127E+03</pdfrwt>
<pdfrwt beam="2">  1       21 0.12056642E+00 0.19845127E+03</pdfrwt>
<totfact> 0.16847727E+04</totfact>
</mgrwt>
</event>
<event>
 4    1  0.4053645E-001  0.2088493E+03  0.7546771E-02  0.1142480E+00
         21   -1    0    0  503  502  0.00000000000E+00  0.00000000000E+00  0.54660665920E+02  0.54660665920E+02  0.00000000000E+00 0. -1.
         21   -1    0    0  501  503 -0.00000000000E+00 -0.00000000000E+00 -0.79804163338E+03  0.79804163338E+03  0.00000000000E+00 0.  1.
          6    1    1    2  501    0 -0.10166436475E+03  0.57908586315E+02 -0.36790452077E+03  0.42305056888E+03  0.17300000000E+03 0.  1.
         -6    1    1    2    0  502  0.10166436475E+03 -0.57908586315E+02 -0.37547644669E+03  0.42965173041E+03  0.17300000000E+03 0. -1.
<mgrwt>
<rscale>  2 0.20884934E+03</rscale>
<asrwt>0</asrwt>
<pdfrwt beam="1">  1       21 0.84093328E-02 0.20884934E+03</pdfrwt>
<pdfrwt beam="2">  1       21 0.12277564E+00 0.20884934E+03</pdfrwt>
<totfact> 0.54420925E+04</totfact>
</mgrwt>
</event>
<event>
 4    1  0.4053645E-001  0.2227083E+03  0.7546771E-02  0.1131880E+00
         21   -1    0    0  503  502  0.00000000000E+00  0.00000000000E+00  0.63209788327E+03  0.63209788327E+03  0.00000000000E+00 0.  1.
         21   -1    0    0  501  503 -0.00000000000E+00 -0.00000000000E+00 -0.78554032990E+02  0.78554032990E+02  0.00000000000E+00 0.  1.
          6    1    1    2  501    0  0.12436242433E+03  0.64837922518E+02  0.28858369065E+03  0.36452642605E+03  0.17300000000E+03 0.  1.
         -6    1    1    2    0  502 -0.12436242433E+03 -0.64837922518E+02  0.26496015963E+03  0.34612549021E+03  0.17300000000E+03 0.  1.
<mgrwt>
<rscale>  2 0.22270826E+03</rscale>
<asrwt>0</asrwt>
<pdfrwt beam="1">  1       21 0.97245825E-01 0.22270826E+03</pdfrwt>
<pdfrwt beam="2">  1       21 0.12085236E-01 0.22270826E+03</pdfrwt>
<totfact> 0.50063093E+04</totfact>
</mgrwt>
</event>
<event>
 4    1  0.4053645E-001  0.3186648E+03  0.7546771E-02  0.1076265E+00
         21   -1    0    0  503  502  0.00000000000E+00  0.00000000000E+00  0.13760944401E+03  0.13760944401E+03  0.00000000000E+00 0. -1.
         21   -1    0    0  501  503 -0.00000000000E+00 -0.00000000000E+00 -0.80030606080E+03  0.80030606080E+03  0.00000000000E+00 0.  1.
          6    1    1    2  501    0  0.54262755321E+02 -0.26205689220E+03 -0.46226233876E+03  0.56145679371E+03  0.17300000000E+03 0.  1.
         -6    1    1    2    0  502 -0.54262755321E+02  0.26205689220E+03 -0.20043427803E+03  0.37645871111E+03  0.17300000000E+03 0. -1.
<mgrwt>
<rscale>  2 0.31866481E+03</rscale>
<asrwt>0</asrwt>
<pdfrwt beam="1">  1       21 0.21170683E-01 0.31866481E+03</pdfrwt>
<pdfrwt beam="2">  1       21 0.12312401E+00 0.31866481E+03</pdfrwt>
<totfact> 0.95603024E+03</totfact>
</mgrwt>
</event>
<event>
 4    1  0.4053645E-001  0.2306052E+03  0.7546771E-02  0.1126215E+00
         21   -1    0    0  501  502  0.00000000000E+00  0.00000000000E+00  0.54474707231E+03  0.54474707231E+03  0.00000000000E+00 0.  1.
         21   -1    0    0  502  503 -0.00000000000E+00 -0.00000000000E+00 -0.12145445685E+03  0.12145445685E+03  0.00000000000E+00 0.  1.
          6    1    1    2  501    0 -0.12113958588E+03  0.92601115528E+02  0.35920412455E+03  0.42685637978E+03  0.17300000000E+03 0.  1.
         -6    1    1    2    0  503  0.12113958588E+03 -0.92601115528E+02  0.64088490912E+02  0.23934514938E+03  0.17300000000E+03 0.  1.
<mgrwt>
<rscale>  2 0.23060522E+03</rscale>
<asrwt>0</asrwt>
<pdfrwt beam="1">  1       21 0.83807240E-01 0.23060522E+03</pdfrwt>
<pdfrwt beam="2">  1       21 0.18685301E-01 0.23060522E+03</pdfrwt>
<totfact> 0.31780214E+04</totfact>
</mgrwt>
</event>
<event>
 4    1  0.4053645E-001  0.2349395E+03  0.7546771E-02  0.1123211E+00
         21   -1    0    0  501  502  0.00000000000E+00  0.00000000000E+00  0.11135632669E+03  0.11135632669E+03  0.00000000000E+00 0.  1.
         21   -1    0    0  502  503 -0.00000000000E+00 -0.00000000000E+00 -0.49878150753E+03  0.49878150753E+03  0.00000000000E+00 0.  1.
          6    1    1    2  501    0  0.14712827782E+03 -0.60173483683E+02 -0.21778721412E+03  0.32035581610E+03  0.17300000000E+03 0.  1.
         -6    1    1    2    0  503 -0.14712827782E+03  0.60173483683E+02 -0.16963796671E+03  0.28978201812E+03  0.17300000000E+03 0.  1.
<mgrwt>
<rscale>  2 0.23493952E+03</rscale>
<asrwt>0</asrwt>
<pdfrwt beam="1">  1       21 0.17131742E-01 0.23493952E+03</pdfrwt>
<pdfrwt beam="2">  1       21 0.76735619E-01 0.23493952E+03</pdfrwt>
<totfact> 0.45528991E+04</totfact>
</mgrwt>
</event>
<event>
 4    1  0.4053645E-001  0.1754712E+03  0.7546771E-02  0.1172259E+00
         21   -1    0    0  503  502  0.00000000000E+00  0.00000000000E+00  0.70383199935E+03  0.70383199935E+03  0.00000000000E+00 0. -1.
         21   -1    0    0  501  503 -0.00000000000E+00 -0.00000000000E+00 -0.53813072627E+02  0.53813072627E+02  0.00000000000E+00 0. -1.
          6    1    1    2  501    0 -0.71136255203E+01 -0.28470172014E+02  0.16116426656E+03  0.23825212523E+03  0.17300000000E+03 0. -1.
         -6    1    1    2    0  502  0.71136255203E+01  0.28470172014E+02  0.48885466016E+03  0.51939294674E+03  0.17300000000E+03 0. -1.
<mgrwt>
<rscale>  2 0.17547124E+03</rscale>
<asrwt>0</asrwt>
<pdfrwt beam="1">  1       21 0.10828184E+00 0.17547124E+03</pdfrwt>
<pdfrwt beam="2">  1       21 0.82789348E-02 0.17547124E+03</pdfrwt>
<totfact> 0.77297169E+04</totfact>
</mgrwt>
</event>
<event>
 4    1  0.4053645E-001  0.1786599E+03  0.7546771E-02  0.1169106E+00
         21   -1    0    0  501  502  0.00000000000E+00  0.00000000000E+00  0.22502821465E+04  0.22502821465E+04  0.00000000000E+00 0.  1.
         21   -1    0    0  502  503 -0.00000000000E+00 -0.00000000000E+00 -0.14185880436E+02  0.14185880436E+02  0.00000000000E+00 0.  1.
          6    1    1    2  501    0 -0.37273681551E+02  0.24515851473E+02  0.11288009689E+04  0.11428521259E+04  0.17300000000E+03 0.  1.
         -6    1    1    2    0  503  0.37273681551E+02 -0.24515851473E+02  0.11072952972E+04  0.11216159010E+04  0.17300000000E+03 0.  1.
<mgrwt>
<rscale>  2 0.17865988E+03</rscale>
<asrwt>0</asrwt>
<pdfrwt beam="1">  1       21 0.34619697E+00 0.17865988E+03</pdfrwt>
<pdfrwt beam="2">  1       21 0.21824449E-02 0.17865988E+03</pdfrwt>
<totfact> 0.19976132E+04</totfact>
</mgrwt>
</event>
<event>
 4    1  0.4053645E-001  0.1761816E+03  0.7546771E-02  0.1171551E+00
         21   -1    0    0  503  502  0.00000000000E+00  0.00000000000E+00  0.36693122337E+03  0.36693122337E+03  0.00000000000E+00 0. -1.
         21   -1    0    0  501  503 -0.00000000000E+00 -0.00000000000E+00 -0.13937466487E+03  0.13937466487E+03  0.00000000000E+00 0. -1.
          6    1    1    2  501    0  0.31498179501E+02  0.10899931067E+02 -0.44932807161E+02  0.18182106855E+03  0.17300000000E+03 0.  1.
         -6    1    1    2    0  502 -0.31498179501E+02 -0.10899931067E+02  0.27248936566E+03  0.32448481969E+03  0.17300000000E+03 0.  1.
<mgrwt>
<rscale>  2 0.17618156E+03</rscale>
<asrwt>0</asrwt>
<pdfrwt beam="1">  1       21 0.56450957E-01 0.17618156E+03</pdfrwt>
<pdfrwt beam="2">  1       21 0.21442256E-01 0.17618156E+03</pdfrwt>
<totfact> 0.60244898E+04</totfact>
</mgrwt>
</event>
<event>
 4    1  0.4053645E-001  0.2243032E+03  0.7546771E-02  0.1130715E+00
         21   -1    0    0  503  502  0.00000000000E+00  0.00000000000E+00  0.59440031464E+02  0.59440031464E+02  0.00000000000E+00 0. -1.
         21   -1    0    0  501  503 -0.00000000000E+00 -0.00000000000E+00 -0.90948660548E+03  0.90948660548E+03  0.00000000000E+00 0. -1.
          6    1    1    2  501    0  0.11341151249E+03  0.86722229974E+02 -0.55258572073E+03  0.59637479414E+03  0.17300000000E+03 0. -1.
         -6    1    1    2    0  502 -0.11341151249E+03 -0.86722229974E+02 -0.29746085329E+03  0.37255184280E+03  0.17300000000E+03 0. -1.
<mgrwt>
<rscale>  2 0.22430318E+03</rscale>
<asrwt>0</asrwt>
<pdfrwt beam="1">  1       21 0.91446208E-02 0.22430318E+03</pdfrwt>
<pdfrwt beam="2">  1       21 0.13992101E+00 0.22430318E+03</pdfrwt>
<totfact> 0.33421730E+04</totfact>
</mgrwt>
</event>
<event>
 4    1  0.4053645E-001  0.2009791E+03  0.7546771E-02  0.1148916E+00
         21   -1    0    0  501  502  0.00000000000E+00  0.00000000000E+00  0.34175276557E+03  0.34175276557E+03  0.00000000000E+00 0.  1.
         21   -1    0    0  502  503 -0.00000000000E+00 -0.00000000000E+00 -0.11891636815E+03  0.11891636815E+03  0.00000000000E+00 0.  1.
          6    1    1    2  501    0 -0.45274734623E+02 -0.91726712022E+02  0.12938983998E+03  0.23902786864E+03  0.17300000000E+03 0.  1.
         -6    1    1    2    0  503  0.45274734623E+02  0.91726712022E+02  0.93446557430E+02  0.22164126509E+03  0.17300000000E+03 0.  1.
<mgrwt>
<rscale>  2 0.20097908E+03</rscale>
<asrwt>0</asrwt>
<pdfrwt beam="1">  1       21 0.52577348E-01 0.20097908E+03</pdfrwt>
<pdfrwt beam="2">  1       21 0.18294826E-01 0.20097908E+03</pdfrwt>
<totfact> 0.93124092E+04</totfact>
</mgrwt>
</event>
<event>
 4    1  0.4053645E-001  0.2977008E+03  0.7546771E-02  0.1086396E+00
         21   -1    0    0  503  502  0.00000000000E+00  0.00000000000E+00  0.16891886575E+03  0.16891886575E+03  0.00000000000E+00 0. -1.
         21   -1    0    0  501  503 -0.00000000000E+00 -0.00000000000E+00 -0.52498542700E+03  0.52498542700E+03  0.00000000000E+00 0.  1.
          6    1    1    2  501    0  0.23785909146E+03 -0.46041226991E+02 -0.18661076820E+03  0.35135355524E+03  0.17300000000E+03 0.  1.
         -6    1    1    2    0  502 -0.23785909146E+03  0.46041226991E+02 -0.16945579305E+03  0.34255073751E+03  0.17300000000E+03 0.  1.
<mgrwt>
<rscale>  2 0.29770076E+03</rscale>
<asrwt>0</asrwt>
<pdfrwt beam="1">  1       21 0.25987518E-01 0.29770076E+03</pdfrwt>
<pdfrwt beam="2">  1       21 0.80766988E-01 0.29770076E+03</pdfrwt>
<totfact> 0.17938496E+04</totfact>
</mgrwt>
</event>
<event>
 4    1  0.4053645E-001  0.2448042E+03  0.7546771E-02  0.1116633E+00
         21   -1    0    0  501  502  0.00000000000E+00  0.00000000000E+00  0.70160197989E+03  0.70160197989E+03  0.00000000000E+00 0. -1.
         21   -1    0    0  502  503 -0.00000000000E+00 -0.00000000000E+00 -0.85422898085E+02  0.85422898085E+02  0.00000000000E+00 0. -1.
          6    1    1    2  501    0 -0.13734028005E+03 -0.10553561183E+03  0.31120498379E+03  0.39595158773E+03  0.17300000000E+03 0. -1.
         -6    1    1    2    0  503  0.13734028005E+03  0.10553561183E+03  0.30497409801E+03  0.39107329025E+03  0.17300000000E+03 0. -1.
<mgrwt>
<rscale>  2 0.24480424E+03</rscale>
<asrwt>0</asrwt>
<pdfrwt beam="1">  1       21 0.10793876E+00 0.24480424E+03</pdfrwt>
<pdfrwt beam="2">  1       21 0.13141985E-01 0.24480424E+03</pdfrwt>
<totfact> 0.33161303E+04</totfact>
</mgrwt>
</event>
<event>
 4    1  0.4053645E-001  0.2446757E+03  0.7546771E-02  0.1116717E+00
         21   -1    0    0  501  502  0.00000000000E+00  0.00000000000E+00  0.65035883879E+02  0.65035883879E+02  0.00000000000E+00 0. -1.
         21   -1    0    0  502  503 -0.00000000000E+00 -0.00000000000E+00 -0.92409965706E+03  0.92409965706E+03  0.00000000000E+00 0. -1.
          6    1    1    2  501    0  0.14777571047E+03  0.89997407307E+02 -0.46035534033E+03  0.52133792620E+03  0.17300000000E+03 0. -1.
         -6    1    1    2    0  503 -0.14777571047E+03 -0.89997407307E+02 -0.39870843286E+03  0.46779761474E+03  0.17300000000E+03 0. -1.
<mgrwt>
<rscale>  2 0.24467569E+03</rscale>
<asrwt>0</asrwt>
<pdfrwt beam="1">  1       21 0.10005521E-01 0.24467569E+03</pdfrwt>
<pdfrwt beam="2">  1       21 0.14216918E+00 0.24467569E+03</pdfrwt>
<totfact> 0.27050530E+04</totfact>
</mgrwt>
</event>
<event>
 4    1  0.4053645E-001  0.2137532E+03  0.7546771E-02  0.1138628E+00
         21   -1    0    0  501  502  0.00000000000E+00  0.00000000000E+00  0.14120929953E+04  0.14120929953E+04  0.00000000000E+00 0.  1.
         21   -1    0    0  502  503 -0.00000000000E+00 -0.00000000000E+00 -0.69385075911E+02  0.69385075911E+02  0.00000000000E+00 0.  1.
          6    1    1    2  501    0 -0.12446744208E+03 -0.16409317850E+02  0.12124827090E+04  0.12311802181E+04  0.17300000000E+03 0.  1.
         -6    1    1    2    0  503  0.12446744208E+03  0.16409317850E+02  0.13022521041E+03  0.25029785312E+03  0.17300000000E+03 0.  1.
<mgrwt>
<rscale>  2 0.21375315E+03</rscale>
<asrwt>0</asrwt>
<pdfrwt beam="1">  1       21 0.21724505E+00 0.21375315E+03</pdfrwt>
<pdfrwt beam="2">  1       21 0.10674628E-01 0.21375315E+03</pdfrwt>
<totfact> 0.74213906E+03</totfact>
</mgrwt>
</event>
<event>
 4    1  0.4053645E-001  0.2103132E+03  0.7546771E-02  0.1141318E+00
         21   -1    0    0  503  502  0.00000000000E+00  0.00000000000E+00  0.94206072479E+02  0.94206072479E+02  0.00000000000E+00 0.  1.
         21   -1    0    0  501  503 -0.00000000000E+00 -0.00000000000E+00 -0.51515870803E+03  0.51515870803E+03  0.00000000000E+00 0. -1.
          6    1    1    2  501    0 -0.82810771349E+02  0.86284423748E+02 -0.30116309800E+03  0.36732933075E+03  0.17300000000E+03 0. -1.
         -6    1    1    2    0  502  0.82810771349E+02 -0.86284423748E+02 -0.11978953755E+03  0.24203544976E+03  0.17300000000E+03 0.  1.
<mgrwt>
<rscale>  2 0.21031316E+03</rscale>
<asrwt>0</asrwt>
<pdfrwt beam="1">  1       21 0.14493242E-01 0.21031316E+03</pdfrwt>
<pdfrwt beam="2">  1       21 0.79255187E-01 0.21031316E+03</pdfrwt>
<totfact> 0.58166472E+04</totfact>
</mgrwt>
</event>
<event>
 4    1  0.4053645E-001  0.1866353E+03  0.7546771E-02  0.1161532E+00
         21   -1    0    0  501  502  0.00000000000E+00  0.00000000000E+00  0.11258504812E+03  0.11258504812E+03  0.00000000000E+00 0.  1.
         21   -1    0    0  502  503 -0.00000000000E+00 -0.00000000000E+00 -0.33977920844E+03  0.33977920844E+03  0.00000000000E+00 0.  1.
          6    1    1    2  501    0  0.19974971009E+02  0.67117403989E+02 -0.45955157971E+02  0.19220983827E+03  0.17300000000E+03 0.  1.
         -6    1    1    2    0  503 -0.19974971009E+02 -0.67117403989E+02 -0.18123900234E+03  0.26015441829E+03  0.17300000000E+03 0.  1.
<mgrwt>
<rscale>  2 0.18663533E+03</rscale>
<asrwt>0</asrwt>
<pdfrwt beam="1">  1       21 0.17320777E-01 0.18663533E+03</pdfrwt>
<pdfrwt beam="2">  1       21 0.52273724E-01 0.18663533E+03</pdfrwt>
<totfact> 0.10488321E+05</totfact>
</mgrwt>
</event>
<event>
 4    1  0.4053645E-001  0.1835865E+03  0.7546771E-02  0.1164376E+00
         21   -1    0    0  501  502  0.00000000000E+00  0.00000000000E+00  0.85275881000E+02  0.85275881000E+02  0.00000000000E+00 0. -1.
         21   -1    0    0  502  503 -0.00000000000E+00 -0.00000000000E+00 -0.40250478094E+03  0.40250478094E+03  0.00000000000E+00 0. -1.
          6    1    1    2  501    0  0.25089046212E+02 -0.56085094371E+02 -0.19139188004E+03  0.26520718277E+03  0.17300000000E+03 0. -1.
         -6    1    1    2    0  503 -0.25089046212E+02  0.56085094371E+02 -0.12583701990E+03  0.22257347917E+03  0.17300000000E+03 0. -1.
<mgrwt>
<rscale>  2 0.18358649E+03</rscale>
<asrwt>0</asrwt>
<pdfrwt beam="1">  1       21 0.13119367E-01 0.18358649E+03</pdfrwt>
<pdfrwt beam="2">  1       21 0.61923811E-01 0.18358649E+03</pdfrwt>
<totfact> 0.12144406E+05</totfact>
</mgrwt>
</event>
<event>
 4    1  0.4053645E-001  0.2686582E+03  0.7546771E-02  0.1102050E+00
         21   -1    0    0  501  502  0.00000000000E+00  0.00000000000E+00  0.18965635937E+03  0.18965635937E+03  0.00000000000E+00 0.  1.
         21   -1    0    0  502  503 -0.00000000000E+00 -0.00000000000E+00 -0.56163466712E+03  0.56163466712E+03  0.00000000000E+00 0.  1.
          6    1    1    2  501    0 -0.14082147279E+03  0.14972494982E+03  0.27300521547E+02  0.27004178616E+03  0.17300000000E+03 0.  1.
         -6    1    1    2    0  503  0.14082147279E+03 -0.14972494982E+03 -0.39927882929E+03  0.48124924033E+03  0.17300000000E+03 0.  1.
<mgrwt>
<rscale>  2 0.26865824E+03</rscale>
<asrwt>0</asrwt>
<pdfrwt beam="1">  1       21 0.29177901E-01 0.26865824E+03</pdfrwt>
<pdfrwt beam="2">  1       21 0.86405334E-01 0.26865824E+03</pdfrwt>
<totfact> 0.12418075E+04</totfact>
</mgrwt>
</event>
<event>
 4    1  0.4053645E-001  0.1773685E+03  0.7546771E-02  0.1170374E+00
         21   -1    0    0  501  502  0.00000000000E+00  0.00000000000E+00  0.72458285557E+03  0.72458285557E+03  0.00000000000E+00 0. -1.
         21   -1    0    0  502  503 -0.00000000000E+00 -0.00000000000E+00 -0.48477573420E+02  0.48477573420E+02  0.00000000000E+00 0. -1.
          6    1    1    2  501    0  0.35640012081E+02  0.16135912156E+02  0.21317309753E+03  0.27731272534E+03  0.17300000000E+03 0. -1.
         -6    1    1    2    0  503 -0.35640012081E+02 -0.16135912156E+02  0.46293218462E+03  0.49574770366E+03  0.17300000000E+03 0. -1.
<mgrwt>
<rscale>  2 0.17736848E+03</rscale>
<asrwt>0</asrwt>
<pdfrwt beam="1">  1       21 0.11147428E+00 0.17736848E+03</pdfrwt>
<pdfrwt beam="2">  1       21 0.74580887E-02 0.17736848E+03</pdfrwt>
<totfact> 0.86303287E+04</totfact>
</mgrwt>
</event>
<event>
 4    1  0.4053645E-001  0.1812904E+03  0.7546771E-02  0.1166560E+00
         21   -1    0    0  501  502  0.00000000000E+00  0.00000000000E+00  0.94874378446E+02  0.94874378446E+02  0.00000000000E+00 0.  1.
         21   -1    0    0  502  503 -0.00000000000E+00 -0.00000000000E+00 -0.34665224006E+03  0.34665224006E+03  0.00000000000E+00 0.  1.
          6    1    1    2  501    0  0.54178152636E+02  0.13885332538E+01 -0.13162658141E+03  0.22403516952E+03  0.17300000000E+03 0. -1.
         -6    1    1    2    0  503 -0.54178152636E+02 -0.13885332538E+01 -0.12015128020E+03  0.21749144899E+03  0.17300000000E+03 0. -1.
<mgrwt>
<rscale>  2 0.18129038E+03</rscale>
<asrwt>0</asrwt>
<pdfrwt beam="1">  1       21 0.14596058E-01 0.18129038E+03</pdfrwt>
<pdfrwt beam="2">  1       21 0.53331113E-01 0.18129038E+03</pdfrwt>
<totfact> 0.13775679E+05</totfact>
</mgrwt>
</event>
<event>
 4    1  0.4053645E-001  0.1893067E+03  0.7546771E-02  0.1159088E+00
         21   -1    0    0  503  502  0.00000000000E+00  0.00000000000E+00  0.72201255376E+02  0.72201255376E+02  0.00000000000E+00 0.  1.
         21   -1    0    0  501  503 -0.00000000000E+00 -0.00000000000E+00 -0.56161643976E+03  0.56161643976E+03  0.00000000000E+00 0.  1.
          6    1    1    2  501    0  0.42114505717E+02 -0.64299399546E+02 -0.35274189290E+03  0.40032972333E+03  0.17300000000E+03 0.  1.
         -6    1    1    2    0  502 -0.42114505717E+02  0.64299399546E+02 -0.13667329148E+03  0.23348797181E+03  0.17300000000E+03 0.  1.
<mgrwt>
<rscale>  2 0.18930675E+03</rscale>
<asrwt>0</asrwt>
<pdfrwt beam="1">  1       21 0.11107886E-01 0.18930675E+03</pdfrwt>
<pdfrwt beam="2">  1       21 0.86402528E-01 0.18930675E+03</pdfrwt>
<totfact> 0.77849408E+04</totfact>
</mgrwt>
</event>
<event>
 4    1  0.4053645E-001  0.2644992E+03  0.7546771E-02  0.1104470E+00
         21   -1    0    0  503  502  0.00000000000E+00  0.00000000000E+00  0.66605145710E+03  0.66605145710E+03  0.00000000000E+00 0. -1.
         21   -1    0    0  501  503 -0.00000000000E+00 -0.00000000000E+00 -0.10761906752E+03  0.10761906752E+03  0.00000000000E+00 0. -1.
          6    1    1    2  501    0  0.19889298655E+03 -0.21735419701E+02  0.33913874407E+03  0.43008712641E+03  0.17300000000E+03 0. -1.
         -6    1    1    2    0  502 -0.19889298655E+03  0.21735419701E+02  0.21929364551E+03  0.34358339821E+03  0.17300000000E+03 0. -1.
<mgrwt>
<rscale>  2 0.26449924E+03</rscale>
<asrwt>0</asrwt>
<pdfrwt beam="1">  1       21 0.10246945E+00 0.26449924E+03</pdfrwt>
<pdfrwt beam="2">  1       21 0.16556780E-01 0.26449924E+03</pdfrwt>
<totfact> 0.24422139E+04</totfact>
</mgrwt>
</event>
<event>
 4    1  0.4053645E-001  0.2199152E+03  0.7546771E-02  0.1133946E+00
         21   -1    0    0  503  502  0.00000000000E+00  0.00000000000E+00  0.33547752458E+03  0.33547752458E+03  0.00000000000E+00 0. -1.
         21   -1    0    0  501  503 -0.00000000000E+00 -0.00000000000E+00 -0.18887207798E+03  0.18887207798E+03  0.00000000000E+00 0. -1.
          6    1    1    2  501    0 -0.32052595763E+02  0.13193308024E+03 -0.54257607141E+02  0.22650959028E+03  0.17300000000E+03 0. -1.
         -6    1    1    2    0  502  0.32052595763E+02 -0.13193308024E+03  0.20086305375E+03  0.29784001228E+03  0.17300000000E+03 0. -1.
<mgrwt>
<rscale>  2 0.21991523E+03</rscale>
<asrwt>0</asrwt>
<pdfrwt beam="1">  1       21 0.51611927E-01 0.21991523E+03</pdfrwt>
<pdfrwt beam="2">  1       21 0.29057243E-01 0.21991523E+03</pdfrwt>
<totfact> 0.39885712E+04</totfact>
</mgrwt>
</event>
<event>
 4    1  0.4053645E-001  0.1996118E+03  0.7546771E-02  0.1150067E+00
         21   -1    0    0  501  502  0.00000000000E+00  0.00000000000E+00  0.92510253073E+02  0.92510253073E+02  0.00000000000E+00 0.  1.
         21   -1    0    0  502  503 -0.00000000000E+00 -0.00000000000E+00 -0.48569842278E+03  0.48569842278E+03  0.00000000000E+00 0. -1.
          6    1    1    2  501    0 -0.63565521673E+02  0.76650485082E+02 -0.99315727562E+02  0.22295400008E+03  0.17300000000E+03 0.  1.
         -6    1    1    2    0  503  0.63565521673E+02 -0.76650485082E+02 -0.29387244214E+03  0.35525467577E+03  0.17300000000E+03 0. -1.
<mgrwt>
<rscale>  2 0.19961180E+03</rscale>
<asrwt>0</asrwt>
<pdfrwt beam="1">  1       21 0.14232346E-01 0.19961180E+03</pdfrwt>
<pdfrwt beam="2">  1       21 0.74722835E-01 0.19961180E+03</pdfrwt>
<totfact> 0.68965724E+04</totfact>
</mgrwt>
</event>
<event>
 4    1  0.4053645E-001  0.1780187E+03  0.7546771E-02  0.1169734E+00
         21   -1    0    0  503  502  0.00000000000E+00  0.00000000000E+00  0.71345806817E+03  0.71345806817E+03  0.00000000000E+00 0.  1.
         21   -1    0    0  501  503 -0.00000000000E+00 -0.00000000000E+00 -0.56171559422E+02  0.56171559422E+02  0.00000000000E+00 0. -1.
          6    1    1    2  501    0 -0.40450557582E+02  0.11198856454E+02  0.15261963148E+03  0.23448542366E+03  0.17300000000E+03 0. -1.
         -6    1    1    2    0  502  0.40450557582E+02 -0.11198856454E+02  0.50466687726E+03  0.53514420393E+03  0.17300000000E+03 0.  1.
<mgrwt>
<rscale>  2 0.17801871E+03</rscale>
<asrwt>0</asrwt>
<pdfrwt beam="1">  1       21 0.10976277E+00 0.17801871E+03</pdfrwt>
<pdfrwt beam="2">  1       21 0.86417789E-02 0.17801871E+03</pdfrwt>
<totfact> 0.69333991E+04</totfact>
</mgrwt>
</event>
<event>
 4    1  0.4053645E-001  0.1902030E+03  0.7546771E-02  0.1158278E+00
         21   -1    0    0  501  502  0.00000000000E+00  0.00000000000E+00  0.66938687745E+03  0.66938687745E+03  0.00000000000E+00 0.  1.
         21   -1    0    0  502  503 -0.00000000000E+00 -0.00000000000E+00 -0.78849142631E+02  0.78849142631E+02  0.00000000000E+00 0.  1.
          6    1    1    2  501    0  0.78982326104E+02 -0.31598397062E+01  0.50509998885E+03  0.53972510703E+03  0.17300000000E+03 0.  1.
         -6    1    1    2    0  503 -0.78982326104E+02  0.31598397062E+01  0.85437745965E+02  0.20851091305E+03  0.17300000000E+03 0.  1.
<mgrwt>
<rscale>  2 0.19020303E+03</rscale>
<asrwt>0</asrwt>
<pdfrwt beam="1">  1       21 0.10298259E+00 0.19020303E+03</pdfrwt>
<pdfrwt beam="2">  1       21 0.12130638E-01 0.19020303E+03</pdfrwt>
<totfact> 0.44108992E+04</totfact>
</mgrwt>
</event>
<event>
 4    1  0.4053645E-001  0.1833722E+03  0.7546771E-02  0.1164579E+00
         21   -1    0    0  503  502  0.00000000000E+00  0.00000000000E+00  0.86137084013E+02  0.86137084013E+02  0.00000000000E+00 0. -1.
         21   -1    0    0  501  503 -0.00000000000E+00 -0.00000000000E+00 -0.39318253063E+03  0.39318253063E+03  0.00000000000E+00 0. -1.
          6    1    1    2  501    0 -0.35047523190E+02  0.49679297157E+02 -0.13325422067E+03  0.22667608779E+03  0.17300000000E+03 0. -1.
         -6    1    1    2    0  502  0.35047523190E+02 -0.49679297157E+02 -0.17379122595E+03  0.25264352686E+03  0.17300000000E+03 0. -1.
<mgrwt>
<rscale>  2 0.18337219E+03</rscale>
<asrwt>0</asrwt>
<pdfrwt beam="1">  1       21 0.13251859E-01 0.18337219E+03</pdfrwt>
<pdfrwt beam="2">  1       21 0.60489620E-01 0.18337219E+03</pdfrwt>
<totfact> 0.12544345E+05</totfact>
</mgrwt>
</event>
<event>
 4    1  0.4053645E-001  0.2126698E+03  0.7546771E-02  0.1139469E+00
         21   -1    0    0  501  502  0.00000000000E+00  0.00000000000E+00  0.31661098758E+02  0.31661098758E+02  0.00000000000E+00 0. -1.
         21   -1    0    0  502  503 -0.00000000000E+00 -0.00000000000E+00 -0.17556073152E+04  0.17556073152E+04  0.00000000000E+00 0.  1.
          6    1    1    2  501    0  0.61341689881E+01 -0.12353870710E+03 -0.47624661643E+03  0.52157384889E+03  0.17300000000E+03 0. -1.
         -6    1    1    2    0  503 -0.61341689881E+01  0.12353870710E+03 -0.12476996000E+04  0.12656945651E+04  0.17300000000E+03 0.  1.
<mgrwt>
<rscale>  2 0.21266979E+03</rscale>
<asrwt>0</asrwt>
<pdfrwt beam="1">  1       21 0.48709385E-02 0.21266979E+03</pdfrwt>
<pdfrwt beam="2">  1       21 0.27009342E+00 0.21266979E+03</pdfrwt>
<totfact> 0.14011851E+04</totfact>
</mgrwt>
</event>
<event>
 4    1  0.4053645E-001  0.2351687E+03  0.7546771E-02  0.1123054E+00
         21   -1    0    0  501  502  0.00000000000E+00  0.00000000000E+00  0.19039370122E+03  0.19039370122E+03  0.00000000000E+00 0. -1.
         21   -1    0    0  502  503 -0.00000000000E+00 -0.00000000000E+00 -0.29063386342E+03  0.29063386342E+03  0.00000000000E+00 0. -1.
          6    1    1    2  501    0 -0.15920853589E+03  0.52880632283E+01 -0.55770005992E+02  0.24169115640E+03  0.17300000000E+03 0. -1.
         -6    1    1    2    0  503  0.15920853589E+03 -0.52880632283E+01 -0.44470156212E+02  0.23933640824E+03  0.17300000000E+03 0. -1.
<mgrwt>
<rscale>  2 0.23516871E+03</rscale>
<asrwt>0</asrwt>
<pdfrwt beam="1">  1       21 0.29291339E-01 0.23516871E+03</pdfrwt>
<pdfrwt beam="2">  1       21 0.44712902E-01 0.23516871E+03</pdfrwt>
<totfact> 0.52578368E+04</totfact>
</mgrwt>
</event>
<event>
 4    1  0.4053645E-001  0.2870183E+03  0.7546771E-02  0.1091916E+00
         21   -1    0    0  503  502  0.00000000000E+00  0.00000000000E+00  0.10079157590E+04  0.10079157590E+04  0.00000000000E+00 0.  1.
         21   -1    0    0  501  503 -0.00000000000E+00 -0.00000000000E+00 -0.87391079425E+02  0.87391079425E+02  0.00000000000E+00 0. -1.
          6    1    1    2  501    0 -0.19958321599E+03 -0.11232568901E+03  0.32090680640E+03  0.43053536314E+03  0.17300000000E+03 0. -1.
         -6    1    1    2    0  502  0.19958321599E+03  0.11232568901E+03  0.59961787313E+03  0.66477147524E+03  0.17300000000E+03 0.  1.
<mgrwt>
<rscale>  2 0.28701833E+03</rscale>
<asrwt>0</asrwt>
<pdfrwt beam="1">  1       21 0.15506395E+00 0.28701833E+03</pdfrwt>
<pdfrwt beam="2">  1       21 0.13444782E-01 0.28701833E+03</pdfrwt>
<totfact> 0.12354212E+04</totfact>
</mgrwt>
</event>
<event>
 4    1  0.4053645E-001  0.1775759E+03  0.7546771E-02  0.1170170E+00
         21   -1    0    0  501  502  0.00000000000E+00  0.00000000000E+00  0.45846282042E+03  0.45846282042E+03  0.00000000000E+00 0.  1.
         21   -1    0    0  502  503 -0.00000000000E+00 -0.00000000000E+00 -0.70334881995E+02  0.70334881995E+02  0.00000000000E+00 0.  1.
          6    1    1    2  501    0 -0.36733349369E+02  0.15963839327E+02  0.23337272409E+03  0.29325076551E+03  0.17300000000E+03 0.  1.
         -6    1    1    2    0  503  0.36733349369E+02 -0.15963839327E+02  0.15475521434E+03  0.23554693691E+03  0.17300000000E+03 0.  1.
<mgrwt>
<rscale>  2 0.17757585E+03</rscale>
<asrwt>0</asrwt>
<pdfrwt beam="1">  1       21 0.70532740E-01 0.17757585E+03</pdfrwt>
<pdfrwt beam="2">  1       21 0.10820751E-01 0.17757585E+03</pdfrwt>
<totfact> 0.12927261E+05</totfact>
</mgrwt>
</event>
<event>
 4    1  0.4053645E-001  0.2095182E+03  0.7546771E-02  0.1141948E+00
         21   -1    0    0  503  502  0.00000000000E+00  0.00000000000E+00  0.13902614648E+03  0.13902614648E+03  0.00000000000E+00 0. -1.
         21   -1    0    0  501  503 -0.00000000000E+00 -0.00000000000E+00 -0.33469513990E+03  0.33469513990E+03  0.00000000000E+00 0. -1.
          6    1    1    2  501    0 -0.11561137867E+03  0.24553399488E+02 -0.15418371254E+03  0.26013549838E+03  0.17300000000E+03 0. -1.
         -6    1    1    2    0  502  0.11561137867E+03 -0.24553399488E+02 -0.41485280872E+02  0.21358578800E+03  0.17300000000E+03 0. -1.
<mgrwt>
<rscale>  2 0.20951816E+03</rscale>
<asrwt>0</asrwt>
<pdfrwt beam="1">  1       21 0.21388638E-01 0.20951816E+03</pdfrwt>
<pdfrwt beam="2">  1       21 0.51491560E-01 0.20951816E+03</pdfrwt>
<totfact> 0.72399165E+04</totfact>
</mgrwt>
</event>
<event>
 4    1  0.4053645E-001  0.1773743E+03  0.7546771E-02  0.1170369E+00
         21   -1    0    0  501  502  0.00000000000E+00  0.00000000000E+00  0.98163310562E+02  0.98163310562E+02  0.00000000000E+00 0. -1.
         21   -1    0    0  502  503 -0.00000000000E+00 -0.00000000000E+00 -0.33159003516E+03  0.33159003516E+03  0.00000000000E+00 0. -1.
          6    1    1    2  501    0  0.44282032322E+01  0.38897535713E+02 -0.77421926871E+02  0.19353496332E+03  0.17300000000E+03 0. -1.
         -6    1    1    2    0  503 -0.44282032322E+01 -0.38897535713E+02 -0.15600479772E+03  0.23621838239E+03  0.17300000000E+03 0. -1.
<mgrwt>
<rscale>  2 0.17737426E+03</rscale>
<asrwt>0</asrwt>
<pdfrwt beam="1">  1       21 0.15102047E-01 0.17737426E+03</pdfrwt>
<pdfrwt beam="2">  1       21 0.51013853E-01 0.17737426E+03</pdfrwt>
<totfact> 0.14230597E+05</totfact>
</mgrwt>
</event>
<event>
 4    1  0.4053645E-001  0.1999670E+03  0.7546771E-02  0.1149767E+00
         21   -1    0    0  503  502  0.00000000000E+00  0.00000000000E+00  0.28250129410E+02  0.28250129410E+02  0.00000000000E+00 0. -1.
         21   -1    0    0  501  503 -0.00000000000E+00 -0.00000000000E+00 -0.14167653195E+04  0.14167653195E+04  0.00000000000E+00 0.  1.
          6    1    1    2  501    0  0.99851120855E+02  0.93579840889E+01 -0.71622094481E+03  0.74361230489E+03  0.17300000000E+03 0.  1.
         -6    1    1    2    0  502 -0.99851120855E+02 -0.93579840889E+01 -0.67229424530E+03  0.70140314404E+03  0.17300000000E+03 0. -1.
<mgrwt>
<rscale>  2 0.19996704E+03</rscale>
<asrwt>0</asrwt>
<pdfrwt beam="1">  1       21 0.43461732E-02 0.19996704E+03</pdfrwt>
<pdfrwt beam="2">  1       21 0.21796392E+00 0.19996704E+03</pdfrwt>
<totfact> 0.35103097E+04</totfact>
</mgrwt>
</event>
<event>
 4    1  0.4053645E-001  0.2478614E+03  0.7546771E-02  0.1114664E+00
         21   -1    0    0  503  502  0.00000000000E+00  0.00000000000E+00  0.55936997661E+03  0.55936997661E+03  0.00000000000E+00 0. -1.
         21   -1    0    0  501  503 -0.00000000000E+00 -0.00000000000E+00 -0.11804491982E+03  0.11804491982E+03  0.00000000000E+00 0. -1.
          6    1    1    2  501    0 -0.87409531016E+02  0.15448575099E+03  0.13130762098E+03  0.28049414379E+03  0.17300000000E+03 0. -1.
         -6    1    1    2    0  502  0.87409531016E+02 -0.15448575099E+03  0.31001743581E+03  0.39692075264E+03  0.17300000000E+03 0. -1.
<mgrwt>
<rscale>  2 0.24786140E+03</rscale>
<asrwt>0</asrwt>
<pdfrwt beam="1">  1       21 0.86056918E-01 0.24786140E+03</pdfrwt>
<pdfrwt beam="2">  1       21 0.18160757E-01 0.24786140E+03</pdfrwt>
<totfact> 0.31276014E+04</totfact>
</mgrwt>
</event>
<event>
 4    1  0.4053645E-001  0.1761193E+03  0.7546771E-02  0.1171613E+00
         21   -1    0    0  503  502  0.00000000000E+00  0.00000000000E+00  0.97125334922E+02  0.97125334922E+02  0.00000000000E+00 0.  1.
         21   -1    0    0  501  503 -0.00000000000E+00 -0.00000000000E+00 -0.32234200252E+03  0.32234200252E+03  0.00000000000E+00 0.  1.
          6    1    1    2  501    0 -0.16508681523E+01  0.32958699359E+02 -0.92437538788E+02  0.19890374508E+03  0.17300000000E+03 0.  1.
         -6    1    1    2    0  502  0.16508681523E+01 -0.32958699359E+02 -0.13277912881E+03  0.22056359237E+03  0.17300000000E+03 0.  1.
<mgrwt>
<rscale>  2 0.17611928E+03</rscale>
<asrwt>0</asrwt>
<pdfrwt beam="1">  1       21 0.14942359E-01 0.17611928E+03</pdfrwt>
<pdfrwt beam="2">  1       21 0.49591077E-01 0.17611928E+03</pdfrwt>
<totfact> 0.15394932E+05</totfact>
</mgrwt>
</event>
<event>
 4    1  0.4053645E-001  0.2066794E+03  0.7546771E-02  0.1144223E+00
         21   -1    0    0  503  502  0.00000000000E+00  0.00000000000E+00  0.95100997750E+03  0.95100997750E+03  0.00000000000E+00 0.  1.
         21   -1    0    0  501  503 -0.00000000000E+00 -0.00000000000E+00 -0.47292873575E+02  0.47292873575E+02  0.00000000000E+00 0.  1.
          6    1    1    2  501    0  0.11293920294E+03 -0.56675655814E+01  0.33997695680E+03  0.39787022509E+03  0.17300000000E+03 0.  1.
         -6    1    1    2    0  502 -0.11293920294E+03  0.56675655814E+01  0.56374014713E+03  0.60043262598E+03  0.17300000000E+03 0.  1.
<mgrwt>
<rscale>  2 0.20667943E+03</rscale>
<asrwt>0</asrwt>
<pdfrwt beam="1">  1       21 0.14630921E+00 0.20667943E+03</pdfrwt>
<pdfrwt beam="2">  1       21 0.72758274E-02 0.20667943E+03</pdfrwt>
<totfact> 0.44785877E+04</totfact>
</mgrwt>
</event>
<event>
 4    1  0.4053645E-001  0.1845571E+03  0.7546771E-02  0.1163464E+00
         21   -1    0    0  501  502  0.00000000000E+00  0.00000000000E+00  0.74042805143E+03  0.74042805143E+03  0.00000000000E+00 0.  1.
         21   -1    0    0  502  503 -0.00000000000E+00 -0.00000000000E+00 -0.58922550098E+02  0.58922550098E+02  0.00000000000E+00 0.  1.
          6    1    1    2  501    0 -0.14502209693E+02 -0.62625860819E+02  0.52790878659E+03  0.55923966194E+03  0.17300000000E+03 0.  1.
         -6    1    1    2    0  503  0.14502209693E+02  0.62625860819E+02  0.15359671474E+03  0.24011093959E+03  0.17300000000E+03 0.  1.
<mgrwt>
<rscale>  2 0.18455707E+03</rscale>
<asrwt>0</asrwt>
<pdfrwt beam="1">  1       21 0.11391200E+00 0.18455707E+03</pdfrwt>
<pdfrwt beam="2">  1       21 0.90650083E-02 0.18455707E+03</pdfrwt>
<totfact> 0.58104006E+04</totfact>
</mgrwt>
</event>
<event>
 4    1  0.4053645E-001  0.1939642E+03  0.7546771E-02  0.1154934E+00
         21   -1    0    0  501  502  0.00000000000E+00  0.00000000000E+00  0.54747543738E+03  0.54747543738E+03  0.00000000000E+00 0. -1.
         21   -1    0    0  502  503 -0.00000000000E+00 -0.00000000000E+00 -0.68909643754E+02  0.68909643754E+02  0.00000000000E+00 0. -1.
          6    1    1    2  501    0 -0.34722380818E+02  0.80544934549E+02  0.22308537607E+03  0.29561666940E+03  0.17300000000E+03 0. -1.
         -6    1    1    2    0  503  0.34722380818E+02 -0.80544934549E+02  0.25548041756E+03  0.32076841174E+03  0.17300000000E+03 0. -1.
<mgrwt>
<rscale>  2 0.19396425E+03</rscale>
<asrwt>0</asrwt>
<pdfrwt beam="1">  1       21 0.84226988E-01 0.19396425E+03</pdfrwt>
<pdfrwt beam="2">  1       21 0.10601484E-01 0.19396425E+03</pdfrwt>
<totfact> 0.89486336E+04</totfact>
</mgrwt>
</event>
<event>
 4    1  0.4053645E-001  0.3830449E+03  0.7546771E-02  0.1049814E+00
         21   -1    0    0  501  502  0.00000000000E+00  0.00000000000E+00  0.29403959173E+03  0.29403959173E+03  0.00000000000E+00 0.  1.
         21   -1    0    0  502  503 -0.00000000000E+00 -0.00000000000E+00 -0.56481202950E+03  0.56481202950E+03  0.00000000000E+00 0. -1.
          6    1    1    2  501    0 -0.20576893047E+03 -0.27286170345E+03  0.11207608125E+02  0.38320878439E+03  0.17300000000E+03 0.  1.
         -6    1    1    2    0  503  0.20576893047E+03  0.27286170345E+03 -0.28198004590E+03  0.47564283684E+03  0.17300000000E+03 0. -1.
<mgrwt>
<rscale>  2 0.38304486E+03</rscale>
<asrwt>0</asrwt>
<pdfrwt beam="1">  1       21 0.45236860E-01 0.38304486E+03</pdfrwt>
<pdfrwt beam="2">  1       21 0.86894158E-01 0.38304486E+03</pdfrwt>
<totfact> 0.48049614E+03</totfact>
</mgrwt>
</event>
<event>
 4    1  0.4053645E-001  0.2031069E+03  0.7546771E-02  0.1147144E+00
         21   -1    0    0  503  502  0.00000000000E+00  0.00000000000E+00  0.80712775175E+03  0.80712775175E+03  0.00000000000E+00 0.  1.
         21   -1    0    0  501  503 -0.00000000000E+00 -0.00000000000E+00 -0.53041820177E+02  0.53041820177E+02  0.00000000000E+00 0.  1.
          6    1    1    2  501    0 -0.66131641751E+02 -0.83366683011E+02  0.29496728320E+03  0.35813139493E+03  0.17300000000E+03 0.  1.
         -6    1    1    2    0  502  0.66131641751E+02  0.83366683011E+02  0.45911864838E+03  0.50203817700E+03  0.17300000000E+03 0.  1.
<mgrwt>
<rscale>  2 0.20310686E+03</rscale>
<asrwt>0</asrwt>
<pdfrwt beam="1">  1       21 0.12417349E+00 0.20310686E+03</pdfrwt>
<pdfrwt beam="2">  1       21 0.81602806E-02 0.20310686E+03</pdfrwt>
<totfact> 0.55918420E+04</totfact>
</mgrwt>
</event>
<event>
 4    1  0.4053645E-001  0.1733070E+03  0.7546771E-02  0.1174442E+00
         21   -1    0    0  503  502  0.00000000000E+00  0.00000000000E+00  0.18196930768E+03  0.18196930768E+03  0.00000000000E+00 0. -1.
         21   -1    0    0  501  503 -0.00000000000E+00 -0.00000000000E+00 -0.17050986952E+03  0.17050986952E+03  0.00000000000E+00 0. -1.
          6    1    1    2  501    0  0.14495246941E+01  0.10208717570E+02 -0.25786843992E+02  0.17521495473E+03  0.17300000000E+03 0. -1.
         -6    1    1    2    0  502 -0.14495246941E+01 -0.10208717570E+02  0.37246282143E+02  0.17726422248E+03  0.17300000000E+03 0. -1.
<mgrwt>
<rscale>  2 0.17330701E+03</rscale>
<asrwt>0</asrwt>
<pdfrwt beam="1">  1       21 0.27995278E-01 0.17330701E+03</pdfrwt>
<pdfrwt beam="2">  1       21 0.26232288E-01 0.17330701E+03</pdfrwt>
<totfact> 0.16936688E+05</totfact>
</mgrwt>
</event>
<event>
 4    1  0.4053645E-001  0.1812388E+03  0.7546771E-02  0.1166610E+00
         21   -1    0    0  501  502  0.00000000000E+00  0.00000000000E+00  0.97117242213E+02  0.97117242213E+02  0.00000000000E+00 0.  1.
         21   -1    0    0  502  503 -0.00000000000E+00 -0.00000000000E+00 -0.33824490999E+03  0.33824490999E+03  0.00000000000E+00 0.  1.
          6    1    1    2  501    0  0.24808761094E+02 -0.47989737861E+02 -0.12222946404E+03  0.21860359431E+03  0.17300000000E+03 0.  1.
         -6    1    1    2    0  503 -0.24808761094E+02  0.47989737861E+02 -0.11889820374E+03  0.21675855789E+03  0.17300000000E+03 0.  1.
<mgrwt>
<rscale>  2 0.18123876E+03</rscale>
<asrwt>0</asrwt>
<pdfrwt beam="1">  1       21 0.14941114E-01 0.18123876E+03</pdfrwt>
<pdfrwt beam="2">  1       21 0.52037679E-01 0.18123876E+03</pdfrwt>
<totfact> 0.13901660E+05</totfact>
</mgrwt>
</event>
<event>
 4    1  0.4053645E-001  0.2457621E+03  0.7546771E-02  0.1116013E+00
         21   -1    0    0  503  502  0.00000000000E+00  0.00000000000E+00  0.29004761395E+04  0.29004761395E+04  0.00000000000E+00 0.  1.
         21   -1    0    0  501  503 -0.00000000000E+00 -0.00000000000E+00 -0.27749882156E+02  0.27749882156E+02  0.00000000000E+00 0.  1.
          6    1    1    2  501    0 -0.81653560123E+02  0.15428124604E+03  0.70490903896E+03  0.74652244438E+03  0.17300000000E+03 0.  1.
         -6    1    1    2    0  502  0.81653560123E+02 -0.15428124604E+03  0.21678172184E+04  0.21817035773E+04  0.17300000000E+03 0.  1.
<mgrwt>
<rscale>  2 0.24576209E+03</rscale>
<asrwt>0</asrwt>
<pdfrwt beam="1">  1       21 0.44622686E+00 0.24576209E+03</pdfrwt>
<pdfrwt beam="2">  1       21 0.42692149E-02 0.24576209E+03</pdfrwt>
<totfact> 0.14395230E+03</totfact>
</mgrwt>
</event>
<event>
 4    1  0.4053645E-001  0.1923367E+03  0.7546771E-02  0.1156370E+00
         21   -1    0    0  501  502  0.00000000000E+00  0.00000000000E+00  0.25966657976E+03  0.25966657976E+03  0.00000000000E+00 0.  1.
         21   -1    0    0  502  503 -0.00000000000E+00 -0.00000000000E+00 -0.14255787185E+03  0.14255787185E+03  0.00000000000E+00 0.  1.
          6    1    1    2  501    0 -0.30400757890E+02  0.78359493979E+02  0.53423011703E+02  0.19961822200E+03  0.17300000000E+03 0. -1.
         -6    1    1    2    0  503  0.30400757890E+02 -0.78359493979E+02  0.63685696206E+02  0.20260622961E+03  0.17300000000E+03 0. -1.
<mgrwt>
<rscale>  2 0.19233673E+03</rscale>
<asrwt>0</asrwt>
<pdfrwt beam="1">  1       21 0.39948704E-01 0.19233673E+03</pdfrwt>
<pdfrwt beam="2">  1       21 0.21931980E-01 0.19233673E+03</pdfrwt>
<totfact> 0.11727708E+05</totfact>
</mgrwt>
</event>
<event>
 4    1  0.4053645E-001  0.1755030E+03  0.7546771E-02  0.1172228E+00
         21   -1    0    0  501  502  0.00000000000E+00  0.00000000000E+00  0.30153258328E+02  0.30153258328E+02  0.00000000000E+00 0.  1.
         21   -1    0    0  502  503 -0.00000000000E+00 -0.00000000000E+00 -0.10704873136E+04  0.10704873136E+04  0.00000000000E+00 0.  1.
          6    1    1    2  501    0 -0.53346132915E+01 -0.29048909988E+02 -0.63790165632E+03  0.66160397551E+03  0.17300000000E+03 0.  1.
         -6    1    1    2    0  503  0.53346132915E+01  0.29048909988E+02 -0.40243239895E+03  0.43903659642E+03  0.17300000000E+03 0.  1.
<mgrwt>
<rscale>  2 0.17550298E+03</rscale>
<asrwt>0</asrwt>
<pdfrwt beam="1">  1       21 0.46389621E-02 0.17550298E+03</pdfrwt>
<pdfrwt beam="2">  1       21 0.16469038E+00 0.17550298E+03</pdfrwt>
<totfact> 0.71741416E+04</totfact>
</mgrwt>
</event>
<event>
 4    1  0.4053645E-001  0.2005142E+03  0.7546771E-02  0.1149306E+00
         21   -1    0    0  503  502  0.00000000000E+00  0.00000000000E+00  0.46121266752E+03  0.46121266752E+03  0.00000000000E+00 0.  1.
         21   -1    0    0  501  503 -0.00000000000E+00 -0.00000000000E+00 -0.94279261105E+02  0.94279261105E+02  0.00000000000E+00 0. -1.
          6    1    1    2  501    0 -0.88953445614E+02 -0.48623529893E+02  0.25971247642E+03  0.32811055081E+03  0.17300000000E+03 0.  1.
         -6    1    1    2    0  502  0.88953445614E+02  0.48623529893E+02  0.10722092999E+03  0.22738137781E+03  0.17300000000E+03 0. -1.
<mgrwt>
<rscale>  2 0.20051425E+03</rscale>
<asrwt>0</asrwt>
<pdfrwt beam="1">  1       21 0.70955794E-01 0.20051425E+03</pdfrwt>
<pdfrwt beam="2">  1       21 0.14504502E-01 0.20051425E+03</pdfrwt>
<totfact> 0.74722334E+04</totfact>
</mgrwt>
</event>
<event>
 4    1  0.4053645E-001  0.2097856E+03  0.7546771E-02  0.1141736E+00
         21   -1    0    0  501  502  0.00000000000E+00  0.00000000000E+00  0.28248698534E+03  0.28248698534E+03  0.00000000000E+00 0.  1.
         21   -1    0    0  502  503 -0.00000000000E+00 -0.00000000000E+00 -0.29440892605E+03  0.29440892605E+03  0.00000000000E+00 0.  1.
          6    1    1    2  501    0 -0.60130559363E+02 -0.10230019260E+03  0.19196175746E+03  0.28435774985E+03  0.17300000000E+03 0.  1.
         -6    1    1    2    0  503  0.60130559363E+02  0.10230019260E+03 -0.20388369816E+03  0.29253816153E+03  0.17300000000E+03 0.  1.
<mgrwt>
<rscale>  2 0.20978564E+03</rscale>
<asrwt>0</asrwt>
<pdfrwt beam="1">  1       21 0.43459536E-01 0.20978564E+03</pdfrwt>
<pdfrwt beam="2">  1       21 0.45293681E-01 0.20978564E+03</pdfrwt>
<totfact> 0.23562536E+04</totfact>
</mgrwt>
</event>
<event>
 4    1  0.4053645E-001  0.2422179E+03  0.7546771E-02  0.1118324E+00
         21   -1    0    0  503  502  0.00000000000E+00  0.00000000000E+00  0.13227890921E+03  0.13227890921E+03  0.00000000000E+00 0. -1.
         21   -1    0    0  501  503 -0.00000000000E+00 -0.00000000000E+00 -0.49258168698E+03  0.49258168698E+03  0.00000000000E+00 0.  1.
          6    1    1    2  501    0  0.16905672454E+03 -0.12661702101E+02 -0.27874452216E+03  0.36928038595E+03  0.17300000000E+03 0.  1.
         -6    1    1    2    0  502 -0.16905672454E+03  0.12661702101E+02 -0.81558255603E+02  0.25558021025E+03  0.17300000000E+03 0. -1.
<mgrwt>
<rscale>  2 0.24221787E+03</rscale>
<asrwt>0</asrwt>
<pdfrwt beam="1">  1       21 0.20350601E-01 0.24221787E+03</pdfrwt>
<pdfrwt beam="2">  1       21 0.75781800E-01 0.24221787E+03</pdfrwt>
<totfact> 0.33858535E+04</totfact>
</mgrwt>
</event>
<event>
 4    1  0.4053645E-001  0.2007476E+03  0.7546771E-02  0.1149110E+00
         21   -1    0    0  503  502  0.00000000000E+00  0.00000000000E+00  0.53455299016E+03  0.53455299016E+03  0.00000000000E+00 0.  1.
         21   -1    0    0  501  503 -0.00000000000E+00 -0.00000000000E+00 -0.75594883805E+02  0.75594883805E+02  0.00000000000E+00 0.  1.
          6    1    1    2  501    0  0.11183686709E+02 -0.10122026871E+03  0.24538540333E+03  0.31703882067E+03  0.17300000000E+03 0.  1.
         -6    1    1    2    0  502 -0.11183686709E+02  0.10122026871E+03  0.21357270303E+03  0.29310905330E+03  0.17300000000E+03 0.  1.
<mgrwt>
<rscale>  2 0.20074765E+03</rscale>
<asrwt>0</asrwt>
<pdfrwt beam="1">  1       21 0.82238919E-01 0.20074765E+03</pdfrwt>
<pdfrwt beam="2">  1       21 0.11629982E-01 0.20074765E+03</pdfrwt>
<totfact> 0.79889922E+04</totfact>
</mgrwt>
</event>
<event>
 4    1  0.4053645E-001  0.2338811E+03  0.7546771E-02  0.1123937E+00
         21   -1    0    0  501  502  0.00000000000E+00  0.00000000000E+00  0.13040386008E+03  0.13040386008E+03  0.00000000000E+00 0.  1.
         21   -1    0    0  502  503 -0.00000000000E+00 -0.00000000000E+00 -0.42056020334E+03  0.42056020334E+03  0.00000000000E+00 0.  1.
          6    1    1    2  501    0 -0.15430333927E+03 -0.31013930242E+02 -0.13104614363E+03  0.26809229034E+03  0.17300000000E+03 0.  1.
         -6    1    1    2    0  503  0.15430333927E+03  0.31013930242E+02 -0.15911019964E+03  0.28287177308E+03  0.17300000000E+03 0.  1.
<mgrwt>
<rscale>  2 0.23388113E+03</rscale>
<asrwt>0</asrwt>
<pdfrwt beam="1">  1       21 0.20062132E-01 0.23388113E+03</pdfrwt>
<pdfrwt beam="2">  1       21 0.64701571E-01 0.23388113E+03</pdfrwt>
<totfact> 0.49560799E+04</totfact>
</mgrwt>
</event>
<event>
 4    1  0.4053645E-001  0.3742257E+03  0.7546771E-02  0.1053089E+00
         21   -1    0    0  503  502  0.00000000000E+00  0.00000000000E+00  0.91822827612E+02  0.91822827612E+02  0.00000000000E+00 0. -1.
         21   -1    0    0  501  503 -0.00000000000E+00 -0.00000000000E+00 -0.16375443596E+04  0.16375443596E+04  0.00000000000E+00 0.  1.
          6    1    1    2  501    0  0.19592862289E+03 -0.26782053849E+03 -0.99938047496E+03  0.10671486306E+04  0.17300000000E+03 0. -1.
         -6    1    1    2    0  502 -0.19592862289E+03  0.26782053849E+03 -0.54634105704E+03  0.66221855660E+03  0.17300000000E+03 0.  1.
<mgrwt>
<rscale>  2 0.37422569E+03</rscale>
<asrwt>0</asrwt>
<pdfrwt beam="1">  1       21 0.14126590E-01 0.37422569E+03</pdfrwt>
<pdfrwt beam="2">  1       21 0.25192988E+00 0.37422569E+03</pdfrwt>
<totfact> 0.24563868E+03</totfact>
</mgrwt>
</event>
<event>
 4    1  0.4053645E-001  0.1797033E+03  0.7546771E-02  0.1168090E+00
         21   -1    0    0  501  502  0.00000000000E+00  0.00000000000E+00  0.32094555766E+03  0.32094555766E+03  0.00000000000E+00 0. -1.
         21   -1    0    0  502  503 -0.00000000000E+00 -0.00000000000E+00 -0.12878173736E+03  0.12878173736E+03  0.00000000000E+00 0. -1.
          6    1    1    2  501    0 -0.36209684407E+02 -0.32452115341E+02 -0.90726480477E+01  0.17993219272E+03  0.17300000000E+03 0. -1.
         -6    1    1    2    0  503  0.36209684407E+02  0.32452115341E+02  0.20123646834E+03  0.26979510230E+03  0.17300000000E+03 0. -1.
<mgrwt>
<rscale>  2 0.17970331E+03</rscale>
<asrwt>0</asrwt>
<pdfrwt beam="1">  1       21 0.49376239E-01 0.17970331E+03</pdfrwt>
<pdfrwt beam="2">  1       21 0.19812575E-01 0.17970331E+03</pdfrwt>
<totfact> 0.92352588E+04</totfact>
</mgrwt>
</event>
<event>
 4    1  0.4053645E-001  0.1794623E+03  0.7546771E-02  0.1168324E+00
         21   -1    0    0  501  502  0.00000000000E+00  0.00000000000E+00  0.16028428603E+03  0.16028428603E+03  0.00000000000E+00 0. -1.
         21   -1    0    0  502  503 -0.00000000000E+00 -0.00000000000E+00 -0.20921274330E+03  0.20921274330E+03  0.00000000000E+00 0.  1.
          6    1    1    2  501    0  0.17253438860E+02 -0.44497432813E+02  0.12284827866E+02  0.17988223835E+03  0.17300000000E+03 0. -1.
         -6    1    1    2    0  503 -0.17253438860E+02  0.44497432813E+02 -0.61213285134E+02  0.18961479097E+03  0.17300000000E+03 0.  1.
<mgrwt>
<rscale>  2 0.17946226E+03</rscale>
<asrwt>0</asrwt>
<pdfrwt beam="1">  1       21 0.24659121E-01 0.17946226E+03</pdfrwt>
<pdfrwt beam="2">  1       21 0.32186576E-01 0.17946226E+03</pdfrwt>
<totfact> 0.14500103E+05</totfact>
</mgrwt>
</event>
<event>
 4    1  0.4053645E-001  0.1910392E+03  0.7546771E-02  0.1157527E+00
         21   -1    0    0  503  502  0.00000000000E+00  0.00000000000E+00  0.15182914088E+03  0.15182914088E+03  0.00000000000E+00 0. -1.
         21   -1    0    0  501  503 -0.00000000000E+00 -0.00000000000E+00 -0.34858017559E+03  0.34858017559E+03  0.00000000000E+00 0. -1.
          6    1    1    2  501    0  0.16282464271E+02  0.79384276554E+02 -0.23777699427E+03  0.30501455869E+03  0.17300000000E+03 0. -1.
         -6    1    1    2    0  502 -0.16282464271E+02 -0.79384276554E+02  0.41025959566E+02  0.19539475777E+03  0.17300000000E+03 0. -1.
<mgrwt>
<rscale>  2 0.19103922E+03</rscale>
<asrwt>0</asrwt>
<pdfrwt beam="1">  1       21 0.23358330E-01 0.19103922E+03</pdfrwt>
<pdfrwt beam="2">  1       21 0.53627719E-01 0.19103922E+03</pdfrwt>
<totfact> 0.56752515E+04</totfact>
</mgrwt>
</event>
<event>
 4    1  0.4053645E-001  0.2315292E+03  0.7546771E-02  0.1125568E+00
         21   -1    0    0  501  502  0.00000000000E+00  0.00000000000E+00  0.40516179399E+03  0.40516179399E+03  0.00000000000E+00 0.  1.
         21   -1    0    0  502  503 -0.00000000000E+00 -0.00000000000E+00 -0.13297437581E+03  0.13297437581E+03  0.00000000000E+00 0.  1.
          6    1    1    2  501    0  0.93441052283E+02  0.12225195022E+03  0.15515449765E+03  0.27870896599E+03  0.17300000000E+03 0.  1.
         -6    1    1    2    0  503 -0.93441052283E+02 -0.12225195022E+03  0.11703292053E+03  0.25942720380E+03  0.17300000000E+03 0.  1.
<mgrwt>
<rscale>  2 0.23152920E+03</rscale>
<asrwt>0</asrwt>
<pdfrwt beam="1">  1       21 0.62332583E-01 0.23152920E+03</pdfrwt>
<pdfrwt beam="2">  1       21 0.20457597E-01 0.23152920E+03</pdfrwt>
<totfact> 0.51872622E+04</totfact>
</mgrwt>
</event>
<event>
 4    1  0.4053645E-001  0.1818979E+03  0.7546771E-02  0.1165979E+00
         21   -1    0    0  501  502  0.00000000000E+00  0.00000000000E+00  0.34270138804E+02  0.34270138804E+02  0.00000000000E+00 0. -1.
         21   -1    0    0  502  503 -0.00000000000E+00 -0.00000000000E+00 -0.11016566441E+04  0.11016566441E+04  0.00000000000E+00 0. -1.
          6    1    1    2  501    0  0.56141445910E+02 -0.24478968993E+01 -0.33400085492E+03  0.38032016149E+03  0.17300000000E+03 0. -1.
         -6    1    1    2    0  503 -0.56141445910E+02  0.24478968993E+01 -0.73338565040E+03  0.75560662144E+03  0.17300000000E+03 0. -1.
<mgrwt>
<rscale>  2 0.18189792E+03</rscale>
<asrwt>0</asrwt>
<pdfrwt beam="1">  1       21 0.52723306E-02 0.18189792E+03</pdfrwt>
<pdfrwt beam="2">  1       21 0.16948559E+00 0.18189792E+03</pdfrwt>
<totfact> 0.53229065E+04</totfact>
</mgrwt>
</event>
<event>
 4    1  0.4053645E-001  0.2463180E+03  0.7546771E-02  0.1115654E+00
         21   -1    0    0  503  502  0.00000000000E+00  0.00000000000E+00  0.17935904838E+03  0.17935904838E+03  0.00000000000E+00 0. -1.
         21   -1    0    0  501  503 -0.00000000000E+00 -0.00000000000E+00 -0.55322001181E+03  0.55322001181E+03  0.00000000000E+00 0.  1.
          6    1    1    2  501    0 -0.11827703063E+03 -0.12943763243E+03 -0.41524837908E+03  0.48280821554E+03  0.17300000000E+03 0.  1.
         -6    1    1    2    0  502  0.11827703063E+03  0.12943763243E+03  0.41387415657E+02  0.24977084465E+03  0.17300000000E+03 0. -1.
<mgrwt>
<rscale>  2 0.24631800E+03</rscale>
<asrwt>0</asrwt>
<pdfrwt beam="1">  1       21 0.27593700E-01 0.24631800E+03</pdfrwt>
<pdfrwt beam="2">  1       21 0.85110771E-01 0.24631800E+03</pdfrwt>
<totfact> 0.14502511E+04</totfact>
</mgrwt>
</event>
<event>
 4    1  0.4053645E-001  0.2843864E+03  0.7546771E-02  0.1093317E+00
         21   -1    0    0  503  502  0.00000000000E+00  0.00000000000E+00  0.32119617036E+03  0.32119617036E+03  0.00000000000E+00 0. -1.
         21   -1    0    0  501  503 -0.00000000000E+00 -0.00000000000E+00 -0.29885698111E+03  0.29885698111E+03  0.00000000000E+00 0. -1.
          6    1    1    2  501    0 -0.20843877902E+03 -0.86601923624E+02 -0.11185782649E+03  0.30559416081E+03  0.17300000000E+03 0. -1.
         -6    1    1    2    0  502  0.20843877902E+03  0.86601923624E+02  0.13419701574E+03  0.31445899066E+03  0.17300000000E+03 0. -1.
<mgrwt>
<rscale>  2 0.28438639E+03</rscale>
<asrwt>0</asrwt>
<pdfrwt beam="1">  1       21 0.49414796E-01 0.28438639E+03</pdfrwt>
<pdfrwt beam="2">  1       21 0.45977997E-01 0.28438639E+03</pdfrwt>
<totfact> 0.16871101E+04</totfact>
</mgrwt>
</event>
<event>
 4    1  0.4053645E-001  0.1857020E+03  0.7546771E-02  0.1162396E+00
         21   -1    0    0  501  502  0.00000000000E+00  0.00000000000E+00  0.15183818228E+04  0.15183818228E+04  0.00000000000E+00 0. -1.
         21   -1    0    0  502  503 -0.00000000000E+00 -0.00000000000E+00 -0.24824717752E+02  0.24824717752E+02  0.00000000000E+00 0. -1.
          6    1    1    2  501    0  0.66408401009E+02  0.12089576916E+02  0.97188599725E+03  0.98946835485E+03  0.17300000000E+03 0. -1.
         -6    1    1    2    0  503 -0.66408401009E+02 -0.12089576916E+02  0.52167110778E+03  0.55373818568E+03  0.17300000000E+03 0. -1.
<mgrwt>
<rscale>  2 0.18570200E+03</rscale>
<asrwt>0</asrwt>
<pdfrwt beam="1">  1       21 0.23359713E+00 0.18570200E+03</pdfrwt>
<pdfrwt beam="2">  1       21 0.38191885E-02 0.18570200E+03</pdfrwt>
<totfact> 0.35418828E+04</totfact>
</mgrwt>
</event>
<event>
 4    1  0.4053645E-001  0.2612614E+03  0.7546771E-02  0.1106388E+00
         21   -1    0    0  501  502  0.00000000000E+00  0.00000000000E+00  0.15170732667E+03  0.15170732667E+03  0.00000000000E+00 0. -1.
         21   -1    0    0  502  503 -0.00000000000E+00 -0.00000000000E+00 -0.46762494715E+03  0.46762494715E+03  0.00000000000E+00 0.  1.
          6    1    1    2  501    0 -0.34584167373E+02 -0.19269788539E+03 -0.21819821384E+03  0.34039388976E+03  0.17300000000E+03 0. -1.
         -6    1    1    2    0  503  0.34584167373E+02  0.19269788539E+03 -0.97719406648E+02  0.27893838406E+03  0.17300000000E+03 0. -1.
<mgrwt>
<rscale>  2 0.26126144E+03</rscale>
<asrwt>0</asrwt>
<pdfrwt beam="1">  1       21 0.23339589E-01 0.26126144E+03</pdfrwt>
<pdfrwt beam="2">  1       21 0.71942298E-01 0.26126144E+03</pdfrwt>
<totfact> 0.29098128E+04</totfact>
</mgrwt>
</event>
<event>
 4    1  0.4053645E-001  0.1752613E+03  0.7546771E-02  0.1172470E+00
         21   -1    0    0  503  502  0.00000000000E+00  0.00000000000E+00  0.38983352666E+03  0.38983352666E+03  0.00000000000E+00 0. -1.
         21   -1    0    0  501  503 -0.00000000000E+00 -0.00000000000E+00 -0.84084060470E+02  0.84084060470E+02  0.00000000000E+00 0. -1.
          6    1    1    2  501    0 -0.67576614753E+01 -0.27236815210E+02  0.93438706971E+02  0.19861344882E+03  0.17300000000E+03 0. -1.
         -6    1    1    2    0  502  0.67576614753E+01  0.27236815210E+02  0.21231075922E+03  0.27530413831E+03  0.17300000000E+03 0. -1.
<mgrwt>
<rscale>  2 0.17526126E+03</rscale>
<asrwt>0</asrwt>
<pdfrwt beam="1">  1       21 0.59974388E-01 0.17526126E+03</pdfrwt>
<pdfrwt beam="2">  1       21 0.12936010E-01 0.17526126E+03</pdfrwt>
<totfact> 0.13381760E+05</totfact>
</mgrwt>
</event>
<event>
 4    1  0.4053645E-001  0.1793815E+03  0.7546771E-02  0.1168403E+00
         21   -1    0    0  503  502  0.00000000000E+00  0.00000000000E+00  0.40070059379E+02  0.40070059379E+02  0.00000000000E+00 0.  1.
         21   -1    0    0  501  503 -0.00000000000E+00 -0.00000000000E+00 -0.80637276225E+03  0.80637276225E+03  0.00000000000E+00 0.  1.
          6    1    1    2  501    0 -0.11497545704E+02 -0.46005755742E+02 -0.35592903251E+03  0.39857646606E+03  0.17300000000E+03 0.  1.
         -6    1    1    2    0  502  0.11497545704E+02  0.46005755742E+02 -0.41037367037E+03  0.44786635557E+03  0.17300000000E+03 0.  1.
<mgrwt>
<rscale>  2 0.17938150E+03</rscale>
<asrwt>0</asrwt>
<pdfrwt beam="1">  1       21 0.61646247E-02 0.17938150E+03</pdfrwt>
<pdfrwt beam="2">  1       21 0.12405735E+00 0.17938150E+03</pdfrwt>
<totfact> 0.92060446E+04</totfact>
</mgrwt>
</event>
<event>
 4    1  0.4053645E-001  0.1756584E+03  0.7546771E-02  0.1172072E+00
         21   -1    0    0  503  502  0.00000000000E+00  0.00000000000E+00  0.84400928171E+03  0.84400928171E+03  0.00000000000E+00 0.  1.
         21   -1    0    0  501  503 -0.00000000000E+00 -0.00000000000E+00 -0.40468130681E+02  0.40468130681E+02  0.00000000000E+00 0. -1.
          6    1    1    2  501    0  0.17360232472E+02 -0.25009838951E+02  0.26431645791E+03  0.31736266264E+03  0.17300000000E+03 0. -1.
         -6    1    1    2    0  502 -0.17360232472E+02  0.25009838951E+02  0.53922469312E+03  0.56711474975E+03  0.17300000000E+03 0.  1.
<mgrwt>
<rscale>  2 0.17565839E+03</rscale>
<asrwt>0</asrwt>
<pdfrwt beam="1">  1       21 0.12984757E+00 0.17565839E+03</pdfrwt>
<pdfrwt beam="2">  1       21 0.62258669E-02 0.17565839E+03</pdfrwt>
<totfact> 0.80890281E+04</totfact>
</mgrwt>
</event>
<event>
 4    1  0.4053645E-001  0.1749485E+03  0.7546771E-02  0.1172783E+00
         21   -1    0    0  501  502  0.00000000000E+00  0.00000000000E+00  0.15785462614E+03  0.15785462614E+03  0.00000000000E+00 0.  1.
         21   -1    0    0  502  503 -0.00000000000E+00 -0.00000000000E+00 -0.22295125000E+03  0.22295125000E+03  0.00000000000E+00 0.  1.
          6    1    1    2  501    0  0.14817330660E+02  0.21410839468E+02  0.36190194170E+02  0.17865247686E+03  0.17300000000E+03 0. -1.
         -6    1    1    2    0  503 -0.14817330660E+02 -0.21410839468E+02 -0.10128681803E+03  0.20215339928E+03  0.17300000000E+03 0. -1.
<mgrwt>
<rscale>  2 0.17494850E+03</rscale>
<asrwt>0</asrwt>
<pdfrwt beam="1">  1       21 0.24285327E-01 0.17494850E+03</pdfrwt>
<pdfrwt beam="2">  1       21 0.34300192E-01 0.17494850E+03</pdfrwt>
<totfact> 0.13191286E+05</totfact>
</mgrwt>
</event>
<event>
 4    1  0.4053645E-001  0.1889336E+03  0.7546771E-02  0.1159427E+00
         21   -1    0    0  503  502  0.00000000000E+00  0.00000000000E+00  0.68345181730E+02  0.68345181730E+02  0.00000000000E+00 0.  1.
         21   -1    0    0  501  503 -0.00000000000E+00 -0.00000000000E+00 -0.73336500455E+03  0.73336500455E+03  0.00000000000E+00 0. -1.
          6    1    1    2  501    0 -0.60806967143E+02  0.45491019754E+02 -0.54756364934E+03  0.57924249689E+03  0.17300000000E+03 0. -1.
         -6    1    1    2    0  502  0.60806967143E+02 -0.45491019754E+02 -0.11745617348E+03  0.22246768938E+03  0.17300000000E+03 0.  1.
<mgrwt>
<rscale>  2 0.18893364E+03</rscale>
<asrwt>0</asrwt>
<pdfrwt beam="1">  1       21 0.10514644E-01 0.18893364E+03</pdfrwt>
<pdfrwt beam="2">  1       21 0.11282538E+00 0.18893364E+03</pdfrwt>
<totfact> 0.45688889E+04</totfact>
</mgrwt>
</event>
<event>
 4    1  0.4053645E-001  0.2852097E+03  0.7546771E-02  0.1092877E+00
         21   -1    0    0  501  502  0.00000000000E+00  0.00000000000E+00  0.70228247050E+03  0.70228247050E+03  0.00000000000E+00 0.  1.
         21   -1    0    0  502  503 -0.00000000000E+00 -0.00000000000E+00 -0.12826312608E+03  0.12826312608E+03  0.00000000000E+00 0.  1.
          6    1    1    2  501    0 -0.79849728243E+02 -0.21222540165E+03  0.15771158532E+03  0.32591033176E+03  0.17300000000E+03 0.  1.
         -6    1    1    2    0  503  0.79849728243E+02  0.21222540165E+03  0.41630775910E+03  0.50463526481E+03  0.17300000000E+03 0.  1.
<mgrwt>
<rscale>  2 0.28520975E+03</rscale>
<asrwt>0</asrwt>
<pdfrwt beam="1">  1       21 0.10804345E+00 0.28520975E+03</pdfrwt>
<pdfrwt beam="2">  1       21 0.19732789E-01 0.28520975E+03</pdfrwt>
<totfact> 0.15333826E+04</totfact>
</mgrwt>
</event>
<event>
 4    1  0.4053645E-001  0.2220786E+03  0.7546771E-02  0.1132343E+00
         21   -1    0    0  501  502  0.00000000000E+00  0.00000000000E+00  0.41936416686E+02  0.41936416686E+02  0.00000000000E+00 0. -1.
         21   -1    0    0  502  503 -0.00000000000E+00 -0.00000000000E+00 -0.12057525744E+04  0.12057525744E+04  0.00000000000E+00 0. -1.
          6    1    1    2  501    0  0.87924495259E+01  0.13896971722E+03 -0.67983899796E+03  0.71519224871E+03  0.17300000000E+03 0. -1.
         -6    1    1    2    0  503 -0.87924495259E+01 -0.13896971722E+03 -0.48397715974E+03  0.53249674236E+03  0.17300000000E+03 0. -1.
<mgrwt>
<rscale>  2 0.22207857E+03</rscale>
<asrwt>0</asrwt>
<pdfrwt beam="1">  1       21 0.64517570E-02 0.22207857E+03</pdfrwt>
<pdfrwt beam="2">  1       21 0.18550038E+00 0.22207857E+03</pdfrwt>
<totfact> 0.28520291E+04</totfact>
</mgrwt>
</event>
<event>
 4    1  0.4053645E-001  0.2183126E+03  0.7546771E-02  0.1135147E+00
         21   -1    0    0  501  502  0.00000000000E+00  0.00000000000E+00  0.29885762146E+03  0.29885762146E+03  0.00000000000E+00 0.  1.
         21   -1    0    0  502  503 -0.00000000000E+00 -0.00000000000E+00 -0.18207658251E+03  0.18207658251E+03  0.00000000000E+00 0. -1.
          6    1    1    2  501    0 -0.45491095399E+02 -0.12514770187E+03  0.14311245433E+03  0.26103938712E+03  0.17300000000E+03 0. -1.
         -6    1    1    2    0  503  0.45491095399E+02  0.12514770187E+03 -0.26331415380E+02  0.21989481686E+03  0.17300000000E+03 0.  1.
<mgrwt>
<rscale>  2 0.21831259E+03</rscale>
<asrwt>0</asrwt>
<pdfrwt beam="1">  1       21 0.45978096E-01 0.21831259E+03</pdfrwt>
<pdfrwt beam="2">  1       21 0.28011782E-01 0.21831259E+03</pdfrwt>
<totfact> 0.54535961E+04</totfact>
</mgrwt>
</event>
<event>
 4    1  0.4053645E-001  0.1918086E+03  0.7546771E-02  0.1156840E+00
         21   -1    0    0  501  502  0.00000000000E+00  0.00000000000E+00  0.66370795768E+02  0.66370795768E+02  0.00000000000E+00 0.  1.
         21   -1    0    0  502  503 -0.00000000000E+00 -0.00000000000E+00 -0.55764570191E+03  0.55764570191E+03  0.00000000000E+00 0. -1.
          6    1    1    2  501    0 -0.80559141475E+02 -0.19280709720E+02 -0.26974009972E+03  0.33098374951E+03  0.17300000000E+03 0. -1.
         -6    1    1    2    0  503  0.80559141475E+02  0.19280709720E+02 -0.22153480642E+03  0.29303274816E+03  0.17300000000E+03 0.  1.
<mgrwt>
<rscale>  2 0.19180855E+03</rscale>
<asrwt>0</asrwt>
<pdfrwt beam="1">  1       21 0.10210891E-01 0.19180855E+03</pdfrwt>
<pdfrwt beam="2">  1       21 0.85791648E-01 0.19180855E+03</pdfrwt>
<totfact> 0.91777870E+04</totfact>
</mgrwt>
</event>
<event>
 4    1  0.4053645E-001  0.1990025E+03  0.7546771E-02  0.1150583E+00
         21   -1    0    0  501  502  0.00000000000E+00  0.00000000000E+00  0.12723849971E+04  0.12723849971E+04  0.00000000000E+00 0.  1.
         21   -1    0    0  502  503 -0.00000000000E+00 -0.00000000000E+00 -0.31459287209E+02  0.31459287209E+02  0.00000000000E+00 0. -1.
          6    1    1    2  501    0  0.41273435609E+01  0.98264697822E+02  0.68774342881E+03  0.71595601099E+03  0.17300000000E+03 0. -1.
         -6    1    1    2    0  503 -0.41273435609E+01 -0.98264697822E+02  0.55318228109E+03  0.58788827332E+03  0.17300000000E+03 0. -1.
<mgrwt>
<rscale>  2 0.19900248E+03</rscale>
<asrwt>0</asrwt>
<pdfrwt beam="1">  1       21 0.19575150E+00 0.19900248E+03</pdfrwt>
<pdfrwt beam="2">  1       21 0.48398913E-02 0.19900248E+03</pdfrwt>
<totfact> 0.40479307E+04</totfact>
</mgrwt>
</event>
<event>
 4    1  0.4053645E-001  0.1755531E+03  0.7546771E-02  0.1172177E+00
         21   -1    0    0  503  502  0.00000000000E+00  0.00000000000E+00  0.40185594365E+03  0.40185594365E+03  0.00000000000E+00 0. -1.
         21   -1    0    0  501  503 -0.00000000000E+00 -0.00000000000E+00 -0.93875735071E+02  0.93875735071E+02  0.00000000000E+00 0. -1.
          6    1    1    2  501    0  0.14268118293E+02 -0.26197592528E+02  0.47941141267E+02  0.18198144433E+03  0.17300000000E+03 0. -1.
         -6    1    1    2    0  502 -0.14268118293E+02  0.26197592528E+02  0.26003906732E+03  0.31375023440E+03  0.17300000000E+03 0. -1.
<mgrwt>
<rscale>  2 0.17555311E+03</rscale>
<asrwt>0</asrwt>
<pdfrwt beam="1">  1       21 0.61823990E-01 0.17555311E+03</pdfrwt>
<pdfrwt beam="2">  1       21 0.14442421E-01 0.17555311E+03</pdfrwt>
<totfact> 0.10276898E+05</totfact>
</mgrwt>
</event>
<event>
 4    1  0.4053645E-001  0.2559679E+03  0.7546771E-02  0.1109590E+00
         21   -1    0    0  503  502  0.00000000000E+00  0.00000000000E+00  0.10066133321E+04  0.10066133321E+04  0.00000000000E+00 0.  1.
         21   -1    0    0  501  503 -0.00000000000E+00 -0.00000000000E+00 -0.65112299101E+02  0.65112299101E+02  0.00000000000E+00 0. -1.
          6    1    1    2  501    0  0.13691023603E+02  0.18815718021E+03  0.48086256239E+03  0.54474615419E+03  0.17300000000E+03 0.  1.
         -6    1    1    2    0  502 -0.13691023603E+02 -0.18815718021E+03  0.46063847063E+03  0.52697947704E+03  0.17300000000E+03 0. -1.
<mgrwt>
<rscale>  2 0.25596791E+03</rscale>
<asrwt>0</asrwt>
<pdfrwt beam="1">  1       21 0.15486358E+00 0.25596791E+03</pdfrwt>
<pdfrwt beam="2">  1       21 0.10017278E-01 0.25596791E+03</pdfrwt>
<totfact> 0.21392086E+04</totfact>
</mgrwt>
</event>
<event>
 4    1  0.4053645E-001  0.1952993E+03  0.7546771E-02  0.1153767E+00
         21   -1    0    0  503  502  0.00000000000E+00  0.00000000000E+00  0.22585177461E+04  0.22585177461E+04  0.00000000000E+00 0.  1.
         21   -1    0    0  501  503 -0.00000000000E+00 -0.00000000000E+00 -0.16972966301E+02  0.16972966301E+02  0.00000000000E+00 0. -1.
          6    1    1    2  501    0 -0.34737636991E+02 -0.83702412215E+02  0.12012818008E+04  0.12170537219E+04  0.17300000000E+03 0.  1.
         -6    1    1    2    0  502  0.34737636991E+02  0.83702412215E+02  0.10402629791E+04  0.10584369905E+04  0.17300000000E+03 0. -1.
<mgrwt>
<rscale>  2 0.19529925E+03</rscale>
<asrwt>0</asrwt>
<pdfrwt beam="1">  1       21 0.34746403E+00 0.19529925E+03</pdfrwt>
<pdfrwt beam="2">  1       21 0.26112274E-02 0.19529925E+03</pdfrwt>
<totfact> 0.14355331E+04</totfact>
</mgrwt>
</event>
<event>
 4    1  0.4053645E-001  0.2138443E+03  0.7546771E-02  0.1138557E+00
         21   -1    0    0  503  502  0.00000000000E+00  0.00000000000E+00  0.11204556584E+04  0.11204556584E+04  0.00000000000E+00 0.  1.
         21   -1    0    0  501  503 -0.00000000000E+00 -0.00000000000E+00 -0.43647247152E+02  0.43647247152E+02  0.00000000000E+00 0.  1.
          6    1    1    2  501    0  0.70705496064E+01  0.12550054382E+03  0.39008868480E+03  0.44485791122E+03  0.17300000000E+03 0.  1.
         -6    1    1    2    0  502 -0.70705496064E+01 -0.12550054382E+03  0.68671972650E+03  0.71924499438E+03  0.17300000000E+03 0.  1.
<mgrwt>
<rscale>  2 0.21384429E+03</rscale>
<asrwt>0</asrwt>
<pdfrwt beam="1">  1       21 0.17237777E+00 0.21384429E+03</pdfrwt>
<pdfrwt beam="2">  1       21 0.67149619E-02 0.21384429E+03</pdfrwt>
<totfact> 0.32925087E+04</totfact>
</mgrwt>
</event>
<event>
 4    1  0.4053645E-001  0.1742814E+03  0.7546771E-02  0.1173455E+00
         21   -1    0    0  503  502  0.00000000000E+00  0.00000000000E+00  0.21230243281E+03  0.21230243281E+03  0.00000000000E+00 0.  1.
         21   -1    0    0  501  503 -0.00000000000E+00 -0.00000000000E+00 -0.15253181327E+03  0.15253181327E+03  0.00000000000E+00 0.  1.
          6    1    1    2  501    0 -0.64042398082E+00  0.21085763400E+02 -0.15548823424E+02  0.17497367079E+03  0.17300000000E+03 0.  1.
         -6    1    1    2    0  502  0.64042398082E+00 -0.21085763400E+02  0.75319442965E+02  0.18986057529E+03  0.17300000000E+03 0.  1.
<mgrwt>
<rscale>  2 0.17428144E+03</rscale>
<asrwt>0</asrwt>
<pdfrwt beam="1">  1       21 0.32661913E-01 0.17428144E+03</pdfrwt>
<pdfrwt beam="2">  1       21 0.23466433E-01 0.17428144E+03</pdfrwt>
<totfact> 0.15505299E+05</totfact>
</mgrwt>
</event>
<event>
 4    1  0.4053645E-001  0.2001895E+03  0.7546771E-02  0.1149579E+00
         21   -1    0    0  503  502  0.00000000000E+00  0.00000000000E+00  0.99031297487E+02  0.99031297487E+02  0.00000000000E+00 0. -1.
         21   -1    0    0  501  503 -0.00000000000E+00 -0.00000000000E+00 -0.42151326166E+03  0.42151326166E+03  0.00000000000E+00 0. -1.
          6    1    1    2  501    0 -0.67766173395E+02 -0.74528938760E+02 -0.21325595527E+03  0.29249601609E+03  0.17300000000E+03 0. -1.
         -6    1    1    2    0  502  0.67766173395E+02  0.74528938760E+02 -0.10922600890E+03  0.22804854305E+03  0.17300000000E+03 0. -1.
<mgrwt>
<rscale>  2 0.20018945E+03</rscale>
<asrwt>0</asrwt>
<pdfrwt beam="1">  1       21 0.15235584E-01 0.20018945E+03</pdfrwt>
<pdfrwt beam="2">  1       21 0.64848195E-01 0.20018945E+03</pdfrwt>
<totfact> 0.83256523E+04</totfact>
</mgrwt>
</event>
<event>
 4    1  0.4053645E-001  0.1928010E+03  0.7546771E-02  0.1155959E+00
         21   -1    0    0  501  502  0.00000000000E+00  0.00000000000E+00  0.17133387339E+03  0.17133387339E+03  0.00000000000E+00 0.  1.
         21   -1    0    0  502  503 -0.00000000000E+00 -0.00000000000E+00 -0.21773602279E+03  0.21773602279E+03  0.00000000000E+00 0.  1.
          6    1    1    2  501    0  0.62233064365E+02 -0.58053986609E+02 -0.11570922477E+02  0.19314788611E+03  0.17300000000E+03 0. -1.
         -6    1    1    2    0  503 -0.62233064365E+02  0.58053986609E+02 -0.34831226917E+02  0.19592201007E+03  0.17300000000E+03 0. -1.
<mgrwt>
<rscale>  2 0.19280098E+03</rscale>
<asrwt>0</asrwt>
<pdfrwt beam="1">  1       21 0.26359058E-01 0.19280098E+03</pdfrwt>
<pdfrwt beam="2">  1       21 0.33497849E-01 0.19280098E+03</pdfrwt>
<totfact> 0.11748116E+05</totfact>
</mgrwt>
</event>
<event>
 4    1  0.4053645E-001  0.1819102E+03  0.7546771E-02  0.1165967E+00
         21   -1    0    0  501  502  0.00000000000E+00  0.00000000000E+00  0.71944689348E+02  0.71944689348E+02  0.00000000000E+00 0.  1.
         21   -1    0    0  502  503 -0.00000000000E+00 -0.00000000000E+00 -0.46998427613E+03  0.46998427613E+03  0.00000000000E+00 0.  1.
          6    1    1    2  501    0  0.46262937491E+02  0.31969884973E+02 -0.15943745169E+03  0.24189178145E+03  0.17300000000E+03 0.  1.
         -6    1    1    2    0  503 -0.46262937491E+02 -0.31969884973E+02 -0.23860213509E+03  0.30003718403E+03  0.17300000000E+03 0.  1.
<mgrwt>
<rscale>  2 0.18191023E+03</rscale>
<asrwt>0</asrwt>
<pdfrwt beam="1">  1       21 0.11068414E-01 0.18191023E+03</pdfrwt>
<pdfrwt beam="2">  1       21 0.72305272E-01 0.18191023E+03</pdfrwt>
<totfact> 0.11737229E+05</totfact>
</mgrwt>
</event>
<event>
 4    1  0.4053645E-001  0.2721751E+03  0.7546771E-02  0.1100041E+00
         21   -1    0    0  501  502  0.00000000000E+00  0.00000000000E+00  0.94220379692E+02  0.94220379692E+02  0.00000000000E+00 0.  1.
         21   -1    0    0  502  503 -0.00000000000E+00 -0.00000000000E+00 -0.80018266409E+03  0.80018266409E+03  0.00000000000E+00 0.  1.
          6    1    1    2  501    0 -0.18834107944E+03  0.93155365654E+02 -0.29393765764E+03  0.40059784189E+03  0.17300000000E+03 0.  1.
         -6    1    1    2    0  503  0.18834107944E+03 -0.93155365654E+02 -0.41202462676E+03  0.49380520189E+03  0.17300000000E+03 0.  1.
<mgrwt>
<rscale>  2 0.27217510E+03</rscale>
<asrwt>0</asrwt>
<pdfrwt beam="1">  1       21 0.14495443E-01 0.27217510E+03</pdfrwt>
<pdfrwt beam="2">  1       21 0.12310503E+00 0.27217510E+03</pdfrwt>
<totfact> 0.19792412E+04</totfact>
</mgrwt>
</event>
<event>
 4    1  0.4053645E-001  0.2136105E+03  0.7546771E-02  0.1138738E+00
         21   -1    0    0  503  502  0.00000000000E+00  0.00000000000E+00  0.15876208083E+04  0.15876208083E+04  0.00000000000E+00 0.  1.
         21   -1    0    0  501  503 -0.00000000000E+00 -0.00000000000E+00 -0.28750027433E+02  0.28750027433E+02  0.00000000000E+00 0. -1.
          6    1    1    2  501    0  0.60770826287E+02  0.10957806405E+03  0.76493354925E+03  0.79419945871E+03  0.17300000000E+03 0.  1.
         -6    1    1    2    0  502 -0.60770826287E+02 -0.10957806405E+03  0.79393723165E+03  0.82217137705E+03  0.17300000000E+03 0. -1.
<mgrwt>
<rscale>  2 0.21361050E+03</rscale>
<asrwt>0</asrwt>
<pdfrwt beam="1">  1       21 0.24424929E+00 0.21361050E+03</pdfrwt>
<pdfrwt beam="2">  1       21 0.44230824E-02 0.21361050E+03</pdfrwt>
<totfact> 0.23388003E+04</totfact>
</mgrwt>
</event>
<event>
 4    1  0.4053645E-001  0.1869825E+03  0.7546771E-02  0.1161211E+00
         21   -1    0    0  501  502  0.00000000000E+00  0.00000000000E+00  0.15131330865E+03  0.15131330865E+03  0.00000000000E+00 0.  1.
         21   -1    0    0  502  503 -0.00000000000E+00 -0.00000000000E+00 -0.23174172977E+03  0.23174172977E+03  0.00000000000E+00 0.  1.
          6    1    1    2  501    0 -0.31932880249E+02 -0.63354216049E+02 -0.29826759029E+02  0.18934651063E+03  0.17300000000E+03 0.  1.
         -6    1    1    2    0  503  0.31932880249E+02  0.63354216049E+02 -0.50601662088E+02  0.19370852779E+03  0.17300000000E+03 0.  1.
<mgrwt>
<rscale>  2 0.18698253E+03</rscale>
<asrwt>0</asrwt>
<pdfrwt beam="1">  1       21 0.23278971E-01 0.18698253E+03</pdfrwt>
<pdfrwt beam="2">  1       21 0.35652574E-01 0.18698253E+03</pdfrwt>
<totfact> 0.13184828E+05</totfact>
</mgrwt>
</event>
<event>
 4    1  0.4053645E-001  0.1980569E+03  0.7546771E-02  0.1151389E+00
         21   -1    0    0  501  502  0.00000000000E+00  0.00000000000E+00  0.16458576908E+03  0.16458576908E+03  0.00000000000E+00 0. -1.
         21   -1    0    0  502  503 -0.00000000000E+00 -0.00000000000E+00 -0.23925104833E+03  0.23925104833E+03  0.00000000000E+00 0. -1.
          6    1    1    2  501    0  0.69177970580E+02 -0.67170949583E+02 -0.24837569296E+02  0.19960819855E+03  0.17300000000E+03 0. -1.
         -6    1    1    2    0  503 -0.69177970580E+02  0.67170949583E+02 -0.49827709957E+02  0.20422861886E+03  0.17300000000E+03 0. -1.
<mgrwt>
<rscale>  2 0.19805688E+03</rscale>
<asrwt>0</asrwt>
<pdfrwt beam="1">  1       21 0.25320888E-01 0.19805688E+03</pdfrwt>
<pdfrwt beam="2">  1       21 0.36807853E-01 0.19805688E+03</pdfrwt>
<totfact> 0.10500377E+05</totfact>
</mgrwt>
</event>
<event>
 4    1  0.4053645E-001  0.1840716E+03  0.7546771E-02  0.1163920E+00
         21   -1    0    0  501  502  0.00000000000E+00  0.00000000000E+00  0.20969449683E+03  0.20969449683E+03  0.00000000000E+00 0.  1.
         21   -1    0    0  502  503 -0.00000000000E+00 -0.00000000000E+00 -0.16160366118E+03  0.16160366118E+03  0.00000000000E+00 0.  1.
          6    1    1    2  501    0 -0.54744268360E+02  0.30926310950E+02  0.26306513899E+02  0.18594193798E+03  0.17300000000E+03 0.  1.
         -6    1    1    2    0  503  0.54744268360E+02 -0.30926310950E+02  0.21784321753E+02  0.18535622002E+03  0.17300000000E+03 0.  1.
<mgrwt>
<rscale>  2 0.18407165E+03</rscale>
<asrwt>0</asrwt>
<pdfrwt beam="1">  1       21 0.32260692E-01 0.18407165E+03</pdfrwt>
<pdfrwt beam="2">  1       21 0.24862102E-01 0.18407165E+03</pdfrwt>
<totfact> 0.14189641E+05</totfact>
</mgrwt>
</event>
<event>
 4    1  0.4053645E-001  0.2409525E+03  0.7546771E-02  0.1119160E+00
         21   -1    0    0  501  502  0.00000000000E+00  0.00000000000E+00  0.99218899484E+03  0.99218899484E+03  0.00000000000E+00 0. -1.
         21   -1    0    0  502  503 -0.00000000000E+00 -0.00000000000E+00 -0.63490941804E+02  0.63490941804E+02  0.00000000000E+00 0. -1.
          6    1    1    2  501    0 -0.15844754333E+03 -0.54986410698E+02  0.61211541634E+03  0.65783235879E+03  0.17300000000E+03 0. -1.
         -6    1    1    2    0  503  0.15844754333E+03  0.54986410698E+02  0.31658263669E+03  0.39784757785E+03  0.17300000000E+03 0. -1.
<mgrwt>
<rscale>  2 0.24095255E+03</rscale>
<asrwt>0</asrwt>
<pdfrwt beam="1">  1       21 0.15264445E+00 0.24095255E+03</pdfrwt>
<pdfrwt beam="2">  1       21 0.97678379E-02 0.24095255E+03</pdfrwt>
<totfact> 0.23440254E+04</totfact>
</mgrwt>
</event>
<event>
 4    1  0.4053645E-001  0.1917624E+03  0.7546771E-02  0.1156881E+00
         21   -1    0    0  503  502  0.00000000000E+00  0.00000000000E+00  0.86223855966E+02  0.86223855966E+02  0.00000000000E+00 0. -1.
         21   -1    0    0  501  503 -0.00000000000E+00 -0.00000000000E+00 -0.43110521302E+03  0.43110521302E+03  0.00000000000E+00 0.  1.
          6    1    1    2  501    0 -0.12074425594E+02 -0.81841432751E+02 -0.19923097255E+03  0.27652448769E+03  0.17300000000E+03 0.  1.
         -6    1    1    2    0  502  0.12074425594E+02  0.81841432751E+02 -0.14565038451E+03  0.24080458130E+03  0.17300000000E+03 0. -1.
<mgrwt>
<rscale>  2 0.19176238E+03</rscale>
<asrwt>0</asrwt>
<pdfrwt beam="1">  1       21 0.13265209E-01 0.19176238E+03</pdfrwt>
<pdfrwt beam="2">  1       21 0.66323879E-01 0.19176238E+03</pdfrwt>
<totfact> 0.10227175E+05</totfact>
</mgrwt>
</event>
<event>
 4    1  0.4053645E-001  0.1819360E+03  0.7546771E-02  0.1165942E+00
         21   -1    0    0  503  502  0.00000000000E+00  0.00000000000E+00  0.96452122869E+03  0.96452122869E+03  0.00000000000E+00 0.  1.
         21   -1    0    0  501  503 -0.00000000000E+00 -0.00000000000E+00 -0.34844603965E+02  0.34844603965E+02  0.00000000000E+00 0.  1.
          6    1    1    2  501    0 -0.17719638029E+02 -0.53457567066E+02  0.52625108048E+03  0.55681316145E+03  0.17300000000E+03 0.  1.
         -6    1    1    2    0  502  0.17719638029E+02  0.53457567066E+02  0.40342554424E+03  0.44255267121E+03  0.17300000000E+03 0.  1.
<mgrwt>
<rscale>  2 0.18193597E+03</rscale>
<asrwt>0</asrwt>
<pdfrwt beam="1">  1       21 0.14838786E+00 0.18193597E+03</pdfrwt>
<pdfrwt beam="2">  1       21 0.53607090E-02 0.18193597E+03</pdfrwt>
<totfact> 0.73890663E+04</totfact>
</mgrwt>
</event>
<event>
 4    1  0.4053645E-001  0.2244659E+03  0.7546771E-02  0.1130597E+00
         21   -1    0    0  501  502  0.00000000000E+00  0.00000000000E+00  0.10821379652E+03  0.10821379652E+03  0.00000000000E+00 0.  1.
         21   -1    0    0  502  503 -0.00000000000E+00 -0.00000000000E+00 -0.46689387212E+03  0.46689387212E+03  0.00000000000E+00 0. -1.
          6    1    1    2  501    0 -0.10527141184E+03 -0.96818751543E+02 -0.16423479632E+03  0.27813307808E+03  0.17300000000E+03 0. -1.
         -6    1    1    2    0  503  0.10527141184E+03  0.96818751543E+02 -0.19444527928E+03  0.29697459056E+03  0.17300000000E+03 0. -1.
<mgrwt>
<rscale>  2 0.22446590E+03</rscale>
<asrwt>0</asrwt>
<pdfrwt beam="1">  1       21 0.16648276E-01 0.22446590E+03</pdfrwt>
<pdfrwt beam="2">  1       21 0.71829827E-01 0.22446590E+03</pdfrwt>
<totfact> 0.55907956E+04</totfact>
</mgrwt>
</event>
<event>
 4    1  0.4053645E-001  0.4967609E+03  0.7546771E-02  0.1014628E+00
         21   -1    0    0  501  502  0.00000000000E+00  0.00000000000E+00  0.97574708865E+02  0.97574708865E+02  0.00000000000E+00 0. -1.
         21   -1    0    0  502  503 -0.00000000000E+00 -0.00000000000E+00 -0.25830089292E+04  0.25830089292E+04  0.00000000000E+00 0. -1.
          6    1    1    2  501    0 -0.59300252410E+01 -0.46562562685E+03 -0.10490012856E+04  0.11606787182E+04  0.17300000000E+03 0. -1.
         -6    1    1    2    0  503  0.59300252410E+01  0.46562562685E+03 -0.14364329346E+04  0.15199049198E+04  0.17300000000E+03 0. -1.
<mgrwt>
<rscale>  2 0.49676090E+03</rscale>
<asrwt>0</asrwt>
<pdfrwt beam="1">  1       21 0.15011495E-01 0.49676090E+03</pdfrwt>
<pdfrwt beam="2">  1       21 0.39738597E+00 0.49676090E+03</pdfrwt>
<totfact> 0.26406881E+02</totfact>
</mgrwt>
</event>
<event>
 4    1  0.4053645E-001  0.2320883E+03  0.7546771E-02  0.1125178E+00
         21   -1    0    0  503  502  0.00000000000E+00  0.00000000000E+00  0.86096700917E+02  0.86096700917E+02  0.00000000000E+00 0.  1.
         21   -1    0    0  501  503 -0.00000000000E+00 -0.00000000000E+00 -0.63597806985E+03  0.63597806985E+03  0.00000000000E+00 0.  1.
          6    1    1    2  501    0  0.93234522568E+02  0.12346385119E+03 -0.32098572220E+03  0.39610204822E+03  0.17300000000E+03 0.  1.
         -6    1    1    2    0  502 -0.93234522568E+02 -0.12346385119E+03 -0.22889564674E+03  0.32597272255E+03  0.17300000000E+03 0.  1.
<mgrwt>
<rscale>  2 0.23208834E+03</rscale>
<asrwt>0</asrwt>
<pdfrwt beam="1">  1       21 0.13245646E-01 0.23208834E+03</pdfrwt>
<pdfrwt beam="2">  1       21 0.97842779E-01 0.23208834E+03</pdfrwt>
<totfact> 0.41641782E+04</totfact>
</mgrwt>
</event>
<event>
 4    1  0.4053645E-001  0.2014338E+03  0.7546771E-02  0.1148535E+00
         21   -1    0    0  501  502  0.00000000000E+00  0.00000000000E+00  0.32444406619E+02  0.32444406619E+02  0.00000000000E+00 0. -1.
         21   -1    0    0  502  503 -0.00000000000E+00 -0.00000000000E+00 -0.12557545788E+04  0.12557545788E+04  0.00000000000E+00 0.  1.
          6    1    1    2  501    0 -0.10314140790E+03  0.29053388270E+01 -0.57046471384E+03  0.60498395083E+03  0.17300000000E+03 0.  1.
         -6    1    1    2    0  503  0.10314140790E+03 -0.29053388270E+01 -0.65284545829E+03  0.68321503454E+03  0.17300000000E+03 0.  1.
<mgrwt>
<rscale>  2 0.20143384E+03</rscale>
<asrwt>0</asrwt>
<pdfrwt beam="1">  1       21 0.49914462E-02 0.20143384E+03</pdfrwt>
<pdfrwt beam="2">  1       21 0.19319305E+00 0.20143384E+03</pdfrwt>
<totfact> 0.39859841E+04</totfact>
</mgrwt>
</event>
<event>
 4    1  0.4053645E-001  0.2303217E+03  0.7546771E-02  0.1126414E+00
         21   -1    0    0  501  502  0.00000000000E+00  0.00000000000E+00  0.74898056806E+03  0.74898056806E+03  0.00000000000E+00 0.  1.
         21   -1    0    0  502  503 -0.00000000000E+00 -0.00000000000E+00 -0.84840229715E+02  0.84840229715E+02  0.00000000000E+00 0. -1.
          6    1    1    2  501    0 -0.64858631366E+01 -0.15191127703E+03  0.50150776312E+03  0.55186786370E+03  0.17300000000E+03 0.  1.
         -6    1    1    2    0  503  0.64858631366E+01  0.15191127703E+03  0.16263257522E+03  0.28195293407E+03  0.17300000000E+03 0.  1.
<mgrwt>
<rscale>  2 0.23032174E+03</rscale>
<asrwt>0</asrwt>
<pdfrwt beam="1">  1       21 0.11522778E+00 0.23032174E+03</pdfrwt>
<pdfrwt beam="2">  1       21 0.13052344E-01 0.23032174E+03</pdfrwt>
<totfact> 0.28826907E+04</totfact>
</mgrwt>
</event>
<event>
 4    1  0.4053645E-001  0.2185362E+03  0.7546771E-02  0.1134979E+00
         21   -1    0    0  501  502  0.00000000000E+00  0.00000000000E+00  0.22289864507E+03  0.22289864507E+03  0.00000000000E+00 0.  1.
         21   -1    0    0  502  503 -0.00000000000E+00 -0.00000000000E+00 -0.24369538142E+03  0.24369538142E+03  0.00000000000E+00 0. -1.
          6    1    1    2  501    0  0.87948543855E+02  0.10046942322E+03 -0.91480916674E+02  0.23691097375E+03  0.17300000000E+03 0. -1.
         -6    1    1    2    0  503 -0.87948543855E+02 -0.10046942322E+03  0.70684180321E+02  0.22968305274E+03  0.17300000000E+03 0. -1.
<mgrwt>
<rscale>  2 0.21853616E+03</rscale>
<asrwt>0</asrwt>
<pdfrwt beam="1">  1       21 0.34292099E-01 0.21853616E+03</pdfrwt>
<pdfrwt beam="2">  1       21 0.37491597E-01 0.21853616E+03</pdfrwt>
<totfact> 0.55558005E+04</totfact>
</mgrwt>
</event>
<event>
 4    1  0.4053645E-001  0.1771571E+03  0.7546771E-02  0.1170583E+00
         21   -1    0    0  503  502  0.00000000000E+00  0.00000000000E+00  0.91033125709E+03  0.91033125709E+03  0.00000000000E+00 0.  1.
         21   -1    0    0  501  503 -0.00000000000E+00 -0.00000000000E+00 -0.39887463400E+02  0.39887463400E+02  0.00000000000E+00 0.  1.
          6    1    1    2  501    0  0.15335309874E+02  0.34935205912E+02  0.26022510030E+03  0.31480429343E+03  0.17300000000E+03 0.  1.
         -6    1    1    2    0  502 -0.15335309874E+02 -0.34935205912E+02  0.61021869340E+03  0.63541442706E+03  0.17300000000E+03 0.  1.
<mgrwt>
<rscale>  2 0.17715711E+03</rscale>
<asrwt>0</asrwt>
<pdfrwt beam="1">  1       21 0.14005095E+00 0.17715711E+03</pdfrwt>
<pdfrwt beam="2">  1       21 0.61365335E-02 0.17715711E+03</pdfrwt>
<totfact> 0.68363910E+04</totfact>
</mgrwt>
</event>
<event>
 4    1  0.4053645E-001  0.2201598E+03  0.7546771E-02  0.1133764E+00
         21   -1    0    0  503  502  0.00000000000E+00  0.00000000000E+00  0.28577108615E+03  0.28577108615E+03  0.00000000000E+00 0. -1.
         21   -1    0    0  501  503 -0.00000000000E+00 -0.00000000000E+00 -0.16968870688E+03  0.16968870688E+03  0.00000000000E+00 0.  1.
          6    1    1    2  501    0  0.59709488423E+02  0.12237700793E+03  0.53215897875E+02  0.22650008138E+03  0.17300000000E+03 0. -1.
         -6    1    1    2    0  502 -0.59709488423E+02 -0.12237700793E+03  0.62866481403E+02  0.22895971165E+03  0.17300000000E+03 0.  1.
<mgrwt>
<rscale>  2 0.22015984E+03</rscale>
<asrwt>0</asrwt>
<pdfrwt beam="1">  1       21 0.43964783E-01 0.22015984E+03</pdfrwt>
<pdfrwt beam="2">  1       21 0.26105955E-01 0.22015984E+03</pdfrwt>
<totfact> 0.68471507E+04</totfact>
</mgrwt>
</event>
<event>
 4    1  0.4053645E-001  0.2806751E+03  0.7546771E-02  0.1095321E+00
         21   -1    0    0  501  502  0.00000000000E+00  0.00000000000E+00  0.14305348357E+03  0.14305348357E+03  0.00000000000E+00 0.  1.
         21   -1    0    0  502  503 -0.00000000000E+00 -0.00000000000E+00 -0.68181385311E+03  0.68181385311E+03  0.00000000000E+00 0. -1.
          6    1    1    2  501    0  0.21583619632E+03 -0.47584297826E+02 -0.88514011615E+02  0.29430130699E+03  0.17300000000E+03 0.  1.
         -6    1    1    2    0  503 -0.21583619632E+03  0.47584297826E+02 -0.45024635792E+03  0.53056602969E+03  0.17300000000E+03 0. -1.
<mgrwt>
<rscale>  2 0.28067513E+03</rscale>
<asrwt>0</asrwt>
<pdfrwt beam="1">  1       21 0.22008228E-01 0.28067513E+03</pdfrwt>
<pdfrwt beam="2">  1       21 0.10489444E+00 0.28067513E+03</pdfrwt>
<totfact> 0.13432818E+04</totfact>
</mgrwt>
</event>
<event>
 4    1  0.4053645E-001  0.3729738E+03  0.7546771E-02  0.1053562E+00
         21   -1    0    0  503  502  0.00000000000E+00  0.00000000000E+00  0.60081092498E+03  0.60081092498E+03  0.00000000000E+00 0.  1.
         21   -1    0    0  501  503 -0.00000000000E+00 -0.00000000000E+00 -0.26527060294E+03  0.26527060294E+03  0.00000000000E+00 0. -1.
          6    1    1    2  501    0 -0.26144114686E+03 -0.20206176531E+03  0.13343867224E+02  0.37321239136E+03  0.17300000000E+03 0. -1.
         -6    1    1    2    0  502  0.26144114686E+03  0.20206176531E+03  0.32219645482E+03  0.49286913656E+03  0.17300000000E+03 0.  1.
<mgrwt>
<rscale>  2 0.37297377E+03</rscale>
<asrwt>0</asrwt>
<pdfrwt beam="1">  1       21 0.92432450E-01 0.37297377E+03</pdfrwt>
<pdfrwt beam="2">  1       21 0.40810862E-01 0.37297377E+03</pdfrwt>
<totfact> 0.51634032E+03</totfact>
</mgrwt>
</event>
<event>
 4    1  0.4053645E-001  0.2148926E+03  0.7546771E-02  0.1137749E+00
         21   -1    0    0  501  502  0.00000000000E+00  0.00000000000E+00  0.88182171330E+02  0.88182171330E+02  0.00000000000E+00 0. -1.
         21   -1    0    0  502  503 -0.00000000000E+00 -0.00000000000E+00 -0.60048653187E+03  0.60048653187E+03  0.00000000000E+00 0. -1.
          6    1    1    2  501    0  0.49979533483E+02 -0.11726838833E+03 -0.13300032359E+03  0.25272102157E+03  0.17300000000E+03 0. -1.
         -6    1    1    2    0  503 -0.49979533483E+02  0.11726838833E+03 -0.37930403695E+03  0.43594768162E+03  0.17300000000E+03 0. -1.
<mgrwt>
<rscale>  2 0.21489260E+03</rscale>
<asrwt>0</asrwt>
<pdfrwt beam="1">  1       21 0.13566488E-01 0.21489260E+03</pdfrwt>
<pdfrwt beam="2">  1       21 0.92382544E-01 0.21489260E+03</pdfrwt>
<totfact> 0.46016450E+04</totfact>
</mgrwt>
</event>
<event>
 4    1  0.4053645E-001  0.1846233E+03  0.7546771E-02  0.1163402E+00
         21   -1    0    0  501  502  0.00000000000E+00  0.00000000000E+00  0.10052968194E+04  0.10052968194E+04  0.00000000000E+00 0. -1.
         21   -1    0    0  502  503 -0.00000000000E+00 -0.00000000000E+00 -0.36069574177E+02  0.36069574177E+02  0.00000000000E+00 0. -1.
          6    1    1    2  501    0  0.63445835921E+02 -0.11462295096E+02  0.61213193057E+03  0.63936785869E+03  0.17300000000E+03 0. -1.
         -6    1    1    2    0  503 -0.63445835921E+02  0.11462295096E+02  0.35709531468E+03  0.40199853491E+03  0.17300000000E+03 0. -1.
<mgrwt>
<rscale>  2 0.18462329E+03</rscale>
<asrwt>0</asrwt>
<pdfrwt beam="1">  1       21 0.15466103E+00 0.18462329E+03</pdfrwt>
<pdfrwt beam="2">  1       21 0.55491660E-02 0.18462329E+03</pdfrwt>
<totfact> 0.62384621E+04</totfact>
</mgrwt>
</event>
<event>
 4    1  0.4053645E-001  0.1732570E+03  0.7546771E-02  0.1174493E+00
         21   -1    0    0  503  502  0.00000000000E+00  0.00000000000E+00  0.12516282344E+04  0.12516282344E+04  0.00000000000E+00 0. -1.
         21   -1    0    0  501  503 -0.00000000000E+00 -0.00000000000E+00 -0.24152965286E+02  0.24152965286E+02  0.00000000000E+00 0. -1.
          6    1    1    2  501    0 -0.24143225619E+01  0.91185015280E+01  0.66722624085E+03  0.68935392398E+03  0.17300000000E+03 0.  1.
         -6    1    1    2    0  502  0.24143225619E+01 -0.91185015280E+01  0.56024902826E+03  0.58642727570E+03  0.17300000000E+03 0.  1.
<mgrwt>
<rscale>  2 0.17325697E+03</rscale>
<asrwt>0</asrwt>
<pdfrwt beam="1">  1       21 0.19255814E+00 0.17325697E+03</pdfrwt>
<pdfrwt beam="2">  1       21 0.37158418E-02 0.17325697E+03</pdfrwt>
<totfact> 0.67314595E+04</totfact>
</mgrwt>
</event>
<event>
 4    1  0.4053645E-001  0.2558554E+03  0.7546771E-02  0.1109659E+00
         21   -1    0    0  503  502  0.00000000000E+00  0.00000000000E+00  0.84661407560E+03  0.84661407560E+03  0.00000000000E+00 0.  1.
         21   -1    0    0  501  503 -0.00000000000E+00 -0.00000000000E+00 -0.77846728294E+02  0.77846728294E+02  0.00000000000E+00 0.  1.
          6    1    1    2  501    0 -0.84765949887E+02  0.16836785771E+03  0.34643883925E+03  0.43067606285E+03  0.17300000000E+03 0.  1.
         -6    1    1    2    0  502  0.84765949887E+02 -0.16836785771E+03  0.42232850806E+03  0.49378474104E+03  0.17300000000E+03 0.  1.
<mgrwt>
<rscale>  2 0.25585543E+03</rscale>
<asrwt>0</asrwt>
<pdfrwt beam="1">  1       21 0.13024831E+00 0.25585543E+03</pdfrwt>
<pdfrwt beam="2">  1       21 0.11976420E-01 0.25585543E+03</pdfrwt>
<totfact> 0.24450176E+04</totfact>
</mgrwt>
</event>
<event>
 4    1  0.4053645E-001  0.1866052E+03  0.7546771E-02  0.1161559E+00
         21   -1    0    0  501  502  0.00000000000E+00  0.00000000000E+00  0.10294581219E+03  0.10294581219E+03  0.00000000000E+00 0. -1.
         21   -1    0    0  502  503 -0.00000000000E+00 -0.00000000000E+00 -0.34140161035E+03  0.34140161035E+03  0.00000000000E+00 0. -1.
          6    1    1    2  501    0  0.55899590782E+02  0.42044445158E+02 -0.14057178562E+03  0.23362775206E+03  0.17300000000E+03 0. -1.
         -6    1    1    2    0  503 -0.55899590782E+02 -0.42044445158E+02 -0.97884012538E+02  0.21071967048E+03  0.17300000000E+03 0. -1.
<mgrwt>
<rscale>  2 0.18660520E+03</rscale>
<asrwt>0</asrwt>
<pdfrwt beam="1">  1       21 0.15837817E-01 0.18660520E+03</pdfrwt>
<pdfrwt beam="2">  1       21 0.52523325E-01 0.18660520E+03</pdfrwt>
<totfact> 0.12236989E+05</totfact>
</mgrwt>
</event>
<event>
 4    1  0.4053645E-001  0.1825475E+03  0.7546771E-02  0.1165360E+00
         21   -1    0    0  503  502  0.00000000000E+00  0.00000000000E+00  0.38262850294E+02  0.38262850294E+02  0.00000000000E+00 0. -1.
         21   -1    0    0  501  503 -0.00000000000E+00 -0.00000000000E+00 -0.13351949811E+04  0.13351949811E+04  0.00000000000E+00 0.  1.
          6    1    1    2  501    0 -0.20749889061E+02  0.54442889513E+02 -0.10534187112E+04  0.10691185936E+04  0.17300000000E+03 0.  1.
         -6    1    1    2    0  502  0.20749889061E+02 -0.54442889513E+02 -0.24351341954E+03  0.30433923772E+03  0.17300000000E+03 0. -1.
<mgrwt>
<rscale>  2 0.18254749E+03</rscale>
<asrwt>0</asrwt>
<pdfrwt beam="1">  1       21 0.58865931E-02 0.18254749E+03</pdfrwt>
<pdfrwt beam="2">  1       21 0.20541459E+00 0.18254749E+03</pdfrwt>
<totfact> 0.25456531E+04</totfact>
</mgrwt>
</event>
<event>
 4    1  0.4053645E-001  0.1856979E+03  0.7546771E-02  0.1162400E+00
         21   -1    0    0  501  502  0.00000000000E+00  0.00000000000E+00  0.69377716636E+02  0.69377716636E+02  0.00000000000E+00 0.  1.
         21   -1    0    0  502  503 -0.00000000000E+00 -0.00000000000E+00 -0.51376113293E+03  0.51376113293E+03  0.00000000000E+00 0.  1.
          6    1    1    2  501    0 -0.31811066045E+02  0.59521217661E+02 -0.27478776790E+03  0.33165047363E+03  0.17300000000E+03 0.  1.
         -6    1    1    2    0  503  0.31811066045E+02 -0.59521217661E+02 -0.16959564840E+03  0.25148837593E+03  0.17300000000E+03 0.  1.
<mgrwt>
<rscale>  2 0.18569792E+03</rscale>
<asrwt>0</asrwt>
<pdfrwt beam="1">  1       21 0.10673495E-01 0.18569792E+03</pdfrwt>
<pdfrwt beam="2">  1       21 0.79040173E-01 0.18569792E+03</pdfrwt>
<totfact> 0.10246328E+05</totfact>
</mgrwt>
</event>
<event>
 4    1  0.4053645E-001  0.1764265E+03  0.7546771E-02  0.1171307E+00
         21   -1    0    0  503  502  0.00000000000E+00  0.00000000000E+00  0.29454658812E+02  0.29454658812E+02  0.00000000000E+00 0. -1.
         21   -1    0    0  501  503 -0.00000000000E+00 -0.00000000000E+00 -0.11050087003E+04  0.11050087003E+04  0.00000000000E+00 0. -1.
          6    1    1    2  501    0  0.86726530139E+01  0.33497606967E+02 -0.65631324708E+03  0.67961267121E+03  0.17300000000E+03 0.  1.
         -6    1    1    2    0  502 -0.86726530139E+01 -0.33497606967E+02 -0.41924079439E+03  0.45485068788E+03  0.17300000000E+03 0.  1.
<mgrwt>
<rscale>  2 0.17642648E+03</rscale>
<asrwt>0</asrwt>
<pdfrwt beam="1">  1       21 0.45314857E-02 0.17642648E+03</pdfrwt>
<pdfrwt beam="2">  1       21 0.17000135E+00 0.17642648E+03</pdfrwt>
<totfact> 0.68409292E+04</totfact>
</mgrwt>
</event>
<event>
 4    1  0.4053645E-001  0.1809552E+03  0.7546771E-02  0.1166882E+00
         21   -1    0    0  503  502  0.00000000000E+00  0.00000000000E+00  0.11819203595E+03  0.11819203595E+03  0.00000000000E+00 0. -1.
         21   -1    0    0  501  503 -0.00000000000E+00 -0.00000000000E+00 -0.28131647393E+03  0.28131647393E+03  0.00000000000E+00 0.  1.
          6    1    1    2  501    0  0.48327008406E+02  0.21915337461E+02 -0.56954489972E+02  0.18970660422E+03  0.17300000000E+03 0. -1.
         -6    1    1    2    0  502 -0.48327008406E+02 -0.21915337461E+02 -0.10616994800E+03  0.20980190565E+03  0.17300000000E+03 0.  1.
<mgrwt>
<rscale>  2 0.18095519E+03</rscale>
<asrwt>0</asrwt>
<pdfrwt beam="1">  1       21 0.18183390E-01 0.18095519E+03</pdfrwt>
<pdfrwt beam="2">  1       21 0.43279458E-01 0.18095519E+03</pdfrwt>
<totfact> 0.14196887E+05</totfact>
</mgrwt>
</event>
<event>
 4    1  0.4053645E-001  0.1819670E+03  0.7546771E-02  0.1165913E+00
         21   -1    0    0  501  502  0.00000000000E+00  0.00000000000E+00  0.34301380762E+02  0.34301380762E+02  0.00000000000E+00 0.  1.
         21   -1    0    0  502  503 -0.00000000000E+00 -0.00000000000E+00 -0.10283098077E+04  0.10283098077E+04  0.00000000000E+00 0.  1.
          6    1    1    2  501    0  0.15669141970E+01  0.56396120458E+02 -0.62849659195E+03  0.65430875259E+03  0.17300000000E+03 0. -1.
         -6    1    1    2    0  503 -0.15669141970E+01 -0.56396120458E+02 -0.36551183499E+03  0.40830243587E+03  0.17300000000E+03 0. -1.
<mgrwt>
<rscale>  2 0.18196697E+03</rscale>
<asrwt>0</asrwt>
<pdfrwt beam="1">  1       21 0.52771353E-02 0.18196697E+03</pdfrwt>
<pdfrwt beam="2">  1       21 0.15820152E+00 0.18196697E+03</pdfrwt>
<totfact> 0.64058470E+04</totfact>
</mgrwt>
</event>
<event>
 4    1  0.4053645E-001  0.1750259E+03  0.7546771E-02  0.1172706E+00
         21   -1    0    0  503  502  0.00000000000E+00  0.00000000000E+00  0.28629540799E+03  0.28629540799E+03  0.00000000000E+00 0. -1.
         21   -1    0    0  501  503 -0.00000000000E+00 -0.00000000000E+00 -0.12559395436E+03  0.12559395436E+03  0.00000000000E+00 0. -1.
          6    1    1    2  501    0 -0.71785885874E+01 -0.25564371558E+02  0.11127633426E+01  0.17502944744E+03  0.17300000000E+03 0. -1.
         -6    1    1    2    0  502  0.71785885874E+01  0.25564371558E+02  0.15958869029E+03  0.23685991492E+03  0.17300000000E+03 0. -1.
<mgrwt>
<rscale>  2 0.17502591E+03</rscale>
<asrwt>0</asrwt>
<pdfrwt beam="1">  1       21 0.44045447E-01 0.17502591E+03</pdfrwt>
<pdfrwt beam="2">  1       21 0.19322147E-01 0.17502591E+03</pdfrwt>
<totfact> 0.12265167E+05</totfact>
</mgrwt>
</event>
<event>
 4    1  0.4053645E-001  0.3599263E+03  0.7546771E-02  0.1058613E+00
         21   -1    0    0  503  502  0.00000000000E+00  0.00000000000E+00  0.15587539115E+04  0.15587539115E+04  0.00000000000E+00 0.  1.
         21   -1    0    0  501  503 -0.00000000000E+00 -0.00000000000E+00 -0.93082677798E+02  0.93082677798E+02  0.00000000000E+00 0. -1.
          6    1    1    2  501    0 -0.58979050765E+02 -0.31006357330E+03  0.46248723976E+03  0.58603873153E+03  0.17300000000E+03 0. -1.
         -6    1    1    2    0  502  0.58979050765E+02  0.31006357330E+03  0.10031839939E+04  0.10657978577E+04  0.17300000000E+03 0.  1.
<mgrwt>
<rscale>  2 0.35992631E+03</rscale>
<asrwt>0</asrwt>
<pdfrwt beam="1">  1       21 0.23980828E+00 0.35992631E+03</pdfrwt>
<pdfrwt beam="2">  1       21 0.14320413E-01 0.35992631E+03</pdfrwt>
<totfact> 0.28637616E+03</totfact>
</mgrwt>
</event>
<event>
 4    1  0.4053645E-001  0.2005014E+03  0.7546771E-02  0.1149317E+00
         21   -1    0    0  501  502  0.00000000000E+00  0.00000000000E+00  0.15339592557E+03  0.15339592557E+03  0.00000000000E+00 0. -1.
         21   -1    0    0  502  503 -0.00000000000E+00 -0.00000000000E+00 -0.28151659524E+03  0.28151659524E+03  0.00000000000E+00 0. -1.
          6    1    1    2  501    0  0.91715040188E+02 -0.43129686393E+02 -0.69103195112E+01  0.20062046496E+03  0.17300000000E+03 0. -1.
         -6    1    1    2    0  503 -0.91715040188E+02  0.43129686393E+02 -0.12121035016E+03  0.23429205584E+03  0.17300000000E+03 0. -1.
<mgrwt>
<rscale>  2 0.20050142E+03</rscale>
<asrwt>0</asrwt>
<pdfrwt beam="1">  1       21 0.23599374E-01 0.20050142E+03</pdfrwt>
<pdfrwt beam="2">  1       21 0.43310245E-01 0.20050142E+03</pdfrwt>
<totfact> 0.86346454E+04</totfact>
</mgrwt>
</event>
<event>
 4    1  0.4053645E-001  0.2257589E+03  0.7546771E-02  0.1129661E+00
         21   -1    0    0  503  502  0.00000000000E+00  0.00000000000E+00  0.15885066331E+03  0.15885066331E+03  0.00000000000E+00 0.  1.
         21   -1    0    0  501  503 -0.00000000000E+00 -0.00000000000E+00 -0.32126407268E+03  0.32126407268E+03  0.00000000000E+00 0.  1.
          6    1    1    2  501    0  0.11122735564E+03 -0.93094391746E+02 -0.72578903986E+02  0.23713875205E+03  0.17300000000E+03 0.  1.
         -6    1    1    2    0  502 -0.11122735564E+03  0.93094391746E+02 -0.89834505381E+02  0.24297598395E+03  0.17300000000E+03 0.  1.
<mgrwt>
<rscale>  2 0.22575892E+03</rscale>
<asrwt>0</asrwt>
<pdfrwt beam="1">  1       21 0.24438564E-01 0.22575892E+03</pdfrwt>
<pdfrwt beam="2">  1       21 0.49425241E-01 0.22575892E+03</pdfrwt>
<totfact> 0.60834246E+04</totfact>
</mgrwt>
</event>
<event>
 4    1  0.4053645E-001  0.1781249E+03  0.7546771E-02  0.1169630E+00
         21   -1    0    0  501  502  0.00000000000E+00  0.00000000000E+00  0.38070068373E+03  0.38070068373E+03  0.00000000000E+00 0. -1.
         21   -1    0    0  502  503 -0.00000000000E+00 -0.00000000000E+00 -0.83354864841E+02  0.83354864841E+02  0.00000000000E+00 0. -1.
          6    1    1    2  501    0  0.41813437254E+02  0.71493042404E+01  0.14582580432E+03  0.23020347802E+03  0.17300000000E+03 0.  1.
         -6    1    1    2    0  503 -0.41813437254E+02 -0.71493042404E+01  0.15152001457E+03  0.23385207055E+03  0.17300000000E+03 0.  1.
<mgrwt>
<rscale>  2 0.17812489E+03</rscale>
<asrwt>0</asrwt>
<pdfrwt beam="1">  1       21 0.58569335E-01 0.17812489E+03</pdfrwt>
<pdfrwt beam="2">  1       21 0.12823826E-01 0.17812489E+03</pdfrwt>
<totfact> 0.14284856E+05</totfact>
</mgrwt>
</event>
<event>
 4    1  0.4053645E-001  0.2450285E+03  0.7546771E-02  0.1116488E+00
         21   -1    0    0  501  502  0.00000000000E+00  0.00000000000E+00  0.36038676375E+02  0.36038676375E+02  0.00000000000E+00 0. -1.
         21   -1    0    0  502  503 -0.00000000000E+00 -0.00000000000E+00 -0.17278981785E+04  0.17278981785E+04  0.00000000000E+00 0. -1.
          6    1    1    2  501    0  0.90803543753E+02  0.14786713885E+03 -0.10129138152E+04  0.10421292488E+04  0.17300000000E+03 0. -1.
         -6    1    1    2    0  503 -0.90803543753E+02 -0.14786713885E+03 -0.67894568698E+03  0.72180760607E+03  0.17300000000E+03 0. -1.
<mgrwt>
<rscale>  2 0.24502852E+03</rscale>
<asrwt>0</asrwt>
<pdfrwt beam="1">  1       21 0.55444115E-02 0.24502852E+03</pdfrwt>
<pdfrwt beam="2">  1       21 0.26583050E+00 0.24502852E+03</pdfrwt>
<totfact> 0.11581972E+04</totfact>
</mgrwt>
</event>
<event>
 4    1  0.4053645E-001  0.1754851E+03  0.7546771E-02  0.1172245E+00
         21   -1    0    0  503  502  0.00000000000E+00  0.00000000000E+00  0.20660662068E+03  0.20660662068E+03  0.00000000000E+00 0.  1.
         21   -1    0    0  501  503 -0.00000000000E+00 -0.00000000000E+00 -0.19376210588E+03  0.19376210588E+03  0.00000000000E+00 0.  1.
          6    1    1    2  501    0 -0.26450909957E+02 -0.12898653823E+02 -0.89739197343E+02  0.19709933903E+03  0.17300000000E+03 0.  1.
         -6    1    1    2    0  502  0.26450909957E+02  0.12898653823E+02  0.10258371214E+03  0.20326938752E+03  0.17300000000E+03 0.  1.
<mgrwt>
<rscale>  2 0.17548512E+03</rscale>
<asrwt>0</asrwt>
<pdfrwt beam="1">  1       21 0.31785634E-01 0.17548512E+03</pdfrwt>
<pdfrwt beam="2">  1       21 0.29809555E-01 0.17548512E+03</pdfrwt>
<totfact> 0.10334303E+05</totfact>
</mgrwt>
</event>
<event>
 4    1  0.4053645E-001  0.1887371E+03  0.7546771E-02  0.1159605E+00
         21   -1    0    0  503  502  0.00000000000E+00  0.00000000000E+00  0.68645321035E+02  0.68645321035E+02  0.00000000000E+00 0.  1.
         21   -1    0    0  501  503 -0.00000000000E+00 -0.00000000000E+00 -0.53049063695E+03  0.53049063695E+03  0.00000000000E+00 0.  1.
          6    1    1    2  501    0 -0.14978910847E+01  0.75435032785E+02 -0.27515751761E+03  0.33366652116E+03  0.17300000000E+03 0.  1.
         -6    1    1    2    0  502  0.14978910847E+01 -0.75435032785E+02 -0.18668779830E+03  0.26546943682E+03  0.17300000000E+03 0.  1.
<mgrwt>
<rscale>  2 0.18873709E+03</rscale>
<asrwt>0</asrwt>
<pdfrwt beam="1">  1       21 0.10560819E-01 0.18873709E+03</pdfrwt>
<pdfrwt beam="2">  1       21 0.81613945E-01 0.18873709E+03</pdfrwt>
<totfact> 0.97000436E+04</totfact>
</mgrwt>
</event>
<event>
 4    1  0.4053645E-001  0.1772943E+03  0.7546771E-02  0.1170448E+00
         21   -1    0    0  501  502  0.00000000000E+00  0.00000000000E+00  0.99591528590E+03  0.99591528590E+03  0.00000000000E+00 0. -1.
         21   -1    0    0  502  503 -0.00000000000E+00 -0.00000000000E+00 -0.32982511648E+02  0.32982511648E+02  0.00000000000E+00 0. -1.
          6    1    1    2  501    0 -0.27882528412E+02 -0.26960118443E+02  0.37471063317E+03  0.41453750372E+03  0.17300000000E+03 0. -1.
         -6    1    1    2    0  503  0.27882528412E+02  0.26960118443E+02  0.58822214108E+03  0.61436029383E+03  0.17300000000E+03 0. -1.
<mgrwt>
<rscale>  2 0.17729434E+03</rscale>
<asrwt>0</asrwt>
<pdfrwt beam="1">  1       21 0.15321771E+00 0.17729434E+03</pdfrwt>
<pdfrwt beam="2">  1       21 0.50742333E-02 0.17729434E+03</pdfrwt>
<totfact> 0.74738916E+04</totfact>
</mgrwt>
</event>
<event>
 4    1  0.4053645E-001  0.1906043E+03  0.7546771E-02  0.1157917E+00
         21   -1    0    0  501  502  0.00000000000E+00  0.00000000000E+00  0.60669688647E+02  0.60669688647E+02  0.00000000000E+00 0.  1.
         21   -1    0    0  502  503 -0.00000000000E+00 -0.00000000000E+00 -0.73304710078E+03  0.73304710078E+03  0.00000000000E+00 0.  1.
          6    1    1    2  501    0 -0.44575898065E+01 -0.79881851208E+02 -0.16636582384E+03  0.25299716916E+03  0.17300000000E+03 0.  1.
         -6    1    1    2    0  503  0.44575898065E+01  0.79881851208E+02 -0.50601158829E+03  0.54071962027E+03  0.17300000000E+03 0.  1.
<mgrwt>
<rscale>  2 0.19060425E+03</rscale>
<asrwt>0</asrwt>
<pdfrwt beam="1">  1       21 0.93337977E-02 0.19060425E+03</pdfrwt>
<pdfrwt beam="2">  1       21 0.11277648E+00 0.19060425E+03</pdfrwt>
<totfact> 0.56391787E+04</totfact>
</mgrwt>
</event>
<event>
 4    1  0.4053645E-001  0.1913758E+03  0.7546771E-02  0.1157226E+00
         21   -1    0    0  503  502  0.00000000000E+00  0.00000000000E+00  0.63147846702E+02  0.63147846702E+02  0.00000000000E+00 0.  1.
         21   -1    0    0  501  503 -0.00000000000E+00 -0.00000000000E+00 -0.80488229899E+03  0.80488229899E+03  0.00000000000E+00 0.  1.
          6    1    1    2  501    0 -0.81228422476E+02  0.98806701781E+01 -0.60028791145E+03  0.63005576015E+03  0.17300000000E+03 0.  1.
         -6    1    1    2    0  502  0.81228422476E+02 -0.98806701781E+01 -0.14144654084E+03  0.23797438555E+03  0.17300000000E+03 0.  1.
<mgrwt>
<rscale>  2 0.19137577E+03</rscale>
<asrwt>0</asrwt>
<pdfrwt beam="1">  1       21 0.97150537E-02 0.19137577E+03</pdfrwt>
<pdfrwt beam="2">  1       21 0.12382804E+00 0.19137577E+03</pdfrwt>
<totfact> 0.41735397E+04</totfact>
</mgrwt>
</event>
<event>
 4    1  0.4053645E-001  0.2262381E+03  0.7546771E-02  0.1129316E+00
         21   -1    0    0  501  502  0.00000000000E+00  0.00000000000E+00  0.43897417171E+03  0.43897417171E+03  0.00000000000E+00 0.  1.
         21   -1    0    0  502  503 -0.00000000000E+00 -0.00000000000E+00 -0.22222582096E+03  0.22222582096E+03  0.00000000000E+00 0.  1.
          6    1    1    2  501    0  0.89124593616E+02 -0.11537543726E+03  0.33630020698E+03  0.40531656015E+03  0.17300000000E+03 0.  1.
         -6    1    1    2    0  503 -0.89124593616E+02  0.11537543726E+03 -0.11955185624E+03  0.25588343252E+03  0.17300000000E+03 0.  1.
<mgrwt>
<rscale>  2 0.22623812E+03</rscale>
<asrwt>0</asrwt>
<pdfrwt beam="1">  1       21 0.67534488E-01 0.22623812E+03</pdfrwt>
<pdfrwt beam="2">  1       21 0.34188588E-01 0.22623812E+03</pdfrwt>
<totfact> 0.16196569E+04</totfact>
</mgrwt>
</event>
<event>
 4    1  0.4053645E-001  0.2220648E+03  0.7546771E-02  0.1132353E+00
         21   -1    0    0  503  502  0.00000000000E+00  0.00000000000E+00  0.32243529479E+02  0.32243529479E+02  0.00000000000E+00 0. -1.
         21   -1    0    0  501  503 -0.00000000000E+00 -0.00000000000E+00 -0.18329196618E+04  0.18329196618E+04  0.00000000000E+00 0.  1.
          6    1    1    2  501    0  0.33192732150E+02 -0.13521096435E+03 -0.12798447671E+04  0.12989670474E+04  0.17300000000E+03 0.  1.
         -6    1    1    2    0  502 -0.33192732150E+02  0.13521096435E+03 -0.52083136521E+03  0.56619614387E+03  0.17300000000E+03 0. -1.
<mgrwt>
<rscale>  2 0.22206477E+03</rscale>
<asrwt>0</asrwt>
<pdfrwt beam="1">  1       21 0.49605424E-02 0.22206477E+03</pdfrwt>
<pdfrwt beam="2">  1       21 0.28198767E+00 0.22206477E+03</pdfrwt>
<totfact> 0.11486349E+04</totfact>
</mgrwt>
</event>
<event>
 4    1  0.4053645E-001  0.2538412E+03  0.7546771E-02  0.1110901E+00
         21   -1    0    0  503  502  0.00000000000E+00  0.00000000000E+00  0.29233626578E+02  0.29233626578E+02  0.00000000000E+00 0. -1.
         21   -1    0    0  501  503 -0.00000000000E+00 -0.00000000000E+00 -0.22046648648E+04  0.22046648648E+04  0.00000000000E+00 0.  1.
          6    1    1    2  501    0 -0.11012430149E+03  0.14959604150E+03 -0.11047622961E+04  0.11335497644E+04  0.17300000000E+03 0.  1.
         -6    1    1    2    0  502  0.11012430149E+03 -0.14959604150E+03 -0.10706689421E+04  0.11003487270E+04  0.17300000000E+03 0. -1.
<mgrwt>
<rscale>  2 0.25384117E+03</rscale>
<asrwt>0</asrwt>
<pdfrwt beam="1">  1       21 0.44974821E-02 0.25384117E+03</pdfrwt>
<pdfrwt beam="2">  1       21 0.33917913E+00 0.25384117E+03</pdfrwt>
<totfact> 0.61015282E+03</totfact>
</mgrwt>
</event>
<event>
 4    1  0.4053645E-001  0.1791566E+03  0.7546771E-02  0.1168622E+00
         21   -1    0    0  501  502  0.00000000000E+00  0.00000000000E+00  0.29679717785E+03  0.29679717785E+03  0.00000000000E+00 0.  1.
         21   -1    0    0  502  503 -0.00000000000E+00 -0.00000000000E+00 -0.17077320714E+03  0.17077320714E+03  0.00000000000E+00 0.  1.
          6    1    1    2  501    0 -0.32205017278E+02 -0.33629236520E+02  0.20458895575E+03  0.27194435001E+03  0.17300000000E+03 0.  1.
         -6    1    1    2    0  503  0.32205017278E+02  0.33629236520E+02 -0.78564985044E+02  0.19562603498E+03  0.17300000000E+03 0.  1.
<mgrwt>
<rscale>  2 0.17915660E+03</rscale>
<asrwt>0</asrwt>
<pdfrwt beam="1">  1       21 0.45661104E-01 0.17915660E+03</pdfrwt>
<pdfrwt beam="2">  1       21 0.26272801E-01 0.17915660E+03</pdfrwt>
<totfact> 0.63715288E+04</totfact>
</mgrwt>
</event>
<event>
 4    1  0.4053645E-001  0.2064177E+03  0.7546771E-02  0.1144435E+00
         21   -1    0    0  503  502  0.00000000000E+00  0.00000000000E+00  0.12101839028E+03  0.12101839028E+03  0.00000000000E+00 0.  1.
         21   -1    0    0  501  503 -0.00000000000E+00 -0.00000000000E+00 -0.35370823860E+03  0.35370823860E+03  0.00000000000E+00 0.  1.
          6    1    1    2  501    0 -0.39545293548E+02 -0.10542979905E+03 -0.13244470799E+03  0.24525471136E+03  0.17300000000E+03 0.  1.
         -6    1    1    2    0  502  0.39545293548E+02  0.10542979905E+03 -0.10024514033E+03  0.22947191752E+03  0.17300000000E+03 0.  1.
<mgrwt>
<rscale>  2 0.20641771E+03</rscale>
<asrwt>0</asrwt>
<pdfrwt beam="1">  1       21 0.18618214E-01 0.20641771E+03</pdfrwt>
<pdfrwt beam="2">  1       21 0.54416651E-01 0.20641771E+03</pdfrwt>
<totfact> 0.83647800E+04</totfact>
</mgrwt>
</event>
<event>
 4    1  0.4053645E-001  0.3004397E+03  0.7546771E-02  0.1085021E+00
         21   -1    0    0  501  502  0.00000000000E+00  0.00000000000E+00  0.46530871823E+03  0.46530871823E+03  0.00000000000E+00 0.  1.
         21   -1    0    0  502  503 -0.00000000000E+00 -0.00000000000E+00 -0.25872262415E+03  0.25872262415E+03  0.00000000000E+00 0.  1.
          6    1    1    2  501    0  0.23264421418E+03 -0.78814202796E+02  0.28437727914E+03  0.41368399274E+03  0.17300000000E+03 0.  1.
         -6    1    1    2    0  503 -0.23264421418E+03  0.78814202796E+02 -0.77791185061E+02  0.31034734964E+03  0.17300000000E+03 0.  1.
<mgrwt>
<rscale>  2 0.30043969E+03</rscale>
<asrwt>0</asrwt>
<pdfrwt beam="1">  1       21 0.71585957E-01 0.30043969E+03</pdfrwt>
<pdfrwt beam="2">  1       21 0.39803481E-01 0.30043969E+03</pdfrwt>
<totfact> 0.10096914E+04</totfact>
</mgrwt>
</event>
<event>
 4    1  0.4053645E-001  0.1792309E+03  0.7546771E-02  0.1168549E+00
         21   -1    0    0  503  502  0.00000000000E+00  0.00000000000E+00  0.13697305814E+04  0.13697305814E+04  0.00000000000E+00 0.  1.
         21   -1    0    0  501  503 -0.00000000000E+00 -0.00000000000E+00 -0.23725284442E+02  0.23725284442E+02  0.00000000000E+00 0.  1.
          6    1    1    2  501    0  0.88754467620E+01  0.45999367079E+02  0.74769979785E+03  0.76888146228E+03  0.17300000000E+03 0.  1.
         -6    1    1    2    0  502 -0.88754467620E+01 -0.45999367079E+02  0.59830549909E+03  0.62457440355E+03  0.17300000000E+03 0.  1.
<mgrwt>
<rscale>  2 0.17923090E+03</rscale>
<asrwt>0</asrwt>
<pdfrwt beam="1">  1       21 0.21072772E+00 0.17923090E+03</pdfrwt>
<pdfrwt beam="2">  1       21 0.36500448E-02 0.17923090E+03</pdfrwt>
<totfact> 0.52924049E+04</totfact>
</mgrwt>
</event>
<event>
 4    1  0.4053645E-001  0.2152623E+03  0.7546771E-02  0.1137465E+00
         21   -1    0    0  501  502  0.00000000000E+00  0.00000000000E+00  0.21206227181E+03  0.21206227181E+03  0.00000000000E+00 0. -1.
         21   -1    0    0  502  503 -0.00000000000E+00 -0.00000000000E+00 -0.21854182166E+03  0.21854182166E+03  0.00000000000E+00 0. -1.
          6    1    1    2  501    0 -0.11861709528E+03  0.48361572959E+02 -0.66690629769E+00  0.21526333129E+03  0.17300000000E+03 0. -1.
         -6    1    1    2    0  503  0.11861709528E+03 -0.48361572959E+02 -0.58126435571E+01  0.21534076218E+03  0.17300000000E+03 0. -1.
<mgrwt>
<rscale>  2 0.21526230E+03</rscale>
<asrwt>0</asrwt>
<pdfrwt beam="1">  1       21 0.32624965E-01 0.21526230E+03</pdfrwt>
<pdfrwt beam="2">  1       21 0.33621819E-01 0.21526230E+03</pdfrwt>
<totfact> 0.76304114E+04</totfact>
</mgrwt>
</event>
<event>
 4    1  0.4053645E-001  0.2915232E+03  0.7546771E-02  0.1089557E+00
         21   -1    0    0  503  502  0.00000000000E+00  0.00000000000E+00  0.12811428753E+03  0.12811428753E+03  0.00000000000E+00 0. -1.
         21   -1    0    0  501  503 -0.00000000000E+00 -0.00000000000E+00 -0.97943578537E+03  0.97943578537E+03  0.00000000000E+00 0.  1.
          6    1    1    2  501    0 -0.19757876713E+02 -0.23380841449E+03 -0.74024848140E+03  0.79558378729E+03  0.17300000000E+03 0.  1.
         -6    1    1    2    0  502  0.19757876713E+02  0.23380841449E+03 -0.11107301644E+03  0.31196628561E+03  0.17300000000E+03 0. -1.
<mgrwt>
<rscale>  2 0.29152315E+03</rscale>
<asrwt>0</asrwt>
<pdfrwt beam="1">  1       21 0.19709890E-01 0.29152315E+03</pdfrwt>
<pdfrwt beam="2">  1       21 0.15068243E+00 0.29152315E+03</pdfrwt>
<totfact> 0.65577262E+03</totfact>
</mgrwt>
</event>
<event>
 4    1  0.4053645E-001  0.1788775E+03  0.7546771E-02  0.1168894E+00
         21   -1    0    0  501  502  0.00000000000E+00  0.00000000000E+00  0.10358851620E+03  0.10358851620E+03  0.00000000000E+00 0.  1.
         21   -1    0    0  502  503 -0.00000000000E+00 -0.00000000000E+00 -0.32736905671E+03  0.32736905671E+03  0.00000000000E+00 0.  1.
          6    1    1    2  501    0  0.35901433836E+01  0.45335087912E+02 -0.60691521689E+02  0.18889314474E+03  0.17300000000E+03 0.  1.
         -6    1    1    2    0  503 -0.35901433836E+01 -0.45335087912E+02 -0.16308901882E+03  0.24206442817E+03  0.17300000000E+03 0.  1.
<mgrwt>
<rscale>  2 0.17887750E+03</rscale>
<asrwt>0</asrwt>
<pdfrwt beam="1">  1       21 0.15936695E-01 0.17887750E+03</pdfrwt>
<pdfrwt beam="2">  1       21 0.50364469E-01 0.17887750E+03</pdfrwt>
<totfact> 0.13244114E+05</totfact>
</mgrwt>
</event>
<event>
 4    1  0.4053645E-001  0.1789220E+03  0.7546771E-02  0.1168850E+00
         21   -1    0    0  503  502  0.00000000000E+00  0.00000000000E+00  0.10981565731E+03  0.10981565731E+03  0.00000000000E+00 0. -1.
         21   -1    0    0  501  503 -0.00000000000E+00 -0.00000000000E+00 -0.30591260858E+03  0.30591260858E+03  0.00000000000E+00 0. -1.
          6    1    1    2  501    0  0.25842465764E+02  0.37633076842E+02 -0.14314080580E+03  0.22913396037E+03  0.17300000000E+03 0. -1.
         -6    1    1    2    0  502 -0.25842465764E+02 -0.37633076842E+02 -0.52956145474E+02  0.18659430552E+03  0.17300000000E+03 0. -1.
<mgrwt>
<rscale>  2 0.17892200E+03</rscale>
<asrwt>0</asrwt>
<pdfrwt beam="1">  1       21 0.16894716E-01 0.17892200E+03</pdfrwt>
<pdfrwt beam="2">  1       21 0.47063479E-01 0.17892200E+03</pdfrwt>
<totfact> 0.13696994E+05</totfact>
</mgrwt>
</event>
<event>
 4    1  0.4053645E-001  0.2016271E+03  0.7546771E-02  0.1148373E+00
         21   -1    0    0  501  502  0.00000000000E+00  0.00000000000E+00  0.10918537568E+03  0.10918537568E+03  0.00000000000E+00 0.  1.
         21   -1    0    0  502  503 -0.00000000000E+00 -0.00000000000E+00 -0.68553978034E+03  0.68553978034E+03  0.00000000000E+00 0. -1.
          6    1    1    2  501    0 -0.94915761186E+02 -0.41418511688E+02 -0.19590138296E+02  0.20257657404E+03  0.17300000000E+03 0.  1.
         -6    1    1    2    0  503  0.94915761186E+02  0.41418511688E+02 -0.55676426637E+03  0.59214858198E+03  0.17300000000E+03 0. -1.
<mgrwt>
<rscale>  2 0.20162712E+03</rscale>
<asrwt>0</asrwt>
<pdfrwt beam="1">  1       21 0.16797750E-01 0.20162712E+03</pdfrwt>
<pdfrwt beam="2">  1       21 0.10546766E+00 0.20162712E+03</pdfrwt>
<totfact> 0.22926748E+04</totfact>
</mgrwt>
</event>
<event>
 4    1  0.4053645E-001  0.2456158E+03  0.7546771E-02  0.1116107E+00
         21   -1    0    0  501  502  0.00000000000E+00  0.00000000000E+00  0.14683958956E+03  0.14683958956E+03  0.00000000000E+00 0.  1.
         21   -1    0    0  502  503 -0.00000000000E+00 -0.00000000000E+00 -0.49797588072E+03  0.49797588072E+03  0.00000000000E+00 0.  1.
          6    1    1    2  501    0 -0.16204852320E+03 -0.64330434049E+02 -0.31043568067E+03  0.39585027529E+03  0.17300000000E+03 0.  1.
         -6    1    1    2    0  503  0.16204852320E+03  0.64330434049E+02 -0.40700610493E+02  0.24896519498E+03  0.17300000000E+03 0.  1.
<mgrwt>
<rscale>  2 0.24561582E+03</rscale>
<asrwt>0</asrwt>
<pdfrwt beam="1">  1       21 0.22590706E-01 0.24561582E+03</pdfrwt>
<pdfrwt beam="2">  1       21 0.76611673E-01 0.24561582E+03</pdfrwt>
<totfact> 0.27075883E+04</totfact>
</mgrwt>
</event>
<event>
 4    1  0.4053645E-001  0.2972788E+03  0.7546771E-02  0.1086609E+00
         21   -1    0    0  501  502  0.00000000000E+00  0.00000000000E+00  0.23332360731E+03  0.23332360731E+03  0.00000000000E+00 0.  1.
         21   -1    0    0  502  503 -0.00000000000E+00 -0.00000000000E+00 -0.40493204979E+03  0.40493204979E+03  0.00000000000E+00 0. -1.
          6    1    1    2  501    0  0.24058254861E+03  0.23785132429E+02 -0.46791144536E+01  0.29731563924E+03  0.17300000000E+03 0.  1.
         -6    1    1    2    0  503 -0.24058254861E+03 -0.23785132429E+02 -0.16692932803E+03  0.34094001786E+03  0.17300000000E+03 0. -1.
<mgrwt>
<rscale>  2 0.29727882E+03</rscale>
<asrwt>0</asrwt>
<pdfrwt beam="1">  1       21 0.35895940E-01 0.29727882E+03</pdfrwt>
<pdfrwt beam="2">  1       21 0.62297237E-01 0.29727882E+03</pdfrwt>
<totfact> 0.16949466E+04</totfact>
</mgrwt>
</event>
<event>
 4    1  0.4053645E-001  0.2261093E+03  0.7546771E-02  0.1129409E+00
         21   -1    0    0  501  502  0.00000000000E+00  0.00000000000E+00  0.14763269315E+03  0.14763269315E+03  0.00000000000E+00 0.  1.
         21   -1    0    0  502  503 -0.00000000000E+00 -0.00000000000E+00 -0.47680339350E+03  0.47680339350E+03  0.00000000000E+00 0. -1.
          6    1    1    2  501    0 -0.13624742204E+03  0.51313332450E+02 -0.12437553664E+01  0.22611272637E+03  0.17300000000E+03 0.  1.
         -6    1    1    2    0  503  0.13624742204E+03 -0.51313332450E+02 -0.32792694498E+03  0.39832336028E+03  0.17300000000E+03 0. -1.
<mgrwt>
<rscale>  2 0.22610931E+03</rscale>
<asrwt>0</asrwt>
<pdfrwt beam="1">  1       21 0.22712722E-01 0.22610931E+03</pdfrwt>
<pdfrwt beam="2">  1       21 0.73354368E-01 0.22610931E+03</pdfrwt>
<totfact> 0.29823987E+04</totfact>
</mgrwt>
</event>
<event>
 4    1  0.4053645E-001  0.1943281E+03  0.7546771E-02  0.1154615E+00
         21   -1    0    0  503  502  0.00000000000E+00  0.00000000000E+00  0.18220579039E+03  0.18220579039E+03  0.00000000000E+00 0.  1.
         21   -1    0    0  501  503 -0.00000000000E+00 -0.00000000000E+00 -0.21281277259E+03  0.21281277259E+03  0.00000000000E+00 0.  1.
          6    1    1    2  501    0 -0.48240018196E+02 -0.74211312022E+02 -0.47216111249E+02  0.19998194756E+03  0.17300000000E+03 0.  1.
         -6    1    1    2    0  502  0.48240018196E+02  0.74211312022E+02  0.16609129046E+02  0.19503661542E+03  0.17300000000E+03 0.  1.
<mgrwt>
<rscale>  2 0.19432812E+03</rscale>
<asrwt>0</asrwt>
<pdfrwt beam="1">  1       21 0.28031660E-01 0.19432812E+03</pdfrwt>
<pdfrwt beam="2">  1       21 0.32740427E-01 0.19432812E+03</pdfrwt>
<totfact> 0.10909448E+05</totfact>
</mgrwt>
</event>
<event>
 4    1  0.4053645E-001  0.1788629E+03  0.7546771E-02  0.1168908E+00
         21   -1    0    0  501  502  0.00000000000E+00  0.00000000000E+00  0.28145262513E+03  0.28145262513E+03  0.00000000000E+00 0. -1.
         21   -1    0    0  502  503 -0.00000000000E+00 -0.00000000000E+00 -0.13168012059E+03  0.13168012059E+03  0.00000000000E+00 0. -1.
          6    1    1    2  501    0 -0.10028258747E+02  0.44298478831E+02  0.15128602005E+03  0.23426348640E+03  0.17300000000E+03 0. -1.
         -6    1    1    2    0  503  0.10028258747E+02 -0.44298478831E+02 -0.15135155126E+01  0.17886925932E+03  0.17300000000E+03 0. -1.
<mgrwt>
<rscale>  2 0.17886286E+03</rscale>
<asrwt>0</asrwt>
<pdfrwt beam="1">  1       21 0.43300404E-01 0.17886286E+03</pdfrwt>
<pdfrwt beam="2">  1       21 0.20258480E-01 0.17886286E+03</pdfrwt>
<totfact> 0.11612157E+05</totfact>
</mgrwt>
</event>
<event>
 4    1  0.4053645E-001  0.1945877E+03  0.7546771E-02  0.1154387E+00
         21   -1    0    0  501  502  0.00000000000E+00  0.00000000000E+00  0.83284524821E+02  0.83284524821E+02  0.00000000000E+00 0. -1.
         21   -1    0    0  502  503 -0.00000000000E+00 -0.00000000000E+00 -0.48645569258E+03  0.48645569258E+03  0.00000000000E+00 0. -1.
          6    1    1    2  501    0  0.66450553780E+02  0.59326903734E+02 -0.12873120511E+03  0.23331541049E+03  0.17300000000E+03 0. -1.
         -6    1    1    2    0  503 -0.66450553780E+02 -0.59326903734E+02 -0.27443996265E+03  0.33642480691E+03  0.17300000000E+03 0. -1.
<mgrwt>
<rscale>  2 0.19458766E+03</rscale>
<asrwt>0</asrwt>
<pdfrwt beam="1">  1       21 0.12813004E-01 0.19458766E+03</pdfrwt>
<pdfrwt beam="2">  1       21 0.74839337E-01 0.19458766E+03</pdfrwt>
<totfact> 0.83283514E+04</totfact>
</mgrwt>
</event>
<event>
 4    1  0.4053645E-001  0.2012608E+03  0.7546771E-02  0.1148680E+00
         21   -1    0    0  501  502  0.00000000000E+00  0.00000000000E+00  0.92961736580E+03  0.92961736580E+03  0.00000000000E+00 0.  1.
         21   -1    0    0  502  503 -0.00000000000E+00 -0.00000000000E+00 -0.51049227894E+02  0.51049227894E+02  0.00000000000E+00 0. -1.
          6    1    1    2  501    0  0.49756430599E+02  0.90006630385E+02  0.62693387058E+03  0.65844663716E+03  0.17300000000E+03 0.  1.
         -6    1    1    2    0  503 -0.49756430599E+02 -0.90006630385E+02  0.25163426732E+03  0.32221995654E+03  0.17300000000E+03 0. -1.
<mgrwt>
<rscale>  2 0.20126077E+03</rscale>
<asrwt>0</asrwt>
<pdfrwt beam="1">  1       21 0.14301804E+00 0.20126077E+03</pdfrwt>
<pdfrwt beam="2">  1       21 0.78537280E-02 0.20126077E+03</pdfrwt>
<totfact> 0.41747573E+04</totfact>
</mgrwt>
</event>
<event>
 4    1  0.4053645E-001  0.2732681E+03  0.7546771E-02  0.1099424E+00
         21   -1    0    0  501  502  0.00000000000E+00  0.00000000000E+00  0.85463312516E+03  0.85463312516E+03  0.00000000000E+00 0.  1.
         21   -1    0    0  502  503 -0.00000000000E+00 -0.00000000000E+00 -0.87387345021E+02  0.87387345021E+02  0.00000000000E+00 0.  1.
          6    1    1    2  501    0 -0.21098359878E+03  0.15243671434E+02  0.37854762915E+03  0.46687659613E+03  0.17300000000E+03 0.  1.
         -6    1    1    2    0  503  0.21098359878E+03 -0.15243671434E+02  0.38869815098E+03  0.47514387405E+03  0.17300000000E+03 0.  1.
<mgrwt>
<rscale>  2 0.27326809E+03</rscale>
<asrwt>0</asrwt>
<pdfrwt beam="1">  1       21 0.13148201E+00 0.27326809E+03</pdfrwt>
<pdfrwt beam="2">  1       21 0.13444207E-01 0.27326809E+03</pdfrwt>
<totfact> 0.19199086E+04</totfact>
</mgrwt>
</event>
<event>
 4    1  0.4053645E-001  0.1845696E+03  0.7546771E-02  0.1163452E+00
         21   -1    0    0  503  502  0.00000000000E+00  0.00000000000E+00  0.30622142644E+03  0.30622142644E+03  0.00000000000E+00 0.  1.
         21   -1    0    0  501  503 -0.00000000000E+00 -0.00000000000E+00 -0.11142998871E+03  0.11142998871E+03  0.00000000000E+00 0.  1.
          6    1    1    2  501    0 -0.62779874390E+02  0.13986565227E+02  0.88912293895E+02  0.20486906219E+03  0.17300000000E+03 0.  1.
         -6    1    1    2    0  502  0.62779874390E+02 -0.13986565227E+02  0.10587914384E+03  0.21278235297E+03  0.17300000000E+03 0.  1.
<mgrwt>
<rscale>  2 0.18456960E+03</rscale>
<asrwt>0</asrwt>
<pdfrwt beam="1">  1       21 0.47110989E-01 0.18456960E+03</pdfrwt>
<pdfrwt beam="2">  1       21 0.17143075E-01 0.18456960E+03</pdfrwt>
<totfact> 0.13281256E+05</totfact>
</mgrwt>
</event>
<event>
 4    1  0.4053645E-001  0.4728807E+03  0.7546771E-02  0.1021110E+00
         21   -1    0    0  501  502  0.00000000000E+00  0.00000000000E+00  0.74230143967E+03  0.74230143967E+03  0.00000000000E+00 0.  1.
         21   -1    0    0  502  503 -0.00000000000E+00 -0.00000000000E+00 -0.30334562037E+03  0.30334562037E+03  0.00000000000E+00 0. -1.
          6    1    1    2  501    0  0.14512070727E+03 -0.41548420061E+03  0.26296346297E+03  0.54107848183E+03  0.17300000000E+03 0. -1.
         -6    1    1    2    0  503 -0.14512070727E+03  0.41548420061E+03  0.17599235633E+03  0.50456857821E+03  0.17300000000E+03 0.  1.
<mgrwt>
<rscale>  2 0.47288068E+03</rscale>
<asrwt>0</asrwt>
<pdfrwt beam="1">  1       21 0.11420022E+00 0.47288068E+03</pdfrwt>
<pdfrwt beam="2">  1       21 0.46668557E-01 0.47288068E+03</pdfrwt>
<totfact> 0.22443261E+03</totfact>
</mgrwt>
</event>
<event>
 4    1  0.4053645E-001  0.1810231E+03  0.7546771E-02  0.1166817E+00
         21   -1    0    0  501  502  0.00000000000E+00  0.00000000000E+00  0.12284451979E+03  0.12284451979E+03  0.00000000000E+00 0. -1.
         21   -1    0    0  502  503 -0.00000000000E+00 -0.00000000000E+00 -0.26800054064E+03  0.26800054064E+03  0.00000000000E+00 0. -1.
          6    1    1    2  501    0  0.51653264324E+02  0.13127031830E+02 -0.85900998450E+02  0.20037055726E+03  0.17300000000E+03 0. -1.
         -6    1    1    2    0  503 -0.51653264324E+02 -0.13127031830E+02 -0.59255022393E+02  0.19047450317E+03  0.17300000000E+03 0. -1.
<mgrwt>
<rscale>  2 0.18102314E+03</rscale>
<asrwt>0</asrwt>
<pdfrwt beam="1">  1       21 0.18899157E-01 0.18102314E+03</pdfrwt>
<pdfrwt beam="2">  1       21 0.41230852E-01 0.18102314E+03</pdfrwt>
<totfact> 0.14586305E+05</totfact>
</mgrwt>
</event>
<event>
 4    1  0.4053645E-001  0.1744716E+03  0.7546771E-02  0.1173263E+00
         21   -1    0    0  501  502  0.00000000000E+00  0.00000000000E+00  0.70957904514E+03  0.70957904514E+03  0.00000000000E+00 0.  1.
         21   -1    0    0  502  503 -0.00000000000E+00 -0.00000000000E+00 -0.51076413566E+02  0.51076413566E+02  0.00000000000E+00 0.  1.
          6    1    1    2  501    0 -0.19549524953E+02  0.11364979688E+02  0.48142917211E+03  0.51206873997E+03  0.17300000000E+03 0.  1.
         -6    1    1    2    0  503  0.19549524953E+02 -0.11364979688E+02  0.17707345947E+03  0.24858671875E+03  0.17300000000E+03 0.  1.
<mgrwt>
<rscale>  2 0.17447162E+03</rscale>
<asrwt>0</asrwt>
<pdfrwt beam="1">  1       21 0.10916600E+00 0.17447162E+03</pdfrwt>
<pdfrwt beam="2">  1       21 0.78579103E-02 0.17447162E+03</pdfrwt>
<totfact> 0.83033262E+04</totfact>
</mgrwt>
</event>
<event>
 4    1  0.4053645E-001  0.1850178E+03  0.7546771E-02  0.1163033E+00
         21   -1    0    0  501  502  0.00000000000E+00  0.00000000000E+00  0.21513442477E+03  0.21513442477E+03  0.00000000000E+00 0. -1.
         21   -1    0    0  502  503 -0.00000000000E+00 -0.00000000000E+00 -0.18620702037E+03  0.18620702037E+03  0.00000000000E+00 0. -1.
          6    1    1    2  501    0  0.65245338752E+02  0.67556147672E+01  0.91003772272E+02  0.20618748538E+03  0.17300000000E+03 0. -1.
         -6    1    1    2    0  503 -0.65245338752E+02 -0.67556147672E+01 -0.62076367874E+02  0.19515395976E+03  0.17300000000E+03 0. -1.
<mgrwt>
<rscale>  2 0.18501782E+03</rscale>
<asrwt>0</asrwt>
<pdfrwt beam="1">  1       21 0.33097604E-01 0.18501782E+03</pdfrwt>
<pdfrwt beam="2">  1       21 0.28647234E-01 0.18501782E+03</pdfrwt>
<totfact> 0.10273897E+05</totfact>
</mgrwt>
</event>
<event>
 4    1  0.4053645E-001  0.1765579E+03  0.7546771E-02  0.1171176E+00
         21   -1    0    0  501  502  0.00000000000E+00  0.00000000000E+00  0.38177660061E+03  0.38177660061E+03  0.00000000000E+00 0.  1.
         21   -1    0    0  502  503 -0.00000000000E+00 -0.00000000000E+00 -0.84659610733E+02  0.84659610733E+02  0.00000000000E+00 0.  1.
          6    1    1    2  501    0 -0.35231215942E+02 -0.15712253355E+01  0.19251840710E+03  0.26122029860E+03  0.17300000000E+03 0.  1.
         -6    1    1    2    0  503  0.35231215942E+02  0.15712253355E+01  0.10459858278E+03  0.20521591275E+03  0.17300000000E+03 0.  1.
<mgrwt>
<rscale>  2 0.17655794E+03</rscale>
<asrwt>0</asrwt>
<pdfrwt beam="1">  1       21 0.58734861E-01 0.17655794E+03</pdfrwt>
<pdfrwt beam="2">  1       21 0.13024556E-01 0.17655794E+03</pdfrwt>
<totfact> 0.13816044E+05</totfact>
</mgrwt>
</event>
<event>
 4    1  0.4053645E-001  0.3663923E+03  0.7546771E-02  0.1056081E+00
         21   -1    0    0  503  502  0.00000000000E+00  0.00000000000E+00  0.18301808432E+04  0.18301808432E+04  0.00000000000E+00 0.  1.
         21   -1    0    0  501  503 -0.00000000000E+00 -0.00000000000E+00 -0.10790568788E+03  0.10790568788E+03  0.00000000000E+00 0. -1.
          6    1    1    2  501    0  0.23543313261E+03  0.22110073257E+03  0.31275659260E+03  0.48172604256E+03  0.17300000000E+03 0. -1.
         -6    1    1    2    0  502 -0.23543313261E+03 -0.22110073257E+03  0.14095185627E+04  0.14563604885E+04  0.17300000000E+03 0.  1.
<mgrwt>
<rscale>  2 0.36639227E+03</rscale>
<asrwt>0</asrwt>
<pdfrwt beam="1">  1       21 0.28156626E+00 0.36639227E+03</pdfrwt>
<pdfrwt beam="2">  1       21 0.16600876E-01 0.36639227E+03</pdfrwt>
<totfact> 0.12146334E+03</totfact>
</mgrwt>
</event>
<event>
 4    1  0.4053645E-001  0.1803256E+03  0.7546771E-02  0.1167488E+00
         21   -1    0    0  501  502  0.00000000000E+00  0.00000000000E+00  0.16552304722E+03  0.16552304722E+03  0.00000000000E+00 0. -1.
         21   -1    0    0  502  503 -0.00000000000E+00 -0.00000000000E+00 -0.20367986283E+03  0.20367986283E+03  0.00000000000E+00 0. -1.
          6    1    1    2  501    0  0.17091443858E+02  0.47918916092E+02 -0.53853227002E+02  0.18819540385E+03  0.17300000000E+03 0. -1.
         -6    1    1    2    0  503 -0.17091443858E+02 -0.47918916092E+02  0.15696411392E+02  0.18100750621E+03  0.17300000000E+03 0. -1.
<mgrwt>
<rscale>  2 0.18032565E+03</rscale>
<asrwt>0</asrwt>
<pdfrwt beam="1">  1       21 0.25465084E-01 0.18032565E+03</pdfrwt>
<pdfrwt beam="2">  1       21 0.31335363E-01 0.18032565E+03</pdfrwt>
<totfact> 0.14368673E+05</totfact>
</mgrwt>
</event>
<event>
 4    1  0.4053645E-001  0.2229248E+03  0.7546771E-02  0.1131721E+00
         21   -1    0    0  501  502  0.00000000000E+00  0.00000000000E+00  0.13491636073E+04  0.13491636073E+04  0.00000000000E+00 0. -1.
         21   -1    0    0  502  503 -0.00000000000E+00 -0.00000000000E+00 -0.52874654635E+02  0.52874654635E+02  0.00000000000E+00 0. -1.
          6    1    1    2  501    0  0.13094876292E+03 -0.51175031547E+02  0.10342565919E+04  0.10580085823E+04  0.17300000000E+03 0. -1.
         -6    1    1    2    0  503 -0.13094876292E+03  0.51175031547E+02  0.26203236071E+03  0.34402967957E+03  0.17300000000E+03 0. -1.
<mgrwt>
<rscale>  2 0.22292479E+03</rscale>
<asrwt>0</asrwt>
<pdfrwt beam="1">  1       21 0.20756361E+00 0.22292479E+03</pdfrwt>
<pdfrwt beam="2">  1       21 0.81345633E-02 0.22292479E+03</pdfrwt>
<totfact> 0.13682369E+04</totfact>
</mgrwt>
</event>
<event>
 4    1  0.4053645E-001  0.2461151E+03  0.7546771E-02  0.1115785E+00
         21   -1    0    0  501  502  0.00000000000E+00  0.00000000000E+00  0.12104027649E+04  0.12104027649E+04  0.00000000000E+00 0. -1.
         21   -1    0    0  502  503 -0.00000000000E+00 -0.00000000000E+00 -0.58211279215E+02  0.58211279215E+02  0.00000000000E+00 0.  1.
          6    1    1    2  501    0 -0.13645717658E+03 -0.10964983659E+03  0.81369828594E+03  0.85010443372E+03  0.17300000000E+03 0. -1.
         -6    1    1    2    0  503  0.13645717658E+03  0.10964983659E+03  0.33849319970E+03  0.41850961034E+03  0.17300000000E+03 0.  1.
<mgrwt>
<rscale>  2 0.24611511E+03</rscale>
<asrwt>0</asrwt>
<pdfrwt beam="1">  1       21 0.18621579E+00 0.24611511E+03</pdfrwt>
<pdfrwt beam="2">  1       21 0.89555823E-02 0.24611511E+03</pdfrwt>
<totfact> 0.15688876E+04</totfact>
</mgrwt>
</event>
<event>
 4    1  0.4053645E-001  0.2234815E+03  0.7546771E-02  0.1131314E+00
         21   -1    0    0  503  502  0.00000000000E+00  0.00000000000E+00  0.38689797732E+03  0.38689797732E+03  0.00000000000E+00 0. -1.
         21   -1    0    0  501  503 -0.00000000000E+00 -0.00000000000E+00 -0.22365377160E+03  0.22365377160E+03  0.00000000000E+00 0.  1.
          6    1    1    2  501    0  0.14091946111E+03 -0.12518300863E+02 -0.11688253858E+03  0.25220136836E+03  0.17300000000E+03 0.  1.
         -6    1    1    2    0  502 -0.14091946111E+03  0.12518300863E+02  0.28012674431E+03  0.35835038057E+03  0.17300000000E+03 0. -1.
<mgrwt>
<rscale>  2 0.22348155E+03</rscale>
<asrwt>0</asrwt>
<pdfrwt beam="1">  1       21 0.59522766E-01 0.22348155E+03</pdfrwt>
<pdfrwt beam="2">  1       21 0.34408273E-01 0.22348155E+03</pdfrwt>
<totfact> 0.21081053E+04</totfact>
</mgrwt>
</event>
<event>
 4    1  0.4053645E-001  0.1936640E+03  0.7546771E-02  0.1155198E+00
         21   -1    0    0  501  502  0.00000000000E+00  0.00000000000E+00  0.58949849528E+03  0.58949849528E+03  0.00000000000E+00 0.  1.
         21   -1    0    0  502  503 -0.00000000000E+00 -0.00000000000E+00 -0.68688151832E+02  0.68688151832E+02  0.00000000000E+00 0.  1.
          6    1    1    2  501    0 -0.51824044961E+02  0.69935913961E+02  0.34977008740E+03  0.39980605015E+03  0.17300000000E+03 0.  1.
         -6    1    1    2    0  503  0.51824044961E+02 -0.69935913961E+02  0.17104025605E+03  0.25838059696E+03  0.17300000000E+03 0.  1.
<mgrwt>
<rscale>  2 0.19366405E+03</rscale>
<asrwt>0</asrwt>
<pdfrwt beam="1">  1       21 0.90692073E-01 0.19366405E+03</pdfrwt>
<pdfrwt beam="2">  1       21 0.10567408E-01 0.19366405E+03</pdfrwt>
<totfact> 0.75926119E+04</totfact>
</mgrwt>
</event>
<event>
 4    1  0.4053645E-001  0.2540337E+03  0.7546771E-02  0.1110782E+00
         21   -1    0    0  503  502  0.00000000000E+00  0.00000000000E+00  0.19248823911E+04  0.19248823911E+04  0.00000000000E+00 0.  1.
         21   -1    0    0  501  503 -0.00000000000E+00 -0.00000000000E+00 -0.48166535992E+02  0.48166535992E+02  0.00000000000E+00 0.  1.
          6    1    1    2  501    0  0.17525684081E+03  0.62362998462E+02  0.39445985739E+03  0.46918192945E+03  0.17300000000E+03 0.  1.
         -6    1    1    2    0  502 -0.17525684081E+03 -0.62362998462E+02  0.14822559977E+04  0.15038669977E+04  0.17300000000E+03 0.  1.
<mgrwt>
<rscale>  2 0.25403367E+03</rscale>
<asrwt>0</asrwt>
<pdfrwt beam="1">  1       21 0.29613569E+00 0.25403367E+03</pdfrwt>
<pdfrwt beam="2">  1       21 0.74102378E-02 0.25403367E+03</pdfrwt>
<totfact> 0.46280994E+03</totfact>
</mgrwt>
</event>
<event>
 4    1  0.4053645E-001  0.1980184E+03  0.7546771E-02  0.1151422E+00
         21   -1    0    0  501  502  0.00000000000E+00  0.00000000000E+00  0.27838192070E+03  0.27838192070E+03  0.00000000000E+00 0.  1.
         21   -1    0    0  502  503 -0.00000000000E+00 -0.00000000000E+00 -0.14336962496E+03  0.14336962496E+03  0.00000000000E+00 0.  1.
          6    1    1    2  501    0  0.93554039650E+02  0.23019774893E+02  0.95438148788E+02  0.21981744384E+03  0.17300000000E+03 0.  1.
         -6    1    1    2    0  503 -0.93554039650E+02 -0.23019774893E+02  0.39574146959E+02  0.20193410182E+03  0.17300000000E+03 0.  1.
<mgrwt>
<rscale>  2 0.19801835E+03</rscale>
<asrwt>0</asrwt>
<pdfrwt beam="1">  1       21 0.42827988E-01 0.19801835E+03</pdfrwt>
<pdfrwt beam="2">  1       21 0.22056865E-01 0.19801835E+03</pdfrwt>
<totfact> 0.10050922E+05</totfact>
</mgrwt>
</event>
<event>
 4    1  0.4053645E-001  0.1809810E+03  0.7546771E-02  0.1166857E+00
         21   -1    0    0  501  502  0.00000000000E+00  0.00000000000E+00  0.13306905737E+04  0.13306905737E+04  0.00000000000E+00 0.  1.
         21   -1    0    0  502  503 -0.00000000000E+00 -0.00000000000E+00 -0.45528026601E+02  0.45528026601E+02  0.00000000000E+00 0. -1.
          6    1    1    2  501    0 -0.45152811299E+02  0.28041901362E+02  0.11089537240E+04  0.11236247090E+04  0.17300000000E+03 0.  1.
         -6    1    1    2    0  503  0.45152811299E+02 -0.28041901362E+02  0.17620882305E+03  0.25259389130E+03  0.17300000000E+03 0. -1.
<mgrwt>
<rscale>  2 0.18098101E+03</rscale>
<asrwt>0</asrwt>
<pdfrwt beam="1">  1       21 0.20472160E+00 0.18098101E+03</pdfrwt>
<pdfrwt beam="2">  1       21 0.70043128E-02 0.18098101E+03</pdfrwt>
<totfact> 0.19104057E+04</totfact>
</mgrwt>
</event>
<event>
 4    1  0.4053645E-001  0.2438088E+03  0.7546771E-02  0.1117281E+00
         21   -1    0    0  503  502  0.00000000000E+00  0.00000000000E+00  0.49491394626E+03  0.49491394626E+03  0.00000000000E+00 0.  1.
         21   -1    0    0  501  503 -0.00000000000E+00 -0.00000000000E+00 -0.12039745118E+03  0.12039745118E+03  0.00000000000E+00 0.  1.
          6    1    1    2  501    0 -0.16460277791E+03  0.49189891719E+02  0.17215202127E+03  0.29846111701E+03  0.17300000000E+03 0.  1.
         -6    1    1    2    0  502  0.16460277791E+03 -0.49189891719E+02  0.20236447382E+03  0.31685028043E+03  0.17300000000E+03 0.  1.
<mgrwt>
<rscale>  2 0.24380878E+03</rscale>
<asrwt>0</asrwt>
<pdfrwt beam="1">  1       21 0.76140606E-01 0.24380878E+03</pdfrwt>
<pdfrwt beam="2">  1       21 0.18522685E-01 0.24380878E+03</pdfrwt>
<totfact> 0.39929505E+04</totfact>
</mgrwt>
</event>
<event>
 4    1  0.4053645E-001  0.3026965E+03  0.7546771E-02  0.1083900E+00
         21   -1    0    0  503  502  0.00000000000E+00  0.00000000000E+00  0.36576685975E+03  0.36576685975E+03  0.00000000000E+00 0. -1.
         21   -1    0    0  501  503 -0.00000000000E+00 -0.00000000000E+00 -0.40683012999E+03  0.40683012999E+03  0.00000000000E+00 0. -1.
          6    1    1    2  501    0  0.24815650374E+03 -0.10701246315E+02 -0.25999310625E+03  0.39902579154E+03  0.17300000000E+03 0. -1.
         -6    1    1    2    0  502 -0.24815650374E+03  0.10701246315E+02  0.21892983601E+03  0.37357119819E+03  0.17300000000E+03 0. -1.
<mgrwt>
<rscale>  2 0.30269649E+03</rscale>
<asrwt>0</asrwt>
<pdfrwt beam="1">  1       21 0.56271825E-01 0.30269649E+03</pdfrwt>
<pdfrwt beam="2">  1       21 0.62589250E-01 0.30269649E+03</pdfrwt>
<totfact> 0.65799773E+03</totfact>
</mgrwt>
</event>
<event>
 4    1  0.4053645E-001  0.2135917E+03  0.7546771E-02  0.1138753E+00
         21   -1    0    0  501  502  0.00000000000E+00  0.00000000000E+00  0.82951523871E+02  0.82951523871E+02  0.00000000000E+00 0. -1.
         21   -1    0    0  502  503 -0.00000000000E+00 -0.00000000000E+00 -0.56009803731E+03  0.56009803731E+03  0.00000000000E+00 0. -1.
          6    1    1    2  501    0 -0.97102106005E+02 -0.79142877808E+02 -0.19535182846E+03  0.28945422951E+03  0.17300000000E+03 0. -1.
         -6    1    1    2    0  503  0.97102106005E+02  0.79142877808E+02 -0.28179468498E+03  0.35359533167E+03  0.17300000000E+03 0. -1.
<mgrwt>
<rscale>  2 0.21359170E+03</rscale>
<asrwt>0</asrwt>
<pdfrwt beam="1">  1       21 0.12761773E-01 0.21359170E+03</pdfrwt>
<pdfrwt beam="2">  1       21 0.86168929E-01 0.21359170E+03</pdfrwt>
<totfact> 0.60427187E+04</totfact>
</mgrwt>
</event>
<event>
 4    1  0.4053645E-001  0.2072913E+03  0.7546771E-02  0.1143729E+00
         21   -1    0    0  501  502  0.00000000000E+00  0.00000000000E+00  0.19064875731E+02  0.19064875731E+02  0.00000000000E+00 0. -1.
         21   -1    0    0  502  503 -0.00000000000E+00 -0.00000000000E+00 -0.22539211989E+04  0.22539211989E+04  0.00000000000E+00 0. -1.
          6    1    1    2  501    0  0.42370548084E+02 -0.10604441283E+03 -0.11230373124E+04  0.11420080936E+04  0.17300000000E+03 0.  1.
         -6    1    1    2    0  503 -0.42370548084E+02  0.10604441283E+03 -0.11118190108E+04  0.11309779810E+04  0.17300000000E+03 0.  1.
<mgrwt>
<rscale>  2 0.20729129E+03</rscale>
<asrwt>0</asrwt>
<pdfrwt beam="1">  1       21 0.29330563E-02 0.20729129E+03</pdfrwt>
<pdfrwt beam="2">  1       21 0.34675729E+00 0.20729129E+03</pdfrwt>
<totfact> 0.11805889E+04</totfact>
</mgrwt>
</event>
<event>
 4    1  0.4053645E-001  0.2379266E+03  0.7546771E-02  0.1121182E+00
         21   -1    0    0  501  502  0.00000000000E+00  0.00000000000E+00  0.17639125264E+03  0.17639125264E+03  0.00000000000E+00 0. -1.
         21   -1    0    0  502  503 -0.00000000000E+00 -0.00000000000E+00 -0.42269118267E+03  0.42269118267E+03  0.00000000000E+00 0. -1.
          6    1    1    2  501    0  0.73681219027E+02 -0.14577779764E+03  0.23823171133E+02  0.23911635620E+03  0.17300000000E+03 0. -1.
         -6    1    1    2    0  503 -0.73681219027E+02  0.14577779764E+03 -0.27012310116E+03  0.35996607910E+03  0.17300000000E+03 0. -1.
<mgrwt>
<rscale>  2 0.23792664E+03</rscale>
<asrwt>0</asrwt>
<pdfrwt beam="1">  1       21 0.27137116E-01 0.23792664E+03</pdfrwt>
<pdfrwt beam="2">  1       21 0.65029412E-01 0.23792664E+03</pdfrwt>
<totfact> 0.27515980E+04</totfact>
</mgrwt>
</event>
<event>
 4    1  0.4053645E-001  0.2152980E+03  0.7546771E-02  0.1137438E+00
         21   -1    0    0  503  502  0.00000000000E+00  0.00000000000E+00  0.22603723886E+04  0.22603723886E+04  0.00000000000E+00 0.  1.
         21   -1    0    0  501  503 -0.00000000000E+00 -0.00000000000E+00 -0.20631802297E+02  0.20631802297E+02  0.00000000000E+00 0. -1.
          6    1    1    2  501    0 -0.11749322767E+03 -0.51181774584E+02  0.10311319880E+04  0.10533690756E+04  0.17300000000E+03 0.  1.
         -6    1    1    2    0  502  0.11749322767E+03  0.51181774584E+02  0.12086085982E+04  0.12276351153E+04  0.17300000000E+03 0. -1.
<mgrwt>
<rscale>  2 0.21529801E+03</rscale>
<asrwt>0</asrwt>
<pdfrwt beam="1">  1       21 0.34774940E+00 0.21529801E+03</pdfrwt>
<pdfrwt beam="2">  1       21 0.31741252E-02 0.21529801E+03</pdfrwt>
<totfact> 0.10127486E+04</totfact>
</mgrwt>
</event>
<event>
 4    1  0.4053645E-001  0.1848185E+03  0.7546771E-02  0.1163220E+00
         21   -1    0    0  503  502  0.00000000000E+00  0.00000000000E+00  0.10378723287E+03  0.10378723287E+03  0.00000000000E+00 0. -1.
         21   -1    0    0  501  503 -0.00000000000E+00 -0.00000000000E+00 -0.33899932695E+03  0.33899932695E+03  0.00000000000E+00 0. -1.
          6    1    1    2  501    0 -0.44571449564E+02  0.47352448180E+02 -0.79800747631E+02  0.20131077415E+03  0.17300000000E+03 0. -1.
         -6    1    1    2    0  502  0.44571449564E+02 -0.47352448180E+02 -0.15541134644E+03  0.24147578568E+03  0.17300000000E+03 0. -1.
<mgrwt>
<rscale>  2 0.18481847E+03</rscale>
<asrwt>0</asrwt>
<pdfrwt beam="1">  1       21 0.15967266E-01 0.18481847E+03</pdfrwt>
<pdfrwt beam="2">  1       21 0.52153743E-01 0.18481847E+03</pdfrwt>
<totfact> 0.12243783E+05</totfact>
</mgrwt>
</event>
<event>
 4    1  0.4053645E-001  0.2572933E+03  0.7546771E-02  0.1108780E+00
         21   -1    0    0  503  502  0.00000000000E+00  0.00000000000E+00  0.35730322557E+03  0.35730322557E+03  0.00000000000E+00 0.  1.
         21   -1    0    0  501  503 -0.00000000000E+00 -0.00000000000E+00 -0.21017888513E+03  0.21017888513E+03  0.00000000000E+00 0. -1.
          6    1    1    2  501    0  0.81976139449E+02  0.17190333226E+03 -0.24105152206E+02  0.25842000976E+03  0.17300000000E+03 0. -1.
         -6    1    1    2    0  502 -0.81976139449E+02 -0.17190333226E+03  0.17122949264E+03  0.30906210093E+03  0.17300000000E+03 0.  1.
<mgrwt>
<rscale>  2 0.25729330E+03</rscale>
<asrwt>0</asrwt>
<pdfrwt beam="1">  1       21 0.54969727E-01 0.25729330E+03</pdfrwt>
<pdfrwt beam="2">  1       21 0.32335213E-01 0.25729330E+03</pdfrwt>
<totfact> 0.27819295E+04</totfact>
</mgrwt>
</event>
<event>
 4    1  0.4053645E-001  0.2708974E+03  0.7546771E-02  0.1100767E+00
         21   -1    0    0  501  502  0.00000000000E+00  0.00000000000E+00  0.65333268870E+02  0.65333268870E+02  0.00000000000E+00 0.  1.
         21   -1    0    0  502  503 -0.00000000000E+00 -0.00000000000E+00 -0.11301779516E+04  0.11301779516E+04  0.00000000000E+00 0.  1.
          6    1    1    2  501    0  0.18314632260E+03  0.99568144825E+02 -0.48561109705E+03  0.55606072377E+03  0.17300000000E+03 0.  1.
         -6    1    1    2    0  503 -0.18314632260E+03 -0.99568144825E+02 -0.57923358568E+03  0.63945049669E+03  0.17300000000E+03 0.  1.
<mgrwt>
<rscale>  2 0.27089738E+03</rscale>
<asrwt>0</asrwt>
<pdfrwt beam="1">  1       21 0.10051273E-01 0.27089738E+03</pdfrwt>
<pdfrwt beam="2">  1       21 0.17387352E+00 0.27089738E+03</pdfrwt>
<totfact> 0.15332486E+04</totfact>
</mgrwt>
</event>
<event>
 4    1  0.4053645E-001  0.1896717E+03  0.7546771E-02  0.1158758E+00
         21   -1    0    0  503  502  0.00000000000E+00  0.00000000000E+00  0.13139437014E+03  0.13139437014E+03  0.00000000000E+00 0. -1.
         21   -1    0    0  501  503 -0.00000000000E+00 -0.00000000000E+00 -0.33038057780E+03  0.33038057780E+03  0.00000000000E+00 0.  1.
          6    1    1    2  501    0  0.13154906415E+02 -0.76637560885E+02 -0.19504489195E+03  0.27206226710E+03  0.17300000000E+03 0.  1.
         -6    1    1    2    0  502 -0.13154906415E+02  0.76637560885E+02 -0.39413157112E+01  0.18971268084E+03  0.17300000000E+03 0. -1.
<mgrwt>
<rscale>  2 0.18967174E+03</rscale>
<asrwt>0</asrwt>
<pdfrwt beam="1">  1       21 0.20214519E-01 0.18967174E+03</pdfrwt>
<pdfrwt beam="2">  1       21 0.50827781E-01 0.18967174E+03</pdfrwt>
<totfact> 0.83416173E+04</totfact>
</mgrwt>
</event>
<event>
 4    1  0.4053645E-001  0.2194016E+03  0.7546771E-02  0.1134330E+00
         21   -1    0    0  501  502  0.00000000000E+00  0.00000000000E+00  0.80309143378E+02  0.80309143378E+02  0.00000000000E+00 0. -1.
         21   -1    0    0  502  503 -0.00000000000E+00 -0.00000000000E+00 -0.60628871828E+03  0.60628871828E+03  0.00000000000E+00 0. -1.
          6    1    1    2  501    0  0.25195125587E+02 -0.13256415314E+03 -0.29959143288E+03  0.37133822279E+03  0.17300000000E+03 0. -1.
         -6    1    1    2    0  503 -0.25195125587E+02  0.13256415314E+03 -0.22638814202E+03  0.31525963887E+03  0.17300000000E+03 0. -1.
<mgrwt>
<rscale>  2 0.21940157E+03</rscale>
<asrwt>0</asrwt>
<pdfrwt beam="1">  1       21 0.12355253E-01 0.21940157E+03</pdfrwt>
<pdfrwt beam="2">  1       21 0.93275185E-01 0.21940157E+03</pdfrwt>
<totfact> 0.53151889E+04</totfact>
</mgrwt>
</event>
<event>
 4    1  0.4053645E-001  0.2231027E+03  0.7546771E-02  0.1131591E+00
         21   -1    0    0  501  502  0.00000000000E+00  0.00000000000E+00  0.33106002366E+03  0.33106002366E+03  0.00000000000E+00 0. -1.
         21   -1    0    0  502  503 -0.00000000000E+00 -0.00000000000E+00 -0.15076588868E+03  0.15076588868E+03  0.00000000000E+00 0. -1.
          6    1    1    2  501    0  0.53194435450E+02 -0.13044600950E+03  0.77490965540E+02  0.23617717735E+03  0.17300000000E+03 0. -1.
         -6    1    1    2    0  503 -0.53194435450E+02  0.13044600950E+03  0.10280316944E+03  0.24564873499E+03  0.17300000000E+03 0. -1.
<mgrwt>
<rscale>  2 0.22310269E+03</rscale>
<asrwt>0</asrwt>
<pdfrwt beam="1">  1       21 0.50932311E-01 0.22310269E+03</pdfrwt>
<pdfrwt beam="2">  1       21 0.23194752E-01 0.22310269E+03</pdfrwt>
<totfact> 0.63177830E+04</totfact>
</mgrwt>
</event>
<event>
 4    1  0.4053645E-001  0.1765524E+03  0.7546771E-02  0.1171182E+00
         21   -1    0    0  503  502  0.00000000000E+00  0.00000000000E+00  0.31997373622E+03  0.31997373622E+03  0.00000000000E+00 0. -1.
         21   -1    0    0  501  503 -0.00000000000E+00 -0.00000000000E+00 -0.97485338373E+02  0.97485338373E+02  0.00000000000E+00 0. -1.
          6    1    1    2  501    0 -0.34383355307E+02  0.77166115370E+01  0.11678582753E+03  0.21168299584E+03  0.17300000000E+03 0.  1.
         -6    1    1    2    0  502  0.34383355307E+02 -0.77166115370E+01  0.10570257032E+03  0.20577607876E+03  0.17300000000E+03 0.  1.
<mgrwt>
<rscale>  2 0.17655243E+03</rscale>
<asrwt>0</asrwt>
<pdfrwt beam="1">  1       21 0.49226728E-01 0.17655243E+03</pdfrwt>
<pdfrwt beam="2">  1       21 0.14997745E-01 0.17655243E+03</pdfrwt>
<totfact> 0.15525542E+05</totfact>
</mgrwt>
</event>
<event>
 4    1  0.4053645E-001  0.2470985E+03  0.7546771E-02  0.1115152E+00
         21   -1    0    0  503  502  0.00000000000E+00  0.00000000000E+00  0.20576681253E+04  0.20576681253E+04  0.00000000000E+00 0.  1.
         21   -1    0    0  501  503 -0.00000000000E+00 -0.00000000000E+00 -0.30247646799E+02  0.30247646799E+02  0.00000000000E+00 0. -1.
          6    1    1    2  501    0 -0.17043822612E+03 -0.45601329671E+02  0.86984734503E+03  0.90426327684E+03  0.17300000000E+03 0.  1.
         -6    1    1    2    0  502  0.17043822612E+03  0.45601329671E+02  0.11575731335E+04  0.11836524953E+04  0.17300000000E+03 0. -1.
<mgrwt>
<rscale>  2 0.24709850E+03</rscale>
<asrwt>0</asrwt>
<pdfrwt beam="1">  1       21 0.31656422E+00 0.24709850E+03</pdfrwt>
<pdfrwt beam="2">  1       21 0.46534858E-02 0.24709850E+03</pdfrwt>
<totfact> 0.78739115E+03</totfact>
</mgrwt>
</event>
<event>
 4    1  0.4053645E-001  0.1931259E+03  0.7546771E-02  0.1155672E+00
         21   -1    0    0  501  502  0.00000000000E+00  0.00000000000E+00  0.13342463474E+04  0.13342463474E+04  0.00000000000E+00 0. -1.
         21   -1    0    0  502  503 -0.00000000000E+00 -0.00000000000E+00 -0.33878797811E+02  0.33878797811E+02  0.00000000000E+00 0. -1.
          6    1    1    2  501    0  0.69060872029E+02  0.50982527048E+02  0.93624952357E+03  0.95596066472E+03  0.17300000000E+03 0. -1.
         -6    1    1    2    0  503 -0.69060872029E+02 -0.50982527048E+02  0.36411802606E+03  0.41216448053E+03  0.17300000000E+03 0. -1.
<mgrwt>
<rscale>  2 0.19312592E+03</rscale>
<asrwt>0</asrwt>
<pdfrwt beam="1">  1       21 0.20526863E+00 0.19312592E+03</pdfrwt>
<pdfrwt beam="2">  1       21 0.52121237E-02 0.19312592E+03</pdfrwt>
<totfact> 0.31143397E+04</totfact>
</mgrwt>
</event>
<event>
 4    1  0.4053645E-001  0.1819804E+03  0.7546771E-02  0.1165900E+00
         21   -1    0    0  501  502  0.00000000000E+00  0.00000000000E+00  0.93277428450E+03  0.93277428450E+03  0.00000000000E+00 0. -1.
         21   -1    0    0  502  503 -0.00000000000E+00 -0.00000000000E+00 -0.38361108749E+02  0.38361108749E+02  0.00000000000E+00 0. -1.
          6    1    1    2  501    0 -0.17108013108E+02 -0.53806771014E+02  0.57973145388E+03  0.60762275413E+03  0.17300000000E+03 0. -1.
         -6    1    1    2    0  503  0.17108013108E+02  0.53806771014E+02  0.31468172187E+03  0.36351263912E+03  0.17300000000E+03 0. -1.
<mgrwt>
<rscale>  2 0.18198036E+03</rscale>
<asrwt>0</asrwt>
<pdfrwt beam="1">  1       21 0.14350372E+00 0.18198036E+03</pdfrwt>
<pdfrwt beam="2">  1       21 0.59017097E-02 0.18198036E+03</pdfrwt>
<totfact> 0.68445057E+04</totfact>
</mgrwt>
</event>
<event>
 4    1  0.4053645E-001  0.3246910E+03  0.7546771E-02  0.1073510E+00
         21   -1    0    0  503  502  0.00000000000E+00  0.00000000000E+00  0.34372412226E+03  0.34372412226E+03  0.00000000000E+00 0. -1.
         21   -1    0    0  501  503 -0.00000000000E+00 -0.00000000000E+00 -0.31609588059E+03  0.31609588059E+03  0.00000000000E+00 0.  1.
          6    1    1    2  501    0 -0.27242260306E+03  0.35793500075E+02 -0.43029480770E+02  0.32752982387E+03  0.17300000000E+03 0.  1.
         -6    1    1    2    0  502  0.27242260306E+03 -0.35793500075E+02  0.70657722440E+02  0.33229017898E+03  0.17300000000E+03 0. -1.
<mgrwt>
<rscale>  2 0.32469101E+03</rscale>
<asrwt>0</asrwt>
<pdfrwt beam="1">  1       21 0.52880634E-01 0.32469101E+03</pdfrwt>
<pdfrwt beam="2">  1       21 0.48630135E-01 0.32469101E+03</pdfrwt>
<totfact> 0.12784214E+04</totfact>
</mgrwt>
</event>
<event>
 4    1  0.4053645E-001  0.1798316E+03  0.7546771E-02  0.1167966E+00
         21   -1    0    0  501  502  0.00000000000E+00  0.00000000000E+00  0.13390900173E+04  0.13390900173E+04  0.00000000000E+00 0. -1.
         21   -1    0    0  502  503 -0.00000000000E+00 -0.00000000000E+00 -0.26672795005E+02  0.26672795005E+02  0.00000000000E+00 0.  1.
          6    1    1    2  501    0 -0.48320551687E+02 -0.86906392314E+01  0.44620457479E+03  0.48107995748E+03  0.17300000000E+03 0.  1.
         -6    1    1    2    0  503  0.48320551687E+02  0.86906392314E+01  0.86621264755E+03  0.88468285487E+03  0.17300000000E+03 0. -1.
<mgrwt>
<rscale>  2 0.17983160E+03</rscale>
<asrwt>0</asrwt>
<pdfrwt beam="1">  1       21 0.20601380E+00 0.17983160E+03</pdfrwt>
<pdfrwt beam="2">  1       21 0.41035080E-02 0.17983160E+03</pdfrwt>
<totfact> 0.46557414E+04</totfact>
</mgrwt>
</event>
<event>
 4    1  0.4053645E-001  0.1733051E+03  0.7546771E-02  0.1174444E+00
         21   -1    0    0  503  502  0.00000000000E+00  0.00000000000E+00  0.13449824049E+03  0.13449824049E+03  0.00000000000E+00 0. -1.
         21   -1    0    0  501  503 -0.00000000000E+00 -0.00000000000E+00 -0.22338726378E+03  0.22338726378E+03  0.00000000000E+00 0. -1.
          6    1    1    2  501    0 -0.10233259126E+02 -0.97122594796E+00 -0.41094375039E+02  0.17811066934E+03  0.17300000000E+03 0. -1.
         -6    1    1    2    0  502  0.10233259126E+02  0.97122594796E+00 -0.47794648255E+02  0.17977483493E+03  0.17300000000E+03 0. -1.
<mgrwt>
<rscale>  2 0.17330511E+03</rscale>
<asrwt>0</asrwt>
<pdfrwt beam="1">  1       21 0.20692037E-01 0.17330511E+03</pdfrwt>
<pdfrwt beam="2">  1       21 0.34367271E-01 0.17330511E+03</pdfrwt>
<totfact> 0.17776432E+05</totfact>
</mgrwt>
</event>
<event>
 4    1  0.4053645E-001  0.2152053E+03  0.7546771E-02  0.1137509E+00
         21   -1    0    0  503  502  0.00000000000E+00  0.00000000000E+00  0.27529552393E+03  0.27529552393E+03  0.00000000000E+00 0.  1.
         21   -1    0    0  501  503 -0.00000000000E+00 -0.00000000000E+00 -0.18529569077E+03  0.18529569077E+03  0.00000000000E+00 0. -1.
          6    1    1    2  501    0  0.11093395176E+03 -0.63859130767E+02 -0.24887356387E+02  0.21663958720E+03  0.17300000000E+03 0.  1.
         -6    1    1    2    0  502 -0.11093395176E+03  0.63859130767E+02  0.11488718955E+03  0.24395162749E+03  0.17300000000E+03 0.  1.
<mgrwt>
<rscale>  2 0.21520532E+03</rscale>
<asrwt>0</asrwt>
<pdfrwt beam="1">  1       21 0.42353158E-01 0.21520532E+03</pdfrwt>
<pdfrwt beam="2">  1       21 0.28507029E-01 0.21520532E+03</pdfrwt>
<totfact> 0.62481893E+04</totfact>
</mgrwt>
</event>
<event>
 4    1  0.4053645E-001  0.2851872E+03  0.7546771E-02  0.1092889E+00
         21   -1    0    0  503  502  0.00000000000E+00  0.00000000000E+00  0.15461761921E+04  0.15461761921E+04  0.00000000000E+00 0. -1.
         21   -1    0    0  501  503 -0.00000000000E+00 -0.00000000000E+00 -0.10350448821E+03  0.10350448821E+03  0.00000000000E+00 0.  1.
          6    1    1    2  501    0  0.98701248733E+01  0.22650678378E+03  0.14289306768E+03  0.31898302659E+03  0.17300000000E+03 0.  1.
         -6    1    1    2    0  502 -0.98701248733E+01 -0.22650678378E+03  0.12997786362E+04  0.13306976537E+04  0.17300000000E+03 0. -1.
<mgrwt>
<rscale>  2 0.28518721E+03</rscale>
<asrwt>0</asrwt>
<pdfrwt beam="1">  1       21 0.23787324E+00 0.28518721E+03</pdfrwt>
<pdfrwt beam="2">  1       21 0.15923769E-01 0.28518721E+03</pdfrwt>
<totfact> 0.25387782E+03</totfact>
</mgrwt>
</event>
<event>
 4    1  0.4053645E-001  0.2447190E+03  0.7546771E-02  0.1116688E+00
         21   -1    0    0  503  502  0.00000000000E+00  0.00000000000E+00  0.10453223163E+03  0.10453223163E+03  0.00000000000E+00 0.  1.
         21   -1    0    0  501  503 -0.00000000000E+00 -0.00000000000E+00 -0.69799502036E+03  0.69799502036E+03  0.00000000000E+00 0. -1.
          6    1    1    2  501    0  0.16845863306E+03  0.39750390716E+02 -0.46659833971E+03  0.52687893794E+03  0.17300000000E+03 0.  1.
         -6    1    1    2    0  502 -0.16845863306E+03 -0.39750390716E+02 -0.12686444902E+03  0.27564831405E+03  0.17300000000E+03 0.  1.
<mgrwt>
<rscale>  2 0.24471903E+03</rscale>
<asrwt>0</asrwt>
<pdfrwt beam="1">  1       21 0.16081882E-01 0.24471903E+03</pdfrwt>
<pdfrwt beam="2">  1       21 0.10738385E+00 0.24471903E+03</pdfrwt>
<totfact> 0.23224203E+04</totfact>
</mgrwt>
</event>
<event>
 4    1  0.4053645E-001  0.2045552E+03  0.7546771E-02  0.1145952E+00
         21   -1    0    0  501  502  0.00000000000E+00  0.00000000000E+00  0.32339441918E+03  0.32339441918E+03  0.00000000000E+00 0. -1.
         21   -1    0    0  502  503 -0.00000000000E+00 -0.00000000000E+00 -0.12967871655E+03  0.12967871655E+03  0.00000000000E+00 0. -1.
          6    1    1    2  501    0  0.10711414875E+03  0.20985052614E+02  0.10761485348E+03  0.23113582584E+03  0.17300000000E+03 0. -1.
         -6    1    1    2    0  503 -0.10711414875E+03 -0.20985052614E+02  0.86100849148E+02  0.22193730989E+03  0.17300000000E+03 0. -1.
<mgrwt>
<rscale>  2 0.20455516E+03</rscale>
<asrwt>0</asrwt>
<pdfrwt beam="1">  1       21 0.49752987E-01 0.20455516E+03</pdfrwt>
<pdfrwt beam="2">  1       21 0.19950572E-01 0.20455516E+03</pdfrwt>
<totfact> 0.88836328E+04</totfact>
</mgrwt>
</event>
<event>
 4    1  0.4053645E-001  0.1910147E+03  0.7546771E-02  0.1157549E+00
         21   -1    0    0  503  502  0.00000000000E+00  0.00000000000E+00  0.46413511646E+02  0.46413511646E+02  0.00000000000E+00 0. -1.
         21   -1    0    0  501  503 -0.00000000000E+00 -0.00000000000E+00 -0.80459527047E+03  0.80459527047E+03  0.00000000000E+00 0. -1.
          6    1    1    2  501    0  0.63129968727E+02  0.50717191323E+02 -0.31461438390E+03  0.36806091480E+03  0.17300000000E+03 0.  1.
         -6    1    1    2    0  502 -0.63129968727E+02 -0.50717191323E+02 -0.44356737492E+03  0.48294786731E+03  0.17300000000E+03 0.  1.
<mgrwt>
<rscale>  2 0.19101473E+03</rscale>
<asrwt>0</asrwt>
<pdfrwt beam="1">  1       21 0.71405413E-02 0.19101473E+03</pdfrwt>
<pdfrwt beam="2">  1       21 0.12378387E+00 0.19101473E+03</pdfrwt>
<totfact> 0.71503866E+04</totfact>
</mgrwt>
</event>
<event>
 4    1  0.4053645E-001  0.1872217E+03  0.7546771E-02  0.1160991E+00
         21   -1    0    0  501  502  0.00000000000E+00  0.00000000000E+00  0.34317937824E+03  0.34317937824E+03  0.00000000000E+00 0. -1.
         21   -1    0    0  502  503 -0.00000000000E+00 -0.00000000000E+00 -0.11245357087E+03  0.11245357087E+03  0.00000000000E+00 0. -1.
          6    1    1    2  501    0 -0.55982160620E+02  0.44597736804E+02  0.18435930183E+03  0.26275523326E+03  0.17300000000E+03 0. -1.
         -6    1    1    2    0  503  0.55982160620E+02 -0.44597736804E+02  0.46366505542E+02  0.19287771585E+03  0.17300000000E+03 0. -1.
<mgrwt>
<rscale>  2 0.18722169E+03</rscale>
<asrwt>0</asrwt>
<pdfrwt beam="1">  1       21 0.52796827E-01 0.18722169E+03</pdfrwt>
<pdfrwt beam="2">  1       21 0.17300549E-01 0.18722169E+03</pdfrwt>
<totfact> 0.10291285E+05</totfact>
</mgrwt>
</event>
<event>
 4    1  0.4053645E-001  0.2352823E+03  0.7546771E-02  0.1122976E+00
         21   -1    0    0  503  502  0.00000000000E+00  0.00000000000E+00  0.22431515419E+03  0.22431515419E+03  0.00000000000E+00 0.  1.
         21   -1    0    0  501  503 -0.00000000000E+00 -0.00000000000E+00 -0.24679073867E+03  0.24679073867E+03  0.00000000000E+00 0. -1.
          6    1    1    2  501    0 -0.42075600308E+02 -0.15381283631E+03 -0.12315049034E+02  0.23560434034E+03  0.17300000000E+03 0.  1.
         -6    1    1    2    0  502  0.42075600308E+02  0.15381283631E+03 -0.10160535451E+02  0.23550155251E+03  0.17300000000E+03 0.  1.
<mgrwt>
<rscale>  2 0.23528227E+03</rscale>
<asrwt>0</asrwt>
<pdfrwt beam="1">  1       21 0.34510024E-01 0.23528227E+03</pdfrwt>
<pdfrwt beam="2">  1       21 0.37967806E-01 0.23528227E+03</pdfrwt>
<totfact> 0.53107643E+04</totfact>
</mgrwt>
</event>
<event>
 4    1  0.4053645E-001  0.2646590E+03  0.7546771E-02  0.1104376E+00
         21   -1    0    0  503  502  0.00000000000E+00  0.00000000000E+00  0.21867221586E+04  0.21867221586E+04  0.00000000000E+00 0.  1.
         21   -1    0    0  501  503 -0.00000000000E+00 -0.00000000000E+00 -0.42925510493E+02  0.42925510493E+02  0.00000000000E+00 0.  1.
          6    1    1    2  501    0  0.12921761732E+03 -0.15303002009E+03  0.51028311429E+03  0.57483322486E+03  0.17300000000E+03 0.  1.
         -6    1    1    2    0  502 -0.12921761732E+03  0.15303002009E+03  0.16335135338E+04  0.16548144442E+04  0.17300000000E+03 0.  1.
<mgrwt>
<rscale>  2 0.26465899E+03</rscale>
<asrwt>0</asrwt>
<pdfrwt beam="1">  1       21 0.33641871E+00 0.26465899E+03</pdfrwt>
<pdfrwt beam="2">  1       21 0.66039264E-02 0.26465899E+03</pdfrwt>
<totfact> 0.32465720E+03</totfact>
</mgrwt>
</event>
<event>
 4    1  0.4053645E-001  0.2397381E+03  0.7546771E-02  0.1119967E+00
         21   -1    0    0  503  502  0.00000000000E+00  0.00000000000E+00  0.22650064771E+03  0.22650064771E+03  0.00000000000E+00 0. -1.
         21   -1    0    0  501  503 -0.00000000000E+00 -0.00000000000E+00 -0.25567962645E+03  0.25567962645E+03  0.00000000000E+00 0. -1.
          6    1    1    2  501    0 -0.12688356559E+03  0.10698555578E+03 -0.35538469058E+02  0.24235785761E+03  0.17300000000E+03 0. -1.
         -6    1    1    2    0  502  0.12688356559E+03 -0.10698555578E+03  0.63594903248E+01  0.23982241655E+03  0.17300000000E+03 0. -1.
<mgrwt>
<rscale>  2 0.23973808E+03</rscale>
<asrwt>0</asrwt>
<pdfrwt beam="1">  1       21 0.34846253E-01 0.23973808E+03</pdfrwt>
<pdfrwt beam="2">  1       21 0.39335327E-01 0.23973808E+03</pdfrwt>
<totfact> 0.48408996E+04</totfact>
</mgrwt>
</event>
<event>
 4    1  0.4053645E-001  0.2810636E+03  0.7546771E-02  0.1095109E+00
         21   -1    0    0  503  502  0.00000000000E+00  0.00000000000E+00  0.18640679962E+03  0.18640679962E+03  0.00000000000E+00 0. -1.
         21   -1    0    0  501  503 -0.00000000000E+00 -0.00000000000E+00 -0.42384142215E+03  0.42384142215E+03  0.00000000000E+00 0.  1.
          6    1    1    2  501    0 -0.19550324639E+03  0.10414534653E+03 -0.12217580995E+03  0.30646973927E+03  0.17300000000E+03 0.  1.
         -6    1    1    2    0  502  0.19550324639E+03 -0.10414534653E+03 -0.11525881258E+03  0.30377848250E+03  0.17300000000E+03 0. -1.
<mgrwt>
<rscale>  2 0.28106365E+03</rscale>
<asrwt>0</asrwt>
<pdfrwt beam="1">  1       21 0.28677970E-01 0.28106365E+03</pdfrwt>
<pdfrwt beam="2">  1       21 0.65206371E-01 0.28106365E+03</pdfrwt>
<totfact> 0.24099131E+04</totfact>
</mgrwt>
</event>
<event>
 4    1  0.4053645E-001  0.1857176E+03  0.7546771E-02  0.1162381E+00
         21   -1    0    0  501  502  0.00000000000E+00  0.00000000000E+00  0.31819125720E+02  0.31819125720E+02  0.00000000000E+00 0. -1.
         21   -1    0    0  502  503 -0.00000000000E+00 -0.00000000000E+00 -0.20644981029E+04  0.20644981029E+04  0.00000000000E+00 0. -1.
          6    1    1    2  501    0  0.12063726381E+02  0.66456715339E+02 -0.29398656801E+03  0.34773428171E+03  0.17300000000E+03 0. -1.
         -6    1    1    2    0  503 -0.12063726381E+02 -0.66456715339E+02 -0.17386924092E+04  0.17485829469E+04  0.17300000000E+03 0. -1.
<mgrwt>
<rscale>  2 0.18571760E+03</rscale>
<asrwt>0</asrwt>
<pdfrwt beam="1">  1       21 0.48952499E-02 0.18571760E+03</pdfrwt>
<pdfrwt beam="2">  1       21 0.31761510E+00 0.18571760E+03</pdfrwt>
<totfact> 0.75945557E+03</totfact>
</mgrwt>
</event>
<event>
 4    1  0.4053645E-001  0.1740577E+03  0.7546771E-02  0.1173681E+00
         21   -1    0    0  503  502  0.00000000000E+00  0.00000000000E+00  0.23251551906E+02  0.23251551906E+02  0.00000000000E+00 0.  1.
         21   -1    0    0  501  503 -0.00000000000E+00 -0.00000000000E+00 -0.13663708960E+04  0.13663708960E+04  0.00000000000E+00 0.  1.
          6    1    1    2  501    0  0.70702052381E+01  0.17806877335E+02 -0.82122820517E+03  0.83947116546E+03  0.17300000000E+03 0.  1.
         -6    1    1    2    0  502 -0.70702052381E+01 -0.17806877335E+02 -0.52189113893E+03  0.55015128245E+03  0.17300000000E+03 0.  1.
<mgrwt>
<rscale>  2 0.17405767E+03</rscale>
<asrwt>0</asrwt>
<pdfrwt beam="1">  1       21 0.35771603E-02 0.17405767E+03</pdfrwt>
<pdfrwt beam="2">  1       21 0.21021100E+00 0.17405767E+03</pdfrwt>
<totfact> 0.55339502E+04</totfact>
</mgrwt>
</event>
<event>
 4    1  0.4053645E-001  0.1767845E+03  0.7546771E-02  0.1170952E+00
         21   -1    0    0  501  502  0.00000000000E+00  0.00000000000E+00  0.22775931807E+03  0.22775931807E+03  0.00000000000E+00 0.  1.
         21   -1    0    0  502  503 -0.00000000000E+00 -0.00000000000E+00 -0.15741960211E+03  0.15741960211E+03  0.00000000000E+00 0. -1.
          6    1    1    2  501    0 -0.36167770158E+02  0.39559498783E+01  0.10416083370E+03  0.20518829503E+03  0.17300000000E+03 0.  1.
         -6    1    1    2    0  503  0.36167770158E+02 -0.39559498783E+01 -0.33821117743E+02  0.17999062515E+03  0.17300000000E+03 0. -1.
<mgrwt>
<rscale>  2 0.17678449E+03</rscale>
<asrwt>0</asrwt>
<pdfrwt beam="1">  1       21 0.35039895E-01 0.17678449E+03</pdfrwt>
<pdfrwt beam="2">  1       21 0.24218400E-01 0.17678449E+03</pdfrwt>
<totfact> 0.12704318E+05</totfact>
</mgrwt>
</event>
<event>
 4    1  0.4053645E-001  0.2082516E+03  0.7546771E-02  0.1142958E+00
         21   -1    0    0  503  502  0.00000000000E+00  0.00000000000E+00  0.47647885137E+02  0.47647885137E+02  0.00000000000E+00 0. -1.
         21   -1    0    0  501  503 -0.00000000000E+00 -0.00000000000E+00 -0.10278964800E+04  0.10278964800E+04  0.00000000000E+00 0. -1.
          6    1    1    2  501    0 -0.10924470562E+03  0.38798247664E+02 -0.67210305190E+03  0.70362718971E+03  0.17300000000E+03 0. -1.
         -6    1    1    2    0  502  0.10924470562E+03 -0.38798247664E+02 -0.30814554296E+03  0.37191717543E+03  0.17300000000E+03 0. -1.
<mgrwt>
<rscale>  2 0.20825155E+03</rscale>
<asrwt>0</asrwt>
<pdfrwt beam="1">  1       21 0.73304442E-02 0.20825155E+03</pdfrwt>
<pdfrwt beam="2">  1       21 0.15813791E+00 0.20825155E+03</pdfrwt>
<totfact> 0.35933993E+04</totfact>
</mgrwt>
</event>
<event>
 4    1  0.4053645E-001  0.1787416E+03  0.7546771E-02  0.1169027E+00
         21   -1    0    0  503  502  0.00000000000E+00  0.00000000000E+00  0.48912080892E+03  0.48912080892E+03  0.00000000000E+00 0.  1.
         21   -1    0    0  501  503 -0.00000000000E+00 -0.00000000000E+00 -0.75425492307E+02  0.75425492307E+02  0.00000000000E+00 0.  1.
          6    1    1    2  501    0 -0.57923203412E+01 -0.44564628712E+02  0.10351799952E+03  0.20655394775E+03  0.17300000000E+03 0. -1.
         -6    1    1    2    0  502  0.57923203412E+01  0.44564628712E+02  0.31017731709E+03  0.35799235347E+03  0.17300000000E+03 0. -1.
<mgrwt>
<rscale>  2 0.17874159E+03</rscale>
<asrwt>0</asrwt>
<pdfrwt beam="1">  1       21 0.75249353E-01 0.17874159E+03</pdfrwt>
<pdfrwt beam="2">  1       21 0.11603922E-01 0.17874159E+03</pdfrwt>
<totfact> 0.98874613E+04</totfact>
</mgrwt>
</event>
<event>
 4    1  0.4053645E-001  0.3417739E+03  0.7546771E-02  0.1066043E+00
         21   -1    0    0  501  502  0.00000000000E+00  0.00000000000E+00  0.34000694034E+03  0.34000694034E+03  0.00000000000E+00 0.  1.
         21   -1    0    0  502  503 -0.00000000000E+00 -0.00000000000E+00 -0.51846621298E+03  0.51846621298E+03  0.00000000000E+00 0. -1.
          6    1    1    2  501    0 -0.28549514829E+03  0.73300050073E+02 -0.33854644108E+03  0.48106451731E+03  0.17300000000E+03 0.  1.
         -6    1    1    2    0  503  0.28549514829E+03 -0.73300050073E+02  0.16008716845E+03  0.37740863602E+03  0.17300000000E+03 0. -1.
<mgrwt>
<rscale>  2 0.34177387E+03</rscale>
<asrwt>0</asrwt>
<pdfrwt beam="1">  1       21 0.52308760E-01 0.34177387E+03</pdfrwt>
<pdfrwt beam="2">  1       21 0.79764033E-01 0.34177387E+03</pdfrwt>
<totfact> 0.43889949E+03</totfact>
</mgrwt>
</event>
<event>
 4    1  0.4053645E-001  0.2248753E+03  0.7546771E-02  0.1130300E+00
         21   -1    0    0  501  502  0.00000000000E+00  0.00000000000E+00  0.57841756586E+03  0.57841756586E+03  0.00000000000E+00 0. -1.
         21   -1    0    0  502  503 -0.00000000000E+00 -0.00000000000E+00 -0.87538084366E+02  0.87538084366E+02  0.00000000000E+00 0.  1.
          6    1    1    2  501    0 -0.93033430608E+02  0.10947453833E+03  0.25733993240E+03  0.34174952020E+03  0.17300000000E+03 0. -1.
         -6    1    1    2    0  503  0.93033430608E+02 -0.10947453833E+03  0.23353954909E+03  0.32420613002E+03  0.17300000000E+03 0. -1.
<mgrwt>
<rscale>  2 0.22487528E+03</rscale>
<asrwt>0</asrwt>
<pdfrwt beam="1">  1       21 0.88987315E-01 0.22487528E+03</pdfrwt>
<pdfrwt beam="2">  1       21 0.13467398E-01 0.22487528E+03</pdfrwt>
<totfact> 0.50638512E+04</totfact>
</mgrwt>
</event>
<event>
 4    1  0.4053645E-001  0.1919197E+03  0.7546771E-02  0.1156741E+00
         21   -1    0    0  501  502  0.00000000000E+00  0.00000000000E+00  0.47752805263E+02  0.47752805263E+02  0.00000000000E+00 0.  1.
         21   -1    0    0  502  503 -0.00000000000E+00 -0.00000000000E+00 -0.81274318559E+03  0.81274318559E+03  0.00000000000E+00 0.  1.
          6    1    1    2  501    0 -0.81714588866E+02 -0.15063061652E+02 -0.47961585861E+03  0.51658933563E+03  0.17300000000E+03 0.  1.
         -6    1    1    2    0  503  0.81714588866E+02  0.15063061652E+02 -0.28537452172E+03  0.34390665522E+03  0.17300000000E+03 0.  1.
<mgrwt>
<rscale>  2 0.19191970E+03</rscale>
<asrwt>0</asrwt>
<pdfrwt beam="1">  1       21 0.73465856E-02 0.19191970E+03</pdfrwt>
<pdfrwt beam="2">  1       21 0.12503741E+00 0.19191970E+03</pdfrwt>
<totfact> 0.66348298E+04</totfact>
</mgrwt>
</event>
<event>
 4    1  0.4053645E-001  0.2441647E+03  0.7546771E-02  0.1117049E+00
         21   -1    0    0  503  502  0.00000000000E+00  0.00000000000E+00  0.70565197442E+02  0.70565197442E+02  0.00000000000E+00 0. -1.
         21   -1    0    0  501  503 -0.00000000000E+00 -0.00000000000E+00 -0.89534704804E+03  0.89534704804E+03  0.00000000000E+00 0.  1.
          6    1    1    2  501    0 -0.17183695599E+03 -0.12628019551E+02 -0.52709572056E+03  0.58090128675E+03  0.17300000000E+03 0.  1.
         -6    1    1    2    0  502  0.17183695599E+03  0.12628019551E+02 -0.29768613004E+03  0.38501095873E+03  0.17300000000E+03 0. -1.
<mgrwt>
<rscale>  2 0.24416471E+03</rscale>
<asrwt>0</asrwt>
<pdfrwt beam="1">  1       21 0.10856183E-01 0.24416471E+03</pdfrwt>
<pdfrwt beam="2">  1       21 0.13774571E+00 0.24416471E+03</pdfrwt>
<totfact> 0.25407078E+04</totfact>
</mgrwt>
</event>
<event>
 4    1  0.4053645E-001  0.1837887E+03  0.7546771E-02  0.1164186E+00
         21   -1    0    0  503  502  0.00000000000E+00  0.00000000000E+00  0.10364156249E+03  0.10364156249E+03  0.00000000000E+00 0.  1.
         21   -1    0    0  501  503 -0.00000000000E+00 -0.00000000000E+00 -0.36562032119E+03  0.36562032119E+03  0.00000000000E+00 0.  1.
          6    1    1    2  501    0 -0.39427810307E+02  0.47903399073E+02 -0.20831033627E+03  0.27779755950E+03  0.17300000000E+03 0.  1.
         -6    1    1    2    0  502  0.39427810307E+02 -0.47903399073E+02 -0.53668422424E+02  0.19146432418E+03  0.17300000000E+03 0.  1.
<mgrwt>
<rscale>  2 0.18378870E+03</rscale>
<asrwt>0</asrwt>
<pdfrwt beam="1">  1       21 0.15944856E-01 0.18378870E+03</pdfrwt>
<pdfrwt beam="2">  1       21 0.56249278E-01 0.18378870E+03</pdfrwt>
<totfact> 0.10470771E+05</totfact>
</mgrwt>
</event>
<event>
 4    1  0.4053645E-001  0.3766796E+03  0.7546771E-02  0.1052168E+00
         21   -1    0    0  503  502  0.00000000000E+00  0.00000000000E+00  0.77089572538E+03  0.77089572538E+03  0.00000000000E+00 0.  1.
         21   -1    0    0  501  503 -0.00000000000E+00 -0.00000000000E+00 -0.18504835602E+03  0.18504835602E+03  0.00000000000E+00 0. -1.
          6    1    1    2  501    0 -0.33440553021E+03 -0.11467028555E+02  0.25791173533E+03  0.45651507598E+03  0.17300000000E+03 0. -1.
         -6    1    1    2    0  502  0.33440553021E+03  0.11467028555E+02  0.32793563403E+03  0.49942900541E+03  0.17300000000E+03 0.  1.
<mgrwt>
<rscale>  2 0.37667964E+03</rscale>
<asrwt>0</asrwt>
<pdfrwt beam="1">  1       21 0.11859934E+00 0.37667964E+03</pdfrwt>
<pdfrwt beam="2">  1       21 0.28468978E-01 0.37667964E+03</pdfrwt>
<totfact> 0.57860978E+03</totfact>
</mgrwt>
</event>
<event>
 4    1  0.4053645E-001  0.2905653E+03  0.7546771E-02  0.1090054E+00
         21   -1    0    0  503  502  0.00000000000E+00  0.00000000000E+00  0.10062805251E+04  0.10062805251E+04  0.00000000000E+00 0.  1.
         21   -1    0    0  501  503 -0.00000000000E+00 -0.00000000000E+00 -0.96772114906E+02  0.96772114906E+02  0.00000000000E+00 0.  1.
          6    1    1    2  501    0  0.17206748786E+03 -0.15777196953E+03  0.25361596631E+03  0.38568027317E+03  0.17300000000E+03 0.  1.
         -6    1    1    2    0  502 -0.17206748786E+03  0.15777196953E+03  0.65589244388E+03  0.71737236683E+03  0.17300000000E+03 0.  1.
<mgrwt>
<rscale>  2 0.29056534E+03</rscale>
<asrwt>0</asrwt>
<pdfrwt beam="1">  1       21 0.15481238E+00 0.29056534E+03</pdfrwt>
<pdfrwt beam="2">  1       21 0.14888018E-01 0.29056534E+03</pdfrwt>
<totfact> 0.10278515E+04</totfact>
</mgrwt>
</event>
<event>
 4    1  0.4053645E-001  0.1844618E+03  0.7546771E-02  0.1163553E+00
         21   -1    0    0  501  502  0.00000000000E+00  0.00000000000E+00  0.73544749254E+03  0.73544749254E+03  0.00000000000E+00 0. -1.
         21   -1    0    0  502  503 -0.00000000000E+00 -0.00000000000E+00 -0.11794716937E+03  0.11794716937E+03  0.00000000000E+00 0. -1.
          6    1    1    2  501    0  0.60942674916E+02  0.19574424182E+02  0.64139354946E+03  0.66739182869E+03  0.17300000000E+03 0. -1.
         -6    1    1    2    0  503 -0.60942674916E+02 -0.19574424182E+02 -0.23893226289E+02  0.18600283323E+03  0.17300000000E+03 0. -1.
<mgrwt>
<rscale>  2 0.18446183E+03</rscale>
<asrwt>0</asrwt>
<pdfrwt beam="1">  1       21 0.11314576E+00 0.18446183E+03</pdfrwt>
<pdfrwt beam="2">  1       21 0.18145719E-01 0.18446183E+03</pdfrwt>
<totfact> 0.16960457E+04</totfact>
</mgrwt>
</event>
<event>
 4    1  0.4053645E-001  0.3480152E+03  0.7546771E-02  0.1063433E+00
         21   -1    0    0  501  502  0.00000000000E+00  0.00000000000E+00  0.11300836468E+04  0.11300836468E+04  0.00000000000E+00 0. -1.
         21   -1    0    0  502  503 -0.00000000000E+00 -0.00000000000E+00 -0.11490055064E+03  0.11490055064E+03  0.00000000000E+00 0.  1.
          6    1    1    2  501    0  0.27603855198E+03 -0.12242679305E+03  0.66902370849E+03  0.75412686224E+03  0.17300000000E+03 0.  1.
         -6    1    1    2    0  503 -0.27603855198E+03  0.12242679305E+03  0.34615938763E+03  0.49085733516E+03  0.17300000000E+03 0.  1.
<mgrwt>
<rscale>  2 0.34801523E+03</rscale>
<asrwt>0</asrwt>
<pdfrwt beam="1">  1       21 0.17385901E+00 0.34801523E+03</pdfrwt>
<pdfrwt beam="2">  1       21 0.17677009E-01 0.34801523E+03</pdfrwt>
<totfact> 0.52649381E+03</totfact>
</mgrwt>
</event>
<event>
 4    1  0.4053645E-001  0.1799628E+03  0.7546771E-02  0.1167839E+00
         21   -1    0    0  503  502  0.00000000000E+00  0.00000000000E+00  0.87813660199E+02  0.87813660199E+02  0.00000000000E+00 0. -1.
         21   -1    0    0  501  503 -0.00000000000E+00 -0.00000000000E+00 -0.43052652219E+03  0.43052652219E+03  0.00000000000E+00 0. -1.
          6    1    1    2  501    0  0.19749390431E+02  0.45470447595E+02 -0.26948238346E+03  0.32404838377E+03  0.17300000000E+03 0. -1.
         -6    1    1    2    0  502 -0.19749390431E+02 -0.45470447595E+02 -0.73230478536E+02  0.19429179863E+03  0.17300000000E+03 0. -1.
<mgrwt>
<rscale>  2 0.17996277E+03</rscale>
<asrwt>0</asrwt>
<pdfrwt beam="1">  1       21 0.13509794E-01 0.17996277E+03</pdfrwt>
<pdfrwt beam="2">  1       21 0.66234849E-01 0.17996277E+03</pdfrwt>
<totfact> 0.99694389E+04</totfact>
</mgrwt>
</event>
<event>
 4    1  0.4053645E-001  0.1840210E+03  0.7546771E-02  0.1163967E+00
         21   -1    0    0  503  502  0.00000000000E+00  0.00000000000E+00  0.20507906027E+03  0.20507906027E+03  0.00000000000E+00 0.  1.
         21   -1    0    0  501  503 -0.00000000000E+00 -0.00000000000E+00 -0.18718371064E+03  0.18718371064E+03  0.00000000000E+00 0. -1.
          6    1    1    2  501    0 -0.55560727376E+02  0.29116107696E+02  0.76276361024E+02  0.19920297539E+03  0.17300000000E+03 0.  1.
         -6    1    1    2    0  502  0.55560727376E+02 -0.29116107696E+02 -0.58381011398E+02  0.19305979552E+03  0.17300000000E+03 0. -1.
<mgrwt>
<rscale>  2 0.18402104E+03</rscale>
<asrwt>0</asrwt>
<pdfrwt beam="1">  1       21 0.31550624E-01 0.18402104E+03</pdfrwt>
<pdfrwt beam="2">  1       21 0.28797494E-01 0.18402104E+03</pdfrwt>
<totfact> 0.11176732E+05</totfact>
</mgrwt>
</event>
<event>
 4    1  0.4053645E-001  0.2746552E+03  0.7546771E-02  0.1098644E+00
         21   -1    0    0  503  502  0.00000000000E+00  0.00000000000E+00  0.10561335273E+04  0.10561335273E+04  0.00000000000E+00 0.  1.
         21   -1    0    0  501  503 -0.00000000000E+00 -0.00000000000E+00 -0.10554745169E+03  0.10554745169E+03  0.00000000000E+00 0.  1.
          6    1    1    2  501    0 -0.21330385257E+03 -0.28198909350E+01  0.14504047063E+03  0.31059978014E+03  0.17300000000E+03 0.  1.
         -6    1    1    2    0  502  0.21330385257E+03  0.28198909350E+01  0.80554560499E+03  0.85108119885E+03  0.17300000000E+03 0.  1.
<mgrwt>
<rscale>  2 0.27465521E+03</rscale>
<asrwt>0</asrwt>
<pdfrwt beam="1">  1       21 0.16248207E+00 0.27465521E+03</pdfrwt>
<pdfrwt beam="2">  1       21 0.16238070E-01 0.27465521E+03</pdfrwt>
<totfact> 0.77429314E+03</totfact>
</mgrwt>
</event>
<event>
 4    1  0.4053645E-001  0.1928527E+03  0.7546771E-02  0.1155913E+00
         21   -1    0    0  503  502  0.00000000000E+00  0.00000000000E+00  0.11169946876E+04  0.11169946876E+04  0.00000000000E+00 0.  1.
         21   -1    0    0  501  503 -0.00000000000E+00 -0.00000000000E+00 -0.40082389797E+02  0.40082389797E+02  0.00000000000E+00 0. -1.
          6    1    1    2  501    0  0.14086103194E+02 -0.84052117570E+02  0.30041380509E+03  0.35698827860E+03  0.17300000000E+03 0. -1.
         -6    1    1    2    0  502 -0.14086103194E+02  0.84052117570E+02  0.77649849277E+03  0.80008879885E+03  0.17300000000E+03 0.  1.
<mgrwt>
<rscale>  2 0.19285273E+03</rscale>
<asrwt>0</asrwt>
<pdfrwt beam="1">  1       21 0.17184531E+00 0.19285273E+03</pdfrwt>
<pdfrwt beam="2">  1       21 0.61665224E-02 0.19285273E+03</pdfrwt>
<totfact> 0.38966001E+04</totfact>
</mgrwt>
</event>
<event>
 4    1  0.4053645E-001  0.2016312E+03  0.7546771E-02  0.1148370E+00
         21   -1    0    0  501  502  0.00000000000E+00  0.00000000000E+00  0.21208725858E+03  0.21208725858E+03  0.00000000000E+00 0.  1.
         21   -1    0    0  502  503 -0.00000000000E+00 -0.00000000000E+00 -0.21982549915E+03  0.21982549915E+03  0.00000000000E+00 0. -1.
          6    1    1    2  501    0  0.42049504472E+02  0.94646649567E+02  0.73389887992E+02  0.21457219009E+03  0.17300000000E+03 0.  1.
         -6    1    1    2    0  503 -0.42049504472E+02 -0.94646649567E+02 -0.81128128557E+02  0.21734056764E+03  0.17300000000E+03 0. -1.
<mgrwt>
<rscale>  2 0.20163122E+03</rscale>
<asrwt>0</asrwt>
<pdfrwt beam="1">  1       21 0.32628809E-01 0.20163122E+03</pdfrwt>
<pdfrwt beam="2">  1       21 0.33819307E-01 0.20163122E+03</pdfrwt>
<totfact> 0.75842957E+04</totfact>
</mgrwt>
</event>
<event>
 4    1  0.4053645E-001  0.2517186E+03  0.7546771E-02  0.1112223E+00
         21   -1    0    0  501  502  0.00000000000E+00  0.00000000000E+00  0.38746104143E+03  0.38746104143E+03  0.00000000000E+00 0.  1.
         21   -1    0    0  502  503 -0.00000000000E+00 -0.00000000000E+00 -0.16357120062E+03  0.16357120062E+03  0.00000000000E+00 0.  1.
          6    1    1    2  501    0 -0.18206035087E+03  0.16949947829E+02  0.11621110050E+03  0.27724951212E+03  0.17300000000E+03 0.  1.
         -6    1    1    2    0  503  0.18206035087E+03 -0.16949947829E+02  0.10767874031E+03  0.27378272993E+03  0.17300000000E+03 0.  1.
<mgrwt>
<rscale>  2 0.25171864E+03</rscale>
<asrwt>0</asrwt>
<pdfrwt beam="1">  1       21 0.59609391E-01 0.25171864E+03</pdfrwt>
<pdfrwt beam="2">  1       21 0.25164800E-01 0.25171864E+03</pdfrwt>
<totfact> 0.38220160E+04</totfact>
</mgrwt>
</event>
<event>
 4    1  0.4053645E-001  0.1956346E+03  0.7546771E-02  0.1153475E+00
         21   -1    0    0  503  502  0.00000000000E+00  0.00000000000E+00  0.58671274809E+03  0.58671274809E+03  0.00000000000E+00 0. -1.
         21   -1    0    0  501  503 -0.00000000000E+00 -0.00000000000E+00 -0.11574783503E+03  0.11574783503E+03  0.00000000000E+00 0. -1.
          6    1    1    2  501    0  0.61224951808E+02 -0.67789263727E+02  0.34513979083E+01  0.19566499725E+03  0.17300000000E+03 0. -1.
         -6    1    1    2    0  502 -0.61224951808E+02  0.67789263727E+02  0.46751351516E+03  0.50679558587E+03  0.17300000000E+03 0. -1.
<mgrwt>
<rscale>  2 0.19563455E+03</rscale>
<asrwt>0</asrwt>
<pdfrwt beam="1">  1       21 0.90263498E-01 0.19563455E+03</pdfrwt>
<pdfrwt beam="2">  1       21 0.17807360E-01 0.19563455E+03</pdfrwt>
<totfact> 0.29835631E+04</totfact>
</mgrwt>
</event>
<event>
 4    1  0.4053645E-001  0.1970744E+03  0.7546771E-02  0.1152231E+00
         21   -1    0    0  503  502  0.00000000000E+00  0.00000000000E+00  0.18969487160E+03  0.18969487160E+03  0.00000000000E+00 0.  1.
         21   -1    0    0  501  503 -0.00000000000E+00 -0.00000000000E+00 -0.23861182078E+03  0.23861182078E+03  0.00000000000E+00 0. -1.
          6    1    1    2  501    0 -0.16638772297E+02 -0.92911044397E+02 -0.10514332113E+03  0.22336837040E+03  0.17300000000E+03 0. -1.
         -6    1    1    2    0  502  0.16638772297E+02  0.92911044397E+02  0.56226371955E+02  0.20493832198E+03  0.17300000000E+03 0.  1.
<mgrwt>
<rscale>  2 0.19707438E+03</rscale>
<asrwt>0</asrwt>
<pdfrwt beam="1">  1       21 0.29183826E-01 0.19707438E+03</pdfrwt>
<pdfrwt beam="2">  1       21 0.36709511E-01 0.19707438E+03</pdfrwt>
<totfact> 0.80317421E+04</totfact>
</mgrwt>
</event>
<event>
 4    1  0.4053645E-001  0.1964015E+03  0.7546771E-02  0.1152811E+00
         21   -1    0    0  503  502  0.00000000000E+00  0.00000000000E+00  0.80544155226E+03  0.80544155226E+03  0.00000000000E+00 0.  1.
         21   -1    0    0  501  503 -0.00000000000E+00 -0.00000000000E+00 -0.52030056856E+02  0.52030056856E+02  0.00000000000E+00 0. -1.
          6    1    1    2  501    0  0.56136263730E+01  0.92806363939E+02  0.25578393140E+03  0.32248868748E+03  0.17300000000E+03 0.  1.
         -6    1    1    2    0  502 -0.56136263730E+01 -0.92806363939E+02  0.49762756400E+03  0.53498292164E+03  0.17300000000E+03 0.  1.
<mgrwt>
<rscale>  2 0.19640146E+03</rscale>
<asrwt>0</asrwt>
<pdfrwt beam="1">  1       21 0.12391408E+00 0.19640146E+03</pdfrwt>
<pdfrwt beam="2">  1       21 0.80046247E-02 0.19640146E+03</pdfrwt>
<totfact> 0.58335311E+04</totfact>
</mgrwt>
</event>
<event>
 4    1  0.4053645E-001  0.1974740E+03  0.7546771E-02  0.1151888E+00
         21   -1    0    0  501  502  0.00000000000E+00  0.00000000000E+00  0.17763634239E+03  0.17763634239E+03  0.00000000000E+00 0.  1.
         21   -1    0    0  502  503 -0.00000000000E+00 -0.00000000000E+00 -0.25668843888E+03  0.25668843888E+03  0.00000000000E+00 0.  1.
          6    1    1    2  501    0  0.94451551605E+02 -0.12078515655E+02  0.43101962837E+02  0.20212314400E+03  0.17300000000E+03 0.  1.
         -6    1    1    2    0  503 -0.94451551605E+02  0.12078515655E+02 -0.12215405933E+03  0.23220163727E+03  0.17300000000E+03 0.  1.
<mgrwt>
<rscale>  2 0.19747401E+03</rscale>
<asrwt>0</asrwt>
<pdfrwt beam="1">  1       21 0.27328668E-01 0.19747401E+03</pdfrwt>
<pdfrwt beam="2">  1       21 0.39490529E-01 0.19747401E+03</pdfrwt>
<totfact> 0.78762902E+04</totfact>
</mgrwt>
</event>
<event>
 4    1  0.4053645E-001  0.1784304E+03  0.7546771E-02  0.1169331E+00
         21   -1    0    0  501  502  0.00000000000E+00  0.00000000000E+00  0.50905068330E+02  0.50905068330E+02  0.00000000000E+00 0.  1.
         21   -1    0    0  502  503 -0.00000000000E+00 -0.00000000000E+00 -0.62694121728E+03  0.62694121728E+03  0.00000000000E+00 0.  1.
          6    1    1    2  501    0  0.41469406626E+02  0.13736431254E+02 -0.27136132719E+03  0.32476818059E+03  0.17300000000E+03 0.  1.
         -6    1    1    2    0  503 -0.41469406626E+02 -0.13736431254E+02 -0.30467482176E+03  0.35307810502E+03  0.17300000000E+03 0.  1.
<mgrwt>
<rscale>  2 0.17843038E+03</rscale>
<asrwt>0</asrwt>
<pdfrwt beam="1">  1       21 0.78315494E-02 0.17843038E+03</pdfrwt>
<pdfrwt beam="2">  1       21 0.96452489E-01 0.17843038E+03</pdfrwt>
<totfact> 0.11195057E+05</totfact>
</mgrwt>
</event>
<event>
 4    1  0.4053645E-001  0.1937437E+03  0.7546771E-02  0.1155127E+00
         21   -1    0    0  501  502  0.00000000000E+00  0.00000000000E+00  0.62458758803E+03  0.62458758803E+03  0.00000000000E+00 0. -1.
         21   -1    0    0  502  503 -0.00000000000E+00 -0.00000000000E+00 -0.63324039013E+02  0.63324039013E+02  0.00000000000E+00 0. -1.
          6    1    1    2  501    0  0.75674712530E+02 -0.43370147977E+02  0.35826277106E+03  0.40729454327E+03  0.17300000000E+03 0.  1.
         -6    1    1    2    0  503 -0.75674712530E+02  0.43370147977E+02  0.20300077795E+03  0.28061708376E+03  0.17300000000E+03 0.  1.
<mgrwt>
<rscale>  2 0.19374373E+03</rscale>
<asrwt>0</asrwt>
<pdfrwt beam="1">  1       21 0.96090394E-01 0.19374373E+03</pdfrwt>
<pdfrwt beam="2">  1       21 0.97421603E-02 0.19374373E+03</pdfrwt>
<totfact> 0.76603706E+04</totfact>
</mgrwt>
</event>
<event>
 4    1  0.4053645E-001  0.1980964E+03  0.7546771E-02  0.1151355E+00
         21   -1    0    0  503  502  0.00000000000E+00  0.00000000000E+00  0.45639105526E+03  0.45639105526E+03  0.00000000000E+00 0.  1.
         21   -1    0    0  501  503 -0.00000000000E+00 -0.00000000000E+00 -0.89429454214E+02  0.89429454214E+02  0.00000000000E+00 0. -1.
          6    1    1    2  501    0 -0.96364803612E+02 -0.51959978556E+01  0.12991048902E+03  0.23689429906E+03  0.17300000000E+03 0.  1.
         -6    1    1    2    0  502  0.96364803612E+02  0.51959978556E+01  0.23705111204E+03  0.30892621042E+03  0.17300000000E+03 0. -1.
<mgrwt>
<rscale>  2 0.19809637E+03</rscale>
<asrwt>0</asrwt>
<pdfrwt beam="1">  1       21 0.70214008E-01 0.19809637E+03</pdfrwt>
<pdfrwt beam="2">  1       21 0.13758378E-01 0.19809637E+03</pdfrwt>
<totfact> 0.84256597E+04</totfact>
</mgrwt>
</event>
<event>
 4    1  0.4053645E-001  0.2087770E+03  0.7546771E-02  0.1142538E+00
         21   -1    0    0  503  502  0.00000000000E+00  0.00000000000E+00  0.41635877418E+03  0.41635877418E+03  0.00000000000E+00 0. -1.
         21   -1    0    0  501  503 -0.00000000000E+00 -0.00000000000E+00 -0.10923223803E+03  0.10923223803E+03  0.00000000000E+00 0.  1.
          6    1    1    2  501    0  0.11003879123E+03 -0.39373771259E+02  0.20716340864E+03  0.29411648597E+03  0.17300000000E+03 0. -1.
         -6    1    1    2    0  502 -0.11003879123E+03  0.39373771259E+02  0.99963127513E+02  0.23147452624E+03  0.17300000000E+03 0. -1.
<mgrwt>
<rscale>  2 0.20877698E+03</rscale>
<asrwt>0</asrwt>
<pdfrwt beam="1">  1       21 0.64055195E-01 0.20877698E+03</pdfrwt>
<pdfrwt beam="2">  1       21 0.16804960E-01 0.20877698E+03</pdfrwt>
<totfact> 0.71182524E+04</totfact>
</mgrwt>
</event>
<event>
 4    1  0.4053645E-001  0.3707068E+03  0.7546771E-02  0.1054423E+00
         21   -1    0    0  503  502  0.00000000000E+00  0.00000000000E+00  0.12807106959E+03  0.12807106959E+03  0.00000000000E+00 0.  1.
         21   -1    0    0  501  503 -0.00000000000E+00 -0.00000000000E+00 -0.11081606837E+04  0.11081606837E+04  0.00000000000E+00 0. -1.
          6    1    1    2  501    0 -0.29316413020E+03  0.14679677036E+03 -0.60010767489E+03  0.70537417056E+03  0.17300000000E+03 0. -1.
         -6    1    1    2    0  502  0.29316413020E+03 -0.14679677036E+03 -0.37998193922E+03  0.53085758274E+03  0.17300000000E+03 0.  1.
<mgrwt>
<rscale>  2 0.37070676E+03</rscale>
<asrwt>0</asrwt>
<pdfrwt beam="1">  1       21 0.19703241E-01 0.37070676E+03</pdfrwt>
<pdfrwt beam="2">  1       21 0.17048626E+00 0.37070676E+03</pdfrwt>
<totfact> 0.44900360E+03</totfact>
</mgrwt>
</event>
<event>
 4    1  0.4053645E-001  0.1873508E+03  0.7546771E-02  0.1160873E+00
         21   -1    0    0  501  502  0.00000000000E+00  0.00000000000E+00  0.19030934924E+03  0.19030934924E+03  0.00000000000E+00 0. -1.
         21   -1    0    0  502  503 -0.00000000000E+00 -0.00000000000E+00 -0.18821411873E+03  0.18821411873E+03  0.00000000000E+00 0. -1.
          6    1    1    2  501    0  0.49871355766E+02  0.51809132194E+02  0.27854147393E+02  0.18941011544E+03  0.17300000000E+03 0. -1.
         -6    1    1    2    0  503 -0.49871355766E+02 -0.51809132194E+02 -0.25758916890E+02  0.18911335253E+03  0.17300000000E+03 0. -1.
<mgrwt>
<rscale>  2 0.18735084E+03</rscale>
<asrwt>0</asrwt>
<pdfrwt beam="1">  1       21 0.29278361E-01 0.18735084E+03</pdfrwt>
<pdfrwt beam="2">  1       21 0.28956018E-01 0.18735084E+03</pdfrwt>
<totfact> 0.12778911E+05</totfact>
</mgrwt>
</event>
<event>
 4    1  0.4053645E-001  0.2065034E+03  0.7546771E-02  0.1144365E+00
         21   -1    0    0  501  502  0.00000000000E+00  0.00000000000E+00  0.10532671933E+03  0.10532671933E+03  0.00000000000E+00 0.  1.
         21   -1    0    0  502  503 -0.00000000000E+00 -0.00000000000E+00 -0.40835418523E+03  0.40835418523E+03  0.00000000000E+00 0. -1.
          6    1    1    2  501    0 -0.68756868645E+02 -0.89370843454E+02 -0.17523731575E+03  0.27083532169E+03  0.17300000000E+03 0. -1.
         -6    1    1    2    0  503  0.68756868645E+02  0.89370843454E+02 -0.12779015015E+03  0.24284558287E+03  0.17300000000E+03 0. -1.
<mgrwt>
<rscale>  2 0.20650340E+03</rscale>
<asrwt>0</asrwt>
<pdfrwt beam="1">  1       21 0.16204111E-01 0.20650340E+03</pdfrwt>
<pdfrwt beam="2">  1       21 0.62823720E-01 0.20650340E+03</pdfrwt>
<totfact> 0.79465256E+04</totfact>
</mgrwt>
</event>
<event>
 4    1  0.4053645E-001  0.1986360E+03  0.7546771E-02  0.1150895E+00
         21   -1    0    0  503  502  0.00000000000E+00  0.00000000000E+00  0.12560898487E+03  0.12560898487E+03  0.00000000000E+00 0. -1.
         21   -1    0    0  501  503 -0.00000000000E+00 -0.00000000000E+00 -0.40171228130E+03  0.40171228130E+03  0.00000000000E+00 0.  1.
          6    1    1    2  501    0 -0.95318533049E+02 -0.21015616770E+02 -0.26116948019E+03  0.32812463527E+03  0.17300000000E+03 0.  1.
         -6    1    1    2    0  502  0.95318533049E+02  0.21015616770E+02 -0.14933816239E+02  0.19919663089E+03  0.17300000000E+03 0. -1.
<mgrwt>
<rscale>  2 0.19863605E+03</rscale>
<asrwt>0</asrwt>
<pdfrwt beam="1">  1       21 0.19324459E-01 0.19863605E+03</pdfrwt>
<pdfrwt beam="2">  1       21 0.61801891E-01 0.19863605E+03</pdfrwt>
<totfact> 0.59668136E+04</totfact>
</mgrwt>
</event>
<event>
 4    1  0.4053645E-001  0.2777216E+03  0.7546771E-02  0.1096940E+00
         21   -1    0    0  503  502  0.00000000000E+00  0.00000000000E+00  0.15411163075E+03  0.15411163075E+03  0.00000000000E+00 0.  1.
         21   -1    0    0  501  503 -0.00000000000E+00 -0.00000000000E+00 -0.54029614141E+03  0.54029614141E+03  0.00000000000E+00 0.  1.
          6    1    1    2  501    0 -0.16598586841E+03  0.14017473690E+03 -0.28734993775E+03  0.39962388831E+03  0.17300000000E+03 0.  1.
         -6    1    1    2    0  502  0.16598586841E+03 -0.14017473690E+03 -0.98834572904E+02  0.29478388385E+03  0.17300000000E+03 0.  1.
<mgrwt>
<rscale>  2 0.27772156E+03</rscale>
<asrwt>0</asrwt>
<pdfrwt beam="1">  1       21 0.23709482E-01 0.27772156E+03</pdfrwt>
<pdfrwt beam="2">  1       21 0.83122483E-01 0.27772156E+03</pdfrwt>
<totfact> 0.20208549E+04</totfact>
</mgrwt>
</event>
<event>
 4    1  0.4053645E-001  0.1901699E+03  0.7546771E-02  0.1158308E+00
         21   -1    0    0  501  502  0.00000000000E+00  0.00000000000E+00  0.12675065648E+03  0.12675065648E+03  0.00000000000E+00 0.  1.
         21   -1    0    0  502  503 -0.00000000000E+00 -0.00000000000E+00 -0.28533838840E+03  0.28533838840E+03  0.00000000000E+00 0.  1.
          6    1    1    2  501    0 -0.45163294431E+02  0.64775464251E+02 -0.80916903024E+02  0.20666912960E+03  0.17300000000E+03 0.  1.
         -6    1    1    2    0  503  0.45163294431E+02 -0.64775464251E+02 -0.77670828892E+02  0.20541991528E+03  0.17300000000E+03 0.  1.
<mgrwt>
<rscale>  2 0.19016988E+03</rscale>
<asrwt>0</asrwt>
<pdfrwt beam="1">  1       21 0.19500101E-01 0.19016988E+03</pdfrwt>
<pdfrwt beam="2">  1       21 0.43898213E-01 0.19016988E+03</pdfrwt>
<totfact> 0.12075921E+05</totfact>
</mgrwt>
</event>
<event>
 4    1  0.4053645E-001  0.2299837E+03  0.7546771E-02  0.1126651E+00
         21   -1    0    0  501  502  0.00000000000E+00  0.00000000000E+00  0.11180495899E+04  0.11180495899E+04  0.00000000000E+00 0.  1.
         21   -1    0    0  502  503 -0.00000000000E+00 -0.00000000000E+00 -0.49939144310E+02  0.49939144310E+02  0.00000000000E+00 0.  1.
          6    1    1    2  501    0  0.25408974886E+02 -0.14939172651E+03  0.40000295154E+03  0.46140531553E+03  0.17300000000E+03 0.  1.
         -6    1    1    2    0  503 -0.25408974886E+02  0.14939172651E+03  0.66810749406E+03  0.70658341870E+03  0.17300000000E+03 0.  1.
<mgrwt>
<rscale>  2 0.22998370E+03</rscale>
<asrwt>0</asrwt>
<pdfrwt beam="1">  1       21 0.17200761E+00 0.22998370E+03</pdfrwt>
<pdfrwt beam="2">  1       21 0.76829461E-02 0.22998370E+03</pdfrwt>
<totfact> 0.25964376E+04</totfact>
</mgrwt>
</event>
<event>
 4    1  0.4053645E-001  0.1836801E+03  0.7546771E-02  0.1164288E+00
         21   -1    0    0  501  502  0.00000000000E+00  0.00000000000E+00  0.24604314619E+03  0.24604314619E+03  0.00000000000E+00 0.  1.
         21   -1    0    0  502  503 -0.00000000000E+00 -0.00000000000E+00 -0.14345313302E+03  0.14345313302E+03  0.00000000000E+00 0.  1.
          6    1    1    2  501    0  0.33089665576E+02 -0.52100325422E+02  0.92201989770E+02  0.20552269168E+03  0.17300000000E+03 0. -1.
         -6    1    1    2    0  503 -0.33089665576E+02  0.52100325422E+02  0.10388023397E+02  0.18397358753E+03  0.17300000000E+03 0. -1.
<mgrwt>
<rscale>  2 0.18368007E+03</rscale>
<asrwt>0</asrwt>
<pdfrwt beam="1">  1       21 0.37852792E-01 0.18368007E+03</pdfrwt>
<pdfrwt beam="2">  1       21 0.22069713E-01 0.18368007E+03</pdfrwt>
<totfact> 0.12954689E+05</totfact>
</mgrwt>
</event>
<event>
 4    1  0.4053645E-001  0.2129901E+03  0.7546771E-02  0.1139220E+00
         21   -1    0    0  503  502  0.00000000000E+00  0.00000000000E+00  0.39014942451E+03  0.39014942451E+03  0.00000000000E+00 0.  1.
         21   -1    0    0  501  503 -0.00000000000E+00 -0.00000000000E+00 -0.11670961520E+03  0.11670961520E+03  0.00000000000E+00 0.  1.
          6    1    1    2  501    0  0.32582408776E+02 -0.11989237199E+03  0.15217738385E+03  0.26176850532E+03  0.17300000000E+03 0.  1.
         -6    1    1    2    0  502 -0.32582408776E+02  0.11989237199E+03  0.12126242546E+03  0.24509053440E+03  0.17300000000E+03 0.  1.
<mgrwt>
<rscale>  2 0.21299013E+03</rscale>
<asrwt>0</asrwt>
<pdfrwt beam="1">  1       21 0.60022988E-01 0.21299013E+03</pdfrwt>
<pdfrwt beam="2">  1       21 0.17955326E-01 0.21299013E+03</pdfrwt>
<totfact> 0.72373286E+04</totfact>
</mgrwt>
</event>
<event>
 4    1  0.4053645E-001  0.1797921E+03  0.7546771E-02  0.1168004E+00
         21   -1    0    0  503  502  0.00000000000E+00  0.00000000000E+00  0.12339503927E+03  0.12339503927E+03  0.00000000000E+00 0. -1.
         21   -1    0    0  501  503 -0.00000000000E+00 -0.00000000000E+00 -0.27384353209E+03  0.27384353209E+03  0.00000000000E+00 0.  1.
          6    1    1    2  501    0  0.46837257612E+02  0.14228981653E+02 -0.11659085399E+03  0.21428630347E+03  0.17300000000E+03 0.  1.
         -6    1    1    2    0  502 -0.46837257612E+02 -0.14228981653E+02 -0.33857638835E+02  0.18295226789E+03  0.17300000000E+03 0. -1.
<mgrwt>
<rscale>  2 0.17979208E+03</rscale>
<asrwt>0</asrwt>
<pdfrwt beam="1">  1       21 0.18983852E-01 0.17979208E+03</pdfrwt>
<pdfrwt beam="2">  1       21 0.42129774E-01 0.17979208E+03</pdfrwt>
<totfact> 0.13852256E+05</totfact>
</mgrwt>
</event>
<event>
 4    1  0.4053645E-001  0.1799517E+03  0.7546771E-02  0.1167850E+00
         21   -1    0    0  501  502  0.00000000000E+00  0.00000000000E+00  0.47884628382E+03  0.47884628382E+03  0.00000000000E+00 0.  1.
         21   -1    0    0  502  503 -0.00000000000E+00 -0.00000000000E+00 -0.78286024948E+02  0.78286024948E+02  0.00000000000E+00 0.  1.
          6    1    1    2  501    0  0.24087725788E+02  0.43282905288E+02  0.30307184680E+03  0.35247010192E+03  0.17300000000E+03 0.  1.
         -6    1    1    2    0  503 -0.24087725788E+02 -0.43282905288E+02  0.97488412070E+02  0.20466220685E+03  0.17300000000E+03 0.  1.
<mgrwt>
<rscale>  2 0.17995174E+03</rscale>
<asrwt>0</asrwt>
<pdfrwt beam="1">  1       21 0.73668657E-01 0.17995174E+03</pdfrwt>
<pdfrwt beam="2">  1       21 0.12044004E-01 0.17995174E+03</pdfrwt>
<totfact> 0.96950271E+04</totfact>
</mgrwt>
</event>
<event>
 4    1  0.4053645E-001  0.1743085E+03  0.7546771E-02  0.1173428E+00
         21   -1    0    0  501  502  0.00000000000E+00  0.00000000000E+00  0.52434563388E+02  0.52434563388E+02  0.00000000000E+00 0. -1.
         21   -1    0    0  502  503 -0.00000000000E+00 -0.00000000000E+00 -0.94892483340E+03  0.94892483340E+03  0.00000000000E+00 0. -1.
          6    1    1    2  501    0 -0.19567302905E+02 -0.84593531570E+01 -0.13582867748E+03  0.22098160472E+03  0.17300000000E+03 0. -1.
         -6    1    1    2    0  503  0.19567302905E+02  0.84593531570E+01 -0.76066159253E+03  0.78037779207E+03  0.17300000000E+03 0. -1.
<mgrwt>
<rscale>  2 0.17430846E+03</rscale>
<asrwt>0</asrwt>
<pdfrwt beam="1">  1       21 0.80668566E-02 0.17430846E+03</pdfrwt>
<pdfrwt beam="2">  1       21 0.14598842E+00 0.17430846E+03</pdfrwt>
<totfact> 0.38374823E+04</totfact>
</mgrwt>
</event>
<event>
 4    1  0.4053645E-001  0.1970982E+03  0.7546771E-02  0.1152211E+00
         21   -1    0    0  501  502  0.00000000000E+00  0.00000000000E+00  0.48405324602E+02  0.48405324602E+02  0.00000000000E+00 0.  1.
         21   -1    0    0  502  503 -0.00000000000E+00 -0.00000000000E+00 -0.81602437294E+03  0.81602437294E+03  0.00000000000E+00 0. -1.
          6    1    1    2  501    0 -0.94395910976E+02 -0.28479907136E+01 -0.32827021565E+03  0.38289559092E+03  0.17300000000E+03 0.  1.
         -6    1    1    2    0  503  0.94395910976E+02  0.28479907136E+01 -0.43934883269E+03  0.48153410663E+03  0.17300000000E+03 0. -1.
<mgrwt>
<rscale>  2 0.19709820E+03</rscale>
<asrwt>0</asrwt>
<pdfrwt beam="1">  1       21 0.74469741E-02 0.19709820E+03</pdfrwt>
<pdfrwt beam="2">  1       21 0.12554219E+00 0.19709820E+03</pdfrwt>
<totfact> 0.63985943E+04</totfact>
</mgrwt>
</event>
<event>
 4    1  0.4053645E-001  0.1811023E+03  0.7546771E-02  0.1166741E+00
         21   -1    0    0  501  502  0.00000000000E+00  0.00000000000E+00  0.85906546284E+02  0.85906546284E+02  0.00000000000E+00 0.  1.
         21   -1    0    0  502  503 -0.00000000000E+00 -0.00000000000E+00 -0.38609254892E+03  0.38609254892E+03  0.00000000000E+00 0.  1.
          6    1    1    2  501    0  0.50563465035E+02 -0.17673862902E+02 -0.12517208733E+03  0.22015013257E+03  0.17300000000E+03 0. -1.
         -6    1    1    2    0  503 -0.50563465035E+02  0.17673862902E+02 -0.17501391531E+03  0.25184896263E+03  0.17300000000E+03 0. -1.
<mgrwt>
<rscale>  2 0.18110226E+03</rscale>
<asrwt>0</asrwt>
<pdfrwt beam="1">  1       21 0.13216392E-01 0.18110226E+03</pdfrwt>
<pdfrwt beam="2">  1       21 0.59398853E-01 0.18110226E+03</pdfrwt>
<totfact> 0.13116940E+05</totfact>
</mgrwt>
</event>
<event>
 4    1  0.4053645E-001  0.2370851E+03  0.7546771E-02  0.1121750E+00
         21   -1    0    0  503  502  0.00000000000E+00  0.00000000000E+00  0.13895181034E+03  0.13895181034E+03  0.00000000000E+00 0.  1.
         21   -1    0    0  501  503 -0.00000000000E+00 -0.00000000000E+00 -0.54780337596E+03  0.54780337596E+03  0.00000000000E+00 0.  1.
          6    1    1    2  501    0 -0.81228394921E+02  0.14029352797E+03 -0.38003674204E+03  0.44792549763E+03  0.17300000000E+03 0.  1.
         -6    1    1    2    0  502  0.81228394921E+02 -0.14029352797E+03 -0.28814823588E+02  0.23882968867E+03  0.17300000000E+03 0.  1.
<mgrwt>
<rscale>  2 0.23708506E+03</rscale>
<asrwt>0</asrwt>
<pdfrwt beam="1">  1       21 0.21377202E-01 0.23708506E+03</pdfrwt>
<pdfrwt beam="2">  1       21 0.84277442E-01 0.23708506E+03</pdfrwt>
<totfact> 0.24295313E+04</totfact>
</mgrwt>
</event>
<event>
 4    1  0.4053645E-001  0.2086117E+03  0.7546771E-02  0.1142670E+00
         21   -1    0    0  503  502  0.00000000000E+00  0.00000000000E+00  0.31417271819E+03  0.31417271819E+03  0.00000000000E+00 0. -1.
         21   -1    0    0  501  503 -0.00000000000E+00 -0.00000000000E+00 -0.13862754324E+03  0.13862754324E+03  0.00000000000E+00 0.  1.
          6    1    1    2  501    0 -0.96886661557E+02 -0.64829190607E+02  0.94111548778E+02  0.22885766921E+03  0.17300000000E+03 0. -1.
         -6    1    1    2    0  502  0.96886661557E+02  0.64829190607E+02  0.81433626168E+02  0.22394259223E+03  0.17300000000E+03 0. -1.
<mgrwt>
<rscale>  2 0.20861172E+03</rscale>
<asrwt>0</asrwt>
<pdfrwt beam="1">  1       21 0.48334264E-01 0.20861172E+03</pdfrwt>
<pdfrwt beam="2">  1       21 0.21327314E-01 0.20861172E+03</pdfrwt>
<totfact> 0.83108947E+04</totfact>
</mgrwt>
</event>
<event>
 4    1  0.4053645E-001  0.1872504E+03  0.7546771E-02  0.1160965E+00
         21   -1    0    0  503  502  0.00000000000E+00  0.00000000000E+00  0.44394045693E+03  0.44394045693E+03  0.00000000000E+00 0.  1.
         21   -1    0    0  501  503 -0.00000000000E+00 -0.00000000000E+00 -0.79761990897E+02  0.79761990897E+02  0.00000000000E+00 0.  1.
          6    1    1    2  501    0 -0.25987069319E+02 -0.66771172288E+02  0.20800534067E+03  0.27987307653E+03  0.17300000000E+03 0.  1.
         -6    1    1    2    0  502  0.25987069319E+02  0.66771172288E+02  0.15617312536E+03  0.24382937130E+03  0.17300000000E+03 0.  1.
<mgrwt>
<rscale>  2 0.18725041E+03</rscale>
<asrwt>0</asrwt>
<pdfrwt beam="1">  1       21 0.68298530E-01 0.18725041E+03</pdfrwt>
<pdfrwt beam="2">  1       21 0.12271076E-01 0.18725041E+03</pdfrwt>
<totfact> 0.11050360E+05</totfact>
</mgrwt>
</event>
<event>
 4    1  0.4053645E-001  0.2018412E+03  0.7546771E-02  0.1148195E+00
         21   -1    0    0  501  502  0.00000000000E+00  0.00000000000E+00  0.71841787988E+02  0.71841787988E+02  0.00000000000E+00 0. -1.
         21   -1    0    0  502  503 -0.00000000000E+00 -0.00000000000E+00 -0.95225424594E+03  0.95225424594E+03  0.00000000000E+00 0. -1.
          6    1    1    2  501    0  0.95069826845E+02 -0.42102134650E+02 -0.11454634929E+03  0.23207914136E+03  0.17300000000E+03 0. -1.
         -6    1    1    2    0  503 -0.95069826845E+02  0.42102134650E+02 -0.76586610866E+03  0.79201689257E+03  0.17300000000E+03 0. -1.
<mgrwt>
<rscale>  2 0.20184118E+03</rscale>
<asrwt>0</asrwt>
<pdfrwt beam="1">  1       21 0.11052583E-01 0.20184118E+03</pdfrwt>
<pdfrwt beam="2">  1       21 0.14650065E+00 0.20184118E+03</pdfrwt>
<totfact> 0.21478489E+04</totfact>
</mgrwt>
</event>
<event>
 4    1  0.4053645E-001  0.2452460E+03  0.7546771E-02  0.1116347E+00
         21   -1    0    0  503  502  0.00000000000E+00  0.00000000000E+00  0.29684950391E+03  0.29684950391E+03  0.00000000000E+00 0.  1.
         21   -1    0    0  501  503 -0.00000000000E+00 -0.00000000000E+00 -0.22012378803E+03  0.22012378803E+03  0.00000000000E+00 0.  1.
          6    1    1    2  501    0  0.12521037449E+03 -0.12057769842E+03 -0.34541812290E+02  0.24766662276E+03  0.17300000000E+03 0.  1.
         -6    1    1    2    0  502 -0.12521037449E+03  0.12057769842E+03  0.11126752818E+03  0.26930666918E+03  0.17300000000E+03 0.  1.
<mgrwt>
<rscale>  2 0.24524604E+03</rscale>
<asrwt>0</asrwt>
<pdfrwt beam="1">  1       21 0.45669155E-01 0.24524604E+03</pdfrwt>
<pdfrwt beam="2">  1       21 0.33865198E-01 0.24524604E+03</pdfrwt>
<totfact> 0.37653880E+04</totfact>
</mgrwt>
</event>
<event>
 4    1  0.4053645E-001  0.1877508E+03  0.7546771E-02  0.1160506E+00
         21   -1    0    0  503  502  0.00000000000E+00  0.00000000000E+00  0.11427397624E+03  0.11427397624E+03  0.00000000000E+00 0. -1.
         21   -1    0    0  501  503 -0.00000000000E+00 -0.00000000000E+00 -0.38374763910E+03  0.38374763910E+03  0.00000000000E+00 0. -1.
          6    1    1    2  501    0 -0.55173612233E+02 -0.47720549994E+02 -0.24502302333E+03  0.30868537436E+03  0.17300000000E+03 0. -1.
         -6    1    1    2    0  502  0.55173612233E+02  0.47720549994E+02 -0.24450639523E+02  0.18933624099E+03  0.17300000000E+03 0. -1.
<mgrwt>
<rscale>  2 0.18775084E+03</rscale>
<asrwt>0</asrwt>
<pdfrwt beam="1">  1       21 0.17580612E-01 0.18775084E+03</pdfrwt>
<pdfrwt beam="2">  1       21 0.59038098E-01 0.18775084E+03</pdfrwt>
<totfact> 0.78826574E+04</totfact>
</mgrwt>
</event>
<event>
 4    1  0.4053645E-001  0.2029621E+03  0.7546771E-02  0.1147264E+00
         21   -1    0    0  501  502  0.00000000000E+00  0.00000000000E+00  0.51981708076E+02  0.51981708076E+02  0.00000000000E+00 0. -1.
         21   -1    0    0  502  503 -0.00000000000E+00 -0.00000000000E+00 -0.79288138471E+03  0.79288138471E+03  0.00000000000E+00 0. -1.
          6    1    1    2  501    0  0.40593177193E+02 -0.98065273882E+02 -0.38014832290E+03  0.43093659787E+03  0.17300000000E+03 0. -1.
         -6    1    1    2    0  503 -0.40593177193E+02  0.98065273882E+02 -0.36075135373E+03  0.41392649492E+03  0.17300000000E+03 0. -1.
<mgrwt>
<rscale>  2 0.20296208E+03</rscale>
<asrwt>0</asrwt>
<pdfrwt beam="1">  1       21 0.79971866E-02 0.20296208E+03</pdfrwt>
<pdfrwt beam="2">  1       21 0.12198174E+00 0.20296208E+03</pdfrwt>
<totfact> 0.60562358E+04</totfact>
</mgrwt>
</event>
<event>
 4    1  0.4053645E-001  0.2888711E+03  0.7546771E-02  0.1090940E+00
         21   -1    0    0  501  502  0.00000000000E+00  0.00000000000E+00  0.22090728219E+04  0.22090728219E+04  0.00000000000E+00 0. -1.
         21   -1    0    0  502  503 -0.00000000000E+00 -0.00000000000E+00 -0.38190252408E+02  0.38190252408E+02  0.00000000000E+00 0. -1.
          6    1    1    2  501    0  0.23122558095E+03  0.72286841657E+01  0.96819792705E+03  0.10103730742E+04  0.17300000000E+03 0. -1.
         -6    1    1    2    0  503 -0.23122558095E+03 -0.72286841657E+01  0.12026846425E+04  0.12368900001E+04  0.17300000000E+03 0. -1.
<mgrwt>
<rscale>  2 0.28887112E+03</rscale>
<asrwt>0</asrwt>
<pdfrwt beam="1">  1       21 0.33985726E+00 0.28887112E+03</pdfrwt>
<pdfrwt beam="2">  1       21 0.58754252E-02 0.28887112E+03</pdfrwt>
<totfact> 0.37098799E+03</totfact>
</mgrwt>
</event>
<event>
 4    1  0.4053645E-001  0.1849351E+03  0.7546771E-02  0.1163111E+00
         21   -1    0    0  501  502  0.00000000000E+00  0.00000000000E+00  0.58128533874E+02  0.58128533874E+02  0.00000000000E+00 0. -1.
         21   -1    0    0  502  503 -0.00000000000E+00 -0.00000000000E+00 -0.59771468370E+03  0.59771468370E+03  0.00000000000E+00 0. -1.
          6    1    1    2  501    0 -0.45150537422E+02 -0.47259105525E+02 -0.22878759417E+03  0.29418490330E+03  0.17300000000E+03 0. -1.
         -6    1    1    2    0  503  0.45150537422E+02  0.47259105525E+02 -0.31079855566E+03  0.36165831428E+03  0.17300000000E+03 0. -1.
<mgrwt>
<rscale>  2 0.18493511E+03</rscale>
<asrwt>0</asrwt>
<pdfrwt beam="1">  1       21 0.89428516E-02 0.18493511E+03</pdfrwt>
<pdfrwt beam="2">  1       21 0.91956103E-01 0.18493511E+03</pdfrwt>
<totfact> 0.99035143E+04</totfact>
</mgrwt>
</event>
<event>
 4    1  0.4053645E-001  0.3065283E+03  0.7546771E-02  0.1082022E+00
         21   -1    0    0  501  502  0.00000000000E+00  0.00000000000E+00  0.99035615285E+02  0.99035615285E+02  0.00000000000E+00 0.  1.
         21   -1    0    0  502  503 -0.00000000000E+00 -0.00000000000E+00 -0.10262477947E+04  0.10262477947E+04  0.00000000000E+00 0.  1.
          6    1    1    2  501    0  0.22244135274E+03  0.12062520603E+03 -0.61822515483E+03  0.69004488101E+03  0.17300000000E+03 0.  1.
         -6    1    1    2    0  503 -0.22244135274E+03 -0.12062520603E+03 -0.30898702456E+03  0.43523852896E+03  0.17300000000E+03 0.  1.
<mgrwt>
<rscale>  2 0.30652830E+03</rscale>
<asrwt>0</asrwt>
<pdfrwt beam="1">  1       21 0.15236250E-01 0.30652830E+03</pdfrwt>
<pdfrwt beam="2">  1       21 0.15788426E+00 0.30652830E+03</pdfrwt>
<totfact> 0.92627382E+03</totfact>
</mgrwt>
</event>
<event>
 4    1  0.4053645E-001  0.2549088E+03  0.7546771E-02  0.1110241E+00
         21   -1    0    0  501  502  0.00000000000E+00  0.00000000000E+00  0.11028843348E+03  0.11028843348E+03  0.00000000000E+00 0.  1.
         21   -1    0    0  502  503 -0.00000000000E+00 -0.00000000000E+00 -0.59002960838E+03  0.59002960838E+03  0.00000000000E+00 0. -1.
          6    1    1    2  501    0 -0.34725901493E+01 -0.18718283324E+03 -0.22649370273E+03  0.34099540953E+03  0.17300000000E+03 0. -1.
         -6    1    1    2    0  503  0.34725901493E+01  0.18718283324E+03 -0.25324747218E+03  0.35932263233E+03  0.17300000000E+03 0.  1.
<mgrwt>
<rscale>  2 0.25490875E+03</rscale>
<asrwt>0</asrwt>
<pdfrwt beam="1">  1       21 0.16967451E-01 0.25490875E+03</pdfrwt>
<pdfrwt beam="2">  1       21 0.90773785E-01 0.25490875E+03</pdfrwt>
<totfact> 0.31246093E+04</totfact>
</mgrwt>
</event>
<event>
 4    1  0.4053645E-001  0.2333479E+03  0.7546771E-02  0.1124305E+00
         21   -1    0    0  503  502  0.00000000000E+00  0.00000000000E+00  0.42883323143E+03  0.42883323143E+03  0.00000000000E+00 0. -1.
         21   -1    0    0  501  503 -0.00000000000E+00 -0.00000000000E+00 -0.13019147243E+03  0.13019147243E+03  0.00000000000E+00 0.  1.
          6    1    1    2  501    0 -0.12154435167E+03 -0.98738127381E+02  0.19325241715E+03  0.30298142510E+03  0.17300000000E+03 0.  1.
         -6    1    1    2    0  502  0.12154435167E+03  0.98738127381E+02  0.10538934185E+03  0.25604327876E+03  0.17300000000E+03 0.  1.
<mgrwt>
<rscale>  2 0.23334791E+03</rscale>
<asrwt>0</asrwt>
<pdfrwt beam="1">  1       21 0.65974343E-01 0.23334791E+03</pdfrwt>
<pdfrwt beam="2">  1       21 0.20029458E-01 0.23334791E+03</pdfrwt>
<totfact> 0.47647888E+04</totfact>
</mgrwt>
</event>
<event>
 4    1  0.4053645E-001  0.2366844E+03  0.7546771E-02  0.1122021E+00
         21   -1    0    0  501  502  0.00000000000E+00  0.00000000000E+00  0.73130030192E+02  0.73130030192E+02  0.00000000000E+00 0. -1.
         21   -1    0    0  502  503 -0.00000000000E+00 -0.00000000000E+00 -0.78823874560E+03  0.78823874560E+03  0.00000000000E+00 0. -1.
          6    1    1    2  501    0 -0.92943620136E+02  0.13210604519E+03 -0.28525593949E+03  0.37066221107E+03  0.17300000000E+03 0. -1.
         -6    1    1    2    0  503  0.92943620136E+02 -0.13210604519E+03 -0.42985277592E+03  0.49070656472E+03  0.17300000000E+03 0. -1.
<mgrwt>
<rscale>  2 0.23668444E+03</rscale>
<asrwt>0</asrwt>
<pdfrwt beam="1">  1       21 0.11250774E-01 0.23668444E+03</pdfrwt>
<pdfrwt beam="2">  1       21 0.12126750E+00 0.23668444E+03</pdfrwt>
<totfact> 0.33071990E+04</totfact>
</mgrwt>
</event>
<event>
 4    1  0.4053645E-001  0.1993368E+03  0.7546771E-02  0.1150300E+00
         21   -1    0    0  503  502  0.00000000000E+00  0.00000000000E+00  0.43627717327E+03  0.43627717327E+03  0.00000000000E+00 0.  1.
         21   -1    0    0  501  503 -0.00000000000E+00 -0.00000000000E+00 -0.10917258569E+03  0.10917258569E+03  0.00000000000E+00 0.  1.
          6    1    1    2  501    0 -0.27630699299E+02  0.95093144856E+02  0.52521159804E+02  0.20613984081E+03  0.17300000000E+03 0.  1.
         -6    1    1    2    0  502  0.27630699299E+02 -0.95093144856E+02  0.27458342777E+03  0.33930991814E+03  0.17300000000E+03 0.  1.
<mgrwt>
<rscale>  2 0.19933680E+03</rscale>
<asrwt>0</asrwt>
<pdfrwt beam="1">  1       21 0.67119564E-01 0.19933680E+03</pdfrwt>
<pdfrwt beam="2">  1       21 0.16795783E-01 0.19933680E+03</pdfrwt>
<totfact> 0.64619156E+04</totfact>
</mgrwt>
</event>
<event>
 4    1  0.4053645E-001  0.1964294E+03  0.7546771E-02  0.1152787E+00
         21   -1    0    0  503  502  0.00000000000E+00  0.00000000000E+00  0.86831651071E+02  0.86831651071E+02  0.00000000000E+00 0. -1.
         21   -1    0    0  501  503 -0.00000000000E+00 -0.00000000000E+00 -0.61744656222E+03  0.61744656222E+03  0.00000000000E+00 0. -1.
          6    1    1    2  501    0 -0.82998252651E+02  0.42033334594E+02 -0.45175053382E+03  0.49260842052E+03  0.17300000000E+03 0. -1.
         -6    1    1    2    0  502  0.82998252651E+02 -0.42033334594E+02 -0.78864377326E+02  0.21166979277E+03  0.17300000000E+03 0. -1.
<mgrwt>
<rscale>  2 0.19642941E+03</rscale>
<asrwt>0</asrwt>
<pdfrwt beam="1">  1       21 0.13358715E-01 0.19642941E+03</pdfrwt>
<pdfrwt beam="2">  1       21 0.94991783E-01 0.19642941E+03</pdfrwt>
<totfact> 0.44754157E+04</totfact>
</mgrwt>
</event>
<event>
 4    1  0.4053645E-001  0.1800666E+03  0.7546771E-02  0.1167739E+00
         21   -1    0    0  501  502  0.00000000000E+00  0.00000000000E+00  0.42310471920E+03  0.42310471920E+03  0.00000000000E+00 0.  1.
         21   -1    0    0  502  503 -0.00000000000E+00 -0.00000000000E+00 -0.77560837780E+02  0.77560837780E+02  0.00000000000E+00 0.  1.
          6    1    1    2  501    0  0.49101311463E+02 -0.91677669946E+01  0.20014480842E+03  0.26922468512E+03  0.17300000000E+03 0. -1.
         -6    1    1    2    0  503 -0.49101311463E+02  0.91677669946E+01  0.14539907300E+03  0.23144087186E+03  0.17300000000E+03 0. -1.
<mgrwt>
<rscale>  2 0.18006662E+03</rscale>
<asrwt>0</asrwt>
<pdfrwt beam="1">  1       21 0.65093032E-01 0.18006662E+03</pdfrwt>
<pdfrwt beam="2">  1       21 0.11932437E-01 0.18006662E+03</pdfrwt>
<totfact> 0.12936531E+05</totfact>
</mgrwt>
</event>
<event>
 4    1  0.4053645E-001  0.2266414E+03  0.7546771E-02  0.1129026E+00
         21   -1    0    0  501  502  0.00000000000E+00  0.00000000000E+00  0.48722100060E+03  0.48722100060E+03  0.00000000000E+00 0.  1.
         21   -1    0    0  502  503 -0.00000000000E+00 -0.00000000000E+00 -0.10675063748E+03  0.10675063748E+03  0.00000000000E+00 0.  1.
          6    1    1    2  501    0  0.46163799716E+02  0.13894691464E+03  0.22330285688E+03  0.31816742037E+03  0.17300000000E+03 0.  1.
         -6    1    1    2    0  503 -0.46163799716E+02 -0.13894691464E+03  0.15716750624E+03  0.27580421772E+03  0.17300000000E+03 0.  1.
<mgrwt>
<rscale>  2 0.22664144E+03</rscale>
<asrwt>0</asrwt>
<pdfrwt beam="1">  1       21 0.74957076E-01 0.22664144E+03</pdfrwt>
<pdfrwt beam="2">  1       21 0.16423175E-01 0.22664144E+03</pdfrwt>
<totfact> 0.52074105E+04</totfact>
</mgrwt>
</event>
<event>
 4    1  0.4053645E-001  0.3516849E+03  0.7546771E-02  0.1061926E+00
         21   -1    0    0  501  502  0.00000000000E+00  0.00000000000E+00  0.40297405818E+03  0.40297405818E+03  0.00000000000E+00 0.  1.
         21   -1    0    0  502  503 -0.00000000000E+00 -0.00000000000E+00 -0.38211743824E+03  0.38211743824E+03  0.00000000000E+00 0. -1.
          6    1    1    2  501    0  0.81600475299E+02  0.29511799390E+03 -0.16370539399E+03  0.38791973901E+03  0.17300000000E+03 0. -1.
         -6    1    1    2    0  503 -0.81600475299E+02 -0.29511799390E+03  0.18456201393E+03  0.39717175740E+03  0.17300000000E+03 0.  1.
<mgrwt>
<rscale>  2 0.35168490E+03</rscale>
<asrwt>0</asrwt>
<pdfrwt beam="1">  1       21 0.61996009E-01 0.35168490E+03</pdfrwt>
<pdfrwt beam="2">  1       21 0.58787298E-01 0.35168490E+03</pdfrwt>
<totfact> 0.59808210E+03</totfact>
</mgrwt>
</event>
<event>
 4    1  0.4053645E-001  0.2543688E+03  0.7546771E-02  0.1110575E+00
         21   -1    0    0  503  502  0.00000000000E+00  0.00000000000E+00  0.47062423112E+02  0.47062423112E+02  0.00000000000E+00 0.  1.
         21   -1    0    0  501  503 -0.00000000000E+00 -0.00000000000E+00 -0.17356091074E+04  0.17356091074E+04  0.00000000000E+00 0. -1.
          6    1    1    2  501    0  0.14439254975E+03 -0.11800545870E+03 -0.12506488742E+04  0.12762547172E+04  0.17300000000E+03 0. -1.
         -6    1    1    2    0  502 -0.14439254975E+03  0.11800545870E+03 -0.43789781017E+03  0.50641681336E+03  0.17300000000E+03 0.  1.
<mgrwt>
<rscale>  2 0.25436882E+03</rscale>
<asrwt>0</asrwt>
<pdfrwt beam="1">  1       21 0.72403719E-02 0.25436882E+03</pdfrwt>
<pdfrwt beam="2">  1       21 0.26701682E+00 0.25436882E+03</pdfrwt>
<totfact> 0.71358506E+03</totfact>
</mgrwt>
</event>
<event>
 4    1  0.4053645E-001  0.2595788E+03  0.7546771E-02  0.1107397E+00
         21   -1    0    0  503  502  0.00000000000E+00  0.00000000000E+00  0.58671943593E+03  0.58671943593E+03  0.00000000000E+00 0. -1.
         21   -1    0    0  501  503 -0.00000000000E+00 -0.00000000000E+00 -0.16796826445E+03  0.16796826445E+03  0.00000000000E+00 0. -1.
          6    1    1    2  501    0  0.19311911952E+03  0.12536572210E+02 -0.28366646924E+01  0.25959431163E+03  0.17300000000E+03 0. -1.
         -6    1    1    2    0  502 -0.19311911952E+03 -0.12536572210E+02  0.42158783617E+03  0.49509338874E+03  0.17300000000E+03 0. -1.
<mgrwt>
<rscale>  2 0.25957881E+03</rscale>
<asrwt>0</asrwt>
<pdfrwt beam="1">  1       21 0.90264528E-01 0.25957881E+03</pdfrwt>
<pdfrwt beam="2">  1       21 0.25841272E-01 0.25957881E+03</pdfrwt>
<totfact> 0.14269204E+04</totfact>
</mgrwt>
</event>
<event>
 4    1  0.4053645E-001  0.1733161E+03  0.7546771E-02  0.1174433E+00
         21   -1    0    0  503  502  0.00000000000E+00  0.00000000000E+00  0.69323422361E+03  0.69323422361E+03  0.00000000000E+00 0.  1.
         21   -1    0    0  501  503 -0.00000000000E+00 -0.00000000000E+00 -0.88007464647E+02  0.88007464647E+02  0.00000000000E+00 0.  1.
          6    1    1    2  501    0 -0.38964603510E+01  0.97096680142E+01  0.24299051968E+02  0.17501115388E+03  0.17300000000E+03 0.  1.
         -6    1    1    2    0  502  0.38964603510E+01 -0.97096680142E+01  0.58092770699E+03  0.60623053437E+03  0.17300000000E+03 0.  1.
<mgrwt>
<rscale>  2 0.17331607E+03</rscale>
<asrwt>0</asrwt>
<pdfrwt beam="1">  1       21 0.10665142E+00 0.17331607E+03</pdfrwt>
<pdfrwt beam="2">  1       21 0.13539610E-01 0.17331607E+03</pdfrwt>
<totfact> 0.33605825E+04</totfact>
</mgrwt>
</event>
<event>
 4    1  0.4053645E-001  0.2645687E+03  0.7546771E-02  0.1104429E+00
         21   -1    0    0  501  502  0.00000000000E+00  0.00000000000E+00  0.59308674734E+03  0.59308674734E+03  0.00000000000E+00 0.  1.
         21   -1    0    0  502  503 -0.00000000000E+00 -0.00000000000E+00 -0.14534440601E+03  0.14534440601E+03  0.00000000000E+00 0. -1.
          6    1    1    2  501    0  0.10430809994E+03  0.17084323504E+03  0.63786548051E+02  0.27214943392E+03  0.17300000000E+03 0. -1.
         -6    1    1    2    0  503 -0.10430809994E+03 -0.17084323504E+03  0.38395579329E+03  0.46628171943E+03  0.17300000000E+03 0.  1.
<mgrwt>
<rscale>  2 0.26456869E+03</rscale>
<asrwt>0</asrwt>
<pdfrwt beam="1">  1       21 0.91244114E-01 0.26456869E+03</pdfrwt>
<pdfrwt beam="2">  1       21 0.22360678E-01 0.26456869E+03</pdfrwt>
<totfact> 0.18311326E+04</totfact>
</mgrwt>
</event>
<event>
 4    1  0.4053645E-001  0.2337347E+03  0.7546771E-02  0.1124038E+00
         21   -1    0    0  503  502  0.00000000000E+00  0.00000000000E+00  0.44253196980E+02  0.44253196980E+02  0.00000000000E+00 0. -1.
         21   -1    0    0  501  503 -0.00000000000E+00 -0.00000000000E+00 -0.24421952220E+04  0.24421952220E+04  0.00000000000E+00 0.  1.
          6    1    1    2  501    0  0.10866629597E+03 -0.11355411164E+03 -0.20732147829E+04  0.20863488290E+04  0.17300000000E+03 0.  1.
         -6    1    1    2    0  502 -0.10866629597E+03  0.11355411164E+03 -0.32472724216E+03  0.40009959004E+03  0.17300000000E+03 0. -1.
<mgrwt>
<rscale>  2 0.23373468E+03</rscale>
<asrwt>0</asrwt>
<pdfrwt beam="1">  1       21 0.68081809E-02 0.23373468E+03</pdfrwt>
<pdfrwt beam="2">  1       21 0.37572252E+00 0.23373468E+03</pdfrwt>
<totfact> 0.18455737E+03</totfact>
</mgrwt>
</event>
<event>
 4    1  0.4053645E-001  0.2056800E+03  0.7546771E-02  0.1145033E+00
         21   -1    0    0  503  502  0.00000000000E+00  0.00000000000E+00  0.93598522233E+03  0.93598522233E+03  0.00000000000E+00 0.  1.
         21   -1    0    0  501  503 -0.00000000000E+00 -0.00000000000E+00 -0.45223709381E+02  0.45223709381E+02  0.00000000000E+00 0. -1.
          6    1    1    2  501    0  0.72625833991E+02 -0.84265845729E+02  0.45717885896E+03  0.50131502431E+03  0.17300000000E+03 0. -1.
         -6    1    1    2    0  502 -0.72625833991E+02  0.84265845729E+02  0.43358265399E+03  0.47989390740E+03  0.17300000000E+03 0.  1.
<mgrwt>
<rscale>  2 0.20567996E+03</rscale>
<asrwt>0</asrwt>
<pdfrwt beam="1">  1       21 0.14399771E+00 0.20567996E+03</pdfrwt>
<pdfrwt beam="2">  1       21 0.69574945E-02 0.20567996E+03</pdfrwt>
<totfact> 0.50479346E+04</totfact>
</mgrwt>
</event>
<event>
 4    1  0.4053645E-001  0.1989132E+03  0.7546771E-02  0.1150659E+00
         21   -1    0    0  501  502  0.00000000000E+00  0.00000000000E+00  0.88172213337E+02  0.88172213337E+02  0.00000000000E+00 0. -1.
         21   -1    0    0  502  503 -0.00000000000E+00 -0.00000000000E+00 -0.53375390564E+03  0.53375390564E+03  0.00000000000E+00 0.  1.
          6    1    1    2  501    0 -0.25925557619E+02  0.94685384034E+02 -0.98688044206E+02  0.22204906340E+03  0.17300000000E+03 0. -1.
         -6    1    1    2    0  503  0.25925557619E+02 -0.94685384034E+02 -0.34689364810E+03  0.39987705558E+03  0.17300000000E+03 0.  1.
<mgrwt>
<rscale>  2 0.19891319E+03</rscale>
<asrwt>0</asrwt>
<pdfrwt beam="1">  1       21 0.13564956E-01 0.19891319E+03</pdfrwt>
<pdfrwt beam="2">  1       21 0.82115983E-01 0.19891319E+03</pdfrwt>
<totfact> 0.60846248E+04</totfact>
</mgrwt>
</event>
<event>
 4    1  0.4053645E-001  0.2097956E+03  0.7546771E-02  0.1141728E+00
         21   -1    0    0  503  502  0.00000000000E+00  0.00000000000E+00  0.17166060329E+03  0.17166060329E+03  0.00000000000E+00 0. -1.
         21   -1    0    0  501  503 -0.00000000000E+00 -0.00000000000E+00 -0.28812145586E+03  0.28812145586E+03  0.00000000000E+00 0. -1.
          6    1    1    2  501    0 -0.10234054718E+03  0.60096558368E+02 -0.13450760475E+03  0.24921171654E+03  0.17300000000E+03 0. -1.
         -6    1    1    2    0  502  0.10234054718E+03 -0.60096558368E+02  0.18046752183E+02  0.21057034262E+03  0.17300000000E+03 0. -1.
<mgrwt>
<rscale>  2 0.20979558E+03</rscale>
<asrwt>0</asrwt>
<pdfrwt beam="1">  1       21 0.26409324E-01 0.20979558E+03</pdfrwt>
<pdfrwt beam="2">  1       21 0.44326377E-01 0.20979558E+03</pdfrwt>
<totfact> 0.66139835E+04</totfact>
</mgrwt>
</event>
<event>
 4    1  0.4053645E-001  0.1858771E+03  0.7546771E-02  0.1162233E+00
         21   -1    0    0  503  502  0.00000000000E+00  0.00000000000E+00  0.42862008612E+02  0.42862008612E+02  0.00000000000E+00 0.  1.
         21   -1    0    0  501  503 -0.00000000000E+00 -0.00000000000E+00 -0.80610956811E+03  0.80610956811E+03  0.00000000000E+00 0.  1.
          6    1    1    2  501    0  0.94150395885E+00 -0.67973524242E+02 -0.37913384261E+03  0.42224727002E+03  0.17300000000E+03 0.  1.
         -6    1    1    2    0  502 -0.94150395885E+00  0.67973524242E+02 -0.38411371688E+03  0.42672430669E+03  0.17300000000E+03 0.  1.
<mgrwt>
<rscale>  2 0.18587707E+03</rscale>
<asrwt>0</asrwt>
<pdfrwt beam="1">  1       21 0.65941551E-02 0.18587707E+03</pdfrwt>
<pdfrwt beam="2">  1       21 0.12401686E+00 0.18587707E+03</pdfrwt>
<totfact> 0.81834424E+04</totfact>
</mgrwt>
</event>
<event>
 4    1  0.4053645E-001  0.1956364E+03  0.7546771E-02  0.1153474E+00
         21   -1    0    0  503  502  0.00000000000E+00  0.00000000000E+00  0.92221297993E+03  0.92221297993E+03  0.00000000000E+00 0.  1.
         21   -1    0    0  501  503 -0.00000000000E+00 -0.00000000000E+00 -0.50564265894E+02  0.50564265894E+02  0.00000000000E+00 0.  1.
          6    1    1    2  501    0 -0.57838469096E+02 -0.70705749333E+02  0.22991203557E+03  0.30188265203E+03  0.17300000000E+03 0.  1.
         -6    1    1    2    0  502  0.57838469096E+02  0.70705749333E+02  0.64173667846E+03  0.67089459379E+03  0.17300000000E+03 0.  1.
<mgrwt>
<rscale>  2 0.19563638E+03</rscale>
<asrwt>0</asrwt>
<pdfrwt beam="1">  1       21 0.14187891E+00 0.19563638E+03</pdfrwt>
<pdfrwt beam="2">  1       21 0.77791185E-02 0.19563638E+03</pdfrwt>
<totfact> 0.43479986E+04</totfact>
</mgrwt>
</event>
<event>
 4    1  0.4053645E-001  0.1813496E+03  0.7546771E-02  0.1166503E+00
         21   -1    0    0  501  502  0.00000000000E+00  0.00000000000E+00  0.31578770272E+03  0.31578770272E+03  0.00000000000E+00 0. -1.
         21   -1    0    0  502  503 -0.00000000000E+00 -0.00000000000E+00 -0.10423458818E+03  0.10423458818E+03  0.00000000000E+00 0.  1.
          6    1    1    2  501    0 -0.36619241385E+02  0.40220584484E+02  0.11193846076E+03  0.21311471853E+03  0.17300000000E+03 0.  1.
         -6    1    1    2    0  503  0.36619241385E+02 -0.40220584484E+02  0.99614653783E+02  0.20690757237E+03  0.17300000000E+03 0. -1.
<mgrwt>
<rscale>  2 0.18134956E+03</rscale>
<asrwt>0</asrwt>
<pdfrwt beam="1">  1       21 0.48582723E-01 0.18134956E+03</pdfrwt>
<pdfrwt beam="2">  1       21 0.16036091E-01 0.18134956E+03</pdfrwt>
<totfact> 0.14100280E+05</totfact>
</mgrwt>
</event>
<event>
 4    1  0.4053645E-001  0.3259301E+03  0.7546771E-02  0.1072952E+00
         21   -1    0    0  503  502  0.00000000000E+00  0.00000000000E+00  0.82509414005E+03  0.82509414005E+03  0.00000000000E+00 0. -1.
         21   -1    0    0  501  503 -0.00000000000E+00 -0.00000000000E+00 -0.13099236607E+03  0.13099236607E+03  0.00000000000E+00 0. -1.
          6    1    1    2  501    0 -0.11454475253E+02 -0.27598953006E+03  0.28449766882E+03  0.43263073084E+03  0.17300000000E+03 0. -1.
         -6    1    1    2    0  502  0.11454475253E+02  0.27598953006E+03  0.40960410516E+03  0.52345577527E+03  0.17300000000E+03 0. -1.
<mgrwt>
<rscale>  2 0.32593009E+03</rscale>
<asrwt>0</asrwt>
<pdfrwt beam="1">  1       21 0.12693756E+00 0.32593009E+03</pdfrwt>
<pdfrwt beam="2">  1       21 0.20152672E-01 0.32593009E+03</pdfrwt>
<totfact> 0.96808743E+03</totfact>
</mgrwt>
</event>
<event>
 4    1  0.4053645E-001  0.1774062E+03  0.7546771E-02  0.1170337E+00
         21   -1    0    0  503  502  0.00000000000E+00  0.00000000000E+00  0.26127263120E+02  0.26127263120E+02  0.00000000000E+00 0. -1.
         21   -1    0    0  501  503 -0.00000000000E+00 -0.00000000000E+00 -0.13147552270E+04  0.13147552270E+04  0.00000000000E+00 0. -1.
          6    1    1    2  501    0 -0.37490126540E+02 -0.11766607010E+02 -0.45025391025E+03  0.48394374294E+03  0.17300000000E+03 0.  1.
         -6    1    1    2    0  502  0.37490126540E+02  0.11766607010E+02 -0.83837405358E+03  0.85693874713E+03  0.17300000000E+03 0.  1.
<mgrwt>
<rscale>  2 0.17740621E+03</rscale>
<asrwt>0</asrwt>
<pdfrwt beam="1">  1       21 0.40195782E-02 0.17740621E+03</pdfrwt>
<pdfrwt beam="2">  1       21 0.20227007E+00 0.17740621E+03</pdfrwt>
<totfact> 0.50982974E+04</totfact>
</mgrwt>
</event>
<event>
 4    1  0.4053645E-001  0.1785979E+03  0.7546771E-02  0.1169167E+00
         21   -1    0    0  501  502  0.00000000000E+00  0.00000000000E+00  0.10009493921E+03  0.10009493921E+03  0.00000000000E+00 0. -1.
         21   -1    0    0  502  503 -0.00000000000E+00 -0.00000000000E+00 -0.34863189869E+03  0.34863189869E+03  0.00000000000E+00 0. -1.
          6    1    1    2  501    0 -0.18393609393E+02 -0.40371676547E+02 -0.58494019635E+02  0.18793282701E+03  0.17300000000E+03 0. -1.
         -6    1    1    2    0  503  0.18393609393E+02  0.40371676547E+02 -0.19004293984E+03  0.26079401089E+03  0.17300000000E+03 0. -1.
<mgrwt>
<rscale>  2 0.17859786E+03</rscale>
<asrwt>0</asrwt>
<pdfrwt beam="1">  1       21 0.15399221E-01 0.17859786E+03</pdfrwt>
<pdfrwt beam="2">  1       21 0.53635677E-01 0.17859786E+03</pdfrwt>
<totfact> 0.12360505E+05</totfact>
</mgrwt>
</event>
<event>
 4    1  0.4053645E-001  0.1883327E+03  0.7546771E-02  0.1159974E+00
         21   -1    0    0  501  502  0.00000000000E+00  0.00000000000E+00  0.27834613499E+03  0.27834613499E+03  0.00000000000E+00 0.  1.
         21   -1    0    0  502  503 -0.00000000000E+00 -0.00000000000E+00 -0.18616021867E+03  0.18616021867E+03  0.00000000000E+00 0.  1.
          6    1    1    2  501    0  0.23109529311E+02 -0.70754152049E+02  0.17654623046E+03  0.25814292915E+03  0.17300000000E+03 0.  1.
         -6    1    1    2    0  503 -0.23109529311E+02  0.70754152049E+02 -0.84360314146E+02  0.20636342452E+03  0.17300000000E+03 0.  1.
<mgrwt>
<rscale>  2 0.18833269E+03</rscale>
<asrwt>0</asrwt>
<pdfrwt beam="1">  1       21 0.42822482E-01 0.18833269E+03</pdfrwt>
<pdfrwt beam="2">  1       21 0.28640034E-01 0.18833269E+03</pdfrwt>
<totfact> 0.61282326E+04</totfact>
</mgrwt>
</event>
<event>
 4    1  0.4053645E-001  0.1808666E+03  0.7546771E-02  0.1166967E+00
         21   -1    0    0  503  502  0.00000000000E+00  0.00000000000E+00  0.21495809414E+03  0.21495809414E+03  0.00000000000E+00 0.  1.
         21   -1    0    0  501  503 -0.00000000000E+00 -0.00000000000E+00 -0.15878541825E+03  0.15878541825E+03  0.00000000000E+00 0. -1.
          6    1    1    2  501    0  0.52761000020E+02  0.11238985431E-01 -0.10022636688E+02  0.18114407662E+03  0.17300000000E+03 0.  1.
         -6    1    1    2    0  502 -0.52761000020E+02 -0.11238985431E-01  0.66195312574E+02  0.19259943576E+03  0.17300000000E+03 0.  1.
<mgrwt>
<rscale>  2 0.18086659E+03</rscale>
<asrwt>0</asrwt>
<pdfrwt beam="1">  1       21 0.33070476E-01 0.18086659E+03</pdfrwt>
<pdfrwt beam="2">  1       21 0.24428526E-01 0.18086659E+03</pdfrwt>
<totfact> 0.13989851E+05</totfact>
</mgrwt>
</event>
<event>
 4    1  0.4053645E-001  0.1983466E+03  0.7546771E-02  0.1151142E+00
         21   -1    0    0  501  502  0.00000000000E+00  0.00000000000E+00  0.25738908006E+03  0.25738908006E+03  0.00000000000E+00 0.  1.
         21   -1    0    0  502  503 -0.00000000000E+00 -0.00000000000E+00 -0.19159659718E+03  0.19159659718E+03  0.00000000000E+00 0.  1.
          6    1    1    2  501    0  0.97016856738E+02  0.30989467787E+00  0.13385347689E+03  0.23928668956E+03  0.17300000000E+03 0.  1.
         -6    1    1    2    0  503 -0.97016856738E+02 -0.30989467787E+00 -0.68060994017E+02  0.20969898768E+03  0.17300000000E+03 0.  1.
<mgrwt>
<rscale>  2 0.19834658E+03</rscale>
<asrwt>0</asrwt>
<pdfrwt beam="1">  1       21 0.39598320E-01 0.19834658E+03</pdfrwt>
<pdfrwt beam="2">  1       21 0.29476399E-01 0.19834658E+03</pdfrwt>
<totfact> 0.67621242E+04</totfact>
</mgrwt>
</event>
<event>
 4    1  0.4053645E-001  0.1881286E+03  0.7546771E-02  0.1160160E+00
         21   -1    0    0  503  502  0.00000000000E+00  0.00000000000E+00  0.54798487534E+03  0.54798487534E+03  0.00000000000E+00 0. -1.
         21   -1    0    0  501  503 -0.00000000000E+00 -0.00000000000E+00 -0.68778480649E+02  0.68778480649E+02  0.00000000000E+00 0. -1.
          6    1    1    2  501    0 -0.51086693306E+02  0.53418303455E+02  0.31573700723E+03  0.36753533587E+03  0.17300000000E+03 0.  1.
         -6    1    1    2    0  502  0.51086693306E+02 -0.53418303455E+02  0.16346938746E+03  0.24922802012E+03  0.17300000000E+03 0.  1.
<mgrwt>
<rscale>  2 0.18812859E+03</rscale>
<asrwt>0</asrwt>
<pdfrwt beam="1">  1       21 0.84305362E-01 0.18812859E+03</pdfrwt>
<pdfrwt beam="2">  1       21 0.10581305E-01 0.18812859E+03</pdfrwt>
<totfact> 0.89811288E+04</totfact>
</mgrwt>
</event>
<event>
 4    1  0.4053645E-001  0.2534948E+03  0.7546771E-02  0.1111116E+00
         21   -1    0    0  501  502  0.00000000000E+00  0.00000000000E+00  0.44538423829E+03  0.44538423829E+03  0.00000000000E+00 0. -1.
         21   -1    0    0  502  503 -0.00000000000E+00 -0.00000000000E+00 -0.14549072596E+03  0.14549072596E+03  0.00000000000E+00 0.  1.
          6    1    1    2  501    0  0.18474621267E+03  0.14122460281E+02  0.17690827318E+03  0.30912156848E+03  0.17300000000E+03 0. -1.
         -6    1    1    2    0  503 -0.18474621267E+03 -0.14122460281E+02  0.12298523915E+03  0.28175339577E+03  0.17300000000E+03 0.  1.
<mgrwt>
<rscale>  2 0.25349479E+03</rscale>
<asrwt>0</asrwt>
<pdfrwt beam="1">  1       21 0.68520652E-01 0.25349479E+03</pdfrwt>
<pdfrwt beam="2">  1       21 0.22383189E-01 0.25349479E+03</pdfrwt>
<totfact> 0.35234016E+04</totfact>
</mgrwt>
</event>
<event>
 4    1  0.4053645E-001  0.2651917E+03  0.7546771E-02  0.1104063E+00
         21   -1    0    0  503  502  0.00000000000E+00  0.00000000000E+00  0.12302823343E+03  0.12302823343E+03  0.00000000000E+00 0.  1.
         21   -1    0    0  501  503 -0.00000000000E+00 -0.00000000000E+00 -0.57257771259E+03  0.57257771259E+03  0.00000000000E+00 0. -1.
          6    1    1    2  501    0 -0.13429105078E+03  0.14954446818E+03 -0.21062512206E+03  0.33865849513E+03  0.17300000000E+03 0. -1.
         -6    1    1    2    0  502  0.13429105078E+03 -0.14954446818E+03 -0.23892435710E+03  0.35694745089E+03  0.17300000000E+03 0. -1.
<mgrwt>
<rscale>  2 0.26519169E+03</rscale>
<asrwt>0</asrwt>
<pdfrwt beam="1">  1       21 0.18927420E-01 0.26519169E+03</pdfrwt>
<pdfrwt beam="2">  1       21 0.88088881E-01 0.26519169E+03</pdfrwt>
<totfact> 0.27218629E+04</totfact>
</mgrwt>
</event>
<event>
 4    1  0.4053645E-001  0.2000401E+03  0.7546771E-02  0.1149705E+00
         21   -1    0    0  503  502  0.00000000000E+00  0.00000000000E+00  0.56510381467E+02  0.56510381467E+02  0.00000000000E+00 0. -1.
         21   -1    0    0  501  503 -0.00000000000E+00 -0.00000000000E+00 -0.70915099392E+03  0.70915099392E+03  0.00000000000E+00 0. -1.
          6    1    1    2  501    0  0.58350542206E+01  0.10026452467E+03 -0.34093096073E+03  0.39528463510E+03  0.17300000000E+03 0. -1.
         -6    1    1    2    0  502 -0.58350542206E+01 -0.10026452467E+03 -0.31170965173E+03  0.37037674029E+03  0.17300000000E+03 0. -1.
<mgrwt>
<rscale>  2 0.20004005E+03</rscale>
<asrwt>0</asrwt>
<pdfrwt beam="1">  1       21 0.86939042E-02 0.20004005E+03</pdfrwt>
<pdfrwt beam="2">  1       21 0.10910016E+00 0.20004005E+03</pdfrwt>
<totfact> 0.68896808E+04</totfact>
</mgrwt>
</event>
<event>
 4    1  0.4053645E-001  0.1836081E+03  0.7546771E-02  0.1164356E+00
         21   -1    0    0  501  502  0.00000000000E+00  0.00000000000E+00  0.39093286735E+03  0.39093286735E+03  0.00000000000E+00 0.  1.
         21   -1    0    0  502  503 -0.00000000000E+00 -0.00000000000E+00 -0.24011816211E+03  0.24011816211E+03  0.00000000000E+00 0.  1.
          6    1    1    2  501    0 -0.21985585209E+01 -0.61466176574E+02  0.32799851292E+03  0.37589220396E+03  0.17300000000E+03 0.  1.
         -6    1    1    2    0  503  0.21985585209E+01  0.61466176574E+02 -0.17718380769E+03  0.25515882550E+03  0.17300000000E+03 0.  1.
<mgrwt>
<rscale>  2 0.18360807E+03</rscale>
<asrwt>0</asrwt>
<pdfrwt beam="1">  1       21 0.60143518E-01 0.18360807E+03</pdfrwt>
<pdfrwt beam="2">  1       21 0.36941256E-01 0.18360807E+03</pdfrwt>
<totfact> 0.18319157E+04</totfact>
</mgrwt>
</event>
<event>
 4    1  0.4053645E-001  0.2075550E+03  0.7546771E-02  0.1143517E+00
         21   -1    0    0  501  502  0.00000000000E+00  0.00000000000E+00  0.56736153793E+03  0.56736153793E+03  0.00000000000E+00 0.  1.
         21   -1    0    0  502  503 -0.00000000000E+00 -0.00000000000E+00 -0.82872351864E+02  0.82872351864E+02  0.00000000000E+00 0.  1.
          6    1    1    2  501    0 -0.43246500079E+02 -0.10620656983E+03  0.33635221857E+03  0.39523652435E+03  0.17300000000E+03 0.  1.
         -6    1    1    2    0  503  0.43246500079E+02  0.10620656983E+03  0.14813696749E+03  0.25499736544E+03  0.17300000000E+03 0.  1.
<mgrwt>
<rscale>  2 0.20755504E+03</rscale>
<asrwt>0</asrwt>
<pdfrwt beam="1">  1       21 0.87286388E-01 0.20755504E+03</pdfrwt>
<pdfrwt beam="2">  1       21 0.12749593E-01 0.20755504E+03</pdfrwt>
<totfact> 0.58926257E+04</totfact>
</mgrwt>
</event>
<event>
 4    1  0.4053645E-001  0.2047832E+03  0.7546771E-02  0.1145765E+00
         21   -1    0    0  501  502  0.00000000000E+00  0.00000000000E+00  0.52290624791E+03  0.52290624791E+03  0.00000000000E+00 0. -1.
         21   -1    0    0  502  503 -0.00000000000E+00 -0.00000000000E+00 -0.83537497824E+02  0.83537497824E+02  0.00000000000E+00 0. -1.
          6    1    1    2  501    0 -0.13058372104E+02 -0.10879636409E+03  0.15906050847E+03  0.25929985591E+03  0.17300000000E+03 0. -1.
         -6    1    1    2    0  503  0.13058372104E+02  0.10879636409E+03  0.28030824161E+03  0.34714388982E+03  0.17300000000E+03 0. -1.
<mgrwt>
<rscale>  2 0.20478323E+03</rscale>
<asrwt>0</asrwt>
<pdfrwt beam="1">  1       21 0.80447113E-01 0.20478323E+03</pdfrwt>
<pdfrwt beam="2">  1       21 0.12851923E-01 0.20478323E+03</pdfrwt>
<totfact> 0.70081159E+04</totfact>
</mgrwt>
</event>
<event>
 4    1  0.4053645E-001  0.1791858E+03  0.7546771E-02  0.1168593E+00
         21   -1    0    0  503  502  0.00000000000E+00  0.00000000000E+00  0.18798574039E+03  0.18798574039E+03  0.00000000000E+00 0.  1.
         21   -1    0    0  501  503 -0.00000000000E+00 -0.00000000000E+00 -0.17176928843E+03  0.17176928843E+03  0.00000000000E+00 0. -1.
          6    1    1    2  501    0 -0.33812160134E+02  0.32176142262E+02 -0.54188711137E+01  0.17926776193E+03  0.17300000000E+03 0.  1.
         -6    1    1    2    0  502  0.33812160134E+02 -0.32176142262E+02  0.21635323073E+02  0.18048726689E+03  0.17300000000E+03 0.  1.
<mgrwt>
<rscale>  2 0.17918584E+03</rscale>
<asrwt>0</asrwt>
<pdfrwt beam="1">  1       21 0.28920883E-01 0.17918584E+03</pdfrwt>
<pdfrwt beam="2">  1       21 0.26426044E-01 0.17918584E+03</pdfrwt>
<totfact> 0.15652356E+05</totfact>
</mgrwt>
</event>
<event>
 4    1  0.4053645E-001  0.1866942E+03  0.7546771E-02  0.1161477E+00
         21   -1    0    0  501  502  0.00000000000E+00  0.00000000000E+00  0.75390889426E+02  0.75390889426E+02  0.00000000000E+00 0.  1.
         21   -1    0    0  502  503 -0.00000000000E+00 -0.00000000000E+00 -0.50108221483E+03  0.50108221483E+03  0.00000000000E+00 0.  1.
          6    1    1    2  501    0  0.31677299483E+02 -0.62628177434E+02 -0.13267839625E+03  0.22903776270E+03  0.17300000000E+03 0.  1.
         -6    1    1    2    0  503 -0.31677299483E+02  0.62628177434E+02 -0.29301292915E+03  0.34743534156E+03  0.17300000000E+03 0.  1.
<mgrwt>
<rscale>  2 0.18669424E+03</rscale>
<asrwt>0</asrwt>
<pdfrwt beam="1">  1       21 0.11598598E-01 0.18669424E+03</pdfrwt>
<pdfrwt beam="2">  1       21 0.77089573E-01 0.18669424E+03</pdfrwt>
<totfact> 0.93454956E+04</totfact>
</mgrwt>
</event>
<event>
 4    1  0.4053645E-001  0.2453175E+03  0.7546771E-02  0.1116300E+00
         21   -1    0    0  503  502  0.00000000000E+00  0.00000000000E+00  0.21635215113E+04  0.21635215113E+04  0.00000000000E+00 0.  1.
         21   -1    0    0  501  503 -0.00000000000E+00 -0.00000000000E+00 -0.46861693387E+02  0.46861693387E+02  0.00000000000E+00 0. -1.
          6    1    1    2  501    0 -0.17083687226E+03 -0.32656557744E+02  0.35375679292E+03  0.43049338696E+03  0.17300000000E+03 0. -1.
         -6    1    1    2    0  502  0.17083687226E+03  0.32656557744E+02  0.17629030250E+04  0.17798898177E+04  0.17300000000E+03 0. -1.
<mgrwt>
<rscale>  2 0.24531752E+03</rscale>
<asrwt>0</asrwt>
<pdfrwt beam="1">  1       21 0.33284939E+00 0.24531752E+03</pdfrwt>
<pdfrwt beam="2">  1       21 0.72094930E-02 0.24531752E+03</pdfrwt>
<totfact> 0.29821573E+03</totfact>
</mgrwt>
</event>
<event>
 4    1  0.4053645E-001  0.6310126E+03  0.7546771E-02  0.9843075E-01
         21   -1    0    0  501  502  0.00000000000E+00  0.00000000000E+00  0.16146615622E+04  0.16146615622E+04  0.00000000000E+00 0.  1.
         21   -1    0    0  502  503 -0.00000000000E+00 -0.00000000000E+00 -0.24845337944E+03  0.24845337944E+03  0.00000000000E+00 0. -1.
          6    1    1    2  501    0 -0.81668563116E+02 -0.60131366239E+03  0.76354418793E+03  0.99054358900E+03  0.17300000000E+03 0.  1.
         -6    1    1    2    0  503  0.81668563116E+02  0.60131366239E+03  0.60266399483E+03  0.87257135264E+03  0.17300000000E+03 0. -1.
<mgrwt>
<rscale>  2 0.63101258E+03</rscale>
<asrwt>0</asrwt>
<pdfrwt beam="1">  1       21 0.24840946E+00 0.63101258E+03</pdfrwt>
<pdfrwt beam="2">  1       21 0.38223598E-01 0.63101258E+03</pdfrwt>
<totfact> 0.33313724E+02</totfact>
</mgrwt>
</event>
<event>
 4    1  0.4053645E-001  0.1873989E+03  0.7546771E-02  0.1160829E+00
         21   -1    0    0  503  502  0.00000000000E+00  0.00000000000E+00  0.14121082106E+03  0.14121082106E+03  0.00000000000E+00 0. -1.
         21   -1    0    0  501  503 -0.00000000000E+00 -0.00000000000E+00 -0.40516841934E+03  0.40516841934E+03  0.00000000000E+00 0. -1.
          6    1    1    2  501    0 -0.70182653144E+02 -0.16239754349E+02 -0.30175139100E+03  0.35520731467E+03  0.17300000000E+03 0.  1.
         -6    1    1    2    0  502  0.70182653144E+02  0.16239754349E+02  0.37793792718E+02  0.19117192574E+03  0.17300000000E+03 0.  1.
<mgrwt>
<rscale>  2 0.18739886E+03</rscale>
<asrwt>0</asrwt>
<pdfrwt beam="1">  1       21 0.21724742E-01 0.18739886E+03</pdfrwt>
<pdfrwt beam="2">  1       21 0.62333602E-01 0.18739886E+03</pdfrwt>
<totfact> 0.47296601E+04</totfact>
</mgrwt>
</event>
<event>
 4    1  0.4053645E-001  0.1851366E+03  0.7546771E-02  0.1162922E+00
         21   -1    0    0  501  502  0.00000000000E+00  0.00000000000E+00  0.28393557581E+04  0.28393557581E+04  0.00000000000E+00 0.  1.
         21   -1    0    0  502  503 -0.00000000000E+00 -0.00000000000E+00 -0.12116847927E+02  0.12116847927E+02  0.00000000000E+00 0.  1.
          6    1    1    2  501    0 -0.47536589486E+02 -0.45681793746E+02  0.15007491686E+04  0.15121255307E+04  0.17300000000E+03 0. -1.
         -6    1    1    2    0  503  0.47536589486E+02  0.45681793746E+02  0.13264897416E+04  0.13393470753E+04  0.17300000000E+03 0. -1.
<mgrwt>
<rscale>  2 0.18513658E+03</rscale>
<asrwt>0</asrwt>
<pdfrwt beam="1">  1       21 0.43682344E+00 0.18513658E+03</pdfrwt>
<pdfrwt beam="2">  1       21 0.18641327E-02 0.18513658E+03</pdfrwt>
<totfact> 0.70836166E+03</totfact>
</mgrwt>
</event>
<event>
 4    1  0.4053645E-001  0.2801470E+03  0.7546771E-02  0.1095609E+00
         21   -1    0    0  501  502  0.00000000000E+00  0.00000000000E+00  0.79103751265E+03  0.79103751265E+03  0.00000000000E+00 0. -1.
         21   -1    0    0  502  503 -0.00000000000E+00 -0.00000000000E+00 -0.10563462190E+03  0.10563462190E+03  0.00000000000E+00 0. -1.
          6    1    1    2  501    0 -0.15221667649E+03  0.15932175278E+03  0.45322999565E+03  0.53282245305E+03  0.17300000000E+03 0. -1.
         -6    1    1    2    0  503  0.15221667649E+03 -0.15932175278E+03  0.23217289510E+03  0.36384968150E+03  0.17300000000E+03 0. -1.
<mgrwt>
<rscale>  2 0.28014699E+03</rscale>
<asrwt>0</asrwt>
<pdfrwt beam="1">  1       21 0.12169807E+00 0.28014699E+03</pdfrwt>
<pdfrwt beam="2">  1       21 0.16251481E-01 0.28014699E+03</pdfrwt>
<totfact> 0.16447045E+04</totfact>
</mgrwt>
</event>
<event>
 4    1  0.4053645E-001  0.1910487E+03  0.7546771E-02  0.1157519E+00
         21   -1    0    0  501  502  0.00000000000E+00  0.00000000000E+00  0.26056316098E+02  0.26056316098E+02  0.00000000000E+00 0.  1.
         21   -1    0    0  502  503 -0.00000000000E+00 -0.00000000000E+00 -0.14602467351E+04  0.14602467351E+04  0.00000000000E+00 0.  1.
          6    1    1    2  501    0 -0.67865455198E+02 -0.44326933130E+02 -0.56714711429E+03  0.59846089785E+03  0.17300000000E+03 0.  1.
         -6    1    1    2    0  503  0.67865455198E+02  0.44326933130E+02 -0.86704330467E+03  0.88784215331E+03  0.17300000000E+03 0.  1.
<mgrwt>
<rscale>  2 0.19104868E+03</rscale>
<asrwt>0</asrwt>
<pdfrwt beam="1">  1       21 0.40086634E-02 0.19104868E+03</pdfrwt>
<pdfrwt beam="2">  1       21 0.22465338E+00 0.19104868E+03</pdfrwt>
<totfact> 0.36832158E+04</totfact>
</mgrwt>
</event>
<event>
 4    1  0.4053645E-001  0.2645309E+03  0.7546771E-02  0.1104451E+00
         21   -1    0    0  503  502  0.00000000000E+00  0.00000000000E+00  0.10471845209E+03  0.10471845209E+03  0.00000000000E+00 0. -1.
         21   -1    0    0  501  503 -0.00000000000E+00 -0.00000000000E+00 -0.74475316460E+03  0.74475316460E+03  0.00000000000E+00 0.  1.
          6    1    1    2  501    0  0.20004020221E+03 -0.56129915300E+01 -0.18387491793E+03  0.32215923643E+03  0.17300000000E+03 0.  1.
         -6    1    1    2    0  502 -0.20004020221E+03  0.56129915300E+01 -0.45615979458E+03  0.52731238025E+03  0.17300000000E+03 0. -1.
<mgrwt>
<rscale>  2 0.26453088E+03</rscale>
<asrwt>0</asrwt>
<pdfrwt beam="1">  1       21 0.16110531E-01 0.26453088E+03</pdfrwt>
<pdfrwt beam="2">  1       21 0.11457741E+00 0.26453088E+03</pdfrwt>
<totfact> 0.19564663E+04</totfact>
</mgrwt>
</event>
<event>
 4    1  0.4053645E-001  0.1850450E+03  0.7546771E-02  0.1163008E+00
         21   -1    0    0  501  502  0.00000000000E+00  0.00000000000E+00  0.14010577340E+03  0.14010577340E+03  0.00000000000E+00 0.  1.
         21   -1    0    0  502  503 -0.00000000000E+00 -0.00000000000E+00 -0.37993213475E+03  0.37993213475E+03  0.00000000000E+00 0.  1.
          6    1    1    2  501    0 -0.60037350310E+02  0.26611686260E+02 -0.27521453983E+03  0.33163942500E+03  0.17300000000E+03 0.  1.
         -6    1    1    2    0  503  0.60037350310E+02 -0.26611686260E+02  0.35388178478E+02  0.18839848315E+03  0.17300000000E+03 0.  1.
<mgrwt>
<rscale>  2 0.18504504E+03</rscale>
<asrwt>0</asrwt>
<pdfrwt beam="1">  1       21 0.21554734E-01 0.18504504E+03</pdfrwt>
<pdfrwt beam="2">  1       21 0.58451098E-01 0.18504504E+03</pdfrwt>
<totfact> 0.55169597E+04</totfact>
</mgrwt>
</event>
<event>
 4    1  0.4053645E-001  0.1765066E+03  0.7546771E-02  0.1171227E+00
         21   -1    0    0  501  502  0.00000000000E+00  0.00000000000E+00  0.20511699194E+02  0.20511699194E+02  0.00000000000E+00 0.  1.
         21   -1    0    0  502  503 -0.00000000000E+00 -0.00000000000E+00 -0.17830718218E+04  0.17830718218E+04  0.00000000000E+00 0.  1.
          6    1    1    2  501    0  0.23569090151E+02  0.25885805815E+02 -0.53415109545E+03  0.56255841450E+03  0.17300000000E+03 0.  1.
         -6    1    1    2    0  503 -0.23569090151E+02 -0.25885805815E+02 -0.12284090272E+04  0.12410251065E+04  0.17300000000E+03 0.  1.
<mgrwt>
<rscale>  2 0.17650659E+03</rscale>
<asrwt>0</asrwt>
<pdfrwt beam="1">  1       21 0.31556472E-02 0.17650659E+03</pdfrwt>
<pdfrwt beam="2">  1       21 0.27431864E+00 0.17650659E+03</pdfrwt>
<totfact> 0.28345402E+04</totfact>
</mgrwt>
</event>
<event>
 4    1  0.4053645E-001  0.2162524E+03  0.7546771E-02  0.1136708E+00
         21   -1    0    0  501  502  0.00000000000E+00  0.00000000000E+00  0.18054564311E+03  0.18054564311E+03  0.00000000000E+00 0. -1.
         21   -1    0    0  502  503 -0.00000000000E+00 -0.00000000000E+00 -0.30555622112E+03  0.30555622112E+03  0.00000000000E+00 0. -1.
          6    1    1    2  501    0  0.45223833876E+02  0.12161795245E+03  0.32345816575E+02  0.21865811981E+03  0.17300000000E+03 0. -1.
         -6    1    1    2    0  503 -0.45223833876E+02 -0.12161795245E+03 -0.15735639459E+03  0.26744374442E+03  0.17300000000E+03 0. -1.
<mgrwt>
<rscale>  2 0.21625245E+03</rscale>
<asrwt>0</asrwt>
<pdfrwt beam="1">  1       21 0.27776253E-01 0.21625245E+03</pdfrwt>
<pdfrwt beam="2">  1       21 0.47008649E-01 0.21625245E+03</pdfrwt>
<totfact> 0.52999298E+04</totfact>
</mgrwt>
</event>
<event>
 4    1  0.4053645E-001  0.2188879E+03  0.7546771E-02  0.1134715E+00
         21   -1    0    0  503  502  0.00000000000E+00  0.00000000000E+00  0.12401183001E+03  0.12401183001E+03  0.00000000000E+00 0. -1.
         21   -1    0    0  501  503 -0.00000000000E+00 -0.00000000000E+00 -0.39412784605E+03  0.39412784605E+03  0.00000000000E+00 0. -1.
          6    1    1    2  501    0 -0.91169295512E+02  0.98341593608E+02 -0.17145300675E+03  0.27804323944E+03  0.17300000000E+03 0. -1.
         -6    1    1    2    0  502  0.91169295512E+02 -0.98341593608E+02 -0.98663009295E+02  0.24009643663E+03  0.17300000000E+03 0. -1.
<mgrwt>
<rscale>  2 0.21888789E+03</rscale>
<asrwt>0</asrwt>
<pdfrwt beam="1">  1       21 0.19078743E-01 0.21888789E+03</pdfrwt>
<pdfrwt beam="2">  1       21 0.60635053E-01 0.21888789E+03</pdfrwt>
<totfact> 0.63095134E+04</totfact>
</mgrwt>
</event>
<event>
 4    1  0.4053645E-001  0.2100427E+03  0.7546771E-02  0.1141532E+00
         21   -1    0    0  501  502  0.00000000000E+00  0.00000000000E+00  0.39484963814E+03  0.39484963814E+03  0.00000000000E+00 0. -1.
         21   -1    0    0  502  503 -0.00000000000E+00 -0.00000000000E+00 -0.13809781031E+03  0.13809781031E+03  0.00000000000E+00 0. -1.
          6    1    1    2  501    0  0.11211895926E+03  0.40227578417E+02  0.24480714057E+03  0.32256542773E+03  0.17300000000E+03 0. -1.
         -6    1    1    2    0  503 -0.11211895926E+03 -0.40227578417E+02  0.11944687262E+02  0.21038202073E+03  0.17300000000E+03 0. -1.
<mgrwt>
<rscale>  2 0.21004266E+03</rscale>
<asrwt>0</asrwt>
<pdfrwt beam="1">  1       21 0.60746098E-01 0.21004266E+03</pdfrwt>
<pdfrwt beam="2">  1       21 0.21245817E-01 0.21004266E+03</pdfrwt>
<totfact> 0.51576418E+04</totfact>
</mgrwt>
</event>
<event>
 4    1  0.4053645E-001  0.2030723E+03  0.7546771E-02  0.1147172E+00
         21   -1    0    0  503  502  0.00000000000E+00  0.00000000000E+00  0.70143187833E+02  0.70143187833E+02  0.00000000000E+00 0.  1.
         21   -1    0    0  501  503 -0.00000000000E+00 -0.00000000000E+00 -0.65207395322E+03  0.65207395322E+03  0.00000000000E+00 0.  1.
          6    1    1    2  501    0 -0.58253138480E+02  0.88971602958E+02 -0.40423440519E+03  0.45237576042E+03  0.17300000000E+03 0.  1.
         -6    1    1    2    0  502  0.58253138480E+02 -0.88971602958E+02 -0.17769636020E+03  0.26984138064E+03  0.17300000000E+03 0.  1.
<mgrwt>
<rscale>  2 0.20307234E+03</rscale>
<asrwt>0</asrwt>
<pdfrwt beam="1">  1       21 0.10791260E-01 0.20307234E+03</pdfrwt>
<pdfrwt beam="2">  1       21 0.10031907E+00 0.20307234E+03</pdfrwt>
<totfact> 0.57474132E+04</totfact>
</mgrwt>
</event>
<event>
 4    1  0.4053645E-001  0.2151559E+03  0.7546771E-02  0.1137547E+00
         21   -1    0    0  503  502  0.00000000000E+00  0.00000000000E+00  0.18343779149E+03  0.18343779149E+03  0.00000000000E+00 0. -1.
         21   -1    0    0  501  503 -0.00000000000E+00 -0.00000000000E+00 -0.25651646116E+03  0.25651646116E+03  0.00000000000E+00 0. -1.
          6    1    1    2  501    0 -0.43917896032E+02 -0.12014273340E+03 -0.85322396289E+01  0.21532500341E+03  0.17300000000E+03 0. -1.
         -6    1    1    2    0  502  0.43917896032E+02  0.12014273340E+03 -0.64546430046E+02  0.22462924924E+03  0.17300000000E+03 0. -1.
<mgrwt>
<rscale>  2 0.21515589E+03</rscale>
<asrwt>0</asrwt>
<pdfrwt beam="1">  1       21 0.28221199E-01 0.21515589E+03</pdfrwt>
<pdfrwt beam="2">  1       21 0.39464071E-01 0.21515589E+03</pdfrwt>
<totfact> 0.73555800E+04</totfact>
</mgrwt>
</event>
<event>
 4    1  0.4053645E-001  0.1791050E+03  0.7546771E-02  0.1168672E+00
         21   -1    0    0  501  502  0.00000000000E+00  0.00000000000E+00  0.79590826168E+02  0.79590826168E+02  0.00000000000E+00 0. -1.
         21   -1    0    0  502  503 -0.00000000000E+00 -0.00000000000E+00 -0.41716779999E+03  0.41716779999E+03  0.00000000000E+00 0. -1.
          6    1    1    2  501    0 -0.39469013069E+02 -0.24327150082E+02 -0.12308659154E+03  0.21732216233E+03  0.17300000000E+03 0. -1.
         -6    1    1    2    0  503  0.39469013069E+02  0.24327150082E+02 -0.21449038229E+03  0.27943646383E+03  0.17300000000E+03 0. -1.
<mgrwt>
<rscale>  2 0.17910503E+03</rscale>
<asrwt>0</asrwt>
<pdfrwt beam="1">  1       21 0.12244743E-01 0.17910503E+03</pdfrwt>
<pdfrwt beam="2">  1       21 0.64179661E-01 0.17910503E+03</pdfrwt>
<totfact> 0.12741951E+05</totfact>
</mgrwt>
</event>
<event>
 4    1  0.4053645E-001  0.1770019E+03  0.7546771E-02  0.1170737E+00
         21   -1    0    0  503  502  0.00000000000E+00  0.00000000000E+00  0.65715338339E+02  0.65715338339E+02  0.00000000000E+00 0.  1.
         21   -1    0    0  501  503 -0.00000000000E+00 -0.00000000000E+00 -0.59591071375E+03  0.59591071375E+03  0.00000000000E+00 0.  1.
          6    1    1    2  501    0 -0.32377335967E+02 -0.18772006294E+02 -0.41302948464E+03  0.44935847080E+03  0.17300000000E+03 0.  1.
         -6    1    1    2    0  502  0.32377335967E+02  0.18772006294E+02 -0.11716589078E+03  0.21226758129E+03  0.17300000000E+03 0.  1.
<mgrwt>
<rscale>  2 0.17700192E+03</rscale>
<asrwt>0</asrwt>
<pdfrwt beam="1">  1       21 0.10110052E-01 0.17700192E+03</pdfrwt>
<pdfrwt beam="2">  1       21 0.91678574E-01 0.17700192E+03</pdfrwt>
<totfact> 0.80654237E+04</totfact>
</mgrwt>
</event>
<event>
 4    1  0.4053645E-001  0.1971462E+03  0.7546771E-02  0.1152169E+00
         21   -1    0    0  503  502  0.00000000000E+00  0.00000000000E+00  0.37938611440E+02  0.37938611440E+02  0.00000000000E+00 0.  1.
         21   -1    0    0  501  503 -0.00000000000E+00 -0.00000000000E+00 -0.10328417625E+04  0.10328417625E+04  0.00000000000E+00 0.  1.
          6    1    1    2  501    0  0.84413290406E+02 -0.42567664948E+02 -0.44922264270E+03  0.49057883404E+03  0.17300000000E+03 0. -1.
         -6    1    1    2    0  502 -0.84413290406E+02  0.42567664948E+02 -0.54568050838E+03  0.58020153992E+03  0.17300000000E+03 0. -1.
<mgrwt>
<rscale>  2 0.19714616E+03</rscale>
<asrwt>0</asrwt>
<pdfrwt beam="1">  1       21 0.58367087E-02 0.19714616E+03</pdfrwt>
<pdfrwt beam="2">  1       21 0.15889875E+00 0.19714616E+03</pdfrwt>
<totfact> 0.52867396E+04</totfact>
</mgrwt>
</event>
<event>
 4    1  0.4053645E-001  0.2118189E+03  0.7546771E-02  0.1140134E+00
         21   -1    0    0  501  502  0.00000000000E+00  0.00000000000E+00  0.87828824160E+03  0.87828824160E+03  0.00000000000E+00 0.  1.
         21   -1    0    0  502  503 -0.00000000000E+00 -0.00000000000E+00 -0.51153275495E+02  0.51153275495E+02  0.00000000000E+00 0.  1.
          6    1    1    2  501    0 -0.34916558579E+02 -0.11712855303E+03  0.39657658167E+03  0.44960009912E+03  0.17300000000E+03 0.  1.
         -6    1    1    2    0  503  0.34916558579E+02  0.11712855303E+03  0.43055838444E+03  0.47984141798E+03  0.17300000000E+03 0.  1.
<mgrwt>
<rscale>  2 0.21181894E+03</rscale>
<asrwt>0</asrwt>
<pdfrwt beam="1">  1       21 0.13512126E+00 0.21181894E+03</pdfrwt>
<pdfrwt beam="2">  1       21 0.78697353E-02 0.21181894E+03</pdfrwt>
<totfact> 0.47892863E+04</totfact>
</mgrwt>
</event>
<event>
 4    1  0.4053645E-001  0.1857107E+03  0.7546771E-02  0.1162388E+00
         21   -1    0    0  503  502  0.00000000000E+00  0.00000000000E+00  0.65666693658E+03  0.65666693658E+03  0.00000000000E+00 0. -1.
         21   -1    0    0  501  503 -0.00000000000E+00 -0.00000000000E+00 -0.54405486320E+02  0.54405486320E+02  0.00000000000E+00 0. -1.
          6    1    1    2  501    0 -0.66144660542E+02  0.13577248322E+02  0.23495179222E+03  0.29948422739E+03  0.17300000000E+03 0. -1.
         -6    1    1    2    0  502  0.66144660542E+02 -0.13577248322E+02  0.36730965804E+03  0.41158819551E+03  0.17300000000E+03 0. -1.
<mgrwt>
<rscale>  2 0.18571068E+03</rscale>
<asrwt>0</asrwt>
<pdfrwt beam="1">  1       21 0.10102568E+00 0.18571068E+03</pdfrwt>
<pdfrwt beam="2">  1       21 0.83700753E-02 0.18571068E+03</pdfrwt>
<totfact> 0.89127431E+04</totfact>
</mgrwt>
</event>
<event>
 4    1  0.4053645E-001  0.1744259E+03  0.7546771E-02  0.1173309E+00
         21   -1    0    0  501  502  0.00000000000E+00  0.00000000000E+00  0.30661091796E+03  0.30661091796E+03  0.00000000000E+00 0.  1.
         21   -1    0    0  502  503 -0.00000000000E+00 -0.00000000000E+00 -0.15694456578E+03  0.15694456578E+03  0.00000000000E+00 0.  1.
          6    1    1    2  501    0  0.14039979502E+02  0.17270115744E+02  0.21538903478E+03  0.27715846411E+03  0.17300000000E+03 0.  1.
         -6    1    1    2    0  503 -0.14039979502E+02 -0.17270115744E+02 -0.65722682596E+02  0.18639701964E+03  0.17300000000E+03 0.  1.
<mgrwt>
<rscale>  2 0.17442585E+03</rscale>
<asrwt>0</asrwt>
<pdfrwt beam="1">  1       21 0.47170910E-01 0.17442585E+03</pdfrwt>
<pdfrwt beam="2">  1       21 0.24145318E-01 0.17442585E+03</pdfrwt>
<totfact> 0.70146935E+04</totfact>
</mgrwt>
</event>
<event>
 4    1  0.4053645E-001  0.1851160E+03  0.7546771E-02  0.1162942E+00
         21   -1    0    0  503  502  0.00000000000E+00  0.00000000000E+00  0.18009909175E+03  0.18009909175E+03  0.00000000000E+00 0.  1.
         21   -1    0    0  501  503 -0.00000000000E+00 -0.00000000000E+00 -0.21565785537E+03  0.21565785537E+03  0.00000000000E+00 0.  1.
          6    1    1    2  501    0 -0.22175748991E+02  0.62025511476E+02 -0.85669477215E+02  0.20397839896E+03  0.17300000000E+03 0.  1.
         -6    1    1    2    0  502  0.22175748991E+02 -0.62025511476E+02  0.50110713592E+02  0.19177854816E+03  0.17300000000E+03 0.  1.
<mgrwt>
<rscale>  2 0.18511599E+03</rscale>
<asrwt>0</asrwt>
<pdfrwt beam="1">  1       21 0.27707553E-01 0.18511599E+03</pdfrwt>
<pdfrwt beam="2">  1       21 0.33178132E-01 0.18511599E+03</pdfrwt>
<totfact> 0.10905442E+05</totfact>
</mgrwt>
</event>
<event>
 4    1  0.4053645E-001  0.2524955E+03  0.7546771E-02  0.1111738E+00
         21   -1    0    0  503  502  0.00000000000E+00  0.00000000000E+00  0.20495241908E+03  0.20495241908E+03  0.00000000000E+00 0.  1.
         21   -1    0    0  501  503 -0.00000000000E+00 -0.00000000000E+00 -0.31148790879E+03  0.31148790879E+03  0.00000000000E+00 0.  1.
          6    1    1    2  501    0 -0.16488398739E+03  0.81475385547E+02 -0.62758023358E+02  0.26017789538E+03  0.17300000000E+03 0.  1.
         -6    1    1    2    0  502  0.16488398739E+03 -0.81475385547E+02 -0.43777466344E+02  0.25626243249E+03  0.17300000000E+03 0.  1.
<mgrwt>
<rscale>  2 0.25249548E+03</rscale>
<asrwt>0</asrwt>
<pdfrwt beam="1">  1       21 0.31531142E-01 0.25249548E+03</pdfrwt>
<pdfrwt beam="2">  1       21 0.47921216E-01 0.25249548E+03</pdfrwt>
<totfact> 0.39126729E+04</totfact>
</mgrwt>
</event>
<event>
 4    1  0.4053645E-001  0.2108230E+03  0.7546771E-02  0.1140916E+00
         21   -1    0    0  501  502  0.00000000000E+00  0.00000000000E+00  0.13146655959E+03  0.13146655959E+03  0.00000000000E+00 0.  1.
         21   -1    0    0  502  503 -0.00000000000E+00 -0.00000000000E+00 -0.35972891737E+03  0.35972891737E+03  0.00000000000E+00 0. -1.
          6    1    1    2  501    0  0.39596085122E+02  0.11379587907E+03 -0.53882950357E+02  0.21759991818E+03  0.17300000000E+03 0.  1.
         -6    1    1    2    0  503 -0.39596085122E+02 -0.11379587907E+03 -0.17437940743E+03  0.27359555878E+03  0.17300000000E+03 0. -1.
<mgrwt>
<rscale>  2 0.21082303E+03</rscale>
<asrwt>0</asrwt>
<pdfrwt beam="1">  1       21 0.20225625E-01 0.21082303E+03</pdfrwt>
<pdfrwt beam="2">  1       21 0.55342910E-01 0.21082303E+03</pdfrwt>
<totfact> 0.69022852E+04</totfact>
</mgrwt>
</event>
<event>
 4    1  0.4053645E-001  0.1775281E+03  0.7546771E-02  0.1170217E+00
         21   -1    0    0  501  502  0.00000000000E+00  0.00000000000E+00  0.47403928006E+02  0.47403928006E+02  0.00000000000E+00 0. -1.
         21   -1    0    0  502  503 -0.00000000000E+00 -0.00000000000E+00 -0.67890402566E+03  0.67890402566E+03  0.00000000000E+00 0. -1.
          6    1    1    2  501    0  0.39182253103E+02  0.72099133219E+01 -0.36801070769E+03  0.40859284475E+03  0.17300000000E+03 0. -1.
         -6    1    1    2    0  503 -0.39182253103E+02 -0.72099133219E+01 -0.26348938996E+03  0.31771510891E+03  0.17300000000E+03 0. -1.
<mgrwt>
<rscale>  2 0.17752812E+03</rscale>
<asrwt>0</asrwt>
<pdfrwt beam="1">  1       21 0.72929125E-02 0.17752812E+03</pdfrwt>
<pdfrwt beam="2">  1       21 0.10444677E+00 0.17752812E+03</pdfrwt>
<totfact> 0.10491877E+05</totfact>
</mgrwt>
</event>
<event>
 4    1  0.4053645E-001  0.2306938E+03  0.7546771E-02  0.1126152E+00
         21   -1    0    0  501  502  0.00000000000E+00  0.00000000000E+00  0.44933729187E+02  0.44933729187E+02  0.00000000000E+00 0. -1.
         21   -1    0    0  502  503 -0.00000000000E+00 -0.00000000000E+00 -0.11998606084E+04  0.11998606084E+04  0.00000000000E+00 0.  1.
          6    1    1    2  501    0  0.21525042871E+01 -0.15259743156E+03 -0.64810886914E+03  0.68794237815E+03  0.17300000000E+03 0. -1.
         -6    1    1    2    0  503 -0.21525042871E+01  0.15259743156E+03 -0.50681801007E+03  0.55685195943E+03  0.17300000000E+03 0. -1.
<mgrwt>
<rscale>  2 0.23069376E+03</rscale>
<asrwt>0</asrwt>
<pdfrwt beam="1">  1       21 0.69128817E-02 0.23069376E+03</pdfrwt>
<pdfrwt beam="2">  1       21 0.18459393E+00 0.23069376E+03</pdfrwt>
<totfact> 0.25532325E+04</totfact>
</mgrwt>
</event>
<event>
 4    1  0.4053645E-001  0.1894006E+03  0.7546771E-02  0.1159003E+00
         21   -1    0    0  503  502  0.00000000000E+00  0.00000000000E+00  0.11875379123E+04  0.11875379123E+04  0.00000000000E+00 0.  1.
         21   -1    0    0  501  503 -0.00000000000E+00 -0.00000000000E+00 -0.31717108834E+02  0.31717108834E+02  0.00000000000E+00 0.  1.
          6    1    1    2  501    0 -0.48487516268E+02 -0.59937997428E+02  0.44491281419E+03  0.48354939252E+03  0.17300000000E+03 0.  1.
         -6    1    1    2    0  502  0.48487516268E+02  0.59937997428E+02  0.71090798932E+03  0.73570562866E+03  0.17300000000E+03 0.  1.
<mgrwt>
<rscale>  2 0.18940064E+03</rscale>
<asrwt>0</asrwt>
<pdfrwt beam="1">  1       21 0.18269811E+00 0.18940064E+03</pdfrwt>
<pdfrwt beam="2">  1       21 0.48795561E-02 0.18940064E+03</pdfrwt>
<totfact> 0.49006429E+04</totfact>
</mgrwt>
</event>
<event>
 4    1  0.4053645E-001  0.2476554E+03  0.7546771E-02  0.1114796E+00
         21   -1    0    0  503  502  0.00000000000E+00  0.00000000000E+00  0.38263283968E+03  0.38263283968E+03  0.00000000000E+00 0. -1.
         21   -1    0    0  501  503 -0.00000000000E+00 -0.00000000000E+00 -0.20660766973E+03  0.20660766973E+03  0.00000000000E+00 0. -1.
          6    1    1    2  501    0 -0.17583669523E+03  0.22037427189E+02 -0.51479896757E+02  0.25294934544E+03  0.17300000000E+03 0. -1.
         -6    1    1    2    0  502  0.17583669523E+03 -0.22037427189E+02  0.22750506671E+03  0.33629116397E+03  0.17300000000E+03 0. -1.
<mgrwt>
<rscale>  2 0.24765539E+03</rscale>
<asrwt>0</asrwt>
<pdfrwt beam="1">  1       21 0.58866591E-01 0.24765539E+03</pdfrwt>
<pdfrwt beam="2">  1       21 0.31785795E-01 0.24765539E+03</pdfrwt>
<totfact> 0.24958817E+04</totfact>
</mgrwt>
</event>
<event>
 4    1  0.4053645E-001  0.2087458E+03  0.7546771E-02  0.1142563E+00
         21   -1    0    0  501  502  0.00000000000E+00  0.00000000000E+00  0.54736418548E+02  0.54736418548E+02  0.00000000000E+00 0. -1.
         21   -1    0    0  502  503 -0.00000000000E+00 -0.00000000000E+00 -0.11713152865E+04  0.11713152865E+04  0.00000000000E+00 0.  1.
          6    1    1    2  501    0 -0.11258254947E+03  0.31160566318E+02 -0.21132005523E+03  0.29703699615E+03  0.17300000000E+03 0. -1.
         -6    1    1    2    0  503  0.11258254947E+03 -0.31160566318E+02 -0.90525881271E+03  0.92901470888E+03  0.17300000000E+03 0.  1.
<mgrwt>
<rscale>  2 0.20874581E+03</rscale>
<asrwt>0</asrwt>
<pdfrwt beam="1">  1       21 0.84209872E-02 0.20874581E+03</pdfrwt>
<pdfrwt beam="2">  1       21 0.18020236E+00 0.20874581E+03</pdfrwt>
<totfact> 0.19676886E+04</totfact>
</mgrwt>
</event>
<event>
 4    1  0.4053645E-001  0.1860154E+03  0.7546771E-02  0.1162105E+00
         21   -1    0    0  503  502  0.00000000000E+00  0.00000000000E+00  0.11398074872E+03  0.11398074872E+03  0.00000000000E+00 0.  1.
         21   -1    0    0  501  503 -0.00000000000E+00 -0.00000000000E+00 -0.32034020785E+03  0.32034020785E+03  0.00000000000E+00 0.  1.
          6    1    1    2  501    0 -0.24984893488E+02 -0.63627691107E+02 -0.15285920630E+03  0.24076475018E+03  0.17300000000E+03 0.  1.
         -6    1    1    2    0  502  0.24984893488E+02  0.63627691107E+02 -0.53500252839E+02  0.19355620639E+03  0.17300000000E+03 0.  1.
<mgrwt>
<rscale>  2 0.18601540E+03</rscale>
<asrwt>0</asrwt>
<pdfrwt beam="1">  1       21 0.17535500E-01 0.18601540E+03</pdfrwt>
<pdfrwt beam="2">  1       21 0.49283108E-01 0.18601540E+03</pdfrwt>
<totfact> 0.11597604E+05</totfact>
</mgrwt>
</event>
<event>
 4    1  0.4053645E-001  0.2091949E+03  0.7546771E-02  0.1142205E+00
         21   -1    0    0  503  502  0.00000000000E+00  0.00000000000E+00  0.83957678506E+03  0.83957678506E+03  0.00000000000E+00 0.  1.
         21   -1    0    0  501  503 -0.00000000000E+00 -0.00000000000E+00 -0.71270686413E+02  0.71270686413E+02  0.00000000000E+00 0. -1.
          6    1    1    2  501    0  0.21135112190E+02  0.11570141972E+03  0.14810443852E+03  0.25631511114E+03  0.17300000000E+03 0. -1.
         -6    1    1    2    0  502 -0.21135112190E+02 -0.11570141972E+03  0.62020166013E+03  0.65453236033E+03  0.17300000000E+03 0.  1.
<mgrwt>
<rscale>  2 0.20919491E+03</rscale>
<asrwt>0</asrwt>
<pdfrwt beam="1">  1       21 0.12916565E+00 0.20919491E+03</pdfrwt>
<pdfrwt beam="2">  1       21 0.10964722E-01 0.20919491E+03</pdfrwt>
<totfact> 0.29984528E+04</totfact>
</mgrwt>
</event>
<event>
 4    1  0.4053645E-001  0.1973909E+03  0.7546771E-02  0.1151959E+00
         21   -1    0    0  501  502  0.00000000000E+00  0.00000000000E+00  0.53838801783E+02  0.53838801783E+02  0.00000000000E+00 0.  1.
         21   -1    0    0  502  503 -0.00000000000E+00 -0.00000000000E+00 -0.81665874825E+03  0.81665874825E+03  0.00000000000E+00 0.  1.
          6    1    1    2  501    0  0.94697880803E+02  0.81528138147E+01 -0.23456412208E+03  0.30656725913E+03  0.17300000000E+03 0.  1.
         -6    1    1    2    0  503 -0.94697880803E+02 -0.81528138147E+01 -0.52825582439E+03  0.56393029091E+03  0.17300000000E+03 0.  1.
<mgrwt>
<rscale>  2 0.19739087E+03</rscale>
<asrwt>0</asrwt>
<pdfrwt beam="1">  1       21 0.82828926E-02 0.19739087E+03</pdfrwt>
<pdfrwt beam="2">  1       21 0.12563981E+00 0.19739087E+03</pdfrwt>
<totfact> 0.53062660E+04</totfact>
</mgrwt>
</event>
<event>
 4    1  0.4053645E-001  0.4386881E+03  0.7546771E-02  0.1031150E+00
         21   -1    0    0  503  502  0.00000000000E+00  0.00000000000E+00  0.75023015834E+03  0.75023015834E+03  0.00000000000E+00 0. -1.
         21   -1    0    0  501  503 -0.00000000000E+00 -0.00000000000E+00 -0.43010185294E+03  0.43010185294E+03  0.00000000000E+00 0.  1.
          6    1    1    2  501    0 -0.36184016088E+03 -0.17773567057E+03 -0.21486019443E+03  0.48847945071E+03  0.17300000000E+03 0.  1.
         -6    1    1    2    0  502  0.36184016088E+03  0.17773567057E+03  0.53498849983E+03  0.69185256057E+03  0.17300000000E+03 0. -1.
<mgrwt>
<rscale>  2 0.43868812E+03</rscale>
<asrwt>0</asrwt>
<pdfrwt beam="1">  1       21 0.11542002E+00 0.43868812E+03</pdfrwt>
<pdfrwt beam="2">  1       21 0.66169516E-01 0.43868812E+03</pdfrwt>
<totfact> 0.10400137E+03</totfact>
</mgrwt>
</event>
<event>
 4    1  0.4053645E-001  0.2969861E+03  0.7546771E-02  0.1086757E+00
         21   -1    0    0  503  502  0.00000000000E+00  0.00000000000E+00  0.39187909749E+02  0.39187909749E+02  0.00000000000E+00 0.  1.
         21   -1    0    0  501  503 -0.00000000000E+00 -0.00000000000E+00 -0.24094659332E+04  0.24094659332E+04  0.00000000000E+00 0.  1.
          6    1    1    2  501    0 -0.23678475723E+03  0.46954648026E+02 -0.87087322417E+03  0.92012006435E+03  0.17300000000E+03 0.  1.
         -6    1    1    2    0  502  0.23678475723E+03 -0.46954648026E+02 -0.14994047992E+04  0.15285337786E+04  0.17300000000E+03 0.  1.
<mgrwt>
<rscale>  2 0.29698613E+03</rscale>
<asrwt>0</asrwt>
<pdfrwt beam="1">  1       21 0.60289095E-02 0.29698613E+03</pdfrwt>
<pdfrwt beam="2">  1       21 0.37068705E+00 0.29698613E+03</pdfrwt>
<totfact> 0.22933281E+03</totfact>
</mgrwt>
</event>
<event>
 4    1  0.4053645E-001  0.1762045E+03  0.7546771E-02  0.1171528E+00
         21   -1    0    0  503  502  0.00000000000E+00  0.00000000000E+00  0.85011501751E+02  0.85011501751E+02  0.00000000000E+00 0.  1.
         21   -1    0    0  501  503 -0.00000000000E+00 -0.00000000000E+00 -0.37993245871E+03  0.37993245871E+03  0.00000000000E+00 0.  1.
          6    1    1    2  501    0  0.28154019316E+02 -0.18065805373E+02 -0.10171597096E+03  0.20345555012E+03  0.17300000000E+03 0.  1.
         -6    1    1    2    0  502 -0.28154019316E+02  0.18065805373E+02 -0.19320498600E+03  0.26148841034E+03  0.17300000000E+03 0.  1.
<mgrwt>
<rscale>  2 0.17620449E+03</rscale>
<asrwt>0</asrwt>
<pdfrwt beam="1">  1       21 0.13078693E-01 0.17620449E+03</pdfrwt>
<pdfrwt beam="2">  1       21 0.58451148E-01 0.17620449E+03</pdfrwt>
<totfact> 0.13857578E+05</totfact>
</mgrwt>
</event>
<event>
 4    1  0.4053645E-001  0.1764209E+03  0.7546771E-02  0.1171313E+00
         21   -1    0    0  501  502  0.00000000000E+00  0.00000000000E+00  0.55307724830E+02  0.55307724830E+02  0.00000000000E+00 0. -1.
         21   -1    0    0  502  503 -0.00000000000E+00 -0.00000000000E+00 -0.69801205384E+03  0.69801205384E+03  0.00000000000E+00 0. -1.
          6    1    1    2  501    0 -0.34472963289E+02  0.26346936915E+01 -0.15554294716E+03  0.23519765139E+03  0.17300000000E+03 0. -1.
         -6    1    1    2    0  503  0.34472963289E+02 -0.26346936915E+01 -0.48716138185E+03  0.51812212728E+03  0.17300000000E+03 0. -1.
<mgrwt>
<rscale>  2 0.17642088E+03</rscale>
<asrwt>0</asrwt>
<pdfrwt beam="1">  1       21 0.85088806E-02 0.17642088E+03</pdfrwt>
<pdfrwt beam="2">  1       21 0.10738647E+00 0.17642088E+03</pdfrwt>
<totfact> 0.75147345E+04</totfact>
</mgrwt>
</event>
<event>
 4    1  0.4053645E-001  0.2631187E+03  0.7546771E-02  0.1105284E+00
         21   -1    0    0  503  502  0.00000000000E+00  0.00000000000E+00  0.77830588670E+03  0.77830588670E+03  0.00000000000E+00 0.  1.
         21   -1    0    0  501  503 -0.00000000000E+00 -0.00000000000E+00 -0.13118433689E+03  0.13118433689E+03  0.00000000000E+00 0.  1.
          6    1    1    2  501    0 -0.54277313292E+01 -0.19817414665E+03  0.65541393638E+02  0.27115885924E+03  0.17300000000E+03 0.  1.
         -6    1    1    2    0  502  0.54277313292E+01  0.19817414665E+03  0.58158015617E+03  0.63833136435E+03  0.17300000000E+03 0.  1.
<mgrwt>
<rscale>  2 0.26311870E+03</rscale>
<asrwt>0</asrwt>
<pdfrwt beam="1">  1       21 0.11973936E+00 0.26311870E+03</pdfrwt>
<pdfrwt beam="2">  1       21 0.20182206E-01 0.26311870E+03</pdfrwt>
<totfact> 0.11535511E+04</totfact>
</mgrwt>
</event>
<event>
 4    1  0.4053645E-001  0.2437060E+03  0.7546771E-02  0.1117348E+00
         21   -1    0    0  503  502  0.00000000000E+00  0.00000000000E+00  0.54107096867E+03  0.54107096867E+03  0.00000000000E+00 0. -1.
         21   -1    0    0  501  503 -0.00000000000E+00 -0.00000000000E+00 -0.14259354503E+03  0.14259354503E+03  0.00000000000E+00 0.  1.
          6    1    1    2  501    0 -0.50860653510E+02 -0.16394148565E+03  0.35230746400E+02  0.24623935974E+03  0.17300000000E+03 0.  1.
         -6    1    1    2    0  502  0.50860653510E+02  0.16394148565E+03  0.36324667723E+03  0.43742515396E+03  0.17300000000E+03 0. -1.
<mgrwt>
<rscale>  2 0.24370600E+03</rscale>
<asrwt>0</asrwt>
<pdfrwt beam="1">  1       21 0.83241686E-01 0.24370600E+03</pdfrwt>
<pdfrwt beam="2">  1       21 0.21937469E-01 0.24370600E+03</pdfrwt>
<totfact> 0.23723861E+04</totfact>
</mgrwt>
</event>
<event>
 4    1  0.4053645E-001  0.1981288E+03  0.7546771E-02  0.1151327E+00
         21   -1    0    0  501  502  0.00000000000E+00  0.00000000000E+00  0.23226418695E+03  0.23226418695E+03  0.00000000000E+00 0.  1.
         21   -1    0    0  502  503 -0.00000000000E+00 -0.00000000000E+00 -0.27826717960E+03  0.27826717960E+03  0.00000000000E+00 0.  1.
          6    1    1    2  501    0 -0.55972007318E+02 -0.78696594606E+02  0.13694915442E+03  0.24085283993E+03  0.17300000000E+03 0.  1.
         -6    1    1    2    0  503  0.55972007318E+02  0.78696594606E+02 -0.18295214706E+03  0.26967852662E+03  0.17300000000E+03 0.  1.
<mgrwt>
<rscale>  2 0.19812880E+03</rscale>
<asrwt>0</asrwt>
<pdfrwt beam="1">  1       21 0.35732952E-01 0.19812880E+03</pdfrwt>
<pdfrwt beam="2">  1       21 0.42810335E-01 0.19812880E+03</pdfrwt>
<totfact> 0.39519991E+04</totfact>
</mgrwt>
</event>
<event>
 4    1  0.4053645E-001  0.2158960E+03  0.7546771E-02  0.1136980E+00
         21   -1    0    0  503  502  0.00000000000E+00  0.00000000000E+00  0.17988108927E+03  0.17988108927E+03  0.00000000000E+00 0. -1.
         21   -1    0    0  501  503 -0.00000000000E+00 -0.00000000000E+00 -0.37653409639E+03  0.37653409639E+03  0.00000000000E+00 0. -1.
          6    1    1    2  501    0 -0.12912583198E+03  0.29327500887E+01 -0.25368103481E+03  0.33311431811E+03  0.17300000000E+03 0. -1.
         -6    1    1    2    0  502  0.12912583198E+03 -0.29327500887E+01  0.57028027692E+02  0.22330086756E+03  0.17300000000E+03 0. -1.
<mgrwt>
<rscale>  2 0.21589600E+03</rscale>
<asrwt>0</asrwt>
<pdfrwt beam="1">  1       21 0.27674014E-01 0.21589600E+03</pdfrwt>
<pdfrwt beam="2">  1       21 0.57928322E-01 0.21589600E+03</pdfrwt>
<totfact> 0.34394240E+04</totfact>
</mgrwt>
</event>
<event>
 4    1  0.4053645E-001  0.1966052E+03  0.7546771E-02  0.1152635E+00
         21   -1    0    0  501  502  0.00000000000E+00  0.00000000000E+00  0.49642222980E+03  0.49642222980E+03  0.00000000000E+00 0.  1.
         21   -1    0    0  502  503 -0.00000000000E+00 -0.00000000000E+00 -0.78708896698E+02  0.78708896698E+02  0.00000000000E+00 0.  1.
          6    1    1    2  501    0  0.73822388658E+02  0.57226288758E+02  0.17906894084E+03  0.26593096617E+03  0.17300000000E+03 0.  1.
         -6    1    1    2    0  503 -0.73822388658E+02 -0.57226288758E+02  0.23864439226E+03  0.30920016033E+03  0.17300000000E+03 0.  1.
<mgrwt>
<rscale>  2 0.19660517E+03</rscale>
<asrwt>0</asrwt>
<pdfrwt beam="1">  1       21 0.76372649E-01 0.19660517E+03</pdfrwt>
<pdfrwt beam="2">  1       21 0.12109061E-01 0.19660517E+03</pdfrwt>
<totfact> 0.88004195E+04</totfact>
</mgrwt>
</event>
<event>
 4    1  0.4053645E-001  0.2123843E+03  0.7546771E-02  0.1139692E+00
         21   -1    0    0  503  502  0.00000000000E+00  0.00000000000E+00  0.22853513754E+03  0.22853513754E+03  0.00000000000E+00 0. -1.
         21   -1    0    0  501  503 -0.00000000000E+00 -0.00000000000E+00 -0.20196164591E+03  0.20196164591E+03  0.00000000000E+00 0.  1.
          6    1    1    2  501    0  0.10123645359E+03  0.70208722875E+02 -0.19151774861E+02  0.21324604283E+03  0.17300000000E+03 0.  1.
         -6    1    1    2    0  502 -0.10123645359E+03 -0.70208722875E+02  0.45725266495E+02  0.21725074062E+03  0.17300000000E+03 0. -1.
<mgrwt>
<rscale>  2 0.21238428E+03</rscale>
<asrwt>0</asrwt>
<pdfrwt beam="1">  1       21 0.35159252E-01 0.21238428E+03</pdfrwt>
<pdfrwt beam="2">  1       21 0.31071022E-01 0.21238428E+03</pdfrwt>
<totfact> 0.76949191E+04</totfact>
</mgrwt>
</event>
<event>
 4    1  0.4053645E-001  0.2201209E+03  0.7546771E-02  0.1133793E+00
         21   -1    0    0  503  502  0.00000000000E+00  0.00000000000E+00  0.93339519130E+03  0.93339519130E+03  0.00000000000E+00 0. -1.
         21   -1    0    0  501  503 -0.00000000000E+00 -0.00000000000E+00 -0.68479631131E+02  0.68479631131E+02  0.00000000000E+00 0. -1.
          6    1    1    2  501    0  0.64978378474E+02  0.11959103607E+03  0.18605256375E+03  0.28821651940E+03  0.17300000000E+03 0. -1.
         -6    1    1    2    0  502 -0.64978378474E+02 -0.11959103607E+03  0.67886299642E+03  0.71365830303E+03  0.17300000000E+03 0. -1.
<mgrwt>
<rscale>  2 0.22012089E+03</rscale>
<asrwt>0</asrwt>
<pdfrwt beam="1">  1       21 0.14359925E+00 0.22012089E+03</pdfrwt>
<pdfrwt beam="2">  1       21 0.10535329E-01 0.22012089E+03</pdfrwt>
<totfact> 0.24369366E+04</totfact>
</mgrwt>
</event>
<event>
 4    1  0.4053645E-001  0.1835812E+03  0.7546771E-02  0.1164381E+00
         21   -1    0    0  503  502  0.00000000000E+00  0.00000000000E+00  0.85494530031E+03  0.85494530031E+03  0.00000000000E+00 0.  1.
         21   -1    0    0  501  503 -0.00000000000E+00 -0.00000000000E+00 -0.67180911797E+02  0.67180911797E+02  0.00000000000E+00 0.  1.
          6    1    1    2  501    0 -0.53386565746E+02  0.30379739034E+02  0.97499201169E+02  0.20786569745E+03  0.17300000000E+03 0.  1.
         -6    1    1    2    0  502  0.53386565746E+02 -0.30379739034E+02  0.69026518734E+03  0.71426051466E+03  0.17300000000E+03 0.  1.
<mgrwt>
<rscale>  2 0.18358119E+03</rscale>
<asrwt>0</asrwt>
<pdfrwt beam="1">  1       21 0.13153004E+00 0.18358119E+03</pdfrwt>
<pdfrwt beam="2">  1       21 0.10335526E-01 0.18358119E+03</pdfrwt>
<totfact> 0.32294174E+04</totfact>
</mgrwt>
</event>
<event>
 4    1  0.4053645E-001  0.3006987E+03  0.7546771E-02  0.1084892E+00
         21   -1    0    0  503  502  0.00000000000E+00  0.00000000000E+00  0.20787236179E+04  0.20787236179E+04  0.00000000000E+00 0. -1.
         21   -1    0    0  501  503 -0.00000000000E+00 -0.00000000000E+00 -0.45570656295E+02  0.45570656295E+02  0.00000000000E+00 0. -1.
          6    1    1    2  501    0 -0.23566025618E+03 -0.70391247119E+02  0.79004021675E+03  0.84533024795E+03  0.17300000000E+03 0. -1.
         -6    1    1    2    0  502  0.23566025618E+03  0.70391247119E+02  0.12431127448E+04  0.12789640262E+04  0.17300000000E+03 0. -1.
<mgrwt>
<rscale>  2 0.30069866E+03</rscale>
<asrwt>0</asrwt>
<pdfrwt beam="1">  1       21 0.31980356E+00 0.30069866E+03</pdfrwt>
<pdfrwt beam="2">  1       21 0.70108718E-02 0.30069866E+03</pdfrwt>
<totfact> 0.35598304E+03</totfact>
</mgrwt>
</event>
<event>
 4    1  0.4053645E-001  0.1753598E+03  0.7546771E-02  0.1172371E+00
         21   -1    0    0  503  502  0.00000000000E+00  0.00000000000E+00  0.31671949027E+03  0.31671949027E+03  0.00000000000E+00 0.  1.
         21   -1    0    0  501  503 -0.00000000000E+00 -0.00000000000E+00 -0.10138764816E+03  0.10138764816E+03  0.00000000000E+00 0.  1.
          6    1    1    2  501    0 -0.21104615721E+02  0.19407444082E+02  0.15069474448E+03  0.23121409928E+03  0.17300000000E+03 0.  1.
         -6    1    1    2    0  502  0.21104615721E+02 -0.19407444082E+02  0.64637097627E+02  0.18689303914E+03  0.17300000000E+03 0.  1.
<mgrwt>
<rscale>  2 0.17535978E+03</rscale>
<asrwt>0</asrwt>
<pdfrwt beam="1">  1       21 0.48726075E-01 0.17535978E+03</pdfrwt>
<pdfrwt beam="2">  1       21 0.15598100E-01 0.17535978E+03</pdfrwt>
<totfact> 0.14770995E+05</totfact>
</mgrwt>
</event>
<event>
 4    1  0.4053645E-001  0.1850366E+03  0.7546771E-02  0.1163016E+00
         21   -1    0    0  501  502  0.00000000000E+00  0.00000000000E+00  0.19038232286E+03  0.19038232286E+03  0.00000000000E+00 0. -1.
         21   -1    0    0  502  503 -0.00000000000E+00 -0.00000000000E+00 -0.18431084666E+03  0.18431084666E+03  0.00000000000E+00 0. -1.
          6    1    1    2  501    0  0.58776397857E+02  0.29238160066E+02 -0.26139862419E+02  0.18687382737E+03  0.17300000000E+03 0. -1.
         -6    1    1    2    0  503 -0.58776397857E+02 -0.29238160066E+02  0.32211338627E+02  0.18781934215E+03  0.17300000000E+03 0. -1.
<mgrwt>
<rscale>  2 0.18503658E+03</rscale>
<asrwt>0</asrwt>
<pdfrwt beam="1">  1       21 0.29289588E-01 0.18503658E+03</pdfrwt>
<pdfrwt beam="2">  1       21 0.28355515E-01 0.18503658E+03</pdfrwt>
<totfact> 0.13308755E+05</totfact>
</mgrwt>
</event>
<event>
 4    1  0.4053645E-001  0.1935937E+03  0.7546771E-02  0.1155259E+00
         21   -1    0    0  501  502  0.00000000000E+00  0.00000000000E+00  0.34660564350E+02  0.34660564350E+02  0.00000000000E+00 0. -1.
         21   -1    0    0  502  503 -0.00000000000E+00 -0.00000000000E+00 -0.11012878158E+04  0.11012878158E+04  0.00000000000E+00 0. -1.
          6    1    1    2  501    0 -0.21489326333E+02 -0.84188629164E+02 -0.45679877313E+03  0.49612864819E+03  0.17300000000E+03 0. -1.
         -6    1    1    2    0  503  0.21489326333E+02  0.84188629164E+02 -0.60982847831E+03  0.63981973194E+03  0.17300000000E+03 0. -1.
<mgrwt>
<rscale>  2 0.19359369E+03</rscale>
<asrwt>0</asrwt>
<pdfrwt beam="1">  1       21 0.53323957E-02 0.19359369E+03</pdfrwt>
<pdfrwt beam="2">  1       21 0.16942886E+00 0.19359369E+03</pdfrwt>
<totfact> 0.51905610E+04</totfact>
</mgrwt>
</event>
<event>
 4    1  0.4053645E-001  0.2321801E+03  0.7546771E-02  0.1125115E+00
         21   -1    0    0  503  502  0.00000000000E+00  0.00000000000E+00  0.65911373522E+03  0.65911373522E+03  0.00000000000E+00 0. -1.
         21   -1    0    0  501  503 -0.00000000000E+00 -0.00000000000E+00 -0.86938745578E+02  0.86938745578E+02  0.00000000000E+00 0.  1.
          6    1    1    2  501    0 -0.10562316973E+03  0.11323587679E+03  0.19529159479E+03  0.30339153708E+03  0.17300000000E+03 0.  1.
         -6    1    1    2    0  502  0.10562316973E+03 -0.11323587679E+03  0.37688339486E+03  0.44266094372E+03  0.17300000000E+03 0. -1.
<mgrwt>
<rscale>  2 0.23218014E+03</rscale>
<asrwt>0</asrwt>
<pdfrwt beam="1">  1       21 0.10140211E+00 0.23218014E+03</pdfrwt>
<pdfrwt beam="2">  1       21 0.13375192E-01 0.23218014E+03</pdfrwt>
<totfact> 0.37572787E+04</totfact>
</mgrwt>
</event>
<event>
 4    1  0.4053645E-001  0.1776118E+03  0.7546771E-02  0.1170135E+00
         21   -1    0    0  503  502  0.00000000000E+00  0.00000000000E+00  0.53708334959E+02  0.53708334959E+02  0.00000000000E+00 0. -1.
         21   -1    0    0  501  503 -0.00000000000E+00 -0.00000000000E+00 -0.12728842209E+04  0.12728842209E+04  0.00000000000E+00 0. -1.
          6    1    1    2  501    0  0.21347877268E+02 -0.34076724775E+02 -0.12281601048E+03  0.21593917538E+03  0.17300000000E+03 0. -1.
         -6    1    1    2    0  502 -0.21347877268E+02  0.34076724775E+02 -0.10963598755E+04  0.11106533805E+04  0.17300000000E+03 0. -1.
<mgrwt>
<rscale>  2 0.17761181E+03</rscale>
<asrwt>0</asrwt>
<pdfrwt beam="1">  1       21 0.82628207E-02 0.17761181E+03</pdfrwt>
<pdfrwt beam="2">  1       21 0.19582834E+00 0.17761181E+03</pdfrwt>
<totfact> 0.16398740E+04</totfact>
</mgrwt>
</event>
<event>
 4    1  0.4053645E-001  0.1739794E+03  0.7546771E-02  0.1173760E+00
         21   -1    0    0  501  502  0.00000000000E+00  0.00000000000E+00  0.94915128154E+02  0.94915128154E+02  0.00000000000E+00 0. -1.
         21   -1    0    0  502  503 -0.00000000000E+00 -0.00000000000E+00 -0.37927907200E+03  0.37927907200E+03  0.00000000000E+00 0. -1.
          6    1    1    2  501    0  0.29629863538E+00 -0.18432340366E+02 -0.47585554660E+02  0.18036968697E+03  0.17300000000E+03 0.  1.
         -6    1    1    2    0  503 -0.29629863538E+00  0.18432340366E+02 -0.23677838918E+03  0.29382451318E+03  0.17300000000E+03 0.  1.
<mgrwt>
<rscale>  2 0.17397942E+03</rscale>
<asrwt>0</asrwt>
<pdfrwt beam="1">  1       21 0.14602327E-01 0.17397942E+03</pdfrwt>
<pdfrwt beam="2">  1       21 0.58350627E-01 0.17397942E+03</pdfrwt>
<totfact> 0.11409183E+05</totfact>
</mgrwt>
</event>
<event>
 4    1  0.4053645E-001  0.3030052E+03  0.7546771E-02  0.1083748E+00
         21   -1    0    0  501  502  0.00000000000E+00  0.00000000000E+00  0.59631223823E+02  0.59631223823E+02  0.00000000000E+00 0. -1.
         21   -1    0    0  502  503 -0.00000000000E+00 -0.00000000000E+00 -0.15485502089E+04  0.15485502089E+04  0.00000000000E+00 0. -1.
          6    1    1    2  501    0  0.24876109534E+03 -0.10233625318E+01 -0.68355246954E+03  0.74770054731E+03  0.17300000000E+03 0. -1.
         -6    1    1    2    0  503 -0.24876109534E+03  0.10233625318E+01 -0.80536651558E+03  0.86048088546E+03  0.17300000000E+03 0. -1.
<mgrwt>
<rscale>  2 0.30300516E+03</rscale>
<asrwt>0</asrwt>
<pdfrwt beam="1">  1       21 0.91740333E-02 0.30300516E+03</pdfrwt>
<pdfrwt beam="2">  1       21 0.23823852E+00 0.30300516E+03</pdfrwt>
<totfact> 0.67662328E+03</totfact>
</mgrwt>
</event>
<event>
 4    1  0.4053645E-001  0.1915551E+03  0.7546771E-02  0.1157066E+00
         21   -1    0    0  501  502  0.00000000000E+00  0.00000000000E+00  0.21936774021E+02  0.21936774021E+02  0.00000000000E+00 0.  1.
         21   -1    0    0  502  503 -0.00000000000E+00 -0.00000000000E+00 -0.17000425348E+04  0.17000425348E+04  0.00000000000E+00 0. -1.
          6    1    1    2  501    0  0.59214771472E+02 -0.57078469290E+02 -0.72983433174E+03  0.75455383679E+03  0.17300000000E+03 0.  1.
         -6    1    1    2    0  503 -0.59214771472E+02  0.57078469290E+02 -0.94827142905E+03  0.96742547205E+03  0.17300000000E+03 0. -1.
<mgrwt>
<rscale>  2 0.19155506E+03</rscale>
<asrwt>0</asrwt>
<pdfrwt beam="1">  1       21 0.33748885E-02 0.19155506E+03</pdfrwt>
<pdfrwt beam="2">  1       21 0.26154499E+00 0.19155506E+03</pdfrwt>
<totfact> 0.29649687E+04</totfact>
</mgrwt>
</event>
<event>
 4    1  0.4053645E-001  0.1841439E+03  0.7546771E-02  0.1163852E+00
         21   -1    0    0  503  502  0.00000000000E+00  0.00000000000E+00  0.81557773434E+03  0.81557773434E+03  0.00000000000E+00 0.  1.
         21   -1    0    0  501  503 -0.00000000000E+00 -0.00000000000E+00 -0.46165644192E+02  0.46165644192E+02  0.00000000000E+00 0.  1.
          6    1    1    2  501    0  0.62101265377E+02 -0.11109619312E+02  0.52055215837E+03  0.55216260321E+03  0.17300000000E+03 0.  1.
         -6    1    1    2    0  502 -0.62101265377E+02  0.11109619312E+02  0.24885993178E+03  0.30958077532E+03  0.17300000000E+03 0.  1.
<mgrwt>
<rscale>  2 0.18414394E+03</rscale>
<asrwt>0</asrwt>
<pdfrwt beam="1">  1       21 0.12547349E+00 0.18414394E+03</pdfrwt>
<pdfrwt beam="2">  1       21 0.71024074E-02 0.18414394E+03</pdfrwt>
<totfact> 0.69992667E+04</totfact>
</mgrwt>
</event>
<event>
 4    1  0.4053645E-001  0.1794267E+03  0.7546771E-02  0.1168359E+00
         21   -1    0    0  503  502  0.00000000000E+00  0.00000000000E+00  0.94754339903E+03  0.94754339903E+03  0.00000000000E+00 0.  1.
         21   -1    0    0  501  503 -0.00000000000E+00 -0.00000000000E+00 -0.38632435666E+02  0.38632435666E+02  0.00000000000E+00 0.  1.
          6    1    1    2  501    0  0.12718173209E+02 -0.45860379069E+02  0.28327049207E+03  0.33531492358E+03  0.17300000000E+03 0.  1.
         -6    1    1    2    0  502 -0.12718173209E+02  0.45860379069E+02  0.62564047129E+03  0.65086091111E+03  0.17300000000E+03 0.  1.
<mgrwt>
<rscale>  2 0.17942666E+03</rscale>
<asrwt>0</asrwt>
<pdfrwt beam="1">  1       21 0.14577589E+00 0.17942666E+03</pdfrwt>
<pdfrwt beam="2">  1       21 0.59434524E-02 0.17942666E+03</pdfrwt>
<totfact> 0.65006831E+04</totfact>
</mgrwt>
</event>
<event>
 4    1  0.4053645E-001  0.1860780E+03  0.7546771E-02  0.1162047E+00
         21   -1    0    0  503  502  0.00000000000E+00  0.00000000000E+00  0.13955662893E+03  0.13955662893E+03  0.00000000000E+00 0. -1.
         21   -1    0    0  501  503 -0.00000000000E+00 -0.00000000000E+00 -0.25414881265E+03  0.25414881265E+03  0.00000000000E+00 0. -1.
          6    1    1    2  501    0  0.31025221615E+02  0.61102164114E+02 -0.87646529707E+02  0.20568654065E+03  0.17300000000E+03 0. -1.
         -6    1    1    2    0  502 -0.31025221615E+02 -0.61102164114E+02 -0.26945654016E+02  0.18801890093E+03  0.17300000000E+03 0. -1.
<mgrwt>
<rscale>  2 0.18607805E+03</rscale>
<asrwt>0</asrwt>
<pdfrwt beam="1">  1       21 0.21470251E-01 0.18607805E+03</pdfrwt>
<pdfrwt beam="2">  1       21 0.39099817E-01 0.18607805E+03</pdfrwt>
<totfact> 0.12773897E+05</totfact>
</mgrwt>
</event>
<event>
 4    1  0.4053645E-001  0.3290096E+03  0.7546771E-02  0.1071576E+00
         21   -1    0    0  501  502  0.00000000000E+00  0.00000000000E+00  0.88785687798E+03  0.88785687798E+03  0.00000000000E+00 0.  1.
         21   -1    0    0  502  503 -0.00000000000E+00 -0.00000000000E+00 -0.19712597947E+03  0.19712597947E+03  0.00000000000E+00 0.  1.
          6    1    1    2  501    0 -0.25897382382E+03 -0.10607025983E+03  0.68044481488E+03  0.75581246850E+03  0.17300000000E+03 0.  1.
         -6    1    1    2    0  503  0.25897382382E+03  0.10607025983E+03  0.10286083636E+02  0.32917038895E+03  0.17300000000E+03 0.  1.
<mgrwt>
<rscale>  2 0.32900964E+03</rscale>
<asrwt>0</asrwt>
<pdfrwt beam="1">  1       21 0.13659336E+00 0.32900964E+03</pdfrwt>
<pdfrwt beam="2">  1       21 0.30327074E-01 0.32900964E+03</pdfrwt>
<totfact> 0.36337477E+03</totfact>
</mgrwt>
</event>
<event>
 4    1  0.4053645E-001  0.1901357E+03  0.7546771E-02  0.1158339E+00
         21   -1    0    0  501  502  0.00000000000E+00  0.00000000000E+00  0.87550296302E+02  0.87550296302E+02  0.00000000000E+00 0.  1.
         21   -1    0    0  502  503 -0.00000000000E+00 -0.00000000000E+00 -0.53238255897E+03  0.53238255897E+03  0.00000000000E+00 0.  1.
          6    1    1    2  501    0  0.68473121369E+02 -0.39166704688E+02 -0.36924511337E+03  0.41532343163E+03  0.17300000000E+03 0.  1.
         -6    1    1    2    0  503 -0.68473121369E+02  0.39166704688E+02 -0.75587149292E+02  0.20460942364E+03  0.17300000000E+03 0.  1.
<mgrwt>
<rscale>  2 0.19013574E+03</rscale>
<asrwt>0</asrwt>
<pdfrwt beam="1">  1       21 0.13469276E-01 0.19013574E+03</pdfrwt>
<pdfrwt beam="2">  1       21 0.81905010E-01 0.19013574E+03</pdfrwt>
<totfact> 0.62248410E+04</totfact>
</mgrwt>
</event>
<event>
 4    1  0.4053645E-001  0.3717496E+03  0.7546771E-02  0.1054026E+00
         21   -1    0    0  501  502  0.00000000000E+00  0.00000000000E+00  0.37661211981E+03  0.37661211981E+03  0.00000000000E+00 0. -1.
         21   -1    0    0  502  503 -0.00000000000E+00 -0.00000000000E+00 -0.37504987928E+03  0.37504987928E+03  0.00000000000E+00 0.  1.
          6    1    1    2  501    0  0.17575253360E+03 -0.27817224876E+03 -0.54451027985E+02  0.37571620606E+03  0.17300000000E+03 0.  1.
         -6    1    1    2    0  503 -0.17575253360E+03  0.27817224876E+03  0.56013268510E+02  0.37594579303E+03  0.17300000000E+03 0. -1.
<mgrwt>
<rscale>  2 0.37174958E+03</rscale>
<asrwt>0</asrwt>
<pdfrwt beam="1">  1       21 0.57940326E-01 0.37174958E+03</pdfrwt>
<pdfrwt beam="2">  1       21 0.57699982E-01 0.37174958E+03</pdfrwt>
<totfact> 0.71610629E+03</totfact>
</mgrwt>
</event>
<event>
 4    1  0.4053645E-001  0.2365157E+03  0.7546771E-02  0.1122136E+00
         21   -1    0    0  501  502  0.00000000000E+00  0.00000000000E+00  0.27352553763E+03  0.27352553763E+03  0.00000000000E+00 0.  1.
         21   -1    0    0  502  503 -0.00000000000E+00 -0.00000000000E+00 -0.23010080943E+03  0.23010080943E+03  0.00000000000E+00 0. -1.
          6    1    1    2  501    0  0.15865562813E+03  0.28966714333E+02 -0.62259008921E+02  0.24457281752E+03  0.17300000000E+03 0.  1.
         -6    1    1    2    0  503 -0.15865562813E+03 -0.28966714333E+02  0.10568373712E+03  0.25905352954E+03  0.17300000000E+03 0. -1.
<mgrwt>
<rscale>  2 0.23651571E+03</rscale>
<asrwt>0</asrwt>
<pdfrwt beam="1">  1       21 0.42080852E-01 0.23651571E+03</pdfrwt>
<pdfrwt beam="2">  1       21 0.35400125E-01 0.23651571E+03</pdfrwt>
<totfact> 0.40944470E+04</totfact>
</mgrwt>
</event>
<event>
 4    1  0.4053645E-001  0.1965855E+03  0.7546771E-02  0.1152652E+00
         21   -1    0    0  501  502  0.00000000000E+00  0.00000000000E+00  0.11498478361E+03  0.11498478361E+03  0.00000000000E+00 0.  1.
         21   -1    0    0  502  503 -0.00000000000E+00 -0.00000000000E+00 -0.41260994281E+03  0.41260994281E+03  0.00000000000E+00 0.  1.
          6    1    1    2  501    0  0.88070841458E+02 -0.30990397178E+02 -0.35214214410E+02  0.19971459318E+03  0.17300000000E+03 0.  1.
         -6    1    1    2    0  503 -0.88070841458E+02  0.30990397178E+02 -0.26241094478E+03  0.32788013324E+03  0.17300000000E+03 0.  1.
<mgrwt>
<rscale>  2 0.19658555E+03</rscale>
<asrwt>0</asrwt>
<pdfrwt beam="1">  1       21 0.17689967E-01 0.19658555E+03</pdfrwt>
<pdfrwt beam="2">  1       21 0.63478453E-01 0.19658555E+03</pdfrwt>
<totfact> 0.66404462E+04</totfact>
</mgrwt>
</event>
<event>
 4    1  0.4053645E-001  0.1873229E+03  0.7546771E-02  0.1160898E+00
         21   -1    0    0  503  502  0.00000000000E+00  0.00000000000E+00  0.65277862600E+03  0.65277862600E+03  0.00000000000E+00 0. -1.
         21   -1    0    0  501  503 -0.00000000000E+00 -0.00000000000E+00 -0.54472711345E+02  0.54472711345E+02  0.00000000000E+00 0.  1.
          6    1    1    2  501    0 -0.55508615120E+02 -0.45603247112E+02  0.25855107116E+03  0.31927812155E+03  0.17300000000E+03 0. -1.
         -6    1    1    2    0  502  0.55508615120E+02  0.45603247112E+02  0.33975484349E+03  0.38797321579E+03  0.17300000000E+03 0. -1.
<mgrwt>
<rscale>  2 0.18732288E+03</rscale>
<asrwt>0</asrwt>
<pdfrwt beam="1">  1       21 0.10042748E+00 0.18732288E+03</pdfrwt>
<pdfrwt beam="2">  1       21 0.83804176E-02 0.18732288E+03</pdfrwt>
<totfact> 0.90140219E+04</totfact>
</mgrwt>
</event>
<event>
 4    1  0.4053645E-001  0.2111511E+03  0.7546771E-02  0.1140658E+00
         21   -1    0    0  503  502  0.00000000000E+00  0.00000000000E+00  0.11682489350E+04  0.11682489350E+04  0.00000000000E+00 0. -1.
         21   -1    0    0  501  503 -0.00000000000E+00 -0.00000000000E+00 -0.38333318161E+02  0.38333318161E+02  0.00000000000E+00 0. -1.
          6    1    1    2  501    0 -0.11929981924E+03 -0.20574810517E+02  0.60508147158E+03  0.64086531888E+03  0.17300000000E+03 0. -1.
         -6    1    1    2    0  502  0.11929981924E+03  0.20574810517E+02  0.52483414525E+03  0.56571693427E+03  0.17300000000E+03 0. -1.
<mgrwt>
<rscale>  2 0.21115106E+03</rscale>
<asrwt>0</asrwt>
<pdfrwt beam="1">  1       21 0.17973058E+00 0.21115106E+03</pdfrwt>
<pdfrwt beam="2">  1       21 0.58974345E-02 0.21115106E+03</pdfrwt>
<totfact> 0.36671044E+04</totfact>
</mgrwt>
</event>
<event>
 4    1  0.4053645E-001  0.2158560E+03  0.7546771E-02  0.1137011E+00
         21   -1    0    0  501  502  0.00000000000E+00  0.00000000000E+00  0.12966609953E+03  0.12966609953E+03  0.00000000000E+00 0. -1.
         21   -1    0    0  502  503 -0.00000000000E+00 -0.00000000000E+00 -0.36135591694E+03  0.36135591694E+03  0.00000000000E+00 0. -1.
          6    1    1    2  501    0  0.18309090676E+02  0.12778728705E+03 -0.13419650948E+03  0.25417025139E+03  0.17300000000E+03 0. -1.
         -6    1    1    2    0  503 -0.18309090676E+02 -0.12778728705E+03 -0.97493307932E+02  0.23685176509E+03  0.17300000000E+03 0. -1.
<mgrwt>
<rscale>  2 0.21585600E+03</rscale>
<asrwt>0</asrwt>
<pdfrwt beam="1">  1       21 0.19948631E-01 0.21585600E+03</pdfrwt>
<pdfrwt beam="2">  1       21 0.55593218E-01 0.21585600E+03</pdfrwt>
<totfact> 0.70002774E+04</totfact>
</mgrwt>
</event>
<event>
 4    1  0.4053645E-001  0.1992639E+03  0.7546771E-02  0.1150362E+00
         21   -1    0    0  501  502  0.00000000000E+00  0.00000000000E+00  0.25465223842E+03  0.25465223842E+03  0.00000000000E+00 0. -1.
         21   -1    0    0  502  503 -0.00000000000E+00 -0.00000000000E+00 -0.19988216731E+03  0.19988216731E+03  0.00000000000E+00 0. -1.
          6    1    1    2  501    0 -0.33265198530E+01  0.98823307779E+02 -0.79194797236E+02  0.21442464365E+03  0.17300000000E+03 0. -1.
         -6    1    1    2    0  503  0.33265198530E+01 -0.98823307779E+02  0.13396486834E+03  0.24010976208E+03  0.17300000000E+03 0. -1.
<mgrwt>
<rscale>  2 0.19926393E+03</rscale>
<asrwt>0</asrwt>
<pdfrwt beam="1">  1       21 0.39177267E-01 0.19926393E+03</pdfrwt>
<pdfrwt beam="2">  1       21 0.30751103E-01 0.19926393E+03</pdfrwt>
<totfact> 0.63589775E+04</totfact>
</mgrwt>
</event>
<event>
 4    1  0.4053645E-001  0.1858656E+03  0.7546771E-02  0.1162244E+00
         21   -1    0    0  501  502  0.00000000000E+00  0.00000000000E+00  0.17758900026E+03  0.17758900026E+03  0.00000000000E+00 0.  1.
         21   -1    0    0  502  503 -0.00000000000E+00 -0.00000000000E+00 -0.20173998873E+03  0.20173998873E+03  0.00000000000E+00 0. -1.
          6    1    1    2  501    0 -0.59962438043E+01 -0.67683571595E+02 -0.47936266387E+02  0.19194766589E+03  0.17300000000E+03 0. -1.
         -6    1    1    2    0  503  0.59962438043E+01  0.67683571595E+02  0.23785277911E+02  0.18738132311E+03  0.17300000000E+03 0.  1.
<mgrwt>
<rscale>  2 0.18586560E+03</rscale>
<asrwt>0</asrwt>
<pdfrwt beam="1">  1       21 0.27321385E-01 0.18586560E+03</pdfrwt>
<pdfrwt beam="2">  1       21 0.31036921E-01 0.18586560E+03</pdfrwt>
<totfact> 0.12768531E+05</totfact>
</mgrwt>
</event>
<event>
 4    1  0.4053645E-001  0.1829300E+03  0.7546771E-02  0.1164997E+00
         21   -1    0    0  503  502  0.00000000000E+00  0.00000000000E+00  0.22606627222E+03  0.22606627222E+03  0.00000000000E+00 0. -1.
         21   -1    0    0  501  503 -0.00000000000E+00 -0.00000000000E+00 -0.23674751018E+03  0.23674751018E+03  0.00000000000E+00 0. -1.
          6    1    1    2  501    0 -0.51420573196E+02  0.29838038460E+02 -0.14700194787E+03  0.23467628036E+03  0.17300000000E+03 0. -1.
         -6    1    1    2    0  502  0.51420573196E+02 -0.29838038460E+02  0.13632070990E+03  0.22813750204E+03  0.17300000000E+03 0. -1.
<mgrwt>
<rscale>  2 0.18293000E+03</rscale>
<asrwt>0</asrwt>
<pdfrwt beam="1">  1       21 0.34779427E-01 0.18293000E+03</pdfrwt>
<pdfrwt beam="2">  1       21 0.36422694E-01 0.18293000E+03</pdfrwt>
<totfact> 0.58181596E+04</totfact>
</mgrwt>
</event>
<event>
 4    1  0.4053645E-001  0.1765153E+03  0.7546771E-02  0.1171219E+00
         21   -1    0    0  501  502  0.00000000000E+00  0.00000000000E+00  0.41296492580E+03  0.41296492580E+03  0.00000000000E+00 0. -1.
         21   -1    0    0  502  503 -0.00000000000E+00 -0.00000000000E+00 -0.92783268558E+02  0.92783268558E+02  0.00000000000E+00 0. -1.
          6    1    1    2  501    0  0.20456447814E+02  0.28463869995E+02  0.26939237142E+03  0.32207127772E+03  0.17300000000E+03 0.  1.
         -6    1    1    2    0  503 -0.20456447814E+02 -0.28463869995E+02  0.50789285826E+02  0.18367691664E+03  0.17300000000E+03 0.  1.
<mgrwt>
<rscale>  2 0.17651532E+03</rscale>
<asrwt>0</asrwt>
<pdfrwt beam="1">  1       21 0.63533064E-01 0.17651532E+03</pdfrwt>
<pdfrwt beam="2">  1       21 0.14274349E-01 0.17651532E+03</pdfrwt>
<totfact> 0.98934245E+04</totfact>
</mgrwt>
</event>
<event>
 4    1  0.4053645E-001  0.1816165E+03  0.7546771E-02  0.1166248E+00
         21   -1    0    0  501  502  0.00000000000E+00  0.00000000000E+00  0.27633811126E+02  0.27633811126E+02  0.00000000000E+00 0. -1.
         21   -1    0    0  502  503 -0.00000000000E+00 -0.00000000000E+00 -0.13378932226E+04  0.13378932226E+04  0.00000000000E+00 0. -1.
          6    1    1    2  501    0 -0.24143924373E+02 -0.49725499740E+02 -0.43092902073E+03  0.46763701235E+03  0.17300000000E+03 0. -1.
         -6    1    1    2    0  503  0.24143924373E+02  0.49725499740E+02 -0.87933039078E+03  0.89789002141E+03  0.17300000000E+03 0. -1.
<mgrwt>
<rscale>  2 0.18161650E+03</rscale>
<asrwt>0</asrwt>
<pdfrwt beam="1">  1       21 0.42513554E-02 0.18161650E+03</pdfrwt>
<pdfrwt beam="2">  1       21 0.20582974E+00 0.18161650E+03</pdfrwt>
<totfact> 0.43935857E+04</totfact>
</mgrwt>
</event>
<event>
 4    1  0.4053645E-001  0.1982237E+03  0.7546771E-02  0.1151246E+00
         21   -1    0    0  501  502  0.00000000000E+00  0.00000000000E+00  0.16172991393E+03  0.16172991393E+03  0.00000000000E+00 0.  1.
         21   -1    0    0  502  503 -0.00000000000E+00 -0.00000000000E+00 -0.24491359768E+03  0.24491359768E+03  0.00000000000E+00 0.  1.
          6    1    1    2  501    0 -0.14448734401E+02  0.95681180938E+02 -0.59786727712E+02  0.20704373239E+03  0.17300000000E+03 0.  1.
         -6    1    1    2    0  503  0.14448734401E+02 -0.95681180938E+02 -0.23396956045E+02  0.19959977922E+03  0.17300000000E+03 0.  1.
<mgrwt>
<rscale>  2 0.19822375E+03</rscale>
<asrwt>0</asrwt>
<pdfrwt beam="1">  1       21 0.24881526E-01 0.19822375E+03</pdfrwt>
<pdfrwt beam="2">  1       21 0.37679015E-01 0.19822375E+03</pdfrwt>
<totfact> 0.10360218E+05</totfact>
</mgrwt>
</event>
<event>
 4    1  0.4053645E-001  0.1890304E+03  0.7546771E-02  0.1159339E+00
         21   -1    0    0  501  502  0.00000000000E+00  0.00000000000E+00  0.10625997555E+04  0.10625997555E+04  0.00000000000E+00 0. -1.
         21   -1    0    0  502  503 -0.00000000000E+00 -0.00000000000E+00 -0.44927623124E+02  0.44927623124E+02  0.00000000000E+00 0. -1.
          6    1    1    2  501    0 -0.20533070679E+02  0.73361458436E+02  0.78655818851E+03  0.80895382716E+03  0.17300000000E+03 0. -1.
         -6    1    1    2    0  503  0.20533070679E+02 -0.73361458436E+02  0.23111394383E+03  0.29857355142E+03  0.17300000000E+03 0. -1.
<mgrwt>
<rscale>  2 0.18903045E+03</rscale>
<asrwt>0</asrwt>
<pdfrwt beam="1">  1       21 0.16347687E+00 0.18903045E+03</pdfrwt>
<pdfrwt beam="2">  1       21 0.69119429E-02 0.18903045E+03</pdfrwt>
<totfact> 0.36796923E+04</totfact>
</mgrwt>
</event>
<event>
 4    1  0.4053645E-001  0.1825774E+03  0.7546771E-02  0.1165332E+00
         21   -1    0    0  501  502  0.00000000000E+00  0.00000000000E+00  0.92929311533E+03  0.92929311533E+03  0.00000000000E+00 0.  1.
         21   -1    0    0  502  503 -0.00000000000E+00 -0.00000000000E+00 -0.37558689901E+02  0.37558689901E+02  0.00000000000E+00 0.  1.
          6    1    1    2  501    0  0.36499667592E+02 -0.45533484483E+02  0.54834782437E+03  0.57794451328E+03  0.17300000000E+03 0.  1.
         -6    1    1    2    0  503 -0.36499667592E+02  0.45533484483E+02  0.34338660106E+03  0.38890729195E+03  0.17300000000E+03 0.  1.
<mgrwt>
<rscale>  2 0.18257745E+03</rscale>
<asrwt>0</asrwt>
<pdfrwt beam="1">  1       21 0.14296815E+00 0.18257745E+03</pdfrwt>
<pdfrwt beam="2">  1       21 0.57782607E-02 0.18257745E+03</pdfrwt>
<totfact> 0.71629573E+04</totfact>
</mgrwt>
</event>
<event>
 4    1  0.4053645E-001  0.2369895E+03  0.7546771E-02  0.1121815E+00
         21   -1    0    0  501  502  0.00000000000E+00  0.00000000000E+00  0.19774039865E+03  0.19774039865E+03  0.00000000000E+00 0. -1.
         21   -1    0    0  502  503 -0.00000000000E+00 -0.00000000000E+00 -0.30363263462E+03  0.30363263462E+03  0.00000000000E+00 0. -1.
          6    1    1    2  501    0 -0.10858472418E+03  0.12018468996E+03  0.10751819273E+02  0.23723322626E+03  0.17300000000E+03 0. -1.
         -6    1    1    2    0  503  0.10858472418E+03 -0.12018468996E+03 -0.11664405524E+03  0.26413980701E+03  0.17300000000E+03 0. -1.
<mgrwt>
<rscale>  2 0.23698946E+03</rscale>
<asrwt>0</asrwt>
<pdfrwt beam="1">  1       21 0.30421600E-01 0.23698946E+03</pdfrwt>
<pdfrwt beam="2">  1       21 0.46712713E-01 0.23698946E+03</pdfrwt>
<totfact> 0.44563827E+04</totfact>
</mgrwt>
</event>
<event>
 4    1  0.4053645E-001  0.3336043E+03  0.7546771E-02  0.1069553E+00
         21   -1    0    0  503  502  0.00000000000E+00  0.00000000000E+00  0.78855904407E+03  0.78855904407E+03  0.00000000000E+00 0.  1.
         21   -1    0    0  501  503 -0.00000000000E+00 -0.00000000000E+00 -0.14473972650E+03  0.14473972650E+03  0.00000000000E+00 0. -1.
          6    1    1    2  501    0 -0.24448925624E+03  0.14692804480E+03  0.39557148741E+03  0.51746366870E+03  0.17300000000E+03 0.  1.
         -6    1    1    2    0  502  0.24448925624E+03 -0.14692804480E+03  0.24824783016E+03  0.41583510187E+03  0.17300000000E+03 0. -1.
<mgrwt>
<rscale>  2 0.33360433E+03</rscale>
<asrwt>0</asrwt>
<pdfrwt beam="1">  1       21 0.12131677E+00 0.33360433E+03</pdfrwt>
<pdfrwt beam="2">  1       21 0.22267651E-01 0.33360433E+03</pdfrwt>
<totfact> 0.89548994E+03</totfact>
</mgrwt>
</event>
<event>
 4    1  0.4053645E-001  0.2701057E+03  0.7546771E-02  0.1101219E+00
         21   -1    0    0  501  502  0.00000000000E+00  0.00000000000E+00  0.58499797555E+02  0.58499797555E+02  0.00000000000E+00 0.  1.
         21   -1    0    0  502  503 -0.00000000000E+00 -0.00000000000E+00 -0.14819691069E+04  0.14819691069E+04  0.00000000000E+00 0. -1.
          6    1    1    2  501    0 -0.18581989780E+03 -0.92190365230E+02 -0.40512579676E+03  0.48691273249E+03  0.17300000000E+03 0.  1.
         -6    1    1    2    0  503  0.18581989780E+03  0.92190365230E+02 -0.10183435126E+04  0.10535561720E+04  0.17300000000E+03 0. -1.
<mgrwt>
<rscale>  2 0.27010572E+03</rscale>
<asrwt>0</asrwt>
<pdfrwt beam="1">  1       21 0.89999687E-02 0.27010572E+03</pdfrwt>
<pdfrwt beam="2">  1       21 0.22799525E+00 0.27010572E+03</pdfrwt>
<totfact> 0.82615090E+03</totfact>
</mgrwt>
</event>
<event>
 4    1  0.4053645E-001  0.3665829E+03  0.7546771E-02  0.1056007E+00
         21   -1    0    0  501  502  0.00000000000E+00  0.00000000000E+00  0.42213594651E+03  0.42213594651E+03  0.00000000000E+00 0. -1.
         21   -1    0    0  502  503 -0.00000000000E+00 -0.00000000000E+00 -0.34225389571E+03  0.34225389571E+03  0.00000000000E+00 0.  1.
          6    1    1    2  501    0  0.32265875681E+03 -0.18583363329E+02 -0.61084318418E+02  0.37163733491E+03  0.17300000000E+03 0. -1.
         -6    1    1    2    0  503 -0.32265875681E+03  0.18583363329E+02  0.14096636922E+03  0.39275250730E+03  0.17300000000E+03 0.  1.
<mgrwt>
<rscale>  2 0.36658289E+03</rscale>
<asrwt>0</asrwt>
<pdfrwt beam="1">  1       21 0.64943992E-01 0.36658289E+03</pdfrwt>
<pdfrwt beam="2">  1       21 0.52654445E-01 0.36658289E+03</pdfrwt>
<totfact> 0.68036779E+03</totfact>
</mgrwt>
</event>
<event>
 4    1  0.4053645E-001  0.1931708E+03  0.7546771E-02  0.1155632E+00
         21   -1    0    0  501  502  0.00000000000E+00  0.00000000000E+00  0.30107813113E+03  0.30107813113E+03  0.00000000000E+00 0.  1.
         21   -1    0    0  502  503 -0.00000000000E+00 -0.00000000000E+00 -0.12878979763E+03  0.12878979763E+03  0.00000000000E+00 0. -1.
          6    1    1    2  501    0  0.37670913654E+01  0.85859092377E+02  0.12786208213E+03  0.23165423970E+03  0.17300000000E+03 0.  1.
         -6    1    1    2    0  503 -0.37670913654E+01 -0.85859092377E+02  0.44426251360E+02  0.19821368906E+03  0.17300000000E+03 0. -1.
<mgrwt>
<rscale>  2 0.19317084E+03</rscale>
<asrwt>0</asrwt>
<pdfrwt beam="1">  1       21 0.46319712E-01 0.19317084E+03</pdfrwt>
<pdfrwt beam="2">  1       21 0.19813815E-01 0.19317084E+03</pdfrwt>
<totfact> 0.10486848E+05</totfact>
</mgrwt>
</event>
<event>
 4    1  0.4053645E-001  0.2265400E+03  0.7546771E-02  0.1129099E+00
         21   -1    0    0  501  502  0.00000000000E+00  0.00000000000E+00  0.52616768279E+03  0.52616768279E+03  0.00000000000E+00 0.  1.
         21   -1    0    0  502  503 -0.00000000000E+00 -0.00000000000E+00 -0.97659314534E+02  0.97659314534E+02  0.00000000000E+00 0.  1.
          6    1    1    2  501    0 -0.42067711820E+02  0.14007732965E+03  0.22533278903E+03  0.31952342085E+03  0.17300000000E+03 0.  1.
         -6    1    1    2    0  503  0.42067711820E+02 -0.14007732965E+03  0.20317557923E+03  0.30430357647E+03  0.17300000000E+03 0.  1.
<mgrwt>
<rscale>  2 0.22653995E+03</rscale>
<asrwt>0</asrwt>
<pdfrwt beam="1">  1       21 0.80948873E-01 0.22653995E+03</pdfrwt>
<pdfrwt beam="2">  1       21 0.15024510E-01 0.22653995E+03</pdfrwt>
<totfact> 0.51538364E+04</totfact>
</mgrwt>
</event>
<event>
 4    1  0.4053645E-001  0.2214759E+03  0.7546771E-02  0.1132788E+00
         21   -1    0    0  503  502  0.00000000000E+00  0.00000000000E+00  0.80400775751E+02  0.80400775751E+02  0.00000000000E+00 0. -1.
         21   -1    0    0  501  503 -0.00000000000E+00 -0.00000000000E+00 -0.78977722768E+03  0.78977722768E+03  0.00000000000E+00 0.  1.
          6    1    1    2  501    0 -0.13241728677E+03 -0.39852477042E+02 -0.56222099613E+03  0.60427146735E+03  0.17300000000E+03 0.  1.
         -6    1    1    2    0  502  0.13241728677E+03  0.39852477042E+02 -0.14715545580E+03  0.26590653608E+03  0.17300000000E+03 0. -1.
<mgrwt>
<rscale>  2 0.22147586E+03</rscale>
<asrwt>0</asrwt>
<pdfrwt beam="1">  1       21 0.12369350E-01 0.22147586E+03</pdfrwt>
<pdfrwt beam="2">  1       21 0.12150419E+00 0.22147586E+03</pdfrwt>
<totfact> 0.27985683E+04</totfact>
</mgrwt>
</event>
<event>
 4    1  0.4053645E-001  0.1877578E+03  0.7546771E-02  0.1160499E+00
         21   -1    0    0  501  502  0.00000000000E+00  0.00000000000E+00  0.13357764899E+03  0.13357764899E+03  0.00000000000E+00 0. -1.
         21   -1    0    0  502  503 -0.00000000000E+00 -0.00000000000E+00 -0.27819846756E+03  0.27819846756E+03  0.00000000000E+00 0. -1.
          6    1    1    2  501    0  0.14158441666E+02  0.71578831192E+02 -0.25656480521E+02  0.18950262673E+03  0.17300000000E+03 0. -1.
         -6    1    1    2    0  503 -0.14158441666E+02 -0.71578831192E+02 -0.11896433805E+03  0.22227348981E+03  0.17300000000E+03 0. -1.
<mgrwt>
<rscale>  2 0.18775780E+03</rscale>
<asrwt>0</asrwt>
<pdfrwt beam="1">  1       21 0.20550408E-01 0.18775780E+03</pdfrwt>
<pdfrwt beam="2">  1       21 0.42799764E-01 0.18775780E+03</pdfrwt>
<totfact> 0.11540175E+05</totfact>
</mgrwt>
</event>
<event>
 4    1  0.4053645E-001  0.2071719E+03  0.7546771E-02  0.1143825E+00
         21   -1    0    0  501  502  0.00000000000E+00  0.00000000000E+00  0.64988883069E+03  0.64988883069E+03  0.00000000000E+00 0.  1.
         21   -1    0    0  502  503 -0.00000000000E+00 -0.00000000000E+00 -0.67040337118E+02  0.67040337118E+02  0.00000000000E+00 0.  1.
          6    1    1    2  501    0 -0.36421899537E+02 -0.10800300885E+03  0.33515976154E+03  0.39402064723E+03  0.17300000000E+03 0.  1.
         -6    1    1    2    0  503  0.36421899537E+02  0.10800300885E+03  0.24768873203E+03  0.32290852058E+03  0.17300000000E+03 0.  1.
<mgrwt>
<rscale>  2 0.20717192E+03</rscale>
<asrwt>0</asrwt>
<pdfrwt beam="1">  1       21 0.99982893E-01 0.20717192E+03</pdfrwt>
<pdfrwt beam="2">  1       21 0.10313898E-01 0.20717192E+03</pdfrwt>
<totfact> 0.62657496E+04</totfact>
</mgrwt>
</event>
<event>
 4    1  0.4053645E-001  0.1741166E+03  0.7546771E-02  0.1173622E+00
         21   -1    0    0  503  502  0.00000000000E+00  0.00000000000E+00  0.20520582919E+03  0.20520582919E+03  0.00000000000E+00 0. -1.
         21   -1    0    0  501  503 -0.00000000000E+00 -0.00000000000E+00 -0.15683199704E+03  0.15683199704E+03  0.00000000000E+00 0. -1.
          6    1    1    2  501    0  0.19372564907E+02 -0.35080919920E+01 -0.19403917039E+02  0.17519450613E+03  0.17300000000E+03 0. -1.
         -6    1    1    2    0  502 -0.19372564907E+02  0.35080919920E+01  0.67777749189E+02  0.18684332010E+03  0.17300000000E+03 0. -1.
<mgrwt>
<rscale>  2 0.17411664E+03</rscale>
<asrwt>0</asrwt>
<pdfrwt beam="1">  1       21 0.31570127E-01 0.17411664E+03</pdfrwt>
<pdfrwt beam="2">  1       21 0.24128000E-01 0.17411664E+03</pdfrwt>
<totfact> 0.15723794E+05</totfact>
</mgrwt>
</event>
<event>
 4    1  0.4053645E-001  0.1744517E+03  0.7546771E-02  0.1173283E+00
         21   -1    0    0  503  502  0.00000000000E+00  0.00000000000E+00  0.12092335039E+03  0.12092335039E+03  0.00000000000E+00 0. -1.
         21   -1    0    0  501  503 -0.00000000000E+00 -0.00000000000E+00 -0.28112445231E+03  0.28112445231E+03  0.00000000000E+00 0. -1.
          6    1    1    2  501    0 -0.37973342512E+01 -0.22135351625E+02 -0.15037199802E+02  0.17509857486E+03  0.17300000000E+03 0. -1.
         -6    1    1    2    0  502  0.37973342512E+01  0.22135351625E+02 -0.14516390213E+03  0.22694922784E+03  0.17300000000E+03 0. -1.
<mgrwt>
<rscale>  2 0.17445169E+03</rscale>
<asrwt>0</asrwt>
<pdfrwt beam="1">  1       21 0.18603593E-01 0.17445169E+03</pdfrwt>
<pdfrwt beam="2">  1       21 0.43249915E-01 0.17445169E+03</pdfrwt>
<totfact> 0.13659144E+05</totfact>
</mgrwt>
</event>
<event>
 4    1  0.4053645E-001  0.2136381E+03  0.7546771E-02  0.1138717E+00
         21   -1    0    0  501  502  0.00000000000E+00  0.00000000000E+00  0.32288245067E+02  0.32288245067E+02  0.00000000000E+00 0.  1.
         21   -1    0    0  502  503 -0.00000000000E+00 -0.00000000000E+00 -0.14264666241E+04  0.14264666241E+04  0.00000000000E+00 0. -1.
          6    1    1    2  501    0  0.64753215885E+02 -0.10732780106E+03 -0.76647946666E+03  0.79569592726E+03  0.17300000000E+03 0.  1.
         -6    1    1    2    0  503 -0.64753215885E+02  0.10732780106E+03 -0.62769891239E+03  0.66305894192E+03  0.17300000000E+03 0. -1.
<mgrwt>
<rscale>  2 0.21363810E+03</rscale>
<asrwt>0</asrwt>
<pdfrwt beam="1">  1       21 0.49674236E-02 0.21363810E+03</pdfrwt>
<pdfrwt beam="2">  1       21 0.21945635E+00 0.21363810E+03</pdfrwt>
<totfact> 0.27143362E+04</totfact>
</mgrwt>
</event>
<event>
 4    1  0.4053645E-001  0.1988828E+03  0.7546771E-02  0.1150685E+00
         21   -1    0    0  501  502  0.00000000000E+00  0.00000000000E+00  0.74570295431E+03  0.74570295431E+03  0.00000000000E+00 0.  1.
         21   -1    0    0  502  503 -0.00000000000E+00 -0.00000000000E+00 -0.55131904869E+02  0.55131904869E+02  0.00000000000E+00 0.  1.
          6    1    1    2  501    0  0.97589053359E+02 -0.10086976317E+02  0.42322617546E+03  0.46762673793E+03  0.17300000000E+03 0.  1.
         -6    1    1    2    0  503 -0.97589053359E+02  0.10086976317E+02  0.26734487398E+03  0.33320812126E+03  0.17300000000E+03 0.  1.
<mgrwt>
<rscale>  2 0.19888281E+03</rscale>
<asrwt>0</asrwt>
<pdfrwt beam="1">  1       21 0.11472352E+00 0.19888281E+03</pdfrwt>
<pdfrwt beam="2">  1       21 0.84818321E-02 0.19888281E+03</pdfrwt>
<totfact> 0.63706737E+04</totfact>
</mgrwt>
</event>
<event>
 4    1  0.4053645E-001  0.1904188E+03  0.7546771E-02  0.1158084E+00
         21   -1    0    0  501  502  0.00000000000E+00  0.00000000000E+00  0.14396841864E+03  0.14396841864E+03  0.00000000000E+00 0.  1.
         21   -1    0    0  502  503 -0.00000000000E+00 -0.00000000000E+00 -0.26264115874E+03  0.26264115874E+03  0.00000000000E+00 0.  1.
          6    1    1    2  501    0 -0.79170639600E+02  0.78949925905E+01 -0.10053454166E+03  0.21532885350E+03  0.17300000000E+03 0.  1.
         -6    1    1    2    0  503  0.79170639600E+02 -0.78949925905E+01 -0.18138198439E+02  0.19128072387E+03  0.17300000000E+03 0.  1.
<mgrwt>
<rscale>  2 0.19041880E+03</rscale>
<asrwt>0</asrwt>
<pdfrwt beam="1">  1       21 0.22148988E-01 0.19041880E+03</pdfrwt>
<pdfrwt beam="2">  1       21 0.40406332E-01 0.19041880E+03</pdfrwt>
<totfact> 0.11257423E+05</totfact>
</mgrwt>
</event>
<event>
 4    1  0.4053645E-001  0.2586154E+03  0.7546771E-02  0.1107978E+00
         21   -1    0    0  501  502  0.00000000000E+00  0.00000000000E+00  0.16886787874E+03  0.16886787874E+03  0.00000000000E+00 0. -1.
         21   -1    0    0  502  503 -0.00000000000E+00 -0.00000000000E+00 -0.40353381701E+03  0.40353381701E+03  0.00000000000E+00 0.  1.
          6    1    1    2  501    0  0.14650109152E+03 -0.12446020098E+03 -0.78384976690E+02  0.27023344725E+03  0.17300000000E+03 0. -1.
         -6    1    1    2    0  503 -0.14650109152E+03  0.12446020098E+03 -0.15628096158E+03  0.30216824849E+03  0.17300000000E+03 0.  1.
<mgrwt>
<rscale>  2 0.25861537E+03</rscale>
<asrwt>0</asrwt>
<pdfrwt beam="1">  1       21 0.25979674E-01 0.25861537E+03</pdfrwt>
<pdfrwt beam="2">  1       21 0.62082125E-01 0.25861537E+03</pdfrwt>
<totfact> 0.32818023E+04</totfact>
</mgrwt>
</event>
<event>
 4    1  0.4053645E-001  0.2342243E+03  0.7546771E-02  0.1123701E+00
         21   -1    0    0  503  502  0.00000000000E+00  0.00000000000E+00  0.11945199250E+04  0.11945199250E+04  0.00000000000E+00 0. -1.
         21   -1    0    0  501  503 -0.00000000000E+00 -0.00000000000E+00 -0.14634320682E+03  0.14634320682E+03  0.00000000000E+00 0.  1.
          6    1    1    2  501    0 -0.14941873697E+03 -0.51049767823E+02 -0.31265117363E+02  0.23630180980E+03  0.17300000000E+03 0.  1.
         -6    1    1    2    0  502  0.14941873697E+03  0.51049767823E+02  0.10794418355E+04  0.11045613220E+04  0.17300000000E+03 0. -1.
<mgrwt>
<rscale>  2 0.23422433E+03</rscale>
<asrwt>0</asrwt>
<pdfrwt beam="1">  1       21 0.18377229E+00 0.23422433E+03</pdfrwt>
<pdfrwt beam="2">  1       21 0.22514340E-01 0.23422433E+03</pdfrwt>
<totfact> 0.30556130E+03</totfact>
</mgrwt>
</event>
<event>
 4    1  0.4053645E-001  0.2201116E+03  0.7546771E-02  0.1133800E+00
         21   -1    0    0  503  502  0.00000000000E+00  0.00000000000E+00  0.61095906724E+02  0.61095906724E+02  0.00000000000E+00 0. -1.
         21   -1    0    0  501  503 -0.00000000000E+00 -0.00000000000E+00 -0.11205572298E+04  0.11205572298E+04  0.00000000000E+00 0.  1.
          6    1    1    2  501    0 -0.92278177566E+02  0.10002420832E+03 -0.84916826922E+03  0.87723192700E+03  0.17300000000E+03 0.  1.
         -6    1    1    2    0  502  0.92278177566E+02 -0.10002420832E+03 -0.21029305384E+03  0.30442120951E+03  0.17300000000E+03 0.  1.
<mgrwt>
<rscale>  2 0.22011157E+03</rscale>
<asrwt>0</asrwt>
<pdfrwt beam="1">  1       21 0.93993712E-02 0.22011157E+03</pdfrwt>
<pdfrwt beam="2">  1       21 0.17239340E+00 0.22011157E+03</pdfrwt>
<totfact> 0.18230471E+04</totfact>
</mgrwt>
</event>
<event>
 4    1  0.4053645E-001  0.1944254E+03  0.7546771E-02  0.1154529E+00
         21   -1    0    0  503  502  0.00000000000E+00  0.00000000000E+00  0.16028688620E+04  0.16028688620E+04  0.00000000000E+00 0. -1.
         21   -1    0    0  501  503 -0.00000000000E+00 -0.00000000000E+00 -0.26328812493E+02  0.26328812493E+02  0.00000000000E+00 0. -1.
          6    1    1    2  501    0  0.40558437013E+02 -0.78912912873E+02  0.52522797090E+03  0.56005861840E+03  0.17300000000E+03 0. -1.
         -6    1    1    2    0  502 -0.40558437013E+02  0.78912912873E+02  0.10513120786E+04  0.10691390561E+04  0.17300000000E+03 0. -1.
<mgrwt>
<rscale>  2 0.19442540E+03</rscale>
<asrwt>0</asrwt>
<pdfrwt beam="1">  1       21 0.24659513E+00 0.19442540E+03</pdfrwt>
<pdfrwt beam="2">  1       21 0.40505878E-02 0.19442540E+03</pdfrwt>
<totfact> 0.26679124E+04</totfact>
</mgrwt>
</event>
<event>
 4    1  0.4053645E-001  0.2178685E+03  0.7546771E-02  0.1135482E+00
         21   -1    0    0  503  502  0.00000000000E+00  0.00000000000E+00  0.41319734038E+03  0.41319734038E+03  0.00000000000E+00 0. -1.
         21   -1    0    0  501  503 -0.00000000000E+00 -0.00000000000E+00 -0.12465932219E+03  0.12465932219E+03  0.00000000000E+00 0. -1.
          6    1    1    2  501    0 -0.91594721199E+02  0.95645601657E+02  0.68932458725E+02  0.22851336489E+03  0.17300000000E+03 0. -1.
         -6    1    1    2    0  502  0.91594721199E+02 -0.95645601657E+02  0.21960555947E+03  0.30934329768E+03  0.17300000000E+03 0. -1.
<mgrwt>
<rscale>  2 0.21786848E+03</rscale>
<asrwt>0</asrwt>
<pdfrwt beam="1">  1       21 0.63568821E-01 0.21786848E+03</pdfrwt>
<pdfrwt beam="2">  1       21 0.19178357E-01 0.21786848E+03</pdfrwt>
<totfact> 0.56430200E+04</totfact>
</mgrwt>
</event>
<event>
 4    1  0.4053645E-001  0.1840022E+03  0.7546771E-02  0.1163985E+00
         21   -1    0    0  501  502  0.00000000000E+00  0.00000000000E+00  0.13350875213E+04  0.13350875213E+04  0.00000000000E+00 0.  1.
         21   -1    0    0  502  503 -0.00000000000E+00 -0.00000000000E+00 -0.28619839517E+02  0.28619839517E+02  0.00000000000E+00 0. -1.
          6    1    1    2  501    0  0.28251457784E+02  0.55943500608E+02  0.88338096955E+03  0.90234071031E+03  0.17300000000E+03 0.  1.
         -6    1    1    2    0  503 -0.28251457784E+02 -0.55943500608E+02  0.42308671222E+03  0.46136665049E+03  0.17300000000E+03 0. -1.
<mgrwt>
<rscale>  2 0.18400223E+03</rscale>
<asrwt>0</asrwt>
<pdfrwt beam="1">  1       21 0.20539803E+00 0.18400223E+03</pdfrwt>
<pdfrwt beam="2">  1       21 0.44030533E-02 0.18400223E+03</pdfrwt>
<totfact> 0.41611809E+04</totfact>
</mgrwt>
</event>
<event>
 4    1  0.4053645E-001  0.3008540E+03  0.7546771E-02  0.1084814E+00
         21   -1    0    0  501  502  0.00000000000E+00  0.00000000000E+00  0.96327896189E+02  0.96327896189E+02  0.00000000000E+00 0. -1.
         21   -1    0    0  502  503 -0.00000000000E+00 -0.00000000000E+00 -0.10605653522E+04  0.10605653522E+04  0.00000000000E+00 0.  1.
          6    1    1    2  501    0 -0.24562288250E+03  0.15923225883E+02 -0.28679247711E+03  0.41564777692E+03  0.17300000000E+03 0. -1.
         -6    1    1    2    0  503  0.24562288250E+03 -0.15923225883E+02 -0.67744497886E+03  0.74124547142E+03  0.17300000000E+03 0. -1.
<mgrwt>
<rscale>  2 0.30085403E+03</rscale>
<asrwt>0</asrwt>
<pdfrwt beam="1">  1       21 0.14819675E-01 0.30085403E+03</pdfrwt>
<pdfrwt beam="2">  1       21 0.16316391E+00 0.30085403E+03</pdfrwt>
<totfact> 0.89301658E+03</totfact>
</mgrwt>
</event>
<event>
 4    1  0.4053645E-001  0.1844667E+03  0.7546771E-02  0.1163549E+00
         21   -1    0    0  501  502  0.00000000000E+00  0.00000000000E+00  0.11023364116E+03  0.11023364116E+03  0.00000000000E+00 0.  1.
         21   -1    0    0  502  503 -0.00000000000E+00 -0.00000000000E+00 -0.39197687105E+03  0.39197687105E+03  0.00000000000E+00 0.  1.
          6    1    1    2  501    0 -0.37239020024E+02  0.52079060060E+02 -0.25123206402E+02  0.18616967693E+03  0.17300000000E+03 0.  1.
         -6    1    1    2    0  503  0.37239020024E+02 -0.52079060060E+02 -0.25662002348E+03  0.31604083527E+03  0.17300000000E+03 0.  1.
<mgrwt>
<rscale>  2 0.18446673E+03</rscale>
<asrwt>0</asrwt>
<pdfrwt beam="1">  1       21 0.16959022E-01 0.18446673E+03</pdfrwt>
<pdfrwt beam="2">  1       21 0.60304133E-01 0.18446673E+03</pdfrwt>
<totfact> 0.80589690E+04</totfact>
</mgrwt>
</event>
<event>
 4    1  0.4053645E-001  0.1851672E+03  0.7546771E-02  0.1162894E+00
         21   -1    0    0  501  502  0.00000000000E+00  0.00000000000E+00  0.10378889123E+03  0.10378889123E+03  0.00000000000E+00 0.  1.
         21   -1    0    0  502  503 -0.00000000000E+00 -0.00000000000E+00 -0.60111858048E+03  0.60111858048E+03  0.00000000000E+00 0.  1.
          6    1    1    2  501    0 -0.65903666870E+02 -0.38204386974E+01 -0.12116775137E+02  0.18556321106E+03  0.17300000000E+03 0.  1.
         -6    1    1    2    0  503  0.65903666870E+02  0.38204386974E+01 -0.48521291411E+03  0.51934426066E+03  0.17300000000E+03 0.  1.
<mgrwt>
<rscale>  2 0.18516719E+03</rscale>
<asrwt>0</asrwt>
<pdfrwt beam="1">  1       21 0.15967522E-01 0.18516719E+03</pdfrwt>
<pdfrwt beam="2">  1       21 0.92479782E-01 0.18516719E+03</pdfrwt>
<totfact> 0.34659475E+04</totfact>
</mgrwt>
</event>
<event>
 4    1  0.4053645E-001  0.2106991E+03  0.7546771E-02  0.1141014E+00
         21   -1    0    0  501  502  0.00000000000E+00  0.00000000000E+00  0.20455498026E+02  0.20455498026E+02  0.00000000000E+00 0.  1.
         21   -1    0    0  502  503 -0.00000000000E+00 -0.00000000000E+00 -0.22184677845E+04  0.22184677845E+04  0.00000000000E+00 0.  1.
          6    1    1    2  501    0  0.11645101125E+03  0.30071074004E+02 -0.12639979245E+04  0.12814385903E+04  0.17300000000E+03 0.  1.
         -6    1    1    2    0  503 -0.11645101125E+03 -0.30071074004E+02 -0.93401436193E+03  0.95748469220E+03  0.17300000000E+03 0.  1.
<mgrwt>
<rscale>  2 0.21069909E+03</rscale>
<asrwt>0</asrwt>
<pdfrwt beam="1">  1       21 0.31469995E-02 0.21069909E+03</pdfrwt>
<pdfrwt beam="2">  1       21 0.34130276E+00 0.21069909E+03</pdfrwt>
<totfact> 0.11270362E+04</totfact>
</mgrwt>
</event>
<event>
 4    1  0.4053645E-001  0.1847893E+03  0.7546771E-02  0.1163247E+00
         21   -1    0    0  501  502  0.00000000000E+00  0.00000000000E+00  0.42653498946E+03  0.42653498946E+03  0.00000000000E+00 0. -1.
         21   -1    0    0  502  503 -0.00000000000E+00 -0.00000000000E+00 -0.11311861911E+03  0.11311861911E+03  0.00000000000E+00 0.  1.
          6    1    1    2  501    0 -0.35832257227E+02 -0.54167487978E+02  0.30258315616E+03  0.35454708263E+03  0.17300000000E+03 0. -1.
         -6    1    1    2    0  503  0.35832257227E+02  0.54167487978E+02  0.10833214191E+02  0.18510652593E+03  0.17300000000E+03 0. -1.
<mgrwt>
<rscale>  2 0.18478925E+03</rscale>
<asrwt>0</asrwt>
<pdfrwt beam="1">  1       21 0.65620767E-01 0.18478925E+03</pdfrwt>
<pdfrwt beam="2">  1       21 0.17402865E-01 0.18478925E+03</pdfrwt>
<totfact> 0.64010542E+04</totfact>
</mgrwt>
</event>
<event>
 4    1  0.4053645E-001  0.1867136E+03  0.7546771E-02  0.1161459E+00
         21   -1    0    0  501  502  0.00000000000E+00  0.00000000000E+00  0.91947588152E+02  0.91947588152E+02  0.00000000000E+00 0. -1.
         21   -1    0    0  502  503 -0.00000000000E+00 -0.00000000000E+00 -0.49319193555E+03  0.49319193555E+03  0.00000000000E+00 0.  1.
          6    1    1    2  501    0  0.70222572454E+02 -0.13248863405E+01 -0.59935494238E+02  0.19609749737E+03  0.17300000000E+03 0. -1.
         -6    1    1    2    0  503 -0.70222572454E+02  0.13248863405E+01 -0.34130885316E+03  0.38904202633E+03  0.17300000000E+03 0.  1.
<mgrwt>
<rscale>  2 0.18671359E+03</rscale>
<asrwt>0</asrwt>
<pdfrwt beam="1">  1       21 0.14145783E-01 0.18671359E+03</pdfrwt>
<pdfrwt beam="2">  1       21 0.75875683E-01 0.18671359E+03</pdfrwt>
<totfact> 0.67779914E+04</totfact>
</mgrwt>
</event>
<event>
 4    1  0.4053645E-001  0.3479018E+03  0.7546771E-02  0.1063480E+00
         21   -1    0    0  501  502  0.00000000000E+00  0.00000000000E+00  0.13343622310E+04  0.13343622310E+04  0.00000000000E+00 0.  1.
         21   -1    0    0  502  503 -0.00000000000E+00 -0.00000000000E+00 -0.12949633174E+03  0.12949633174E+03  0.00000000000E+00 0. -1.
          6    1    1    2  501    0  0.18967945355E+03 -0.23479428106E+03  0.10030209966E+04  0.10616434284E+04  0.17300000000E+03 0.  1.
         -6    1    1    2    0  503 -0.18967945355E+03  0.23479428106E+03  0.20184490263E+03  0.40221513427E+03  0.17300000000E+03 0. -1.
<mgrwt>
<rscale>  2 0.34790178E+03</rscale>
<asrwt>0</asrwt>
<pdfrwt beam="1">  1       21 0.20528649E+00 0.34790178E+03</pdfrwt>
<pdfrwt beam="2">  1       21 0.19922513E-01 0.34790178E+03</pdfrwt>
<totfact> 0.25716025E+03</totfact>
</mgrwt>
</event>
<event>
 4    1  0.4053645E-001  0.3243588E+03  0.7546771E-02  0.1073661E+00
         21   -1    0    0  501  502  0.00000000000E+00  0.00000000000E+00  0.86526602493E+03  0.86526602493E+03  0.00000000000E+00 0. -1.
         21   -1    0    0  502  503 -0.00000000000E+00 -0.00000000000E+00 -0.28704512028E+03  0.28704512028E+03  0.00000000000E+00 0.  1.
          6    1    1    2  501    0 -0.23416669502E+03  0.14298799516E+03  0.72653525577E+03  0.79565198780E+03  0.17300000000E+03 0. -1.
         -6    1    1    2    0  503  0.23416669502E+03 -0.14298799516E+03 -0.14831435111E+03  0.35665915741E+03  0.17300000000E+03 0.  1.
<mgrwt>
<rscale>  2 0.32435876E+03</rscale>
<asrwt>0</asrwt>
<pdfrwt beam="1">  1       21 0.13311785E+00 0.32435876E+03</pdfrwt>
<pdfrwt beam="2">  1       21 0.44160788E-01 0.32435876E+03</pdfrwt>
<totfact> 0.18211417E+03</totfact>
</mgrwt>
</event>
<event>
 4    1  0.4053645E-001  0.1947405E+03  0.7546771E-02  0.1154254E+00
         21   -1    0    0  501  502  0.00000000000E+00  0.00000000000E+00  0.36533409699E+02  0.36533409699E+02  0.00000000000E+00 0. -1.
         21   -1    0    0  502  503 -0.00000000000E+00 -0.00000000000E+00 -0.11340113152E+04  0.11340113152E+04  0.00000000000E+00 0. -1.
          6    1    1    2  501    0  0.75342934446E+02 -0.48148941591E+02 -0.37849395887E+03  0.42565426728E+03  0.17300000000E+03 0. -1.
         -6    1    1    2    0  503 -0.75342934446E+02  0.48148941591E+02 -0.71898394658E+03  0.74489045758E+03  0.17300000000E+03 0. -1.
<mgrwt>
<rscale>  2 0.19474054E+03</rscale>
<asrwt>0</asrwt>
<pdfrwt beam="1">  1       21 0.56205249E-02 0.19474054E+03</pdfrwt>
<pdfrwt beam="2">  1       21 0.17446327E+00 0.19474054E+03</pdfrwt>
<totfact> 0.43732313E+04</totfact>
</mgrwt>
</event>
<event>
 4    1  0.4053645E-001  0.1817783E+03  0.7546771E-02  0.1166093E+00
         21   -1    0    0  501  502  0.00000000000E+00  0.00000000000E+00  0.12133814032E+03  0.12133814032E+03  0.00000000000E+00 0.  1.
         21   -1    0    0  502  503 -0.00000000000E+00 -0.00000000000E+00 -0.29838917168E+03  0.29838917168E+03  0.00000000000E+00 0.  1.
          6    1    1    2  501    0  0.49386122379E+02  0.25987693808E+02 -0.26499801834E+02  0.18369972458E+03  0.17300000000E+03 0.  1.
         -6    1    1    2    0  503 -0.49386122379E+02 -0.25987693808E+02 -0.15055122953E+03  0.23602758742E+03  0.17300000000E+03 0.  1.
<mgrwt>
<rscale>  2 0.18177830E+03</rscale>
<asrwt>0</asrwt>
<pdfrwt beam="1">  1       21 0.18667406E-01 0.18177830E+03</pdfrwt>
<pdfrwt beam="2">  1       21 0.45906026E-01 0.18177830E+03</pdfrwt>
<totfact> 0.11983036E+05</totfact>
</mgrwt>
</event>
<event>
 4    1  0.4053645E-001  0.1845200E+03  0.7546771E-02  0.1163499E+00
         21   -1    0    0  501  502  0.00000000000E+00  0.00000000000E+00  0.30785648708E+03  0.30785648708E+03  0.00000000000E+00 0.  1.
         21   -1    0    0  502  503 -0.00000000000E+00 -0.00000000000E+00 -0.11151708074E+03  0.11151708074E+03  0.00000000000E+00 0. -1.
          6    1    1    2  501    0  0.64152612161E+02 -0.17575098080E+01  0.79111271422E+02  0.20076413961E+03  0.17300000000E+03 0. -1.
         -6    1    1    2    0  503 -0.64152612161E+02  0.17575098080E+01  0.11722813491E+03  0.21860942821E+03  0.17300000000E+03 0.  1.
<mgrwt>
<rscale>  2 0.18452004E+03</rscale>
<asrwt>0</asrwt>
<pdfrwt beam="1">  1       21 0.47362536E-01 0.18452004E+03</pdfrwt>
<pdfrwt beam="2">  1       21 0.17156474E-01 0.18452004E+03</pdfrwt>
<totfact> 0.13117325E+05</totfact>
</mgrwt>
</event>
<event>
 4    1  0.4053645E-001  0.1926148E+03  0.7546771E-02  0.1156124E+00
         21   -1    0    0  501  502  0.00000000000E+00  0.00000000000E+00  0.45727683965E+03  0.45727683965E+03  0.00000000000E+00 0.  1.
         21   -1    0    0  502  503 -0.00000000000E+00 -0.00000000000E+00 -0.11514605380E+03  0.11514605380E+03  0.00000000000E+00 0.  1.
          6    1    1    2  501    0 -0.80637686992E+02 -0.25865401999E+02  0.32661979229E+03  0.37918457814E+03  0.17300000000E+03 0.  1.
         -6    1    1    2    0  503  0.80637686992E+02  0.25865401999E+02  0.15510993554E+02  0.19323831531E+03  0.17300000000E+03 0.  1.
<mgrwt>
<rscale>  2 0.19261479E+03</rscale>
<asrwt>0</asrwt>
<pdfrwt beam="1">  1       21 0.70350282E-01 0.19261479E+03</pdfrwt>
<pdfrwt beam="2">  1       21 0.17714778E-01 0.19261479E+03</pdfrwt>
<totfact> 0.52997328E+04</totfact>
</mgrwt>
</event>
<event>
 4    1  0.4053645E-001  0.1779941E+03  0.7546771E-02  0.1169759E+00
         21   -1    0    0  503  502  0.00000000000E+00  0.00000000000E+00  0.49689683448E+03  0.49689683448E+03  0.00000000000E+00 0. -1.
         21   -1    0    0  501  503 -0.00000000000E+00 -0.00000000000E+00 -0.81505301972E+02  0.81505301972E+02  0.00000000000E+00 0. -1.
          6    1    1    2  501    0  0.12518307333E+02  0.39952269694E+02  0.72751379738E+02  0.19228794847E+03  0.17300000000E+03 0. -1.
         -6    1    1    2    0  502 -0.12518307333E+02 -0.39952269694E+02  0.34264015277E+03  0.38611418799E+03  0.17300000000E+03 0. -1.
<mgrwt>
<rscale>  2 0.17799408E+03</rscale>
<asrwt>0</asrwt>
<pdfrwt beam="1">  1       21 0.76445665E-01 0.17799408E+03</pdfrwt>
<pdfrwt beam="2">  1       21 0.12539278E-01 0.17799408E+03</pdfrwt>
<totfact> 0.83134481E+04</totfact>
</mgrwt>
</event>
<event>
 4    1  0.4053645E-001  0.2488394E+03  0.7546771E-02  0.1114041E+00
         21   -1    0    0  503  502  0.00000000000E+00  0.00000000000E+00  0.12602554292E+03  0.12602554292E+03  0.00000000000E+00 0.  1.
         21   -1    0    0  501  503 -0.00000000000E+00 -0.00000000000E+00 -0.56140032616E+03  0.56140032616E+03  0.00000000000E+00 0.  1.
          6    1    1    2  501    0  0.16508515042E+03 -0.68839871138E+02 -0.33911134422E+03  0.42061566606E+03  0.17300000000E+03 0.  1.
         -6    1    1    2    0  502 -0.16508515042E+03  0.68839871138E+02 -0.96263439012E+02  0.26681020303E+03  0.17300000000E+03 0.  1.
<mgrwt>
<rscale>  2 0.24883938E+03</rscale>
<asrwt>0</asrwt>
<pdfrwt beam="1">  1       21 0.19388545E-01 0.24883938E+03</pdfrwt>
<pdfrwt beam="2">  1       21 0.86369281E-01 0.24883938E+03</pdfrwt>
<totfact> 0.27436225E+04</totfact>
</mgrwt>
</event>
<event>
 4    1  0.4053645E-001  0.1795181E+03  0.7546771E-02  0.1168270E+00
         21   -1    0    0  501  502  0.00000000000E+00  0.00000000000E+00  0.23286547794E+03  0.23286547794E+03  0.00000000000E+00 0.  1.
         21   -1    0    0  502  503 -0.00000000000E+00 -0.00000000000E+00 -0.17689274279E+03  0.17689274279E+03  0.00000000000E+00 0. -1.
          6    1    1    2  501    0 -0.70948728400E+01 -0.47406727580E+02 -0.67595792903E+02  0.19182264272E+03  0.17300000000E+03 0. -1.
         -6    1    1    2    0  503  0.70948728400E+01  0.47406727580E+02  0.12356852806E+03  0.21793557802E+03  0.17300000000E+03 0.  1.
<mgrwt>
<rscale>  2 0.17951806E+03</rscale>
<asrwt>0</asrwt>
<pdfrwt beam="1">  1       21 0.35825458E-01 0.17951806E+03</pdfrwt>
<pdfrwt beam="2">  1       21 0.27214268E-01 0.17951806E+03</pdfrwt>
<totfact> 0.97190512E+04</totfact>
</mgrwt>
</event>
<event>
 4    1  0.4053645E-001  0.2320381E+03  0.7546771E-02  0.1125213E+00
         21   -1    0    0  503  502  0.00000000000E+00  0.00000000000E+00  0.23313911267E+03  0.23313911267E+03  0.00000000000E+00 0. -1.
         21   -1    0    0  501  503 -0.00000000000E+00 -0.00000000000E+00 -0.24969340899E+03  0.24969340899E+03  0.00000000000E+00 0. -1.
          6    1    1    2  501    0  0.13406645565E+03  0.77063901475E+02  0.57880129236E+02  0.23914800606E+03  0.17300000000E+03 0. -1.
         -6    1    1    2    0  502 -0.13406645565E+03 -0.77063901475E+02 -0.74434425555E+02  0.24368451561E+03  0.17300000000E+03 0. -1.
<mgrwt>
<rscale>  2 0.23203806E+03</rscale>
<asrwt>0</asrwt>
<pdfrwt beam="1">  1       21 0.35867556E-01 0.23203806E+03</pdfrwt>
<pdfrwt beam="2">  1       21 0.38414370E-01 0.23203806E+03</pdfrwt>
<totfact> 0.48091797E+04</totfact>
</mgrwt>
</event>
<event>
 4    1  0.4053645E-001  0.2163828E+03  0.7546771E-02  0.1136609E+00
         21   -1    0    0  503  502  0.00000000000E+00  0.00000000000E+00  0.81356212554E+02  0.81356212554E+02  0.00000000000E+00 0.  1.
         21   -1    0    0  501  503 -0.00000000000E+00 -0.00000000000E+00 -0.60471839975E+03  0.60471839975E+03  0.00000000000E+00 0.  1.
          6    1    1    2  501    0 -0.78713353524E+02  0.10342498832E+03 -0.18629351630E+03  0.28552897304E+03  0.17300000000E+03 0.  1.
         -6    1    1    2    0  502  0.78713353524E+02 -0.10342498832E+03 -0.33706867090E+03  0.40054563926E+03  0.17300000000E+03 0.  1.
<mgrwt>
<rscale>  2 0.21638281E+03</rscale>
<asrwt>0</asrwt>
<pdfrwt beam="1">  1       21 0.12516340E-01 0.21638281E+03</pdfrwt>
<pdfrwt beam="2">  1       21 0.93033603E-01 0.21638281E+03</pdfrwt>
<totfact> 0.52317366E+04</totfact>
</mgrwt>
</event>
<event>
 4    1  0.4053645E-001  0.2136744E+03  0.7546771E-02  0.1138689E+00
         21   -1    0    0  503  502  0.00000000000E+00  0.00000000000E+00  0.11567745145E+04  0.11567745145E+04  0.00000000000E+00 0.  1.
         21   -1    0    0  501  503 -0.00000000000E+00 -0.00000000000E+00 -0.39924829021E+02  0.39924829021E+02  0.00000000000E+00 0.  1.
          6    1    1    2  501    0 -0.12489109893E+03 -0.11399515521E+02  0.49449059031E+03  0.53868142668E+03  0.17300000000E+03 0.  1.
         -6    1    1    2    0  502  0.12489109893E+03  0.11399515521E+02  0.62235909519E+03  0.65801791686E+03  0.17300000000E+03 0.  1.
<mgrwt>
<rscale>  2 0.21367437E+03</rscale>
<asrwt>0</asrwt>
<pdfrwt beam="1">  1       21 0.17796528E+00 0.21367437E+03</pdfrwt>
<pdfrwt beam="2">  1       21 0.61422823E-02 0.21367437E+03</pdfrwt>
<totfact> 0.35111430E+04</totfact>
</mgrwt>
</event>
<event>
 4    1  0.4053645E-001  0.3048171E+03  0.7546771E-02  0.1082857E+00
         21   -1    0    0  503  502  0.00000000000E+00  0.00000000000E+00  0.21648090941E+03  0.21648090941E+03  0.00000000000E+00 0.  1.
         21   -1    0    0  501  503 -0.00000000000E+00 -0.00000000000E+00 -0.46409224865E+03  0.46409224865E+03  0.00000000000E+00 0.  1.
          6    1    1    2  501    0 -0.21428644691E+03  0.13063612289E+03 -0.30499398529E+02  0.30633917680E+03  0.17300000000E+03 0.  1.
         -6    1    1    2    0  502  0.21428644691E+03 -0.13063612289E+03 -0.21711194071E+03  0.37423398126E+03  0.17300000000E+03 0.  1.
<mgrwt>
<rscale>  2 0.30481712E+03</rscale>
<asrwt>0</asrwt>
<pdfrwt beam="1">  1       21 0.33304755E-01 0.30481712E+03</pdfrwt>
<pdfrwt beam="2">  1       21 0.71398808E-01 0.30481712E+03</pdfrwt>
<totfact> 0.14521479E+04</totfact>
</mgrwt>
</event>
<event>
 4    1  0.4053645E-001  0.2243714E+03  0.7546771E-02  0.1130665E+00
         21   -1    0    0  503  502  0.00000000000E+00  0.00000000000E+00  0.13175850538E+03  0.13175850538E+03  0.00000000000E+00 0.  1.
         21   -1    0    0  501  503 -0.00000000000E+00 -0.00000000000E+00 -0.56868548422E+03  0.56868548422E+03  0.00000000000E+00 0.  1.
          6    1    1    2  501    0 -0.12970065863E+03 -0.59927269787E+02 -0.41908031323E+03  0.47536391055E+03  0.17300000000E+03 0.  1.
         -6    1    1    2    0  502  0.12970065863E+03  0.59927269787E+02 -0.17846665605E+02  0.22508007905E+03  0.17300000000E+03 0.  1.
<mgrwt>
<rscale>  2 0.22437143E+03</rscale>
<asrwt>0</asrwt>
<pdfrwt beam="1">  1       21 0.20270539E-01 0.22437143E+03</pdfrwt>
<pdfrwt beam="2">  1       21 0.87490077E-01 0.22437143E+03</pdfrwt>
<totfact> 0.24796506E+04</totfact>
</mgrwt>
</event>
<event>
 4    1  0.4053645E-001  0.2511666E+03  0.7546771E-02  0.1112570E+00
         21   -1    0    0  501  502  0.00000000000E+00  0.00000000000E+00  0.13508248578E+04  0.13508248578E+04  0.00000000000E+00 0. -1.
         21   -1    0    0  502  503 -0.00000000000E+00 -0.00000000000E+00 -0.47257512634E+02  0.47257512634E+02  0.00000000000E+00 0.  1.
          6    1    1    2  501    0  0.16418657459E+03  0.78729974300E+02  0.72765395907E+03  0.76978238762E+03  0.17300000000E+03 0. -1.
         -6    1    1    2    0  503 -0.16418657459E+03 -0.78729974300E+02  0.57591338610E+03  0.62829998283E+03  0.17300000000E+03 0.  1.
<mgrwt>
<rscale>  2 0.25116656E+03</rscale>
<asrwt>0</asrwt>
<pdfrwt beam="1">  1       21 0.20781918E+00 0.25116656E+03</pdfrwt>
<pdfrwt beam="2">  1       21 0.72703876E-02 0.25116656E+03</pdfrwt>
<totfact> 0.16267213E+04</totfact>
</mgrwt>
</event>
<event>
 4    1  0.4053645E-001  0.2253103E+03  0.7546771E-02  0.1129985E+00
         21   -1    0    0  503  502  0.00000000000E+00  0.00000000000E+00  0.19171406014E+03  0.19171406014E+03  0.00000000000E+00 0. -1.
         21   -1    0    0  501  503 -0.00000000000E+00 -0.00000000000E+00 -0.38653323694E+03  0.38653323694E+03  0.00000000000E+00 0.  1.
          6    1    1    2  501    0 -0.14429893000E+03 -0.36782627180E+01 -0.25966742698E+03  0.34379046445E+03  0.17300000000E+03 0.  1.
         -6    1    1    2    0  502  0.14429893000E+03  0.36782627180E+01  0.64848250173E+02  0.23445683263E+03  0.17300000000E+03 0. -1.
<mgrwt>
<rscale>  2 0.22531025E+03</rscale>
<asrwt>0</asrwt>
<pdfrwt beam="1">  1       21 0.29494471E-01 0.22531025E+03</pdfrwt>
<pdfrwt beam="2">  1       21 0.59466651E-01 0.22531025E+03</pdfrwt>
<totfact> 0.28588889E+04</totfact>
</mgrwt>
</event>
<event>
 4    1  0.4053645E-001  0.2099485E+03  0.7546771E-02  0.1141607E+00
         21   -1    0    0  501  502  0.00000000000E+00  0.00000000000E+00  0.15195315000E+03  0.15195315000E+03  0.00000000000E+00 0.  1.
         21   -1    0    0  502  503 -0.00000000000E+00 -0.00000000000E+00 -0.34262902180E+03  0.34262902180E+03  0.00000000000E+00 0.  1.
          6    1    1    2  501    0 -0.56667605844E+02 -0.10458561382E+03  0.15086216854E+01  0.20995390949E+03  0.17300000000E+03 0.  1.
         -6    1    1    2    0  503  0.56667605844E+02  0.10458561382E+03 -0.19218449348E+03  0.28462826231E+03  0.17300000000E+03 0.  1.
<mgrwt>
<rscale>  2 0.20994849E+03</rscale>
<asrwt>0</asrwt>
<pdfrwt beam="1">  1       21 0.23377408E-01 0.20994849E+03</pdfrwt>
<pdfrwt beam="2">  1       21 0.52712157E-01 0.20994849E+03</pdfrwt>
<totfact> 0.58238913E+04</totfact>
</mgrwt>
</event>
<event>
 4    1  0.4053645E-001  0.2551535E+03  0.7546771E-02  0.1110091E+00
         21   -1    0    0  501  502  0.00000000000E+00  0.00000000000E+00  0.72247373433E+02  0.72247373433E+02  0.00000000000E+00 0. -1.
         21   -1    0    0  502  503 -0.00000000000E+00 -0.00000000000E+00 -0.90147962960E+03  0.90147962960E+03  0.00000000000E+00 0.  1.
          6    1    1    2  501    0  0.13495967007E+03  0.13023131247E+03 -0.40484595969E+03  0.47854316249E+03  0.17300000000E+03 0. -1.
         -6    1    1    2    0  503 -0.13495967007E+03 -0.13023131247E+03 -0.42438629648E+03  0.49518384054E+03  0.17300000000E+03 0.  1.
<mgrwt>
<rscale>  2 0.25515350E+03</rscale>
<asrwt>0</asrwt>
<pdfrwt beam="1">  1       21 0.11114980E-01 0.25515350E+03</pdfrwt>
<pdfrwt beam="2">  1       21 0.13868917E+00 0.25515350E+03</pdfrwt>
<totfact> 0.23797262E+04</totfact>
</mgrwt>
</event>
<event>
 4    1  0.4053645E-001  0.2128138E+03  0.7546771E-02  0.1139357E+00
         21   -1    0    0  501  502  0.00000000000E+00  0.00000000000E+00  0.24051165236E+03  0.24051165236E+03  0.00000000000E+00 0. -1.
         21   -1    0    0  502  503 -0.00000000000E+00 -0.00000000000E+00 -0.20298834909E+03  0.20298834909E+03  0.00000000000E+00 0.  1.
          6    1    1    2  501    0  0.12173889198E+03  0.23245677215E+02  0.78400606088E+02  0.22679588701E+03  0.17300000000E+03 0. -1.
         -6    1    1    2    0  503 -0.12173889198E+03 -0.23245677215E+02 -0.40877302817E+02  0.21670411444E+03  0.17300000000E+03 0.  1.
<mgrwt>
<rscale>  2 0.21281381E+03</rscale>
<asrwt>0</asrwt>
<pdfrwt beam="1">  1       21 0.37001793E-01 0.21281381E+03</pdfrwt>
<pdfrwt beam="2">  1       21 0.31228977E-01 0.21281381E+03</pdfrwt>
<totfact> 0.68786537E+04</totfact>
</mgrwt>
</event>
<event>
 4    1  0.4053645E-001  0.1867099E+03  0.7546771E-02  0.1161463E+00
         21   -1    0    0  503  502  0.00000000000E+00  0.00000000000E+00  0.19414480192E+04  0.19414480192E+04  0.00000000000E+00 0. -1.
         21   -1    0    0  501  503 -0.00000000000E+00 -0.00000000000E+00 -0.19688008422E+02  0.19688008422E+02  0.00000000000E+00 0. -1.
          6    1    1    2  501    0  0.29563223421E+02  0.63699454531E+02  0.12517200150E+04  0.12655684891E+04  0.17300000000E+03 0. -1.
         -6    1    1    2    0  502 -0.29563223421E+02 -0.63699454531E+02  0.67003999585E+03  0.69556753858E+03  0.17300000000E+03 0. -1.
<mgrwt>
<rscale>  2 0.18670995E+03</rscale>
<asrwt>0</asrwt>
<pdfrwt beam="1">  1       21 0.29868416E+00 0.18670995E+03</pdfrwt>
<pdfrwt beam="2">  1       21 0.30289259E-02 0.18670995E+03</pdfrwt>
<totfact> 0.21761752E+04</totfact>
</mgrwt>
</event>
<event>
 4    1  0.4053645E-001  0.2006126E+03  0.7546771E-02  0.1149223E+00
         21   -1    0    0  503  502  0.00000000000E+00  0.00000000000E+00  0.40575474494E+03  0.40575474494E+03  0.00000000000E+00 0.  1.
         21   -1    0    0  501  503 -0.00000000000E+00 -0.00000000000E+00 -0.10491148182E+03  0.10491148182E+03  0.00000000000E+00 0.  1.
          6    1    1    2  501    0 -0.88975667671E+02 -0.48987357983E+02  0.90775928173E+02  0.22019468616E+03  0.17300000000E+03 0.  1.
         -6    1    1    2    0  502  0.88975667671E+02  0.48987357983E+02  0.21006733496E+03  0.29047154059E+03  0.17300000000E+03 0.  1.
<mgrwt>
<rscale>  2 0.20061264E+03</rscale>
<asrwt>0</asrwt>
<pdfrwt beam="1">  1       21 0.62423806E-01 0.20061264E+03</pdfrwt>
<pdfrwt beam="2">  1       21 0.16140228E-01 0.20061264E+03</pdfrwt>
<totfact> 0.81364877E+04</totfact>
</mgrwt>
</event>
<event>
 4    1  0.4053645E-001  0.1811833E+03  0.7546771E-02  0.1166663E+00
         21   -1    0    0  503  502  0.00000000000E+00  0.00000000000E+00  0.29943167275E+03  0.29943167275E+03  0.00000000000E+00 0. -1.
         21   -1    0    0  501  503 -0.00000000000E+00 -0.00000000000E+00 -0.12640437062E+03  0.12640437062E+03  0.00000000000E+00 0. -1.
          6    1    1    2  501    0  0.38910845835E+01  0.53696000629E+02  0.89561266983E+01  0.18140455680E+03  0.17300000000E+03 0. -1.
         -6    1    1    2    0  502 -0.38910845835E+01 -0.53696000629E+02  0.16407117543E+03  0.24443148658E+03  0.17300000000E+03 0. -1.
<mgrwt>
<rscale>  2 0.18118334E+03</rscale>
<asrwt>0</asrwt>
<pdfrwt beam="1">  1       21 0.46066411E-01 0.18118334E+03</pdfrwt>
<pdfrwt beam="2">  1       21 0.19446826E-01 0.18118334E+03</pdfrwt>
<totfact> 0.11029643E+05</totfact>
</mgrwt>
</event>
<event>
 4    1  0.4053645E-001  0.3812972E+03  0.7546771E-02  0.1050455E+00
         21   -1    0    0  503  502  0.00000000000E+00  0.00000000000E+00  0.11713076563E+04  0.11713076563E+04  0.00000000000E+00 0. -1.
         21   -1    0    0  501  503 -0.00000000000E+00 -0.00000000000E+00 -0.12418366079E+03  0.12418366079E+03  0.00000000000E+00 0.  1.
          6    1    1    2  501    0 -0.62247623865E+02 -0.33404160814E+03  0.53774226482E+03  0.65920733159E+03  0.17300000000E+03 0. -1.
         -6    1    1    2    0  502  0.62247623865E+02  0.33404160814E+03  0.50938173069E+03  0.63628398550E+03  0.17300000000E+03 0.  1.
<mgrwt>
<rscale>  2 0.38129721E+03</rscale>
<asrwt>0</asrwt>
<pdfrwt beam="1">  1       21 0.18020117E+00 0.38129721E+03</pdfrwt>
<pdfrwt beam="2">  1       21 0.19105179E-01 0.38129721E+03</pdfrwt>
<totfact> 0.40404511E+03</totfact>
</mgrwt>
</event>
<event>
 4    1  0.4053645E-001  0.1785003E+03  0.7546771E-02  0.1169262E+00
         21   -1    0    0  501  502  0.00000000000E+00  0.00000000000E+00  0.12138378845E+03  0.12138378845E+03  0.00000000000E+00 0.  1.
         21   -1    0    0  502  503 -0.00000000000E+00 -0.00000000000E+00 -0.29912857404E+03  0.29912857404E+03  0.00000000000E+00 0.  1.
          6    1    1    2  501    0 -0.18226257313E+02  0.40014568272E+02 -0.16245461793E+03  0.24135837465E+03  0.17300000000E+03 0.  1.
         -6    1    1    2    0  503  0.18226257313E+02 -0.40014568272E+02 -0.15290167659E+02  0.17915398783E+03  0.17300000000E+03 0.  1.
<mgrwt>
<rscale>  2 0.17850031E+03</rscale>
<asrwt>0</asrwt>
<pdfrwt beam="1">  1       21 0.18674429E-01 0.17850031E+03</pdfrwt>
<pdfrwt beam="2">  1       21 0.46019780E-01 0.17850031E+03</pdfrwt>
<totfact> 0.11927984E+05</totfact>
</mgrwt>
</event>
<event>
 4    1  0.4053645E-001  0.1731868E+03  0.7546771E-02  0.1174565E+00
         21   -1    0    0  503  502  0.00000000000E+00  0.00000000000E+00  0.39049165924E+02  0.39049165924E+02  0.00000000000E+00 0.  1.
         21   -1    0    0  501  503 -0.00000000000E+00 -0.00000000000E+00 -0.77192735420E+03  0.77192735420E+03  0.00000000000E+00 0.  1.
          6    1    1    2  501    0 -0.64432561978E+01 -0.48122855883E+01 -0.33788779400E+03  0.37968649565E+03  0.17300000000E+03 0. -1.
         -6    1    1    2    0  502  0.64432561978E+01  0.48122855883E+01 -0.39499039427E+03  0.43129002448E+03  0.17300000000E+03 0. -1.
<mgrwt>
<rscale>  2 0.17318682E+03</rscale>
<asrwt>0</asrwt>
<pdfrwt beam="1">  1       21 0.60075638E-02 0.17318682E+03</pdfrwt>
<pdfrwt beam="2">  1       21 0.11875806E+00 0.17318682E+03</pdfrwt>
<totfact> 0.10751062E+05</totfact>
</mgrwt>
</event>
<event>
 4    1  0.4053645E-001  0.1984288E+03  0.7546771E-02  0.1151071E+00
         21   -1    0    0  501  502  0.00000000000E+00  0.00000000000E+00  0.11816219425E+03  0.11816219425E+03  0.00000000000E+00 0.  1.
         21   -1    0    0  502  503 -0.00000000000E+00 -0.00000000000E+00 -0.48607600167E+03  0.48607600167E+03  0.00000000000E+00 0. -1.
          6    1    1    2  501    0 -0.10583923834E+02 -0.96607309343E+02 -0.14535797174E+02  0.19896050126E+03  0.17300000000E+03 0.  1.
         -6    1    1    2    0  503  0.10583923834E+02  0.96607309343E+02 -0.35337801024E+03  0.40527769466E+03  0.17300000000E+03 0. -1.
<mgrwt>
<rscale>  2 0.19842881E+03</rscale>
<asrwt>0</asrwt>
<pdfrwt beam="1">  1       21 0.18178799E-01 0.19842881E+03</pdfrwt>
<pdfrwt beam="2">  1       21 0.74780924E-01 0.19842881E+03</pdfrwt>
<totfact> 0.43986423E+04</totfact>
</mgrwt>
</event>
<event>
 4    1  0.4053645E-001  0.1788865E+03  0.7546771E-02  0.1168885E+00
         21   -1    0    0  503  502  0.00000000000E+00  0.00000000000E+00  0.81368470947E+03  0.81368470947E+03  0.00000000000E+00 0. -1.
         21   -1    0    0  501  503 -0.00000000000E+00 -0.00000000000E+00 -0.39788917081E+02  0.39788917081E+02  0.00000000000E+00 0. -1.
          6    1    1    2  501    0 -0.45499464841E+02 -0.10911787546E+01  0.34100626797E+03  0.38507877995E+03  0.17300000000E+03 0. -1.
         -6    1    1    2    0  502  0.45499464841E+02  0.10911787546E+01  0.43288952441E+03  0.46839484660E+03  0.17300000000E+03 0. -1.
<mgrwt>
<rscale>  2 0.17888653E+03</rscale>
<asrwt>0</asrwt>
<pdfrwt beam="1">  1       21 0.12518225E+00 0.17888653E+03</pdfrwt>
<pdfrwt beam="2">  1       21 0.61213725E-02 0.17888653E+03</pdfrwt>
<totfact> 0.91122472E+04</totfact>
</mgrwt>
</event>
<event>
 4    1  0.4053645E-001  0.1812619E+03  0.7546771E-02  0.1166587E+00
         21   -1    0    0  501  502  0.00000000000E+00  0.00000000000E+00  0.17206500895E+04  0.17206500895E+04  0.00000000000E+00 0. -1.
         21   -1    0    0  502  503 -0.00000000000E+00 -0.00000000000E+00 -0.21802618540E+02  0.21802618540E+02  0.00000000000E+00 0. -1.
          6    1    1    2  501    0  0.18010947280E+02  0.51014476850E+02  0.11564444869E+04  0.11705638480E+04  0.17300000000E+03 0. -1.
         -6    1    1    2    0  503 -0.18010947280E+02 -0.51014476850E+02  0.54240298408E+03  0.57188886002E+03  0.17300000000E+03 0. -1.
<mgrwt>
<rscale>  2 0.18126189E+03</rscale>
<asrwt>0</asrwt>
<pdfrwt beam="1">  1       21 0.26471529E+00 0.18126189E+03</pdfrwt>
<pdfrwt beam="2">  1       21 0.33542504E-02 0.18126189E+03</pdfrwt>
<totfact> 0.28973964E+04</totfact>
</mgrwt>
</event>
<event>
 4    1  0.4053645E-001  0.1862692E+03  0.7546771E-02  0.1161870E+00
         21   -1    0    0  503  502  0.00000000000E+00  0.00000000000E+00  0.22761526589E+03  0.22761526589E+03  0.00000000000E+00 0. -1.
         21   -1    0    0  501  503 -0.00000000000E+00 -0.00000000000E+00 -0.17896899856E+03  0.17896899856E+03  0.00000000000E+00 0. -1.
          6    1    1    2  501    0 -0.64136422449E+02 -0.25568063754E+02 -0.53955773858E+02  0.19392635742E+03  0.17300000000E+03 0. -1.
         -6    1    1    2    0  502  0.64136422449E+02  0.25568063754E+02  0.10260204119E+03  0.21265790704E+03  0.17300000000E+03 0. -1.
<mgrwt>
<rscale>  2 0.18626918E+03</rscale>
<asrwt>0</asrwt>
<pdfrwt beam="1">  1       21 0.35017733E-01 0.18626918E+03</pdfrwt>
<pdfrwt beam="2">  1       21 0.27533692E-01 0.18626918E+03</pdfrwt>
<totfact> 0.99176586E+04</totfact>
</mgrwt>
</event>
<event>
 4    1  0.4053645E-001  0.2048574E+03  0.7546771E-02  0.1145704E+00
         21   -1    0    0  503  502  0.00000000000E+00  0.00000000000E+00  0.27802090030E+02  0.27802090030E+02  0.00000000000E+00 0.  1.
         21   -1    0    0  501  503 -0.00000000000E+00 -0.00000000000E+00 -0.23492931245E+04  0.23492931245E+04  0.00000000000E+00 0.  1.
          6    1    1    2  501    0 -0.59234651330E+02 -0.92351649989E+02 -0.18713705375E+04  0.18825499356E+04  0.17300000000E+03 0.  1.
         -6    1    1    2    0  502  0.59234651330E+02  0.92351649989E+02 -0.45012049691E+03  0.49454527893E+03  0.17300000000E+03 0.  1.
<mgrwt>
<rscale>  2 0.20485744E+03</rscale>
<asrwt>0</asrwt>
<pdfrwt beam="1">  1       21 0.42772438E-02 0.20485744E+03</pdfrwt>
<pdfrwt beam="2">  1       21 0.36142978E+00 0.20485744E+03</pdfrwt>
<totfact> 0.51585609E+03</totfact>
</mgrwt>
</event>
<event>
 4    1  0.4053645E-001  0.1759996E+03  0.7546771E-02  0.1171732E+00
         21   -1    0    0  501  502  0.00000000000E+00  0.00000000000E+00  0.83687053286E+03  0.83687053286E+03  0.00000000000E+00 0.  1.
         21   -1    0    0  502  503 -0.00000000000E+00 -0.00000000000E+00 -0.37603416679E+02  0.37603416679E+02  0.00000000000E+00 0.  1.
          6    1    1    2  501    0  0.13621576846E+02 -0.29347825374E+02  0.45437941757E+03  0.48727456051E+03  0.17300000000E+03 0. -1.
         -6    1    1    2    0  503 -0.13621576846E+02  0.29347825374E+02  0.34488769861E+03  0.38719938903E+03  0.17300000000E+03 0. -1.
<mgrwt>
<rscale>  2 0.17599955E+03</rscale>
<asrwt>0</asrwt>
<pdfrwt beam="1">  1       21 0.12874930E+00 0.17599955E+03</pdfrwt>
<pdfrwt beam="2">  1       21 0.57851416E-02 0.17599955E+03</pdfrwt>
<totfact> 0.93660875E+04</totfact>
</mgrwt>
</event>
<event>
 4    1  0.4053645E-001  0.2263936E+03  0.7546771E-02  0.1129204E+00
         21   -1    0    0  501  502  0.00000000000E+00  0.00000000000E+00  0.12977320188E+03  0.12977320188E+03  0.00000000000E+00 0.  1.
         21   -1    0    0  502  503 -0.00000000000E+00 -0.00000000000E+00 -0.61577605425E+03  0.61577605425E+03  0.00000000000E+00 0. -1.
          6    1    1    2  501    0  0.60853962823E+02  0.13274735117E+03 -0.19768085635E+02  0.22725501368E+03  0.17300000000E+03 0.  1.
         -6    1    1    2    0  503 -0.60853962823E+02 -0.13274735117E+03 -0.46623476674E+03  0.51829424244E+03  0.17300000000E+03 0. -1.
<mgrwt>
<rscale>  2 0.22639360E+03</rscale>
<asrwt>0</asrwt>
<pdfrwt beam="1">  1       21 0.19965108E-01 0.22639360E+03</pdfrwt>
<pdfrwt beam="2">  1       21 0.94734778E-01 0.22639360E+03</pdfrwt>
<totfact> 0.21171983E+04</totfact>
</mgrwt>
</event>
<event>
 4    1  0.4053645E-001  0.1861003E+03  0.7546771E-02  0.1162026E+00
         21   -1    0    0  503  502  0.00000000000E+00  0.00000000000E+00  0.17904887750E+04  0.17904887750E+04  0.00000000000E+00 0. -1.
         21   -1    0    0  501  503 -0.00000000000E+00 -0.00000000000E+00 -0.20282896888E+02  0.20282896888E+02  0.00000000000E+00 0. -1.
          6    1    1    2  501    0  0.92581759484E+01 -0.67960468384E+02  0.10800065186E+04  0.10959230900E+04  0.17300000000E+03 0. -1.
         -6    1    1    2    0  502 -0.92581759484E+01  0.67960468384E+02  0.69019935952E+03  0.71484858185E+03  0.17300000000E+03 0. -1.
<mgrwt>
<rscale>  2 0.18610035E+03</rscale>
<asrwt>0</asrwt>
<pdfrwt beam="1">  1       21 0.27545969E+00 0.18610035E+03</pdfrwt>
<pdfrwt beam="2">  1       21 0.31204471E-02 0.18610035E+03</pdfrwt>
<totfact> 0.28188563E+04</totfact>
</mgrwt>
</event>
<event>
 4    1  0.4053645E-001  0.1823382E+03  0.7546771E-02  0.1165559E+00
         21   -1    0    0  503  502  0.00000000000E+00  0.00000000000E+00  0.56179538920E+03  0.56179538920E+03  0.00000000000E+00 0.  1.
         21   -1    0    0  501  503 -0.00000000000E+00 -0.00000000000E+00 -0.62796147806E+02  0.62796147806E+02  0.00000000000E+00 0.  1.
          6    1    1    2  501    0  0.51142546245E+02  0.26507849096E+02  0.17456129560E+03  0.25242597335E+03  0.17300000000E+03 0.  1.
         -6    1    1    2    0  502 -0.51142546245E+02 -0.26507849096E+02  0.32443794579E+03  0.37216556365E+03  0.17300000000E+03 0.  1.
<mgrwt>
<rscale>  2 0.18233822E+03</rscale>
<asrwt>0</asrwt>
<pdfrwt beam="1">  1       21 0.86430056E-01 0.18233822E+03</pdfrwt>
<pdfrwt beam="2">  1       21 0.96609462E-02 0.18233822E+03</pdfrwt>
<totfact> 0.99867362E+04</totfact>
</mgrwt>
</event>
<event>
 4    1  0.4053645E-001  0.2531962E+03  0.7546771E-02  0.1111301E+00
         21   -1    0    0  503  502  0.00000000000E+00  0.00000000000E+00  0.95408049758E+03  0.95408049758E+03  0.00000000000E+00 0.  1.
         21   -1    0    0  501  503 -0.00000000000E+00 -0.00000000000E+00 -0.67200556965E+02  0.67200556965E+02  0.00000000000E+00 0. -1.
          6    1    1    2  501    0  0.18463876925E+03 -0.93712976157E+01  0.43832043120E+03  0.50619472216E+03  0.17300000000E+03 0. -1.
         -6    1    1    2    0  502 -0.18463876925E+03  0.93712976157E+01  0.44855950941E+03  0.51508633239E+03  0.17300000000E+03 0. -1.
<mgrwt>
<rscale>  2 0.25319616E+03</rscale>
<asrwt>0</asrwt>
<pdfrwt beam="1">  1       21 0.14678160E+00 0.25319616E+03</pdfrwt>
<pdfrwt beam="2">  1       21 0.10338548E-01 0.25319616E+03</pdfrwt>
<totfact> 0.23361397E+04</totfact>
</mgrwt>
</event>
<event>
 4    1  0.4053645E-001  0.1752560E+03  0.7546771E-02  0.1172475E+00
         21   -1    0    0  501  502  0.00000000000E+00  0.00000000000E+00  0.15723453468E+03  0.15723453468E+03  0.00000000000E+00 0.  1.
         21   -1    0    0  502  503 -0.00000000000E+00 -0.00000000000E+00 -0.35766787907E+03  0.35766787907E+03  0.00000000000E+00 0.  1.
          6    1    1    2  501    0  0.17496836108E+02 -0.21898139562E+02  0.73222618456E+02  0.18993740981E+03  0.17300000000E+03 0.  1.
         -6    1    1    2    0  503 -0.17496836108E+02  0.21898139562E+02 -0.27365596284E+03  0.32496500394E+03  0.17300000000E+03 0.  1.
<mgrwt>
<rscale>  2 0.17525601E+03</rscale>
<asrwt>0</asrwt>
<pdfrwt beam="1">  1       21 0.24189929E-01 0.17525601E+03</pdfrwt>
<pdfrwt beam="2">  1       21 0.55025827E-01 0.17525601E+03</pdfrwt>
<totfact> 0.50674193E+04</totfact>
</mgrwt>
</event>
<event>
 4    1  0.4053645E-001  0.2423819E+03  0.7546771E-02  0.1118216E+00
         21   -1    0    0  503  502  0.00000000000E+00  0.00000000000E+00  0.59112387617E+02  0.59112387617E+02  0.00000000000E+00 0.  1.
         21   -1    0    0  501  503 -0.00000000000E+00 -0.00000000000E+00 -0.99655227207E+03  0.99655227207E+03  0.00000000000E+00 0.  1.
          6    1    1    2  501    0 -0.16924984772E+03 -0.13208916025E+02 -0.44124605525E+03  0.50343526663E+03  0.17300000000E+03 0.  1.
         -6    1    1    2    0  502  0.16924984772E+03  0.13208916025E+02 -0.49619382920E+03  0.55222939305E+03  0.17300000000E+03 0.  1.
<mgrwt>
<rscale>  2 0.24238190E+03</rscale>
<asrwt>0</asrwt>
<pdfrwt beam="1">  1       21 0.90942136E-02 0.24238190E+03</pdfrwt>
<pdfrwt beam="2">  1       21 0.15331573E+00 0.24238190E+03</pdfrwt>
<totfact> 0.26268296E+04</totfact>
</mgrwt>
</event>
<event>
 4    1  0.4053645E-001  0.1917612E+03  0.7546771E-02  0.1156882E+00
         21   -1    0    0  501  502  0.00000000000E+00  0.00000000000E+00  0.20338948748E+03  0.20338948748E+03  0.00000000000E+00 0.  1.
         21   -1    0    0  502  503 -0.00000000000E+00 -0.00000000000E+00 -0.18177448103E+03  0.18177448103E+03  0.00000000000E+00 0.  1.
          6    1    1    2  501    0  0.79898802642E+02  0.21436523867E+02  0.24924974191E+02  0.19337424223E+03  0.17300000000E+03 0.  1.
         -6    1    1    2    0  503 -0.79898802642E+02 -0.21436523867E+02 -0.33099677389E+01  0.19178972628E+03  0.17300000000E+03 0.  1.
<mgrwt>
<rscale>  2 0.19176116E+03</rscale>
<asrwt>0</asrwt>
<pdfrwt beam="1">  1       21 0.31290691E-01 0.19176116E+03</pdfrwt>
<pdfrwt beam="2">  1       21 0.27965305E-01 0.19176116E+03</pdfrwt>
<totfact> 0.11990386E+05</totfact>
</mgrwt>
</event>
<event>
 4    1  0.4053645E-001  0.1985072E+03  0.7546771E-02  0.1151005E+00
         21   -1    0    0  503  502  0.00000000000E+00  0.00000000000E+00  0.82987546009E+02  0.82987546009E+02  0.00000000000E+00 0.  1.
         21   -1    0    0  501  503 -0.00000000000E+00 -0.00000000000E+00 -0.86602394896E+03  0.86602394896E+03  0.00000000000E+00 0.  1.
          6    1    1    2  501    0  0.50210625871E+01  0.97215821704E+02 -0.71043073163E+03  0.73764283464E+03  0.17300000000E+03 0.  1.
         -6    1    1    2    0  502 -0.50210625871E+01 -0.97215821704E+02 -0.72605671320E+02  0.21136866032E+03  0.17300000000E+03 0.  1.
<mgrwt>
<rscale>  2 0.19850725E+03</rscale>
<asrwt>0</asrwt>
<pdfrwt beam="1">  1       21 0.12767315E-01 0.19850725E+03</pdfrwt>
<pdfrwt beam="2">  1       21 0.13323445E+00 0.19850725E+03</pdfrwt>
<totfact> 0.21248523E+04</totfact>
</mgrwt>
</event>
<event>
 4    1  0.4053645E-001  0.2010949E+03  0.7546771E-02  0.1148818E+00
         21   -1    0    0  501  502  0.00000000000E+00  0.00000000000E+00  0.17749030079E+04  0.17749030079E+04  0.00000000000E+00 0.  1.
         21   -1    0    0  502  503 -0.00000000000E+00 -0.00000000000E+00 -0.23338818991E+02  0.23338818991E+02  0.00000000000E+00 0.  1.
          6    1    1    2  501    0  0.80283433389E+02  0.63755362166E+02  0.10144262478E+04  0.10341662285E+04  0.17300000000E+03 0.  1.
         -6    1    1    2    0  503 -0.80283433389E+02 -0.63755362166E+02  0.73713794115E+03  0.76407559846E+03  0.17300000000E+03 0.  1.
<mgrwt>
<rscale>  2 0.20109494E+03</rscale>
<asrwt>0</asrwt>
<pdfrwt beam="1">  1       21 0.27306189E+00 0.20109494E+03</pdfrwt>
<pdfrwt beam="2">  1       21 0.35905889E-02 0.20109494E+03</pdfrwt>
<totfact> 0.22732968E+04</totfact>
</mgrwt>
</event>
<event>
 4    1  0.4053645E-001  0.1908815E+03  0.7546771E-02  0.1157669E+00
         21   -1    0    0  503  502  0.00000000000E+00  0.00000000000E+00  0.94056719354E+03  0.94056719354E+03  0.00000000000E+00 0. -1.
         21   -1    0    0  501  503 -0.00000000000E+00 -0.00000000000E+00 -0.42046531193E+02  0.42046531193E+02  0.00000000000E+00 0. -1.
          6    1    1    2  501    0 -0.55612906826E+02  0.58428921283E+02  0.31144345281E+03  0.36528448988E+03  0.17300000000E+03 0. -1.
         -6    1    1    2    0  502  0.55612906826E+02 -0.58428921283E+02  0.58707720954E+03  0.61732923485E+03  0.17300000000E+03 0. -1.
<mgrwt>
<rscale>  2 0.19088147E+03</rscale>
<asrwt>0</asrwt>
<pdfrwt beam="1">  1       21 0.14470263E+00 0.19088147E+03</pdfrwt>
<pdfrwt beam="2">  1       21 0.64686978E-02 0.19088147E+03</pdfrwt>
<totfact> 0.56972902E+04</totfact>
</mgrwt>
</event>
<event>
 4    1  0.4053645E-001  0.2458836E+03  0.7546771E-02  0.1115934E+00
         21   -1    0    0  503  502  0.00000000000E+00  0.00000000000E+00  0.18702154440E+03  0.18702154440E+03  0.00000000000E+00 0. -1.
         21   -1    0    0  501  503 -0.00000000000E+00 -0.00000000000E+00 -0.32327155633E+03  0.32327155633E+03  0.00000000000E+00 0. -1.
          6    1    1    2  501    0 -0.17369309006E+03  0.18985034250E+02 -0.68287972724E+02  0.25519006305E+03  0.17300000000E+03 0. -1.
         -6    1    1    2    0  502  0.17369309006E+03 -0.18985034250E+02 -0.67962039202E+02  0.25510303768E+03  0.17300000000E+03 0. -1.
<mgrwt>
<rscale>  2 0.24588355E+03</rscale>
<asrwt>0</asrwt>
<pdfrwt beam="1">  1       21 0.28772545E-01 0.24588355E+03</pdfrwt>
<pdfrwt beam="2">  1       21 0.49734085E-01 0.24588355E+03</pdfrwt>
<totfact> 0.43445928E+04</totfact>
</mgrwt>
</event>
<event>
 4    1  0.4053645E-001  0.2448021E+03  0.7546771E-02  0.1116635E+00
         21   -1    0    0  503  502  0.00000000000E+00  0.00000000000E+00  0.23917442594E+02  0.23917442594E+02  0.00000000000E+00 0.  1.
         21   -1    0    0  501  503 -0.00000000000E+00 -0.00000000000E+00 -0.33639927186E+04  0.33639927186E+04  0.00000000000E+00 0. -1.
          6    1    1    2  501    0  0.10747827555E+03 -0.13582158890E+03 -0.25257182105E+04  0.25375540512E+04  0.17300000000E+03 0. -1.
         -6    1    1    2    0  502 -0.10747827555E+03  0.13582158890E+03 -0.81435706551E+03  0.85035611004E+03  0.17300000000E+03 0.  1.
<mgrwt>
<rscale>  2 0.24480213E+03</rscale>
<asrwt>0</asrwt>
<pdfrwt beam="1">  1       21 0.36796049E-02 0.24480213E+03</pdfrwt>
<pdfrwt beam="2">  1       21 0.51753757E+00 0.24480213E+03</pdfrwt>
<totfact> 0.59319577E+02</totfact>
</mgrwt>
</event>
<event>
 4    1  0.4053645E-001  0.2319659E+03  0.7546771E-02  0.1125264E+00
         21   -1    0    0  501  502  0.00000000000E+00  0.00000000000E+00  0.10470058324E+04  0.10470058324E+04  0.00000000000E+00 0. -1.
         21   -1    0    0  502  503 -0.00000000000E+00 -0.00000000000E+00 -0.57535989620E+02  0.57535989620E+02  0.00000000000E+00 0. -1.
          6    1    1    2  501    0 -0.15429115432E+03  0.85682620039E+01  0.31427017967E+03  0.39060711879E+03  0.17300000000E+03 0. -1.
         -6    1    1    2    0  503  0.15429115432E+03 -0.85682620039E+01  0.67519966309E+03  0.71393470321E+03  0.17300000000E+03 0. -1.
<mgrwt>
<rscale>  2 0.23196589E+03</rscale>
<asrwt>0</asrwt>
<pdfrwt beam="1">  1       21 0.16107781E+00 0.23196589E+03</pdfrwt>
<pdfrwt beam="2">  1       21 0.88516915E-02 0.23196589E+03</pdfrwt>
<totfact> 0.24247821E+04</totfact>
</mgrwt>
</event>
<event>
 4    1  0.4053645E-001  0.1933606E+03  0.7546771E-02  0.1155465E+00
         21   -1    0    0  503  502  0.00000000000E+00  0.00000000000E+00  0.49086130756E+03  0.49086130756E+03  0.00000000000E+00 0. -1.
         21   -1    0    0  501  503 -0.00000000000E+00 -0.00000000000E+00 -0.86124744322E+02  0.86124744322E+02  0.00000000000E+00 0. -1.
          6    1    1    2  501    0 -0.76879711097E+02  0.39355293393E+02  0.30045541168E+03  0.35729789183E+03  0.17300000000E+03 0. -1.
         -6    1    1    2    0  502  0.76879711097E+02 -0.39355293393E+02  0.10428115155E+03  0.21968816005E+03  0.17300000000E+03 0. -1.
<mgrwt>
<rscale>  2 0.19336062E+03</rscale>
<asrwt>0</asrwt>
<pdfrwt beam="1">  1       21 0.75517122E-01 0.19336062E+03</pdfrwt>
<pdfrwt beam="2">  1       21 0.13249961E-01 0.19336062E+03</pdfrwt>
<totfact> 0.76882325E+04</totfact>
</mgrwt>
</event>
<event>
 4    1  0.4053645E-001  0.2088719E+03  0.7546771E-02  0.1142462E+00
         21   -1    0    0  501  502  0.00000000000E+00  0.00000000000E+00  0.21461798380E+03  0.21461798380E+03  0.00000000000E+00 0. -1.
         21   -1    0    0  502  503 -0.00000000000E+00 -0.00000000000E+00 -0.30011335390E+03  0.30011335390E+03  0.00000000000E+00 0. -1.
          6    1    1    2  501    0  0.10913183160E+03  0.42292981333E+02  0.10344356839E+03  0.23308372912E+03  0.17300000000E+03 0. -1.
         -6    1    1    2    0  503 -0.10913183160E+03 -0.42292981333E+02 -0.18893893849E+03  0.28164760858E+03  0.17300000000E+03 0. -1.
<mgrwt>
<rscale>  2 0.20887186E+03</rscale>
<asrwt>0</asrwt>
<pdfrwt beam="1">  1       21 0.33018151E-01 0.20887186E+03</pdfrwt>
<pdfrwt beam="2">  1       21 0.46171285E-01 0.20887186E+03</pdfrwt>
<totfact> 0.39363422E+04</totfact>
</mgrwt>
</event>
<event>
 4    1  0.4053645E-001  0.2577187E+03  0.7546771E-02  0.1108522E+00
         21   -1    0    0  501  502  0.00000000000E+00  0.00000000000E+00  0.28311035012E+03  0.28311035012E+03  0.00000000000E+00 0.  1.
         21   -1    0    0  502  503 -0.00000000000E+00 -0.00000000000E+00 -0.26623586586E+03  0.26623586586E+03  0.00000000000E+00 0.  1.
          6    1    1    2  501    0  0.11580467111E+03  0.15191845121E+03 -0.86239308601E+02  0.27176489106E+03  0.17300000000E+03 0.  1.
         -6    1    1    2    0  503 -0.11580467111E+03 -0.15191845121E+03  0.10311379286E+03  0.27758132492E+03  0.17300000000E+03 0.  1.
<mgrwt>
<rscale>  2 0.25771872E+03</rscale>
<asrwt>0</asrwt>
<pdfrwt beam="1">  1       21 0.43555438E-01 0.25771872E+03</pdfrwt>
<pdfrwt beam="2">  1       21 0.40959364E-01 0.25771872E+03</pdfrwt>
<totfact> 0.28159238E+04</totfact>
</mgrwt>
</event>
<event>
 4    1  0.4053645E-001  0.2051223E+03  0.7546771E-02  0.1145488E+00
         21   -1    0    0  503  502  0.00000000000E+00  0.00000000000E+00  0.16516482631E+03  0.16516482631E+03  0.00000000000E+00 0.  1.
         21   -1    0    0  501  503 -0.00000000000E+00 -0.00000000000E+00 -0.27800127384E+03  0.27800127384E+03  0.00000000000E+00 0. -1.
          6    1    1    2  501    0  0.10132706114E+03 -0.43347312289E+02 -0.12050510326E+03  0.23790048910E+03  0.17300000000E+03 0. -1.
         -6    1    1    2    0  502 -0.10132706114E+03  0.43347312289E+02  0.76686557342E+01  0.20526561106E+03  0.17300000000E+03 0.  1.
<mgrwt>
<rscale>  2 0.20512231E+03</rscale>
<asrwt>0</asrwt>
<pdfrwt beam="1">  1       21 0.25409974E-01 0.20512231E+03</pdfrwt>
<pdfrwt beam="2">  1       21 0.42769426E-01 0.20512231E+03</pdfrwt>
<totfact> 0.76789810E+04</totfact>
</mgrwt>
</event>
<event>
 4    1  0.4053645E-001  0.1734219E+03  0.7546771E-02  0.1174326E+00
         21   -1    0    0  501  502  0.00000000000E+00  0.00000000000E+00  0.18173613326E+03  0.18173613326E+03  0.00000000000E+00 0.  1.
         21   -1    0    0  502  503 -0.00000000000E+00 -0.00000000000E+00 -0.17172894833E+03  0.17172894833E+03  0.00000000000E+00 0.  1.
          6    1    1    2  501    0 -0.11783666833E+02  0.27005634188E+01  0.38695090572E+02  0.17768640320E+03  0.17300000000E+03 0.  1.
         -6    1    1    2    0  503  0.11783666833E+02 -0.27005634188E+01 -0.28687905646E+02  0.17577867839E+03  0.17300000000E+03 0.  1.
<mgrwt>
<rscale>  2 0.17342188E+03</rscale>
<asrwt>0</asrwt>
<pdfrwt beam="1">  1       21 0.27959405E-01 0.17342188E+03</pdfrwt>
<pdfrwt beam="2">  1       21 0.26419838E-01 0.17342188E+03</pdfrwt>
<totfact> 0.16748005E+05</totfact>
</mgrwt>
</event>
<event>
 4    1  0.4053645E-001  0.2029456E+03  0.7546771E-02  0.1147277E+00
         21   -1    0    0  503  502  0.00000000000E+00  0.00000000000E+00  0.13777616964E+03  0.13777616964E+03  0.00000000000E+00 0. -1.
         21   -1    0    0  501  503 -0.00000000000E+00 -0.00000000000E+00 -0.30252624069E+03  0.30252624069E+03  0.00000000000E+00 0. -1.
          6    1    1    2  501    0  0.31748098014E+02 -0.10124216932E+03 -0.58408198397E+02  0.21118341842E+03  0.17300000000E+03 0. -1.
         -6    1    1    2    0  502 -0.31748098014E+02  0.10124216932E+03 -0.10634187265E+03  0.22911899191E+03  0.17300000000E+03 0. -1.
<mgrwt>
<rscale>  2 0.20294560E+03</rscale>
<asrwt>0</asrwt>
<pdfrwt beam="1">  1       21 0.21196334E-01 0.20294560E+03</pdfrwt>
<pdfrwt beam="2">  1       21 0.46542497E-01 0.20294560E+03</pdfrwt>
<totfact> 0.91138401E+04</totfact>
</mgrwt>
</event>
<event>
 4    1  0.4053645E-001  0.1848174E+03  0.7546771E-02  0.1163221E+00
         21   -1    0    0  503  502  0.00000000000E+00  0.00000000000E+00  0.27027278837E+03  0.27027278837E+03  0.00000000000E+00 0.  1.
         21   -1    0    0  501  503 -0.00000000000E+00 -0.00000000000E+00 -0.18608758583E+03  0.18608758583E+03  0.00000000000E+00 0.  1.
          6    1    1    2  501    0 -0.33013630850E+02 -0.56022795513E+02  0.17134210802E+03  0.25202295812E+03  0.17300000000E+03 0.  1.
         -6    1    1    2    0  502  0.33013630850E+02  0.56022795513E+02 -0.87156905474E+02  0.20433741608E+03  0.17300000000E+03 0.  1.
<mgrwt>
<rscale>  2 0.18481735E+03</rscale>
<asrwt>0</asrwt>
<pdfrwt beam="1">  1       21 0.41580429E-01 0.18481735E+03</pdfrwt>
<pdfrwt beam="2">  1       21 0.28628859E-01 0.18481735E+03</pdfrwt>
<totfact> 0.65210745E+04</totfact>
</mgrwt>
</event>
<event>
 4    1  0.4053645E-001  0.2646691E+03  0.7546771E-02  0.1104370E+00
         21   -1    0    0  503  502  0.00000000000E+00  0.00000000000E+00  0.18801606869E+03  0.18801606869E+03  0.00000000000E+00 0.  1.
         21   -1    0    0  501  503 -0.00000000000E+00 -0.00000000000E+00 -0.37900969468E+03  0.37900969468E+03  0.00000000000E+00 0. -1.
          6    1    1    2  501    0 -0.11329781208E+03 -0.16517975770E+03 -0.13244325864E+03  0.29595770532E+03  0.17300000000E+03 0.  1.
         -6    1    1    2    0  502  0.11329781208E+03  0.16517975770E+03 -0.58550367352E+02  0.27106805805E+03  0.17300000000E+03 0. -1.
<mgrwt>
<rscale>  2 0.26466913E+03</rscale>
<asrwt>0</asrwt>
<pdfrwt beam="1">  1       21 0.28925550E-01 0.26466913E+03</pdfrwt>
<pdfrwt beam="2">  1       21 0.58309183E-01 0.26466913E+03</pdfrwt>
<totfact> 0.30431981E+04</totfact>
</mgrwt>
</event>
<event>
 4    1  0.4053645E-001  0.2128384E+03  0.7546771E-02  0.1139338E+00
         21   -1    0    0  501  502  0.00000000000E+00  0.00000000000E+00  0.36266167106E+03  0.36266167106E+03  0.00000000000E+00 0. -1.
         21   -1    0    0  502  503 -0.00000000000E+00 -0.00000000000E+00 -0.13934122519E+03  0.13934122519E+03  0.00000000000E+00 0. -1.
          6    1    1    2  501    0 -0.56414221256E+02  0.11040216220E+03  0.30884189831E+02  0.21506751256E+03  0.17300000000E+03 0. -1.
         -6    1    1    2    0  503  0.56414221256E+02 -0.11040216220E+03  0.19243625604E+03  0.28693538370E+03  0.17300000000E+03 0. -1.
<mgrwt>
<rscale>  2 0.21283844E+03</rscale>
<asrwt>0</asrwt>
<pdfrwt beam="1">  1       21 0.55794103E-01 0.21283844E+03</pdfrwt>
<pdfrwt beam="2">  1       21 0.21437112E-01 0.21283844E+03</pdfrwt>
<totfact> 0.60763393E+04</totfact>
</mgrwt>
</event>
<event>
 4    1  0.4053645E-001  0.1988214E+03  0.7546771E-02  0.1150737E+00
         21   -1    0    0  503  502  0.00000000000E+00  0.00000000000E+00  0.18862847090E+03  0.18862847090E+03  0.00000000000E+00 0. -1.
         21   -1    0    0  501  503 -0.00000000000E+00 -0.00000000000E+00 -0.27031091715E+03  0.27031091715E+03  0.00000000000E+00 0. -1.
          6    1    1    2  501    0  0.39587060181E+02  0.89631436244E+02 -0.14962196362E+03  0.24883058834E+03  0.17300000000E+03 0. -1.
         -6    1    1    2    0  502 -0.39587060181E+02 -0.89631436244E+02  0.67939517367E+02  0.21010879971E+03  0.17300000000E+03 0. -1.
<mgrwt>
<rscale>  2 0.19882135E+03</rscale>
<asrwt>0</asrwt>
<pdfrwt beam="1">  1       21 0.29019765E-01 0.19882135E+03</pdfrwt>
<pdfrwt beam="2">  1       21 0.41586295E-01 0.19882135E+03</pdfrwt>
<totfact> 0.63106226E+04</totfact>
</mgrwt>
</event>
<event>
 4    1  0.4053645E-001  0.1840482E+03  0.7546771E-02  0.1163942E+00
         21   -1    0    0  503  502  0.00000000000E+00  0.00000000000E+00  0.19701966628E+04  0.19701966628E+04  0.00000000000E+00 0.  1.
         21   -1    0    0  501  503 -0.00000000000E+00 -0.00000000000E+00 -0.19886967765E+02  0.19886967765E+02  0.00000000000E+00 0.  1.
          6    1    1    2  501    0  0.61911006257E+02 -0.10571299386E+02  0.60893003244E+03  0.63613639220E+03  0.17300000000E+03 0.  1.
         -6    1    1    2    0  502 -0.61911006257E+02  0.10571299386E+02  0.13413796626E+04  0.13539472383E+04  0.17300000000E+03 0.  1.
<mgrwt>
<rscale>  2 0.18404816E+03</rscale>
<asrwt>0</asrwt>
<pdfrwt beam="1">  1       21 0.30310703E+00 0.18404816E+03</pdfrwt>
<pdfrwt beam="2">  1       21 0.30595350E-02 0.18404816E+03</pdfrwt>
<totfact> 0.20242380E+04</totfact>
</mgrwt>
</event>
<event>
 4    1  0.4053645E-001  0.1947035E+03  0.7546771E-02  0.1154286E+00
         21   -1    0    0  503  502  0.00000000000E+00  0.00000000000E+00  0.44466643199E+03  0.44466643199E+03  0.00000000000E+00 0.  1.
         21   -1    0    0  501  503 -0.00000000000E+00 -0.00000000000E+00 -0.14546679759E+03  0.14546679759E+03  0.00000000000E+00 0. -1.
          6    1    1    2  501    0 -0.79474639766E+02 -0.40794904928E+02 -0.40238444874E+02  0.19881794456E+03  0.17300000000E+03 0. -1.
         -6    1    1    2    0  502  0.79474639766E+02  0.40794904928E+02  0.33943807926E+03  0.39131528502E+03  0.17300000000E+03 0.  1.
<mgrwt>
<rscale>  2 0.19470347E+03</rscale>
<asrwt>0</asrwt>
<pdfrwt beam="1">  1       21 0.68410220E-01 0.19470347E+03</pdfrwt>
<pdfrwt beam="2">  1       21 0.22379508E-01 0.19470347E+03</pdfrwt>
<totfact> 0.36388898E+04</totfact>
</mgrwt>
</event>
<event>
 4    1  0.4053645E-001  0.1995972E+03  0.7546771E-02  0.1150079E+00
         21   -1    0    0  503  502  0.00000000000E+00  0.00000000000E+00  0.48853644758E+03  0.48853644758E+03  0.00000000000E+00 0. -1.
         21   -1    0    0  501  503 -0.00000000000E+00 -0.00000000000E+00 -0.83309765442E+02  0.83309765442E+02  0.00000000000E+00 0. -1.
          6    1    1    2  501    0 -0.15976510054E+02 -0.98258830915E+02  0.24419544867E+03  0.31538938454E+03  0.17300000000E+03 0. -1.
         -6    1    1    2    0  502  0.15976510054E+02  0.98258830915E+02  0.16103123347E+03  0.25645682849E+03  0.17300000000E+03 0. -1.
<mgrwt>
<rscale>  2 0.19959721E+03</rscale>
<asrwt>0</asrwt>
<pdfrwt beam="1">  1       21 0.75159452E-01 0.19959721E+03</pdfrwt>
<pdfrwt beam="2">  1       21 0.12816887E-01 0.19959721E+03</pdfrwt>
<totfact> 0.82263437E+04</totfact>
</mgrwt>
</event>
<event>
 4    1  0.4053645E-001  0.1854920E+03  0.7546771E-02  0.1162591E+00
         21   -1    0    0  503  502  0.00000000000E+00  0.00000000000E+00  0.32124517363E+03  0.32124517363E+03  0.00000000000E+00 0. -1.
         21   -1    0    0  501  503 -0.00000000000E+00 -0.00000000000E+00 -0.10726861802E+03  0.10726861802E+03  0.00000000000E+00 0. -1.
          6    1    1    2  501    0 -0.25721758310E+02  0.61779327017E+02  0.11532983903E+03  0.21842221926E+03  0.17300000000E+03 0.  1.
         -6    1    1    2    0  502  0.25721758310E+02 -0.61779327017E+02  0.98646716571E+02  0.21009157239E+03  0.17300000000E+03 0.  1.
<mgrwt>
<rscale>  2 0.18549203E+03</rscale>
<asrwt>0</asrwt>
<pdfrwt beam="1">  1       21 0.49422334E-01 0.18549203E+03</pdfrwt>
<pdfrwt beam="2">  1       21 0.16502864E-01 0.18549203E+03</pdfrwt>
<totfact> 0.12893011E+05</totfact>
</mgrwt>
</event>
<event>
 4    1  0.4053645E-001  0.1839215E+03  0.7546771E-02  0.1164061E+00
         21   -1    0    0  501  502  0.00000000000E+00  0.00000000000E+00  0.22286243347E+03  0.22286243347E+03  0.00000000000E+00 0.  1.
         21   -1    0    0  502  503 -0.00000000000E+00 -0.00000000000E+00 -0.15599100692E+03  0.15599100692E+03  0.00000000000E+00 0.  1.
          6    1    1    2  501    0 -0.13594607473E+02  0.60937002714E+02  0.64541154665E+02  0.19491714213E+03  0.17300000000E+03 0.  1.
         -6    1    1    2    0  503  0.13594607473E+02 -0.60937002714E+02  0.23302718865E+01  0.18393629826E+03  0.17300000000E+03 0.  1.
<mgrwt>
<rscale>  2 0.18392154E+03</rscale>
<asrwt>0</asrwt>
<pdfrwt beam="1">  1       21 0.34286528E-01 0.18392154E+03</pdfrwt>
<pdfrwt beam="2">  1       21 0.23998616E-01 0.18392154E+03</pdfrwt>
<totfact> 0.13461165E+05</totfact>
</mgrwt>
</event>
<event>
 4    1  0.4053645E-001  0.1753151E+03  0.7546771E-02  0.1172416E+00
         21   -1    0    0  501  502  0.00000000000E+00  0.00000000000E+00  0.10610229356E+03  0.10610229356E+03  0.00000000000E+00 0.  1.
         21   -1    0    0  502  503 -0.00000000000E+00 -0.00000000000E+00 -0.29293909532E+03  0.29293909532E+03  0.00000000000E+00 0.  1.
          6    1    1    2  501    0  0.26912252869E+02  0.90608303357E+01 -0.72362977876E+02  0.18966224866E+03  0.17300000000E+03 0. -1.
         -6    1    1    2    0  503 -0.26912252869E+02 -0.90608303357E+01 -0.11447382389E+03  0.20937914022E+03  0.17300000000E+03 0. -1.
<mgrwt>
<rscale>  2 0.17531505E+03</rscale>
<asrwt>0</asrwt>
<pdfrwt beam="1">  1       21 0.16323430E-01 0.17531505E+03</pdfrwt>
<pdfrwt beam="2">  1       21 0.45067552E-01 0.17531505E+03</pdfrwt>
<totfact> 0.15966881E+05</totfact>
</mgrwt>
</event>
<event>
 4    1  0.4053645E-001  0.1897699E+03  0.7546771E-02  0.1158669E+00
         21   -1    0    0  503  502  0.00000000000E+00  0.00000000000E+00  0.58799114682E+03  0.58799114682E+03  0.00000000000E+00 0.  1.
         21   -1    0    0  501  503 -0.00000000000E+00 -0.00000000000E+00 -0.73152351054E+02  0.73152351054E+02  0.00000000000E+00 0. -1.
          6    1    1    2  501    0 -0.44767793311E+02 -0.63870595873E+02  0.12405947233E+03  0.22672309324E+03  0.17300000000E+03 0. -1.
         -6    1    1    2    0  502  0.44767793311E+02  0.63870595873E+02  0.39077932344E+03  0.43442040463E+03  0.17300000000E+03 0.  1.
<mgrwt>
<rscale>  2 0.18976988E+03</rscale>
<asrwt>0</asrwt>
<pdfrwt beam="1">  1       21 0.90460174E-01 0.18976988E+03</pdfrwt>
<pdfrwt beam="2">  1       21 0.11254208E-01 0.18976988E+03</pdfrwt>
<totfact> 0.68409569E+04</totfact>
</mgrwt>
</event>
<event>
 4    1  0.4053645E-001  0.1781534E+03  0.7546771E-02  0.1169602E+00
         21   -1    0    0  503  502  0.00000000000E+00  0.00000000000E+00  0.69669171595E+03  0.69669171595E+03  0.00000000000E+00 0.  1.
         21   -1    0    0  501  503 -0.00000000000E+00 -0.00000000000E+00 -0.57905606011E+02  0.57905606011E+02  0.00000000000E+00 0.  1.
          6    1    1    2  501    0 -0.81730345952E+01 -0.41747078384E+02  0.14515290031E+03  0.22979987275E+03  0.17300000000E+03 0.  1.
         -6    1    1    2    0  502  0.81730345952E+01  0.41747078384E+02  0.49363320963E+03  0.52479744921E+03  0.17300000000E+03 0.  1.
<mgrwt>
<rscale>  2 0.17815335E+03</rscale>
<asrwt>0</asrwt>
<pdfrwt beam="1">  1       21 0.10718333E+00 0.17815335E+03</pdfrwt>
<pdfrwt beam="2">  1       21 0.89085553E-02 0.17815335E+03</pdfrwt>
<totfact> 0.69617259E+04</totfact>
</mgrwt>
</event>
<event>
 4    1  0.4053645E-001  0.1797740E+03  0.7546771E-02  0.1168022E+00
         21   -1    0    0  501  502  0.00000000000E+00  0.00000000000E+00  0.95479416518E+02  0.95479416518E+02  0.00000000000E+00 0.  1.
         21   -1    0    0  502  503 -0.00000000000E+00 -0.00000000000E+00 -0.35287642045E+03  0.35287642045E+03  0.00000000000E+00 0.  1.
          6    1    1    2  501    0 -0.37037474804E+02  0.31904627731E+02 -0.83431548743E+02  0.19819057277E+03  0.17300000000E+03 0.  1.
         -6    1    1    2    0  503  0.37037474804E+02 -0.31904627731E+02 -0.17396545519E+03  0.25016526419E+03  0.17300000000E+03 0.  1.
<mgrwt>
<rscale>  2 0.17977397E+03</rscale>
<asrwt>0</asrwt>
<pdfrwt beam="1">  1       21 0.14689141E-01 0.17977397E+03</pdfrwt>
<pdfrwt beam="2">  1       21 0.54288681E-01 0.17977397E+03</pdfrwt>
<totfact> 0.13123941E+05</totfact>
</mgrwt>
</event>
<event>
 4    1  0.4053645E-001  0.1096525E+04  0.7546771E-02  0.9208586E-01
         21   -1    0    0  501  502  0.00000000000E+00  0.00000000000E+00  0.18184817683E+04  0.18184817683E+04  0.00000000000E+00 0. -1.
         21   -1    0    0  502  503 -0.00000000000E+00 -0.00000000000E+00 -0.88977666018E+03  0.88977666018E+03  0.00000000000E+00 0.  1.
          6    1    1    2  501    0 -0.38281508943E+03  0.10128623163E+04  0.11506978970E+04  0.15894880039E+04  0.17300000000E+03 0. -1.
         -6    1    1    2    0  503  0.38281508943E+03 -0.10128623163E+04 -0.22199278885E+03  0.11187704245E+04  0.17300000000E+03 0.  1.
<mgrwt>
<rscale>  2 0.10965247E+04</rscale>
<asrwt>0</asrwt>
<pdfrwt beam="1">  1       21 0.27976642E+00 0.10965247E+04</pdfrwt>
<pdfrwt beam="2">  1       21 0.13688872E+00 0.10965247E+04</pdfrwt>
<totfact> 0.94139085E+00</totfact>
</mgrwt>
</event>
<event>
 4    1  0.4053645E-001  0.1850348E+03  0.7546771E-02  0.1163017E+00
         21   -1    0    0  503  502  0.00000000000E+00  0.00000000000E+00  0.18913028329E+03  0.18913028329E+03  0.00000000000E+00 0.  1.
         21   -1    0    0  501  503 -0.00000000000E+00 -0.00000000000E+00 -0.19454459139E+03  0.19454459139E+03  0.00000000000E+00 0.  1.
          6    1    1    2  501    0  0.11781948174E+02  0.64576134068E+02  0.47858560321E+02  0.19112386871E+03  0.17300000000E+03 0.  1.
         -6    1    1    2    0  502 -0.11781948174E+02 -0.64576134068E+02 -0.53272868421E+02  0.19255100598E+03  0.17300000000E+03 0.  1.
<mgrwt>
<rscale>  2 0.18503484E+03</rscale>
<asrwt>0</asrwt>
<pdfrwt beam="1">  1       21 0.29096967E-01 0.18503484E+03</pdfrwt>
<pdfrwt beam="2">  1       21 0.29929937E-01 0.18503484E+03</pdfrwt>
<totfact> 0.12138323E+05</totfact>
</mgrwt>
</event>
<event>
 4    1  0.4053645E-001  0.1872048E+03  0.7546771E-02  0.1161007E+00
         21   -1    0    0  501  502  0.00000000000E+00  0.00000000000E+00  0.21816998046E+03  0.21816998046E+03  0.00000000000E+00 0. -1.
         21   -1    0    0  502  503 -0.00000000000E+00 -0.00000000000E+00 -0.18111523845E+03  0.18111523845E+03  0.00000000000E+00 0. -1.
          6    1    1    2  501    0  0.71455364152E+02 -0.32827593883E+01  0.85662152982E+02  0.20587289775E+03  0.17300000000E+03 0. -1.
         -6    1    1    2    0  503 -0.71455364152E+02  0.32827593883E+01 -0.48607410969E+02  0.19341232116E+03  0.17300000000E+03 0. -1.
<mgrwt>
<rscale>  2 0.18720482E+03</rscale>
<asrwt>0</asrwt>
<pdfrwt beam="1">  1       21 0.33564612E-01 0.18720482E+03</pdfrwt>
<pdfrwt beam="2">  1       21 0.27863883E-01 0.18720482E+03</pdfrwt>
<totfact> 0.10536144E+05</totfact>
</mgrwt>
</event>
<event>
 4    1  0.4053645E-001  0.2196605E+03  0.7546771E-02  0.1134136E+00
         21   -1    0    0  503  502  0.00000000000E+00  0.00000000000E+00  0.10055880950E+04  0.10055880950E+04  0.00000000000E+00 0. -1.
         21   -1    0    0  501  503 -0.00000000000E+00 -0.00000000000E+00 -0.49428325685E+02  0.49428325685E+02  0.00000000000E+00 0. -1.
          6    1    1    2  501    0 -0.13290807600E+03 -0.25635382123E+02  0.38786369137E+03  0.44574541228E+03  0.17300000000E+03 0.  1.
         -6    1    1    2    0  502  0.13290807600E+03  0.25635382123E+02  0.56829607798E+03  0.60927100845E+03  0.17300000000E+03 0.  1.
<mgrwt>
<rscale>  2 0.21966049E+03</rscale>
<asrwt>0</asrwt>
<pdfrwt beam="1">  1       21 0.15470585E+00 0.21966049E+03</pdfrwt>
<pdfrwt beam="2">  1       21 0.76043585E-02 0.21966049E+03</pdfrwt>
<totfact> 0.35525763E+04</totfact>
</mgrwt>
</event>
<event>
 4    1  0.4053645E-001  0.1812308E+03  0.7546771E-02  0.1166617E+00
         21   -1    0    0  501  502  0.00000000000E+00  0.00000000000E+00  0.33346576779E+03  0.33346576779E+03  0.00000000000E+00 0.  1.
         21   -1    0    0  502  503 -0.00000000000E+00 -0.00000000000E+00 -0.10208233126E+03  0.10208233126E+03  0.00000000000E+00 0. -1.
          6    1    1    2  501    0 -0.43044627321E+02  0.32599916530E+02  0.15651779882E+03  0.23946276505E+03  0.17300000000E+03 0.  1.
         -6    1    1    2    0  503  0.43044627321E+02 -0.32599916530E+02  0.74865637708E+02  0.19608533400E+03  0.17300000000E+03 0. -1.
<mgrwt>
<rscale>  2 0.18123078E+03</rscale>
<asrwt>0</asrwt>
<pdfrwt beam="1">  1       21 0.51302425E-01 0.18123078E+03</pdfrwt>
<pdfrwt beam="2">  1       21 0.15704974E-01 0.18123078E+03</pdfrwt>
<totfact> 0.13078524E+05</totfact>
</mgrwt>
</event>
<event>
 4    1  0.4053645E-001  0.1744462E+03  0.7546771E-02  0.1173289E+00
         21   -1    0    0  501  502  0.00000000000E+00  0.00000000000E+00  0.25278483457E+03  0.25278483457E+03  0.00000000000E+00 0. -1.
         21   -1    0    0  502  503 -0.00000000000E+00 -0.00000000000E+00 -0.13223075201E+03  0.13223075201E+03  0.00000000000E+00 0. -1.
          6    1    1    2  501    0 -0.22315836357E+02  0.21140590069E+01  0.11789608520E+03  0.21054916933E+03  0.17300000000E+03 0.  1.
         -6    1    1    2    0  503  0.22315836357E+02 -0.21140590069E+01  0.26579973551E+01  0.17446641725E+03  0.17300000000E+03 0.  1.
<mgrwt>
<rscale>  2 0.17444617E+03</rscale>
<asrwt>0</asrwt>
<pdfrwt beam="1">  1       21 0.38889975E-01 0.17444617E+03</pdfrwt>
<pdfrwt beam="2">  1       21 0.20343193E-01 0.17444617E+03</pdfrwt>
<totfact> 0.14341432E+05</totfact>
</mgrwt>
</event>
<event>
 4    1  0.4053645E-001  0.1742279E+03  0.7546771E-02  0.1173509E+00
         21   -1    0    0  503  502  0.00000000000E+00  0.00000000000E+00  0.10023934295E+04  0.10023934295E+04  0.00000000000E+00 0.  1.
         21   -1    0    0  501  503 -0.00000000000E+00 -0.00000000000E+00 -0.30529211084E+02  0.30529211084E+02  0.00000000000E+00 0.  1.
          6    1    1    2  501    0 -0.16435336989E+02  0.12500099769E+02  0.53232252987E+03  0.56010949698E+03  0.17300000000E+03 0. -1.
         -6    1    1    2    0  502  0.16435336989E+02 -0.12500099769E+02  0.43954168851E+03  0.47281314357E+03  0.17300000000E+03 0. -1.
<mgrwt>
<rscale>  2 0.17422793E+03</rscale>
<asrwt>0</asrwt>
<pdfrwt beam="1">  1       21 0.15421435E+00 0.17422793E+03</pdfrwt>
<pdfrwt beam="2">  1       21 0.46968025E-02 0.17422793E+03</pdfrwt>
<totfact> 0.83858232E+04</totfact>
</mgrwt>
</event>
<event>
 4    1  0.4053645E-001  0.2011768E+03  0.7546771E-02  0.1148750E+00
         21   -1    0    0  501  502  0.00000000000E+00  0.00000000000E+00  0.13478282741E+03  0.13478282741E+03  0.00000000000E+00 0.  1.
         21   -1    0    0  502  503 -0.00000000000E+00 -0.00000000000E+00 -0.30432360219E+03  0.30432360219E+03  0.00000000000E+00 0.  1.
          6    1    1    2  501    0  0.59969103272E+02 -0.83347542836E+02 -0.59451313131E+02  0.20977741746E+03  0.17300000000E+03 0. -1.
         -6    1    1    2    0  503 -0.59969103272E+02  0.83347542836E+02 -0.11008946165E+03  0.22932901214E+03  0.17300000000E+03 0. -1.
<mgrwt>
<rscale>  2 0.20117680E+03</rscale>
<asrwt>0</asrwt>
<pdfrwt beam="1">  1       21 0.20735820E-01 0.20117680E+03</pdfrwt>
<pdfrwt beam="2">  1       21 0.46819015E-01 0.20117680E+03</pdfrwt>
<totfact> 0.93890356E+04</totfact>
</mgrwt>
</event>
<event>
 4    1  0.4053645E-001  0.2339727E+03  0.7546771E-02  0.1123874E+00
         21   -1    0    0  501  502  0.00000000000E+00  0.00000000000E+00  0.43372864561E+02  0.43372864561E+02  0.00000000000E+00 0.  1.
         21   -1    0    0  502  503 -0.00000000000E+00 -0.00000000000E+00 -0.12665050519E+04  0.12665050519E+04  0.00000000000E+00 0.  1.
          6    1    1    2  501    0 -0.15695923532E+03  0.13342546878E+02 -0.64995496041E+03  0.69078554970E+03  0.17300000000E+03 0.  1.
         -6    1    1    2    0  503  0.15695923532E+03 -0.13342546878E+02 -0.57317722690E+03  0.61909236673E+03  0.17300000000E+03 0.  1.
<mgrwt>
<rscale>  2 0.23397270E+03</rscale>
<asrwt>0</asrwt>
<pdfrwt beam="1">  1       21 0.66727483E-02 0.23397270E+03</pdfrwt>
<pdfrwt beam="2">  1       21 0.19484693E+00 0.23397270E+03</pdfrwt>
<totfact> 0.23148903E+04</totfact>
</mgrwt>
</event>
<event>
 4    1  0.4053645E-001  0.1764240E+03  0.7546771E-02  0.1171309E+00
         21   -1    0    0  503  502  0.00000000000E+00  0.00000000000E+00  0.11369301365E+03  0.11369301365E+03  0.00000000000E+00 0.  1.
         21   -1    0    0  501  503 -0.00000000000E+00 -0.00000000000E+00 -0.27600577833E+03  0.27600577833E+03  0.00000000000E+00 0.  1.
          6    1    1    2  501    0 -0.28008847704E+02  0.20296548118E+02 -0.98703376766E+02  0.20215786406E+03  0.17300000000E+03 0.  1.
         -6    1    1    2    0  502  0.28008847704E+02 -0.20296548118E+02 -0.63609387921E+02  0.18754092792E+03  0.17300000000E+03 0.  1.
<mgrwt>
<rscale>  2 0.17642405E+03</rscale>
<asrwt>0</asrwt>
<pdfrwt beam="1">  1       21 0.17491233E-01 0.17642405E+03</pdfrwt>
<pdfrwt beam="2">  1       21 0.42462428E-01 0.17642405E+03</pdfrwt>
<totfact> 0.15877207E+05</totfact>
</mgrwt>
</event>
<event>
 4    1  0.4053645E-001  0.1956966E+03  0.7546771E-02  0.1153421E+00
         21   -1    0    0  503  502  0.00000000000E+00  0.00000000000E+00  0.10773075864E+03  0.10773075864E+03  0.00000000000E+00 0.  1.
         21   -1    0    0  501  503 -0.00000000000E+00 -0.00000000000E+00 -0.35769601283E+03  0.35769601283E+03  0.00000000000E+00 0.  1.
          6    1    1    2  501    0  0.90404194766E+02  0.13972959979E+02 -0.10670542299E+03  0.22289730671E+03  0.17300000000E+03 0.  1.
         -6    1    1    2    0  502 -0.90404194766E+02 -0.13972959979E+02 -0.14325983120E+03  0.24252946476E+03  0.17300000000E+03 0.  1.
<mgrwt>
<rscale>  2 0.19569661E+03</rscale>
<asrwt>0</asrwt>
<pdfrwt beam="1">  1       21 0.16573963E-01 0.19569661E+03</pdfrwt>
<pdfrwt beam="2">  1       21 0.55030156E-01 0.19569661E+03</pdfrwt>
<totfact> 0.10171587E+05</totfact>
</mgrwt>
</event>
<event>
 4    1  0.4053645E-001  0.1863469E+03  0.7546771E-02  0.1161798E+00
         21   -1    0    0  503  502  0.00000000000E+00  0.00000000000E+00  0.31202692775E+02  0.31202692775E+02  0.00000000000E+00 0.  1.
         21   -1    0    0  501  503 -0.00000000000E+00 -0.00000000000E+00 -0.11243649266E+04  0.11243649266E+04  0.00000000000E+00 0.  1.
          6    1    1    2  501    0  0.59009066840E+02 -0.36250486654E+02 -0.60495046857E+03  0.63300097723E+03  0.17300000000E+03 0.  1.
         -6    1    1    2    0  502 -0.59009066840E+02  0.36250486654E+02 -0.48821176529E+03  0.52256664218E+03  0.17300000000E+03 0.  1.
<mgrwt>
<rscale>  2 0.18634690E+03</rscale>
<asrwt>0</asrwt>
<pdfrwt beam="1">  1       21 0.48004132E-02 0.18634690E+03</pdfrwt>
<pdfrwt beam="2">  1       21 0.17297926E+00 0.18634690E+03</pdfrwt>
<totfact> 0.58831870E+04</totfact>
</mgrwt>
</event>
<event>
 4    1  0.4053645E-001  0.2233801E+03  0.7546771E-02  0.1131388E+00
         21   -1    0    0  503  502  0.00000000000E+00  0.00000000000E+00  0.10632419570E+03  0.10632419570E+03  0.00000000000E+00 0.  1.
         21   -1    0    0  501  503 -0.00000000000E+00 -0.00000000000E+00 -0.52017258755E+03  0.52017258755E+03  0.00000000000E+00 0. -1.
          6    1    1    2  501    0 -0.14124838148E+03  0.43062824862E+01 -0.30487968031E+03  0.37795537939E+03  0.17300000000E+03 0.  1.
         -6    1    1    2    0  502  0.14124838148E+03 -0.43062824862E+01 -0.10896871153E+03  0.24854140386E+03  0.17300000000E+03 0. -1.
<mgrwt>
<rscale>  2 0.22338006E+03</rscale>
<asrwt>0</asrwt>
<pdfrwt beam="1">  1       21 0.16357568E-01 0.22338006E+03</pdfrwt>
<pdfrwt beam="2">  1       21 0.80026555E-01 0.22338006E+03</pdfrwt>
<totfact> 0.45326475E+04</totfact>
</mgrwt>
</event>
<event>
 4    1  0.4053645E-001  0.2351477E+03  0.7546771E-02  0.1123068E+00
         21   -1    0    0  501  502  0.00000000000E+00  0.00000000000E+00  0.22044436544E+04  0.22044436544E+04  0.00000000000E+00 0.  1.
         21   -1    0    0  502  503 -0.00000000000E+00 -0.00000000000E+00 -0.45552228913E+02  0.45552228913E+02  0.00000000000E+00 0. -1.
          6    1    1    2  501    0 -0.23548513617E+02  0.15751476136E+03  0.18335750937E+04  0.18485919119E+04  0.17300000000E+03 0.  1.
         -6    1    1    2    0  503  0.23548513617E+02 -0.15751476136E+03  0.32531633185E+03  0.40140397147E+03  0.17300000000E+03 0. -1.
<mgrwt>
<rscale>  2 0.23514768E+03</rscale>
<asrwt>0</asrwt>
<pdfrwt beam="1">  1       21 0.33914509E+00 0.23514768E+03</pdfrwt>
<pdfrwt beam="2">  1       21 0.70080370E-02 0.23514768E+03</pdfrwt>
<totfact> 0.29056419E+03</totfact>
</mgrwt>
</event>
<event>
 4    1  0.4053645E-001  0.1874214E+03  0.7546771E-02  0.1160808E+00
         21   -1    0    0  501  502  0.00000000000E+00  0.00000000000E+00  0.23723616517E+03  0.23723616517E+03  0.00000000000E+00 0.  1.
         21   -1    0    0  502  503 -0.00000000000E+00 -0.00000000000E+00 -0.16064741230E+03  0.16064741230E+03  0.00000000000E+00 0.  1.
          6    1    1    2  501    0  0.24885847386E+02 -0.67664572397E+02  0.93966789441E+02  0.20965819153E+03  0.17300000000E+03 0. -1.
         -6    1    1    2    0  503 -0.24885847386E+02  0.67664572397E+02 -0.17378036577E+02  0.18822538594E+03  0.17300000000E+03 0. -1.
<mgrwt>
<rscale>  2 0.18742145E+03</rscale>
<asrwt>0</asrwt>
<pdfrwt beam="1">  1       21 0.36497872E-01 0.18742145E+03</pdfrwt>
<pdfrwt beam="2">  1       21 0.24714986E-01 0.18742145E+03</pdfrwt>
<totfact> 0.11229554E+05</totfact>
</mgrwt>
</event>
<event>
 4    1  0.4053645E-001  0.1958604E+03  0.7546771E-02  0.1153279E+00
         21   -1    0    0  501  502  0.00000000000E+00  0.00000000000E+00  0.50614175334E+02  0.50614175334E+02  0.00000000000E+00 0. -1.
         21   -1    0    0  502  503 -0.00000000000E+00 -0.00000000000E+00 -0.10751328474E+04  0.10751328474E+04  0.00000000000E+00 0.  1.
          6    1    1    2  501    0  0.44042198827E+02 -0.80576537586E+02 -0.20651539216E+03  0.28462238296E+03  0.17300000000E+03 0. -1.
         -6    1    1    2    0  503 -0.44042198827E+02  0.80576537586E+02 -0.81800327992E+03  0.84112463978E+03  0.17300000000E+03 0.  1.
<mgrwt>
<rscale>  2 0.19586039E+03</rscale>
<asrwt>0</asrwt>
<pdfrwt beam="1">  1       21 0.77867955E-02 0.19586039E+03</pdfrwt>
<pdfrwt beam="2">  1       21 0.16540507E+00 0.19586039E+03</pdfrwt>
<totfact> 0.28868989E+04</totfact>
</mgrwt>
</event>
<event>
 4    1  0.4053645E-001  0.1854070E+03  0.7546771E-02  0.1162670E+00
         21   -1    0    0  501  502  0.00000000000E+00  0.00000000000E+00  0.18597045723E+03  0.18597045723E+03  0.00000000000E+00 0. -1.
         21   -1    0    0  502  503 -0.00000000000E+00 -0.00000000000E+00 -0.18526696297E+03  0.18526696297E+03  0.00000000000E+00 0.  1.
          6    1    1    2  501    0  0.48879831133E+02 -0.45359887585E+02 -0.85040306789E+01  0.18560192841E+03  0.17300000000E+03 0.  1.
         -6    1    1    2    0  503 -0.48879831133E+02  0.45359887585E+02  0.92075249359E+01  0.18563549178E+03  0.17300000000E+03 0. -1.
<mgrwt>
<rscale>  2 0.18540700E+03</rscale>
<asrwt>0</asrwt>
<pdfrwt beam="1">  1       21 0.28610840E-01 0.18540700E+03</pdfrwt>
<pdfrwt beam="2">  1       21 0.28502609E-01 0.18540700E+03</pdfrwt>
<totfact> 0.13787377E+05</totfact>
</mgrwt>
</event>
<event>
 4    1  0.4053645E-001  0.1949642E+03  0.7546771E-02  0.1154059E+00
         21   -1    0    0  501  502  0.00000000000E+00  0.00000000000E+00  0.65392909160E+03  0.65392909160E+03  0.00000000000E+00 0. -1.
         21   -1    0    0  502  503 -0.00000000000E+00 -0.00000000000E+00 -0.66358965608E+02  0.66358965608E+02  0.00000000000E+00 0. -1.
          6    1    1    2  501    0 -0.79037519906E+02 -0.42838394032E+02  0.42063004672E+03  0.46361696880E+03  0.17300000000E+03 0. -1.
         -6    1    1    2    0  503  0.79037519906E+02  0.42838394032E+02  0.16694007927E+03  0.25667108840E+03  0.17300000000E+03 0. -1.
<mgrwt>
<rscale>  2 0.19496425E+03</rscale>
<asrwt>0</asrwt>
<pdfrwt beam="1">  1       21 0.10060447E+00 0.19496425E+03</pdfrwt>
<pdfrwt beam="2">  1       21 0.10209072E-01 0.19496425E+03</pdfrwt>
<totfact> 0.63241791E+04</totfact>
</mgrwt>
</event>
<event>
 4    1  0.4053645E-001  0.1775700E+03  0.7546771E-02  0.1170176E+00
         21   -1    0    0  501  502  0.00000000000E+00  0.00000000000E+00  0.80331584591E+02  0.80331584591E+02  0.00000000000E+00 0.  1.
         21   -1    0    0  502  503 -0.00000000000E+00 -0.00000000000E+00 -0.39339419028E+03  0.39339419028E+03  0.00000000000E+00 0.  1.
          6    1    1    2  501    0  0.39656287444E+02  0.54295955918E+01 -0.14531389157E+03  0.22944983924E+03  0.17300000000E+03 0.  1.
         -6    1    1    2    0  503 -0.39656287444E+02 -0.54295955918E+01 -0.16774871412E+03  0.24427593563E+03  0.17300000000E+03 0.  1.
<mgrwt>
<rscale>  2 0.17756999E+03</rscale>
<asrwt>0</asrwt>
<pdfrwt beam="1">  1       21 0.12358705E-01 0.17756999E+03</pdfrwt>
<pdfrwt beam="2">  1       21 0.60522183E-01 0.17756999E+03</pdfrwt>
<totfact> 0.14230741E+05</totfact>
</mgrwt>
</event>
<event>
 4    1  0.4053645E-001  0.1802676E+03  0.7546771E-02  0.1167544E+00
         21   -1    0    0  501  502  0.00000000000E+00  0.00000000000E+00  0.13685119418E+03  0.13685119418E+03  0.00000000000E+00 0. -1.
         21   -1    0    0  502  503 -0.00000000000E+00 -0.00000000000E+00 -0.31491058132E+03  0.31491058132E+03  0.00000000000E+00 0. -1.
          6    1    1    2  501    0  0.12327322061E+02 -0.49147206502E+02  0.22992432058E+02  0.18172799099E+03  0.17300000000E+03 0. -1.
         -6    1    1    2    0  503 -0.12327322061E+02  0.49147206502E+02 -0.20105181920E+03  0.27003378452E+03  0.17300000000E+03 0. -1.
<mgrwt>
<rscale>  2 0.18026761E+03</rscale>
<asrwt>0</asrwt>
<pdfrwt beam="1">  1       21 0.21054030E-01 0.18026761E+03</pdfrwt>
<pdfrwt beam="2">  1       21 0.48447782E-01 0.18026761E+03</pdfrwt>
<totfact> 0.85731141E+04</totfact>
</mgrwt>
</event>
<event>
 4    1  0.4053645E-001  0.2001671E+03  0.7546771E-02  0.1149598E+00
         21   -1    0    0  501  502  0.00000000000E+00  0.00000000000E+00  0.29372240645E+03  0.29372240645E+03  0.00000000000E+00 0.  1.
         21   -1    0    0  502  503 -0.00000000000E+00 -0.00000000000E+00 -0.14072652873E+03  0.14072652873E+03  0.00000000000E+00 0.  1.
          6    1    1    2  501    0 -0.97559511270E+02  0.24900222363E+02  0.38456861079E+02  0.20382789180E+03  0.17300000000E+03 0.  1.
         -6    1    1    2    0  503  0.97559511270E+02 -0.24900222363E+02  0.11453901664E+03  0.23062104337E+03  0.17300000000E+03 0.  1.
<mgrwt>
<rscale>  2 0.20016713E+03</rscale>
<asrwt>0</asrwt>
<pdfrwt beam="1">  1       21 0.45188062E-01 0.20016713E+03</pdfrwt>
<pdfrwt beam="2">  1       21 0.21650235E-01 0.20016713E+03</pdfrwt>
<totfact> 0.93180355E+04</totfact>
</mgrwt>
</event>
<event>
 4    1  0.4053645E-001  0.2053219E+03  0.7546771E-02  0.1145325E+00
         21   -1    0    0  501  502  0.00000000000E+00  0.00000000000E+00  0.12666235453E+03  0.12666235453E+03  0.00000000000E+00 0.  1.
         21   -1    0    0  502  503 -0.00000000000E+00 -0.00000000000E+00 -0.33387590743E+03  0.33387590743E+03  0.00000000000E+00 0.  1.
          6    1    1    2  501    0  0.36306474264E+02  0.10445050628E+03 -0.11649310947E+03  0.23606717876E+03  0.17300000000E+03 0.  1.
         -6    1    1    2    0  503 -0.36306474264E+02 -0.10445050628E+03 -0.90720443431E+02  0.22447108320E+03  0.17300000000E+03 0.  1.
<mgrwt>
<rscale>  2 0.20532187E+03</rscale>
<asrwt>0</asrwt>
<pdfrwt beam="1">  1       21 0.19486516E-01 0.20532187E+03</pdfrwt>
<pdfrwt beam="2">  1       21 0.51365524E-01 0.20532187E+03</pdfrwt>
<totfact> 0.86810164E+04</totfact>
</mgrwt>
</event>
<event>
 4    1  0.4053645E-001  0.1769410E+03  0.7546771E-02  0.1170797E+00
         21   -1    0    0  503  502  0.00000000000E+00  0.00000000000E+00  0.72992614768E+03  0.72992614768E+03  0.00000000000E+00 0. -1.
         21   -1    0    0  501  503 -0.00000000000E+00 -0.00000000000E+00 -0.51470926590E+02  0.51470926590E+02  0.00000000000E+00 0. -1.
          6    1    1    2  501    0  0.34275992384E+02  0.14292840183E+02  0.17972326099E+03  0.25220741360E+03  0.17300000000E+03 0. -1.
         -6    1    1    2    0  502 -0.34275992384E+02 -0.14292840183E+02  0.49873196010E+03  0.52918966067E+03  0.17300000000E+03 0. -1.
<mgrwt>
<rscale>  2 0.17694103E+03</rscale>
<asrwt>0</asrwt>
<pdfrwt beam="1">  1       21 0.11229632E+00 0.17694103E+03</pdfrwt>
<pdfrwt beam="2">  1       21 0.79186046E-02 0.17694103E+03</pdfrwt>
<totfact> 0.76434828E+04</totfact>
</mgrwt>
</event>
<event>
 4    1  0.4053645E-001  0.1920749E+03  0.7546771E-02  0.1156603E+00
         21   -1    0    0  503  502  0.00000000000E+00  0.00000000000E+00  0.46399463039E+02  0.46399463039E+02  0.00000000000E+00 0.  1.
         21   -1    0    0  501  503 -0.00000000000E+00 -0.00000000000E+00 -0.79607492433E+03  0.79607492433E+03  0.00000000000E+00 0.  1.
          6    1    1    2  501    0  0.58391645000E+02 -0.59617023579E+02 -0.36018808560E+03  0.40820121351E+03  0.17300000000E+03 0.  1.
         -6    1    1    2    0  502 -0.58391645000E+02  0.59617023579E+02 -0.38948737569E+03  0.43427317385E+03  0.17300000000E+03 0.  1.
<mgrwt>
<rscale>  2 0.19207492E+03</rscale>
<asrwt>0</asrwt>
<pdfrwt beam="1">  1       21 0.71383796E-02 0.19207492E+03</pdfrwt>
<pdfrwt beam="2">  1       21 0.12247305E+00 0.19207492E+03</pdfrwt>
<totfact> 0.73430422E+04</totfact>
</mgrwt>
</event>
<event>
 4    1  0.4053645E-001  0.2240753E+03  0.7546771E-02  0.1130881E+00
         21   -1    0    0  503  502  0.00000000000E+00  0.00000000000E+00  0.20022452339E+03  0.20022452339E+03  0.00000000000E+00 0. -1.
         21   -1    0    0  501  503 -0.00000000000E+00 -0.00000000000E+00 -0.44168242250E+03  0.44168242250E+03  0.00000000000E+00 0. -1.
          6    1    1    2  501    0 -0.14189598727E+03 -0.12094890146E+02 -0.33174098082E+03  0.40032716111E+03  0.17300000000E+03 0. -1.
         -6    1    1    2    0  502  0.14189598727E+03  0.12094890146E+02  0.90283081708E+02  0.24157978478E+03  0.17300000000E+03 0. -1.
<mgrwt>
<rscale>  2 0.22407534E+03</rscale>
<asrwt>0</asrwt>
<pdfrwt beam="1">  1       21 0.30803773E-01 0.22407534E+03</pdfrwt>
<pdfrwt beam="2">  1       21 0.67951141E-01 0.22407534E+03</pdfrwt>
<totfact> 0.19654357E+04</totfact>
</mgrwt>
</event>
<event>
 4    1  0.4053645E-001  0.2144370E+03  0.7546771E-02  0.1138100E+00
         21   -1    0    0  501  502  0.00000000000E+00  0.00000000000E+00  0.12426676386E+03  0.12426676386E+03  0.00000000000E+00 0. -1.
         21   -1    0    0  502  503 -0.00000000000E+00 -0.00000000000E+00 -0.37979419889E+03  0.37979419889E+03  0.00000000000E+00 0.  1.
          6    1    1    2  501    0 -0.20262741755E+01 -0.12668909176E+03 -0.87366282189E+02  0.23155150404E+03  0.17300000000E+03 0. -1.
         -6    1    1    2    0  503  0.20262741755E+01  0.12668909176E+03 -0.16816115285E+03  0.27250945871E+03  0.17300000000E+03 0. -1.
<mgrwt>
<rscale>  2 0.21443701E+03</rscale>
<asrwt>0</asrwt>
<pdfrwt beam="1">  1       21 0.19117964E-01 0.21443701E+03</pdfrwt>
<pdfrwt beam="2">  1       21 0.58429877E-01 0.21443701E+03</pdfrwt>
<totfact> 0.68197011E+04</totfact>
</mgrwt>
</event>
<event>
 4    1  0.4053645E-001  0.1934106E+03  0.7546771E-02  0.1155421E+00
         21   -1    0    0  501  502  0.00000000000E+00  0.00000000000E+00  0.23241169817E+03  0.23241169817E+03  0.00000000000E+00 0. -1.
         21   -1    0    0  502  503 -0.00000000000E+00 -0.00000000000E+00 -0.25793995134E+03  0.25793995134E+03  0.00000000000E+00 0. -1.
          6    1    1    2  501    0  0.86373841957E+02 -0.42687524892E+01  0.13757501821E+03  0.23734900138E+03  0.17300000000E+03 0. -1.
         -6    1    1    2    0  503 -0.86373841957E+02  0.42687524892E+01 -0.16310327138E+03  0.25300264812E+03  0.17300000000E+03 0. -1.
<mgrwt>
<rscale>  2 0.19341061E+03</rscale>
<asrwt>0</asrwt>
<pdfrwt beam="1">  1       21 0.35755646E-01 0.19341061E+03</pdfrwt>
<pdfrwt beam="2">  1       21 0.39683069E-01 0.19341061E+03</pdfrwt>
<totfact> 0.46153053E+04</totfact>
</mgrwt>
</event>
<event>
 4    1  0.4053645E-001  0.2735019E+03  0.7546771E-02  0.1099292E+00
         21   -1    0    0  503  502  0.00000000000E+00  0.00000000000E+00  0.37392126856E+03  0.37392126856E+03  0.00000000000E+00 0.  1.
         21   -1    0    0  501  503 -0.00000000000E+00 -0.00000000000E+00 -0.20684972583E+03  0.20684972583E+03  0.00000000000E+00 0. -1.
          6    1    1    2  501    0 -0.14779040660E+03 -0.15176396117E+03  0.13618146808E+03  0.30553018909E+03  0.17300000000E+03 0.  1.
         -6    1    1    2    0  502  0.14779040660E+03  0.15176396117E+03  0.30890074645E+02  0.27524080531E+03  0.17300000000E+03 0. -1.
<mgrwt>
<rscale>  2 0.27350193E+03</rscale>
<asrwt>0</asrwt>
<pdfrwt beam="1">  1       21 0.57526349E-01 0.27350193E+03</pdfrwt>
<pdfrwt beam="2">  1       21 0.31823035E-01 0.27350193E+03</pdfrwt>
<totfact> 0.25870565E+04</totfact>
</mgrwt>
</event>
<event>
 4    1  0.4053645E-001  0.1848280E+03  0.7546771E-02  0.1163211E+00
         21   -1    0    0  501  502  0.00000000000E+00  0.00000000000E+00  0.55425082951E+03  0.55425082951E+03  0.00000000000E+00 0. -1.
         21   -1    0    0  502  503 -0.00000000000E+00 -0.00000000000E+00 -0.10350140730E+03  0.10350140730E+03  0.00000000000E+00 0. -1.
          6    1    1    2  501    0  0.14724740468E+02 -0.63368460156E+02  0.43454059134E+03  0.47221489308E+03  0.17300000000E+03 0. -1.
         -6    1    1    2    0  503 -0.14724740468E+02  0.63368460156E+02  0.16208830872E+02  0.18553734374E+03  0.17300000000E+03 0. -1.
<mgrwt>
<rscale>  2 0.18482797E+03</rscale>
<asrwt>0</asrwt>
<pdfrwt beam="1">  1       21 0.85269357E-01 0.18482797E+03</pdfrwt>
<pdfrwt beam="2">  1       21 0.15923294E-01 0.18482797E+03</pdfrwt>
<totfact> 0.42012239E+04</totfact>
</mgrwt>
</event>
<event>
 4    1  0.4053645E-001  0.1750255E+03  0.7546771E-02  0.1172706E+00
         21   -1    0    0  501  502  0.00000000000E+00  0.00000000000E+00  0.18314361975E+03  0.18314361975E+03  0.00000000000E+00 0.  1.
         21   -1    0    0  502  503 -0.00000000000E+00 -0.00000000000E+00 -0.16984250409E+03  0.16984250409E+03  0.00000000000E+00 0.  1.
          6    1    1    2  501    0  0.23296891268E+00 -0.26549097758E+02 -0.15082660764E+02  0.17567411739E+03  0.17300000000E+03 0.  1.
         -6    1    1    2    0  503 -0.23296891268E+00  0.26549097758E+02  0.28383776424E+02  0.17731200645E+03  0.17300000000E+03 0.  1.
<mgrwt>
<rscale>  2 0.17502545E+03</rscale>
<asrwt>0</asrwt>
<pdfrwt beam="1">  1       21 0.28175942E-01 0.17502545E+03</pdfrwt>
<pdfrwt beam="2">  1       21 0.26129616E-01 0.17502545E+03</pdfrwt>
<totfact> 0.16844501E+05</totfact>
</mgrwt>
</event>
<event>
 4    1  0.4053645E-001  0.1800443E+03  0.7546771E-02  0.1167760E+00
         21   -1    0    0  501  502  0.00000000000E+00  0.00000000000E+00  0.77269477496E+03  0.77269477496E+03  0.00000000000E+00 0.  1.
         21   -1    0    0  502  503 -0.00000000000E+00 -0.00000000000E+00 -0.42408348626E+02  0.42408348626E+02  0.00000000000E+00 0.  1.
          6    1    1    2  501    0  0.49852303935E+02 -0.12998536802E+01  0.40742927307E+03  0.44543748651E+03  0.17300000000E+03 0. -1.
         -6    1    1    2    0  503 -0.49852303935E+02  0.12998536802E+01  0.32285715326E+03  0.36966563708E+03  0.17300000000E+03 0. -1.
<mgrwt>
<rscale>  2 0.18004428E+03</rscale>
<asrwt>0</asrwt>
<pdfrwt beam="1">  1       21 0.11887611E+00 0.18004428E+03</pdfrwt>
<pdfrwt beam="2">  1       21 0.65243619E-02 0.18004428E+03</pdfrwt>
<totfact> 0.92826817E+04</totfact>
</mgrwt>
</event>
<event>
 4    1  0.4053645E-001  0.1953294E+03  0.7546771E-02  0.1153741E+00
         21   -1    0    0  501  502  0.00000000000E+00  0.00000000000E+00  0.32812625171E+02  0.32812625171E+02  0.00000000000E+00 0. -1.
         21   -1    0    0  502  503 -0.00000000000E+00 -0.00000000000E+00 -0.12740760407E+04  0.12740760407E+04  0.00000000000E+00 0. -1.
          6    1    1    2  501    0  0.54181037545E+02 -0.72725438659E+02 -0.42749357686E+03  0.47000460904E+03  0.17300000000E+03 0. -1.
         -6    1    1    2    0  503 -0.54181037545E+02  0.72725438659E+02 -0.81376983863E+03  0.83688405680E+03  0.17300000000E+03 0. -1.
<mgrwt>
<rscale>  2 0.19532940E+03</rscale>
<asrwt>0</asrwt>
<pdfrwt beam="1">  1       21 0.50480963E-02 0.19532940E+03</pdfrwt>
<pdfrwt beam="2">  1       21 0.19601169E+00 0.19532940E+03</pdfrwt>
<totfact> 0.37637016E+04</totfact>
</mgrwt>
</event>
<event>
 4    1  0.4053645E-001  0.1861970E+03  0.7546771E-02  0.1161937E+00
         21   -1    0    0  503  502  0.00000000000E+00  0.00000000000E+00  0.93826460635E+02  0.93826460635E+02  0.00000000000E+00 0. -1.
         21   -1    0    0  501  503 -0.00000000000E+00 -0.00000000000E+00 -0.36956887600E+03  0.36956887600E+03  0.00000000000E+00 0. -1.
          6    1    1    2  501    0 -0.45074582119E+02  0.52044188273E+02 -0.13481728710E+03  0.22988043933E+03  0.17300000000E+03 0. -1.
         -6    1    1    2    0  502  0.45074582119E+02 -0.52044188273E+02 -0.14092512826E+03  0.23351489730E+03  0.17300000000E+03 0. -1.
<mgrwt>
<rscale>  2 0.18619698E+03</rscale>
<asrwt>0</asrwt>
<pdfrwt beam="1">  1       21 0.14434840E-01 0.18619698E+03</pdfrwt>
<pdfrwt beam="2">  1       21 0.56856750E-01 0.18619698E+03</pdfrwt>
<totfact> 0.12256620E+05</totfact>
</mgrwt>
</event>
<event>
 4    1  0.4053645E-001  0.2696086E+03  0.7546771E-02  0.1101504E+00
         21   -1    0    0  503  502  0.00000000000E+00  0.00000000000E+00  0.61714648799E+03  0.61714648799E+03  0.00000000000E+00 0. -1.
         21   -1    0    0  501  503 -0.00000000000E+00 -0.00000000000E+00 -0.11840190351E+03  0.11840190351E+03  0.00000000000E+00 0. -1.
          6    1    1    2  501    0  0.16294457650E+03  0.12731411310E+03  0.22276358365E+03  0.34973194393E+03  0.17300000000E+03 0. -1.
         -6    1    1    2    0  502 -0.16294457650E+03 -0.12731411310E+03  0.27598100083E+03  0.38581644758E+03  0.17300000000E+03 0. -1.
<mgrwt>
<rscale>  2 0.26960864E+03</rscale>
<asrwt>0</asrwt>
<pdfrwt beam="1">  1       21 0.94945612E-01 0.26960864E+03</pdfrwt>
<pdfrwt beam="2">  1       21 0.18215678E-01 0.26960864E+03</pdfrwt>
<totfact> 0.24480234E+04</totfact>
</mgrwt>
</event>
<event>
 4    1  0.4053645E-001  0.2609280E+03  0.7546771E-02  0.1106587E+00
         21   -1    0    0  501  502  0.00000000000E+00  0.00000000000E+00  0.68144461404E+03  0.68144461404E+03  0.00000000000E+00 0.  1.
         21   -1    0    0  502  503 -0.00000000000E+00 -0.00000000000E+00 -0.10449161479E+03  0.10449161479E+03  0.00000000000E+00 0. -1.
          6    1    1    2  501    0 -0.19170541285E+03  0.37462844535E+02  0.37075855019E+03  0.45337107602E+03  0.17300000000E+03 0. -1.
         -6    1    1    2    0  503  0.19170541285E+03 -0.37462844535E+02  0.20619444907E+03  0.33256515281E+03  0.17300000000E+03 0.  1.
<mgrwt>
<rscale>  2 0.26092802E+03</rscale>
<asrwt>0</asrwt>
<pdfrwt beam="1">  1       21 0.10483763E+00 0.26092802E+03</pdfrwt>
<pdfrwt beam="2">  1       21 0.16075633E-01 0.26092802E+03</pdfrwt>
<totfact> 0.24443012E+04</totfact>
</mgrwt>
</event>
<event>
 4    1  0.4053645E-001  0.3590561E+03  0.7546771E-02  0.1058958E+00
         21   -1    0    0  501  502  0.00000000000E+00  0.00000000000E+00  0.11675977094E+03  0.11675977094E+03  0.00000000000E+00 0.  1.
         21   -1    0    0  502  503 -0.00000000000E+00 -0.00000000000E+00 -0.12604539576E+04  0.12604539576E+04  0.00000000000E+00 0. -1.
          6    1    1    2  501    0  0.22968615170E+03 -0.21502686736E+03 -0.32936416375E+03  0.48723919622E+03  0.17300000000E+03 0.  1.
         -6    1    1    2    0  503 -0.22968615170E+03  0.21502686736E+03 -0.81433002289E+03  0.88997453231E+03  0.17300000000E+03 0. -1.
<mgrwt>
<rscale>  2 0.35905610E+03</rscale>
<asrwt>0</asrwt>
<pdfrwt beam="1">  1       21 0.17963043E-01 0.35905610E+03</pdfrwt>
<pdfrwt beam="2">  1       21 0.19391598E+00 0.35905610E+03</pdfrwt>
<totfact> 0.36942973E+03</totfact>
</mgrwt>
</event>
<event>
 4    1  0.4053645E-001  0.2794729E+03  0.7546771E-02  0.1095977E+00
         21   -1    0    0  501  502  0.00000000000E+00  0.00000000000E+00  0.44357094971E+03  0.44357094971E+03  0.00000000000E+00 0. -1.
         21   -1    0    0  502  503 -0.00000000000E+00 -0.00000000000E+00 -0.18205708375E+03  0.18205708375E+03  0.00000000000E+00 0.  1.
          6    1    1    2  501    0  0.63801481699E+02 -0.21001307141E+03  0.18742431771E+03  0.33650110564E+03  0.17300000000E+03 0. -1.
         -6    1    1    2    0  503 -0.63801481699E+02  0.21001307141E+03  0.74089548255E+02  0.28912692782E+03  0.17300000000E+03 0.  1.
<mgrwt>
<rscale>  2 0.27947293E+03</rscale>
<asrwt>0</asrwt>
<pdfrwt beam="1">  1       21 0.68241684E-01 0.27947293E+03</pdfrwt>
<pdfrwt beam="2">  1       21 0.28008782E-01 0.27947293E+03</pdfrwt>
<totfact> 0.22840630E+04</totfact>
</mgrwt>
</event>
<event>
 4    1  0.4053645E-001  0.2030703E+03  0.7546771E-02  0.1147174E+00
         21   -1    0    0  503  502  0.00000000000E+00  0.00000000000E+00  0.42780536036E+02  0.42780536036E+02  0.00000000000E+00 0. -1.
         21   -1    0    0  501  503 -0.00000000000E+00 -0.00000000000E+00 -0.99033861271E+03  0.99033861271E+03  0.00000000000E+00 0. -1.
          6    1    1    2  501    0  0.22416450187E+02  0.10395213854E+03 -0.55812838064E+03  0.59392325567E+03  0.17300000000E+03 0. -1.
         -6    1    1    2    0  502 -0.22416450187E+02 -0.10395213854E+03 -0.38942969604E+03  0.43919589308E+03  0.17300000000E+03 0. -1.
<mgrwt>
<rscale>  2 0.20307029E+03</rscale>
<asrwt>0</asrwt>
<pdfrwt beam="1">  1       21 0.65816207E-02 0.20307029E+03</pdfrwt>
<pdfrwt beam="2">  1       21 0.15235979E+00 0.20307029E+03</pdfrwt>
<totfact> 0.47965146E+04</totfact>
</mgrwt>
</event>
<event>
 4    1  0.4053645E-001  0.1958508E+03  0.7546771E-02  0.1153288E+00
         21   -1    0    0  503  502  0.00000000000E+00  0.00000000000E+00  0.40097559512E+03  0.40097559512E+03  0.00000000000E+00 0.  1.
         21   -1    0    0  501  503 -0.00000000000E+00 -0.00000000000E+00 -0.10314090710E+03  0.10314090710E+03  0.00000000000E+00 0.  1.
          6    1    1    2  501    0  0.91418557616E+02  0.84367727232E+01  0.81036437192E+02  0.21195385338E+03  0.17300000000E+03 0.  1.
         -6    1    1    2    0  502 -0.91418557616E+02 -0.84367727232E+01  0.21679825083E+03  0.29216264884E+03  0.17300000000E+03 0.  1.
<mgrwt>
<rscale>  2 0.19585079E+03</rscale>
<asrwt>0</asrwt>
<pdfrwt beam="1">  1       21 0.61688553E-01 0.19585079E+03</pdfrwt>
<pdfrwt beam="2">  1       21 0.15867832E-01 0.19585079E+03</pdfrwt>
<totfact> 0.86298486E+04</totfact>
</mgrwt>
</event>
<event>
 4    1  0.4053645E-001  0.1946922E+03  0.7546771E-02  0.1154296E+00
         21   -1    0    0  501  502  0.00000000000E+00  0.00000000000E+00  0.57635243233E+03  0.57635243233E+03  0.00000000000E+00 0. -1.
         21   -1    0    0  502  503 -0.00000000000E+00 -0.00000000000E+00 -0.72582388380E+02  0.72582388380E+02  0.00000000000E+00 0.  1.
          6    1    1    2  501    0  0.72461687727E+02  0.52204959555E+02  0.35131014565E+03  0.40165143150E+03  0.17300000000E+03 0. -1.
         -6    1    1    2    0  503 -0.72461687727E+02 -0.52204959555E+02  0.15245989831E+03  0.24728338922E+03  0.17300000000E+03 0.  1.
<mgrwt>
<rscale>  2 0.19469220E+03</rscale>
<asrwt>0</asrwt>
<pdfrwt beam="1">  1       21 0.88669602E-01 0.19469220E+03</pdfrwt>
<pdfrwt beam="2">  1       21 0.11166522E-01 0.19469220E+03</pdfrwt>
<totfact> 0.72490558E+04</totfact>
</mgrwt>
</event>
<event>
 4    1  0.4053645E-001  0.1743004E+03  0.7546771E-02  0.1173436E+00
         21   -1    0    0  503  502  0.00000000000E+00  0.00000000000E+00  0.37773445413E+03  0.37773445413E+03  0.00000000000E+00 0. -1.
         21   -1    0    0  501  503 -0.00000000000E+00 -0.00000000000E+00 -0.85755633664E+02  0.85755633664E+02  0.00000000000E+00 0. -1.
          6    1    1    2  501    0 -0.21199686140E+02  0.14804805536E+01  0.88229620813E+02  0.19535886083E+03  0.17300000000E+03 0. -1.
         -6    1    1    2    0  502  0.21199686140E+02 -0.14804805536E+01  0.20374919965E+03  0.26813122697E+03  0.17300000000E+03 0. -1.
<mgrwt>
<rscale>  2 0.17430037E+03</rscale>
<asrwt>0</asrwt>
<pdfrwt beam="1">  1       21 0.58112992E-01 0.17430037E+03</pdfrwt>
<pdfrwt beam="2">  1       21 0.13193175E-01 0.17430037E+03</pdfrwt>
<totfact> 0.13821225E+05</totfact>
</mgrwt>
</event>
<event>
 4    1  0.4053645E-001  0.1805367E+03  0.7546771E-02  0.1167285E+00
         21   -1    0    0  503  502  0.00000000000E+00  0.00000000000E+00  0.16398357966E+02  0.16398357966E+02  0.00000000000E+00 0. -1.
         21   -1    0    0  501  503 -0.00000000000E+00 -0.00000000000E+00 -0.22359272593E+04  0.22359272593E+04  0.00000000000E+00 0. -1.
          6    1    1    2  501    0 -0.28231375371E+02 -0.43214394490E+02 -0.73446472891E+03  0.75632792654E+03  0.17300000000E+03 0. -1.
         -6    1    1    2    0  502  0.28231375371E+02  0.43214394490E+02 -0.14850641724E+04  0.14959976907E+04  0.17300000000E+03 0. -1.
<mgrwt>
<rscale>  2 0.18053668E+03</rscale>
<asrwt>0</asrwt>
<pdfrwt beam="1">  1       21 0.25228265E-02 0.18053668E+03</pdfrwt>
<pdfrwt beam="2">  1       21 0.34398851E+00 0.18053668E+03</pdfrwt>
<totfact> 0.16200023E+04</totfact>
</mgrwt>
</event>
<event>
 4    1  0.4053645E-001  0.2411460E+03  0.7546771E-02  0.1119032E+00
         21   -1    0    0  503  502  0.00000000000E+00  0.00000000000E+00  0.34307594756E+02  0.34307594756E+02  0.00000000000E+00 0.  1.
         21   -1    0    0  501  503 -0.00000000000E+00 -0.00000000000E+00 -0.17589657877E+04  0.17589657877E+04  0.00000000000E+00 0. -1.
          6    1    1    2  501    0  0.11139802693E+03 -0.12574917654E+03 -0.10333154379E+04  0.10610806614E+04  0.17300000000E+03 0. -1.
         -6    1    1    2    0  502 -0.11139802693E+03  0.12574917654E+03 -0.69134275500E+03  0.73219272101E+03  0.17300000000E+03 0.  1.
<mgrwt>
<rscale>  2 0.24114596E+03</rscale>
<asrwt>0</asrwt>
<pdfrwt beam="1">  1       21 0.52780894E-02 0.24114596E+03</pdfrwt>
<pdfrwt beam="2">  1       21 0.27061023E+00 0.24114596E+03</pdfrwt>
<totfact> 0.11846379E+04</totfact>
</mgrwt>
</event>
<event>
 4    1  0.4053645E-001  0.2232317E+03  0.7546771E-02  0.1131496E+00
         21   -1    0    0  503  502  0.00000000000E+00  0.00000000000E+00  0.14568934040E+03  0.14568934040E+03  0.00000000000E+00 0.  1.
         21   -1    0    0  501  503 -0.00000000000E+00 -0.00000000000E+00 -0.36737020463E+03  0.36737020463E+03  0.00000000000E+00 0.  1.
          6    1    1    2  501    0  0.11885599019E+03 -0.76004298341E+02 -0.43487418094E+02  0.22742813217E+03  0.17300000000E+03 0.  1.
         -6    1    1    2    0  502 -0.11885599019E+03  0.76004298341E+02 -0.17819344614E+03  0.28563141287E+03  0.17300000000E+03 0.  1.
<mgrwt>
<rscale>  2 0.22323172E+03</rscale>
<asrwt>0</asrwt>
<pdfrwt beam="1">  1       21 0.22413745E-01 0.22323172E+03</pdfrwt>
<pdfrwt beam="2">  1       21 0.56518493E-01 0.22323172E+03</pdfrwt>
<totfact> 0.54096186E+04</totfact>
</mgrwt>
</event>
<event>
 4    1  0.4053645E-001  0.2505638E+03  0.7546771E-02  0.1112949E+00
         21   -1    0    0  501  502  0.00000000000E+00  0.00000000000E+00  0.50698133534E+03  0.50698133534E+03  0.00000000000E+00 0.  1.
         21   -1    0    0  502  503 -0.00000000000E+00 -0.00000000000E+00 -0.13120602721E+03  0.13120602721E+03  0.00000000000E+00 0. -1.
          6    1    1    2  501    0 -0.17006229310E+03 -0.62705870219E+02  0.26351782632E+03  0.36362598158E+03  0.17300000000E+03 0.  1.
         -6    1    1    2    0  503  0.17006229310E+03  0.62705870219E+02  0.11225748181E+03  0.27456138096E+03  0.17300000000E+03 0. -1.
<mgrwt>
<rscale>  2 0.25056378E+03</rscale>
<asrwt>0</asrwt>
<pdfrwt beam="1">  1       21 0.77997128E-01 0.25056378E+03</pdfrwt>
<pdfrwt beam="2">  1       21 0.20185543E-01 0.25056378E+03</pdfrwt>
<totfact> 0.32096076E+04</totfact>
</mgrwt>
</event>
<event>
 4    1  0.4053645E-001  0.2235508E+03  0.7546771E-02  0.1131263E+00
         21   -1    0    0  501  502  0.00000000000E+00  0.00000000000E+00  0.56591102489E+02  0.56591102489E+02  0.00000000000E+00 0. -1.
         21   -1    0    0  502  503 -0.00000000000E+00 -0.00000000000E+00 -0.91887652436E+03  0.91887652436E+03  0.00000000000E+00 0. -1.
          6    1    1    2  501    0  0.11822689087E+03  0.77899592928E+02 -0.33488756556E+03  0.40264702392E+03  0.17300000000E+03 0. -1.
         -6    1    1    2    0  503 -0.11822689087E+03 -0.77899592928E+02 -0.52739785630E+03  0.57282060293E+03  0.17300000000E+03 0. -1.
<mgrwt>
<rscale>  2 0.22355076E+03</rscale>
<asrwt>0</asrwt>
<pdfrwt beam="1">  1       21 0.87063238E-02 0.22355076E+03</pdfrwt>
<pdfrwt beam="2">  1       21 0.14136561E+00 0.22355076E+03</pdfrwt>
<totfact> 0.35491264E+04</totfact>
</mgrwt>
</event>
<event>
 4    1  0.4053645E-001  0.2330400E+03  0.7546771E-02  0.1124518E+00
         21   -1    0    0  501  502  0.00000000000E+00  0.00000000000E+00  0.19497304001E+03  0.19497304001E+03  0.00000000000E+00 0. -1.
         21   -1    0    0  502  503 -0.00000000000E+00 -0.00000000000E+00 -0.27860627211E+03  0.27860627211E+03  0.00000000000E+00 0.  1.
          6    1    1    2  501    0 -0.13762992669E+03  0.73733481664E+02 -0.45492230374E+02  0.23743876277E+03  0.17300000000E+03 0.  1.
         -6    1    1    2    0  503  0.13762992669E+03 -0.73733481664E+02 -0.38141001728E+02  0.23614054936E+03  0.17300000000E+03 0. -1.
<mgrwt>
<rscale>  2 0.23303996E+03</rscale>
<asrwt>0</asrwt>
<pdfrwt beam="1">  1       21 0.29995852E-01 0.23303996E+03</pdfrwt>
<pdfrwt beam="2">  1       21 0.42862504E-01 0.23303996E+03</pdfrwt>
<totfact> 0.54794272E+04</totfact>
</mgrwt>
</event>
<event>
 4    1  0.4053645E-001  0.2205431E+03  0.7546771E-02  0.1133479E+00
         21   -1    0    0  503  502  0.00000000000E+00  0.00000000000E+00  0.15673764724E+03  0.15673764724E+03  0.00000000000E+00 0. -1.
         21   -1    0    0  501  503 -0.00000000000E+00 -0.00000000000E+00 -0.33700750584E+03  0.33700750584E+03  0.00000000000E+00 0.  1.
          6    1    1    2  501    0  0.68129864015E+02 -0.11861102239E+03 -0.15960294992E+03  0.27223584376E+03  0.17300000000E+03 0. -1.
         -6    1    1    2    0  502 -0.68129864015E+02  0.11861102239E+03 -0.20666908677E+02  0.22150930933E+03  0.17300000000E+03 0.  1.
<mgrwt>
<rscale>  2 0.22054309E+03</rscale>
<asrwt>0</asrwt>
<pdfrwt beam="1">  1       21 0.24113485E-01 0.22054309E+03</pdfrwt>
<pdfrwt beam="2">  1       21 0.51847308E-01 0.22054309E+03</pdfrwt>
<totfact> 0.56579305E+04</totfact>
</mgrwt>
</event>
<event>
 4    1  0.4053645E-001  0.2683967E+03  0.7546771E-02  0.1102201E+00
         21   -1    0    0  503  502  0.00000000000E+00  0.00000000000E+00  0.14103090024E+03  0.14103090024E+03  0.00000000000E+00 0.  1.
         21   -1    0    0  501  503 -0.00000000000E+00 -0.00000000000E+00 -0.51406451864E+03  0.51406451864E+03  0.00000000000E+00 0. -1.
          6    1    1    2  501    0 -0.54285265484E+02  0.19789115155E+03 -0.21266947930E+03  0.34243992953E+03  0.17300000000E+03 0. -1.
         -6    1    1    2    0  502  0.54285265484E+02 -0.19789115155E+03 -0.16036413910E+03  0.31265548935E+03  0.17300000000E+03 0.  1.
<mgrwt>
<rscale>  2 0.26839672E+03</rscale>
<asrwt>0</asrwt>
<pdfrwt beam="1">  1       21 0.21697061E-01 0.26839672E+03</pdfrwt>
<pdfrwt beam="2">  1       21 0.79086849E-01 0.26839672E+03</pdfrwt>
<totfact> 0.26925427E+04</totfact>
</mgrwt>
</event>
<event>
 4    1  0.4053645E-001  0.1961891E+03  0.7546771E-02  0.1152995E+00
         21   -1    0    0  501  502  0.00000000000E+00  0.00000000000E+00  0.18049190238E+03  0.18049190238E+03  0.00000000000E+00 0. -1.
         21   -1    0    0  502  503 -0.00000000000E+00 -0.00000000000E+00 -0.21766586195E+03  0.21766586195E+03  0.00000000000E+00 0. -1.
          6    1    1    2  501    0 -0.53334898376E+02 -0.75607926684E+02  0.97637158228E+01  0.19643192233E+03  0.17300000000E+03 0. -1.
         -6    1    1    2    0  503  0.53334898376E+02  0.75607926684E+02 -0.46937675396E+02  0.20172584201E+03  0.17300000000E+03 0. -1.
<mgrwt>
<rscale>  2 0.19618912E+03</rscale>
<asrwt>0</asrwt>
<pdfrwt beam="1">  1       21 0.27767985E-01 0.19618912E+03</pdfrwt>
<pdfrwt beam="2">  1       21 0.33487056E-01 0.19618912E+03</pdfrwt>
<totfact> 0.10619322E+05</totfact>
</mgrwt>
</event>
<event>
 4    1  0.4053645E-001  0.1961908E+03  0.7546771E-02  0.1152993E+00
         21   -1    0    0  503  502  0.00000000000E+00  0.00000000000E+00  0.19334872290E+03  0.19334872290E+03  0.00000000000E+00 0. -1.
         21   -1    0    0  501  503 -0.00000000000E+00 -0.00000000000E+00 -0.19938307944E+03  0.19938307944E+03  0.00000000000E+00 0. -1.
          6    1    1    2  501    0 -0.98172867222E+01  0.92007905257E+02 -0.10740138178E+02  0.19648456508E+03  0.17300000000E+03 0. -1.
         -6    1    1    2    0  502  0.98172867222E+01 -0.92007905257E+02  0.47057816328E+01  0.19624723725E+03  0.17300000000E+03 0. -1.
<mgrwt>
<rscale>  2 0.19619081E+03</rscale>
<asrwt>0</asrwt>
<pdfrwt beam="1">  1       21 0.29745957E-01 0.19619081E+03</pdfrwt>
<pdfrwt beam="2">  1       21 0.30674320E-01 0.19619081E+03</pdfrwt>
<totfact> 0.11040183E+05</totfact>
</mgrwt>
</event>
<event>
 4    1  0.4053645E-001  0.1856734E+03  0.7546771E-02  0.1162422E+00
         21   -1    0    0  503  502  0.00000000000E+00  0.00000000000E+00  0.28776964203E+03  0.28776964203E+03  0.00000000000E+00 0. -1.
         21   -1    0    0  501  503 -0.00000000000E+00 -0.00000000000E+00 -0.25306233433E+03  0.25306233433E+03  0.00000000000E+00 0.  1.
          6    1    1    2  501    0  0.51569552583E+01  0.67223771805E+02 -0.17887991431E+03  0.25782291098E+03  0.17300000000E+03 0.  1.
         -6    1    1    2    0  502 -0.51569552583E+01 -0.67223771805E+02  0.21358722201E+03  0.28300906538E+03  0.17300000000E+03 0. -1.
<mgrwt>
<rscale>  2 0.18567345E+03</rscale>
<asrwt>0</asrwt>
<pdfrwt beam="1">  1       21 0.44272253E-01 0.18567345E+03</pdfrwt>
<pdfrwt beam="2">  1       21 0.38932667E-01 0.18567345E+03</pdfrwt>
<totfact> 0.31283827E+04</totfact>
</mgrwt>
</event>
<event>
 4    1  0.4053645E-001  0.2229263E+03  0.7546771E-02  0.1131720E+00
         21   -1    0    0  503  502  0.00000000000E+00  0.00000000000E+00  0.66927218781E+03  0.66927218781E+03  0.00000000000E+00 0. -1.
         21   -1    0    0  501  503 -0.00000000000E+00 -0.00000000000E+00 -0.75911848632E+02  0.75911848632E+02  0.00000000000E+00 0. -1.
          6    1    1    2  501    0  0.14034039451E+03  0.84681092771E+01  0.24161822326E+03  0.32874838557E+03  0.17300000000E+03 0. -1.
         -6    1    1    2    0  502 -0.14034039451E+03 -0.84681092771E+01  0.35174211592E+03  0.41643565087E+03  0.17300000000E+03 0. -1.
<mgrwt>
<rscale>  2 0.22292630E+03</rscale>
<asrwt>0</asrwt>
<pdfrwt beam="1">  1       21 0.10296495E+00 0.22292630E+03</pdfrwt>
<pdfrwt beam="2">  1       21 0.11678746E-01 0.22292630E+03</pdfrwt>
<totfact> 0.46448391E+04</totfact>
</mgrwt>
</event>
<event>
 4    1  0.4053645E-001  0.1999159E+03  0.7546771E-02  0.1149810E+00
         21   -1    0    0  503  502  0.00000000000E+00  0.00000000000E+00  0.36315213465E+03  0.36315213465E+03  0.00000000000E+00 0. -1.
         21   -1    0    0  501  503 -0.00000000000E+00 -0.00000000000E+00 -0.12798408213E+03  0.12798408213E+03  0.00000000000E+00 0. -1.
          6    1    1    2  501    0 -0.64362442590E+02 -0.76777751925E+02  0.25669309642E+02  0.20155709033E+03  0.17300000000E+03 0. -1.
         -6    1    1    2    0  502  0.64362442590E+02  0.76777751925E+02  0.20949874288E+03  0.28957912645E+03  0.17300000000E+03 0. -1.
<mgrwt>
<rscale>  2 0.19991585E+03</rscale>
<asrwt>0</asrwt>
<pdfrwt beam="1">  1       21 0.55869559E-01 0.19991585E+03</pdfrwt>
<pdfrwt beam="2">  1       21 0.19689859E-01 0.19991585E+03</pdfrwt>
<totfact> 0.71476336E+04</totfact>
</mgrwt>
</event>
<event>
 4    1  0.4053645E-001  0.3030135E+03  0.7546771E-02  0.1083744E+00
         21   -1    0    0  503  502  0.00000000000E+00  0.00000000000E+00  0.41916989384E+03  0.41916989384E+03  0.00000000000E+00 0. -1.
         21   -1    0    0  501  503 -0.00000000000E+00 -0.00000000000E+00 -0.22736170483E+03  0.22736170483E+03  0.00000000000E+00 0.  1.
          6    1    1    2  501    0  0.22346419733E+03 -0.10932491631E+03  0.15772986766E+03  0.34160781016E+03  0.17300000000E+03 0.  1.
         -6    1    1    2    0  502 -0.22346419733E+03  0.10932491631E+03  0.34078321342E+02  0.30492378851E+03  0.17300000000E+03 0.  1.
<mgrwt>
<rscale>  2 0.30301351E+03</rscale>
<asrwt>0</asrwt>
<pdfrwt beam="1">  1       21 0.64487676E-01 0.30301351E+03</pdfrwt>
<pdfrwt beam="2">  1       21 0.34978724E-01 0.30301351E+03</pdfrwt>
<totfact> 0.16512952E+04</totfact>
</mgrwt>
</event>
<event>
 4    1  0.4053645E-001  0.2548844E+03  0.7546771E-02  0.1110256E+00
         21   -1    0    0  501  502  0.00000000000E+00  0.00000000000E+00  0.17939646496E+04  0.17939646496E+04  0.00000000000E+00 0. -1.
         21   -1    0    0  502  503 -0.00000000000E+00 -0.00000000000E+00 -0.43192759128E+02  0.43192759128E+02  0.00000000000E+00 0. -1.
          6    1    1    2  501    0  0.74824104111E+02  0.17157619779E+03  0.12446273280E+04  0.12704578796E+04  0.17300000000E+03 0. -1.
         -6    1    1    2    0  503 -0.74824104111E+02 -0.17157619779E+03  0.50614456243E+03  0.56669952910E+03  0.17300000000E+03 0. -1.
<mgrwt>
<rscale>  2 0.25488436E+03</rscale>
<asrwt>0</asrwt>
<pdfrwt beam="1">  1       21 0.27599450E+00 0.25488436E+03</pdfrwt>
<pdfrwt beam="2">  1       21 0.66450412E-02 0.25488436E+03</pdfrwt>
<totfact> 0.73318249E+03</totfact>
</mgrwt>
</event>
<event>
 4    1  0.4053645E-001  0.1861422E+03  0.7546771E-02  0.1161988E+00
         21   -1    0    0  503  502  0.00000000000E+00  0.00000000000E+00  0.21747782443E+03  0.21747782443E+03  0.00000000000E+00 0. -1.
         21   -1    0    0  501  503 -0.00000000000E+00 -0.00000000000E+00 -0.30387365568E+03  0.30387365568E+03  0.00000000000E+00 0. -1.
          6    1    1    2  501    0  0.36400790906E+01 -0.68605264025E+02 -0.22298815278E+03  0.29046970360E+03  0.17300000000E+03 0. -1.
         -6    1    1    2    0  502 -0.36400790906E+01  0.68605264025E+02  0.13659232153E+03  0.23088177652E+03  0.17300000000E+03 0. -1.
<mgrwt>
<rscale>  2 0.18614224E+03</rscale>
<asrwt>0</asrwt>
<pdfrwt beam="1">  1       21 0.33458127E-01 0.18614224E+03</pdfrwt>
<pdfrwt beam="2">  1       21 0.46749793E-01 0.18614224E+03</pdfrwt>
<totfact> 0.37812845E+04</totfact>
</mgrwt>
</event>
<event>
 4    1  0.4053645E-001  0.1779343E+03  0.7546771E-02  0.1169817E+00
         21   -1    0    0  501  502  0.00000000000E+00  0.00000000000E+00  0.19068763498E+03  0.19068763498E+03  0.00000000000E+00 0. -1.
         21   -1    0    0  502  503 -0.00000000000E+00 -0.00000000000E+00 -0.16638471550E+03  0.16638471550E+03  0.00000000000E+00 0. -1.
          6    1    1    2  501    0 -0.40293810956E+02 -0.10393860674E+02  0.20348753744E+02  0.17909409627E+03  0.17300000000E+03 0. -1.
         -6    1    1    2    0  503  0.40293810956E+02  0.10393860674E+02  0.39541657374E+01  0.17797825420E+03  0.17300000000E+03 0. -1.
<mgrwt>
<rscale>  2 0.17793432E+03</rscale>
<asrwt>0</asrwt>
<pdfrwt beam="1">  1       21 0.29336559E-01 0.17793432E+03</pdfrwt>
<pdfrwt beam="2">  1       21 0.25597649E-01 0.17793432E+03</pdfrwt>
<totfact> 0.16188425E+05</totfact>
</mgrwt>
</event>
<event>
 4    1  0.4053645E-001  0.1845271E+03  0.7546771E-02  0.1163492E+00
         21   -1    0    0  503  502  0.00000000000E+00  0.00000000000E+00  0.76736875856E+03  0.76736875856E+03  0.00000000000E+00 0.  1.
         21   -1    0    0  501  503 -0.00000000000E+00 -0.00000000000E+00 -0.89596610977E+02  0.89596610977E+02  0.00000000000E+00 0.  1.
          6    1    1    2  501    0  0.15288632300E+02 -0.62349935217E+02  0.64330478121E+03  0.66924681413E+03  0.17300000000E+03 0.  1.
         -6    1    1    2    0  502 -0.15288632300E+02  0.62349935217E+02  0.34467366374E+02  0.18771855541E+03  0.17300000000E+03 0.  1.
<mgrwt>
<rscale>  2 0.18452712E+03</rscale>
<asrwt>0</asrwt>
<pdfrwt beam="1">  1       21 0.11805673E+00 0.18452712E+03</pdfrwt>
<pdfrwt beam="2">  1       21 0.13784094E-01 0.18452712E+03</pdfrwt>
<totfact> 0.25269307E+04</totfact>
</mgrwt>
</event>
<event>
 4    1  0.4053645E-001  0.3394990E+03  0.7546771E-02  0.1067009E+00
         21   -1    0    0  503  502  0.00000000000E+00  0.00000000000E+00  0.10063569476E+03  0.10063569476E+03  0.00000000000E+00 0. -1.
         21   -1    0    0  501  503 -0.00000000000E+00 -0.00000000000E+00 -0.11483905060E+04  0.11483905060E+04  0.00000000000E+00 0.  1.
          6    1    1    2  501    0  0.23953021179E+03 -0.16720007401E+03 -0.55619533730E+03  0.65162323496E+03  0.17300000000E+03 0.  1.
         -6    1    1    2    0  502 -0.23953021179E+03  0.16720007401E+03 -0.49155947393E+03  0.59740296578E+03  0.17300000000E+03 0. -1.
<mgrwt>
<rscale>  2 0.33949902E+03</rscale>
<asrwt>0</asrwt>
<pdfrwt beam="1">  1       21 0.15482415E-01 0.33949902E+03</pdfrwt>
<pdfrwt beam="2">  1       21 0.17667545E+00 0.33949902E+03</pdfrwt>
<totfact> 0.64603356E+03</totfact>
</mgrwt>
</event>
<event>
 4    1  0.4053645E-001  0.1761615E+03  0.7546771E-02  0.1171571E+00
         21   -1    0    0  503  502  0.00000000000E+00  0.00000000000E+00  0.45766281247E+02  0.45766281247E+02  0.00000000000E+00 0.  1.
         21   -1    0    0  501  503 -0.00000000000E+00 -0.00000000000E+00 -0.69402238606E+03  0.69402238606E+03  0.00000000000E+00 0. -1.
          6    1    1    2  501    0 -0.27089989886E+02  0.19235583651E+02 -0.38020240024E+03  0.41903071531E+03  0.17300000000E+03 0. -1.
         -6    1    1    2    0  502  0.27089989886E+02 -0.19235583651E+02 -0.26805370458E+03  0.32075795199E+03  0.17300000000E+03 0.  1.
<mgrwt>
<rscale>  2 0.17616150E+03</rscale>
<asrwt>0</asrwt>
<pdfrwt beam="1">  1       21 0.70409667E-02 0.17616150E+03</pdfrwt>
<pdfrwt beam="2">  1       21 0.10677267E+00 0.17616150E+03</pdfrwt>
<totfact> 0.10581160E+05</totfact>
</mgrwt>
</event>
<event>
 4    1  0.4053645E-001  0.1834173E+03  0.7546771E-02  0.1164536E+00
         21   -1    0    0  501  502  0.00000000000E+00  0.00000000000E+00  0.53199486208E+02  0.53199486208E+02  0.00000000000E+00 0. -1.
         21   -1    0    0  502  503 -0.00000000000E+00 -0.00000000000E+00 -0.65126326127E+03  0.65126326127E+03  0.00000000000E+00 0. -1.
          6    1    1    2  501    0  0.60917277009E+02 -0.14170583721E+01 -0.35902036847E+03  0.40315945688E+03  0.17300000000E+03 0. -1.
         -6    1    1    2    0  503 -0.60917277009E+02  0.14170583721E+01 -0.23904340659E+03  0.30130329060E+03  0.17300000000E+03 0. -1.
<mgrwt>
<rscale>  2 0.18341735E+03</rscale>
<asrwt>0</asrwt>
<pdfrwt beam="1">  1       21 0.81845359E-02 0.18341735E+03</pdfrwt>
<pdfrwt beam="2">  1       21 0.10019435E+00 0.18341735E+03</pdfrwt>
<totfact> 0.94608440E+04</totfact>
</mgrwt>
</event>
<event>
 4    1  0.4053645E-001  0.2134592E+03  0.7546771E-02  0.1138856E+00
         21   -1    0    0  503  502  0.00000000000E+00  0.00000000000E+00  0.23654496875E+03  0.23654496875E+03  0.00000000000E+00 0. -1.
         21   -1    0    0  501  503 -0.00000000000E+00 -0.00000000000E+00 -0.20515356036E+03  0.20515356036E+03  0.00000000000E+00 0.  1.
          6    1    1    2  501    0 -0.82605134054E+02 -0.93873513874E+02 -0.38877554588E+02  0.21697075616E+03  0.17300000000E+03 0.  1.
         -6    1    1    2    0  502  0.82605134054E+02  0.93873513874E+02  0.70268962975E+02  0.22472777295E+03  0.17300000000E+03 0. -1.
<mgrwt>
<rscale>  2 0.21345923E+03</rscale>
<asrwt>0</asrwt>
<pdfrwt beam="1">  1       21 0.36391534E-01 0.21345923E+03</pdfrwt>
<pdfrwt beam="2">  1       21 0.31562086E-01 0.21345923E+03</pdfrwt>
<totfact> 0.69628972E+04</totfact>
</mgrwt>
</event>
<event>
 4    1  0.4053645E-001  0.1998527E+03  0.7546771E-02  0.1149863E+00
         21   -1    0    0  503  502  0.00000000000E+00  0.00000000000E+00  0.12504399299E+03  0.12504399299E+03  0.00000000000E+00 0.  1.
         21   -1    0    0  501  503 -0.00000000000E+00 -0.00000000000E+00 -0.44677166309E+03  0.44677166309E+03  0.00000000000E+00 0.  1.
          6    1    1    2  501    0 -0.99542588063E+02 -0.10167717640E+02 -0.31351199951E+03  0.37179414083E+03  0.17300000000E+03 0.  1.
         -6    1    1    2    0  502  0.99542588063E+02  0.10167717640E+02 -0.82156705875E+01  0.20002151525E+03  0.17300000000E+03 0.  1.
<mgrwt>
<rscale>  2 0.19985272E+03</rscale>
<asrwt>0</asrwt>
<pdfrwt beam="1">  1       21 0.19237538E-01 0.19985272E+03</pdfrwt>
<pdfrwt beam="2">  1       21 0.68734101E-01 0.19985272E+03</pdfrwt>
<totfact> 0.47698469E+04</totfact>
</mgrwt>
</event>
<event>
 4    1  0.4053645E-001  0.1908617E+03  0.7546771E-02  0.1157686E+00
         21   -1    0    0  503  502  0.00000000000E+00  0.00000000000E+00  0.68463562164E+02  0.68463562164E+02  0.00000000000E+00 0.  1.
         21   -1    0    0  501  503 -0.00000000000E+00 -0.00000000000E+00 -0.54134818650E+03  0.54134818650E+03  0.00000000000E+00 0.  1.
          6    1    1    2  501    0 -0.53283123350E+02  0.60498683644E+02 -0.27633507338E+03  0.33584111531E+03  0.17300000000E+03 0.  1.
         -6    1    1    2    0  502  0.53283123350E+02 -0.60498683644E+02 -0.19654955096E+03  0.27397063335E+03  0.17300000000E+03 0.  1.
<mgrwt>
<rscale>  2 0.19086168E+03</rscale>
<asrwt>0</asrwt>
<pdfrwt beam="1">  1       21 0.10532855E-01 0.19086168E+03</pdfrwt>
<pdfrwt beam="2">  1       21 0.83284338E-01 0.19086168E+03</pdfrwt>
<totfact> 0.92994571E+04</totfact>
</mgrwt>
</event>
<event>
 4    1  0.4053645E-001  0.2257621E+03  0.7546771E-02  0.1129659E+00
         21   -1    0    0  501  502  0.00000000000E+00  0.00000000000E+00  0.36572253596E+03  0.36572253596E+03  0.00000000000E+00 0.  1.
         21   -1    0    0  502  503 -0.00000000000E+00 -0.00000000000E+00 -0.14397313197E+03  0.14397313197E+03  0.00000000000E+00 0.  1.
          6    1    1    2  501    0 -0.21649525643E+02 -0.14342528651E+03  0.65275731329E+02  0.23500943783E+03  0.17300000000E+03 0.  1.
         -6    1    1    2    0  503  0.21649525643E+02  0.14342528651E+03  0.15647367266E+03  0.27468623010E+03  0.17300000000E+03 0.  1.
<mgrwt>
<rscale>  2 0.22576208E+03</rscale>
<asrwt>0</asrwt>
<pdfrwt beam="1">  1       21 0.56265005E-01 0.22576208E+03</pdfrwt>
<pdfrwt beam="2">  1       21 0.22149713E-01 0.22576208E+03</pdfrwt>
<totfact> 0.55795902E+04</totfact>
</mgrwt>
</event>
<event>
 4    1  0.4053645E-001  0.1984621E+03  0.7546771E-02  0.1151043E+00
         21   -1    0    0  501  502  0.00000000000E+00  0.00000000000E+00  0.83945352249E+02  0.83945352249E+02  0.00000000000E+00 0. -1.
         21   -1    0    0  502  503 -0.00000000000E+00 -0.00000000000E+00 -0.47870455473E+03  0.47870455473E+03  0.00000000000E+00 0. -1.
          6    1    1    2  501    0 -0.73193510480E+02 -0.64038519861E+02 -0.15774054634E+03  0.25351390881E+03  0.17300000000E+03 0. -1.
         -6    1    1    2    0  503  0.73193510480E+02  0.64038519861E+02 -0.23701865614E+03  0.30913599817E+03  0.17300000000E+03 0. -1.
<mgrwt>
<rscale>  2 0.19846214E+03</rscale>
<asrwt>0</asrwt>
<pdfrwt beam="1">  1       21 0.12914670E-01 0.19846214E+03</pdfrwt>
<pdfrwt beam="2">  1       21 0.73646853E-01 0.19846214E+03</pdfrwt>
<totfact> 0.84954461E+04</totfact>
</mgrwt>
</event>
<event>
 4    1  0.4053645E-001  0.1761078E+03  0.7546771E-02  0.1171624E+00
         21   -1    0    0  503  502  0.00000000000E+00  0.00000000000E+00  0.26637885695E+03  0.26637885695E+03  0.00000000000E+00 0. -1.
         21   -1    0    0  501  503 -0.00000000000E+00 -0.00000000000E+00 -0.17553885593E+03  0.17553885593E+03  0.00000000000E+00 0. -1.
          6    1    1    2  501    0  0.17347816032E+01 -0.32892895757E+02 -0.82800799316E+02  0.19460196409E+03  0.17300000000E+03 0.  1.
         -6    1    1    2    0  502 -0.17347816032E+01  0.32892895757E+02  0.17364080034E+03  0.24731574880E+03  0.17300000000E+03 0.  1.
<mgrwt>
<rscale>  2 0.17610779E+03</rscale>
<asrwt>0</asrwt>
<pdfrwt beam="1">  1       21 0.40981363E-01 0.17610779E+03</pdfrwt>
<pdfrwt beam="2">  1       21 0.27005978E-01 0.17610779E+03</pdfrwt>
<totfact> 0.75441534E+04</totfact>
</mgrwt>
</event>
<event>
 4    1  0.4053645E-001  0.2886353E+03  0.7546771E-02  0.1091064E+00
         21   -1    0    0  501  502  0.00000000000E+00  0.00000000000E+00  0.24941664363E+03  0.24941664363E+03  0.00000000000E+00 0.  1.
         21   -1    0    0  502  503 -0.00000000000E+00 -0.00000000000E+00 -0.56657150079E+03  0.56657150079E+03  0.00000000000E+00 0.  1.
          6    1    1    2  501    0  0.14758229342E+03  0.17776608915E+03  0.10281044347E+03  0.30639892798E+03  0.17300000000E+03 0.  1.
         -6    1    1    2    0  503 -0.14758229342E+03 -0.17776608915E+03 -0.41996530063E+03  0.50958921644E+03  0.17300000000E+03 0.  1.
<mgrwt>
<rscale>  2 0.28863526E+03</rscale>
<asrwt>0</asrwt>
<pdfrwt beam="1">  1       21 0.38371792E-01 0.28863526E+03</pdfrwt>
<pdfrwt beam="2">  1       21 0.87164845E-01 0.28863526E+03</pdfrwt>
<totfact> 0.69810837E+03</totfact>
</mgrwt>
</event>
<event>
 4    1  0.4053645E-001  0.2041563E+03  0.7546771E-02  0.1146279E+00
         21   -1    0    0  501  502  0.00000000000E+00  0.00000000000E+00  0.26318550876E+03  0.26318550876E+03  0.00000000000E+00 0. -1.
         21   -1    0    0  502  503 -0.00000000000E+00 -0.00000000000E+00 -0.15886914332E+03  0.15886914332E+03  0.00000000000E+00 0. -1.
          6    1    1    2  501    0  0.61897338986E+02  0.88991716388E+02  0.64026414612E+02  0.21396071585E+03  0.17300000000E+03 0. -1.
         -6    1    1    2    0  503 -0.61897338986E+02 -0.88991716388E+02  0.40289950824E+02  0.20809393623E+03  0.17300000000E+03 0. -1.
<mgrwt>
<rscale>  2 0.20415633E+03</rscale>
<asrwt>0</asrwt>
<pdfrwt beam="1">  1       21 0.40490078E-01 0.20415633E+03</pdfrwt>
<pdfrwt beam="2">  1       21 0.24441407E-01 0.20415633E+03</pdfrwt>
<totfact> 0.92497229E+04</totfact>
</mgrwt>
</event>
<event>
 4    1  0.4053645E-001  0.1926338E+03  0.7546771E-02  0.1156107E+00
         21   -1    0    0  501  502  0.00000000000E+00  0.00000000000E+00  0.46965184397E+02  0.46965184397E+02  0.00000000000E+00 0.  1.
         21   -1    0    0  502  503 -0.00000000000E+00 -0.00000000000E+00 -0.10724999393E+04  0.10724999393E+04  0.00000000000E+00 0. -1.
          6    1    1    2  501    0  0.83083799427E+02 -0.16608551590E+02 -0.79998091693E+03  0.82284702659E+03  0.17300000000E+03 0. -1.
         -6    1    1    2    0  503 -0.83083799427E+02  0.16608551590E+02 -0.22555383801E+03  0.29661809715E+03  0.17300000000E+03 0.  1.
<mgrwt>
<rscale>  2 0.19263375E+03</rscale>
<asrwt>0</asrwt>
<pdfrwt beam="1">  1       21 0.72254130E-02 0.19263375E+03</pdfrwt>
<pdfrwt beam="2">  1       21 0.16499999E+00 0.19263375E+03</pdfrwt>
<totfact> 0.33160200E+04</totfact>
</mgrwt>
</event>
<event>
 4    1  0.4053645E-001  0.2487337E+03  0.7546771E-02  0.1114108E+00
         21   -1    0    0  501  502  0.00000000000E+00  0.00000000000E+00  0.19540592754E+03  0.19540592754E+03  0.00000000000E+00 0. -1.
         21   -1    0    0  502  503 -0.00000000000E+00 -0.00000000000E+00 -0.57073829376E+03  0.57073829376E+03  0.00000000000E+00 0.  1.
          6    1    1    2  501    0 -0.17868579183E+03  0.32958107040E+01  0.67947529881E+02  0.25784751576E+03  0.17300000000E+03 0. -1.
         -6    1    1    2    0  503  0.17868579183E+03 -0.32958107040E+01 -0.44327989610E+03  0.50829670553E+03  0.17300000000E+03 0.  1.
<mgrwt>
<rscale>  2 0.24873374E+03</rscale>
<asrwt>0</asrwt>
<pdfrwt beam="1">  1       21 0.30062451E-01 0.24873374E+03</pdfrwt>
<pdfrwt beam="2">  1       21 0.87805891E-01 0.24873374E+03</pdfrwt>
<totfact> 0.11401241E+04</totfact>
</mgrwt>
</event>
<event>
 4    1  0.4053645E-001  0.2080643E+03  0.7546771E-02  0.1143108E+00
         21   -1    0    0  503  502  0.00000000000E+00  0.00000000000E+00  0.20020220114E+03  0.20020220114E+03  0.00000000000E+00 0.  1.
         21   -1    0    0  501  503 -0.00000000000E+00 -0.00000000000E+00 -0.33891560382E+03  0.33891560382E+03  0.00000000000E+00 0.  1.
          6    1    1    2  501    0  0.80402768361E+02  0.83049148096E+02 -0.23153601859E+03  0.31128715692E+03  0.17300000000E+03 0.  1.
         -6    1    1    2    0  502 -0.80402768361E+02 -0.83049148096E+02  0.92822615913E+02  0.22783064804E+03  0.17300000000E+03 0.  1.
<mgrwt>
<rscale>  2 0.20806433E+03</rscale>
<asrwt>0</asrwt>
<pdfrwt beam="1">  1       21 0.30800339E-01 0.20806433E+03</pdfrwt>
<pdfrwt beam="2">  1       21 0.52140862E-01 0.20806433E+03</pdfrwt>
<totfact> 0.35045537E+04</totfact>
</mgrwt>
</event>
<event>
 4    1  0.4053645E-001  0.2191874E+03  0.7546771E-02  0.1134490E+00
         21   -1    0    0  501  502  0.00000000000E+00  0.00000000000E+00  0.10184221303E+04  0.10184221303E+04  0.00000000000E+00 0. -1.
         21   -1    0    0  502  503 -0.00000000000E+00 -0.00000000000E+00 -0.62295722827E+02  0.62295722827E+02  0.00000000000E+00 0. -1.
          6    1    1    2  501    0  0.79985472443E+02 -0.10824251856E+03  0.74429064751E+03  0.77589412074E+03  0.17300000000E+03 0. -1.
         -6    1    1    2    0  503 -0.79985472443E+02  0.10824251856E+03  0.21183575995E+03  0.30482373238E+03  0.17300000000E+03 0. -1.
<mgrwt>
<rscale>  2 0.21918741E+03</rscale>
<asrwt>0</asrwt>
<pdfrwt beam="1">  1       21 0.15668032E+00 0.21918741E+03</pdfrwt>
<pdfrwt beam="2">  1       21 0.95839581E-02 0.21918741E+03</pdfrwt>
<totfact> 0.22892923E+04</totfact>
</mgrwt>
</event>
<event>
 4    1  0.4053645E-001  0.3594225E+03  0.7546771E-02  0.1058813E+00
         21   -1    0    0  503  502  0.00000000000E+00  0.00000000000E+00  0.43223892278E+03  0.43223892278E+03  0.00000000000E+00 0.  1.
         21   -1    0    0  501  503 -0.00000000000E+00 -0.00000000000E+00 -0.32556081425E+03  0.32556081425E+03  0.00000000000E+00 0. -1.
          6    1    1    2  501    0 -0.87587636683E+02 -0.30262842959E+03 -0.55144667453E+02  0.36362823714E+03  0.17300000000E+03 0.  1.
         -6    1    1    2    0  502  0.87587636683E+02  0.30262842959E+03  0.16182277598E+03  0.39417149989E+03  0.17300000000E+03 0. -1.
<mgrwt>
<rscale>  2 0.35942254E+03</rscale>
<asrwt>0</asrwt>
<pdfrwt beam="1">  1       21 0.66498296E-01 0.35942254E+03</pdfrwt>
<pdfrwt beam="2">  1       21 0.50086279E-01 0.35942254E+03</pdfrwt>
<totfact> 0.72005048E+03</totfact>
</mgrwt>
</event>
<event>
 4    1  0.4053645E-001  0.1754717E+03  0.7546771E-02  0.1172259E+00
         21   -1    0    0  503  502  0.00000000000E+00  0.00000000000E+00  0.93954952639E+02  0.93954952639E+02  0.00000000000E+00 0.  1.
         21   -1    0    0  501  503 -0.00000000000E+00 -0.00000000000E+00 -0.33843281559E+03  0.33843281559E+03  0.00000000000E+00 0.  1.
          6    1    1    2  501    0 -0.27860650372E+02 -0.92259634273E+01 -0.16071446851E+03  0.23794847054E+03  0.17300000000E+03 0.  1.
         -6    1    1    2    0  502  0.27860650372E+02  0.92259634273E+01 -0.83763394438E+02  0.19443929769E+03  0.17300000000E+03 0.  1.
<mgrwt>
<rscale>  2 0.17547175E+03</rscale>
<asrwt>0</asrwt>
<pdfrwt beam="1">  1       21 0.14454608E-01 0.17547175E+03</pdfrwt>
<pdfrwt beam="2">  1       21 0.52066586E-01 0.17547175E+03</pdfrwt>
<totfact> 0.14774159E+05</totfact>
</mgrwt>
</event>
<event>
 4    1  0.4053645E-001  0.1973997E+03  0.7546771E-02  0.1151952E+00
         21   -1    0    0  503  502  0.00000000000E+00  0.00000000000E+00  0.76006917540E+02  0.76006917540E+02  0.00000000000E+00 0.  1.
         21   -1    0    0  501  503 -0.00000000000E+00 -0.00000000000E+00 -0.51315608062E+03  0.51315608062E+03  0.00000000000E+00 0. -1.
          6    1    1    2  501    0  0.38291640962E+02 -0.87013711409E+02 -0.20952898146E+03  0.28786981400E+03  0.17300000000E+03 0. -1.
         -6    1    1    2    0  502 -0.38291640962E+02  0.87013711409E+02 -0.22762018163E+03  0.30129318417E+03  0.17300000000E+03 0.  1.
<mgrwt>
<rscale>  2 0.19739969E+03</rscale>
<asrwt>0</asrwt>
<pdfrwt beam="1">  1       21 0.11693372E-01 0.19739969E+03</pdfrwt>
<pdfrwt beam="2">  1       21 0.78947088E-01 0.19739969E+03</pdfrwt>
<totfact> 0.86918520E+04</totfact>
</mgrwt>
</event>
<event>
 4    1  0.4053645E-001  0.1989395E+03  0.7546771E-02  0.1150637E+00
         21   -1    0    0  501  502  0.00000000000E+00  0.00000000000E+00  0.61224745786E+02  0.61224745786E+02  0.00000000000E+00 0. -1.
         21   -1    0    0  502  503 -0.00000000000E+00 -0.00000000000E+00 -0.10310993866E+04  0.10310993866E+04  0.00000000000E+00 0. -1.
          6    1    1    2  501    0  0.93532016249E+02 -0.29994933442E+02 -0.15134164405E+03  0.24996245182E+03  0.17300000000E+03 0. -1.
         -6    1    1    2    0  503 -0.93532016249E+02  0.29994933442E+02 -0.81853299679E+03  0.84236168059E+03  0.17300000000E+03 0. -1.
<mgrwt>
<rscale>  2 0.19893952E+03</rscale>
<asrwt>0</asrwt>
<pdfrwt beam="1">  1       21 0.94191930E-02 0.19893952E+03</pdfrwt>
<pdfrwt beam="2">  1       21 0.15863065E+00 0.19893952E+03</pdfrwt>
<totfact> 0.23129901E+04</totfact>
</mgrwt>
</event>
<event>
 4    1  0.4053645E-001  0.2116224E+03  0.7546771E-02  0.1140288E+00
         21   -1    0    0  501  502  0.00000000000E+00  0.00000000000E+00  0.54864558966E+03  0.54864558966E+03  0.00000000000E+00 0. -1.
         21   -1    0    0  502  503 -0.00000000000E+00 -0.00000000000E+00 -0.96260258987E+02  0.96260258987E+02  0.00000000000E+00 0.  1.
          6    1    1    2  501    0  0.10655871594E+03  0.59163239134E+02  0.35191717656E+03  0.41064552593E+03  0.17300000000E+03 0.  1.
         -6    1    1    2    0  503 -0.10655871594E+03 -0.59163239134E+02  0.10046815411E+03  0.23426032271E+03  0.17300000000E+03 0.  1.
<mgrwt>
<rscale>  2 0.21162242E+03</rscale>
<asrwt>0</asrwt>
<pdfrwt beam="1">  1       21 0.84407012E-01 0.21162242E+03</pdfrwt>
<pdfrwt beam="2">  1       21 0.14809271E-01 0.21162242E+03</pdfrwt>
<totfact> 0.48428215E+04</totfact>
</mgrwt>
</event>
<event>
 4    1  0.4053645E-001  0.1735757E+03  0.7546771E-02  0.1174169E+00
         21   -1    0    0  503  502  0.00000000000E+00  0.00000000000E+00  0.11827370517E+03  0.11827370517E+03  0.00000000000E+00 0.  1.
         21   -1    0    0  501  503 -0.00000000000E+00 -0.00000000000E+00 -0.26043751242E+03  0.26043751242E+03  0.00000000000E+00 0. -1.
          6    1    1    2  501    0 -0.12383478896E+02  0.67956581864E+01 -0.99099702463E+02  0.19987316615E+03  0.17300000000E+03 0. -1.
         -6    1    1    2    0  502  0.12383478896E+02 -0.67956581864E+01 -0.43064104785E+02  0.17883805143E+03  0.17300000000E+03 0.  1.
<mgrwt>
<rscale>  2 0.17357572E+03</rscale>
<asrwt>0</asrwt>
<pdfrwt beam="1">  1       21 0.18195955E-01 0.17357572E+03</pdfrwt>
<pdfrwt beam="2">  1       21 0.40067309E-01 0.17357572E+03</pdfrwt>
<totfact> 0.16618663E+05</totfact>
</mgrwt>
</event>
<event>
 4    1  0.4053645E-001  0.2332358E+03  0.7546771E-02  0.1124383E+00
         21   -1    0    0  503  502  0.00000000000E+00  0.00000000000E+00  0.79426419002E+02  0.79426419002E+02  0.00000000000E+00 0.  1.
         21   -1    0    0  501  503 -0.00000000000E+00 -0.00000000000E+00 -0.72395799148E+03  0.72395799148E+03  0.00000000000E+00 0. -1.
          6    1    1    2  501    0  0.58930495736E+02  0.14490392945E+03 -0.22896058958E+03  0.32683620314E+03  0.17300000000E+03 0.  1.
         -6    1    1    2    0  502 -0.58930495736E+02 -0.14490392945E+03 -0.41557098290E+03  0.47654820735E+03  0.17300000000E+03 0. -1.
<mgrwt>
<rscale>  2 0.23323583E+03</rscale>
<asrwt>0</asrwt>
<pdfrwt beam="1">  1       21 0.12219449E-01 0.23323583E+03</pdfrwt>
<pdfrwt beam="2">  1       21 0.11137815E+00 0.23323583E+03</pdfrwt>
<totfact> 0.35229416E+04</totfact>
</mgrwt>
</event>
<event>
 4    1  0.4053645E-001  0.1887759E+03  0.7546771E-02  0.1159570E+00
         21   -1    0    0  501  502  0.00000000000E+00  0.00000000000E+00  0.68809886405E+03  0.68809886405E+03  0.00000000000E+00 0.  1.
         21   -1    0    0  502  503 -0.00000000000E+00 -0.00000000000E+00 -0.89031224295E+02  0.89031224295E+02  0.00000000000E+00 0.  1.
          6    1    1    2  501    0  0.37681390070E+02 -0.65478776298E+02  0.55084217489E+03  0.58229155836E+03  0.17300000000E+03 0. -1.
         -6    1    1    2    0  503 -0.37681390070E+02  0.65478776298E+02  0.48225464861E+02  0.19483852998E+03  0.17300000000E+03 0. -1.
<mgrwt>
<rscale>  2 0.18877594E+03</rscale>
<asrwt>0</asrwt>
<pdfrwt beam="1">  1       21 0.10586136E+00 0.18877594E+03</pdfrwt>
<pdfrwt beam="2">  1       21 0.13697112E-01 0.18877594E+03</pdfrwt>
<totfact> 0.33212016E+04</totfact>
</mgrwt>
</event>
<event>
 4    1  0.4053645E-001  0.1834078E+03  0.7546771E-02  0.1164545E+00
         21   -1    0    0  501  502  0.00000000000E+00  0.00000000000E+00  0.59203228029E+03  0.59203228029E+03  0.00000000000E+00 0. -1.
         21   -1    0    0  502  503 -0.00000000000E+00 -0.00000000000E+00 -0.67053286514E+02  0.67053286514E+02  0.00000000000E+00 0. -1.
          6    1    1    2  501    0  0.15991200024E+02 -0.58768350293E+02  0.39123715103E+03  0.43209367713E+03  0.17300000000E+03 0. -1.
         -6    1    1    2    0  503 -0.15991200024E+02  0.58768350293E+02  0.13374184275E+03  0.22699188967E+03  0.17300000000E+03 0. -1.
<mgrwt>
<rscale>  2 0.18340784E+03</rscale>
<asrwt>0</asrwt>
<pdfrwt beam="1">  1       21 0.91081886E-01 0.18340784E+03</pdfrwt>
<pdfrwt beam="2">  1       21 0.10315891E-01 0.18340784E+03</pdfrwt>
<totfact> 0.78797512E+04</totfact>
</mgrwt>
</event>
<event>
 4    1  0.4053645E-001  0.3020250E+03  0.7546771E-02  0.1084233E+00
         21   -1    0    0  503  502  0.00000000000E+00  0.00000000000E+00  0.31037588082E+03  0.31037588082E+03  0.00000000000E+00 0. -1.
         21   -1    0    0  501  503 -0.00000000000E+00 -0.00000000000E+00 -0.74710367421E+03  0.74710367421E+03  0.00000000000E+00 0. -1.
          6    1    1    2  501    0 -0.24450806028E+03 -0.38805982466E+02 -0.63017574598E+03  0.69881368521E+03  0.17300000000E+03 0. -1.
         -6    1    1    2    0  502  0.24450806028E+03  0.38805982466E+02  0.19344795259E+03  0.35866586982E+03  0.17300000000E+03 0. -1.
<mgrwt>
<rscale>  2 0.30202499E+03</rscale>
<asrwt>0</asrwt>
<pdfrwt beam="1">  1       21 0.47750136E-01 0.30202499E+03</pdfrwt>
<pdfrwt beam="2">  1       21 0.11493903E+00 0.30202499E+03</pdfrwt>
<totfact> 0.22732966E+03</totfact>
</mgrwt>
</event>
<event>
 4    1  0.4053645E-001  0.2032020E+03  0.7546771E-02  0.1147065E+00
         21   -1    0    0  503  502  0.00000000000E+00  0.00000000000E+00  0.33843861540E+02  0.33843861540E+02  0.00000000000E+00 0. -1.
         21   -1    0    0  501  503 -0.00000000000E+00 -0.00000000000E+00 -0.12202740942E+04  0.12202740942E+04  0.00000000000E+00 0. -1.
          6    1    1    2  501    0 -0.38846360449E+02 -0.99262293045E+02 -0.60180226352E+03  0.63518265634E+03  0.17300000000E+03 0.  1.
         -6    1    1    2    0  502  0.38846360449E+02  0.99262293045E+02 -0.58462796918E+03  0.61893529944E+03  0.17300000000E+03 0.  1.
<mgrwt>
<rscale>  2 0.20320197E+03</rscale>
<asrwt>0</asrwt>
<pdfrwt beam="1">  1       21 0.52067491E-02 0.20320197E+03</pdfrwt>
<pdfrwt beam="2">  1       21 0.18773443E+00 0.20320197E+03</pdfrwt>
<totfact> 0.40261482E+04</totfact>
</mgrwt>
</event>
<event>
 4    1  0.4053645E-001  0.2077309E+03  0.7546771E-02  0.1143376E+00
         21   -1    0    0  503  502  0.00000000000E+00  0.00000000000E+00  0.13328364260E+03  0.13328364260E+03  0.00000000000E+00 0. -1.
         21   -1    0    0  501  503 -0.00000000000E+00 -0.00000000000E+00 -0.44354222855E+03  0.44354222855E+03  0.00000000000E+00 0. -1.
          6    1    1    2  501    0 -0.75533749512E+02 -0.86705021624E+02 -0.52502963920E+01  0.20779719368E+03  0.17300000000E+03 0. -1.
         -6    1    1    2    0  502  0.75533749512E+02  0.86705021624E+02 -0.30500828956E+03  0.36902867746E+03  0.17300000000E+03 0. -1.
<mgrwt>
<rscale>  2 0.20773085E+03</rscale>
<asrwt>0</asrwt>
<pdfrwt beam="1">  1       21 0.20505175E-01 0.20773085E+03</pdfrwt>
<pdfrwt beam="2">  1       21 0.68237267E-01 0.20773085E+03</pdfrwt>
<totfact> 0.42846810E+04</totfact>
</mgrwt>
</event>
<event>
 4    1  0.4053645E-001  0.2258160E+03  0.7546771E-02  0.1129620E+00
         21   -1    0    0  501  502  0.00000000000E+00  0.00000000000E+00  0.10766990334E+03  0.10766990334E+03  0.00000000000E+00 0. -1.
         21   -1    0    0  502  503 -0.00000000000E+00 -0.00000000000E+00 -0.64881322321E+03  0.64881322321E+03  0.00000000000E+00 0.  1.
          6    1    1    2  501    0  0.20960029799E+02  0.14361248065E+03 -0.74014791309E+02  0.23763639616E+03  0.17300000000E+03 0. -1.
         -6    1    1    2    0  503 -0.20960029799E+02 -0.14361248065E+03 -0.46712852856E+03  0.51884673040E+03  0.17300000000E+03 0.  1.
<mgrwt>
<rscale>  2 0.22581600E+03</rscale>
<asrwt>0</asrwt>
<pdfrwt beam="1">  1       21 0.16564601E-01 0.22581600E+03</pdfrwt>
<pdfrwt beam="2">  1       21 0.99817418E-01 0.22581600E+03</pdfrwt>
<totfact> 0.26479706E+04</totfact>
</mgrwt>
</event>
<event>
 4    1  0.4053645E-001  0.2959338E+03  0.7546771E-02  0.1087291E+00
         21   -1    0    0  501  502  0.00000000000E+00  0.00000000000E+00  0.66594381620E+03  0.66594381620E+03  0.00000000000E+00 0. -1.
         21   -1    0    0  502  503 -0.00000000000E+00 -0.00000000000E+00 -0.13805420503E+03  0.13805420503E+03  0.00000000000E+00 0.  1.
          6    1    1    2  501    0  0.35023967733E+02 -0.23753127396E+03  0.35148402799E+03  0.45947557754E+03  0.17300000000E+03 0.  1.
         -6    1    1    2    0  503 -0.35023967733E+02  0.23753127396E+03  0.17640558318E+03  0.34452244368E+03  0.17300000000E+03 0. -1.
<mgrwt>
<rscale>  2 0.29593375E+03</rscale>
<asrwt>0</asrwt>
<pdfrwt beam="1">  1       21 0.10245289E+00 0.29593375E+03</pdfrwt>
<pdfrwt beam="2">  1       21 0.21239109E-01 0.29593375E+03</pdfrwt>
<totfact> 0.15111335E+04</totfact>
</mgrwt>
</event>
<event>
 4    1  0.4053645E-001  0.1748460E+03  0.7546771E-02  0.1172886E+00
         21   -1    0    0  501  502  0.00000000000E+00  0.00000000000E+00  0.16749721627E+04  0.16749721627E+04  0.00000000000E+00 0.  1.
         21   -1    0    0  502  503 -0.00000000000E+00 -0.00000000000E+00 -0.28828787657E+02  0.28828787657E+02  0.00000000000E+00 0.  1.
          6    1    1    2  501    0  0.35932261072E+01 -0.25083940246E+02  0.13390820284E+04  0.13504487381E+04  0.17300000000E+03 0.  1.
         -6    1    1    2    0  503 -0.35932261072E+01  0.25083940246E+02  0.30706134660E+03  0.35335221226E+03  0.17300000000E+03 0.  1.
<mgrwt>
<rscale>  2 0.17484598E+03</rscale>
<asrwt>0</asrwt>
<pdfrwt beam="1">  1       21 0.25768795E+00 0.17484598E+03</pdfrwt>
<pdfrwt beam="2">  1       21 0.44351994E-02 0.17484598E+03</pdfrwt>
<totfact> 0.20072933E+04</totfact>
</mgrwt>
</event>
<event>
 4    1  0.4053645E-001  0.1854547E+03  0.7546771E-02  0.1162626E+00
         21   -1    0    0  501  502  0.00000000000E+00  0.00000000000E+00  0.11277575993E+04  0.11277575993E+04  0.00000000000E+00 0. -1.
         21   -1    0    0  502  503 -0.00000000000E+00 -0.00000000000E+00 -0.31805846687E+02  0.31805846687E+02  0.00000000000E+00 0.  1.
          6    1    1    2  501    0 -0.52172508594E+02 -0.41743095267E+02  0.66557961462E+03  0.69093391873E+03  0.17300000000E+03 0. -1.
         -6    1    1    2    0  503  0.52172508594E+02  0.41743095267E+02  0.43037213799E+03  0.46862952726E+03  0.17300000000E+03 0. -1.
<mgrwt>
<rscale>  2 0.18545473E+03</rscale>
<asrwt>0</asrwt>
<pdfrwt beam="1">  1       21 0.17350114E+00 0.18545473E+03</pdfrwt>
<pdfrwt beam="2">  1       21 0.48932081E-02 0.18545473E+03</pdfrwt>
<totfact> 0.56513963E+04</totfact>
</mgrwt>
</event>
<event>
 4    1  0.4053645E-001  0.2223263E+03  0.7546771E-02  0.1132161E+00
         21   -1    0    0  503  502  0.00000000000E+00  0.00000000000E+00  0.14989880477E+04  0.14989880477E+04  0.00000000000E+00 0. -1.
         21   -1    0    0  501  503 -0.00000000000E+00 -0.00000000000E+00 -0.80711479820E+02  0.80711479820E+02  0.00000000000E+00 0. -1.
          6    1    1    2  501    0 -0.76287136353E+02 -0.11696258281E+03  0.10169950779E+03  0.24448264322E+03  0.17300000000E+03 0. -1.
         -6    1    1    2    0  502  0.76287136353E+02  0.11696258281E+03  0.13165770601E+04  0.13352168843E+04  0.17300000000E+03 0. -1.
<mgrwt>
<rscale>  2 0.22232628E+03</rscale>
<asrwt>0</asrwt>
<pdfrwt beam="1">  1       21 0.23061353E+00 0.22232628E+03</pdfrwt>
<pdfrwt beam="2">  1       21 0.12417152E-01 0.22232628E+03</pdfrwt>
<totfact> 0.46532474E+03</totfact>
</mgrwt>
</event>
<event>
 4    1  0.4053645E-001  0.3363746E+03  0.7546771E-02  0.1068351E+00
         21   -1    0    0  503  502  0.00000000000E+00  0.00000000000E+00  0.28377478647E+03  0.28377478647E+03  0.00000000000E+00 0. -1.
         21   -1    0    0  501  503 -0.00000000000E+00 -0.00000000000E+00 -0.50695614167E+03  0.50695614167E+03  0.00000000000E+00 0. -1.
          6    1    1    2  501    0 -0.18960380079E+03  0.21741500652E+03 -0.29427075145E+03  0.44692634907E+03  0.17300000000E+03 0. -1.
         -6    1    1    2    0  502  0.18960380079E+03 -0.21741500652E+03  0.71089396257E+02  0.34380457907E+03  0.17300000000E+03 0. -1.
<mgrwt>
<rscale>  2 0.33637462E+03</rscale>
<asrwt>0</asrwt>
<pdfrwt beam="1">  1       21 0.43657660E-01 0.33637462E+03</pdfrwt>
<pdfrwt beam="2">  1       21 0.77993252E-01 0.33637462E+03</pdfrwt>
<totfact> 0.67699510E+03</totfact>
</mgrwt>
</event>
<event>
 4    1  0.4053645E-001  0.1760657E+03  0.7546771E-02  0.1171666E+00
         21   -1    0    0  503  502  0.00000000000E+00  0.00000000000E+00  0.65108963160E+02  0.65108963160E+02  0.00000000000E+00 0.  1.
         21   -1    0    0  501  503 -0.00000000000E+00 -0.00000000000E+00 -0.51458030927E+03  0.51458030927E+03  0.00000000000E+00 0.  1.
          6    1    1    2  501    0 -0.32417133546E+01 -0.32551792612E+02 -0.30398451094E+03  0.35129148979E+03  0.17300000000E+03 0. -1.
         -6    1    1    2    0  502  0.32417133546E+01  0.32551792612E+02 -0.14548683517E+03  0.22839778264E+03  0.17300000000E+03 0. -1.
<mgrwt>
<rscale>  2 0.17606569E+03</rscale>
<asrwt>0</asrwt>
<pdfrwt beam="1">  1       21 0.10016763E-01 0.17606569E+03</pdfrwt>
<pdfrwt beam="2">  1       21 0.79166204E-01 0.17606569E+03</pdfrwt>
<totfact> 0.11465543E+05</totfact>
</mgrwt>
</event>
<event>
 4    1  0.4053645E-001  0.2990014E+03  0.7546771E-02  0.1085741E+00
         21   -1    0    0  503  502  0.00000000000E+00  0.00000000000E+00  0.48802769650E+03  0.48802769650E+03  0.00000000000E+00 0. -1.
         21   -1    0    0  501  503 -0.00000000000E+00 -0.00000000000E+00 -0.19636543801E+03  0.19636543801E+03  0.00000000000E+00 0.  1.
          6    1    1    2  501    0  0.32175579123E+00  0.24387034090E+03  0.57192329793E+02  0.30442209066E+03  0.17300000000E+03 0.  1.
         -6    1    1    2    0  502 -0.32175579123E+00 -0.24387034090E+03  0.23446992870E+03  0.37997104384E+03  0.17300000000E+03 0. -1.
<mgrwt>
<rscale>  2 0.29900142E+03</rscale>
<asrwt>0</asrwt>
<pdfrwt beam="1">  1       21 0.75081184E-01 0.29900142E+03</pdfrwt>
<pdfrwt beam="2">  1       21 0.30210068E-01 0.29900142E+03</pdfrwt>
<totfact> 0.15773225E+04</totfact>
</mgrwt>
</event>
<event>
 4    1  0.4053645E-001  0.1801307E+03  0.7546771E-02  0.1167677E+00
         21   -1    0    0  503  502  0.00000000000E+00  0.00000000000E+00  0.13662902608E+04  0.13662902608E+04  0.00000000000E+00 0.  1.
         21   -1    0    0  501  503 -0.00000000000E+00 -0.00000000000E+00 -0.45181884198E+02  0.45181884198E+02  0.00000000000E+00 0.  1.
          6    1    1    2  501    0  0.38651849517E+02 -0.32001637766E+02  0.11466339655E+04  0.11606965672E+04  0.17300000000E+03 0.  1.
         -6    1    1    2    0  502 -0.38651849517E+02  0.32001637766E+02  0.17447441113E+03  0.25077557782E+03  0.17300000000E+03 0.  1.
<mgrwt>
<rscale>  2 0.18013070E+03</rscale>
<asrwt>0</asrwt>
<pdfrwt beam="1">  1       21 0.21019847E+00 0.18013070E+03</pdfrwt>
<pdfrwt beam="2">  1       21 0.69510602E-02 0.18013070E+03</pdfrwt>
<totfact> 0.17896670E+04</totfact>
</mgrwt>
</event>
<event>
 4    1  0.4053645E-001  0.1743547E+03  0.7546771E-02  0.1173381E+00
         21   -1    0    0  501  502  0.00000000000E+00  0.00000000000E+00  0.30301097930E+04  0.30301097930E+04  0.00000000000E+00 0.  1.
         21   -1    0    0  502  503 -0.00000000000E+00 -0.00000000000E+00 -0.10061213481E+02  0.10061213481E+02  0.00000000000E+00 0.  1.
          6    1    1    2  501    0 -0.21193975105E+02  0.46238133492E+01  0.15912355729E+04  0.16007592613E+04  0.17300000000E+03 0.  1.
         -6    1    1    2    0  503  0.21193975105E+02 -0.46238133492E+01  0.14288130066E+04  0.14394117452E+04  0.17300000000E+03 0.  1.
<mgrwt>
<rscale>  2 0.17435471E+03</rscale>
<asrwt>0</asrwt>
<pdfrwt beam="1">  1       21 0.46617001E+00 0.17435471E+03</pdfrwt>
<pdfrwt beam="2">  1       21 0.15478814E-02 0.17435471E+03</pdfrwt>
<totfact> 0.62121268E+03</totfact>
</mgrwt>
</event>
<event>
 4    1  0.4053645E-001  0.3043276E+03  0.7546771E-02  0.1083097E+00
         21   -1    0    0  503  502  0.00000000000E+00  0.00000000000E+00  0.17489503548E+04  0.17489503548E+04  0.00000000000E+00 0.  1.
         21   -1    0    0  501  503 -0.00000000000E+00 -0.00000000000E+00 -0.58989108184E+02  0.58989108184E+02  0.00000000000E+00 0. -1.
          6    1    1    2  501    0 -0.24937698611E+03  0.22303098335E+02  0.55585814501E+03  0.63371412070E+03  0.17300000000E+03 0.  1.
         -6    1    1    2    0  502  0.24937698611E+03 -0.22303098335E+02  0.11341031016E+04  0.11742253423E+04  0.17300000000E+03 0. -1.
<mgrwt>
<rscale>  2 0.30432763E+03</rscale>
<asrwt>0</asrwt>
<pdfrwt beam="1">  1       21 0.26906925E+00 0.30432763E+03</pdfrwt>
<pdfrwt beam="2">  1       21 0.90752488E-02 0.30432763E+03</pdfrwt>
<totfact> 0.44978865E+03</totfact>
</mgrwt>
</event>
<event>
 4    1  0.4053645E-001  0.1742371E+03  0.7546771E-02  0.1173500E+00
         21   -1    0    0  501  502  0.00000000000E+00  0.00000000000E+00  0.11899088420E+04  0.11899088420E+04  0.00000000000E+00 0. -1.
         21   -1    0    0  502  503 -0.00000000000E+00 -0.00000000000E+00 -0.27890958295E+02  0.27890958295E+02  0.00000000000E+00 0. -1.
          6    1    1    2  501    0  0.11355143695E+02 -0.17338203286E+02  0.40322809708E+03  0.43926239408E+03  0.17300000000E+03 0. -1.
         -6    1    1    2    0  503 -0.11355143695E+02  0.17338203286E+02  0.75878978659E+03  0.77853740617E+03  0.17300000000E+03 0. -1.
<mgrwt>
<rscale>  2 0.17423706E+03</rscale>
<asrwt>0</asrwt>
<pdfrwt beam="1">  1       21 0.18306286E+00 0.17423706E+03</pdfrwt>
<pdfrwt beam="2">  1       21 0.42909176E-02 0.17423706E+03</pdfrwt>
<totfact> 0.61094856E+04</totfact>
</mgrwt>
</event>
<event>
 4    1  0.4053645E-001  0.2392916E+03  0.7546771E-02  0.1120266E+00
         21   -1    0    0  503  502  0.00000000000E+00  0.00000000000E+00  0.17296638551E+03  0.17296638551E+03  0.00000000000E+00 0. -1.
         21   -1    0    0  501  503 -0.00000000000E+00 -0.00000000000E+00 -0.42773855655E+03  0.42773855655E+03  0.00000000000E+00 0. -1.
          6    1    1    2  501    0 -0.16387520372E+03 -0.21826237018E+02 -0.27018676067E+03  0.36091737650E+03  0.17300000000E+03 0. -1.
         -6    1    1    2    0  502  0.16387520372E+03  0.21826237018E+02  0.15414589634E+02  0.23978756555E+03  0.17300000000E+03 0. -1.
<mgrwt>
<rscale>  2 0.23929159E+03</rscale>
<asrwt>0</asrwt>
<pdfrwt beam="1">  1       21 0.26610213E-01 0.23929159E+03</pdfrwt>
<pdfrwt beam="2">  1       21 0.65805932E-01 0.23929159E+03</pdfrwt>
<totfact> 0.27827559E+04</totfact>
</mgrwt>
</event>
<event>
 4    1  0.4053645E-001  0.2151161E+03  0.7546771E-02  0.1137577E+00
         21   -1    0    0  503  502  0.00000000000E+00  0.00000000000E+00  0.16572949630E+03  0.16572949630E+03  0.00000000000E+00 0. -1.
         21   -1    0    0  501  503 -0.00000000000E+00 -0.00000000000E+00 -0.40206155050E+03  0.40206155050E+03  0.00000000000E+00 0.  1.
          6    1    1    2  501    0 -0.10677371996E+02 -0.12740452964E+03 -0.27508868628E+03  0.34921154873E+03  0.17300000000E+03 0.  1.
         -6    1    1    2    0  502  0.10677371996E+02  0.12740452964E+03  0.38756632075E+02  0.21857949807E+03  0.17300000000E+03 0. -1.
<mgrwt>
<rscale>  2 0.21511606E+03</rscale>
<asrwt>0</asrwt>
<pdfrwt beam="1">  1       21 0.25496846E-01 0.21511606E+03</pdfrwt>
<pdfrwt beam="2">  1       21 0.61855622E-01 0.21511606E+03</pdfrwt>
<totfact> 0.34986434E+04</totfact>
</mgrwt>
</event>
<event>
 4    1  0.4053645E-001  0.1833176E+03  0.7546771E-02  0.1164630E+00
         21   -1    0    0  501  502  0.00000000000E+00  0.00000000000E+00  0.13807658319E+03  0.13807658319E+03  0.00000000000E+00 0.  1.
         21   -1    0    0  502  503 -0.00000000000E+00 -0.00000000000E+00 -0.24340086202E+03  0.24340086202E+03  0.00000000000E+00 0. -1.
          6    1    1    2  501    0  0.12017575676E+02  0.59429963460E+02 -0.54345177668E+02  0.19120340221E+03  0.17300000000E+03 0. -1.
         -6    1    1    2    0  503 -0.12017575676E+02 -0.59429963460E+02 -0.50979101158E+02  0.19027404299E+03  0.17300000000E+03 0. -1.
<mgrwt>
<rscale>  2 0.18331760E+03</rscale>
<asrwt>0</asrwt>
<pdfrwt beam="1">  1       21 0.21242551E-01 0.18331760E+03</pdfrwt>
<pdfrwt beam="2">  1       21 0.37446286E-01 0.18331760E+03</pdfrwt>
<totfact> 0.14224778E+05</totfact>
</mgrwt>
</event>
<event>
 4    1  0.4053645E-001  0.2676510E+03  0.7546771E-02  0.1102632E+00
         21   -1    0    0  503  502  0.00000000000E+00  0.00000000000E+00  0.38490874161E+03  0.38490874161E+03  0.00000000000E+00 0. -1.
         21   -1    0    0  501  503 -0.00000000000E+00 -0.00000000000E+00 -0.21100277546E+03  0.21100277546E+03  0.00000000000E+00 0.  1.
          6    1    1    2  501    0 -0.13871900984E+02 -0.20375380001E+03 -0.15377824503E+02  0.26809236867E+03  0.17300000000E+03 0. -1.
         -6    1    1    2    0  502  0.13871900984E+02  0.20375380001E+03  0.18928379065E+03  0.32781914840E+03  0.17300000000E+03 0.  1.
<mgrwt>
<rscale>  2 0.26765097E+03</rscale>
<asrwt>0</asrwt>
<pdfrwt beam="1">  1       21 0.59216729E-01 0.26765097E+03</pdfrwt>
<pdfrwt beam="2">  1       21 0.32461965E-01 0.26765097E+03</pdfrwt>
<totfact> 0.23424842E+04</totfact>
</mgrwt>
</event>
<event>
 4    1  0.4053645E-001  0.2217280E+03  0.7546771E-02  0.1132601E+00
         21   -1    0    0  501  502  0.00000000000E+00  0.00000000000E+00  0.66829020118E+03  0.66829020118E+03  0.00000000000E+00 0.  1.
         21   -1    0    0  502  503 -0.00000000000E+00 -0.00000000000E+00 -0.73961810894E+02  0.73961810894E+02  0.00000000000E+00 0. -1.
          6    1    1    2  501    0  0.95970986449E+02 -0.10011938698E+03  0.27000881303E+03  0.34938242801E+03  0.17300000000E+03 0.  1.
         -6    1    1    2    0  503 -0.95970986449E+02  0.10011938698E+03  0.32431957725E+03  0.39286958406E+03  0.17300000000E+03 0.  1.
<mgrwt>
<rscale>  2 0.22172804E+03</rscale>
<asrwt>0</asrwt>
<pdfrwt beam="1">  1       21 0.10281387E+00 0.22172804E+03</pdfrwt>
<pdfrwt beam="2">  1       21 0.11378741E-01 0.22172804E+03</pdfrwt>
<totfact> 0.48862862E+04</totfact>
</mgrwt>
</event>
<event>
 4    1  0.4053645E-001  0.2178731E+03  0.7546771E-02  0.1135479E+00
         21   -1    0    0  501  502  0.00000000000E+00  0.00000000000E+00  0.43317841287E+03  0.43317841287E+03  0.00000000000E+00 0. -1.
         21   -1    0    0  502  503 -0.00000000000E+00 -0.00000000000E+00 -0.13093123254E+03  0.13093123254E+03  0.00000000000E+00 0.  1.
          6    1    1    2  501    0  0.10569927196E+03 -0.79795717520E+02  0.26501732829E+03  0.34307852880E+03  0.17300000000E+03 0. -1.
         -6    1    1    2    0  503 -0.10569927196E+03  0.79795717520E+02  0.37229852042E+02  0.22103111661E+03  0.17300000000E+03 0.  1.
<mgrwt>
<rscale>  2 0.21787311E+03</rscale>
<asrwt>0</asrwt>
<pdfrwt beam="1">  1       21 0.66642832E-01 0.21787311E+03</pdfrwt>
<pdfrwt beam="2">  1       21 0.20143267E-01 0.21787311E+03</pdfrwt>
<totfact> 0.46435223E+04</totfact>
</mgrwt>
</event>
<event>
 4    1  0.4053645E-001  0.1992443E+03  0.7546771E-02  0.1150378E+00
         21   -1    0    0  501  502  0.00000000000E+00  0.00000000000E+00  0.63989346934E+03  0.63989346934E+03  0.00000000000E+00 0.  1.
         21   -1    0    0  502  503 -0.00000000000E+00 -0.00000000000E+00 -0.68531515882E+02  0.68531515882E+02  0.00000000000E+00 0.  1.
          6    1    1    2  501    0 -0.97555115042E+02 -0.15883144970E+02  0.39470675537E+03  0.44214443059E+03  0.17300000000E+03 0. -1.
         -6    1    1    2    0  503  0.97555115042E+02  0.15883144970E+02  0.17665519809E+03  0.26628055463E+03  0.17300000000E+03 0. -1.
<mgrwt>
<rscale>  2 0.19924426E+03</rscale>
<asrwt>0</asrwt>
<pdfrwt beam="1">  1       21 0.98445145E-01 0.19924426E+03</pdfrwt>
<pdfrwt beam="2">  1       21 0.10543311E-01 0.19924426E+03</pdfrwt>
<totfact> 0.62751190E+04</totfact>
</mgrwt>
</event>
<event>
 4    1  0.4053645E-001  0.2113674E+03  0.7546771E-02  0.1140488E+00
         21   -1    0    0  503  502  0.00000000000E+00  0.00000000000E+00  0.20286794523E+03  0.20286794523E+03  0.00000000000E+00 0.  1.
         21   -1    0    0  501  503 -0.00000000000E+00 -0.00000000000E+00 -0.22361939483E+03  0.22361939483E+03  0.00000000000E+00 0.  1.
          6    1    1    2  501    0 -0.11891371236E+03 -0.24631259614E+02 -0.36656370759E+02  0.21452239849E+03  0.17300000000E+03 0.  1.
         -6    1    1    2    0  502  0.11891371236E+03  0.24631259614E+02  0.15904921156E+02  0.21196494157E+03  0.17300000000E+03 0.  1.
<mgrwt>
<rscale>  2 0.21136738E+03</rscale>
<asrwt>0</asrwt>
<pdfrwt beam="1">  1       21 0.31210453E-01 0.21136738E+03</pdfrwt>
<pdfrwt beam="2">  1       21 0.34402984E-01 0.21136738E+03</pdfrwt>
<totfact> 0.79679075E+04</totfact>
</mgrwt>
</event>
<event>
 4    1  0.4053645E-001  0.2049019E+03  0.7546771E-02  0.1145668E+00
         21   -1    0    0  501  502  0.00000000000E+00  0.00000000000E+00  0.13090155119E+04  0.13090155119E+04  0.00000000000E+00 0. -1.
         21   -1    0    0  502  503 -0.00000000000E+00 -0.00000000000E+00 -0.32999682983E+02  0.32999682983E+02  0.00000000000E+00 0. -1.
          6    1    1    2  501    0  0.63779113066E+02  0.89375617921E+02  0.75041893592E+03  0.77789032371E+03  0.17300000000E+03 0. -1.
         -6    1    1    2    0  503 -0.63779113066E+02 -0.89375617921E+02  0.52559689300E+03  0.56412487117E+03  0.17300000000E+03 0. -1.
<mgrwt>
<rscale>  2 0.20490187E+03</rscale>
<asrwt>0</asrwt>
<pdfrwt beam="1">  1       21 0.20138696E+00 0.20490187E+03</pdfrwt>
<pdfrwt beam="2">  1       21 0.50768753E-02 0.20490187E+03</pdfrwt>
<totfact> 0.34188442E+04</totfact>
</mgrwt>
</event>
<event>
 4    1  0.4053645E-001  0.2241814E+03  0.7546771E-02  0.1130803E+00
         21   -1    0    0  501  502  0.00000000000E+00  0.00000000000E+00  0.82477289613E+03  0.82477289613E+03  0.00000000000E+00 0.  1.
         21   -1    0    0  502  503 -0.00000000000E+00 -0.00000000000E+00 -0.61373420026E+02  0.61373420026E+02  0.00000000000E+00 0. -1.
          6    1    1    2  501    0 -0.12702748871E+03 -0.64748203732E+02  0.41915947604E+03  0.47534406395E+03  0.17300000000E+03 0. -1.
         -6    1    1    2    0  503  0.12702748871E+03  0.64748203732E+02  0.34424000006E+03  0.41080225221E+03  0.17300000000E+03 0. -1.
<mgrwt>
<rscale>  2 0.22418143E+03</rscale>
<asrwt>0</asrwt>
<pdfrwt beam="1">  1       21 0.12688813E+00 0.22418143E+03</pdfrwt>
<pdfrwt beam="2">  1       21 0.94420652E-02 0.22418143E+03</pdfrwt>
<totfact> 0.40552999E+04</totfact>
</mgrwt>
</event>
<event>
 4    1  0.4053645E-001  0.2351824E+03  0.7546771E-02  0.1123044E+00
         21   -1    0    0  503  502  0.00000000000E+00  0.00000000000E+00  0.23874938190E+03  0.23874938190E+03  0.00000000000E+00 0. -1.
         21   -1    0    0  501  503 -0.00000000000E+00 -0.00000000000E+00 -0.40180151835E+03  0.40180151835E+03  0.00000000000E+00 0. -1.
          6    1    1    2  501    0 -0.15664338553E+03  0.29062042097E+02 -0.28993289735E+03  0.37332537750E+03  0.17300000000E+03 0. -1.
         -6    1    1    2    0  502  0.15664338553E+03 -0.29062042097E+02  0.12688076090E+03  0.26722552275E+03  0.17300000000E+03 0. -1.
<mgrwt>
<rscale>  2 0.23518238E+03</rscale>
<asrwt>0</asrwt>
<pdfrwt beam="1">  1       21 0.36730675E-01 0.23518238E+03</pdfrwt>
<pdfrwt beam="2">  1       21 0.61815617E-01 0.23518238E+03</pdfrwt>
<totfact> 0.16945403E+04</totfact>
</mgrwt>
</event>
<event>
 4    1  0.4053645E-001  0.2017429E+03  0.7546771E-02  0.1148277E+00
         21   -1    0    0  503  502  0.00000000000E+00  0.00000000000E+00  0.17662934235E+02  0.17662934235E+02  0.00000000000E+00 0. -1.
         21   -1    0    0  501  503 -0.00000000000E+00 -0.00000000000E+00 -0.23050980783E+04  0.23050980783E+04  0.00000000000E+00 0. -1.
          6    1    1    2  501    0 -0.72377563396E+02 -0.74381901001E+02 -0.11657227963E+04  0.11830510626E+04  0.17300000000E+03 0.  1.
         -6    1    1    2    0  502  0.72377563396E+02  0.74381901001E+02 -0.11217123477E+04  0.11397099499E+04  0.17300000000E+03 0.  1.
<mgrwt>
<rscale>  2 0.20174285E+03</rscale>
<asrwt>0</asrwt>
<pdfrwt beam="1">  1       21 0.27173747E-02 0.20174285E+03</pdfrwt>
<pdfrwt beam="2">  1       21 0.35463044E+00 0.20174285E+03</pdfrwt>
<totfact> 0.12104949E+04</totfact>
</mgrwt>
</event>
<event>
 4    1  0.4053645E-001  0.2057231E+03  0.7546771E-02  0.1144998E+00
         21   -1    0    0  501  502  0.00000000000E+00  0.00000000000E+00  0.46823743424E+02  0.46823743424E+02  0.00000000000E+00 0. -1.
         21   -1    0    0  502  503 -0.00000000000E+00 -0.00000000000E+00 -0.91522622258E+03  0.91522622258E+03  0.00000000000E+00 0.  1.
          6    1    1    2  501    0 -0.10992161193E+03  0.17613711620E+02 -0.48781229682E+03  0.52941745394E+03  0.17300000000E+03 0. -1.
         -6    1    1    2    0  503  0.10992161193E+03 -0.17613711620E+02 -0.38059018234E+03  0.43263251207E+03  0.17300000000E+03 0.  1.
<mgrwt>
<rscale>  2 0.20572312E+03</rscale>
<asrwt>0</asrwt>
<pdfrwt beam="1">  1       21 0.72036535E-02 0.20572312E+03</pdfrwt>
<pdfrwt beam="2">  1       21 0.14080402E+00 0.20572312E+03</pdfrwt>
<totfact> 0.50386834E+04</totfact>
</mgrwt>
</event>
<event>
 4    1  0.4053645E-001  0.1795696E+03  0.7546771E-02  0.1168220E+00
         21   -1    0    0  503  502  0.00000000000E+00  0.00000000000E+00  0.29681074193E+02  0.29681074193E+02  0.00000000000E+00 0.  1.
         21   -1    0    0  501  503 -0.00000000000E+00 -0.00000000000E+00 -0.14135774666E+04  0.14135774666E+04  0.00000000000E+00 0. -1.
          6    1    1    2  501    0 -0.41549893429E+02 -0.24286983898E+02 -0.10391260499E+04  0.10545274765E+04  0.17300000000E+03 0. -1.
         -6    1    1    2    0  502  0.41549893429E+02  0.24286983898E+02 -0.34477034251E+03  0.38873106424E+03  0.17300000000E+03 0.  1.
<mgrwt>
<rscale>  2 0.17956963E+03</rscale>
<asrwt>0</asrwt>
<pdfrwt beam="1">  1       21 0.45663198E-02 0.17956963E+03</pdfrwt>
<pdfrwt beam="2">  1       21 0.21747342E+00 0.17956963E+03</pdfrwt>
<totfact> 0.33021345E+04</totfact>
</mgrwt>
</event>
<event>
 4    1  0.4053645E-001  0.1750076E+03  0.7546771E-02  0.1172724E+00
         21   -1    0    0  503  502  0.00000000000E+00  0.00000000000E+00  0.34698672807E+03  0.34698672807E+03  0.00000000000E+00 0. -1.
         21   -1    0    0  501  503 -0.00000000000E+00 -0.00000000000E+00 -0.18198755522E+03  0.18198755522E+03  0.00000000000E+00 0. -1.
          6    1    1    2  501    0  0.11180594175E+02  0.23951075486E+02 -0.10730203915E+03  0.20528367521E+03  0.17300000000E+03 0. -1.
         -6    1    1    2    0  502 -0.11180594175E+02 -0.23951075486E+02  0.27230121200E+03  0.32369060808E+03  0.17300000000E+03 0. -1.
<mgrwt>
<rscale>  2 0.17500760E+03</rscale>
<asrwt>0</asrwt>
<pdfrwt beam="1">  1       21 0.53382573E-01 0.17500760E+03</pdfrwt>
<pdfrwt beam="2">  1       21 0.27998086E-01 0.17500760E+03</pdfrwt>
<totfact> 0.40841364E+04</totfact>
</mgrwt>
</event>
<event>
 4    1  0.4053645E-001  0.1886218E+03  0.7546771E-02  0.1159710E+00
         21   -1    0    0  503  502  0.00000000000E+00  0.00000000000E+00  0.80446993663E+02  0.80446993663E+02  0.00000000000E+00 0. -1.
         21   -1    0    0  501  503 -0.00000000000E+00 -0.00000000000E+00 -0.50970519724E+03  0.50970519724E+03  0.00000000000E+00 0. -1.
          6    1    1    2  501    0 -0.62885103787E+02 -0.41165962884E+02 -0.32196935208E+03  0.37315202861E+03  0.17300000000E+03 0. -1.
         -6    1    1    2    0  502  0.62885103787E+02  0.41165962884E+02 -0.10728885149E+03  0.21700016229E+03  0.17300000000E+03 0. -1.
<mgrwt>
<rscale>  2 0.18862177E+03</rscale>
<asrwt>0</asrwt>
<pdfrwt beam="1">  1       21 0.12376461E-01 0.18862177E+03</pdfrwt>
<pdfrwt beam="2">  1       21 0.78416184E-01 0.18862177E+03</pdfrwt>
<totfact> 0.80024376E+04</totfact>
</mgrwt>
</event>
<event>
 4    1  0.4053645E-001  0.2194932E+03  0.7546771E-02  0.1134261E+00
         21   -1    0    0  501  502  0.00000000000E+00  0.00000000000E+00  0.11073665327E+03  0.11073665327E+03  0.00000000000E+00 0. -1.
         21   -1    0    0  502  503 -0.00000000000E+00 -0.00000000000E+00 -0.50926077007E+03  0.50926077007E+03  0.00000000000E+00 0. -1.
          6    1    1    2  501    0 -0.71305798704E+02  0.11473331116E+03 -0.80933459368E+02  0.23393904006E+03  0.17300000000E+03 0. -1.
         -6    1    1    2    0  503  0.71305798704E+02 -0.11473331116E+03 -0.31759065743E+03  0.38605838328E+03  0.17300000000E+03 0. -1.
<mgrwt>
<rscale>  2 0.21949317E+03</rscale>
<asrwt>0</asrwt>
<pdfrwt beam="1">  1       21 0.17036408E-01 0.21949317E+03</pdfrwt>
<pdfrwt beam="2">  1       21 0.78347810E-01 0.21949317E+03</pdfrwt>
<totfact> 0.44202269E+04</totfact>
</mgrwt>
</event>
<event>
 4    1  0.4053645E-001  0.1798744E+03  0.7546771E-02  0.1167925E+00
         21   -1    0    0  503  502  0.00000000000E+00  0.00000000000E+00  0.54247607645E+03  0.54247607645E+03  0.00000000000E+00 0. -1.
         21   -1    0    0  501  503 -0.00000000000E+00 -0.00000000000E+00 -0.75079141315E+02  0.75079141315E+02  0.00000000000E+00 0. -1.
          6    1    1    2  501    0 -0.79428434135E+01 -0.48607768505E+02  0.93688797559E+02  0.20281122925E+03  0.17300000000E+03 0. -1.
         -6    1    1    2    0  502  0.79428434135E+01  0.48607768505E+02  0.37370813758E+03  0.41474398852E+03  0.17300000000E+03 0. -1.
<mgrwt>
<rscale>  2 0.17987441E+03</rscale>
<asrwt>0</asrwt>
<pdfrwt beam="1">  1       21 0.83457855E-01 0.17987441E+03</pdfrwt>
<pdfrwt beam="2">  1       21 0.11550638E-01 0.17987441E+03</pdfrwt>
<totfact> 0.78921527E+04</totfact>
</mgrwt>
</event>
<event>
 4    1  0.4053645E-001  0.1813525E+03  0.7546771E-02  0.1166501E+00
         21   -1    0    0  501  502  0.00000000000E+00  0.00000000000E+00  0.65293773788E+03  0.65293773788E+03  0.00000000000E+00 0. -1.
         21   -1    0    0  502  503 -0.00000000000E+00 -0.00000000000E+00 -0.52212751473E+02  0.52212751473E+02  0.00000000000E+00 0. -1.
          6    1    1    2  501    0  0.15369028105E+02  0.52187256428E+02  0.36659223586E+03  0.40899704663E+03  0.17300000000E+03 0. -1.
         -6    1    1    2    0  503 -0.15369028105E+02 -0.52187256428E+02  0.23413275055E+03  0.29615344272E+03  0.17300000000E+03 0. -1.
<mgrwt>
<rscale>  2 0.18135247E+03</rscale>
<asrwt>0</asrwt>
<pdfrwt beam="1">  1       21 0.10045195E+00 0.18135247E+03</pdfrwt>
<pdfrwt beam="2">  1       21 0.80327315E-02 0.18135247E+03</pdfrwt>
<totfact> 0.97230898E+04</totfact>
</mgrwt>
</event>
<event>
 4    1  0.4053645E-001  0.3664998E+03  0.7546771E-02  0.1056039E+00
         21   -1    0    0  501  502  0.00000000000E+00  0.00000000000E+00  0.62852944809E+03  0.62852944809E+03  0.00000000000E+00 0. -1.
         21   -1    0    0  502  503 -0.00000000000E+00 -0.00000000000E+00 -0.48347052325E+03  0.48347052325E+03  0.00000000000E+00 0.  1.
          6    1    1    2  501    0 -0.83727871634E+02  0.31206213099E+03  0.48784686393E+03  0.61017759114E+03  0.17300000000E+03 0. -1.
         -6    1    1    2    0  503  0.83727871634E+02 -0.31206213099E+03 -0.34278793909E+03  0.50182238020E+03  0.17300000000E+03 0.  1.
<mgrwt>
<rscale>  2 0.36649984E+03</rscale>
<asrwt>0</asrwt>
<pdfrwt beam="1">  1       21 0.96696838E-01 0.36649984E+03</pdfrwt>
<pdfrwt beam="2">  1       21 0.74380081E-01 0.36649984E+03</pdfrwt>
<totfact> 0.12761014E+03</totfact>
</mgrwt>
</event>
<event>
 4    1  0.4053645E-001  0.1786402E+03  0.7546771E-02  0.1169126E+00
         21   -1    0    0  503  502  0.00000000000E+00  0.00000000000E+00  0.44033145646E+03  0.44033145646E+03  0.00000000000E+00 0. -1.
         21   -1    0    0  501  503 -0.00000000000E+00 -0.00000000000E+00 -0.72958805055E+02  0.72958805055E+02  0.00000000000E+00 0. -1.
          6    1    1    2  501    0 -0.43872269094E+02 -0.76526304225E+01  0.16275363708E+03  0.24166316461E+03  0.17300000000E+03 0. -1.
         -6    1    1    2    0  502  0.43872269094E+02  0.76526304225E+01  0.20461901432E+03  0.27162709690E+03  0.17300000000E+03 0. -1.
<mgrwt>
<rscale>  2 0.17864025E+03</rscale>
<asrwt>0</asrwt>
<pdfrwt beam="1">  1       21 0.67743300E-01 0.17864025E+03</pdfrwt>
<pdfrwt beam="2">  1       21 0.11224432E-01 0.17864025E+03</pdfrwt>
<totfact> 0.13230434E+05</totfact>
</mgrwt>
</event>
<event>
 4    1  0.4053645E-001  0.2535168E+03  0.7546771E-02  0.1111102E+00
         21   -1    0    0  503  502  0.00000000000E+00  0.00000000000E+00  0.11917689700E+04  0.11917689700E+04  0.00000000000E+00 0. -1.
         21   -1    0    0  501  503 -0.00000000000E+00 -0.00000000000E+00 -0.55884192898E+02  0.55884192898E+02  0.00000000000E+00 0.  1.
          6    1    1    2  501    0  0.17028879414E+03 -0.73099380094E+02  0.45125470979E+03  0.51759212309E+03  0.17300000000E+03 0. -1.
         -6    1    1    2    0  502 -0.17028879414E+03  0.73099380094E+02  0.68463006735E+03  0.73006103985E+03  0.17300000000E+03 0.  1.
<mgrwt>
<rscale>  2 0.25351685E+03</rscale>
<asrwt>0</asrwt>
<pdfrwt beam="1">  1       21 0.18334905E+00 0.25351685E+03</pdfrwt>
<pdfrwt beam="2">  1       21 0.85975690E-02 0.25351685E+03</pdfrwt>
<totfact> 0.17551027E+04</totfact>
</mgrwt>
</event>
<event>
 4    1  0.4053645E-001  0.2390386E+03  0.7546771E-02  0.1120435E+00
         21   -1    0    0  503  502  0.00000000000E+00  0.00000000000E+00  0.60593374952E+03  0.60593374952E+03  0.00000000000E+00 0. -1.
         21   -1    0    0  501  503 -0.00000000000E+00 -0.00000000000E+00 -0.10312606297E+03  0.10312606297E+03  0.00000000000E+00 0. -1.
          6    1    1    2  501    0 -0.11915211310E+03 -0.11407562780E+03  0.35512212685E+03  0.42807849735E+03  0.17300000000E+03 0. -1.
         -6    1    1    2    0  502  0.11915211310E+03  0.11407562780E+03  0.14768555970E+03  0.28098131514E+03  0.17300000000E+03 0. -1.
<mgrwt>
<rscale>  2 0.23903865E+03</rscale>
<asrwt>0</asrwt>
<pdfrwt beam="1">  1       21 0.93220575E-01 0.23903865E+03</pdfrwt>
<pdfrwt beam="2">  1       21 0.15865548E-01 0.23903865E+03</pdfrwt>
<totfact> 0.33471178E+04</totfact>
</mgrwt>
</event>
<event>
 4    1  0.4053645E-001  0.2121767E+03  0.7546771E-02  0.1139854E+00
         21   -1    0    0  501  502  0.00000000000E+00  0.00000000000E+00  0.13386621296E+03  0.13386621296E+03  0.00000000000E+00 0.  1.
         21   -1    0    0  502  503 -0.00000000000E+00 -0.00000000000E+00 -0.33631609777E+03  0.33631609777E+03  0.00000000000E+00 0.  1.
          6    1    1    2  501    0 -0.41740614461E+02 -0.11553207192E+03 -0.99499986509E+02  0.23434842831E+03  0.17300000000E+03 0.  1.
         -6    1    1    2    0  503  0.41740614461E+02  0.11553207192E+03 -0.10294989830E+03  0.23583388242E+03  0.17300000000E+03 0.  1.
<mgrwt>
<rscale>  2 0.21217667E+03</rscale>
<asrwt>0</asrwt>
<pdfrwt beam="1">  1       21 0.20594802E-01 0.21217667E+03</pdfrwt>
<pdfrwt beam="2">  1       21 0.51740937E-01 0.21217667E+03</pdfrwt>
<totfact> 0.76864568E+04</totfact>
</mgrwt>
</event>
<event>
 4    1  0.4053645E-001  0.1752147E+03  0.7546771E-02  0.1172516E+00
         21   -1    0    0  501  502  0.00000000000E+00  0.00000000000E+00  0.90617629531E+02  0.90617629531E+02  0.00000000000E+00 0. -1.
         21   -1    0    0  502  503 -0.00000000000E+00 -0.00000000000E+00 -0.40983600127E+03  0.40983600127E+03  0.00000000000E+00 0. -1.
          6    1    1    2  501    0  0.49620826997E+01  0.27323385022E+02 -0.55424493543E+02  0.18377177182E+03  0.17300000000E+03 0.  1.
         -6    1    1    2    0  503 -0.49620826997E+01 -0.27323385022E+02 -0.26379387819E+03  0.31668185898E+03  0.17300000000E+03 0.  1.
<mgrwt>
<rscale>  2 0.17521470E+03</rscale>
<asrwt>0</asrwt>
<pdfrwt beam="1">  1       21 0.13941174E-01 0.17521470E+03</pdfrwt>
<pdfrwt beam="2">  1       21 0.63051691E-01 0.17521470E+03</pdfrwt>
<totfact> 0.10501591E+05</totfact>
</mgrwt>
</event>
<event>
 4    1  0.4053645E-001  0.1734481E+03  0.7546771E-02  0.1174299E+00
         21   -1    0    0  503  502  0.00000000000E+00  0.00000000000E+00  0.68870565059E+03  0.68870565059E+03  0.00000000000E+00 0.  1.
         21   -1    0    0  501  503 -0.00000000000E+00 -0.00000000000E+00 -0.43696385380E+02  0.43696385380E+02  0.00000000000E+00 0.  1.
          6    1    1    2  501    0 -0.10179680754E+02  0.71837365996E+01  0.31592481802E+03  0.36040632988E+03  0.17300000000E+03 0.  1.
         -6    1    1    2    0  502  0.10179680754E+02 -0.71837365996E+01  0.32908444719E+03  0.37199570609E+03  0.17300000000E+03 0.  1.
<mgrwt>
<rscale>  2 0.17344807E+03</rscale>
<asrwt>0</asrwt>
<pdfrwt beam="1">  1       21 0.10595471E+00 0.17344807E+03</pdfrwt>
<pdfrwt beam="2">  1       21 0.67225214E-02 0.17344807E+03</pdfrwt>
<totfact> 0.11685495E+05</totfact>
</mgrwt>
</event>
<event>
 4    1  0.4053645E-001  0.1901439E+03  0.7546771E-02  0.1158332E+00
         21   -1    0    0  501  502  0.00000000000E+00  0.00000000000E+00  0.14172310766E+03  0.14172310766E+03  0.00000000000E+00 0. -1.
         21   -1    0    0  502  503 -0.00000000000E+00 -0.00000000000E+00 -0.30279601093E+03  0.30279601093E+03  0.00000000000E+00 0. -1.
          6    1    1    2  501    0  0.32770825493E+02  0.71775992025E+02 -0.16874065624E+03  0.25422063076E+03  0.17300000000E+03 0. -1.
         -6    1    1    2    0  503 -0.32770825493E+02 -0.71775992025E+02  0.76677529808E+01  0.19029848783E+03  0.17300000000E+03 0. -1.
<mgrwt>
<rscale>  2 0.19014395E+03</rscale>
<asrwt>0</asrwt>
<pdfrwt beam="1">  1       21 0.21803555E-01 0.19014395E+03</pdfrwt>
<pdfrwt beam="2">  1       21 0.46584002E-01 0.19014395E+03</pdfrwt>
<totfact> 0.86723091E+04</totfact>
</mgrwt>
</event>
<event>
 4    1  0.4053645E-001  0.1810346E+03  0.7546771E-02  0.1166805E+00
         21   -1    0    0  501  502  0.00000000000E+00  0.00000000000E+00  0.42321565214E+03  0.42321565214E+03  0.00000000000E+00 0. -1.
         21   -1    0    0  502  503 -0.00000000000E+00 -0.00000000000E+00 -0.78945627718E+02  0.78945627718E+02  0.00000000000E+00 0. -1.
          6    1    1    2  501    0 -0.45572365300E+02 -0.27707237845E+02  0.20681718609E+03  0.27485792689E+03  0.17300000000E+03 0. -1.
         -6    1    1    2    0  503  0.45572365300E+02  0.27707237845E+02  0.13745283833E+03  0.22730335297E+03  0.17300000000E+03 0. -1.
<mgrwt>
<rscale>  2 0.18103461E+03</rscale>
<asrwt>0</asrwt>
<pdfrwt beam="1">  1       21 0.65110099E-01 0.18103461E+03</pdfrwt>
<pdfrwt beam="2">  1       21 0.12145481E-01 0.18103461E+03</pdfrwt>
<totfact> 0.12522403E+05</totfact>
</mgrwt>
</event>
<event>
 4    1  0.4053645E-001  0.1942772E+03  0.7546771E-02  0.1154659E+00
         21   -1    0    0  501  502  0.00000000000E+00  0.00000000000E+00  0.13455325626E+03  0.13455325626E+03  0.00000000000E+00 0.  1.
         21   -1    0    0  502  503 -0.00000000000E+00 -0.00000000000E+00 -0.28115654074E+03  0.28115654074E+03  0.00000000000E+00 0. -1.
          6    1    1    2  501    0 -0.76858306345E+02 -0.43673962149E+02 -0.63338792954E+02  0.20434142242E+03  0.17300000000E+03 0. -1.
         -6    1    1    2    0  503  0.76858306345E+02  0.43673962149E+02 -0.83264491524E+02  0.21136837458E+03  0.17300000000E+03 0.  1.
<mgrwt>
<rscale>  2 0.19427716E+03</rscale>
<asrwt>0</asrwt>
<pdfrwt beam="1">  1       21 0.20700501E-01 0.19427716E+03</pdfrwt>
<pdfrwt beam="2">  1       21 0.43254852E-01 0.19427716E+03</pdfrwt>
<totfact> 0.11114931E+05</totfact>
</mgrwt>
</event>
<event>
 4    1  0.4053645E-001  0.2625502E+03  0.7546771E-02  0.1105621E+00
         21   -1    0    0  503  502  0.00000000000E+00  0.00000000000E+00  0.79715401493E+03  0.79715401493E+03  0.00000000000E+00 0.  1.
         21   -1    0    0  501  503 -0.00000000000E+00 -0.00000000000E+00 -0.87398435930E+02  0.87398435930E+02  0.00000000000E+00 0. -1.
          6    1    1    2  501    0  0.19749292252E+03 -0.40175730050E+00  0.30937671049E+03  0.40576663841E+03  0.17300000000E+03 0. -1.
         -6    1    1    2    0  502 -0.19749292252E+03  0.40175730050E+00  0.40037886852E+03  0.47878581245E+03  0.17300000000E+03 0.  1.
<mgrwt>
<rscale>  2 0.26255022E+03</rscale>
<asrwt>0</asrwt>
<pdfrwt beam="1">  1       21 0.12263907E+00 0.26255022E+03</pdfrwt>
<pdfrwt beam="2">  1       21 0.13445914E-01 0.26255022E+03</pdfrwt>
<totfact> 0.23024287E+04</totfact>
</mgrwt>
</event>
<event>
 4    1  0.4053645E-001  0.3617927E+03  0.7546771E-02  0.1057876E+00
         21   -1    0    0  503  502  0.00000000000E+00  0.00000000000E+00  0.69969219363E+03  0.69969219363E+03  0.00000000000E+00 0. -1.
         21   -1    0    0  501  503 -0.00000000000E+00 -0.00000000000E+00 -0.19511538591E+03  0.19511538591E+03  0.00000000000E+00 0. -1.
          6    1    1    2  501    0 -0.27718732545E+03  0.15534533810E+03  0.34311817656E+03  0.49862217213E+03  0.17300000000E+03 0. -1.
         -6    1    1    2    0  502  0.27718732545E+03 -0.15534533810E+03  0.16145863116E+03  0.39618540740E+03  0.17300000000E+03 0. -1.
<mgrwt>
<rscale>  2 0.36179274E+03</rscale>
<asrwt>0</asrwt>
<pdfrwt beam="1">  1       21 0.10764495E+00 0.36179274E+03</pdfrwt>
<pdfrwt beam="2">  1       21 0.30017752E-01 0.36179274E+03</pdfrwt>
<totfact> 0.66679213E+03</totfact>
</mgrwt>
</event>
<event>
 4    1  0.4053645E-001  0.2237343E+03  0.7546771E-02  0.1131129E+00
         21   -1    0    0  503  502  0.00000000000E+00  0.00000000000E+00  0.66043830536E+02  0.66043830536E+02  0.00000000000E+00 0. -1.
         21   -1    0    0  501  503 -0.00000000000E+00 -0.00000000000E+00 -0.76899329381E+03  0.76899329381E+03  0.00000000000E+00 0. -1.
          6    1    1    2  501    0  0.13826394936E+03  0.31798002914E+02 -0.40153904330E+03  0.45966361176E+03  0.17300000000E+03 0. -1.
         -6    1    1    2    0  502 -0.13826394936E+03 -0.31798002914E+02 -0.30141041997E+03  0.37537351258E+03  0.17300000000E+03 0. -1.
<mgrwt>
<rscale>  2 0.22373429E+03</rscale>
<asrwt>0</asrwt>
<pdfrwt beam="1">  1       21 0.10160589E-01 0.22373429E+03</pdfrwt>
<pdfrwt beam="2">  1       21 0.11830666E+00 0.22373429E+03</pdfrwt>
<totfact> 0.42451433E+04</totfact>
</mgrwt>
</event>
<event>
 4    1  0.4053645E-001  0.2186928E+03  0.7546771E-02  0.1134861E+00
         21   -1    0    0  503  502  0.00000000000E+00  0.00000000000E+00  0.82581432418E+03  0.82581432418E+03  0.00000000000E+00 0. -1.
         21   -1    0    0  501  503 -0.00000000000E+00 -0.00000000000E+00 -0.80946460745E+02  0.80946460745E+02  0.00000000000E+00 0. -1.
          6    1    1    2  501    0  0.12946425669E+03  0.33713012795E+02  0.13059290761E+03  0.25471762505E+03  0.17300000000E+03 0. -1.
         -6    1    1    2    0  502 -0.12946425669E+03 -0.33713012795E+02  0.61427495583E+03  0.65204315988E+03  0.17300000000E+03 0. -1.
<mgrwt>
<rscale>  2 0.21869285E+03</rscale>
<asrwt>0</asrwt>
<pdfrwt beam="1">  1       21 0.12704835E+00 0.21869285E+03</pdfrwt>
<pdfrwt beam="2">  1       21 0.12453302E-01 0.21869285E+03</pdfrwt>
<totfact> 0.24755900E+04</totfact>
</mgrwt>
</event>
<event>
 4    1  0.4053645E-001  0.2934925E+03  0.7546771E-02  0.1088540E+00
         21   -1    0    0  501  502  0.00000000000E+00  0.00000000000E+00  0.12942788914E+04  0.12942788914E+04  0.00000000000E+00 0. -1.
         21   -1    0    0  502  503 -0.00000000000E+00 -0.00000000000E+00 -0.72186268988E+02  0.72186268988E+02  0.00000000000E+00 0.  1.
          6    1    1    2  501    0 -0.41546546939E+02 -0.23341535518E+03  0.80191312912E+03  0.85393355143E+03  0.17300000000E+03 0. -1.
         -6    1    1    2    0  503  0.41546546939E+02  0.23341535518E+03  0.42017949328E+03  0.51253160895E+03  0.17300000000E+03 0.  1.
<mgrwt>
<rscale>  2 0.29349249E+03</rscale>
<asrwt>0</asrwt>
<pdfrwt beam="1">  1       21 0.19911981E+00 0.29349249E+03</pdfrwt>
<pdfrwt beam="2">  1       21 0.11105581E-01 0.29349249E+03</pdfrwt>
<totfact> 0.85363179E+03</totfact>
</mgrwt>
</event>
<event>
 4    1  0.4053645E-001  0.1939032E+03  0.7546771E-02  0.1154987E+00
         21   -1    0    0  501  502  0.00000000000E+00  0.00000000000E+00  0.18965898917E+03  0.18965898917E+03  0.00000000000E+00 0.  1.
         21   -1    0    0  502  503 -0.00000000000E+00 -0.00000000000E+00 -0.21421090129E+03  0.21421090129E+03  0.00000000000E+00 0.  1.
          6    1    1    2  501    0  0.78265488458E+02  0.39293402247E+02 -0.67410326597E+02  0.20528665391E+03  0.17300000000E+03 0.  1.
         -6    1    1    2    0  503 -0.78265488458E+02 -0.39293402247E+02  0.42858414483E+02  0.19858323654E+03  0.17300000000E+03 0.  1.
<mgrwt>
<rscale>  2 0.19390322E+03</rscale>
<asrwt>0</asrwt>
<pdfrwt beam="1">  1       21 0.29178306E-01 0.19390322E+03</pdfrwt>
<pdfrwt beam="2">  1       21 0.32955523E-01 0.19390322E+03</pdfrwt>
<totfact> 0.99659603E+04</totfact>
</mgrwt>
</event>
<event>
 4    1  0.4053645E-001  0.1914149E+03  0.7546771E-02  0.1157191E+00
         21   -1    0    0  501  502  0.00000000000E+00  0.00000000000E+00  0.48129490531E+03  0.48129490531E+03  0.00000000000E+00 0. -1.
         21   -1    0    0  502  503 -0.00000000000E+00 -0.00000000000E+00 -0.77559665407E+02  0.77559665407E+02  0.00000000000E+00 0.  1.
          6    1    1    2  501    0 -0.55301882183E+02  0.60434807677E+02  0.16389388892E+03  0.25199379154E+03  0.17300000000E+03 0.  1.
         -6    1    1    2    0  503  0.55301882183E+02 -0.60434807677E+02  0.23984135098E+03  0.30686077917E+03  0.17300000000E+03 0. -1.
<mgrwt>
<rscale>  2 0.19141490E+03</rscale>
<asrwt>0</asrwt>
<pdfrwt beam="1">  1       21 0.74045369E-01 0.19141490E+03</pdfrwt>
<pdfrwt beam="2">  1       21 0.11932256E-01 0.19141490E+03</pdfrwt>
<totfact> 0.97031887E+04</totfact>
</mgrwt>
</event>
<event>
 4    1  0.4053645E-001  0.1942063E+03  0.7546771E-02  0.1154721E+00
         21   -1    0    0  503  502  0.00000000000E+00  0.00000000000E+00  0.17026084836E+03  0.17026084836E+03  0.00000000000E+00 0.  1.
         21   -1    0    0  501  503 -0.00000000000E+00 -0.00000000000E+00 -0.25261808819E+03  0.25261808819E+03  0.00000000000E+00 0. -1.
          6    1    1    2  501    0 -0.65285040356E+02 -0.59371341334E+02 -0.11536503605E+03  0.22588754770E+03  0.17300000000E+03 0. -1.
         -6    1    1    2    0  502  0.65285040356E+02  0.59371341334E+02  0.33007796216E+02  0.19699138884E+03  0.17300000000E+03 0.  1.
<mgrwt>
<rscale>  2 0.19420631E+03</rscale>
<asrwt>0</asrwt>
<pdfrwt beam="1">  1       21 0.26193977E-01 0.19420631E+03</pdfrwt>
<pdfrwt beam="2">  1       21 0.38864321E-01 0.19420631E+03</pdfrwt>
<totfact> 0.88380684E+04</totfact>
</mgrwt>
</event>
<event>
 4    1  0.4053645E-001  0.1878870E+03  0.7546771E-02  0.1160381E+00
         21   -1    0    0  503  502  0.00000000000E+00  0.00000000000E+00  0.18234151523E+03  0.18234151523E+03  0.00000000000E+00 0.  1.
         21   -1    0    0  501  503 -0.00000000000E+00 -0.00000000000E+00 -0.44204536537E+03  0.44204536537E+03  0.00000000000E+00 0.  1.
          6    1    1    2  501    0 -0.34177458218E+02 -0.64841605128E+02 -0.36389983746E+03  0.40954196868E+03  0.17300000000E+03 0.  1.
         -6    1    1    2    0  502  0.34177458218E+02  0.64841605128E+02  0.10419598731E+03  0.21484491192E+03  0.17300000000E+03 0.  1.
<mgrwt>
<rscale>  2 0.18788702E+03</rscale>
<asrwt>0</asrwt>
<pdfrwt beam="1">  1       21 0.28052541E-01 0.18788702E+03</pdfrwt>
<pdfrwt beam="2">  1       21 0.68006979E-01 0.18788702E+03</pdfrwt>
<totfact> 0.24033906E+04</totfact>
</mgrwt>
</event>
<event>
 4    1  0.4053645E-001  0.2338109E+03  0.7546771E-02  0.1123986E+00
         21   -1    0    0  503  502  0.00000000000E+00  0.00000000000E+00  0.23172752645E+04  0.23172752645E+04  0.00000000000E+00 0. -1.
         21   -1    0    0  501  503 -0.00000000000E+00 -0.00000000000E+00 -0.25715066740E+02  0.25715066740E+02  0.00000000000E+00 0.  1.
          6    1    1    2  501    0  0.15665263244E+03 -0.14087994485E+02  0.80911287707E+03  0.84221800425E+03  0.17300000000E+03 0.  1.
         -6    1    1    2    0  502 -0.15665263244E+03  0.14087994485E+02  0.14824473207E+04  0.15007723270E+04  0.17300000000E+03 0. -1.
<mgrwt>
<rscale>  2 0.23381086E+03</rscale>
<asrwt>0</asrwt>
<pdfrwt beam="1">  1       21 0.35650372E+00 0.23381086E+03</pdfrwt>
<pdfrwt beam="2">  1       21 0.39561659E-02 0.23381086E+03</pdfrwt>
<totfact> 0.60900004E+03</totfact>
</mgrwt>
</event>
<event>
 4    1  0.4053645E-001  0.2572101E+03  0.7546771E-02  0.1108831E+00
         21   -1    0    0  503  502  0.00000000000E+00  0.00000000000E+00  0.33136418553E+03  0.33136418553E+03  0.00000000000E+00 0. -1.
         21   -1    0    0  501  503 -0.00000000000E+00 -0.00000000000E+00 -0.20464806415E+03  0.20464806415E+03  0.00000000000E+00 0.  1.
          6    1    1    2  501    0  0.43385684270E+00  0.19033612330E+03  0.21476801709E+02  0.25810517445E+03  0.17300000000E+03 0.  1.
         -6    1    1    2    0  502 -0.43385684270E+00 -0.19033612330E+03  0.10523931967E+03  0.27790707524E+03  0.17300000000E+03 0.  1.
<mgrwt>
<rscale>  2 0.25721009E+03</rscale>
<asrwt>0</asrwt>
<pdfrwt beam="1">  1       21 0.50979105E-01 0.25721009E+03</pdfrwt>
<pdfrwt beam="2">  1       21 0.31484318E-01 0.25721009E+03</pdfrwt>
<totfact> 0.34402423E+04</totfact>
</mgrwt>
</event>
<event>
 4    1  0.4053645E-001  0.1821913E+03  0.7546771E-02  0.1165699E+00
         21   -1    0    0  501  502  0.00000000000E+00  0.00000000000E+00  0.24531574692E+03  0.24531574692E+03  0.00000000000E+00 0. -1.
         21   -1    0    0  502  503 -0.00000000000E+00 -0.00000000000E+00 -0.16033903582E+03  0.16033903582E+03  0.00000000000E+00 0. -1.
          6    1    1    2  501    0 -0.56881053383E+02  0.54051741630E+01  0.12262463174E+03  0.21961436759E+03  0.17300000000E+03 0. -1.
         -6    1    1    2    0  503  0.56881053383E+02 -0.54051741630E+01 -0.37647920638E+02  0.18604041515E+03  0.17300000000E+03 0. -1.
<mgrwt>
<rscale>  2 0.18219130E+03</rscale>
<asrwt>0</asrwt>
<pdfrwt beam="1">  1       21 0.37740884E-01 0.18219130E+03</pdfrwt>
<pdfrwt beam="2">  1       21 0.24667544E-01 0.18219130E+03</pdfrwt>
<totfact> 0.10561431E+05</totfact>
</mgrwt>
</event>
<event>
 4    1  0.4053645E-001  0.2370526E+03  0.7546771E-02  0.1121772E+00
         21   -1    0    0  501  502  0.00000000000E+00  0.00000000000E+00  0.58192871298E+02  0.58192871298E+02  0.00000000000E+00 0. -1.
         21   -1    0    0  502  503 -0.00000000000E+00 -0.00000000000E+00 -0.10385291326E+04  0.10385291326E+04  0.00000000000E+00 0.  1.
          6    1    1    2  501    0 -0.95461624713E+02 -0.13096562035E+03 -0.34490333187E+03  0.41851191601E+03  0.17300000000E+03 0. -1.
         -6    1    1    2    0  503  0.95461624713E+02  0.13096562035E+03 -0.63543292942E+03  0.67821008788E+03  0.17300000000E+03 0.  1.
<mgrwt>
<rscale>  2 0.23705256E+03</rscale>
<asrwt>0</asrwt>
<pdfrwt beam="1">  1       21 0.89527497E-02 0.23705256E+03</pdfrwt>
<pdfrwt beam="2">  1       21 0.15977371E+00 0.23705256E+03</pdfrwt>
<totfact> 0.24229794E+04</totfact>
</mgrwt>
</event>
<event>
 4    1  0.4053645E-001  0.2401446E+03  0.7546771E-02  0.1119697E+00
         21   -1    0    0  501  502  0.00000000000E+00  0.00000000000E+00  0.75545081718E+03  0.75545081718E+03  0.00000000000E+00 0.  1.
         21   -1    0    0  502  503 -0.00000000000E+00 -0.00000000000E+00 -0.77743529546E+02  0.77743529546E+02  0.00000000000E+00 0. -1.
          6    1    1    2  501    0 -0.14192430200E+03  0.87166181961E+02  0.39487267760E+03  0.46216218181E+03  0.17300000000E+03 0.  1.
         -6    1    1    2    0  503  0.14192430200E+03 -0.87166181961E+02  0.28283461003E+03  0.37103216492E+03  0.17300000000E+03 0. -1.
<mgrwt>
<rscale>  2 0.24014465E+03</rscale>
<asrwt>0</asrwt>
<pdfrwt beam="1">  1       21 0.11622320E+00 0.24014465E+03</pdfrwt>
<pdfrwt beam="2">  1       21 0.11960544E-01 0.24014465E+03</pdfrwt>
<totfact> 0.32876984E+04</totfact>
</mgrwt>
</event>
<event>
 4    1  0.4053645E-001  0.2025929E+03  0.7546771E-02  0.1147570E+00
         21   -1    0    0  503  502  0.00000000000E+00  0.00000000000E+00  0.18551752733E+03  0.18551752733E+03  0.00000000000E+00 0. -1.
         21   -1    0    0  501  503 -0.00000000000E+00 -0.00000000000E+00 -0.22170876230E+03  0.22170876230E+03  0.00000000000E+00 0. -1.
          6    1    1    2  501    0  0.20195678834E+01  0.10540788943E+03 -0.27457874860E+02  0.20444519241E+03  0.17300000000E+03 0. -1.
         -6    1    1    2    0  502 -0.20195678834E+01 -0.10540788943E+03 -0.87333601175E+01  0.20278109722E+03  0.17300000000E+03 0. -1.
<mgrwt>
<rscale>  2 0.20259295E+03</rscale>
<asrwt>0</asrwt>
<pdfrwt beam="1">  1       21 0.28541158E-01 0.20259295E+03</pdfrwt>
<pdfrwt beam="2">  1       21 0.34109040E-01 0.20259295E+03</pdfrwt>
<totfact> 0.96840428E+04</totfact>
</mgrwt>
</event>
<event>
 4    1  0.4053645E-001  0.2361160E+03  0.7546771E-02  0.1122408E+00
         21   -1    0    0  501  502  0.00000000000E+00  0.00000000000E+00  0.30725196774E+02  0.30725196774E+02  0.00000000000E+00 0. -1.
         21   -1    0    0  502  503 -0.00000000000E+00 -0.00000000000E+00 -0.20137418467E+04  0.20137418467E+04  0.00000000000E+00 0. -1.
          6    1    1    2  501    0 -0.13917841033E+03 -0.80319034746E+02 -0.13130533350E+04  0.13341138773E+04  0.17300000000E+03 0. -1.
         -6    1    1    2    0  503  0.13917841033E+03  0.80319034746E+02 -0.66996331494E+03  0.71035316611E+03  0.17300000000E+03 0. -1.
<mgrwt>
<rscale>  2 0.23611602E+03</rscale>
<asrwt>0</asrwt>
<pdfrwt beam="1">  1       21 0.47269536E-02 0.23611602E+03</pdfrwt>
<pdfrwt beam="2">  1       21 0.30980642E+00 0.23611602E+03</pdfrwt>
<totfact> 0.84794113E+03</totfact>
</mgrwt>
</event>
<event>
 4    1  0.4053645E-001  0.1822302E+03  0.7546771E-02  0.1165662E+00
         21   -1    0    0  501  502  0.00000000000E+00  0.00000000000E+00  0.13426454836E+02  0.13426454836E+02  0.00000000000E+00 0. -1.
         21   -1    0    0  502  503 -0.00000000000E+00 -0.00000000000E+00 -0.25364652072E+04  0.25364652072E+04  0.00000000000E+00 0. -1.
          6    1    1    2  501    0  0.86700647060E+00 -0.57254685193E+02 -0.10603485296E+04  0.10758935147E+04  0.17300000000E+03 0.  1.
         -6    1    1    2    0  503 -0.86700647060E+00  0.57254685193E+02 -0.14626902227E+04  0.14739981473E+04  0.17300000000E+03 0.  1.
<mgrwt>
<rscale>  2 0.18223021E+03</rscale>
<asrwt>0</asrwt>
<pdfrwt beam="1">  1       21 0.20656106E-02 0.18223021E+03</pdfrwt>
<pdfrwt beam="2">  1       21 0.39022501E+00 0.18223021E+03</pdfrwt>
<totfact> 0.11853597E+04</totfact>
</mgrwt>
</event>
<event>
 4    1  0.4053645E-001  0.2148602E+03  0.7546771E-02  0.1137774E+00
         21   -1    0    0  503  502  0.00000000000E+00  0.00000000000E+00  0.39469360534E+03  0.39469360534E+03  0.00000000000E+00 0.  1.
         21   -1    0    0  501  503 -0.00000000000E+00 -0.00000000000E+00 -0.14886647190E+03  0.14886647190E+03  0.00000000000E+00 0.  1.
          6    1    1    2  501    0 -0.64435656639E+02  0.10992700772E+03 -0.29013109056E+01  0.21487977680E+03  0.17300000000E+03 0.  1.
         -6    1    1    2    0  502  0.64435656639E+02 -0.10992700772E+03  0.24872844434E+03  0.32868030044E+03  0.17300000000E+03 0.  1.
<mgrwt>
<rscale>  2 0.21486019E+03</rscale>
<asrwt>0</asrwt>
<pdfrwt beam="1">  1       21 0.60722093E-01 0.21486019E+03</pdfrwt>
<pdfrwt beam="2">  1       21 0.22902534E-01 0.21486019E+03</pdfrwt>
<totfact> 0.44689777E+04</totfact>
</mgrwt>
</event>
<event>
 4    1  0.4053645E-001  0.1826279E+03  0.7546771E-02  0.1165284E+00
         21   -1    0    0  503  502  0.00000000000E+00  0.00000000000E+00  0.37613812255E+02  0.37613812255E+02  0.00000000000E+00 0. -1.
         21   -1    0    0  501  503 -0.00000000000E+00 -0.00000000000E+00 -0.88689488226E+03  0.88689488226E+03  0.00000000000E+00 0. -1.
          6    1    1    2  501    0  0.58349365291E+02  0.43932848177E+01 -0.43111691861E+03  0.46820374507E+03  0.17300000000E+03 0. -1.
         -6    1    1    2    0  502 -0.58349365291E+02 -0.43932848177E+01 -0.41816415140E+03  0.45630494945E+03  0.17300000000E+03 0. -1.
<mgrwt>
<rscale>  2 0.18262790E+03</rscale>
<asrwt>0</asrwt>
<pdfrwt beam="1">  1       21 0.57867407E-02 0.18262790E+03</pdfrwt>
<pdfrwt beam="2">  1       21 0.13644536E+00 0.18262790E+03</pdfrwt>
<totfact> 0.80584963E+04</totfact>
</mgrwt>
</event>
<event>
 4    1  0.4053645E-001  0.2149211E+03  0.7546771E-02  0.1137727E+00
         21   -1    0    0  501  502  0.00000000000E+00  0.00000000000E+00  0.11578614423E+04  0.11578614423E+04  0.00000000000E+00 0.  1.
         21   -1    0    0  502  503 -0.00000000000E+00 -0.00000000000E+00 -0.77192575803E+02  0.77192575803E+02  0.00000000000E+00 0.  1.
          6    1    1    2  501    0 -0.11091617752E+03  0.62925907177E+02  0.96959165907E+03  0.99312590016E+03  0.17300000000E+03 0.  1.
         -6    1    1    2    0  503  0.11091617752E+03 -0.62925907177E+02  0.11107720738E+03  0.24192811790E+03  0.17300000000E+03 0.  1.
<mgrwt>
<rscale>  2 0.21492107E+03</rscale>
<asrwt>0</asrwt>
<pdfrwt beam="1">  1       21 0.17813252E+00 0.21492107E+03</pdfrwt>
<pdfrwt beam="2">  1       21 0.11875782E-01 0.21492107E+03</pdfrwt>
<totfact> 0.11012269E+04</totfact>
</mgrwt>
</event>
<event>
 4    1  0.4053645E-001  0.2323749E+03  0.7546771E-02  0.1124979E+00
         21   -1    0    0  501  502  0.00000000000E+00  0.00000000000E+00  0.57392767587E+03  0.57392767587E+03  0.00000000000E+00 0. -1.
         21   -1    0    0  502  503 -0.00000000000E+00 -0.00000000000E+00 -0.95720608581E+02  0.95720608581E+02  0.00000000000E+00 0.  1.
          6    1    1    2  501    0  0.73849147695E+02 -0.13643822075E+03  0.28286891885E+03  0.36607773757E+03  0.17300000000E+03 0. -1.
         -6    1    1    2    0  503 -0.73849147695E+02  0.13643822075E+03  0.19533814844E+03  0.30357054688E+03  0.17300000000E+03 0.  1.
<mgrwt>
<rscale>  2 0.23237488E+03</rscale>
<asrwt>0</asrwt>
<pdfrwt beam="1">  1       21 0.88296563E-01 0.23237488E+03</pdfrwt>
<pdfrwt beam="2">  1       21 0.14726248E-01 0.23237488E+03</pdfrwt>
<totfact> 0.43676755E+04</totfact>
</mgrwt>
</event>
<event>
 4    1  0.4053645E-001  0.1797691E+03  0.7546771E-02  0.1168027E+00
         21   -1    0    0  503  502  0.00000000000E+00  0.00000000000E+00  0.18790109213E+03  0.18790109213E+03  0.00000000000E+00 0. -1.
         21   -1    0    0  501  503 -0.00000000000E+00 -0.00000000000E+00 -0.17268305915E+03  0.17268305915E+03  0.00000000000E+00 0. -1.
          6    1    1    2  501    0  0.44669224882E+02  0.19813454190E+02 -0.38214474867E+01  0.17980966626E+03  0.17300000000E+03 0. -1.
         -6    1    1    2    0  502 -0.44669224882E+02 -0.19813454190E+02  0.19039480467E+02  0.18077448502E+03  0.17300000000E+03 0. -1.
<mgrwt>
<rscale>  2 0.17976905E+03</rscale>
<asrwt>0</asrwt>
<pdfrwt beam="1">  1       21 0.28907861E-01 0.17976905E+03</pdfrwt>
<pdfrwt beam="2">  1       21 0.26566624E-01 0.17976905E+03</pdfrwt>
<totfact> 0.15504546E+05</totfact>
</mgrwt>
</event>
<event>
 4    1  0.4053645E-001  0.1810320E+03  0.7546771E-02  0.1166808E+00
         21   -1    0    0  501  502  0.00000000000E+00  0.00000000000E+00  0.30411562504E+02  0.30411562504E+02  0.00000000000E+00 0. -1.
         21   -1    0    0  502  503 -0.00000000000E+00 -0.00000000000E+00 -0.11567437007E+04  0.11567437007E+04  0.00000000000E+00 0. -1.
          6    1    1    2  501    0  0.31952838823E+02  0.42691861884E+02 -0.40793818305E+03  0.44630274497E+03  0.17300000000E+03 0. -1.
         -6    1    1    2    0  503 -0.31952838823E+02 -0.42691861884E+02 -0.71839395515E+03  0.74085251824E+03  0.17300000000E+03 0. -1.
<mgrwt>
<rscale>  2 0.18103198E+03</rscale>
<asrwt>0</asrwt>
<pdfrwt beam="1">  1       21 0.46787021E-02 0.18103198E+03</pdfrwt>
<pdfrwt beam="2">  1       21 0.17796056E+00 0.18103198E+03</pdfrwt>
<totfact> 0.56946926E+04</totfact>
</mgrwt>
</event>
<event>
 4    1  0.4053645E-001  0.1889776E+03  0.7546771E-02  0.1159387E+00
         21   -1    0    0  503  502  0.00000000000E+00  0.00000000000E+00  0.10700490484E+03  0.10700490484E+03  0.00000000000E+00 0.  1.
         21   -1    0    0  501  503 -0.00000000000E+00 -0.00000000000E+00 -0.33448412401E+03  0.33448412401E+03  0.00000000000E+00 0.  1.
          6    1    1    2  501    0 -0.20359930208E+02  0.73273479932E+02 -0.12410468613E+03  0.22608516700E+03  0.17300000000E+03 0. -1.
         -6    1    1    2    0  502  0.20359930208E+02 -0.73273479932E+02 -0.10337453305E+03  0.21540386185E+03  0.17300000000E+03 0. -1.
<mgrwt>
<rscale>  2 0.18897759E+03</rscale>
<asrwt>0</asrwt>
<pdfrwt beam="1">  1       21 0.16462293E-01 0.18897759E+03</pdfrwt>
<pdfrwt beam="2">  1       21 0.51459095E-01 0.18897759E+03</pdfrwt>
<totfact> 0.11890592E+05</totfact>
</mgrwt>
</event>
<event>
 4    1  0.4053645E-001  0.1882344E+03  0.7546771E-02  0.1160063E+00
         21   -1    0    0  503  502  0.00000000000E+00  0.00000000000E+00  0.36395478820E+02  0.36395478820E+02  0.00000000000E+00 0.  1.
         21   -1    0    0  501  503 -0.00000000000E+00 -0.00000000000E+00 -0.97353288236E+03  0.97353288236E+03  0.00000000000E+00 0.  1.
          6    1    1    2  501    0 -0.50200481545E+02  0.54617751355E+02 -0.46881294993E+03  0.50519082447E+03  0.17300000000E+03 0.  1.
         -6    1    1    2    0  502  0.50200481545E+02 -0.54617751355E+02 -0.46832445361E+03  0.50473753671E+03  0.17300000000E+03 0.  1.
<mgrwt>
<rscale>  2 0.18823439E+03</rscale>
<asrwt>0</asrwt>
<pdfrwt beam="1">  1       21 0.55993045E-02 0.18823439E+03</pdfrwt>
<pdfrwt beam="2">  1       21 0.14977429E+00 0.18823439E+03</pdfrwt>
<totfact> 0.66741189E+04</totfact>
</mgrwt>
</event>
<event>
 4    1  0.4053645E-001  0.1836872E+03  0.7546771E-02  0.1164282E+00
         21   -1    0    0  501  502  0.00000000000E+00  0.00000000000E+00  0.20407114692E+03  0.20407114692E+03  0.00000000000E+00 0.  1.
         21   -1    0    0  502  503 -0.00000000000E+00 -0.00000000000E+00 -0.36544596526E+03  0.36544596526E+03  0.00000000000E+00 0.  1.
          6    1    1    2  501    0  0.54872624472E+02  0.28301480973E+02  0.13002784848E+03  0.22505159435E+03  0.17300000000E+03 0.  1.
         -6    1    1    2    0  503 -0.54872624472E+02 -0.28301480973E+02 -0.29140266682E+03  0.34446551782E+03  0.17300000000E+03 0.  1.
<mgrwt>
<rscale>  2 0.18368718E+03</rscale>
<asrwt>0</asrwt>
<pdfrwt beam="1">  1       21 0.31395561E-01 0.18368718E+03</pdfrwt>
<pdfrwt beam="2">  1       21 0.56222456E-01 0.18368718E+03</pdfrwt>
<totfact> 0.29169837E+04</totfact>
</mgrwt>
</event>
<event>
 4    1  0.4053645E-001  0.2297794E+03  0.7546771E-02  0.1126795E+00
         21   -1    0    0  503  502  0.00000000000E+00  0.00000000000E+00  0.49729283760E+02  0.49729283760E+02  0.00000000000E+00 0.  1.
         21   -1    0    0  501  503 -0.00000000000E+00 -0.00000000000E+00 -0.20693783913E+04  0.20693783913E+04  0.00000000000E+00 0. -1.
          6    1    1    2  501    0  0.14318478408E+03 -0.48658895625E+02 -0.17491910328E+04  0.17642187619E+04  0.17300000000E+03 0. -1.
         -6    1    1    2    0  502 -0.14318478408E+03  0.48658895625E+02 -0.27045807477E+03  0.35488891321E+03  0.17300000000E+03 0. -1.
<mgrwt>
<rscale>  2 0.22977940E+03</rscale>
<asrwt>0</asrwt>
<pdfrwt beam="1">  1       21 0.76506606E-02 0.22977940E+03</pdfrwt>
<pdfrwt beam="2">  1       21 0.31836584E+00 0.22977940E+03</pdfrwt>
<totfact> 0.33228886E+03</totfact>
</mgrwt>
</event>
<event>
 4    1  0.4053645E-001  0.1843584E+03  0.7546771E-02  0.1163650E+00
         21   -1    0    0  501  502  0.00000000000E+00  0.00000000000E+00  0.72493720669E+03  0.72493720669E+03  0.00000000000E+00 0. -1.
         21   -1    0    0  502  503 -0.00000000000E+00 -0.00000000000E+00 -0.52684145548E+02  0.52684145548E+02  0.00000000000E+00 0. -1.
          6    1    1    2  501    0  0.56154840312E+02  0.30094075139E+02  0.46513385854E+03  0.50033741196E+03  0.17300000000E+03 0.  1.
         -6    1    1    2    0  503 -0.56154840312E+02 -0.30094075139E+02  0.20711920261E+03  0.27728394028E+03  0.17300000000E+03 0.  1.
<mgrwt>
<rscale>  2 0.18435840E+03</rscale>
<asrwt>0</asrwt>
<pdfrwt beam="1">  1       21 0.11152879E+00 0.18435840E+03</pdfrwt>
<pdfrwt beam="2">  1       21 0.81052537E-02 0.18435840E+03</pdfrwt>
<totfact> 0.74372504E+04</totfact>
</mgrwt>
</event>
<event>
 4    1  0.4053645E-001  0.2428897E+03  0.7546771E-02  0.1117883E+00
         21   -1    0    0  503  502  0.00000000000E+00  0.00000000000E+00  0.21080887891E+03  0.21080887891E+03  0.00000000000E+00 0.  1.
         21   -1    0    0  501  503 -0.00000000000E+00 -0.00000000000E+00 -0.37489538232E+03  0.37489538232E+03  0.00000000000E+00 0.  1.
          6    1    1    2  501    0  0.16648756870E+03 -0.36718861803E+02 -0.22949611542E+03  0.33416141659E+03  0.17300000000E+03 0.  1.
         -6    1    1    2    0  502 -0.16648756870E+03  0.36718861803E+02  0.65409612008E+02  0.25154284464E+03  0.17300000000E+03 0.  1.
<mgrwt>
<rscale>  2 0.24288966E+03</rscale>
<asrwt>0</asrwt>
<pdfrwt beam="1">  1       21 0.32432135E-01 0.24288966E+03</pdfrwt>
<pdfrwt beam="2">  1       21 0.57676212E-01 0.24288966E+03</pdfrwt>
<totfact> 0.25118564E+04</totfact>
</mgrwt>
</event>
<event>
 4    1  0.4053645E-001  0.2017585E+03  0.7546771E-02  0.1148264E+00
         21   -1    0    0  501  502  0.00000000000E+00  0.00000000000E+00  0.75080935212E+03  0.75080935212E+03  0.00000000000E+00 0.  1.
         21   -1    0    0  502  503 -0.00000000000E+00 -0.00000000000E+00 -0.66315213301E+02  0.66315213301E+02  0.00000000000E+00 0.  1.
          6    1    1    2  501    0 -0.10168816194E+03 -0.20904712309E+02  0.51675520716E+03  0.55474537709E+03  0.17300000000E+03 0.  1.
         -6    1    1    2    0  503  0.10168816194E+03  0.20904712309E+02  0.16773893166E+03  0.26237918833E+03  0.17300000000E+03 0.  1.
<mgrwt>
<rscale>  2 0.20175849E+03</rscale>
<asrwt>0</asrwt>
<pdfrwt beam="1">  1       21 0.11550913E+00 0.20175849E+03</pdfrwt>
<pdfrwt beam="2">  1       21 0.10202341E-01 0.20175849E+03</pdfrwt>
<totfact> 0.45202331E+04</totfact>
</mgrwt>
</event>
<event>
 4    1  0.4053645E-001  0.2503115E+03  0.7546771E-02  0.1113108E+00
         21   -1    0    0  501  502  0.00000000000E+00  0.00000000000E+00  0.72414498414E+03  0.72414498414E+03  0.00000000000E+00 0.  1.
         21   -1    0    0  502  503 -0.00000000000E+00 -0.00000000000E+00 -0.87955479948E+02  0.87955479948E+02  0.00000000000E+00 0. -1.
          6    1    1    2  501    0 -0.13123195584E+03  0.12451908757E+03  0.26629113907E+03  0.36546791946E+03  0.17300000000E+03 0. -1.
         -6    1    1    2    0  503  0.13123195584E+03 -0.12451908757E+03  0.36989836512E+03  0.44663254463E+03  0.17300000000E+03 0.  1.
<mgrwt>
<rscale>  2 0.25031146E+03</rscale>
<asrwt>0</asrwt>
<pdfrwt beam="1">  1       21 0.11140692E+00 0.25031146E+03</pdfrwt>
<pdfrwt beam="2">  1       21 0.13531613E-01 0.25031146E+03</pdfrwt>
<totfact> 0.29040853E+04</totfact>
</mgrwt>
</event>
<event>
 4    1  0.4053645E-001  0.2647791E+03  0.7546771E-02  0.1104305E+00
         21   -1    0    0  503  502  0.00000000000E+00  0.00000000000E+00  0.56887519905E+02  0.56887519905E+02  0.00000000000E+00 0. -1.
         21   -1    0    0  501  503 -0.00000000000E+00 -0.00000000000E+00 -0.13828708784E+04  0.13828708784E+04  0.00000000000E+00 0.  1.
          6    1    1    2  501    0  0.19032415166E+03  0.62894389233E+02 -0.90045685210E+03  0.93857899475E+03  0.17300000000E+03 0.  1.
         -6    1    1    2    0  502 -0.19032415166E+03 -0.62894389233E+02 -0.42552650640E+03  0.50117940356E+03  0.17300000000E+03 0. -1.
<mgrwt>
<rscale>  2 0.26477913E+03</rscale>
<asrwt>0</asrwt>
<pdfrwt beam="1">  1       21 0.87519266E-02 0.26477913E+03</pdfrwt>
<pdfrwt beam="2">  1       21 0.21274935E+00 0.26477913E+03</pdfrwt>
<totfact> 0.10842423E+04</totfact>
</mgrwt>
</event>
<event>
 4    1  0.4053645E-001  0.1800024E+03  0.7546771E-02  0.1167801E+00
         21   -1    0    0  501  502  0.00000000000E+00  0.00000000000E+00  0.90985654447E+02  0.90985654447E+02  0.00000000000E+00 0. -1.
         21   -1    0    0  502  503 -0.00000000000E+00 -0.00000000000E+00 -0.36501799880E+03  0.36501799880E+03  0.00000000000E+00 0. -1.
          6    1    1    2  501    0 -0.41273370319E+02 -0.27719237440E+02 -0.10139683961E+03  0.20659662704E+03  0.17300000000E+03 0. -1.
         -6    1    1    2    0  503  0.41273370319E+02  0.27719237440E+02 -0.17263550474E+03  0.24940702620E+03  0.17300000000E+03 0. -1.
<mgrwt>
<rscale>  2 0.18000235E+03</rscale>
<asrwt>0</asrwt>
<pdfrwt beam="1">  1       21 0.13997793E-01 0.18000235E+03</pdfrwt>
<pdfrwt beam="2">  1       21 0.56156615E-01 0.18000235E+03</pdfrwt>
<totfact> 0.13332414E+05</totfact>
</mgrwt>
</event>
<event>
 4    1  0.4053645E-001  0.2003078E+03  0.7546771E-02  0.1149480E+00
         21   -1    0    0  501  502  0.00000000000E+00  0.00000000000E+00  0.34162658518E+02  0.34162658518E+02  0.00000000000E+00 0.  1.
         21   -1    0    0  502  503 -0.00000000000E+00 -0.00000000000E+00 -0.12847712092E+04  0.12847712092E+04  0.00000000000E+00 0.  1.
          6    1    1    2  501    0 -0.98946817233E+02 -0.20093715579E+02 -0.81852691801E+03  0.84267997814E+03  0.17300000000E+03 0.  1.
         -6    1    1    2    0  503  0.98946817233E+02  0.20093715579E+02 -0.43208163265E+03  0.47625388956E+03  0.17300000000E+03 0.  1.
<mgrwt>
<rscale>  2 0.20030784E+03</rscale>
<asrwt>0</asrwt>
<pdfrwt beam="1">  1       21 0.52557932E-02 0.20030784E+03</pdfrwt>
<pdfrwt beam="2">  1       21 0.19765712E+00 0.20030784E+03</pdfrwt>
<totfact> 0.34174939E+04</totfact>
</mgrwt>
</event>
<event>
 4    1  0.4053645E-001  0.2160205E+03  0.7546771E-02  0.1136885E+00
         21   -1    0    0  503  502  0.00000000000E+00  0.00000000000E+00  0.42281973963E+03  0.42281973963E+03  0.00000000000E+00 0. -1.
         21   -1    0    0  501  503 -0.00000000000E+00 -0.00000000000E+00 -0.11091272942E+03  0.11091272942E+03  0.00000000000E+00 0.  1.
          6    1    1    2  501    0  0.38058288593E+02 -0.12364233010E+03  0.13721437144E+03  0.25591530406E+03  0.17300000000E+03 0.  1.
         -6    1    1    2    0  502 -0.38058288593E+02  0.12364233010E+03  0.17469263877E+03  0.27781716499E+03  0.17300000000E+03 0. -1.
<mgrwt>
<rscale>  2 0.21602051E+03</rscale>
<asrwt>0</asrwt>
<pdfrwt beam="1">  1       21 0.65049190E-01 0.21602051E+03</pdfrwt>
<pdfrwt beam="2">  1       21 0.17063497E-01 0.21602051E+03</pdfrwt>
<totfact> 0.66713589E+04</totfact>
</mgrwt>
</event>
<event>
 4    1  0.4053645E-001  0.1982529E+03  0.7546771E-02  0.1151221E+00
         21   -1    0    0  503  502  0.00000000000E+00  0.00000000000E+00  0.15095506992E+03  0.15095506992E+03  0.00000000000E+00 0.  1.
         21   -1    0    0  501  503 -0.00000000000E+00 -0.00000000000E+00 -0.30217524693E+03  0.30217524693E+03  0.00000000000E+00 0. -1.
          6    1    1    2  501    0  0.63609051025E+02  0.73000595413E+02 -0.15988109042E+03  0.25468836129E+03  0.17300000000E+03 0.  1.
         -6    1    1    2    0  502 -0.63609051025E+02 -0.73000595413E+02  0.86609134165E+01  0.19844195555E+03  0.17300000000E+03 0.  1.
<mgrwt>
<rscale>  2 0.19825286E+03</rscale>
<asrwt>0</asrwt>
<pdfrwt beam="1">  1       21 0.23223857E-01 0.19825286E+03</pdfrwt>
<pdfrwt beam="2">  1       21 0.46488499E-01 0.19825286E+03</pdfrwt>
<totfact> 0.77037481E+04</totfact>
</mgrwt>
</event>
<event>
 4    1  0.4053645E-001  0.1802508E+03  0.7546771E-02  0.1167561E+00
         21   -1    0    0  503  502  0.00000000000E+00  0.00000000000E+00  0.26510592415E+02  0.26510592415E+02  0.00000000000E+00 0. -1.
         21   -1    0    0  501  503 -0.00000000000E+00 -0.00000000000E+00 -0.12642218372E+04  0.12642218372E+04  0.00000000000E+00 0. -1.
          6    1    1    2  501    0  0.42355348731E+02 -0.27701230422E+02 -0.73171386001E+03  0.75358841993E+03  0.17300000000E+03 0.  1.
         -6    1    1    2    0  502 -0.42355348731E+02  0.27701230422E+02 -0.50599738477E+03  0.53714400967E+03  0.17300000000E+03 0.  1.
<mgrwt>
<rscale>  2 0.18025075E+03</rscale>
<asrwt>0</asrwt>
<pdfrwt beam="1">  1       21 0.40785531E-02 0.18025075E+03</pdfrwt>
<pdfrwt beam="2">  1       21 0.19449565E+00 0.18025075E+03</pdfrwt>
<totfact> 0.55712244E+04</totfact>
</mgrwt>
</event>
<event>
 4    1  0.4053645E-001  0.2117502E+03  0.7546771E-02  0.1140187E+00
         21   -1    0    0  501  502  0.00000000000E+00  0.00000000000E+00  0.18619871058E+03  0.18619871058E+03  0.00000000000E+00 0.  1.
         21   -1    0    0  502  503 -0.00000000000E+00 -0.00000000000E+00 -0.24175980153E+03  0.24175980153E+03  0.00000000000E+00 0.  1.
          6    1    1    2  501    0  0.12186185789E+03 -0.76714277334E+01 -0.41205823224E+02  0.21572223594E+03  0.17300000000E+03 0.  1.
         -6    1    1    2    0  503 -0.12186185789E+03  0.76714277334E+01 -0.14355267729E+02  0.21223627617E+03  0.17300000000E+03 0.  1.
<mgrwt>
<rscale>  2 0.21175024E+03</rscale>
<asrwt>0</asrwt>
<pdfrwt beam="1">  1       21 0.28645955E-01 0.21175024E+03</pdfrwt>
<pdfrwt beam="2">  1       21 0.37193816E-01 0.21175024E+03</pdfrwt>
<totfact> 0.80614847E+04</totfact>
</mgrwt>
</event>
<event>
 4    1  0.4053645E-001  0.1747951E+03  0.7546771E-02  0.1172938E+00
         21   -1    0    0  503  502  0.00000000000E+00  0.00000000000E+00  0.14766280409E+03  0.14766280409E+03  0.00000000000E+00 0.  1.
         21   -1    0    0  501  503 -0.00000000000E+00 -0.00000000000E+00 -0.22514021056E+03  0.22514021056E+03  0.00000000000E+00 0.  1.
          6    1    1    2  501    0  0.24984417738E+02  0.34309004117E+00 -0.91776343917E+02  0.19742400093E+03  0.17300000000E+03 0.  1.
         -6    1    1    2    0  502 -0.24984417738E+02 -0.34309004117E+00  0.14298937446E+02  0.17537901372E+03  0.17300000000E+03 0.  1.
<mgrwt>
<rscale>  2 0.17479513E+03</rscale>
<asrwt>0</asrwt>
<pdfrwt beam="1">  1       21 0.22717355E-01 0.17479513E+03</pdfrwt>
<pdfrwt beam="2">  1       21 0.34636955E-01 0.17479513E+03</pdfrwt>
<totfact> 0.14681879E+05</totfact>
</mgrwt>
</event>
<event>
 4    1  0.4053645E-001  0.1733537E+03  0.7546771E-02  0.1174395E+00
         21   -1    0    0  503  502  0.00000000000E+00  0.00000000000E+00  0.24262452481E+03  0.24262452481E+03  0.00000000000E+00 0. -1.
         21   -1    0    0  501  503 -0.00000000000E+00 -0.00000000000E+00 -0.12570975292E+03  0.12570975292E+03  0.00000000000E+00 0. -1.
          6    1    1    2  501    0  0.10417290248E+02 -0.37382537307E+01  0.36117835185E+02  0.17707623357E+03  0.17300000000E+03 0. -1.
         -6    1    1    2    0  502 -0.10417290248E+02  0.37382537307E+01  0.80796936703E+02  0.19125804416E+03  0.17300000000E+03 0. -1.
<mgrwt>
<rscale>  2 0.17335367E+03</rscale>
<asrwt>0</asrwt>
<pdfrwt beam="1">  1       21 0.37326850E-01 0.17335367E+03</pdfrwt>
<pdfrwt beam="2">  1       21 0.19339962E-01 0.17335367E+03</pdfrwt>
<totfact> 0.17111613E+05</totfact>
</mgrwt>
</event>
<event>
 4    1  0.4053645E-001  0.2168453E+03  0.7546771E-02  0.1136257E+00
         21   -1    0    0  501  502  0.00000000000E+00  0.00000000000E+00  0.38825624973E+02  0.38825624973E+02  0.00000000000E+00 0. -1.
         21   -1    0    0  502  503 -0.00000000000E+00 -0.00000000000E+00 -0.14001537236E+04  0.14001537236E+04  0.00000000000E+00 0. -1.
          6    1    1    2  501    0 -0.16397544042E+02 -0.12970737474E+03 -0.41628663530E+03  0.46937878652E+03  0.17300000000E+03 0. -1.
         -6    1    1    2    0  503  0.16397544042E+02  0.12970737474E+03 -0.94504146333E+03  0.96960056205E+03  0.17300000000E+03 0. -1.
<mgrwt>
<rscale>  2 0.21684530E+03</rscale>
<asrwt>0</asrwt>
<pdfrwt beam="1">  1       21 0.59731737E-02 0.21684530E+03</pdfrwt>
<pdfrwt beam="2">  1       21 0.21540824E+00 0.21684530E+03</pdfrwt>
<totfact> 0.20945049E+04</totfact>
</mgrwt>
</event>
<event>
 4    1  0.4053645E-001  0.1757181E+03  0.7546771E-02  0.1172013E+00
         21   -1    0    0  503  502  0.00000000000E+00  0.00000000000E+00  0.32853892330E+03  0.32853892330E+03  0.00000000000E+00 0. -1.
         21   -1    0    0  501  503 -0.00000000000E+00 -0.00000000000E+00 -0.13222796810E+03  0.13222796810E+03  0.00000000000E+00 0. -1.
          6    1    1    2  501    0  0.21041088053E+02 -0.22475292447E+02 -0.25747100859E+02  0.17759442379E+03  0.17300000000E+03 0. -1.
         -6    1    1    2    0  502 -0.21041088053E+02  0.22475292447E+02  0.22205805605E+03  0.28317246762E+03  0.17300000000E+03 0. -1.
<mgrwt>
<rscale>  2 0.17571814E+03</rscale>
<asrwt>0</asrwt>
<pdfrwt beam="1">  1       21 0.50544449E-01 0.17571814E+03</pdfrwt>
<pdfrwt beam="2">  1       21 0.20342764E-01 0.17571814E+03</pdfrwt>
<totfact> 0.83876511E+04</totfact>
</mgrwt>
</event>
<event>
 4    1  0.4053645E-001  0.2138382E+03  0.7546771E-02  0.1138562E+00
         21   -1    0    0  503  502  0.00000000000E+00  0.00000000000E+00  0.17025496193E+03  0.17025496193E+03  0.00000000000E+00 0. -1.
         21   -1    0    0  501  503 -0.00000000000E+00 -0.00000000000E+00 -0.29152109008E+03  0.29152109008E+03  0.00000000000E+00 0. -1.
          6    1    1    2  501    0 -0.11995566910E+03 -0.37528641381E+02 -0.12540561855E+03  0.24789782298E+03  0.17300000000E+03 0. -1.
         -6    1    1    2    0  502  0.11995566910E+03  0.37528641381E+02  0.41394903934E+01  0.21387822903E+03  0.17300000000E+03 0. -1.
<mgrwt>
<rscale>  2 0.21383817E+03</rscale>
<asrwt>0</asrwt>
<pdfrwt beam="1">  1       21 0.26193071E-01 0.21383817E+03</pdfrwt>
<pdfrwt beam="2">  1       21 0.44849398E-01 0.21383817E+03</pdfrwt>
<totfact> 0.65478374E+04</totfact>
</mgrwt>
</event>
<event>
 4    1  0.4053645E-001  0.2112566E+03  0.7546771E-02  0.1140575E+00
         21   -1    0    0  501  502  0.00000000000E+00  0.00000000000E+00  0.41729591514E+03  0.41729591514E+03  0.00000000000E+00 0. -1.
         21   -1    0    0  502  503 -0.00000000000E+00 -0.00000000000E+00 -0.16308310452E+03  0.16308310452E+03  0.00000000000E+00 0.  1.
          6    1    1    2  501    0  0.49785926818E+01 -0.12114276552E+03  0.29735786856E+03  0.36476164548E+03  0.17300000000E+03 0. -1.
         -6    1    1    2    0  503 -0.49785926818E+01  0.12114276552E+03 -0.43145057943E+02  0.21561737418E+03  0.17300000000E+03 0. -1.
<mgrwt>
<rscale>  2 0.21125661E+03</rscale>
<asrwt>0</asrwt>
<pdfrwt beam="1">  1       21 0.64199371E-01 0.21125661E+03</pdfrwt>
<pdfrwt beam="2">  1       21 0.25089709E-01 0.21125661E+03</pdfrwt>
<totfact> 0.33349461E+04</totfact>
</mgrwt>
</event>
<event>
 4    1  0.4053645E-001  0.1793383E+03  0.7546771E-02  0.1168445E+00
         21   -1    0    0  501  502  0.00000000000E+00  0.00000000000E+00  0.59353145438E+02  0.59353145438E+02  0.00000000000E+00 0.  1.
         21   -1    0    0  502  503 -0.00000000000E+00 -0.00000000000E+00 -0.55051582496E+03  0.55051582496E+03  0.00000000000E+00 0.  1.
          6    1    1    2  501    0  0.32655460372E+02 -0.34159061375E+02 -0.28377574653E+03  0.33569464531E+03  0.17300000000E+03 0.  1.
         -6    1    1    2    0  503 -0.32655460372E+02  0.34159061375E+02 -0.20738693299E+03  0.27417432510E+03  0.17300000000E+03 0.  1.
<mgrwt>
<rscale>  2 0.17933829E+03</rscale>
<asrwt>0</asrwt>
<pdfrwt beam="1">  1       21 0.91312532E-02 0.17933829E+03</pdfrwt>
<pdfrwt beam="2">  1       21 0.84694741E-01 0.17933829E+03</pdfrwt>
<totfact> 0.11563710E+05</totfact>
</mgrwt>
</event>
<event>
 4    1  0.4053645E-001  0.2286403E+03  0.7546771E-02  0.1127600E+00
         21   -1    0    0  501  502  0.00000000000E+00  0.00000000000E+00  0.47011128447E+02  0.47011128447E+02  0.00000000000E+00 0.  1.
         21   -1    0    0  502  503 -0.00000000000E+00 -0.00000000000E+00 -0.12879410115E+04  0.12879410115E+04  0.00000000000E+00 0. -1.
          6    1    1    2  501    0  0.14704305556E+03  0.26939052086E+02 -0.37376371326E+03  0.43815030077E+03  0.17300000000E+03 0.  1.
         -6    1    1    2    0  503 -0.14704305556E+03 -0.26939052086E+02 -0.86716616982E+03  0.89680183920E+03  0.17300000000E+03 0.  1.
<mgrwt>
<rscale>  2 0.22864027E+03</rscale>
<asrwt>0</asrwt>
<pdfrwt beam="1">  1       21 0.72324817E-02 0.22864027E+03</pdfrwt>
<pdfrwt beam="2">  1       21 0.19814476E+00 0.22864027E+03</pdfrwt>
<totfact> 0.19223713E+04</totfact>
</mgrwt>
</event>
<event>
 4    1  0.4053645E-001  0.2441654E+03  0.7546771E-02  0.1117049E+00
         21   -1    0    0  501  502  0.00000000000E+00  0.00000000000E+00  0.22673211570E+03  0.22673211570E+03  0.00000000000E+00 0. -1.
         21   -1    0    0  502  503 -0.00000000000E+00 -0.00000000000E+00 -0.26696623886E+03  0.26696623886E+03  0.00000000000E+00 0. -1.
          6    1    1    2  501    0  0.17224801099E+03  0.42876696289E+01 -0.50434768834E+02  0.24931992962E+03  0.17300000000E+03 0.  1.
         -6    1    1    2    0  503 -0.17224801099E+03 -0.42876696289E+01  0.10200645676E+02  0.24437842493E+03  0.17300000000E+03 0.  1.
<mgrwt>
<rscale>  2 0.24416544E+03</rscale>
<asrwt>0</asrwt>
<pdfrwt beam="1">  1       21 0.34881864E-01 0.24416544E+03</pdfrwt>
<pdfrwt beam="2">  1       21 0.41071729E-01 0.24416544E+03</pdfrwt>
<totfact> 0.44167594E+04</totfact>
</mgrwt>
</event>
<event>
 4    1  0.4053645E-001  0.1822217E+03  0.7546771E-02  0.1165670E+00
         21   -1    0    0  501  502  0.00000000000E+00  0.00000000000E+00  0.12815725552E+03  0.12815725552E+03  0.00000000000E+00 0. -1.
         21   -1    0    0  502  503 -0.00000000000E+00 -0.00000000000E+00 -0.29208384140E+03  0.29208384140E+03  0.00000000000E+00 0. -1.
          6    1    1    2  501    0 -0.40231869310E+02 -0.40708192037E+02 -0.11346875165E+02  0.18257467454E+03  0.17300000000E+03 0. -1.
         -6    1    1    2    0  503  0.40231869310E+02  0.40708192037E+02 -0.15257971072E+03  0.23766642239E+03  0.17300000000E+03 0. -1.
<mgrwt>
<rscale>  2 0.18222173E+03</rscale>
<asrwt>0</asrwt>
<pdfrwt beam="1">  1       21 0.19716501E-01 0.18222173E+03</pdfrwt>
<pdfrwt beam="2">  1       21 0.44935975E-01 0.18222173E+03</pdfrwt>
<totfact> 0.11308947E+05</totfact>
</mgrwt>
</event>
<event>
 4    1  0.4053645E-001  0.3326215E+03  0.7546771E-02  0.1069983E+00
         21   -1    0    0  501  502  0.00000000000E+00  0.00000000000E+00  0.74766253233E+03  0.74766253233E+03  0.00000000000E+00 0. -1.
         21   -1    0    0  502  503 -0.00000000000E+00 -0.00000000000E+00 -0.15653882332E+03  0.15653882332E+03  0.00000000000E+00 0.  1.
          6    1    1    2  501    0 -0.11795322308E+03  0.25844749139E+03  0.40129231642E+03  0.52122220967E+03  0.17300000000E+03 0. -1.
         -6    1    1    2    0  503  0.11795322308E+03 -0.25844749139E+03  0.18983139259E+03  0.38297914598E+03  0.17300000000E+03 0.  1.
<mgrwt>
<rscale>  2 0.33262151E+03</rscale>
<asrwt>0</asrwt>
<pdfrwt beam="1">  1       21 0.11502500E+00 0.33262151E+03</pdfrwt>
<pdfrwt beam="2">  1       21 0.24082896E-01 0.33262151E+03</pdfrwt>
<totfact> 0.88076011E+03</totfact>
</mgrwt>
</event>
<event>
 4    1  0.4053645E-001  0.1823369E+03  0.7546771E-02  0.1165560E+00
         21   -1    0    0  501  502  0.00000000000E+00  0.00000000000E+00  0.16177275692E+03  0.16177275692E+03  0.00000000000E+00 0.  1.
         21   -1    0    0  502  503 -0.00000000000E+00 -0.00000000000E+00 -0.59871117334E+03  0.59871117334E+03  0.00000000000E+00 0.  1.
          6    1    1    2  501    0  0.54212700325E+02 -0.19461076595E+02  0.89676362491E+02  0.20319596543E+03  0.17300000000E+03 0.  1.
         -6    1    1    2    0  503 -0.54212700325E+02  0.19461076595E+02 -0.52661477890E+03  0.55728796482E+03  0.17300000000E+03 0.  1.
<mgrwt>
<rscale>  2 0.18233691E+03</rscale>
<asrwt>0</asrwt>
<pdfrwt beam="1">  1       21 0.24888116E-01 0.18233691E+03</pdfrwt>
<pdfrwt beam="2">  1       21 0.92109412E-01 0.18233691E+03</pdfrwt>
<totfact> 0.15311549E+04</totfact>
</mgrwt>
</event>
<event>
 4    1  0.4053645E-001  0.2011352E+03  0.7546771E-02  0.1148785E+00
         21   -1    0    0  503  502  0.00000000000E+00  0.00000000000E+00  0.37326199635E+02  0.37326199635E+02  0.00000000000E+00 0.  1.
         21   -1    0    0  501  503 -0.00000000000E+00 -0.00000000000E+00 -0.10840225210E+04  0.10840225210E+04  0.00000000000E+00 0. -1.
          6    1    1    2  501    0  0.28740206423E+02  0.98490384217E+02 -0.51592859548E+03  0.55374874346E+03  0.17300000000E+03 0. -1.
         -6    1    1    2    0  502 -0.28740206423E+02 -0.98490384217E+02 -0.53076772589E+03  0.56759997718E+03  0.17300000000E+03 0.  1.
<mgrwt>
<rscale>  2 0.20113517E+03</rscale>
<asrwt>0</asrwt>
<pdfrwt beam="1">  1       21 0.57424927E-02 0.20113517E+03</pdfrwt>
<pdfrwt beam="2">  1       21 0.16677268E+00 0.20113517E+03</pdfrwt>
<totfact> 0.47555174E+04</totfact>
</mgrwt>
</event>
<event>
 4    1  0.4053645E-001  0.1973244E+03  0.7546771E-02  0.1152016E+00
         21   -1    0    0  501  502  0.00000000000E+00  0.00000000000E+00  0.44690965807E+02  0.44690965807E+02  0.00000000000E+00 0.  1.
         21   -1    0    0  502  503 -0.00000000000E+00 -0.00000000000E+00 -0.94133779349E+03  0.94133779349E+03  0.00000000000E+00 0.  1.
          6    1    1    2  501    0 -0.94856283175E+02 -0.31918251695E+01 -0.31379467012E+03  0.37068045160E+03  0.17300000000E+03 0.  1.
         -6    1    1    2    0  503  0.94856283175E+02  0.31918251695E+01 -0.58285215757E+03  0.61534830770E+03  0.17300000000E+03 0.  1.
<mgrwt>
<rscale>  2 0.19732436E+03</rscale>
<asrwt>0</asrwt>
<pdfrwt beam="1">  1       21 0.68755333E-02 0.19732436E+03</pdfrwt>
<pdfrwt beam="2">  1       21 0.14482120E+00 0.19732436E+03</pdfrwt>
<totfact> 0.50998999E+04</totfact>
</mgrwt>
</event>
<event>
 4    1  0.4053645E-001  0.2946118E+03  0.7546771E-02  0.1087966E+00
         21   -1    0    0  501  502  0.00000000000E+00  0.00000000000E+00  0.28181222337E+03  0.28181222337E+03  0.00000000000E+00 0.  1.
         21   -1    0    0  502  503 -0.00000000000E+00 -0.00000000000E+00 -0.48658489446E+03  0.48658489446E+03  0.00000000000E+00 0. -1.
          6    1    1    2  501    0  0.13946652857E+03  0.19343268909E+03  0.13037327024E+03  0.32216968726E+03  0.17300000000E+03 0.  1.
         -6    1    1    2    0  503 -0.13946652857E+03 -0.19343268909E+03 -0.33514594134E+03  0.44622743057E+03  0.17300000000E+03 0. -1.
<mgrwt>
<rscale>  2 0.29461181E+03</rscale>
<asrwt>0</asrwt>
<pdfrwt beam="1">  1       21 0.43355727E-01 0.29461181E+03</pdfrwt>
<pdfrwt beam="2">  1       21 0.74859214E-01 0.29461181E+03</pdfrwt>
<totfact> 0.76827492E+03</totfact>
</mgrwt>
</event>
<event>
 4    1  0.4053645E-001  0.1733783E+03  0.7546771E-02  0.1174370E+00
         21   -1    0    0  501  502  0.00000000000E+00  0.00000000000E+00  0.19432228048E+04  0.19432228048E+04  0.00000000000E+00 0. -1.
         21   -1    0    0  502  503 -0.00000000000E+00 -0.00000000000E+00 -0.16070933730E+02  0.16070933730E+02  0.00000000000E+00 0. -1.
          6    1    1    2  501    0 -0.10463279515E+02  0.46417914814E+01  0.77400783972E+03  0.79318860455E+03  0.17300000000E+03 0. -1.
         -6    1    1    2    0  503  0.10463279515E+02 -0.46417914814E+01  0.11531440313E+04  0.11661051339E+04  0.17300000000E+03 0. -1.
<mgrwt>
<rscale>  2 0.17337828E+03</rscale>
<asrwt>0</asrwt>
<pdfrwt beam="1">  1       21 0.29895717E+00 0.17337828E+03</pdfrwt>
<pdfrwt beam="2">  1       21 0.24724529E-02 0.17337828E+03</pdfrwt>
<totfact> 0.30700718E+04</totfact>
</mgrwt>
</event>
<event>
 4    1  0.4053645E-001  0.1956559E+03  0.7546771E-02  0.1153457E+00
         21   -1    0    0  503  502  0.00000000000E+00  0.00000000000E+00  0.32803579046E+03  0.32803579046E+03  0.00000000000E+00 0.  1.
         21   -1    0    0  501  503 -0.00000000000E+00 -0.00000000000E+00 -0.12013766689E+03  0.12013766689E+03  0.00000000000E+00 0. -1.
          6    1    1    2  501    0  0.78355118719E+02 -0.47039416148E+02  0.66033853847E+02  0.20649867107E+03  0.17300000000E+03 0. -1.
         -6    1    1    2    0  502 -0.78355118719E+02  0.47039416148E+02  0.14186426972E+03  0.24167478628E+03  0.17300000000E+03 0. -1.
<mgrwt>
<rscale>  2 0.19565590E+03</rscale>
<asrwt>0</asrwt>
<pdfrwt beam="1">  1       21 0.50467044E-01 0.19565590E+03</pdfrwt>
<pdfrwt beam="2">  1       21 0.18482718E-01 0.19565590E+03</pdfrwt>
<totfact> 0.99791161E+04</totfact>
</mgrwt>
</event>
<event>
 4    1  0.4053645E-001  0.2007097E+03  0.7546771E-02  0.1149142E+00
         21   -1    0    0  501  502  0.00000000000E+00  0.00000000000E+00  0.44549662610E+02  0.44549662610E+02  0.00000000000E+00 0.  1.
         21   -1    0    0  502  503 -0.00000000000E+00 -0.00000000000E+00 -0.97474508198E+03  0.97474508198E+03  0.00000000000E+00 0.  1.
          6    1    1    2  501    0 -0.91664809002E+02  0.44192036402E+02 -0.60214804499E+03  0.63471776513E+03  0.17300000000E+03 0.  1.
         -6    1    1    2    0  503  0.91664809002E+02 -0.44192036402E+02 -0.32804737438E+03  0.38457697946E+03  0.17300000000E+03 0.  1.
<mgrwt>
<rscale>  2 0.20070967E+03</rscale>
<asrwt>0</asrwt>
<pdfrwt beam="1">  1       21 0.68537944E-02 0.20070967E+03</pdfrwt>
<pdfrwt beam="2">  1       21 0.14996078E+00 0.20070967E+03</pdfrwt>
<totfact> 0.46705857E+04</totfact>
</mgrwt>
</event>
<event>
 4    1  0.4053645E-001  0.2222833E+03  0.7546771E-02  0.1132192E+00
         21   -1    0    0  501  502  0.00000000000E+00  0.00000000000E+00  0.72072501135E+02  0.72072501135E+02  0.00000000000E+00 0. -1.
         21   -1    0    0  502  503 -0.00000000000E+00 -0.00000000000E+00 -0.70603118490E+03  0.70603118490E+03  0.00000000000E+00 0. -1.
          6    1    1    2  501    0  0.12189359622E+03 -0.67991165730E+02 -0.25072825688E+03  0.33507388172E+03  0.17300000000E+03 0. -1.
         -6    1    1    2    0  503 -0.12189359622E+03  0.67991165730E+02 -0.38323042689E+03  0.44302980431E+03  0.17300000000E+03 0. -1.
<mgrwt>
<rscale>  2 0.22228326E+03</rscale>
<asrwt>0</asrwt>
<pdfrwt beam="1">  1       21 0.11088077E-01 0.22228326E+03</pdfrwt>
<pdfrwt beam="2">  1       21 0.10862018E+00 0.22228326E+03</pdfrwt>
<totfact> 0.44806529E+04</totfact>
</mgrwt>
</event>
<event>
 4    1  0.4053645E-001  0.2137380E+03  0.7546771E-02  0.1138640E+00
         21   -1    0    0  501  502  0.00000000000E+00  0.00000000000E+00  0.36565094760E+03  0.36565094760E+03  0.00000000000E+00 0.  1.
         21   -1    0    0  502  503 -0.00000000000E+00 -0.00000000000E+00 -0.13440051086E+03  0.13440051086E+03  0.00000000000E+00 0. -1.
          6    1    1    2  501    0 -0.10348221318E+03  0.71037816435E+02  0.49285707092E+02  0.21934680470E+03  0.17300000000E+03 0.  1.
         -6    1    1    2    0  503  0.10348221318E+03 -0.71037816435E+02  0.18196472964E+03  0.28070465376E+03  0.17300000000E+03 0.  1.
<mgrwt>
<rscale>  2 0.21373802E+03</rscale>
<asrwt>0</asrwt>
<pdfrwt beam="1">  1       21 0.56253992E-01 0.21373802E+03</pdfrwt>
<pdfrwt beam="2">  1       21 0.20677002E-01 0.21373802E+03</pdfrwt>
<totfact> 0.63883131E+04</totfact>
</mgrwt>
</event>
<event>
 4    1  0.4053645E-001  0.3026665E+03  0.7546771E-02  0.1083915E+00
         21   -1    0    0  501  502  0.00000000000E+00  0.00000000000E+00  0.15680672799E+04  0.15680672799E+04  0.00000000000E+00 0. -1.
         21   -1    0    0  502  503 -0.00000000000E+00 -0.00000000000E+00 -0.62482816079E+02  0.62482816079E+02  0.00000000000E+00 0.  1.
          6    1    1    2  501    0 -0.71959794967E+02 -0.23769690792E+03  0.96067523034E+03  0.10072258586E+04  0.17300000000E+03 0. -1.
         -6    1    1    2    0  503  0.71959794967E+02  0.23769690792E+03  0.54490923351E+03  0.62332423736E+03  0.17300000000E+03 0.  1.
<mgrwt>
<rscale>  2 0.30266654E+03</rscale>
<asrwt>0</asrwt>
<pdfrwt beam="1">  1       21 0.24124109E+00 0.30266654E+03</pdfrwt>
<pdfrwt beam="2">  1       21 0.96127421E-02 0.30266654E+03</pdfrwt>
<totfact> 0.59716616E+03</totfact>
</mgrwt>
</event>
<event>
 4    1  0.4053645E-001  0.2608419E+03  0.7546771E-02  0.1106638E+00
         21   -1    0    0  501  502  0.00000000000E+00  0.00000000000E+00  0.25058701935E+03  0.25058701935E+03  0.00000000000E+00 0. -1.
         21   -1    0    0  502  503 -0.00000000000E+00 -0.00000000000E+00 -0.28017940181E+03  0.28017940181E+03  0.00000000000E+00 0. -1.
          6    1    1    2  501    0  0.14643952238E+03  0.12909280127E+03  0.31868626834E+02  0.26278145755E+03  0.17300000000E+03 0. -1.
         -6    1    1    2    0  503 -0.14643952238E+03 -0.12909280127E+03 -0.61461009293E+02  0.26798496361E+03  0.17300000000E+03 0. -1.
<mgrwt>
<rscale>  2 0.26084188E+03</rscale>
<asrwt>0</asrwt>
<pdfrwt beam="1">  1       21 0.38551849E-01 0.26084188E+03</pdfrwt>
<pdfrwt beam="2">  1       21 0.43104523E-01 0.26084188E+03</pdfrwt>
<totfact> 0.32495704E+04</totfact>
</mgrwt>
</event>
<event>
 4    1  0.4053645E-001  0.1867889E+03  0.7546771E-02  0.1161390E+00
         21   -1    0    0  501  502  0.00000000000E+00  0.00000000000E+00  0.30325372865E+03  0.30325372865E+03  0.00000000000E+00 0. -1.
         21   -1    0    0  502  503 -0.00000000000E+00 -0.00000000000E+00 -0.13655664699E+03  0.13655664699E+03  0.00000000000E+00 0. -1.
          6    1    1    2  501    0  0.61541924103E+02  0.34258843601E+02  0.17061370756E+03  0.25298046169E+03  0.17300000000E+03 0. -1.
         -6    1    1    2    0  503 -0.61541924103E+02 -0.34258843601E+02 -0.39166259068E+01  0.18682991395E+03  0.17300000000E+03 0. -1.
<mgrwt>
<rscale>  2 0.18678886E+03</rscale>
<asrwt>0</asrwt>
<pdfrwt beam="1">  1       21 0.46654420E-01 0.18678886E+03</pdfrwt>
<pdfrwt beam="2">  1       21 0.21008715E-01 0.18678886E+03</pdfrwt>
<totfact> 0.92819854E+04</totfact>
</mgrwt>
</event>
<event>
 4    1  0.4053645E-001  0.2008717E+03  0.7546771E-02  0.1149006E+00
         21   -1    0    0  501  502  0.00000000000E+00  0.00000000000E+00  0.32666119982E+03  0.32666119982E+03  0.00000000000E+00 0. -1.
         21   -1    0    0  502  503 -0.00000000000E+00 -0.00000000000E+00 -0.20595525960E+03  0.20595525960E+03  0.00000000000E+00 0. -1.
          6    1    1    2  501    0 -0.94874886817E+02 -0.37672178147E+02  0.22883464344E+03  0.30449093779E+03  0.17300000000E+03 0. -1.
         -6    1    1    2    0  503  0.94874886817E+02  0.37672178147E+02 -0.10812870322E+03  0.22812552162E+03  0.17300000000E+03 0. -1.
<mgrwt>
<rscale>  2 0.20087169E+03</rscale>
<asrwt>0</asrwt>
<pdfrwt beam="1">  1       21 0.50255569E-01 0.20087169E+03</pdfrwt>
<pdfrwt beam="2">  1       21 0.31685425E-01 0.20087169E+03</pdfrwt>
<totfact> 0.35946357E+04</totfact>
</mgrwt>
</event>
<event>
 4    1  0.4053645E-001  0.2177636E+03  0.7546771E-02  0.1135561E+00
         21   -1    0    0  503  502  0.00000000000E+00  0.00000000000E+00  0.25954499933E+03  0.25954499933E+03  0.00000000000E+00 0.  1.
         21   -1    0    0  501  503 -0.00000000000E+00 -0.00000000000E+00 -0.50670676620E+03  0.50670676620E+03  0.00000000000E+00 0. -1.
          6    1    1    2  501    0  0.91547337882E+02 -0.95451934388E+02 -0.42994275779E+03  0.48194580798E+03  0.17300000000E+03 0. -1.
         -6    1    1    2    0  502 -0.91547337882E+02  0.95451934388E+02  0.18278099092E+03  0.28430595754E+03  0.17300000000E+03 0.  1.
<mgrwt>
<rscale>  2 0.21776360E+03</rscale>
<asrwt>0</asrwt>
<pdfrwt beam="1">  1       21 0.39930000E-01 0.21776360E+03</pdfrwt>
<pdfrwt beam="2">  1       21 0.77954886E-01 0.21776360E+03</pdfrwt>
<totfact> 0.86620927E+03</totfact>
</mgrwt>
</event>
<event>
 4    1  0.4053645E-001  0.1806542E+03  0.7546771E-02  0.1167171E+00
         21   -1    0    0  503  502  0.00000000000E+00  0.00000000000E+00  0.56195478604E+02  0.56195478604E+02  0.00000000000E+00 0. -1.
         21   -1    0    0  501  503 -0.00000000000E+00 -0.00000000000E+00 -0.60070535124E+03  0.60070535124E+03  0.00000000000E+00 0. -1.
          6    1    1    2  501    0 -0.19463231755E+02  0.48250649098E+02 -0.21240168699E+03  0.27883762150E+03  0.17300000000E+03 0. -1.
         -6    1    1    2    0  502  0.19463231755E+02 -0.48250649098E+02 -0.33210818565E+03  0.37806320835E+03  0.17300000000E+03 0. -1.
<mgrwt>
<rscale>  2 0.18065421E+03</rscale>
<asrwt>0</asrwt>
<pdfrwt beam="1">  1       21 0.86454588E-02 0.18065421E+03</pdfrwt>
<pdfrwt beam="2">  1       21 0.92416202E-01 0.18065421E+03</pdfrwt>
<totfact> 0.10403860E+05</totfact>
</mgrwt>
</event>
<event>
 4    1  0.4053645E-001  0.1852134E+03  0.7546771E-02  0.1162851E+00
         21   -1    0    0  501  502  0.00000000000E+00  0.00000000000E+00  0.16344336473E+03  0.16344336473E+03  0.00000000000E+00 0.  1.
         21   -1    0    0  502  503 -0.00000000000E+00 -0.00000000000E+00 -0.22864338345E+03  0.22864338345E+03  0.00000000000E+00 0.  1.
          6    1    1    2  501    0 -0.39058570385E+02  0.53380127157E+02  0.23555432805E+02  0.18670529802E+03  0.17300000000E+03 0.  1.
         -6    1    1    2    0  503  0.39058570385E+02 -0.53380127157E+02 -0.88755451523E+02  0.20538145016E+03  0.17300000000E+03 0.  1.
<mgrwt>
<rscale>  2 0.18521342E+03</rscale>
<asrwt>0</asrwt>
<pdfrwt beam="1">  1       21 0.25145133E-01 0.18521342E+03</pdfrwt>
<pdfrwt beam="2">  1       21 0.35175905E-01 0.18521342E+03</pdfrwt>
<totfact> 0.11702463E+05</totfact>
</mgrwt>
</event>
<event>
 4    1  0.4053645E-001  0.2121473E+03  0.7546771E-02  0.1139877E+00
         21   -1    0    0  503  502  0.00000000000E+00  0.00000000000E+00  0.52231507545E+02  0.52231507545E+02  0.00000000000E+00 0. -1.
         21   -1    0    0  501  503 -0.00000000000E+00 -0.00000000000E+00 -0.11359151753E+04  0.11359151753E+04  0.00000000000E+00 0. -1.
          6    1    1    2  501    0 -0.12198055777E+03  0.14079425762E+02 -0.24994180946E+03  0.32783745183E+03  0.17300000000E+03 0. -1.
         -6    1    1    2    0  502  0.12198055777E+03 -0.14079425762E+02 -0.83374185831E+03  0.86030923104E+03  0.17300000000E+03 0. -1.
<mgrwt>
<rscale>  2 0.21214732E+03</rscale>
<asrwt>0</asrwt>
<pdfrwt beam="1">  1       21 0.80356162E-02 0.21214732E+03</pdfrwt>
<pdfrwt beam="2">  1       21 0.17475619E+00 0.21214732E+03</pdfrwt>
<totfact> 0.23229182E+04</totfact>
</mgrwt>
</event>
<event>
 4    1  0.4053645E-001  0.2197426E+03  0.7546771E-02  0.1134075E+00
         21   -1    0    0  501  502  0.00000000000E+00  0.00000000000E+00  0.82956821119E+03  0.82956821119E+03  0.00000000000E+00 0.  1.
         21   -1    0    0  502  503 -0.00000000000E+00 -0.00000000000E+00 -0.15427636464E+03  0.15427636464E+03  0.00000000000E+00 0.  1.
          6    1    1    2  501    0  0.47241228203E+02 -0.12698843051E+03  0.72583109221E+03  0.75836506351E+03  0.17300000000E+03 0.  1.
         -6    1    1    2    0  503 -0.47241228203E+02  0.12698843051E+03 -0.50539245655E+02  0.22547951232E+03  0.17300000000E+03 0.  1.
<mgrwt>
<rscale>  2 0.21974257E+03</rscale>
<asrwt>0</asrwt>
<pdfrwt beam="1">  1       21 0.12762588E+00 0.21974257E+03</pdfrwt>
<pdfrwt beam="2">  1       21 0.23734826E-01 0.21974257E+03</pdfrwt>
<totfact> 0.74208413E+03</totfact>
</mgrwt>
</event>
<event>
 4    1  0.4053645E-001  0.1928587E+03  0.7546771E-02  0.1155908E+00
         21   -1    0    0  501  502  0.00000000000E+00  0.00000000000E+00  0.80785374682E+03  0.80785374682E+03  0.00000000000E+00 0.  1.
         21   -1    0    0  502  503 -0.00000000000E+00 -0.00000000000E+00 -0.46108565862E+02  0.46108565862E+02  0.00000000000E+00 0.  1.
          6    1    1    2  501    0 -0.30543619050E+02 -0.79577509440E+02  0.36454244392E+03  0.41241445912E+03  0.17300000000E+03 0.  1.
         -6    1    1    2    0  503  0.30543619050E+02  0.79577509440E+02  0.39720273703E+03  0.44154785356E+03  0.17300000000E+03 0.  1.
<mgrwt>
<rscale>  2 0.19285874E+03</rscale>
<asrwt>0</asrwt>
<pdfrwt beam="1">  1       21 0.12428518E+00 0.19285874E+03</pdfrwt>
<pdfrwt beam="2">  1       21 0.70936261E-02 0.19285874E+03</pdfrwt>
<totfact> 0.71535554E+04</totfact>
</mgrwt>
</event>
<event>
 4    1  0.4053645E-001  0.1838119E+03  0.7546771E-02  0.1164164E+00
         21   -1    0    0  501  502  0.00000000000E+00  0.00000000000E+00  0.18834702353E+03  0.18834702353E+03  0.00000000000E+00 0. -1.
         21   -1    0    0  502  503 -0.00000000000E+00 -0.00000000000E+00 -0.26669273003E+03  0.26669273003E+03  0.00000000000E+00 0.  1.
          6    1    1    2  501    0  0.55628920169E+00 -0.62108955607E+02  0.91005103112E+02  0.20510670544E+03  0.17300000000E+03 0. -1.
         -6    1    1    2    0  503 -0.55628920169E+00  0.62108955607E+02 -0.16935080962E+03  0.24993304812E+03  0.17300000000E+03 0.  1.
<mgrwt>
<rscale>  2 0.18381195E+03</rscale>
<asrwt>0</asrwt>
<pdfrwt beam="1">  1       21 0.28976465E-01 0.18381195E+03</pdfrwt>
<pdfrwt beam="2">  1       21 0.41029651E-01 0.18381195E+03</pdfrwt>
<totfact> 0.65477244E+04</totfact>
</mgrwt>
</event>
<event>
 4    1  0.4053645E-001  0.2436673E+03  0.7546771E-02  0.1117374E+00
         21   -1    0    0  501  502  0.00000000000E+00  0.00000000000E+00  0.18362143474E+04  0.18362143474E+04  0.00000000000E+00 0. -1.
         21   -1    0    0  502  503 -0.00000000000E+00 -0.00000000000E+00 -0.36283058350E+02  0.36283058350E+02  0.00000000000E+00 0.  1.
          6    1    1    2  501    0  0.16710170603E+03 -0.39010004535E+02  0.12088087888E+04  0.12331230468E+04  0.17300000000E+03 0. -1.
         -6    1    1    2    0  503 -0.16710170603E+03  0.39010004535E+02  0.59112250028E+03  0.63937435900E+03  0.17300000000E+03 0.  1.
<mgrwt>
<rscale>  2 0.24366732E+03</rscale>
<asrwt>0</asrwt>
<pdfrwt beam="1">  1       21 0.28249444E+00 0.24366732E+03</pdfrwt>
<pdfrwt beam="2">  1       21 0.55820104E-02 0.24366732E+03</pdfrwt>
<totfact> 0.91535011E+03</totfact>
</mgrwt>
</event>
<event>
 4    1  0.4053645E-001  0.1748470E+03  0.7546771E-02  0.1172885E+00
         21   -1    0    0  501  502  0.00000000000E+00  0.00000000000E+00  0.10376100541E+04  0.10376100541E+04  0.00000000000E+00 0. -1.
         21   -1    0    0  502  503 -0.00000000000E+00 -0.00000000000E+00 -0.36583479988E+02  0.36583479988E+02  0.00000000000E+00 0. -1.
          6    1    1    2  501    0  0.23904108423E+02 -0.84293568363E+01  0.73746192629E+03  0.75790603190E+03  0.17300000000E+03 0. -1.
         -6    1    1    2    0  503 -0.23904108423E+02  0.84293568363E+01  0.26356464777E+03  0.31628750214E+03  0.17300000000E+03 0. -1.
<mgrwt>
<rscale>  2 0.17484696E+03</rscale>
<asrwt>0</asrwt>
<pdfrwt beam="1">  1       21 0.15963229E+00 0.17484696E+03</pdfrwt>
<pdfrwt beam="2">  1       21 0.56282285E-02 0.17484696E+03</pdfrwt>
<totfact> 0.56272999E+04</totfact>
</mgrwt>
</event>
<event>
 4    1  0.4053645E-001  0.2301702E+03  0.7546771E-02  0.1126520E+00
         21   -1    0    0  501  502  0.00000000000E+00  0.00000000000E+00  0.89376028332E+02  0.89376028332E+02  0.00000000000E+00 0. -1.
         21   -1    0    0  502  503 -0.00000000000E+00 -0.00000000000E+00 -0.65164490857E+03  0.65164490857E+03  0.00000000000E+00 0. -1.
          6    1    1    2  501    0 -0.15181709844E+03 -0.94420784293E+00 -0.39251405576E+03  0.45502264436E+03  0.17300000000E+03 0. -1.
         -6    1    1    2    0  503  0.15181709844E+03  0.94420784293E+00 -0.16975482448E+03  0.28599829255E+03  0.17300000000E+03 0. -1.
<mgrwt>
<rscale>  2 0.23017020E+03</rscale>
<asrwt>0</asrwt>
<pdfrwt beam="1">  1       21 0.13750158E-01 0.23017020E+03</pdfrwt>
<pdfrwt beam="2">  1       21 0.10025306E+00 0.23017020E+03</pdfrwt>
<totfact> 0.36759263E+04</totfact>
</mgrwt>
</event>
<event>
 4    1  0.4053645E-001  0.2065925E+03  0.7546771E-02  0.1144293E+00
         21   -1    0    0  501  502  0.00000000000E+00  0.00000000000E+00  0.30338505349E+03  0.30338505349E+03  0.00000000000E+00 0.  1.
         21   -1    0    0  502  503 -0.00000000000E+00 -0.00000000000E+00 -0.14150924079E+03  0.14150924079E+03  0.00000000000E+00 0.  1.
          6    1    1    2  501    0 -0.79776301242E+02  0.79919896783E+02  0.63917554283E+02  0.21625425288E+03  0.17300000000E+03 0.  1.
         -6    1    1    2    0  503  0.79776301242E+02 -0.79919896783E+02  0.97958258415E+02  0.22864004140E+03  0.17300000000E+03 0.  1.
<mgrwt>
<rscale>  2 0.20659247E+03</rscale>
<asrwt>0</asrwt>
<pdfrwt beam="1">  1       21 0.46674623E-01 0.20659247E+03</pdfrwt>
<pdfrwt beam="2">  1       21 0.21770653E-01 0.20659247E+03</pdfrwt>
<totfact> 0.86026960E+04</totfact>
</mgrwt>
</event>
<event>
 4    1  0.4053645E-001  0.2296836E+03  0.7546771E-02  0.1126863E+00
         21   -1    0    0  501  502  0.00000000000E+00  0.00000000000E+00  0.39532892296E+02  0.39532892296E+02  0.00000000000E+00 0. -1.
         21   -1    0    0  502  503 -0.00000000000E+00 -0.00000000000E+00 -0.15978630793E+04  0.15978630793E+04  0.00000000000E+00 0. -1.
          6    1    1    2  501    0  0.48954475177E+02 -0.14293017298E+03 -0.11115754535E+04  0.11350570752E+04  0.17300000000E+03 0. -1.
         -6    1    1    2    0  503 -0.48954475177E+02  0.14293017298E+03 -0.44675473349E+03  0.50233889645E+03  0.17300000000E+03 0. -1.
<mgrwt>
<rscale>  2 0.22968364E+03</rscale>
<asrwt>0</asrwt>
<pdfrwt beam="1">  1       21 0.60819834E-02 0.22968364E+03</pdfrwt>
<pdfrwt beam="2">  1       21 0.24582509E+00 0.22968364E+03</pdfrwt>
<totfact> 0.13133133E+04</totfact>
</mgrwt>
</event>
<event>
 4    1  0.4053645E-001  0.2164309E+03  0.7546771E-02  0.1136572E+00
         21   -1    0    0  503  502  0.00000000000E+00  0.00000000000E+00  0.49760193243E+02  0.49760193243E+02  0.00000000000E+00 0.  1.
         21   -1    0    0  501  503 -0.00000000000E+00 -0.00000000000E+00 -0.94136478001E+03  0.94136478001E+03  0.00000000000E+00 0. -1.
          6    1    1    2  501    0  0.44567189588E+02 -0.12217658259E+03 -0.44494055198E+03  0.49478727401E+03  0.17300000000E+03 0.  1.
         -6    1    1    2    0  502 -0.44567189588E+02  0.12217658259E+03 -0.44666403478E+03  0.49633769924E+03  0.17300000000E+03 0. -1.
<mgrwt>
<rscale>  2 0.21643094E+03</rscale>
<asrwt>0</asrwt>
<pdfrwt beam="1">  1       21 0.76554139E-02 0.21643094E+03</pdfrwt>
<pdfrwt beam="2">  1       21 0.14482536E+00 0.21643094E+03</pdfrwt>
<totfact> 0.41882502E+04</totfact>
</mgrwt>
</event>
<event>
 4    1  0.4053645E-001  0.1906362E+03  0.7546771E-02  0.1157889E+00
         21   -1    0    0  501  502  0.00000000000E+00  0.00000000000E+00  0.11258753904E+03  0.11258753904E+03  0.00000000000E+00 0.  1.
         21   -1    0    0  502  503 -0.00000000000E+00 -0.00000000000E+00 -0.36020452702E+03  0.36020452702E+03  0.00000000000E+00 0.  1.
          6    1    1    2  501    0  0.78872559702E+02 -0.13866218762E+02 -0.47620831420E+02  0.19649401080E+03  0.17300000000E+03 0.  1.
         -6    1    1    2    0  503 -0.78872559702E+02  0.13866218762E+02 -0.19999615656E+03  0.27629805525E+03  0.17300000000E+03 0.  1.
<mgrwt>
<rscale>  2 0.19063618E+03</rscale>
<asrwt>0</asrwt>
<pdfrwt beam="1">  1       21 0.17321160E-01 0.19063618E+03</pdfrwt>
<pdfrwt beam="2">  1       21 0.55416080E-01 0.19063618E+03</pdfrwt>
<totfact> 0.92600791E+04</totfact>
</mgrwt>
</event>
<event>
 4    1  0.4053645E-001  0.1903813E+03  0.7546771E-02  0.1158118E+00
         21   -1    0    0  503  502  0.00000000000E+00  0.00000000000E+00  0.13085764021E+03  0.13085764021E+03  0.00000000000E+00 0. -1.
         21   -1    0    0  501  503 -0.00000000000E+00 -0.00000000000E+00 -0.27739522456E+03  0.27739522456E+03  0.00000000000E+00 0. -1.
          6    1    1    2  501    0 -0.24737147200E+02  0.75525691208E+02 -0.81158520272E+02  0.20695835788E+03  0.17300000000E+03 0. -1.
         -6    1    1    2    0  502  0.24737147200E+02 -0.75525691208E+02 -0.65379064079E+02  0.20129450689E+03  0.17300000000E+03 0. -1.
<mgrwt>
<rscale>  2 0.19038134E+03</rscale>
<asrwt>0</asrwt>
<pdfrwt beam="1">  1       21 0.20131945E-01 0.19038134E+03</pdfrwt>
<pdfrwt beam="2">  1       21 0.42676188E-01 0.19038134E+03</pdfrwt>
<totfact> 0.12052769E+05</totfact>
</mgrwt>
</event>
<event>
 4    1  0.4053645E-001  0.2120022E+03  0.7546771E-02  0.1139990E+00
         21   -1    0    0  501  502  0.00000000000E+00  0.00000000000E+00  0.16806151471E+03  0.16806151471E+03  0.00000000000E+00 0. -1.
         21   -1    0    0  502  503 -0.00000000000E+00 -0.00000000000E+00 -0.50123133158E+03  0.50123133158E+03  0.00000000000E+00 0. -1.
          6    1    1    2  501    0 -0.10843663159E+03  0.57073924339E+02  0.61969297716E+02  0.22087356060E+03  0.17300000000E+03 0. -1.
         -6    1    1    2    0  503  0.10843663159E+03 -0.57073924339E+02 -0.39513911458E+03  0.44841928570E+03  0.17300000000E+03 0. -1.
<mgrwt>
<rscale>  2 0.21200221E+03</rscale>
<asrwt>0</asrwt>
<pdfrwt beam="1">  1       21 0.25855617E-01 0.21200221E+03</pdfrwt>
<pdfrwt beam="2">  1       21 0.77112513E-01 0.21200221E+03</pdfrwt>
<totfact> 0.20977588E+04</totfact>
</mgrwt>
</event>
<event>
 4    1  0.4053645E-001  0.2636715E+03  0.7546771E-02  0.1104957E+00
         21   -1    0    0  501  502  0.00000000000E+00  0.00000000000E+00  0.26622755577E+03  0.26622755577E+03  0.00000000000E+00 0.  1.
         21   -1    0    0  502  503 -0.00000000000E+00 -0.00000000000E+00 -0.48461000922E+03  0.48461000922E+03  0.00000000000E+00 0.  1.
          6    1    1    2  501    0  0.16925933327E+02  0.19826037332E+03  0.14574375597E+03  0.30127048520E+03  0.17300000000E+03 0.  1.
         -6    1    1    2    0  503 -0.16925933327E+02 -0.19826037332E+03 -0.36412620941E+03  0.44956707979E+03  0.17300000000E+03 0.  1.
<mgrwt>
<rscale>  2 0.26367151E+03</rscale>
<asrwt>0</asrwt>
<pdfrwt beam="1">  1       21 0.40958086E-01 0.26367151E+03</pdfrwt>
<pdfrwt beam="2">  1       21 0.74555385E-01 0.26367151E+03</pdfrwt>
<totfact> 0.88519774E+03</totfact>
</mgrwt>
</event>
<event>
 4    1  0.4053645E-001  0.1781625E+03  0.7546771E-02  0.1169593E+00
         21   -1    0    0  501  502  0.00000000000E+00  0.00000000000E+00  0.11753479931E+03  0.11753479931E+03  0.00000000000E+00 0. -1.
         21   -1    0    0  502  503 -0.00000000000E+00 -0.00000000000E+00 -0.28361665862E+03  0.28361665862E+03  0.00000000000E+00 0.  1.
          6    1    1    2  501    0  0.41014247770E+02  0.11432378015E+02 -0.12688709438E+03  0.21872860469E+03  0.17300000000E+03 0.  1.
         -6    1    1    2    0  503 -0.41014247770E+02 -0.11432378015E+02 -0.39194764926E+02  0.18242285324E+03  0.17300000000E+03 0.  1.
<mgrwt>
<rscale>  2 0.17816248E+03</rscale>
<asrwt>0</asrwt>
<pdfrwt beam="1">  1       21 0.18082277E-01 0.17816248E+03</pdfrwt>
<pdfrwt beam="2">  1       21 0.43633331E-01 0.17816248E+03</pdfrwt>
<totfact> 0.14120848E+05</totfact>
</mgrwt>
</event>
<event>
 4    1  0.4053645E-001  0.1811464E+03  0.7546771E-02  0.1166698E+00
         21   -1    0    0  501  502  0.00000000000E+00  0.00000000000E+00  0.23780211631E+04  0.23780211631E+04  0.00000000000E+00 0.  1.
         21   -1    0    0  502  503 -0.00000000000E+00 -0.00000000000E+00 -0.42082381911E+02  0.42082381911E+02  0.00000000000E+00 0.  1.
          6    1    1    2  501    0  0.30673176416E+02 -0.44092752757E+02  0.21599893977E+04  0.21675719625E+04  0.17300000000E+03 0.  1.
         -6    1    1    2    0  503 -0.30673176416E+02  0.44092752757E+02  0.17594938349E+03  0.25253158247E+03  0.17300000000E+03 0.  1.
<mgrwt>
<rscale>  2 0.18114639E+03</rscale>
<asrwt>0</asrwt>
<pdfrwt beam="1">  1       21 0.36584930E+00 0.18114639E+03</pdfrwt>
<pdfrwt beam="2">  1       21 0.64742145E-02 0.18114639E+03</pdfrwt>
<totfact> 0.24766961E+03</totfact>
</mgrwt>
</event>
<event>
 4    1  0.4053645E-001  0.1739349E+03  0.7546771E-02  0.1173805E+00
         21   -1    0    0  501  502  0.00000000000E+00  0.00000000000E+00  0.94680692260E+02  0.94680692260E+02  0.00000000000E+00 0.  1.
         21   -1    0    0  502  503 -0.00000000000E+00 -0.00000000000E+00 -0.32177471989E+03  0.32177471989E+03  0.00000000000E+00 0.  1.
          6    1    1    2  501    0 -0.17810954424E+02  0.26669669047E+01 -0.96156117834E+02  0.19874441327E+03  0.17300000000E+03 0. -1.
         -6    1    1    2    0  503  0.17810954424E+02 -0.26669669047E+01 -0.13093790979E+03  0.21771099887E+03  0.17300000000E+03 0. -1.
<mgrwt>
<rscale>  2 0.17393488E+03</rscale>
<asrwt>0</asrwt>
<pdfrwt beam="1">  1       21 0.14566260E-01 0.17393488E+03</pdfrwt>
<pdfrwt beam="2">  1       21 0.49503803E-01 0.17393488E+03</pdfrwt>
<totfact> 0.16194526E+05</totfact>
</mgrwt>
</event>
<event>
 4    1  0.4053645E-001  0.2512338E+03  0.7546771E-02  0.1112528E+00
         21   -1    0    0  503  502  0.00000000000E+00  0.00000000000E+00  0.52409261389E+03  0.52409261389E+03  0.00000000000E+00 0.  1.
         21   -1    0    0  501  503 -0.00000000000E+00 -0.00000000000E+00 -0.13942040383E+03  0.13942040383E+03  0.00000000000E+00 0.  1.
          6    1    1    2  501    0 -0.15981139026E+03  0.87462870952E+02  0.69908148609E+02  0.26077880185E+03  0.17300000000E+03 0.  1.
         -6    1    1    2    0  502  0.15981139026E+03 -0.87462870952E+02  0.31476406145E+03  0.40273421587E+03  0.17300000000E+03 0.  1.
<mgrwt>
<rscale>  2 0.25123382E+03</rscale>
<asrwt>0</asrwt>
<pdfrwt beam="1">  1       21 0.80629632E-01 0.25123382E+03</pdfrwt>
<pdfrwt beam="2">  1       21 0.21449293E-01 0.25123382E+03</pdfrwt>
<totfact> 0.26534295E+04</totfact>
</mgrwt>
</event>
<event>
 4    1  0.4053645E-001  0.3057586E+03  0.7546771E-02  0.1082397E+00
         21   -1    0    0  503  502  0.00000000000E+00  0.00000000000E+00  0.56383237397E+02  0.56383237397E+02  0.00000000000E+00 0.  1.
         21   -1    0    0  501  503 -0.00000000000E+00 -0.00000000000E+00 -0.16594555778E+04  0.16594555778E+04  0.00000000000E+00 0. -1.
          6    1    1    2  501    0  0.19995722152E+03 -0.15354625687E+03 -0.77690343718E+03  0.83490556002E+03  0.17300000000E+03 0.  1.
         -6    1    1    2    0  502 -0.19995722152E+03  0.15354625687E+03 -0.82616890321E+03  0.88093325517E+03  0.17300000000E+03 0. -1.
<mgrwt>
<rscale>  2 0.30575864E+03</rscale>
<asrwt>0</asrwt>
<pdfrwt beam="1">  1       21 0.86743458E-02 0.30575864E+03</pdfrwt>
<pdfrwt beam="2">  1       21 0.25530081E+00 0.30575864E+03</pdfrwt>
<totfact> 0.58814491E+03</totfact>
</mgrwt>
</event>
<event>
 4    1  0.4053645E-001  0.1893919E+03  0.7546771E-02  0.1159011E+00
         21   -1    0    0  501  502  0.00000000000E+00  0.00000000000E+00  0.69579077035E+02  0.69579077035E+02  0.00000000000E+00 0.  1.
         21   -1    0    0  502  503 -0.00000000000E+00 -0.00000000000E+00 -0.51617105936E+03  0.51617105936E+03  0.00000000000E+00 0.  1.
          6    1    1    2  501    0  0.11980649787E+01  0.77064035725E+02 -0.21288246530E+03  0.28493551024E+03  0.17300000000E+03 0.  1.
         -6    1    1    2    0  503 -0.11980649787E+01 -0.77064035725E+02 -0.23370951703E+03  0.30081462616E+03  0.17300000000E+03 0.  1.
<mgrwt>
<rscale>  2 0.18939192E+03</rscale>
<asrwt>0</asrwt>
<pdfrwt beam="1">  1       21 0.10704473E-01 0.18939192E+03</pdfrwt>
<pdfrwt beam="2">  1       21 0.79410934E-01 0.18939192E+03</pdfrwt>
<totfact> 0.10072517E+05</totfact>
</mgrwt>
</event>
<event>
 4    1  0.4053645E-001  0.2089970E+03  0.7546771E-02  0.1142363E+00
         21   -1    0    0  503  502  0.00000000000E+00  0.00000000000E+00  0.24528611334E+03  0.24528611334E+03  0.00000000000E+00 0.  1.
         21   -1    0    0  501  503 -0.00000000000E+00 -0.00000000000E+00 -0.18412500273E+03  0.18412500273E+03  0.00000000000E+00 0. -1.
          6    1    1    2  501    0  0.65759027461E+02 -0.97090213620E+02  0.69494125715E+02  0.22024802560E+03  0.17300000000E+03 0. -1.
         -6    1    1    2    0  502 -0.65759027461E+02  0.97090213620E+02 -0.83330151119E+01  0.20916309047E+03  0.17300000000E+03 0.  1.
<mgrwt>
<rscale>  2 0.20899703E+03</rscale>
<asrwt>0</asrwt>
<pdfrwt beam="1">  1       21 0.37736325E-01 0.20899703E+03</pdfrwt>
<pdfrwt beam="2">  1       21 0.28326923E-01 0.20899703E+03</pdfrwt>
<totfact> 0.80119189E+04</totfact>
</mgrwt>
</event>
<event>
 4    1  0.4053645E-001  0.1778180E+03  0.7546771E-02  0.1169932E+00
         21   -1    0    0  503  502  0.00000000000E+00  0.00000000000E+00  0.82255526471E+02  0.82255526471E+02  0.00000000000E+00 0.  1.
         21   -1    0    0  501  503 -0.00000000000E+00 -0.00000000000E+00 -0.39012626180E+03  0.39012626180E+03  0.00000000000E+00 0.  1.
          6    1    1    2  501    0 -0.48056750240E+01  0.40830631045E+02 -0.18254412929E+03  0.25483640651E+03  0.17300000000E+03 0. -1.
         -6    1    1    2    0  502  0.48056750240E+01 -0.40830631045E+02 -0.12532660603E+03  0.21754538176E+03  0.17300000000E+03 0. -1.
<mgrwt>
<rscale>  2 0.17781798E+03</rscale>
<asrwt>0</asrwt>
<pdfrwt beam="1">  1       21 0.12654697E-01 0.17781798E+03</pdfrwt>
<pdfrwt beam="2">  1       21 0.60019424E-01 0.17781798E+03</pdfrwt>
<totfact> 0.13885098E+05</totfact>
</mgrwt>
</event>
<event>
 4    1  0.4053645E-001  0.1741628E+03  0.7546771E-02  0.1173575E+00
         21   -1    0    0  501  502  0.00000000000E+00  0.00000000000E+00  0.19774965697E+03  0.19774965697E+03  0.00000000000E+00 0.  1.
         21   -1    0    0  502  503 -0.00000000000E+00 -0.00000000000E+00 -0.32934736171E+03  0.32934736171E+03  0.00000000000E+00 0.  1.
          6    1    1    2  501    0 -0.13894016632E+02  0.14513194186E+02  0.12683742865E+03  0.21545396216E+03  0.17300000000E+03 0.  1.
         -6    1    1    2    0  503  0.13894016632E+02 -0.14513194186E+02 -0.25843513340E+03  0.31164305652E+03  0.17300000000E+03 0.  1.
<mgrwt>
<rscale>  2 0.17416279E+03</rscale>
<asrwt>0</asrwt>
<pdfrwt beam="1">  1       21 0.30423024E-01 0.17416279E+03</pdfrwt>
<pdfrwt beam="2">  1       21 0.50668824E-01 0.17416279E+03</pdfrwt>
<totfact> 0.38795656E+04</totfact>
</mgrwt>
</event>
<event>
 4    1  0.4053645E-001  0.1802324E+03  0.7546771E-02  0.1167578E+00
         21   -1    0    0  503  502  0.00000000000E+00  0.00000000000E+00  0.63519089563E+03  0.63519089563E+03  0.00000000000E+00 0.  1.
         21   -1    0    0  501  503 -0.00000000000E+00 -0.00000000000E+00 -0.51884832308E+02  0.51884832308E+02  0.00000000000E+00 0.  1.
          6    1    1    2  501    0 -0.49377440000E+02 -0.10797601991E+02  0.33281132087E+03  0.37847997977E+03  0.17300000000E+03 0.  1.
         -6    1    1    2    0  502  0.49377440000E+02  0.10797601991E+02  0.25049474245E+03  0.30859574816E+03  0.17300000000E+03 0.  1.
<mgrwt>
<rscale>  2 0.18023240E+03</rscale>
<asrwt>0</asrwt>
<pdfrwt beam="1">  1       21 0.97721671E-01 0.18023240E+03</pdfrwt>
<pdfrwt beam="2">  1       21 0.79822823E-02 0.18023240E+03</pdfrwt>
<totfact> 0.10495529E+05</totfact>
</mgrwt>
</event>
<event>
 4    1  0.4053645E-001  0.2010416E+03  0.7546771E-02  0.1148863E+00
         21   -1    0    0  501  502  0.00000000000E+00  0.00000000000E+00  0.63679161657E+02  0.63679161657E+02  0.00000000000E+00 0.  1.
         21   -1    0    0  502  503 -0.00000000000E+00 -0.00000000000E+00 -0.88822897991E+03  0.88822897991E+03  0.00000000000E+00 0.  1.
          6    1    1    2  501    0 -0.40434944016E+02 -0.94094421108E+02 -0.15799703741E+03  0.25569671216E+03  0.17300000000E+03 0.  1.
         -6    1    1    2    0  503  0.40434944016E+02  0.94094421108E+02 -0.66655278084E+03  0.69621142940E+03  0.17300000000E+03 0.  1.
<mgrwt>
<rscale>  2 0.20104165E+03</rscale>
<asrwt>0</asrwt>
<pdfrwt beam="1">  1       21 0.97967942E-02 0.20104165E+03</pdfrwt>
<pdfrwt beam="2">  1       21 0.13665061E+00 0.20104165E+03</pdfrwt>
<totfact> 0.31883665E+04</totfact>
</mgrwt>
</event>
<event>
 4    1  0.4053645E-001  0.2245982E+03  0.7546771E-02  0.1130501E+00
         21   -1    0    0  503  502  0.00000000000E+00  0.00000000000E+00  0.73137946594E+03  0.73137946594E+03  0.00000000000E+00 0. -1.
         21   -1    0    0  501  503 -0.00000000000E+00 -0.00000000000E+00 -0.68981648969E+02  0.68981648969E+02  0.00000000000E+00 0.  1.
          6    1    1    2  501    0 -0.69833817621E+01  0.14306145157E+03  0.33605039080E+03  0.40419575914E+03  0.17300000000E+03 0. -1.
         -6    1    1    2    0  502  0.69833817621E+01 -0.14306145157E+03  0.32634742617E+03  0.39616535578E+03  0.17300000000E+03 0.  1.
<mgrwt>
<rscale>  2 0.22459819E+03</rscale>
<asrwt>0</asrwt>
<pdfrwt beam="1">  1       21 0.11251991E+00 0.22459819E+03</pdfrwt>
<pdfrwt beam="2">  1       21 0.10612562E-01 0.22459819E+03</pdfrwt>
<totfact> 0.44412697E+04</totfact>
</mgrwt>
</event>
<event>
 4    1  0.4053645E-001  0.2103549E+03  0.7546771E-02  0.1141285E+00
         21   -1    0    0  501  502  0.00000000000E+00  0.00000000000E+00  0.17549245759E+04  0.17549245759E+04  0.00000000000E+00 0.  1.
         21   -1    0    0  502  503 -0.00000000000E+00 -0.00000000000E+00 -0.25694187372E+02  0.25694187372E+02  0.00000000000E+00 0. -1.
          6    1    1    2  501    0 -0.91587800044E+02 -0.77018509861E+02  0.98628925522E+03  0.10084719485E+04  0.17300000000E+03 0.  1.
         -6    1    1    2    0  503  0.91587800044E+02  0.77018509861E+02  0.74294113328E+03  0.77214681473E+03  0.17300000000E+03 0.  1.
<mgrwt>
<rscale>  2 0.21035488E+03</rscale>
<asrwt>0</asrwt>
<pdfrwt beam="1">  1       21 0.26998830E+00 0.21035488E+03</pdfrwt>
<pdfrwt beam="2">  1       21 0.39529533E-02 0.21035488E+03</pdfrwt>
<totfact> 0.20001615E+04</totfact>
</mgrwt>
</event>
<event>
 4    1  0.4053645E-001  0.1906455E+03  0.7546771E-02  0.1157880E+00
         21   -1    0    0  501  502  0.00000000000E+00  0.00000000000E+00  0.36137368892E+03  0.36137368892E+03  0.00000000000E+00 0.  1.
         21   -1    0    0  502  503 -0.00000000000E+00 -0.00000000000E+00 -0.10968022708E+03  0.10968022708E+03  0.00000000000E+00 0.  1.
          6    1    1    2  501    0  0.17862096010E+02  0.78087518407E+02  0.57991219017E+02  0.19927041047E+03  0.17300000000E+03 0. -1.
         -6    1    1    2    0  503 -0.17862096010E+02 -0.78087518407E+02  0.19370224283E+03  0.27178350554E+03  0.17300000000E+03 0. -1.
<mgrwt>
<rscale>  2 0.19064552E+03</rscale>
<asrwt>0</asrwt>
<pdfrwt beam="1">  1       21 0.55595952E-01 0.19064552E+03</pdfrwt>
<pdfrwt beam="2">  1       21 0.16873881E-01 0.19064552E+03</pdfrwt>
<totfact> 0.96502927E+04</totfact>
</mgrwt>
</event>
<event>
 4    1  0.4053645E-001  0.2114313E+03  0.7546771E-02  0.1140438E+00
         21   -1    0    0  503  502  0.00000000000E+00  0.00000000000E+00  0.15967527829E+03  0.15967527829E+03  0.00000000000E+00 0.  1.
         21   -1    0    0  501  503 -0.00000000000E+00 -0.00000000000E+00 -0.36300984007E+03  0.36300984007E+03  0.00000000000E+00 0.  1.
          6    1    1    2  501    0 -0.73432292941E+02 -0.96860168739E+02 -0.22666788271E+03  0.30997019693E+03  0.17300000000E+03 0.  1.
         -6    1    1    2    0  502  0.73432292941E+02  0.96860168739E+02  0.23333320926E+02  0.21271492143E+03  0.17300000000E+03 0.  1.
<mgrwt>
<rscale>  2 0.21143130E+03</rscale>
<asrwt>0</asrwt>
<pdfrwt beam="1">  1       21 0.24565428E-01 0.21143130E+03</pdfrwt>
<pdfrwt beam="2">  1       21 0.55847667E-01 0.21143130E+03</pdfrwt>
<totfact> 0.46860530E+04</totfact>
</mgrwt>
</event>
<event>
 4    1  0.4053645E-001  0.2237923E+03  0.7546771E-02  0.1131087E+00
         21   -1    0    0  501  502  0.00000000000E+00  0.00000000000E+00  0.23757463458E+03  0.23757463458E+03  0.00000000000E+00 0.  1.
         21   -1    0    0  502  503 -0.00000000000E+00 -0.00000000000E+00 -0.25509678463E+03  0.25509678463E+03  0.00000000000E+00 0.  1.
          6    1    1    2  501    0  0.68924013642E+02 -0.12411072769E+03  0.93878384584E+02  0.24268527659E+03  0.17300000000E+03 0.  1.
         -6    1    1    2    0  503 -0.68924013642E+02  0.12411072769E+03 -0.11140053464E+03  0.24998614262E+03  0.17300000000E+03 0.  1.
<mgrwt>
<rscale>  2 0.22379230E+03</rscale>
<asrwt>0</asrwt>
<pdfrwt beam="1">  1       21 0.36549944E-01 0.22379230E+03</pdfrwt>
<pdfrwt beam="2">  1       21 0.39245659E-01 0.22379230E+03</pdfrwt>
<totfact> 0.44513528E+04</totfact>
</mgrwt>
</event>
<event>
 4    1  0.4053645E-001  0.1944279E+03  0.7546771E-02  0.1154527E+00
         21   -1    0    0  501  502  0.00000000000E+00  0.00000000000E+00  0.81620523522E+03  0.81620523522E+03  0.00000000000E+00 0.  1.
         21   -1    0    0  502  503 -0.00000000000E+00 -0.00000000000E+00 -0.58700208944E+02  0.58700208944E+02  0.00000000000E+00 0.  1.
          6    1    1    2  501    0  0.31271347825E+02 -0.83038009446E+02  0.57969427839E+03  0.61143083387E+03  0.17300000000E+03 0.  1.
         -6    1    1    2    0  503 -0.31271347825E+02  0.83038009446E+02  0.17781074789E+03  0.26347461030E+03  0.17300000000E+03 0.  1.
<mgrwt>
<rscale>  2 0.19442790E+03</rscale>
<asrwt>0</asrwt>
<pdfrwt beam="1">  1       21 0.12557003E+00 0.19442790E+03</pdfrwt>
<pdfrwt beam="2">  1       21 0.90308019E-02 0.19442790E+03</pdfrwt>
<totfact> 0.45751109E+04</totfact>
</mgrwt>
</event>
<event>
 4    1  0.4053645E-001  0.3592706E+03  0.7546771E-02  0.1058873E+00
         21   -1    0    0  501  502  0.00000000000E+00  0.00000000000E+00  0.42416446415E+03  0.42416446415E+03  0.00000000000E+00 0. -1.
         21   -1    0    0  502  503 -0.00000000000E+00 -0.00000000000E+00 -0.33856607666E+03  0.33856607666E+03  0.00000000000E+00 0. -1.
          6    1    1    2  501    0 -0.53008626530E+02 -0.31038115336E+03  0.16411567644E+03  0.39498016419E+03  0.17300000000E+03 0. -1.
         -6    1    1    2    0  503  0.53008626530E+02  0.31038115336E+03 -0.78517288958E+02  0.36775037663E+03  0.17300000000E+03 0. -1.
<mgrwt>
<rscale>  2 0.35927062E+03</rscale>
<asrwt>0</asrwt>
<pdfrwt beam="1">  1       21 0.65256072E-01 0.35927062E+03</pdfrwt>
<pdfrwt beam="2">  1       21 0.52087089E-01 0.35927062E+03</pdfrwt>
<totfact> 0.69089761E+03</totfact>
</mgrwt>
</event>
<event>
 4    1  0.4053645E-001  0.1795811E+03  0.7546771E-02  0.1168209E+00
         21   -1    0    0  501  502  0.00000000000E+00  0.00000000000E+00  0.65870488817E+02  0.65870488817E+02  0.00000000000E+00 0. -1.
         21   -1    0    0  502  503 -0.00000000000E+00 -0.00000000000E+00 -0.49429408539E+03  0.49429408539E+03  0.00000000000E+00 0. -1.
          6    1    1    2  501    0  0.63987137793E+01 -0.47743183067E+02 -0.24154276081E+03  0.30098548199E+03  0.17300000000E+03 0. -1.
         -6    1    1    2    0  503 -0.63987137793E+01  0.47743183067E+02 -0.18688083576E+03  0.25917909222E+03  0.17300000000E+03 0. -1.
<mgrwt>
<rscale>  2 0.17958105E+03</rscale>
<asrwt>0</asrwt>
<pdfrwt beam="1">  1       21 0.10133922E-01 0.17958105E+03</pdfrwt>
<pdfrwt beam="2">  1       21 0.76045239E-01 0.17958105E+03</pdfrwt>
<totfact> 0.12276214E+05</totfact>
</mgrwt>
</event>
<event>
 4    1  0.4053645E-001  0.2915323E+03  0.7546771E-02  0.1089552E+00
         21   -1    0    0  503  502  0.00000000000E+00  0.00000000000E+00  0.26667695125E+03  0.26667695125E+03  0.00000000000E+00 0. -1.
         21   -1    0    0  501  503 -0.00000000000E+00 -0.00000000000E+00 -0.33048962581E+03  0.33048962581E+03  0.00000000000E+00 0.  1.
          6    1    1    2  501    0  0.21365704523E+03  0.97019394824E+02 -0.88290487739E+02  0.30460844731E+03  0.17300000000E+03 0. -1.
         -6    1    1    2    0  502 -0.21365704523E+03 -0.97019394824E+02  0.24477813176E+02  0.29255812975E+03  0.17300000000E+03 0.  1.
<mgrwt>
<rscale>  2 0.29153232E+03</rscale>
<asrwt>0</asrwt>
<pdfrwt beam="1">  1       21 0.41027223E-01 0.29153232E+03</pdfrwt>
<pdfrwt beam="2">  1       21 0.50844558E-01 0.29153232E+03</pdfrwt>
<totfact> 0.20037844E+04</totfact>
</mgrwt>
</event>
<event>
 4    1  0.4053645E-001  0.1851019E+03  0.7546771E-02  0.1162955E+00
         21   -1    0    0  501  502  0.00000000000E+00  0.00000000000E+00  0.54626805281E+02  0.54626805281E+02  0.00000000000E+00 0.  1.
         21   -1    0    0  502  503 -0.00000000000E+00 -0.00000000000E+00 -0.12341680555E+04  0.12341680555E+04  0.00000000000E+00 0. -1.
          6    1    1    2  501    0  0.31922124418E+02 -0.57573301576E+02 -0.13786838679E+03  0.23080381097E+03  0.17300000000E+03 0.  1.
         -6    1    1    2    0  503 -0.31922124418E+02  0.57573301576E+02 -0.10416728635E+04  0.10579910498E+04  0.17300000000E+03 0. -1.
<mgrwt>
<rscale>  2 0.18510188E+03</rscale>
<asrwt>0</asrwt>
<pdfrwt beam="1">  1       21 0.84041240E-02 0.18510188E+03</pdfrwt>
<pdfrwt beam="2">  1       21 0.18987201E+00 0.18510188E+03</pdfrwt>
<totfact> 0.17308457E+04</totfact>
</mgrwt>
</event>
<event>
 4    1  0.4053645E-001  0.1876783E+03  0.7546771E-02  0.1160572E+00
         21   -1    0    0  503  502  0.00000000000E+00  0.00000000000E+00  0.47506437219E+02  0.47506437219E+02  0.00000000000E+00 0.  1.
         21   -1    0    0  501  503 -0.00000000000E+00 -0.00000000000E+00 -0.87255575438E+03  0.87255575438E+03  0.00000000000E+00 0. -1.
          6    1    1    2  501    0 -0.69172028900E+02  0.22569409429E+02 -0.23419691867E+03  0.30011888401E+03  0.17300000000E+03 0. -1.
         -6    1    1    2    0  502  0.69172028900E+02 -0.22569409429E+02 -0.59085239849E+03  0.61994330759E+03  0.17300000000E+03 0. -1.
<mgrwt>
<rscale>  2 0.18767831E+03</rscale>
<asrwt>0</asrwt>
<pdfrwt beam="1">  1       21 0.73086830E-02 0.18767831E+03</pdfrwt>
<pdfrwt beam="2">  1       21 0.13423934E+00 0.18767831E+03</pdfrwt>
<totfact> 0.56092860E+04</totfact>
</mgrwt>
</event>
<event>
 4    1  0.4053645E-001  0.2726958E+03  0.7546771E-02  0.1099747E+00
         21   -1    0    0  503  502  0.00000000000E+00  0.00000000000E+00  0.37212147554E+03  0.37212147554E+03  0.00000000000E+00 0.  1.
         21   -1    0    0  501  503 -0.00000000000E+00 -0.00000000000E+00 -0.28574959631E+03  0.28574959631E+03  0.00000000000E+00 0.  1.
          6    1    1    2  501    0 -0.49825682271E+02 -0.20482046085E+03 -0.13717837306E+03  0.30525550909E+03  0.17300000000E+03 0.  1.
         -6    1    1    2    0  502  0.49825682271E+02  0.20482046085E+03  0.22355025229E+03  0.35261556276E+03  0.17300000000E+03 0.  1.
<mgrwt>
<rscale>  2 0.27269584E+03</rscale>
<asrwt>0</asrwt>
<pdfrwt beam="1">  1       21 0.57249458E-01 0.27269584E+03</pdfrwt>
<pdfrwt beam="2">  1       21 0.43961476E-01 0.27269584E+03</pdfrwt>
<totfact> 0.13615841E+04</totfact>
</mgrwt>
</event>
<event>
 4    1  0.4053645E-001  0.3822998E+03  0.7546771E-02  0.1050087E+00
         21   -1    0    0  501  502  0.00000000000E+00  0.00000000000E+00  0.73617329777E+03  0.73617329777E+03  0.00000000000E+00 0.  1.
         21   -1    0    0  502  503 -0.00000000000E+00 -0.00000000000E+00 -0.24741354121E+03  0.24741354121E+03  0.00000000000E+00 0. -1.
          6    1    1    2  501    0 -0.30150816443E+03  0.15911308782E+03  0.46297894778E+03  0.60041873223E+03  0.17300000000E+03 0. -1.
         -6    1    1    2    0  503  0.30150816443E+03 -0.15911308782E+03  0.25780808775E+02  0.38316810675E+03  0.17300000000E+03 0. -1.
<mgrwt>
<rscale>  2 0.38229981E+03</rscale>
<asrwt>0</asrwt>
<pdfrwt beam="1">  1       21 0.11325743E+00 0.38229981E+03</pdfrwt>
<pdfrwt beam="2">  1       21 0.38063622E-01 0.38229981E+03</pdfrwt>
<totfact> 0.36205452E+03</totfact>
</mgrwt>
</event>
<event>
 4    1  0.4053645E-001  0.2619177E+03  0.7546771E-02  0.1105996E+00
         21   -1    0    0  503  502  0.00000000000E+00  0.00000000000E+00  0.10668191609E+03  0.10668191609E+03  0.00000000000E+00 0.  1.
         21   -1    0    0  501  503 -0.00000000000E+00 -0.00000000000E+00 -0.77785184910E+03  0.77785184910E+03  0.00000000000E+00 0.  1.
          6    1    1    2  501    0  0.24614039087E+02  0.19510517871E+03 -0.51970364935E+03  0.58197316504E+03  0.17300000000E+03 0.  1.
         -6    1    1    2    0  502 -0.24614039087E+02 -0.19510517871E+03 -0.15146628366E+03  0.30256060015E+03  0.17300000000E+03 0.  1.
<mgrwt>
<rscale>  2 0.26191770E+03</rscale>
<asrwt>0</asrwt>
<pdfrwt beam="1">  1       21 0.16412602E-01 0.26191770E+03</pdfrwt>
<pdfrwt beam="2">  1       21 0.11966952E+00 0.26191770E+03</pdfrwt>
<totfact> 0.16997116E+04</totfact>
</mgrwt>
</event>
<event>
 4    1  0.4053645E-001  0.1881461E+03  0.7546771E-02  0.1160144E+00
         21   -1    0    0  501  502  0.00000000000E+00  0.00000000000E+00  0.97022990635E+03  0.97022990635E+03  0.00000000000E+00 0. -1.
         21   -1    0    0  502  503 -0.00000000000E+00 -0.00000000000E+00 -0.39980021252E+02  0.39980021252E+02  0.00000000000E+00 0. -1.
          6    1    1    2  501    0 -0.13737139067E+02 -0.72672228969E+02  0.61446527501E+03  0.64262472412E+03  0.17300000000E+03 0. -1.
         -6    1    1    2    0  503  0.13737139067E+02  0.72672228969E+02  0.31578461009E+03  0.36758520349E+03  0.17300000000E+03 0. -1.
<mgrwt>
<rscale>  2 0.18814612E+03</rscale>
<asrwt>0</asrwt>
<pdfrwt beam="1">  1       21 0.14926612E+00 0.18814612E+03</pdfrwt>
<pdfrwt beam="2">  1       21 0.61507733E-02 0.18814612E+03</pdfrwt>
<totfact> 0.57357040E+04</totfact>
</mgrwt>
</event>
<event>
 4    1  0.4053645E-001  0.1868949E+03  0.7546771E-02  0.1161292E+00
         21   -1    0    0  503  502  0.00000000000E+00  0.00000000000E+00  0.15940908425E+03  0.15940908425E+03  0.00000000000E+00 0.  1.
         21   -1    0    0  501  503 -0.00000000000E+00 -0.00000000000E+00 -0.26374385496E+03  0.26374385496E+03  0.00000000000E+00 0. -1.
          6    1    1    2  501    0  0.39779332671E+01  0.70603699366E+02 -0.13919560660E+03  0.23303459660E+03  0.17300000000E+03 0. -1.
         -6    1    1    2    0  502 -0.39779332671E+01 -0.70603699366E+02  0.34860835884E+02  0.19011834261E+03  0.17300000000E+03 0.  1.
<mgrwt>
<rscale>  2 0.18689491E+03</rscale>
<asrwt>0</asrwt>
<pdfrwt beam="1">  1       21 0.24524475E-01 0.18689491E+03</pdfrwt>
<pdfrwt beam="2">  1       21 0.40575977E-01 0.18689491E+03</pdfrwt>
<totfact> 0.92147707E+04</totfact>
</mgrwt>
</event>
<event>
 4    1  0.4053645E-001  0.2391955E+03  0.7546771E-02  0.1120330E+00
         21   -1    0    0  501  502  0.00000000000E+00  0.00000000000E+00  0.42043080227E+03  0.42043080227E+03  0.00000000000E+00 0.  1.
         21   -1    0    0  502  503 -0.00000000000E+00 -0.00000000000E+00 -0.20467906727E+03  0.20467906727E+03  0.00000000000E+00 0.  1.
          6    1    1    2  501    0 -0.11358194844E+03 -0.11993588079E+03  0.28881470792E+03  0.37500454668E+03  0.17300000000E+03 0.  1.
         -6    1    1    2    0  503  0.11358194844E+03  0.11993588079E+03 -0.73062972929E+02  0.25010532287E+03  0.17300000000E+03 0.  1.
<mgrwt>
<rscale>  2 0.23919547E+03</rscale>
<asrwt>0</asrwt>
<pdfrwt beam="1">  1       21 0.64681662E-01 0.23919547E+03</pdfrwt>
<pdfrwt beam="2">  1       21 0.31489087E-01 0.23919547E+03</pdfrwt>
<totfact> 0.20808029E+04</totfact>
</mgrwt>
</event>
<event>
 4    1  0.4053645E-001  0.1964866E+03  0.7546771E-02  0.1152738E+00
         21   -1    0    0  501  502  0.00000000000E+00  0.00000000000E+00  0.25530791026E+03  0.25530791026E+03  0.00000000000E+00 0. -1.
         21   -1    0    0  502  503 -0.00000000000E+00 -0.00000000000E+00 -0.17927115107E+03  0.17927115107E+03  0.00000000000E+00 0.  1.
          6    1    1    2  501    0  0.27294982307E+02  0.89067204929E+02  0.12397503979E+03  0.23232906306E+03  0.17300000000E+03 0. -1.
         -6    1    1    2    0  503 -0.27294982307E+02 -0.89067204929E+02 -0.47938280595E+02  0.20224999827E+03  0.17300000000E+03 0.  1.
<mgrwt>
<rscale>  2 0.19648660E+03</rscale>
<asrwt>0</asrwt>
<pdfrwt beam="1">  1       21 0.39278140E-01 0.19648660E+03</pdfrwt>
<pdfrwt beam="2">  1       21 0.27580177E-01 0.19648660E+03</pdfrwt>
<totfact> 0.78262295E+04</totfact>
</mgrwt>
</event>
<event>
 4    1  0.4053645E-001  0.2228296E+03  0.7546771E-02  0.1131791E+00
         21   -1    0    0  503  502  0.00000000000E+00  0.00000000000E+00  0.25188821137E+03  0.25188821137E+03  0.00000000000E+00 0.  1.
         21   -1    0    0  501  503 -0.00000000000E+00 -0.00000000000E+00 -0.21765113442E+03  0.21765113442E+03  0.00000000000E+00 0.  1.
          6    1    1    2  501    0 -0.11183173055E+03 -0.84957027300E+02 -0.54981122351E+02  0.22951243160E+03  0.17300000000E+03 0.  1.
         -6    1    1    2    0  502  0.11183173055E+03  0.84957027300E+02  0.89218199309E+02  0.24002691419E+03  0.17300000000E+03 0.  1.
<mgrwt>
<rscale>  2 0.22282960E+03</rscale>
<asrwt>0</asrwt>
<pdfrwt beam="1">  1       21 0.38752032E-01 0.22282960E+03</pdfrwt>
<pdfrwt beam="2">  1       21 0.33484790E-01 0.22282960E+03</pdfrwt>
<totfact> 0.54393941E+04</totfact>
</mgrwt>
</event>
<event>
 4    1  0.4053645E-001  0.1808535E+03  0.7546771E-02  0.1166980E+00
         21   -1    0    0  503  502  0.00000000000E+00  0.00000000000E+00  0.24378860677E+03  0.24378860677E+03  0.00000000000E+00 0. -1.
         21   -1    0    0  501  503 -0.00000000000E+00 -0.00000000000E+00 -0.14357925409E+03  0.14357925409E+03  0.00000000000E+00 0. -1.
          6    1    1    2  501    0  0.52270152500E+02  0.68435480468E+01  0.51048564930E+00  0.18085426063E+03  0.17300000000E+03 0.  1.
         -6    1    1    2    0  502 -0.52270152500E+02 -0.68435480468E+01  0.99698867035E+02  0.20651360023E+03  0.17300000000E+03 0.  1.
<mgrwt>
<rscale>  2 0.18085354E+03</rscale>
<asrwt>0</asrwt>
<pdfrwt beam="1">  1       21 0.37505939E-01 0.18085354E+03</pdfrwt>
<pdfrwt beam="2">  1       21 0.22089116E-01 0.18085354E+03</pdfrwt>
<totfact> 0.13186383E+05</totfact>
</mgrwt>
</event>
<event>
 4    1  0.4053645E-001  0.1924838E+03  0.7546771E-02  0.1156240E+00
         21   -1    0    0  503  502  0.00000000000E+00  0.00000000000E+00  0.31760594080E+02  0.31760594080E+02  0.00000000000E+00 0. -1.
         21   -1    0    0  501  503 -0.00000000000E+00 -0.00000000000E+00 -0.11855743007E+04  0.11855743007E+04  0.00000000000E+00 0. -1.
          6    1    1    2  501    0  0.31284869663E+02 -0.78372521449E+02 -0.65403042003E+03  0.68176666501E+03  0.17300000000E+03 0.  1.
         -6    1    1    2    0  502 -0.31284869663E+02  0.78372521449E+02 -0.49978328656E+03  0.53556822975E+03  0.17300000000E+03 0.  1.
<mgrwt>
<rscale>  2 0.19248375E+03</rscale>
<asrwt>0</asrwt>
<pdfrwt beam="1">  1       21 0.48862446E-02 0.19248375E+03</pdfrwt>
<pdfrwt beam="2">  1       21 0.18239607E+00 0.19248375E+03</pdfrwt>
<totfact> 0.49030498E+04</totfact>
</mgrwt>
</event>
<event>
 4    1  0.4053645E-001  0.1905959E+03  0.7546771E-02  0.1157925E+00
         21   -1    0    0  503  502  0.00000000000E+00  0.00000000000E+00  0.26841837619E+03  0.26841837619E+03  0.00000000000E+00 0. -1.
         21   -1    0    0  501  503 -0.00000000000E+00 -0.00000000000E+00 -0.13580513359E+03  0.13580513359E+03  0.00000000000E+00 0. -1.
          6    1    1    2  501    0  0.79845211378E+02 -0.47495468239E+01  0.78178754764E+02  0.20600663502E+03  0.17300000000E+03 0. -1.
         -6    1    1    2    0  502 -0.79845211378E+02  0.47495468239E+01  0.54434487827E+02  0.19821687476E+03  0.17300000000E+03 0. -1.
<mgrwt>
<rscale>  2 0.19059595E+03</rscale>
<asrwt>0</asrwt>
<pdfrwt beam="1">  1       21 0.41295135E-01 0.19059595E+03</pdfrwt>
<pdfrwt beam="2">  1       21 0.20893097E-01 0.19059595E+03</pdfrwt>
<totfact> 0.12020911E+05</totfact>
</mgrwt>
</event>
<event>
 4    1  0.4053645E-001  0.2195743E+03  0.7546771E-02  0.1134201E+00
         21   -1    0    0  501  502  0.00000000000E+00  0.00000000000E+00  0.75247338504E+02  0.75247338504E+02  0.00000000000E+00 0.  1.
         21   -1    0    0  502  503 -0.00000000000E+00 -0.00000000000E+00 -0.64084568783E+03  0.64084568783E+03  0.00000000000E+00 0. -1.
          6    1    1    2  501    0 -0.13215325980E+03  0.28624883623E+02 -0.27789025686E+03  0.35416925741E+03  0.17300000000E+03 0. -1.
         -6    1    1    2    0  503  0.13215325980E+03 -0.28624883623E+02 -0.28770809247E+03  0.36192376892E+03  0.17300000000E+03 0.  1.
<mgrwt>
<rscale>  2 0.21957429E+03</rscale>
<asrwt>0</asrwt>
<pdfrwt beam="1">  1       21 0.11576514E-01 0.21957429E+03</pdfrwt>
<pdfrwt beam="2">  1       21 0.98591643E-01 0.21957429E+03</pdfrwt>
<totfact> 0.52422143E+04</totfact>
</mgrwt>
</event>
<event>
 4    1  0.4053645E-001  0.2040550E+03  0.7546771E-02  0.1146362E+00
         21   -1    0    0  501  502  0.00000000000E+00  0.00000000000E+00  0.19358992068E+03  0.19358992068E+03  0.00000000000E+00 0. -1.
         21   -1    0    0  502  503 -0.00000000000E+00 -0.00000000000E+00 -0.22257976422E+03  0.22257976422E+03  0.00000000000E+00 0.  1.
          6    1    1    2  501    0  0.99730535423E+02  0.41990992989E+02  0.23686876112E+02  0.20542514765E+03  0.17300000000E+03 0. -1.
         -6    1    1    2    0  503 -0.99730535423E+02 -0.41990992989E+02 -0.52676719651E+02  0.21074453725E+03  0.17300000000E+03 0.  1.
<mgrwt>
<rscale>  2 0.20405495E+03</rscale>
<asrwt>0</asrwt>
<pdfrwt beam="1">  1       21 0.29783065E-01 0.20405495E+03</pdfrwt>
<pdfrwt beam="2">  1       21 0.34243041E-01 0.20405495E+03</pdfrwt>
<totfact> 0.88397486E+04</totfact>
</mgrwt>
</event>
<event>
 4    1  0.4053645E-001  0.1821294E+03  0.7546771E-02  0.1165758E+00
         21   -1    0    0  501  502  0.00000000000E+00  0.00000000000E+00  0.24305032781E+03  0.24305032781E+03  0.00000000000E+00 0.  1.
         21   -1    0    0  502  503 -0.00000000000E+00 -0.00000000000E+00 -0.16787935871E+03  0.16787935871E+03  0.00000000000E+00 0.  1.
          6    1    1    2  501    0  0.66666841325E+01 -0.56547873683E+02 -0.51275413660E+02  0.18920960531E+03  0.17300000000E+03 0.  1.
         -6    1    1    2    0  503 -0.66666841325E+01  0.56547873683E+02  0.12644638276E+03  0.22172008120E+03  0.17300000000E+03 0.  1.
<mgrwt>
<rscale>  2 0.18212937E+03</rscale>
<asrwt>0</asrwt>
<pdfrwt beam="1">  1       21 0.37392358E-01 0.18212937E+03</pdfrwt>
<pdfrwt beam="2">  1       21 0.25827594E-01 0.18212937E+03</pdfrwt>
<totfact> 0.98560481E+04</totfact>
</mgrwt>
</event>
<event>
 4    1  0.4053645E-001  0.1855303E+03  0.7546771E-02  0.1162556E+00
         21   -1    0    0  501  502  0.00000000000E+00  0.00000000000E+00  0.10938113206E+03  0.10938113206E+03  0.00000000000E+00 0.  1.
         21   -1    0    0  502  503 -0.00000000000E+00 -0.00000000000E+00 -0.37791609020E+03  0.37791609020E+03  0.00000000000E+00 0.  1.
          6    1    1    2  501    0  0.61874258030E+02 -0.25769685190E+02 -0.34611500469E+02  0.18873117508E+03  0.17300000000E+03 0.  1.
         -6    1    1    2    0  503 -0.61874258030E+02  0.25769685190E+02 -0.23392345767E+03  0.29856604718E+03  0.17300000000E+03 0.  1.
<mgrwt>
<rscale>  2 0.18553032E+03</rscale>
<asrwt>0</asrwt>
<pdfrwt beam="1">  1       21 0.16827866E-01 0.18553032E+03</pdfrwt>
<pdfrwt beam="2">  1       21 0.58140938E-01 0.18553032E+03</pdfrwt>
<totfact> 0.88357412E+04</totfact>
</mgrwt>
</event>
<event>
 4    1  0.4053645E-001  0.1823913E+03  0.7546771E-02  0.1165509E+00
         21   -1    0    0  501  502  0.00000000000E+00  0.00000000000E+00  0.21880645040E+03  0.21880645040E+03  0.00000000000E+00 0.  1.
         21   -1    0    0  502  503 -0.00000000000E+00 -0.00000000000E+00 -0.15390021443E+03  0.15390021443E+03  0.00000000000E+00 0.  1.
          6    1    1    2  501    0 -0.74053361799E+01 -0.57295131322E+02  0.11945982100E+02  0.18278204935E+03  0.17300000000E+03 0.  1.
         -6    1    1    2    0  503  0.74053361799E+01  0.57295131322E+02  0.52960253871E+02  0.18992461549E+03  0.17300000000E+03 0.  1.
<mgrwt>
<rscale>  2 0.18239126E+03</rscale>
<asrwt>0</asrwt>
<pdfrwt beam="1">  1       21 0.33662531E-01 0.18239126E+03</pdfrwt>
<pdfrwt beam="2">  1       21 0.23676956E-01 0.18239126E+03</pdfrwt>
<totfact> 0.14327752E+05</totfact>
</mgrwt>
</event>
<event>
 4    1  0.4053645E-001  0.2093511E+03  0.7546771E-02  0.1142081E+00
         21   -1    0    0  501  502  0.00000000000E+00  0.00000000000E+00  0.48213700180E+03  0.48213700180E+03  0.00000000000E+00 0.  1.
         21   -1    0    0  502  503 -0.00000000000E+00 -0.00000000000E+00 -0.13258724191E+03  0.13258724191E+03  0.00000000000E+00 0.  1.
          6    1    1    2  501    0  0.25412895480E+02 -0.11512194927E+03  0.34711385338E+03  0.40535898370E+03  0.17300000000E+03 0.  1.
         -6    1    1    2    0  503 -0.25412895480E+02  0.11512194927E+03  0.24359065119E+01  0.20936526001E+03  0.17300000000E+03 0.  1.
<mgrwt>
<rscale>  2 0.20935109E+03</rscale>
<asrwt>0</asrwt>
<pdfrwt beam="1">  1       21 0.74174922E-01 0.20935109E+03</pdfrwt>
<pdfrwt beam="2">  1       21 0.20398038E-01 0.20935109E+03</pdfrwt>
<totfact> 0.35936137E+04</totfact>
</mgrwt>
</event>
<event>
 4    1  0.4053645E-001  0.3578662E+03  0.7546771E-02  0.1059432E+00
         21   -1    0    0  501  502  0.00000000000E+00  0.00000000000E+00  0.33681982674E+03  0.33681982674E+03  0.00000000000E+00 0. -1.
         21   -1    0    0  502  503 -0.00000000000E+00 -0.00000000000E+00 -0.44100092852E+03  0.44100092852E+03  0.00000000000E+00 0.  1.
          6    1    1    2  501    0 -0.21071981816E+03  0.23181101354E+03  0.92282575596E+02  0.36957308008E+03  0.17300000000E+03 0.  1.
         -6    1    1    2    0  503  0.21071981816E+03 -0.23181101354E+03 -0.19646367737E+03  0.40824767518E+03  0.17300000000E+03 0.  1.
<mgrwt>
<rscale>  2 0.35786616E+03</rscale>
<asrwt>0</asrwt>
<pdfrwt beam="1">  1       21 0.51818435E-01 0.35786616E+03</pdfrwt>
<pdfrwt beam="2">  1       21 0.67846297E-01 0.35786616E+03</pdfrwt>
<totfact> 0.64108263E+03</totfact>
</mgrwt>
</event>
<event>
 4    1  0.4053645E-001  0.1934239E+03  0.7546771E-02  0.1155409E+00
         21   -1    0    0  503  502  0.00000000000E+00  0.00000000000E+00  0.38884751364E+04  0.38884751364E+04  0.00000000000E+00 0. -1.
         21   -1    0    0  501  503 -0.00000000000E+00 -0.00000000000E+00 -0.97613264171E+01  0.97613264171E+01  0.00000000000E+00 0. -1.
          6    1    1    2  501    0  0.73197158111E+02 -0.46108571085E+02  0.21726672434E+04  0.21812601346E+04  0.17300000000E+03 0. -1.
         -6    1    1    2    0  502 -0.73197158111E+02  0.46108571085E+02  0.17060465665E+04  0.17169763282E+04  0.17300000000E+03 0. -1.
<mgrwt>
<rscale>  2 0.19342395E+03</rscale>
<asrwt>0</asrwt>
<pdfrwt beam="1">  1       21 0.59822571E+00 0.19342395E+03</pdfrwt>
<pdfrwt beam="2">  1       21 0.15017456E-02 0.19342395E+03</pdfrwt>
<totfact> 0.68831796E+02</totfact>
</mgrwt>
</event>
<event>
 4    1  0.4053645E-001  0.2042231E+03  0.7546771E-02  0.1146224E+00
         21   -1    0    0  501  502  0.00000000000E+00  0.00000000000E+00  0.11404198494E+04  0.11404198494E+04  0.00000000000E+00 0. -1.
         21   -1    0    0  502  503 -0.00000000000E+00 -0.00000000000E+00 -0.37304876784E+02  0.37304876784E+02  0.00000000000E+00 0.  1.
          6    1    1    2  501    0 -0.50727466337E+02 -0.95941744057E+02  0.63411088508E+03  0.66618594152E+03  0.17300000000E+03 0. -1.
         -6    1    1    2    0  503  0.50727466337E+02  0.95941744057E+02  0.46900408751E+03  0.51153878465E+03  0.17300000000E+03 0.  1.
<mgrwt>
<rscale>  2 0.20422315E+03</rscale>
<asrwt>0</asrwt>
<pdfrwt beam="1">  1       21 0.17544918E+00 0.20422315E+03</pdfrwt>
<pdfrwt beam="2">  1       21 0.57392127E-02 0.20422315E+03</pdfrwt>
<totfact> 0.41293532E+04</totfact>
</mgrwt>
</event>
<event>
 4    1  0.4053645E-001  0.2329036E+03  0.7546771E-02  0.1124613E+00
         21   -1    0    0  503  502  0.00000000000E+00  0.00000000000E+00  0.18087080765E+03  0.18087080765E+03  0.00000000000E+00 0. -1.
         21   -1    0    0  501  503 -0.00000000000E+00 -0.00000000000E+00 -0.34066513299E+03  0.34066513299E+03  0.00000000000E+00 0.  1.
          6    1    1    2  501    0  0.54850434378E+01 -0.15583639695E+03  0.10303129084E+02  0.23313134235E+03  0.17300000000E+03 0. -1.
         -6    1    1    2    0  502 -0.54850434378E+01  0.15583639695E+03 -0.17009745443E+03  0.28840459830E+03  0.17300000000E+03 0.  1.
<mgrwt>
<rscale>  2 0.23290356E+03</rscale>
<asrwt>0</asrwt>
<pdfrwt beam="1">  1       21 0.27826279E-01 0.23290356E+03</pdfrwt>
<pdfrwt beam="2">  1       21 0.52410020E-01 0.23290356E+03</pdfrwt>
<totfact> 0.41759455E+04</totfact>
</mgrwt>
</event>
<event>
 4    1  0.4053645E-001  0.1843613E+03  0.7546771E-02  0.1163648E+00
         21   -1    0    0  501  502  0.00000000000E+00  0.00000000000E+00  0.31213292251E+04  0.31213292251E+04  0.00000000000E+00 0. -1.
         21   -1    0    0  502  503 -0.00000000000E+00 -0.00000000000E+00 -0.11016312147E+02  0.11016312147E+02  0.00000000000E+00 0. -1.
          6    1    1    2  501    0  0.24509216032E+02 -0.58816644148E+02  0.13869900402E+04  0.13991892191E+04  0.17300000000E+03 0. -1.
         -6    1    1    2    0  503 -0.24509216032E+02  0.58816644148E+02  0.17233228728E+04  0.17331563181E+04  0.17300000000E+03 0. -1.
<mgrwt>
<rscale>  2 0.18436133E+03</rscale>
<asrwt>0</asrwt>
<pdfrwt beam="1">  1       21 0.48020379E+00 0.18436133E+03</pdfrwt>
<pdfrwt beam="2">  1       21 0.16948197E-02 0.18436133E+03</pdfrwt>
<totfact> 0.42406298E+03</totfact>
</mgrwt>
</event>
<event>
 4    1  0.4053645E-001  0.2095269E+03  0.7546771E-02  0.1141941E+00
         21   -1    0    0  503  502  0.00000000000E+00  0.00000000000E+00  0.76436085104E+03  0.76436085104E+03  0.00000000000E+00 0. -1.
         21   -1    0    0  501  503 -0.00000000000E+00 -0.00000000000E+00 -0.61049361027E+02  0.61049361027E+02  0.00000000000E+00 0.  1.
          6    1    1    2  501    0 -0.67046611196E+02  0.97351268756E+02  0.25124515796E+03  0.32714774491E+03  0.17300000000E+03 0.  1.
         -6    1    1    2    0  502  0.67046611196E+02 -0.97351268756E+02  0.45206633204E+03  0.49826246715E+03  0.17300000000E+03 0. -1.
<mgrwt>
<rscale>  2 0.20952689E+03</rscale>
<asrwt>0</asrwt>
<pdfrwt beam="1">  1       21 0.11759397E+00 0.20952689E+03</pdfrwt>
<pdfrwt beam="2">  1       21 0.93922099E-02 0.20952689E+03</pdfrwt>
<totfact> 0.49871554E+04</totfact>
</mgrwt>
</event>
<event>
 4    1  0.4053645E-001  0.4331345E+03  0.7546771E-02  0.1032874E+00
         21   -1    0    0  501  502  0.00000000000E+00  0.00000000000E+00  0.14576114697E+03  0.14576114697E+03  0.00000000000E+00 0. -1.
         21   -1    0    0  502  503 -0.00000000000E+00 -0.00000000000E+00 -0.12896408653E+04  0.12896408653E+04  0.00000000000E+00 0.  1.
          6    1    1    2  501    0  0.14833758994E+03 -0.36833741094E+03 -0.60395452235E+03  0.74321366642E+03  0.17300000000E+03 0. -1.
         -6    1    1    2    0  503 -0.14833758994E+03  0.36833741094E+03 -0.53992519600E+03  0.69218834587E+03  0.17300000000E+03 0. -1.
<mgrwt>
<rscale>  2 0.43313449E+03</rscale>
<asrwt>0</asrwt>
<pdfrwt beam="1">  1       21 0.22424792E-01 0.43313449E+03</pdfrwt>
<pdfrwt beam="2">  1       21 0.19840629E+00 0.43313449E+03</pdfrwt>
<totfact> 0.21843995E+03</totfact>
</mgrwt>
</event>
<event>
 4    1  0.4053645E-001  0.1858671E+03  0.7546771E-02  0.1162243E+00
         21   -1    0    0  501  502  0.00000000000E+00  0.00000000000E+00  0.53350076869E+02  0.53350076869E+02  0.00000000000E+00 0.  1.
         21   -1    0    0  502  503 -0.00000000000E+00 -0.00000000000E+00 -0.71040442954E+03  0.71040442954E+03  0.00000000000E+00 0.  1.
          6    1    1    2  501    0 -0.62191914392E+02 -0.27381528914E+02 -0.21493308651E+03  0.28415280047E+03  0.17300000000E+03 0.  1.
         -6    1    1    2    0  503  0.62191914392E+02  0.27381528914E+02 -0.44212126616E+03  0.47960170593E+03  0.17300000000E+03 0.  1.
<mgrwt>
<rscale>  2 0.18586711E+03</rscale>
<asrwt>0</asrwt>
<pdfrwt beam="1">  1       21 0.82077052E-02 0.18586711E+03</pdfrwt>
<pdfrwt beam="2">  1       21 0.10929297E+00 0.18586711E+03</pdfrwt>
<totfact> 0.76363342E+04</totfact>
</mgrwt>
</event>
<event>
 4    1  0.4053645E-001  0.2480952E+03  0.7546771E-02  0.1114515E+00
         21   -1    0    0  501  502  0.00000000000E+00  0.00000000000E+00  0.40703691918E+03  0.40703691918E+03  0.00000000000E+00 0.  1.
         21   -1    0    0  502  503 -0.00000000000E+00 -0.00000000000E+00 -0.15179094083E+03  0.15179094083E+03  0.00000000000E+00 0. -1.
          6    1    1    2  501    0  0.15457175292E+03  0.87919159214E+02  0.14479322867E+03  0.28725647848E+03  0.17300000000E+03 0.  1.
         -6    1    1    2    0  503 -0.15457175292E+03 -0.87919159214E+02  0.11045274968E+03  0.27157138154E+03  0.17300000000E+03 0. -1.
<mgrwt>
<rscale>  2 0.24809515E+03</rscale>
<asrwt>0</asrwt>
<pdfrwt beam="1">  1       21 0.62621064E-01 0.24809515E+03</pdfrwt>
<pdfrwt beam="2">  1       21 0.23352453E-01 0.24809515E+03</pdfrwt>
<totfact> 0.39691900E+04</totfact>
</mgrwt>
</event>
<event>
 4    1  0.4053645E-001  0.2914134E+03  0.7546771E-02  0.1089614E+00
         21   -1    0    0  501  502  0.00000000000E+00  0.00000000000E+00  0.19066476297E+03  0.19066476297E+03  0.00000000000E+00 0. -1.
         21   -1    0    0  502  503 -0.00000000000E+00 -0.00000000000E+00 -0.52650769360E+03  0.52650769360E+03  0.00000000000E+00 0.  1.
          6    1    1    2  501    0  0.18881345314E+03  0.13907638759E+03 -0.30866446965E+03  0.42449442458E+03  0.17300000000E+03 0.  1.
         -6    1    1    2    0  503 -0.18881345314E+03 -0.13907638759E+03 -0.27178460975E+02  0.29267803200E+03  0.17300000000E+03 0. -1.
<mgrwt>
<rscale>  2 0.29141339E+03</rscale>
<asrwt>0</asrwt>
<pdfrwt beam="1">  1       21 0.29333040E-01 0.29141339E+03</pdfrwt>
<pdfrwt beam="2">  1       21 0.81001184E-01 0.29141339E+03</pdfrwt>
<totfact> 0.14109980E+04</totfact>
</mgrwt>
</event>
<event>
 4    1  0.4053645E-001  0.2386144E+03  0.7546771E-02  0.1120719E+00
         21   -1    0    0  503  502  0.00000000000E+00  0.00000000000E+00  0.10069465542E+04  0.10069465542E+04  0.00000000000E+00 0. -1.
         21   -1    0    0  501  503 -0.00000000000E+00 -0.00000000000E+00 -0.63139408998E+02  0.63139408998E+02  0.00000000000E+00 0.  1.
          6    1    1    2  501    0  0.14229610766E+03 -0.82217197073E+02  0.29897880690E+03  0.38252474002E+03  0.17300000000E+03 0.  1.
         -6    1    1    2    0  502 -0.14229610766E+03  0.82217197073E+02  0.64482833832E+03  0.68756122320E+03  0.17300000000E+03 0. -1.
<mgrwt>
<rscale>  2 0.23861444E+03</rscale>
<asrwt>0</asrwt>
<pdfrwt beam="1">  1       21 0.15491484E+00 0.23861444E+03</pdfrwt>
<pdfrwt beam="2">  1       21 0.97137559E-02 0.23861444E+03</pdfrwt>
<totfact> 0.22784994E+04</totfact>
</mgrwt>
</event>
<event>
 4    1  0.4053645E-001  0.2012328E+03  0.7546771E-02  0.1148703E+00
         21   -1    0    0  503  502  0.00000000000E+00  0.00000000000E+00  0.42596190616E+03  0.42596190616E+03  0.00000000000E+00 0. -1.
         21   -1    0    0  501  503 -0.00000000000E+00 -0.00000000000E+00 -0.10422453770E+03  0.10422453770E+03  0.00000000000E+00 0. -1.
          6    1    1    2  501    0 -0.32740192709E+02 -0.97435659730E+02  0.82287372123E+02  0.21740708272E+03  0.17300000000E+03 0. -1.
         -6    1    1    2    0  502  0.32740192709E+02  0.97435659730E+02  0.23944999634E+03  0.31277936114E+03  0.17300000000E+03 0. -1.
<mgrwt>
<rscale>  2 0.20123277E+03</rscale>
<asrwt>0</asrwt>
<pdfrwt beam="1">  1       21 0.65532600E-01 0.20123277E+03</pdfrwt>
<pdfrwt beam="2">  1       21 0.16034545E-01 0.20123277E+03</pdfrwt>
<totfact> 0.74077472E+04</totfact>
</mgrwt>
</event>
<event>
 4    1  0.4053645E-001  0.1878945E+03  0.7546771E-02  0.1160374E+00
         21   -1    0    0  503  502  0.00000000000E+00  0.00000000000E+00  0.25157740078E+03  0.25157740078E+03  0.00000000000E+00 0.  1.
         21   -1    0    0  501  503 -0.00000000000E+00 -0.00000000000E+00 -0.15234307827E+03  0.15234307827E+03  0.00000000000E+00 0.  1.
          6    1    1    2  501    0  0.10551453060E+02  0.72553582424E+02 -0.70910335872E+01  0.18802829107E+03  0.17300000000E+03 0.  1.
         -6    1    1    2    0  502 -0.10551453060E+02 -0.72553582424E+02  0.10632535609E+03  0.21589218798E+03  0.17300000000E+03 0.  1.
<mgrwt>
<rscale>  2 0.18789453E+03</rscale>
<asrwt>0</asrwt>
<pdfrwt beam="1">  1       21 0.38704216E-01 0.18789453E+03</pdfrwt>
<pdfrwt beam="2">  1       21 0.23437397E-01 0.18789453E+03</pdfrwt>
<totfact> 0.11042869E+05</totfact>
</mgrwt>
</event>
<event>
 4    1  0.4053645E-001  0.2410130E+03  0.7546771E-02  0.1119120E+00
         21   -1    0    0  503  502  0.00000000000E+00  0.00000000000E+00  0.65961503090E+02  0.65961503090E+02  0.00000000000E+00 0.  1.
         21   -1    0    0  501  503 -0.00000000000E+00 -0.00000000000E+00 -0.13550850625E+04  0.13550850625E+04  0.00000000000E+00 0. -1.
          6    1    1    2  501    0 -0.15221933702E+03 -0.70622652051E+02 -0.22413022526E+03  0.32912253557E+03  0.17300000000E+03 0.  1.
         -6    1    1    2    0  502  0.15221933702E+03  0.70622652051E+02 -0.10649933341E+04  0.10919240300E+04  0.17300000000E+03 0.  1.
<mgrwt>
<rscale>  2 0.24101304E+03</rscale>
<asrwt>0</asrwt>
<pdfrwt beam="1">  1       21 0.10147924E-01 0.24101304E+03</pdfrwt>
<pdfrwt beam="2">  1       21 0.20847462E+00 0.24101304E+03</pdfrwt>
<totfact> 0.90237972E+03</totfact>
</mgrwt>
</event>
<event>
 4    1  0.4053645E-001  0.1978528E+03  0.7546771E-02  0.1151563E+00
         21   -1    0    0  501  502  0.00000000000E+00  0.00000000000E+00  0.17465020669E+03  0.17465020669E+03  0.00000000000E+00 0.  1.
         21   -1    0    0  502  503 -0.00000000000E+00 -0.00000000000E+00 -0.22435598737E+03  0.22435598737E+03  0.00000000000E+00 0.  1.
          6    1    1    2  501    0  0.79506526321E+02 -0.53809453454E+02 -0.31071792033E+02  0.20027781023E+03  0.17300000000E+03 0.  1.
         -6    1    1    2    0  503 -0.79506526321E+02  0.53809453454E+02 -0.18633988643E+02  0.19872838383E+03  0.17300000000E+03 0.  1.
<mgrwt>
<rscale>  2 0.19785284E+03</rscale>
<asrwt>0</asrwt>
<pdfrwt beam="1">  1       21 0.26869263E-01 0.19785284E+03</pdfrwt>
<pdfrwt beam="2">  1       21 0.34516306E-01 0.19785284E+03</pdfrwt>
<totfact> 0.10650021E+05</totfact>
</mgrwt>
</event>
<event>
 4    1  0.4053645E-001  0.1781469E+03  0.7546771E-02  0.1169609E+00
         21   -1    0    0  501  502  0.00000000000E+00  0.00000000000E+00  0.25832300513E+02  0.25832300513E+02  0.00000000000E+00 0.  1.
         21   -1    0    0  502  503 -0.00000000000E+00 -0.00000000000E+00 -0.20445992091E+04  0.20445992091E+04  0.00000000000E+00 0.  1.
          6    1    1    2  501    0  0.39272428023E+02 -0.16278834198E+02 -0.35537340018E+03  0.39752556849E+03  0.17300000000E+03 0.  1.
         -6    1    1    2    0  503 -0.39272428023E+02  0.16278834198E+02 -0.16633935085E+04  0.16729059412E+04  0.17300000000E+03 0.  1.
<mgrwt>
<rscale>  2 0.17814692E+03</rscale>
<asrwt>0</asrwt>
<pdfrwt beam="1">  1       21 0.39742010E-02 0.17814692E+03</pdfrwt>
<pdfrwt beam="2">  1       21 0.31455365E+00 0.17814692E+03</pdfrwt>
<totfact> 0.11332958E+04</totfact>
</mgrwt>
</event>
<event>
 4    1  0.4053645E-001  0.1976042E+03  0.7546771E-02  0.1151776E+00
         21   -1    0    0  501  502  0.00000000000E+00  0.00000000000E+00  0.12495081453E+03  0.12495081453E+03  0.00000000000E+00 0.  1.
         21   -1    0    0  502  503 -0.00000000000E+00 -0.00000000000E+00 -0.32428103166E+03  0.32428103166E+03  0.00000000000E+00 0. -1.
          6    1    1    2  501    0  0.79647728479E+02 -0.52674987393E+02 -0.14247354082E+03  0.24361060072E+03  0.17300000000E+03 0.  1.
         -6    1    1    2    0  503 -0.79647728479E+02  0.52674987393E+02 -0.56856676302E+02  0.20562124547E+03  0.17300000000E+03 0. -1.
<mgrwt>
<rscale>  2 0.19760419E+03</rscale>
<asrwt>0</asrwt>
<pdfrwt beam="1">  1       21 0.19223203E-01 0.19760419E+03</pdfrwt>
<pdfrwt beam="2">  1       21 0.49889388E-01 0.19760419E+03</pdfrwt>
<totfact> 0.94944914E+04</totfact>
</mgrwt>
</event>
<event>
 4    1  0.4053645E-001  0.1732135E+03  0.7546771E-02  0.1174538E+00
         21   -1    0    0  503  502  0.00000000000E+00  0.00000000000E+00  0.44192431952E+03  0.44192431952E+03  0.00000000000E+00 0.  1.
         21   -1    0    0  501  503 -0.00000000000E+00 -0.00000000000E+00 -0.71540743376E+02  0.71540743376E+02  0.00000000000E+00 0.  1.
          6    1    1    2  501    0  0.49559008718E+01  0.70253544085E+01  0.24317523490E+03  0.29855838864E+03  0.17300000000E+03 0. -1.
         -6    1    1    2    0  502 -0.49559008718E+01 -0.70253544085E+01  0.12720834125E+03  0.21490667426E+03  0.17300000000E+03 0. -1.
<mgrwt>
<rscale>  2 0.17321350E+03</rscale>
<asrwt>0</asrwt>
<pdfrwt beam="1">  1       21 0.67988355E-01 0.17321350E+03</pdfrwt>
<pdfrwt beam="2">  1       21 0.11006268E-01 0.17321350E+03</pdfrwt>
<totfact> 0.13618627E+05</totfact>
</mgrwt>
</event>
<event>
 4    1  0.4053645E-001  0.3604306E+03  0.7546771E-02  0.1058413E+00
         21   -1    0    0  503  502  0.00000000000E+00  0.00000000000E+00  0.21845415705E+03  0.21845415705E+03  0.00000000000E+00 0.  1.
         21   -1    0    0  501  503 -0.00000000000E+00 -0.00000000000E+00 -0.76519485088E+03  0.76519485088E+03  0.00000000000E+00 0. -1.
          6    1    1    2  501    0  0.28273403699E+03 -0.14157217863E+03 -0.41200489405E+02  0.36277775258E+03  0.17300000000E+03 0.  1.
         -6    1    1    2    0  502 -0.28273403699E+03  0.14157217863E+03 -0.50554020443E+03  0.62087125536E+03  0.17300000000E+03 0. -1.
<mgrwt>
<rscale>  2 0.36043060E+03</rscale>
<asrwt>0</asrwt>
<pdfrwt beam="1">  1       21 0.33608331E-01 0.36043060E+03</pdfrwt>
<pdfrwt beam="2">  1       21 0.11772229E+00 0.36043060E+03</pdfrwt>
<totfact> 0.42688995E+03</totfact>
</mgrwt>
</event>
<event>
 4    1  0.4053645E-001  0.4103768E+03  0.7546771E-02  0.1040245E+00
         21   -1    0    0  501  502  0.00000000000E+00  0.00000000000E+00  0.36532726981E+03  0.36532726981E+03  0.00000000000E+00 0. -1.
         21   -1    0    0  502  503 -0.00000000000E+00 -0.00000000000E+00 -0.46782278819E+03  0.46782278819E+03  0.00000000000E+00 0.  1.
          6    1    1    2  501    0  0.18561334239E+03 -0.32253347892E+03 -0.10162305085E+03  0.42277228192E+03  0.17300000000E+03 0. -1.
         -6    1    1    2    0  503 -0.18561334239E+03  0.32253347892E+03 -0.87246753398E+00  0.41037777608E+03  0.17300000000E+03 0. -1.
<mgrwt>
<rscale>  2 0.41037685E+03</rscale>
<asrwt>0</asrwt>
<pdfrwt beam="1">  1       21 0.56204196E-01 0.41037685E+03</pdfrwt>
<pdfrwt beam="2">  1       21 0.71972736E-01 0.41037685E+03</pdfrwt>
<totfact> 0.46231522E+03</totfact>
</mgrwt>
</event>
<event>
 4    1  0.4053645E-001  0.2097775E+03  0.7546771E-02  0.1141742E+00
         21   -1    0    0  501  502  0.00000000000E+00  0.00000000000E+00  0.10615902995E+04  0.10615902995E+04  0.00000000000E+00 0. -1.
         21   -1    0    0  502  503 -0.00000000000E+00 -0.00000000000E+00 -0.45445884304E+02  0.45445884304E+02  0.00000000000E+00 0. -1.
          6    1    1    2  501    0  0.96155947771E+02  0.69509899376E+02  0.67213224852E+03  0.70410819616E+03  0.17300000000E+03 0. -1.
         -6    1    1    2    0  503 -0.96155947771E+02 -0.69509899376E+02  0.34401216667E+03  0.40292798764E+03  0.17300000000E+03 0. -1.
<mgrwt>
<rscale>  2 0.20977748E+03</rscale>
<asrwt>0</asrwt>
<pdfrwt beam="1">  1       21 0.16332157E+00 0.20977748E+03</pdfrwt>
<pdfrwt beam="2">  1       21 0.69916753E-02 0.20977748E+03</pdfrwt>
<totfact> 0.35706642E+04</totfact>
</mgrwt>
</event>
<event>
 4    1  0.4053645E-001  0.1763664E+03  0.7546771E-02  0.1171367E+00
         21   -1    0    0  503  502  0.00000000000E+00  0.00000000000E+00  0.79028321594E+02  0.79028321594E+02  0.00000000000E+00 0.  1.
         21   -1    0    0  501  503 -0.00000000000E+00 -0.00000000000E+00 -0.40077221470E+03  0.40077221470E+03  0.00000000000E+00 0.  1.
          6    1    1    2  501    0  0.33164310775E+02  0.87313385351E+01 -0.12876663276E+03  0.21837113704E+03  0.17300000000E+03 0. -1.
         -6    1    1    2    0  502 -0.33164310775E+02 -0.87313385351E+01 -0.19297726035E+03  0.26142939925E+03  0.17300000000E+03 0. -1.
<mgrwt>
<rscale>  2 0.17636640E+03</rscale>
<asrwt>0</asrwt>
<pdfrwt beam="1">  1       21 0.12158203E-01 0.17636640E+03</pdfrwt>
<pdfrwt beam="2">  1       21 0.61657264E-01 0.17636640E+03</pdfrwt>
<totfact> 0.14085515E+05</totfact>
</mgrwt>
</event>
<event>
 4    1  0.4053645E-001  0.2182110E+03  0.7546771E-02  0.1135224E+00
         21   -1    0    0  503  502  0.00000000000E+00  0.00000000000E+00  0.20976433612E+03  0.20976433612E+03  0.00000000000E+00 0. -1.
         21   -1    0    0  501  503 -0.00000000000E+00 -0.00000000000E+00 -0.22699868497E+03  0.22699868497E+03  0.00000000000E+00 0.  1.
          6    1    1    2  501    0 -0.13001644402E+03  0.27978090496E+02 -0.90408101772E+01  0.21839822690E+03  0.17300000000E+03 0. -1.
         -6    1    1    2    0  502  0.13001644402E+03 -0.27978090496E+02 -0.81935386692E+01  0.21836479419E+03  0.17300000000E+03 0. -1.
<mgrwt>
<rscale>  2 0.21821102E+03</rscale>
<asrwt>0</asrwt>
<pdfrwt beam="1">  1       21 0.32271437E-01 0.21821102E+03</pdfrwt>
<pdfrwt beam="2">  1       21 0.34922874E-01 0.21821102E+03</pdfrwt>
<totfact> 0.72213686E+04</totfact>
</mgrwt>
</event>
<event>
 4    1  0.4053645E-001  0.1744390E+03  0.7546771E-02  0.1173296E+00
         21   -1    0    0  501  502  0.00000000000E+00  0.00000000000E+00  0.81592876852E+02  0.81592876852E+02  0.00000000000E+00 0. -1.
         21   -1    0    0  502  503 -0.00000000000E+00 -0.00000000000E+00 -0.44021633076E+03  0.44021633076E+03  0.00000000000E+00 0. -1.
          6    1    1    2  501    0 -0.65653372150E+00 -0.22350411039E+02 -0.77313947354E+02  0.19080466023E+03  0.17300000000E+03 0. -1.
         -6    1    1    2    0  503  0.65653372150E+00  0.22350411039E+02 -0.28130950655E+03  0.33100454738E+03  0.17300000000E+03 0. -1.
<mgrwt>
<rscale>  2 0.17443902E+03</rscale>
<asrwt>0</asrwt>
<pdfrwt beam="1">  1       21 0.12552750E-01 0.17443902E+03</pdfrwt>
<pdfrwt beam="2">  1       21 0.67725590E-01 0.17443902E+03</pdfrwt>
<totfact> 0.10860641E+05</totfact>
</mgrwt>
</event>
<event>
 4    1  0.4053645E-001  0.2667672E+03  0.7546771E-02  0.1103144E+00
         21   -1    0    0  503  502  0.00000000000E+00  0.00000000000E+00  0.11197607600E+04  0.11197607600E+04  0.00000000000E+00 0. -1.
         21   -1    0    0  501  503 -0.00000000000E+00 -0.00000000000E+00 -0.11543544218E+03  0.11543544218E+03  0.00000000000E+00 0. -1.
          6    1    1    2  501    0  0.20185124749E+03 -0.22176368697E+02  0.88120588245E+02  0.28094475527E+03  0.17300000000E+03 0. -1.
         -6    1    1    2    0  502 -0.20185124749E+03  0.22176368697E+02  0.91620472962E+03  0.95425144695E+03  0.17300000000E+03 0. -1.
<mgrwt>
<rscale>  2 0.26676716E+03</rscale>
<asrwt>0</asrwt>
<pdfrwt beam="1">  1       21 0.17227088E+00 0.26676716E+03</pdfrwt>
<pdfrwt beam="2">  1       21 0.17759300E-01 0.26676716E+03</pdfrwt>
<totfact> 0.56023057E+03</totfact>
</mgrwt>
</event>
<event>
 4    1  0.4053645E-001  0.1835924E+03  0.7546771E-02  0.1164371E+00
         21   -1    0    0  501  502  0.00000000000E+00  0.00000000000E+00  0.53221597729E+02  0.53221597729E+02  0.00000000000E+00 0.  1.
         21   -1    0    0  502  503 -0.00000000000E+00 -0.00000000000E+00 -0.63791427057E+03  0.63791427057E+03  0.00000000000E+00 0.  1.
          6    1    1    2  501    0  0.60127129139E+01 -0.61163875808E+02 -0.26301202819E+03  0.32075146047E+03  0.17300000000E+03 0.  1.
         -6    1    1    2    0  503 -0.60127129139E+01  0.61163875808E+02 -0.32168064465E+03  0.37038440783E+03  0.17300000000E+03 0.  1.
<mgrwt>
<rscale>  2 0.18359241E+03</rscale>
<asrwt>0</asrwt>
<pdfrwt beam="1">  1       21 0.81879381E-02 0.18359241E+03</pdfrwt>
<pdfrwt beam="2">  1       21 0.98140657E-01 0.18359241E+03</pdfrwt>
<totfact> 0.99269689E+04</totfact>
</mgrwt>
</event>
<event>
 4    1  0.4053645E-001  0.1818241E+03  0.7546771E-02  0.1166049E+00
         21   -1    0    0  503  502  0.00000000000E+00  0.00000000000E+00  0.16024185770E+03  0.16024185770E+03  0.00000000000E+00 0.  1.
         21   -1    0    0  501  503 -0.00000000000E+00 -0.00000000000E+00 -0.29885145274E+03  0.29885145274E+03  0.00000000000E+00 0.  1.
          6    1    1    2  501    0 -0.55878899796E+02  0.29260927481E+01 -0.19703802521E+03  0.26811191104E+03  0.17300000000E+03 0.  1.
         -6    1    1    2    0  502  0.55878899796E+02 -0.29260927481E+01  0.58428430173E+02  0.19098139939E+03  0.17300000000E+03 0.  1.
<mgrwt>
<rscale>  2 0.18182413E+03</rscale>
<asrwt>0</asrwt>
<pdfrwt beam="1">  1       21 0.24652594E-01 0.18182413E+03</pdfrwt>
<pdfrwt beam="2">  1       21 0.45977146E-01 0.18182413E+03</pdfrwt>
<totfact> 0.70854340E+04</totfact>
</mgrwt>
</event>
<event>
 4    1  0.4053645E-001  0.2250777E+03  0.7546771E-02  0.1130153E+00
         21   -1    0    0  501  502  0.00000000000E+00  0.00000000000E+00  0.30842878109E+03  0.30842878109E+03  0.00000000000E+00 0. -1.
         21   -1    0    0  502  503 -0.00000000000E+00 -0.00000000000E+00 -0.18307954985E+03  0.18307954985E+03  0.00000000000E+00 0. -1.
          6    1    1    2  501    0  0.12018727688E+03 -0.79284117947E+02  0.14148460805E+03  0.26585305565E+03  0.17300000000E+03 0. -1.
         -6    1    1    2    0  503 -0.12018727688E+03  0.79284117947E+02 -0.16135376807E+02  0.22565527529E+03  0.17300000000E+03 0. -1.
<mgrwt>
<rscale>  2 0.22507766E+03</rscale>
<asrwt>0</asrwt>
<pdfrwt beam="1">  1       21 0.47450582E-01 0.22507766E+03</pdfrwt>
<pdfrwt beam="2">  1       21 0.28166085E-01 0.22507766E+03</pdfrwt>
<totfact> 0.50395985E+04</totfact>
</mgrwt>
</event>
<event>
 4    1  0.4053645E-001  0.2201151E+03  0.7546771E-02  0.1133797E+00
         21   -1    0    0  501  502  0.00000000000E+00  0.00000000000E+00  0.45807172307E+02  0.45807172307E+02  0.00000000000E+00 0. -1.
         21   -1    0    0  502  503 -0.00000000000E+00 -0.00000000000E+00 -0.13735541081E+04  0.13735541081E+04  0.00000000000E+00 0.  1.
          6    1    1    2  501    0 -0.67010058780E+02 -0.11845386196E+03 -0.32356163930E+03  0.39133463917E+03  0.17300000000E+03 0. -1.
         -6    1    1    2    0  503  0.67010058780E+02  0.11845386196E+03 -0.10041852965E+04  0.10280266412E+04  0.17300000000E+03 0.  1.
<mgrwt>
<rscale>  2 0.22011512E+03</rscale>
<asrwt>0</asrwt>
<pdfrwt beam="1">  1       21 0.70472581E-02 0.22011512E+03</pdfrwt>
<pdfrwt beam="2">  1       21 0.21131599E+00 0.22011512E+03</pdfrwt>
<totfact> 0.16665951E+04</totfact>
</mgrwt>
</event>
<event>
 4    1  0.4053645E-001  0.1744286E+03  0.7546771E-02  0.1173307E+00
         21   -1    0    0  501  502  0.00000000000E+00  0.00000000000E+00  0.39665742326E+03  0.39665742326E+03  0.00000000000E+00 0.  1.
         21   -1    0    0  502  503 -0.00000000000E+00 -0.00000000000E+00 -0.79537311873E+02  0.79537311873E+02  0.00000000000E+00 0.  1.
          6    1    1    2  501    0  0.41685460714E+01  0.21885146236E+02  0.11362429503E+03  0.20817256501E+03  0.17300000000E+03 0.  1.
         -6    1    1    2    0  503 -0.41685460714E+01 -0.21885146236E+02  0.20349581635E+03  0.26802217012E+03  0.17300000000E+03 0.  1.
<mgrwt>
<rscale>  2 0.17442860E+03</rscale>
<asrwt>0</asrwt>
<pdfrwt beam="1">  1       21 0.61024218E-01 0.17442860E+03</pdfrwt>
<pdfrwt beam="2">  1       21 0.12236510E-01 0.17442860E+03</pdfrwt>
<totfact> 0.14246947E+05</totfact>
</mgrwt>
</event>
<event>
 4    1  0.4053645E-001  0.3097097E+03  0.7546771E-02  0.1080485E+00
         21   -1    0    0  503  502  0.00000000000E+00  0.00000000000E+00  0.83386278763E+02  0.83386278763E+02  0.00000000000E+00 0. -1.
         21   -1    0    0  501  503 -0.00000000000E+00 -0.00000000000E+00 -0.12556019303E+04  0.12556019303E+04  0.00000000000E+00 0.  1.
          6    1    1    2  501    0  0.79731012247E+01  0.25676353431E+03 -0.77998112567E+03  0.83922025673E+03  0.17300000000E+03 0. -1.
         -6    1    1    2    0  502 -0.79731012247E+01 -0.25676353431E+03 -0.39223452583E+03  0.49976795231E+03  0.17300000000E+03 0.  1.
<mgrwt>
<rscale>  2 0.30970968E+03</rscale>
<asrwt>0</asrwt>
<pdfrwt beam="1">  1       21 0.12828658E-01 0.30970968E+03</pdfrwt>
<pdfrwt beam="2">  1       21 0.19316953E+00 0.30970968E+03</pdfrwt>
<totfact> 0.71387210E+03</totfact>
</mgrwt>
</event>
<event>
 4    1  0.4053645E-001  0.1880690E+03  0.7546771E-02  0.1160215E+00
         21   -1    0    0  503  502  0.00000000000E+00  0.00000000000E+00  0.60381603937E+03  0.60381603937E+03  0.00000000000E+00 0.  1.
         21   -1    0    0  501  503 -0.00000000000E+00 -0.00000000000E+00 -0.60753867480E+02  0.60753867480E+02  0.00000000000E+00 0.  1.
          6    1    1    2  501    0 -0.20704927220E+02 -0.70797261025E+02  0.33442438032E+03  0.38367904859E+03  0.17300000000E+03 0.  1.
         -6    1    1    2    0  502  0.20704927220E+02  0.70797261025E+02  0.20863779158E+03  0.28089085826E+03  0.17300000000E+03 0.  1.
<mgrwt>
<rscale>  2 0.18806899E+03</rscale>
<asrwt>0</asrwt>
<pdfrwt beam="1">  1       21 0.92894771E-01 0.18806899E+03</pdfrwt>
<pdfrwt beam="2">  1       21 0.93467493E-02 0.18806899E+03</pdfrwt>
<totfact> 0.89395140E+04</totfact>
</mgrwt>
</event>
<event>
 4    1  0.4053645E-001  0.1860867E+03  0.7546771E-02  0.1162039E+00
         21   -1    0    0  503  502  0.00000000000E+00  0.00000000000E+00  0.49675493547E+02  0.49675493547E+02  0.00000000000E+00 0. -1.
         21   -1    0    0  501  503 -0.00000000000E+00 -0.00000000000E+00 -0.71048373789E+03  0.71048373789E+03  0.00000000000E+00 0. -1.
          6    1    1    2  501    0 -0.65916342247E+02 -0.18822883801E+02 -0.27821782830E+03  0.33471394520E+03  0.17300000000E+03 0.  1.
         -6    1    1    2    0  502  0.65916342247E+02  0.18822883801E+02 -0.38259041604E+03  0.42544528623E+03  0.17300000000E+03 0.  1.
<mgrwt>
<rscale>  2 0.18608671E+03</rscale>
<asrwt>0</asrwt>
<pdfrwt beam="1">  1       21 0.76423840E-02 0.18608671E+03</pdfrwt>
<pdfrwt beam="2">  1       21 0.10930518E+00 0.18608671E+03</pdfrwt>
<totfact> 0.86417206E+04</totfact>
</mgrwt>
</event>
<event>
 4    1  0.4053645E-001  0.2115931E+03  0.7546771E-02  0.1140311E+00
         21   -1    0    0  501  502  0.00000000000E+00  0.00000000000E+00  0.14543314999E+04  0.14543314999E+04  0.00000000000E+00 0.  1.
         21   -1    0    0  502  503 -0.00000000000E+00 -0.00000000000E+00 -0.32742829569E+02  0.32742829569E+02  0.00000000000E+00 0.  1.
          6    1    1    2  501    0 -0.27979882208E+02  0.11857385186E+03  0.89260912266E+03  0.91734545184E+03  0.17300000000E+03 0.  1.
         -6    1    1    2    0  503  0.27979882208E+02 -0.11857385186E+03  0.52897954769E+03  0.56972887765E+03  0.17300000000E+03 0.  1.
<mgrwt>
<rscale>  2 0.21159308E+03</rscale>
<asrwt>0</asrwt>
<pdfrwt beam="1">  1       21 0.22374326E+00 0.21159308E+03</pdfrwt>
<pdfrwt beam="2">  1       21 0.50373595E-02 0.21159308E+03</pdfrwt>
<totfact> 0.24982477E+04</totfact>
</mgrwt>
</event>
<event>
 4    1  0.4053645E-001  0.2005845E+03  0.7546771E-02  0.1149247E+00
         21   -1    0    0  503  502  0.00000000000E+00  0.00000000000E+00  0.11997415760E+03  0.11997415760E+03  0.00000000000E+00 0. -1.
         21   -1    0    0  501  503 -0.00000000000E+00 -0.00000000000E+00 -0.38944391118E+03  0.38944391118E+03  0.00000000000E+00 0. -1.
          6    1    1    2  501    0 -0.82078919436E+02  0.59734249873E+02 -0.22965743869E+03  0.30492075818E+03  0.17300000000E+03 0. -1.
         -6    1    1    2    0  502  0.82078919436E+02 -0.59734249873E+02 -0.39812314892E+02  0.20449731060E+03  0.17300000000E+03 0. -1.
<mgrwt>
<rscale>  2 0.20058447E+03</rscale>
<asrwt>0</asrwt>
<pdfrwt beam="1">  1       21 0.18457563E-01 0.20058447E+03</pdfrwt>
<pdfrwt beam="2">  1       21 0.59914448E-01 0.20058447E+03</pdfrwt>
<totfact> 0.69410604E+04</totfact>
</mgrwt>
</event>
<event>
 4    1  0.4053645E-001  0.1750813E+03  0.7546771E-02  0.1172650E+00
         21   -1    0    0  503  502  0.00000000000E+00  0.00000000000E+00  0.24440489694E+03  0.24440489694E+03  0.00000000000E+00 0. -1.
         21   -1    0    0  501  503 -0.00000000000E+00 -0.00000000000E+00 -0.13055167505E+03  0.13055167505E+03  0.00000000000E+00 0. -1.
          6    1    1    2  501    0  0.25845291240E+02 -0.75146261525E+01  0.94093570074E+02  0.19876380107E+03  0.17300000000E+03 0. -1.
         -6    1    1    2    0  502 -0.25845291240E+02  0.75146261525E+01  0.19759651815E+02  0.17619277092E+03  0.17300000000E+03 0. -1.
<mgrwt>
<rscale>  2 0.17508126E+03</rscale>
<asrwt>0</asrwt>
<pdfrwt beam="1">  1       21 0.37600753E-01 0.17508126E+03</pdfrwt>
<pdfrwt beam="2">  1       21 0.20084873E-01 0.17508126E+03</pdfrwt>
<totfact> 0.15709626E+05</totfact>
</mgrwt>
</event>
<event>
 4    1  0.4053645E-001  0.2113280E+03  0.7546771E-02  0.1140519E+00
         21   -1    0    0  503  502  0.00000000000E+00  0.00000000000E+00  0.18110894466E+03  0.18110894466E+03  0.00000000000E+00 0. -1.
         21   -1    0    0  501  503 -0.00000000000E+00 -0.00000000000E+00 -0.26395886357E+03  0.26395886357E+03  0.00000000000E+00 0. -1.
          6    1    1    2  501    0 -0.11570397873E+03 -0.36648783423E+02 -0.98509880118E+02  0.23316033218E+03  0.17300000000E+03 0. -1.
         -6    1    1    2    0  502  0.11570397873E+03  0.36648783423E+02  0.15659961216E+02  0.21190747605E+03  0.17300000000E+03 0. -1.
<mgrwt>
<rscale>  2 0.21132805E+03</rscale>
<asrwt>0</asrwt>
<pdfrwt beam="1">  1       21 0.27862915E-01 0.21132805E+03</pdfrwt>
<pdfrwt beam="2">  1       21 0.40609056E-01 0.21132805E+03</pdfrwt>
<totfact> 0.71270328E+04</totfact>
</mgrwt>
</event>
<event>
 4    1  0.4053645E-001  0.2457701E+03  0.7546771E-02  0.1116008E+00
         21   -1    0    0  503  502  0.00000000000E+00  0.00000000000E+00  0.39272408043E+03  0.39272408043E+03  0.00000000000E+00 0.  1.
         21   -1    0    0  501  503 -0.00000000000E+00 -0.00000000000E+00 -0.20334052675E+03  0.20334052675E+03  0.00000000000E+00 0. -1.
          6    1    1    2  501    0 -0.16820168972E+03 -0.46713367268E+02 -0.52407161389E+02  0.25129555840E+03  0.17300000000E+03 0. -1.
         -6    1    1    2    0  502  0.16820168972E+03  0.46713367268E+02  0.24179071506E+03  0.34476904878E+03  0.17300000000E+03 0.  1.
<mgrwt>
<rscale>  2 0.24577011E+03</rscale>
<asrwt>0</asrwt>
<pdfrwt beam="1">  1       21 0.60419089E-01 0.24577011E+03</pdfrwt>
<pdfrwt beam="2">  1       21 0.31283158E-01 0.24577011E+03</pdfrwt>
<totfact> 0.24369858E+04</totfact>
</mgrwt>
</event>
<event>
 4    1  0.4053645E-001  0.1788643E+03  0.7546771E-02  0.1168907E+00
         21   -1    0    0  501  502  0.00000000000E+00  0.00000000000E+00  0.50567047402E+02  0.50567047402E+02  0.00000000000E+00 0.  1.
         21   -1    0    0  502  503 -0.00000000000E+00 -0.00000000000E+00 -0.63590685728E+03  0.63590685728E+03  0.00000000000E+00 0.  1.
          6    1    1    2  501    0  0.35590628989E+02  0.28226582285E+02 -0.26819497064E+03  0.32236776374E+03  0.17300000000E+03 0.  1.
         -6    1    1    2    0  503 -0.35590628989E+02 -0.28226582285E+02 -0.31714483923E+03  0.36410614094E+03  0.17300000000E+03 0.  1.
<mgrwt>
<rscale>  2 0.17886429E+03</rscale>
<asrwt>0</asrwt>
<pdfrwt beam="1">  1       21 0.77795453E-02 0.17886429E+03</pdfrwt>
<pdfrwt beam="2">  1       21 0.97831830E-01 0.17886429E+03</pdfrwt>
<totfact> 0.10952083E+05</totfact>
</mgrwt>
</event>
<event>
 4    1  0.4053645E-001  0.2223682E+03  0.7546771E-02  0.1132130E+00
         21   -1    0    0  503  502  0.00000000000E+00  0.00000000000E+00  0.10307039402E+03  0.10307039402E+03  0.00000000000E+00 0. -1.
         21   -1    0    0  501  503 -0.00000000000E+00 -0.00000000000E+00 -0.62479330918E+03  0.62479330918E+03  0.00000000000E+00 0.  1.
          6    1    1    2  501    0 -0.81317075820E+02 -0.11360527619E+03 -0.43621174527E+03  0.48962057995E+03  0.17300000000E+03 0.  1.
         -6    1    1    2    0  502  0.81317075820E+02  0.11360527619E+03 -0.85511169894E+02  0.23824312325E+03  0.17300000000E+03 0. -1.
<mgrwt>
<rscale>  2 0.22236822E+03</rscale>
<asrwt>0</asrwt>
<pdfrwt beam="1">  1       21 0.15856984E-01 0.22236822E+03</pdfrwt>
<pdfrwt beam="2">  1       21 0.96122047E-01 0.22236822E+03</pdfrwt>
<totfact> 0.31430080E+04</totfact>
</mgrwt>
</event>
<event>
 4    1  0.4053645E-001  0.2638373E+03  0.7546771E-02  0.1104859E+00
         21   -1    0    0  503  502  0.00000000000E+00  0.00000000000E+00  0.65107905280E+03  0.65107905280E+03  0.00000000000E+00 0. -1.
         21   -1    0    0  501  503 -0.00000000000E+00 -0.00000000000E+00 -0.10705573285E+03  0.10705573285E+03  0.00000000000E+00 0. -1.
          6    1    1    2  501    0  0.18656024361E+03 -0.69831140781E+02  0.25826746905E+03  0.36920481889E+03  0.17300000000E+03 0. -1.
         -6    1    1    2    0  502 -0.18656024361E+03  0.69831140781E+02  0.28575585090E+03  0.38892996676E+03  0.17300000000E+03 0. -1.
<mgrwt>
<rscale>  2 0.26383728E+03</rscale>
<asrwt>0</asrwt>
<pdfrwt beam="1">  1       21 0.10016601E+00 0.26383728E+03</pdfrwt>
<pdfrwt beam="2">  1       21 0.16470113E-01 0.26383728E+03</pdfrwt>
<totfact> 0.26055394E+04</totfact>
</mgrwt>
</event>
<event>
 4    1  0.4053645E-001  0.1831959E+03  0.7546771E-02  0.1164745E+00
         21   -1    0    0  503  502  0.00000000000E+00  0.00000000000E+00  0.35230223343E+03  0.35230223343E+03  0.00000000000E+00 0. -1.
         21   -1    0    0  501  503 -0.00000000000E+00 -0.00000000000E+00 -0.16841159570E+03  0.16841159570E+03  0.00000000000E+00 0.  1.
          6    1    1    2  501    0 -0.59914281996E+02 -0.64809617485E+01 -0.79644509720E+02  0.19975978569E+03  0.17300000000E+03 0.  1.
         -6    1    1    2    0  502  0.59914281996E+02  0.64809617485E+01  0.26353514746E+03  0.32095404344E+03  0.17300000000E+03 0. -1.
<mgrwt>
<rscale>  2 0.18319586E+03</rscale>
<asrwt>0</asrwt>
<pdfrwt beam="1">  1       21 0.54200343E-01 0.18319586E+03</pdfrwt>
<pdfrwt beam="2">  1       21 0.25909476E-01 0.18319586E+03</pdfrwt>
<totfact> 0.45719211E+04</totfact>
</mgrwt>
</event>
<event>
 4    1  0.4053645E-001  0.2150024E+03  0.7546771E-02  0.1137665E+00
         21   -1    0    0  501  502  0.00000000000E+00  0.00000000000E+00  0.12289877792E+04  0.12289877792E+04  0.00000000000E+00 0.  1.
         21   -1    0    0  502  503 -0.00000000000E+00 -0.00000000000E+00 -0.51557878819E+02  0.51557878819E+02  0.00000000000E+00 0. -1.
          6    1    1    2  501    0 -0.55338278189E+01  0.12753982885E+03  0.92169903858E+03  0.94644342087E+03  0.17300000000E+03 0.  1.
         -6    1    1    2    0  503  0.55338278189E+01 -0.12753982885E+03  0.25573086182E+03  0.33410223717E+03  0.17300000000E+03 0. -1.
<mgrwt>
<rscale>  2 0.21500240E+03</rscale>
<asrwt>0</asrwt>
<pdfrwt beam="1">  1       21 0.18907502E+00 0.21500240E+03</pdfrwt>
<pdfrwt beam="2">  1       21 0.79319823E-02 0.21500240E+03</pdfrwt>
<totfact> 0.18955513E+04</totfact>
</mgrwt>
</event>
<event>
 4    1  0.4053645E-001  0.2106296E+03  0.7546771E-02  0.1141068E+00
         21   -1    0    0  501  502  0.00000000000E+00  0.00000000000E+00  0.43045588344E+03  0.43045588344E+03  0.00000000000E+00 0.  1.
         21   -1    0    0  502  503 -0.00000000000E+00 -0.00000000000E+00 -0.12633558319E+03  0.12633558319E+03  0.00000000000E+00 0. -1.
          6    1    1    2  501    0 -0.49917499466E+02  0.10928886068E+03  0.27154313069E+03  0.34365750922E+03  0.17300000000E+03 0.  1.
         -6    1    1    2    0  503  0.49917499466E+02 -0.10928886068E+03  0.32577169561E+02  0.21313395740E+03  0.17300000000E+03 0. -1.
<mgrwt>
<rscale>  2 0.21062956E+03</rscale>
<asrwt>0</asrwt>
<pdfrwt beam="1">  1       21 0.66223981E-01 0.21062956E+03</pdfrwt>
<pdfrwt beam="2">  1       21 0.19436244E-01 0.21062956E+03</pdfrwt>
<totfact> 0.50506900E+04</totfact>
</mgrwt>
</event>
<event>
 4    1  0.4053645E-001  0.1971211E+03  0.7546771E-02  0.1152191E+00
         21   -1    0    0  503  502  0.00000000000E+00  0.00000000000E+00  0.25533943717E+02  0.25533943717E+02  0.00000000000E+00 0.  1.
         21   -1    0    0  501  503 -0.00000000000E+00 -0.00000000000E+00 -0.17936426941E+04  0.17936426941E+04  0.00000000000E+00 0.  1.
          6    1    1    2  501    0  0.62703467113E+02  0.70682518935E+02 -0.12381830957E+04  0.12537759456E+04  0.17300000000E+03 0.  1.
         -6    1    1    2    0  502 -0.62703467113E+02 -0.70682518935E+02 -0.52992565461E+03  0.56540069215E+03  0.17300000000E+03 0.  1.
<mgrwt>
<rscale>  2 0.19712114E+03</rscale>
<asrwt>0</asrwt>
<pdfrwt beam="1">  1       21 0.39282989E-02 0.19712114E+03</pdfrwt>
<pdfrwt beam="2">  1       21 0.27594504E+00 0.19712114E+03</pdfrwt>
<totfact> 0.18889902E+04</totfact>
</mgrwt>
</event>
<event>
 4    1  0.4053645E-001  0.2129645E+03  0.7546771E-02  0.1139240E+00
         21   -1    0    0  501  502  0.00000000000E+00  0.00000000000E+00  0.27641310370E+03  0.27641310370E+03  0.00000000000E+00 0.  1.
         21   -1    0    0  502  503 -0.00000000000E+00 -0.00000000000E+00 -0.17516821733E+03  0.17516821733E+03  0.00000000000E+00 0.  1.
          6    1    1    2  501    0 -0.74965891546E+02 -0.99020131158E+02 -0.61854301041E+01  0.21305429077E+03  0.17300000000E+03 0.  1.
         -6    1    1    2    0  503  0.74965891546E+02  0.99020131158E+02  0.10743031647E+03  0.23852703027E+03  0.17300000000E+03 0.  1.
<mgrwt>
<rscale>  2 0.21296448E+03</rscale>
<asrwt>0</asrwt>
<pdfrwt beam="1">  1       21 0.42525093E-01 0.21296448E+03</pdfrwt>
<pdfrwt beam="2">  1       21 0.26948957E-01 0.21296448E+03</pdfrwt>
<totfact> 0.69158580E+04</totfact>
</mgrwt>
</event>
<event>
 4    1  0.4053645E-001  0.1791527E+03  0.7546771E-02  0.1168626E+00
         21   -1    0    0  503  502  0.00000000000E+00  0.00000000000E+00  0.16239452554E+03  0.16239452554E+03  0.00000000000E+00 0. -1.
         21   -1    0    0  501  503 -0.00000000000E+00 -0.00000000000E+00 -0.19806622713E+03  0.19806622713E+03  0.00000000000E+00 0. -1.
          6    1    1    2  501    0 -0.10750807708E+02  0.45289201416E+02 -0.26194292559E+02  0.18105753946E+03  0.17300000000E+03 0. -1.
         -6    1    1    2    0  502  0.10750807708E+02 -0.45289201416E+02 -0.94774090286E+01  0.17940321322E+03  0.17300000000E+03 0. -1.
<mgrwt>
<rscale>  2 0.17915270E+03</rscale>
<asrwt>0</asrwt>
<pdfrwt beam="1">  1       21 0.24983773E-01 0.17915270E+03</pdfrwt>
<pdfrwt beam="2">  1       21 0.30471727E-01 0.17915270E+03</pdfrwt>
<totfact> 0.15742960E+05</totfact>
</mgrwt>
</event>
<event>
 4    1  0.4053645E-001  0.1874045E+03  0.7546771E-02  0.1160823E+00
         21   -1    0    0  503  502  0.00000000000E+00  0.00000000000E+00  0.34956584533E+02  0.34956584533E+02  0.00000000000E+00 0. -1.
         21   -1    0    0  501  503 -0.00000000000E+00 -0.00000000000E+00 -0.11566177106E+04  0.11566177106E+04  0.00000000000E+00 0. -1.
          6    1    1    2  501    0 -0.30958199101E+02  0.65061911347E+02 -0.77676281264E+03  0.79905001689E+03  0.17300000000E+03 0. -1.
         -6    1    1    2    0  502  0.30958199101E+02 -0.65061911347E+02 -0.34489831340E+03  0.39252427822E+03  0.17300000000E+03 0. -1.
<mgrwt>
<rscale>  2 0.18740454E+03</rscale>
<asrwt>0</asrwt>
<pdfrwt beam="1">  1       21 0.53779372E-02 0.18740454E+03</pdfrwt>
<pdfrwt beam="2">  1       21 0.17794115E+00 0.18740454E+03</pdfrwt>
<totfact> 0.44816138E+04</totfact>
</mgrwt>
</event>
<event>
 4    1  0.4053645E-001  0.2142386E+03  0.7546771E-02  0.1138253E+00
         21   -1    0    0  503  502  0.00000000000E+00  0.00000000000E+00  0.34440757594E+03  0.34440757594E+03  0.00000000000E+00 0. -1.
         21   -1    0    0  501  503 -0.00000000000E+00 -0.00000000000E+00 -0.13716452518E+03  0.13716452518E+03  0.00000000000E+00 0. -1.
          6    1    1    2  501    0  0.77840706812E+02  0.99548963083E+02  0.14421009165E+03  0.25825321338E+03  0.17300000000E+03 0. -1.
         -6    1    1    2    0  502 -0.77840706812E+02 -0.99548963083E+02  0.63032959104E+02  0.22331888774E+03  0.17300000000E+03 0. -1.
<mgrwt>
<rscale>  2 0.21423859E+03</rscale>
<asrwt>0</asrwt>
<pdfrwt beam="1">  1       21 0.52985781E-01 0.21423859E+03</pdfrwt>
<pdfrwt beam="2">  1       21 0.21102235E-01 0.21423859E+03</pdfrwt>
<totfact> 0.69782353E+04</totfact>
</mgrwt>
</event>
<event>
 4    1  0.4053645E-001  0.3037288E+03  0.7546771E-02  0.1083391E+00
         21   -1    0    0  503  502  0.00000000000E+00  0.00000000000E+00  0.15592989133E+03  0.15592989133E+03  0.00000000000E+00 0. -1.
         21   -1    0    0  501  503 -0.00000000000E+00 -0.00000000000E+00 -0.59778392424E+03  0.59778392424E+03  0.00000000000E+00 0. -1.
          6    1    1    2  501    0  0.18024366113E+03 -0.17272631229E+03 -0.25919648514E+03  0.39929184094E+03  0.17300000000E+03 0. -1.
         -6    1    1    2    0  502 -0.18024366113E+03  0.17272631229E+03 -0.18265754777E+03  0.35442197462E+03  0.17300000000E+03 0. -1.
<mgrwt>
<rscale>  2 0.30372875E+03</rscale>
<asrwt>0</asrwt>
<pdfrwt beam="1">  1       21 0.23989214E-01 0.30372875E+03</pdfrwt>
<pdfrwt beam="2">  1       21 0.91966758E-01 0.30372875E+03</pdfrwt>
<totfact> 0.15443002E+04</totfact>
</mgrwt>
</event>
<event>
 4    1  0.4053645E-001  0.1910887E+03  0.7546771E-02  0.1157483E+00
         21   -1    0    0  501  502  0.00000000000E+00  0.00000000000E+00  0.27782012708E+03  0.27782012708E+03  0.00000000000E+00 0. -1.
         21   -1    0    0  502  503 -0.00000000000E+00 -0.00000000000E+00 -0.25838435460E+03  0.25838435460E+03  0.00000000000E+00 0. -1.
          6    1    1    2  501    0  0.91657914583E+01 -0.80634205924E+02  0.19764310217E+03  0.27491395514E+03  0.17300000000E+03 0. -1.
         -6    1    1    2    0  503 -0.91657914583E+01  0.80634205924E+02 -0.17820732969E+03  0.26129052653E+03  0.17300000000E+03 0. -1.
<mgrwt>
<rscale>  2 0.19108869E+03</rscale>
<asrwt>0</asrwt>
<pdfrwt beam="1">  1       21 0.42741558E-01 0.19108869E+03</pdfrwt>
<pdfrwt beam="2">  1       21 0.39751439E-01 0.19108869E+03</pdfrwt>
<totfact> 0.32144497E+04</totfact>
</mgrwt>
</event>
<event>
 4    1  0.4053645E-001  0.1758035E+03  0.7546771E-02  0.1171927E+00
         21   -1    0    0  503  502  0.00000000000E+00  0.00000000000E+00  0.14717627731E+03  0.14717627731E+03  0.00000000000E+00 0. -1.
         21   -1    0    0  501  503 -0.00000000000E+00 -0.00000000000E+00 -0.22235581455E+03  0.22235581455E+03  0.00000000000E+00 0. -1.
          6    1    1    2  501    0  0.19644222899E+02 -0.24330366428E+02  0.59666575827E+01  0.17590469927E+03  0.17300000000E+03 0. -1.
         -6    1    1    2    0  502 -0.19644222899E+02  0.24330366428E+02 -0.81146194825E+02  0.19362739258E+03  0.17300000000E+03 0. -1.
<mgrwt>
<rscale>  2 0.17580348E+03</rscale>
<asrwt>0</asrwt>
<pdfrwt beam="1">  1       21 0.22642504E-01 0.17580348E+03</pdfrwt>
<pdfrwt beam="2">  1       21 0.34208587E-01 0.17580348E+03</pdfrwt>
<totfact> 0.15136231E+05</totfact>
</mgrwt>
</event>
<event>
 4    1  0.4053645E-001  0.1963699E+03  0.7546771E-02  0.1152838E+00
         21   -1    0    0  503  502  0.00000000000E+00  0.00000000000E+00  0.23457015206E+03  0.23457015206E+03  0.00000000000E+00 0. -1.
         21   -1    0    0  501  503 -0.00000000000E+00 -0.00000000000E+00 -0.20007568388E+03  0.20007568388E+03  0.00000000000E+00 0.  1.
          6    1    1    2  501    0  0.39713045560E+02 -0.83994057619E+02 -0.74533545495E+02  0.21003898949E+03  0.17300000000E+03 0.  1.
         -6    1    1    2    0  502 -0.39713045560E+02  0.83994057619E+02  0.10902801368E+03  0.22460684645E+03  0.17300000000E+03 0. -1.
<mgrwt>
<rscale>  2 0.19636987E+03</rscale>
<asrwt>0</asrwt>
<pdfrwt beam="1">  1       21 0.36087716E-01 0.19636987E+03</pdfrwt>
<pdfrwt beam="2">  1       21 0.30780875E-01 0.19636987E+03</pdfrwt>
<totfact> 0.74926622E+04</totfact>
</mgrwt>
</event>
<event>
 4    1  0.4053645E-001  0.3873177E+03  0.7546771E-02  0.1048262E+00
         21   -1    0    0  501  502  0.00000000000E+00  0.00000000000E+00  0.15639490691E+04  0.15639490691E+04  0.00000000000E+00 0. -1.
         21   -1    0    0  502  503 -0.00000000000E+00 -0.00000000000E+00 -0.11839208320E+03  0.11839208320E+03  0.00000000000E+00 0.  1.
          6    1    1    2  501    0 -0.24523023282E+02  0.34566547995E+03  0.10892482841E+04  0.11560609098E+04  0.17300000000E+03 0. -1.
         -6    1    1    2    0  503  0.24523023282E+02 -0.34566547995E+03  0.35630870179E+03  0.52628024253E+03  0.17300000000E+03 0.  1.
<mgrwt>
<rscale>  2 0.38731770E+03</rscale>
<asrwt>0</asrwt>
<pdfrwt beam="1">  1       21 0.24060753E+00 0.38731770E+03</pdfrwt>
<pdfrwt beam="2">  1       21 0.18214168E-01 0.38731770E+03</pdfrwt>
<totfact> 0.17831290E+03</totfact>
</mgrwt>
</event>
<event>
 4    1  0.4053645E-001  0.2225991E+03  0.7546771E-02  0.1131960E+00
         21   -1    0    0  501  502  0.00000000000E+00  0.00000000000E+00  0.15930078574E+04  0.15930078574E+04  0.00000000000E+00 0. -1.
         21   -1    0    0  502  503 -0.00000000000E+00 -0.00000000000E+00 -0.31287574899E+02  0.31287574899E+02  0.00000000000E+00 0. -1.
          6    1    1    2  501    0  0.13438948667E+03 -0.39507179134E+02  0.84291668706E+03  0.87181356530E+03  0.17300000000E+03 0. -1.
         -6    1    1    2    0  503 -0.13438948667E+03  0.39507179134E+02  0.71880359541E+03  0.75248186696E+03  0.17300000000E+03 0. -1.
<mgrwt>
<rscale>  2 0.22259908E+03</rscale>
<asrwt>0</asrwt>
<pdfrwt beam="1">  1       21 0.24507807E+00 0.22259908E+03</pdfrwt>
<pdfrwt beam="2">  1       21 0.48134743E-02 0.22259908E+03</pdfrwt>
<totfact> 0.19897674E+04</totfact>
</mgrwt>
</event>
<event>
 4    1  0.4053645E-001  0.3149567E+03  0.7546771E-02  0.1077994E+00
         21   -1    0    0  501  502  0.00000000000E+00  0.00000000000E+00  0.95965936161E+03  0.95965936161E+03  0.00000000000E+00 0. -1.
         21   -1    0    0  502  503 -0.00000000000E+00 -0.00000000000E+00 -0.10843516393E+03  0.10843516393E+03  0.00000000000E+00 0.  1.
          6    1    1    2  501    0  0.10327212138E+03  0.24208172845E+03  0.54106206957E+03  0.62605579419E+03  0.17300000000E+03 0. -1.
         -6    1    1    2    0  503 -0.10327212138E+03 -0.24208172845E+03  0.31016212811E+03  0.44203873135E+03  0.17300000000E+03 0.  1.
<mgrwt>
<rscale>  2 0.31495665E+03</rscale>
<asrwt>0</asrwt>
<pdfrwt beam="1">  1       21 0.14763990E+00 0.31495665E+03</pdfrwt>
<pdfrwt beam="2">  1       21 0.16682334E-01 0.31495665E+03</pdfrwt>
<totfact> 0.93479851E+03</totfact>
</mgrwt>
</event>
<event>
 4    1  0.4053645E-001  0.2231631E+03  0.7546771E-02  0.1131547E+00
         21   -1    0    0  501  502  0.00000000000E+00  0.00000000000E+00  0.22716584618E+03  0.22716584618E+03  0.00000000000E+00 0. -1.
         21   -1    0    0  502  503 -0.00000000000E+00 -0.00000000000E+00 -0.22611082462E+03  0.22611082462E+03  0.00000000000E+00 0.  1.
          6    1    1    2  501    0  0.33407809126E+02  0.13695500433E+03 -0.39006150210E+02  0.22654631905E+03  0.17300000000E+03 0. -1.
         -6    1    1    2    0  503 -0.33407809126E+02 -0.13695500433E+03  0.40061171763E+02  0.22673035175E+03  0.17300000000E+03 0. -1.
<mgrwt>
<rscale>  2 0.22316307E+03</rscale>
<asrwt>0</asrwt>
<pdfrwt beam="1">  1       21 0.34948592E-01 0.22316307E+03</pdfrwt>
<pdfrwt beam="2">  1       21 0.34786281E-01 0.22316307E+03</pdfrwt>
<totfact> 0.62020485E+04</totfact>
</mgrwt>
</event>
<event>
 4    1  0.4053645E-001  0.1800571E+03  0.7546771E-02  0.1167748E+00
         21   -1    0    0  503  502  0.00000000000E+00  0.00000000000E+00  0.34646708693E+03  0.34646708693E+03  0.00000000000E+00 0. -1.
         21   -1    0    0  501  503 -0.00000000000E+00 -0.00000000000E+00 -0.99832969151E+02  0.99832969151E+02  0.00000000000E+00 0. -1.
          6    1    1    2  501    0  0.39913826624E+02  0.29973973744E+02  0.67445964704E+02  0.19227457141E+03  0.17300000000E+03 0. -1.
         -6    1    1    2    0  502 -0.39913826624E+02 -0.29973973744E+02  0.17918815308E+03  0.25402548467E+03  0.17300000000E+03 0. -1.
<mgrwt>
<rscale>  2 0.18005708E+03</rscale>
<asrwt>0</asrwt>
<pdfrwt beam="1">  1       21 0.53302628E-01 0.18005708E+03</pdfrwt>
<pdfrwt beam="2">  1       21 0.15358918E-01 0.18005708E+03</pdfrwt>
<totfact> 0.12576769E+05</totfact>
</mgrwt>
</event>
<event>
 4    1  0.4053645E-001  0.1909982E+03  0.7546771E-02  0.1157564E+00
         21   -1    0    0  503  502  0.00000000000E+00  0.00000000000E+00  0.99509849242E+02  0.99509849242E+02  0.00000000000E+00 0. -1.
         21   -1    0    0  501  503 -0.00000000000E+00 -0.00000000000E+00 -0.10228658838E+04  0.10228658838E+04  0.00000000000E+00 0. -1.
          6    1    1    2  501    0  0.74737366736E+02  0.31074881066E+02 -0.91118744157E+03  0.93099026627E+03  0.17300000000E+03 0. -1.
         -6    1    1    2    0  502 -0.74737366736E+02 -0.31074881066E+02 -0.12168592946E+02  0.19138546673E+03  0.17300000000E+03 0. -1.
<mgrwt>
<rscale>  2 0.19099823E+03</rscale>
<asrwt>0</asrwt>
<pdfrwt beam="1">  1       21 0.15309207E-01 0.19099823E+03</pdfrwt>
<pdfrwt beam="2">  1       21 0.15736399E+00 0.19099823E+03</pdfrwt>
<totfact> 0.99608476E+03</totfact>
</mgrwt>
</event>
<event>
 4    1  0.4053645E-001  0.2178877E+03  0.7546771E-02  0.1135468E+00
         21   -1    0    0  503  502  0.00000000000E+00  0.00000000000E+00  0.79116029848E+02  0.79116029848E+02  0.00000000000E+00 0. -1.
         21   -1    0    0  501  503 -0.00000000000E+00 -0.00000000000E+00 -0.62895522267E+03  0.62895522267E+03  0.00000000000E+00 0. -1.
          6    1    1    2  501    0 -0.65988181882E+01 -0.13229695638E+03 -0.35079255627E+03  0.41295332254E+03  0.17300000000E+03 0. -1.
         -6    1    1    2    0  502  0.65988181882E+01  0.13229695638E+03 -0.19904663656E+03  0.29511792997E+03  0.17300000000E+03 0. -1.
<mgrwt>
<rscale>  2 0.21788765E+03</rscale>
<asrwt>0</asrwt>
<pdfrwt beam="1">  1       21 0.12171697E-01 0.21788765E+03</pdfrwt>
<pdfrwt beam="2">  1       21 0.96762343E-01 0.21788765E+03</pdfrwt>
<totfact> 0.50124733E+04</totfact>
</mgrwt>
</event>
<event>
 4    1  0.4053645E-001  0.1805150E+03  0.7546771E-02  0.1167306E+00
         21   -1    0    0  503  502  0.00000000000E+00  0.00000000000E+00  0.91255461166E+03  0.91255461166E+03  0.00000000000E+00 0.  1.
         21   -1    0    0  501  503 -0.00000000000E+00 -0.00000000000E+00 -0.38741608683E+02  0.38741608683E+02  0.00000000000E+00 0.  1.
          6    1    1    2  501    0 -0.18757426545E+02 -0.48008431329E+02  0.30381052472E+03  0.35339282033E+03  0.17300000000E+03 0.  1.
         -6    1    1    2    0  502  0.18757426545E+02  0.48008431329E+02  0.57000247826E+03  0.59790340002E+03  0.17300000000E+03 0.  1.
<mgrwt>
<rscale>  2 0.18051496E+03</rscale>
<asrwt>0</asrwt>
<pdfrwt beam="1">  1       21 0.14039300E+00 0.18051496E+03</pdfrwt>
<pdfrwt beam="2">  1       21 0.59602482E-02 0.18051496E+03</pdfrwt>
<totfact> 0.71281718E+04</totfact>
</mgrwt>
</event>
<event>
 4    1  0.4053645E-001  0.2306872E+03  0.7546771E-02  0.1126157E+00
         21   -1    0    0  503  502  0.00000000000E+00  0.00000000000E+00  0.13893222061E+03  0.13893222061E+03  0.00000000000E+00 0. -1.
         21   -1    0    0  501  503 -0.00000000000E+00 -0.00000000000E+00 -0.38310508129E+03  0.38310508129E+03  0.00000000000E+00 0. -1.
          6    1    1    2  501    0  0.11214781055E+03  0.10349138334E+03 -0.12548847032E+03  0.26260988942E+03  0.17300000000E+03 0.  1.
         -6    1    1    2    0  502 -0.11214781055E+03 -0.10349138334E+03 -0.11868439036E+03  0.25942741249E+03  0.17300000000E+03 0.  1.
<mgrwt>
<rscale>  2 0.23068723E+03</rscale>
<asrwt>0</asrwt>
<pdfrwt beam="1">  1       21 0.21374188E-01 0.23068723E+03</pdfrwt>
<pdfrwt beam="2">  1       21 0.58939243E-01 0.23068723E+03</pdfrwt>
<totfact> 0.53922366E+04</totfact>
</mgrwt>
</event>
<event>
 4    1  0.4053645E-001  0.1864995E+03  0.7546771E-02  0.1161657E+00
         21   -1    0    0  501  502  0.00000000000E+00  0.00000000000E+00  0.67183799792E+02  0.67183799792E+02  0.00000000000E+00 0. -1.
         21   -1    0    0  502  503 -0.00000000000E+00 -0.00000000000E+00 -0.51772811615E+03  0.51772811615E+03  0.00000000000E+00 0.  1.
          6    1    1    2  501    0 -0.20841816398E+02  0.66473296859E+02 -0.22672771486E+03  0.29357714010E+03  0.17300000000E+03 0. -1.
         -6    1    1    2    0  503  0.20841816398E+02 -0.66473296859E+02 -0.22381660150E+03  0.29133477584E+03  0.17300000000E+03 0.  1.
<mgrwt>
<rscale>  2 0.18649955E+03</rscale>
<asrwt>0</asrwt>
<pdfrwt beam="1">  1       21 0.10335970E-01 0.18649955E+03</pdfrwt>
<pdfrwt beam="2">  1       21 0.79650477E-01 0.18649955E+03</pdfrwt>
<totfact> 0.10656609E+05</totfact>
</mgrwt>
</event>
<event>
 4    1  0.4053645E-001  0.2042485E+03  0.7546771E-02  0.1146203E+00
         21   -1    0    0  503  502  0.00000000000E+00  0.00000000000E+00  0.10127571627E+03  0.10127571627E+03  0.00000000000E+00 0. -1.
         21   -1    0    0  501  503 -0.00000000000E+00 -0.00000000000E+00 -0.52159235807E+03  0.52159235807E+03  0.00000000000E+00 0.  1.
          6    1    1    2  501    0  0.74905361134E+02 -0.78598011576E+02 -0.35296538529E+03  0.40780145140E+03  0.17300000000E+03 0.  1.
         -6    1    1    2    0  502 -0.74905361134E+02  0.78598011576E+02 -0.67351256503E+02  0.21506662294E+03  0.17300000000E+03 0. -1.
<mgrwt>
<rscale>  2 0.20424853E+03</rscale>
<asrwt>0</asrwt>
<pdfrwt beam="1">  1       21 0.15580879E-01 0.20424853E+03</pdfrwt>
<pdfrwt beam="2">  1       21 0.80244979E-01 0.20424853E+03</pdfrwt>
<totfact> 0.49705216E+04</totfact>
</mgrwt>
</event>
<event>
 4    1  0.4053645E-001  0.2099553E+03  0.7546771E-02  0.1141601E+00
         21   -1    0    0  503  502  0.00000000000E+00  0.00000000000E+00  0.20943064225E+04  0.20943064225E+04  0.00000000000E+00 0.  1.
         21   -1    0    0  501  503 -0.00000000000E+00 -0.00000000000E+00 -0.28724938997E+02  0.28724938997E+02  0.00000000000E+00 0.  1.
          6    1    1    2  501    0  0.11854471248E+03  0.99686929526E+01  0.48402453301E+03  0.52759925346E+03  0.17300000000E+03 0.  1.
         -6    1    1    2    0  502 -0.11854471248E+03 -0.99686929526E+01  0.15815569505E+04  0.15954321080E+04  0.17300000000E+03 0.  1.
<mgrwt>
<rscale>  2 0.20995529E+03</rscale>
<asrwt>0</asrwt>
<pdfrwt beam="1">  1       21 0.32220087E+00 0.20995529E+03</pdfrwt>
<pdfrwt beam="2">  1       21 0.44192230E-02 0.20995529E+03</pdfrwt>
<totfact> 0.82631391E+03</totfact>
</mgrwt>
</event>
<event>
 4    1  0.4053645E-001  0.2351598E+03  0.7546771E-02  0.1123060E+00
         21   -1    0    0  501  502  0.00000000000E+00  0.00000000000E+00  0.13806754413E+03  0.13806754413E+03  0.00000000000E+00 0. -1.
         21   -1    0    0  502  503 -0.00000000000E+00 -0.00000000000E+00 -0.43011622841E+03  0.43011622841E+03  0.00000000000E+00 0.  1.
          6    1    1    2  501    0 -0.15832336342E+03  0.17460433507E+02 -0.22053404103E+03  0.32239016330E+03  0.17300000000E+03 0.  1.
         -6    1    1    2    0  503  0.15832336342E+03 -0.17460433507E+02 -0.71514643249E+02  0.24579360923E+03  0.17300000000E+03 0.  1.
<mgrwt>
<rscale>  2 0.23515985E+03</rscale>
<asrwt>0</asrwt>
<pdfrwt beam="1">  1       21 0.21241161E-01 0.23515985E+03</pdfrwt>
<pdfrwt beam="2">  1       21 0.66171727E-01 0.23515985E+03</pdfrwt>
<totfact> 0.42349399E+04</totfact>
</mgrwt>
</event>
<event>
 4    1  0.4053645E-001  0.2109055E+03  0.7546771E-02  0.1140851E+00
         21   -1    0    0  501  502  0.00000000000E+00  0.00000000000E+00  0.14649064684E+04  0.14649064684E+04  0.00000000000E+00 0.  1.
         21   -1    0    0  502  503 -0.00000000000E+00 -0.00000000000E+00 -0.30635085056E+02  0.30635085056E+02  0.00000000000E+00 0.  1.
          6    1    1    2  501    0  0.46979355949E+02  0.11110835127E+03  0.78741468893E+03  0.81517054531E+03  0.17300000000E+03 0.  1.
         -6    1    1    2    0  503 -0.46979355949E+02 -0.11110835127E+03  0.64685669438E+03  0.68037100810E+03  0.17300000000E+03 0.  1.
<mgrwt>
<rscale>  2 0.21090549E+03</rscale>
<asrwt>0</asrwt>
<pdfrwt beam="1">  1       21 0.22537017E+00 0.21090549E+03</pdfrwt>
<pdfrwt beam="2">  1       21 0.47130911E-02 0.21090549E+03</pdfrwt>
<totfact> 0.27348995E+04</totfact>
</mgrwt>
</event>
<event>
 4    1  0.4053645E-001  0.2321236E+03  0.7546771E-02  0.1125154E+00
         21   -1    0    0  501  502  0.00000000000E+00  0.00000000000E+00  0.69399189155E+03  0.69399189155E+03  0.00000000000E+00 0.  1.
         21   -1    0    0  502  503 -0.00000000000E+00 -0.00000000000E+00 -0.89443826580E+02  0.89443826580E+02  0.00000000000E+00 0. -1.
          6    1    1    2  501    0  0.15447937287E+03  0.94076192548E+01  0.15997118620E+03  0.28190807076E+03  0.17300000000E+03 0.  1.
         -6    1    1    2    0  503 -0.15447937287E+03 -0.94076192548E+01  0.44457687877E+03  0.50152764737E+03  0.17300000000E+03 0.  1.
<mgrwt>
<rscale>  2 0.23212363E+03</rscale>
<asrwt>0</asrwt>
<pdfrwt beam="1">  1       21 0.10676798E+00 0.23212363E+03</pdfrwt>
<pdfrwt beam="2">  1       21 0.13760589E-01 0.23212363E+03</pdfrwt>
<totfact> 0.31514946E+04</totfact>
</mgrwt>
</event>
<event>
 4    1  0.4053645E-001  0.1967489E+03  0.7546771E-02  0.1152511E+00
         21   -1    0    0  501  502  0.00000000000E+00  0.00000000000E+00  0.56340270679E+03  0.56340270679E+03  0.00000000000E+00 0. -1.
         21   -1    0    0  502  503 -0.00000000000E+00 -0.00000000000E+00 -0.69938527952E+02  0.69938527952E+02  0.00000000000E+00 0. -1.
          6    1    1    2  501    0  0.67125173242E+02  0.65386212724E+02  0.28874039769E+03  0.34940114905E+03  0.17300000000E+03 0. -1.
         -6    1    1    2    0  503 -0.67125173242E+02 -0.65386212724E+02  0.20472378115E+03  0.28394008569E+03  0.17300000000E+03 0. -1.
<mgrwt>
<rscale>  2 0.19674894E+03</rscale>
<asrwt>0</asrwt>
<pdfrwt beam="1">  1       21 0.86677336E-01 0.19674894E+03</pdfrwt>
<pdfrwt beam="2">  1       21 0.10759774E-01 0.19674894E+03</pdfrwt>
<totfact> 0.81517441E+04</totfact>
</mgrwt>
</event>
<event>
 4    1  0.4053645E-001  0.1772568E+03  0.7546771E-02  0.1170485E+00
         21   -1    0    0  501  502  0.00000000000E+00  0.00000000000E+00  0.24520711119E+02  0.24520711119E+02  0.00000000000E+00 0.  1.
         21   -1    0    0  502  503 -0.00000000000E+00 -0.00000000000E+00 -0.14754582395E+04  0.14754582395E+04  0.00000000000E+00 0.  1.
          6    1    1    2  501    0  0.18405571014E+02 -0.33944052579E+02 -0.45345072892E+03  0.48686499906E+03  0.17300000000E+03 0.  1.
         -6    1    1    2    0  503 -0.18405571014E+02  0.33944052579E+02 -0.99748679948E+03  0.10131139516E+04  0.17300000000E+03 0.  1.
<mgrwt>
<rscale>  2 0.17725677E+03</rscale>
<asrwt>0</asrwt>
<pdfrwt beam="1">  1       21 0.37724162E-02 0.17725677E+03</pdfrwt>
<pdfrwt beam="2">  1       21 0.22699363E+00 0.17725677E+03</pdfrwt>
<totfact> 0.39877467E+04</totfact>
</mgrwt>
</event>
<event>
 4    1  0.4053645E-001  0.1780482E+03  0.7546771E-02  0.1169705E+00
         21   -1    0    0  503  502  0.00000000000E+00  0.00000000000E+00  0.31137437741E+04  0.31137437741E+04  0.00000000000E+00 0.  1.
         21   -1    0    0  501  503 -0.00000000000E+00 -0.00000000000E+00 -0.14717779360E+02  0.14717779360E+02  0.00000000000E+00 0.  1.
          6    1    1    2  501    0  0.37702956265E+02  0.18725504060E+02  0.68104967452E+03  0.70393878752E+03  0.17300000000E+03 0.  1.
         -6    1    1    2    0  502 -0.37702956265E+02 -0.18725504060E+02  0.24179763202E+04  0.24245227659E+04  0.17300000000E+03 0.  1.
<mgrwt>
<rscale>  2 0.17804819E+03</rscale>
<asrwt>0</asrwt>
<pdfrwt beam="1">  1       21 0.47903698E+00 0.17804819E+03</pdfrwt>
<pdfrwt beam="2">  1       21 0.22642762E-02 0.17804819E+03</pdfrwt>
<totfact> 0.27251687E+03</totfact>
</mgrwt>
</event>
<event>
 4    1  0.4053645E-001  0.1954340E+03  0.7546771E-02  0.1153650E+00
         21   -1    0    0  501  502  0.00000000000E+00  0.00000000000E+00  0.47016028226E+03  0.47016028226E+03  0.00000000000E+00 0.  1.
         21   -1    0    0  502  503 -0.00000000000E+00 -0.00000000000E+00 -0.16062595032E+03  0.16062595032E+03  0.00000000000E+00 0.  1.
          6    1    1    2  501    0 -0.85512500935E+02  0.30871827791E+02  0.37649699049E+03  0.42419858724E+03  0.17300000000E+03 0.  1.
         -6    1    1    2    0  503  0.85512500935E+02 -0.30871827791E+02 -0.66962658549E+02  0.20658764534E+03  0.17300000000E+03 0.  1.
<mgrwt>
<rscale>  2 0.19543402E+03</rscale>
<asrwt>0</asrwt>
<pdfrwt beam="1">  1       21 0.72332350E-01 0.19543402E+03</pdfrwt>
<pdfrwt beam="2">  1       21 0.24711685E-01 0.19543402E+03</pdfrwt>
<totfact> 0.26646000E+04</totfact>
</mgrwt>
</event>
<event>
 4    1  0.4053645E-001  0.2071687E+03  0.7546771E-02  0.1143828E+00
         21   -1    0    0  503  502  0.00000000000E+00  0.00000000000E+00  0.31500883932E+02  0.31500883932E+02  0.00000000000E+00 0.  1.
         21   -1    0    0  501  503 -0.00000000000E+00 -0.00000000000E+00 -0.17410000234E+04  0.17410000234E+04  0.00000000000E+00 0. -1.
          6    1    1    2  501    0  0.42175980377E+02 -0.10588224477E+03 -0.12679967617E+04  0.12848091884E+04  0.17300000000E+03 0. -1.
         -6    1    1    2    0  502 -0.42175980377E+02  0.10588224477E+03 -0.44150237777E+03  0.48769171887E+03  0.17300000000E+03 0.  1.
<mgrwt>
<rscale>  2 0.20716868E+03</rscale>
<asrwt>0</asrwt>
<pdfrwt beam="1">  1       21 0.48462868E-02 0.20716868E+03</pdfrwt>
<pdfrwt beam="2">  1       21 0.26784632E+00 0.20716868E+03</pdfrwt>
<totfact> 0.14637889E+04</totfact>
</mgrwt>
</event>
<event>
 4    1  0.4053645E-001  0.1958205E+03  0.7546771E-02  0.1153314E+00
         21   -1    0    0  501  502  0.00000000000E+00  0.00000000000E+00  0.27052577326E+03  0.27052577326E+03  0.00000000000E+00 0.  1.
         21   -1    0    0  502  503 -0.00000000000E+00 -0.00000000000E+00 -0.14363234935E+03  0.14363234935E+03  0.00000000000E+00 0.  1.
          6    1    1    2  501    0  0.62520672637E+02  0.67140330116E+02  0.39708742869E+02  0.19980601266E+03  0.17300000000E+03 0.  1.
         -6    1    1    2    0  503 -0.62520672637E+02 -0.67140330116E+02  0.87184681039E+02  0.21435210996E+03  0.17300000000E+03 0.  1.
<mgrwt>
<rscale>  2 0.19582048E+03</rscale>
<asrwt>0</asrwt>
<pdfrwt beam="1">  1       21 0.41619349E-01 0.19582048E+03</pdfrwt>
<pdfrwt beam="2">  1       21 0.22097285E-01 0.19582048E+03</pdfrwt>
<totfact> 0.10627173E+05</totfact>
</mgrwt>
</event>
<event>
 4    1  0.4053645E-001  0.1918600E+03  0.7546771E-02  0.1156794E+00
         21   -1    0    0  503  502  0.00000000000E+00  0.00000000000E+00  0.34650056364E+03  0.34650056364E+03  0.00000000000E+00 0. -1.
         21   -1    0    0  501  503 -0.00000000000E+00 -0.00000000000E+00 -0.10779491555E+03  0.10779491555E+03  0.00000000000E+00 0. -1.
          6    1    1    2  501    0 -0.27215931389E+01  0.82908795448E+02  0.14668315917E+03  0.24150822888E+03  0.17300000000E+03 0. -1.
         -6    1    1    2    0  502  0.27215931389E+01 -0.82908795448E+02  0.92022488923E+02  0.21278725032E+03  0.17300000000E+03 0. -1.
<mgrwt>
<rscale>  2 0.19186004E+03</rscale>
<asrwt>0</asrwt>
<pdfrwt beam="1">  1       21 0.53307779E-01 0.19186004E+03</pdfrwt>
<pdfrwt beam="2">  1       21 0.16583833E-01 0.19186004E+03</pdfrwt>
<totfact> 0.10882487E+05</totfact>
</mgrwt>
</event>
<event>
 4    1  0.4053645E-001  0.1801311E+03  0.7546771E-02  0.1167676E+00
         21   -1    0    0  503  502  0.00000000000E+00  0.00000000000E+00  0.20572761109E+03  0.20572761109E+03  0.00000000000E+00 0.  1.
         21   -1    0    0  501  503 -0.00000000000E+00 -0.00000000000E+00 -0.36113685268E+03  0.36113685268E+03  0.00000000000E+00 0.  1.
          6    1    1    2  501    0 -0.35580346822E+02  0.35386924365E+02 -0.29042428803E+03  0.34175058533E+03  0.17300000000E+03 0.  1.
         -6    1    1    2    0  502  0.35580346822E+02 -0.35386924365E+02  0.13501504645E+03  0.22511387843E+03  0.17300000000E+03 0.  1.
<mgrwt>
<rscale>  2 0.18013105E+03</rscale>
<asrwt>0</asrwt>
<pdfrwt beam="1">  1       21 0.31650402E-01 0.18013105E+03</pdfrwt>
<pdfrwt beam="2">  1       21 0.55559515E-01 0.18013105E+03</pdfrwt>
<totfact> 0.29500075E+04</totfact>
</mgrwt>
</event>
<event>
 4    1  0.4053645E-001  0.1861771E+03  0.7546771E-02  0.1161955E+00
         21   -1    0    0  501  502  0.00000000000E+00  0.00000000000E+00  0.16663342773E+03  0.16663342773E+03  0.00000000000E+00 0. -1.
         21   -1    0    0  502  503 -0.00000000000E+00 -0.00000000000E+00 -0.23468664873E+03  0.23468664873E+03  0.00000000000E+00 0. -1.
          6    1    1    2  501    0  0.16354307347E+02  0.66824044192E+02  0.33621871686E+02  0.18918865322E+03  0.17300000000E+03 0. -1.
         -6    1    1    2    0  503 -0.16354307347E+02 -0.66824044192E+02 -0.10167509268E+03  0.21213142323E+03  0.17300000000E+03 0. -1.
<mgrwt>
<rscale>  2 0.18617711E+03</rscale>
<asrwt>0</asrwt>
<pdfrwt beam="1">  1       21 0.25635912E-01 0.18617711E+03</pdfrwt>
<pdfrwt beam="2">  1       21 0.36105638E-01 0.18617711E+03</pdfrwt>
<totfact> 0.10704668E+05</totfact>
</mgrwt>
</event>
<event>
 4    1  0.4053645E-001  0.2362272E+03  0.7546771E-02  0.1122332E+00
         21   -1    0    0  503  502  0.00000000000E+00  0.00000000000E+00  0.35382804052E+03  0.35382804052E+03  0.00000000000E+00 0. -1.
         21   -1    0    0  501  503 -0.00000000000E+00 -0.00000000000E+00 -0.16650890897E+03  0.16650890897E+03  0.00000000000E+00 0. -1.
          6    1    1    2  501    0  0.13601578410E+03 -0.85872083367E+02  0.33863246855E+02  0.23864204934E+03  0.17300000000E+03 0. -1.
         -6    1    1    2    0  502 -0.13601578410E+03  0.85872083367E+02  0.15345588469E+03  0.28169490015E+03  0.17300000000E+03 0. -1.
<mgrwt>
<rscale>  2 0.23622724E+03</rscale>
<asrwt>0</asrwt>
<pdfrwt beam="1">  1       21 0.54435083E-01 0.23622724E+03</pdfrwt>
<pdfrwt beam="2">  1       21 0.25616755E-01 0.23622724E+03</pdfrwt>
<totfact> 0.45154224E+04</totfact>
</mgrwt>
</event>
<event>
 4    1  0.4053645E-001  0.2020462E+03  0.7546771E-02  0.1148024E+00
         21   -1    0    0  501  502  0.00000000000E+00  0.00000000000E+00  0.89811904061E+03  0.89811904061E+03  0.00000000000E+00 0.  1.
         21   -1    0    0  502  503 -0.00000000000E+00 -0.00000000000E+00 -0.45849879485E+02  0.45849879485E+02  0.00000000000E+00 0. -1.
          6    1    1    2  501    0 -0.60999508776E+02 -0.84692056861E+02  0.47001749121E+03  0.51160446304E+03  0.17300000000E+03 0.  1.
         -6    1    1    2    0  503  0.60999508776E+02  0.84692056861E+02  0.38225166992E+03  0.43236445705E+03  0.17300000000E+03 0.  1.
<mgrwt>
<rscale>  2 0.20204624E+03</rscale>
<asrwt>0</asrwt>
<pdfrwt beam="1">  1       21 0.13817215E+00 0.20204624E+03</pdfrwt>
<pdfrwt beam="2">  1       21 0.70538283E-02 0.20204624E+03</pdfrwt>
<totfact> 0.54977441E+04</totfact>
</mgrwt>
</event>
<event>
 4    1  0.4053645E-001  0.2057240E+03  0.7546771E-02  0.1144998E+00
         21   -1    0    0  503  502  0.00000000000E+00  0.00000000000E+00  0.31650293214E+03  0.31650293214E+03  0.00000000000E+00 0. -1.
         21   -1    0    0  501  503 -0.00000000000E+00 -0.00000000000E+00 -0.14161497087E+03  0.14161497087E+03  0.00000000000E+00 0. -1.
          6    1    1    2  501    0  0.15288229472E+02 -0.11027077331E+03  0.14153218872E+03  0.24970729635E+03  0.17300000000E+03 0.  1.
         -6    1    1    2    0  502 -0.15288229472E+02  0.11027077331E+03  0.33355772556E+02  0.20841060666E+03  0.17300000000E+03 0.  1.
<mgrwt>
<rscale>  2 0.20572402E+03</rscale>
<asrwt>0</asrwt>
<pdfrwt beam="1">  1       21 0.48692759E-01 0.20572402E+03</pdfrwt>
<pdfrwt beam="2">  1       21 0.21786919E-01 0.20572402E+03</pdfrwt>
<totfact> 0.78713913E+04</totfact>
</mgrwt>
</event>
<event>
 4    1  0.4053645E-001  0.3238215E+03  0.7546771E-02  0.1073904E+00
         21   -1    0    0  501  502  0.00000000000E+00  0.00000000000E+00  0.18197196685E+03  0.18197196685E+03  0.00000000000E+00 0.  1.
         21   -1    0    0  502  503 -0.00000000000E+00 -0.00000000000E+00 -0.57931250361E+03  0.57931250361E+03  0.00000000000E+00 0.  1.
          6    1    1    2  501    0  0.44757238831E+02 -0.27005218567E+03 -0.17097091402E+03  0.36618498994E+03  0.17300000000E+03 0.  1.
         -6    1    1    2    0  503 -0.44757238831E+02  0.27005218567E+03 -0.22636962274E+03  0.39509948053E+03  0.17300000000E+03 0.  1.
<mgrwt>
<rscale>  2 0.32382155E+03</rscale>
<asrwt>0</asrwt>
<pdfrwt beam="1">  1       21 0.27995687E-01 0.32382155E+03</pdfrwt>
<pdfrwt beam="2">  1       21 0.89125000E-01 0.32382155E+03</pdfrwt>
<totfact> 0.12220747E+04</totfact>
</mgrwt>
</event>
<event>
 4    1  0.4053645E-001  0.1854540E+03  0.7546771E-02  0.1162627E+00
         21   -1    0    0  503  502  0.00000000000E+00  0.00000000000E+00  0.49752224851E+03  0.49752224851E+03  0.00000000000E+00 0.  1.
         21   -1    0    0  501  503 -0.00000000000E+00 -0.00000000000E+00 -0.13435481728E+03  0.13435481728E+03  0.00000000000E+00 0.  1.
          6    1    1    2  501    0 -0.13366579462E+02  0.65463837993E+02 -0.38549704641E+02  0.18941821259E+03  0.17300000000E+03 0.  1.
         -6    1    1    2    0  502  0.13366579462E+02 -0.65463837993E+02  0.40171713587E+03  0.44245885321E+03  0.17300000000E+03 0.  1.
<mgrwt>
<rscale>  2 0.18545398E+03</rscale>
<asrwt>0</asrwt>
<pdfrwt beam="1">  1       21 0.76541883E-01 0.18545398E+03</pdfrwt>
<pdfrwt beam="2">  1       21 0.20669972E-01 0.18545398E+03</pdfrwt>
<totfact> 0.33097435E+04</totfact>
</mgrwt>
</event>
<event>
 4    1  0.4053645E-001  0.1778721E+03  0.7546771E-02  0.1169878E+00
         21   -1    0    0  503  502  0.00000000000E+00  0.00000000000E+00  0.15828780962E+03  0.15828780962E+03  0.00000000000E+00 0. -1.
         21   -1    0    0  501  503 -0.00000000000E+00 -0.00000000000E+00 -0.40588579306E+03  0.40588579306E+03  0.00000000000E+00 0. -1.
          6    1    1    2  501    0  0.41341110307E+02  0.63097825577E+00 -0.32476430427E+03  0.37028413261E+03  0.17300000000E+03 0. -1.
         -6    1    1    2    0  502 -0.41341110307E+02 -0.63097825577E+00  0.77166320827E+02  0.19388947007E+03  0.17300000000E+03 0. -1.
<mgrwt>
<rscale>  2 0.17787210E+03</rscale>
<asrwt>0</asrwt>
<pdfrwt beam="1">  1       21 0.24351971E-01 0.17787210E+03</pdfrwt>
<pdfrwt beam="2">  1       21 0.62443967E-01 0.17787210E+03</pdfrwt>
<totfact> 0.38151139E+04</totfact>
</mgrwt>
</event>
<event>
 4    1  0.4053645E-001  0.1804455E+03  0.7546771E-02  0.1167373E+00
         21   -1    0    0  503  502  0.00000000000E+00  0.00000000000E+00  0.69504343085E+03  0.69504343085E+03  0.00000000000E+00 0.  1.
         21   -1    0    0  501  503 -0.00000000000E+00 -0.00000000000E+00 -0.63390107661E+02  0.63390107661E+02  0.00000000000E+00 0.  1.
          6    1    1    2  501    0 -0.39978221523E+02  0.32145227254E+02  0.12210075028E+03  0.21787420006E+03  0.17300000000E+03 0.  1.
         -6    1    1    2    0  502  0.39978221523E+02 -0.32145227254E+02  0.50955257291E+03  0.54055933846E+03  0.17300000000E+03 0.  1.
<mgrwt>
<rscale>  2 0.18044549E+03</rscale>
<asrwt>0</asrwt>
<pdfrwt beam="1">  1       21 0.10692975E+00 0.18044549E+03</pdfrwt>
<pdfrwt beam="2">  1       21 0.97523247E-02 0.18044549E+03</pdfrwt>
<totfact> 0.59664443E+04</totfact>
</mgrwt>
</event>
<event>
 4    1  0.4053645E-001  0.2243909E+03  0.7546771E-02  0.1130651E+00
         21   -1    0    0  501  502  0.00000000000E+00  0.00000000000E+00  0.61316612884E+02  0.61316612884E+02  0.00000000000E+00 0.  1.
         21   -1    0    0  502  503 -0.00000000000E+00 -0.00000000000E+00 -0.92961654934E+03  0.92961654934E+03  0.00000000000E+00 0.  1.
          6    1    1    2  501    0  0.89641313254E+02 -0.11129568618E+03 -0.26492184442E+03  0.34718133368E+03  0.17300000000E+03 0.  1.
         -6    1    1    2    0  503 -0.89641313254E+02  0.11129568618E+03 -0.60337809203E+03  0.64375182854E+03  0.17300000000E+03 0.  1.
<mgrwt>
<rscale>  2 0.22439094E+03</rscale>
<asrwt>0</asrwt>
<pdfrwt beam="1">  1       21 0.94333253E-02 0.22439094E+03</pdfrwt>
<pdfrwt beam="2">  1       21 0.14301793E+00 0.22439094E+03</pdfrwt>
<totfact> 0.29882256E+04</totfact>
</mgrwt>
</event>
<event>
 4    1  0.4053645E-001  0.1938484E+03  0.7546771E-02  0.1155035E+00
         21   -1    0    0  503  502  0.00000000000E+00  0.00000000000E+00  0.21177594606E+03  0.21177594606E+03  0.00000000000E+00 0. -1.
         21   -1    0    0  501  503 -0.00000000000E+00 -0.00000000000E+00 -0.22181468179E+03  0.22181468179E+03  0.00000000000E+00 0. -1.
          6    1    1    2  501    0 -0.86924593828E+02  0.96089396739E+01 -0.10198759804E+03  0.21904037730E+03  0.17300000000E+03 0. -1.
         -6    1    1    2    0  502  0.86924593828E+02 -0.96089396739E+01  0.91948862309E+02  0.21455025056E+03  0.17300000000E+03 0. -1.
<mgrwt>
<rscale>  2 0.19384844E+03</rscale>
<asrwt>0</asrwt>
<pdfrwt beam="1">  1       21 0.32580915E-01 0.19384844E+03</pdfrwt>
<pdfrwt beam="2">  1       21 0.34125336E-01 0.19384844E+03</pdfrwt>
<totfact> 0.74978724E+04</totfact>
</mgrwt>
</event>
<event>
 4    1  0.4053645E-001  0.1944121E+03  0.7546771E-02  0.1154541E+00
         21   -1    0    0  501  502  0.00000000000E+00  0.00000000000E+00  0.71563916529E+03  0.71563916529E+03  0.00000000000E+00 0. -1.
         21   -1    0    0  502  503 -0.00000000000E+00 -0.00000000000E+00 -0.53811482291E+02  0.53811482291E+02  0.00000000000E+00 0. -1.
          6    1    1    2  501    0 -0.64556366259E+02 -0.60823795618E+02  0.27854449528E+03  0.33968087139E+03  0.17300000000E+03 0. -1.
         -6    1    1    2    0  503  0.64556366259E+02  0.60823795618E+02  0.38328318772E+03  0.42976977619E+03  0.17300000000E+03 0. -1.
<mgrwt>
<rscale>  2 0.19441208E+03</rscale>
<asrwt>0</asrwt>
<pdfrwt beam="1">  1       21 0.11009833E+00 0.19441208E+03</pdfrwt>
<pdfrwt beam="2">  1       21 0.82786902E-02 0.19441208E+03</pdfrwt>
<totfact> 0.73616062E+04</totfact>
</mgrwt>
</event>
<event>
 4    1  0.4053645E-001  0.2589504E+03  0.7546771E-02  0.1107775E+00
         21   -1    0    0  501  502  0.00000000000E+00  0.00000000000E+00  0.83093866701E+03  0.83093866701E+03  0.00000000000E+00 0. -1.
         21   -1    0    0  502  503 -0.00000000000E+00 -0.00000000000E+00 -0.90423345136E+02  0.90423345136E+02  0.00000000000E+00 0.  1.
          6    1    1    2  501    0  0.51280737383E+02  0.18573260435E+03  0.52133748342E+03  0.58210659330E+03  0.17300000000E+03 0.  1.
         -6    1    1    2    0  503 -0.51280737383E+02 -0.18573260435E+03  0.21917783845E+03  0.33925541884E+03  0.17300000000E+03 0.  1.
<mgrwt>
<rscale>  2 0.25895041E+03</rscale>
<asrwt>0</asrwt>
<pdfrwt beam="1">  1       21 0.12783671E+00 0.25895041E+03</pdfrwt>
<pdfrwt beam="2">  1       21 0.13911284E-01 0.25895041E+03</pdfrwt>
<totfact> 0.19519227E+04</totfact>
</mgrwt>
</event>
<event>
 4    1  0.4053645E-001  0.1942309E+03  0.7546771E-02  0.1154700E+00
         21   -1    0    0  501  502  0.00000000000E+00  0.00000000000E+00  0.61925165292E+02  0.61925165292E+02  0.00000000000E+00 0. -1.
         21   -1    0    0  502  503 -0.00000000000E+00 -0.00000000000E+00 -0.64770773445E+03  0.64770773445E+03  0.00000000000E+00 0.  1.
          6    1    1    2  501    0 -0.48328121971E+02 -0.73898893233E+02 -0.20639222205E+03  0.28341383720E+03  0.17300000000E+03 0. -1.
         -6    1    1    2    0  503  0.48328121971E+02  0.73898893233E+02 -0.37939034711E+03  0.42621906254E+03  0.17300000000E+03 0.  1.
<mgrwt>
<rscale>  2 0.19423093E+03</rscale>
<asrwt>0</asrwt>
<pdfrwt beam="1">  1       21 0.95269487E-02 0.19423093E+03</pdfrwt>
<pdfrwt beam="2">  1       21 0.99647342E-01 0.19423093E+03</pdfrwt>
<totfact> 0.73121134E+04</totfact>
</mgrwt>
</event>
<event>
 4    1  0.4053645E-001  0.1947152E+03  0.7546771E-02  0.1154276E+00
         21   -1    0    0  501  502  0.00000000000E+00  0.00000000000E+00  0.59932400826E+02  0.59932400826E+02  0.00000000000E+00 0.  1.
         21   -1    0    0  502  503 -0.00000000000E+00 -0.00000000000E+00 -0.76756228253E+03  0.76756228253E+03  0.00000000000E+00 0.  1.
          6    1    1    2  501    0  0.51918148102E+02 -0.72729150953E+02 -0.18032931822E+03  0.26539157204E+03  0.17300000000E+03 0.  1.
         -6    1    1    2    0  503 -0.51918148102E+02  0.72729150953E+02 -0.52730056348E+03  0.56210311132E+03  0.17300000000E+03 0.  1.
<mgrwt>
<rscale>  2 0.19471524E+03</rscale>
<asrwt>0</asrwt>
<pdfrwt beam="1">  1       21 0.92203698E-02 0.19471524E+03</pdfrwt>
<pdfrwt beam="2">  1       21 0.11808650E+00 0.19471524E+03</pdfrwt>
<totfact> 0.51391795E+04</totfact>
</mgrwt>
</event>
<event>
 4    1  0.4053645E-001  0.2188992E+03  0.7546771E-02  0.1134706E+00
         21   -1    0    0  503  502  0.00000000000E+00  0.00000000000E+00  0.18951541274E+03  0.18951541274E+03  0.00000000000E+00 0. -1.
         21   -1    0    0  501  503 -0.00000000000E+00 -0.00000000000E+00 -0.36730706976E+03  0.36730706976E+03  0.00000000000E+00 0. -1.
          6    1    1    2  501    0  0.55966602734E+02 -0.12188362797E+03 -0.24431850486E+03  0.32803721009E+03  0.17300000000E+03 0. -1.
         -6    1    1    2    0  502 -0.55966602734E+02  0.12188362797E+03  0.66526847834E+02  0.22878527241E+03  0.17300000000E+03 0. -1.
<mgrwt>
<rscale>  2 0.21889924E+03</rscale>
<asrwt>0</asrwt>
<pdfrwt beam="1">  1       21 0.29156217E-01 0.21889924E+03</pdfrwt>
<pdfrwt beam="2">  1       21 0.56508780E-01 0.21889924E+03</pdfrwt>
<totfact> 0.32721509E+04</totfact>
</mgrwt>
</event>
<event>
 4    1  0.4053645E-001  0.2297937E+03  0.7546771E-02  0.1126785E+00
         21   -1    0    0  501  502  0.00000000000E+00  0.00000000000E+00  0.56901108966E+03  0.56901108966E+03  0.00000000000E+00 0. -1.
         21   -1    0    0  502  503 -0.00000000000E+00 -0.00000000000E+00 -0.92826340726E+02  0.92826340726E+02  0.00000000000E+00 0. -1.
          6    1    1    2  501    0  0.22986660931E+02  0.14949172280E+03  0.24349057226E+03  0.33480265911E+03  0.17300000000E+03 0. -1.
         -6    1    1    2    0  503 -0.22986660931E+02 -0.14949172280E+03  0.23269417667E+03  0.32703477128E+03  0.17300000000E+03 0. -1.
<mgrwt>
<rscale>  2 0.22979374E+03</rscale>
<asrwt>0</asrwt>
<pdfrwt beam="1">  1       21 0.87540165E-01 0.22979374E+03</pdfrwt>
<pdfrwt beam="2">  1       21 0.14280976E-01 0.22979374E+03</pdfrwt>
<totfact> 0.47176719E+04</totfact>
</mgrwt>
</event>
<event>
 4    1  0.4053645E-001  0.1793405E+03  0.7546771E-02  0.1168443E+00
         21   -1    0    0  503  502  0.00000000000E+00  0.00000000000E+00  0.37319404071E+03  0.37319404071E+03  0.00000000000E+00 0.  1.
         21   -1    0    0  501  503 -0.00000000000E+00 -0.00000000000E+00 -0.12409943820E+03  0.12409943820E+03  0.00000000000E+00 0.  1.
          6    1    1    2  501    0 -0.47023736158E+02  0.47746478200E+01 -0.12891989802E+02  0.17980331595E+03  0.17300000000E+03 0.  1.
         -6    1    1    2    0  502  0.47023736158E+02 -0.47746478200E+01  0.26198659232E+03  0.31749016296E+03  0.17300000000E+03 0.  1.
<mgrwt>
<rscale>  2 0.17934054E+03</rscale>
<asrwt>0</asrwt>
<pdfrwt beam="1">  1       21 0.57414468E-01 0.17934054E+03</pdfrwt>
<pdfrwt beam="2">  1       21 0.19092221E-01 0.17934054E+03</pdfrwt>
<totfact> 0.72074628E+04</totfact>
</mgrwt>
</event>
<event>
 4    1  0.4053645E-001  0.4582330E+03  0.7546771E-02  0.1025295E+00
         21   -1    0    0  503  502  0.00000000000E+00  0.00000000000E+00  0.61438566048E+03  0.61438566048E+03  0.00000000000E+00 0. -1.
         21   -1    0    0  501  503 -0.00000000000E+00 -0.00000000000E+00 -0.34673520997E+03  0.34673520997E+03  0.00000000000E+00 0.  1.
          6    1    1    2  501    0 -0.34449874641E+03  0.24772783457E+03  0.76308040322E+02  0.46454319855E+03  0.17300000000E+03 0.  1.
         -6    1    1    2    0  502  0.34449874641E+03 -0.24772783457E+03  0.19134241019E+03  0.49657767191E+03  0.17300000000E+03 0. -1.
<mgrwt>
<rscale>  2 0.45823298E+03</rscale>
<asrwt>0</asrwt>
<pdfrwt beam="1">  1       21 0.94520871E-01 0.45823298E+03</pdfrwt>
<pdfrwt beam="2">  1       21 0.53343879E-01 0.45823298E+03</pdfrwt>
<totfact> 0.26995161E+03</totfact>
</mgrwt>
</event>
<event>
 4    1  0.4053645E-001  0.1833546E+03  0.7546771E-02  0.1164595E+00
         21   -1    0    0  501  502  0.00000000000E+00  0.00000000000E+00  0.81031736305E+03  0.81031736305E+03  0.00000000000E+00 0.  1.
         21   -1    0    0  502  503 -0.00000000000E+00 -0.00000000000E+00 -0.50303349972E+02  0.50303349972E+02  0.00000000000E+00 0.  1.
          6    1    1    2  501    0  0.28397429466E+02 -0.53698108956E+02  0.56013836233E+03  0.58938432780E+03  0.17300000000E+03 0.  1.
         -6    1    1    2    0  503 -0.28397429466E+02  0.53698108956E+02  0.19987565075E+03  0.27123638522E+03  0.17300000000E+03 0.  1.
<mgrwt>
<rscale>  2 0.18335458E+03</rscale>
<asrwt>0</asrwt>
<pdfrwt beam="1">  1       21 0.12466420E+00 0.18335458E+03</pdfrwt>
<pdfrwt beam="2">  1       21 0.77389775E-02 0.18335458E+03</pdfrwt>
<totfact> 0.61335903E+04</totfact>
</mgrwt>
</event>
<event>
 4    1  0.4053645E-001  0.1813800E+03  0.7546771E-02  0.1166474E+00
         21   -1    0    0  503  502  0.00000000000E+00  0.00000000000E+00  0.97163002229E+02  0.97163002229E+02  0.00000000000E+00 0. -1.
         21   -1    0    0  501  503 -0.00000000000E+00 -0.00000000000E+00 -0.42150087342E+03  0.42150087342E+03  0.00000000000E+00 0. -1.
          6    1    1    2  501    0  0.51434049640E+02 -0.18006689078E+02 -0.47153818500E+02  0.18740913775E+03  0.17300000000E+03 0. -1.
         -6    1    1    2    0  502 -0.51434049640E+02  0.18006689078E+02 -0.27718405269E+03  0.33125473790E+03  0.17300000000E+03 0. -1.
<mgrwt>
<rscale>  2 0.18137999E+03</rscale>
<asrwt>0</asrwt>
<pdfrwt beam="1">  1       21 0.14948154E-01 0.18137999E+03</pdfrwt>
<pdfrwt beam="2">  1       21 0.64846288E-01 0.18137999E+03</pdfrwt>
<totfact> 0.86876304E+04</totfact>
</mgrwt>
</event>
<event>
 4    1  0.4053645E-001  0.2209181E+03  0.7546771E-02  0.1133200E+00
         21   -1    0    0  503  502  0.00000000000E+00  0.00000000000E+00  0.65145280291E+03  0.65145280291E+03  0.00000000000E+00 0. -1.
         21   -1    0    0  501  503 -0.00000000000E+00 -0.00000000000E+00 -0.74990070068E+02  0.74990070068E+02  0.00000000000E+00 0.  1.
          6    1    1    2  501    0  0.65547369240E+02  0.12074499388E+03  0.29957878399E+03  0.37222608584E+03  0.17300000000E+03 0.  1.
         -6    1    1    2    0  502 -0.65547369240E+02 -0.12074499388E+03  0.27688394886E+03  0.35421678714E+03  0.17300000000E+03 0.  1.
<mgrwt>
<rscale>  2 0.22091811E+03</rscale>
<asrwt>0</asrwt>
<pdfrwt beam="1">  1       21 0.10022350E+00 0.22091811E+03</pdfrwt>
<pdfrwt beam="2">  1       21 0.11536934E-01 0.22091811E+03</pdfrwt>
<totfact> 0.50695301E+04</totfact>
</mgrwt>
</event>
<event>
 4    1  0.4053645E-001  0.1904414E+03  0.7546771E-02  0.1158064E+00
         21   -1    0    0  501  502  0.00000000000E+00  0.00000000000E+00  0.22631275573E+03  0.22631275573E+03  0.00000000000E+00 0. -1.
         21   -1    0    0  502  503 -0.00000000000E+00 -0.00000000000E+00 -0.34780601122E+03  0.34780601122E+03  0.00000000000E+00 0. -1.
          6    1    1    2  501    0  0.76037145633E+02  0.23606768958E+02  0.15004919896E+03  0.24245141609E+03  0.17300000000E+03 0. -1.
         -6    1    1    2    0  503 -0.76037145633E+02 -0.23606768958E+02 -0.27154245445E+03  0.33166735086E+03  0.17300000000E+03 0. -1.
<mgrwt>
<rscale>  2 0.19044140E+03</rscale>
<asrwt>0</asrwt>
<pdfrwt beam="1">  1       21 0.34817347E-01 0.19044140E+03</pdfrwt>
<pdfrwt beam="2">  1       21 0.53508617E-01 0.19044140E+03</pdfrwt>
<totfact> 0.26317232E+04</totfact>
</mgrwt>
</event>
<event>
 4    1  0.4053645E-001  0.1971815E+03  0.7546771E-02  0.1152139E+00
         21   -1    0    0  501  502  0.00000000000E+00  0.00000000000E+00  0.37776910374E+02  0.37776910374E+02  0.00000000000E+00 0. -1.
         21   -1    0    0  502  503 -0.00000000000E+00 -0.00000000000E+00 -0.10366684300E+04  0.10366684300E+04  0.00000000000E+00 0.  1.
          6    1    1    2  501    0 -0.94383886584E+02  0.65754226155E+01 -0.54499898202E+03  0.57957263965E+03  0.17300000000E+03 0.  1.
         -6    1    1    2    0  503  0.94383886584E+02 -0.65754226155E+01 -0.45389253763E+03  0.49487270075E+03  0.17300000000E+03 0. -1.
<mgrwt>
<rscale>  2 0.19718153E+03</rscale>
<asrwt>0</asrwt>
<pdfrwt beam="1">  1       21 0.58118322E-02 0.19718153E+03</pdfrwt>
<pdfrwt beam="2">  1       21 0.15948746E+00 0.19718153E+03</pdfrwt>
<totfact> 0.52725586E+04</totfact>
</mgrwt>
</event>
<event>
 4    1  0.4053645E-001  0.1797238E+03  0.7546771E-02  0.1168071E+00
         21   -1    0    0  503  502  0.00000000000E+00  0.00000000000E+00  0.39674059904E+03  0.39674059904E+03  0.00000000000E+00 0.  1.
         21   -1    0    0  501  503 -0.00000000000E+00 -0.00000000000E+00 -0.11717540864E+03  0.11717540864E+03  0.00000000000E+00 0.  1.
          6    1    1    2  501    0  0.16320608344E+02 -0.45883351404E+02  0.28173574075E+03  0.33417910139E+03  0.17300000000E+03 0.  1.
         -6    1    1    2    0  502 -0.16320608344E+02  0.45883351404E+02 -0.21705503510E+01  0.17973690629E+03  0.17300000000E+03 0.  1.
<mgrwt>
<rscale>  2 0.17972380E+03</rscale>
<asrwt>0</asrwt>
<pdfrwt beam="1">  1       21 0.61037015E-01 0.17972380E+03</pdfrwt>
<pdfrwt beam="2">  1       21 0.18026986E-01 0.17972380E+03</pdfrwt>
<totfact> 0.70313505E+04</totfact>
</mgrwt>
</event>
<event>
 4    1  0.4053645E-001  0.3863921E+03  0.7546771E-02  0.1048596E+00
         21   -1    0    0  503  502  0.00000000000E+00  0.00000000000E+00  0.20056752183E+04  0.20056752183E+04  0.00000000000E+00 0.  1.
         21   -1    0    0  501  503 -0.00000000000E+00 -0.00000000000E+00 -0.90578616470E+02  0.90578616470E+02  0.00000000000E+00 0. -1.
          6    1    1    2  501    0 -0.32409449463E+03  0.11971874442E+03  0.13999926250E+04  0.14523354190E+04  0.17300000000E+03 0.  1.
         -6    1    1    2    0  502  0.32409449463E+03 -0.11971874442E+03  0.51510397677E+03  0.64391841572E+03  0.17300000000E+03 0. -1.
<mgrwt>
<rscale>  2 0.38639205E+03</rscale>
<asrwt>0</asrwt>
<pdfrwt beam="1">  1       21 0.30856539E+00 0.38639205E+03</pdfrwt>
<pdfrwt beam="2">  1       21 0.13935173E-01 0.38639205E+03</pdfrwt>
<totfact> 0.11440805E+03</totfact>
</mgrwt>
</event>
<event>
 4    1  0.4053645E-001  0.2425169E+03  0.7546771E-02  0.1118127E+00
         21   -1    0    0  501  502  0.00000000000E+00  0.00000000000E+00  0.14337499759E+03  0.14337499759E+03  0.00000000000E+00 0.  1.
         21   -1    0    0  502  503 -0.00000000000E+00 -0.00000000000E+00 -0.48013903472E+03  0.48013903472E+03  0.00000000000E+00 0.  1.
          6    1    1    2  501    0  0.59011856502E+02  0.15938331936E+03 -0.49408899357E+02  0.24749885057E+03  0.17300000000E+03 0.  1.
         -6    1    1    2    0  503 -0.59011856502E+02 -0.15938331936E+03 -0.28735513777E+03  0.37601518175E+03  0.17300000000E+03 0.  1.
<mgrwt>
<rscale>  2 0.24251689E+03</rscale>
<asrwt>0</asrwt>
<pdfrwt beam="1">  1       21 0.22057692E-01 0.24251689E+03</pdfrwt>
<pdfrwt beam="2">  1       21 0.73867545E-01 0.24251689E+03</pdfrwt>
<totfact> 0.30796364E+04</totfact>
</mgrwt>
</event>
<event>
 4    1  0.4053645E-001  0.2051905E+03  0.7546771E-02  0.1145432E+00
         21   -1    0    0  501  502  0.00000000000E+00  0.00000000000E+00  0.19394432163E+04  0.19394432163E+04  0.00000000000E+00 0.  1.
         21   -1    0    0  502  503 -0.00000000000E+00 -0.00000000000E+00 -0.21989867780E+02  0.21989867780E+02  0.00000000000E+00 0. -1.
          6    1    1    2  501    0  0.60495782525E+02 -0.92273564748E+02  0.10695858798E+04  0.10890900352E+04  0.17300000000E+03 0.  1.
         -6    1    1    2    0  503 -0.60495782525E+02  0.92273564748E+02  0.84786746869E+03  0.87234304887E+03  0.17300000000E+03 0. -1.
<mgrwt>
<rscale>  2 0.20519052E+03</rscale>
<asrwt>0</asrwt>
<pdfrwt beam="1">  1       21 0.29837574E+00 0.20519052E+03</pdfrwt>
<pdfrwt beam="2">  1       21 0.33830581E-02 0.20519052E+03</pdfrwt>
<totfact> 0.17857721E+04</totfact>
</mgrwt>
</event>
<event>
 4    1  0.4053645E-001  0.1966936E+03  0.7546771E-02  0.1152559E+00
         21   -1    0    0  503  502  0.00000000000E+00  0.00000000000E+00  0.29405194655E+03  0.29405194655E+03  0.00000000000E+00 0.  1.
         21   -1    0    0  501  503 -0.00000000000E+00 -0.00000000000E+00 -0.16043670628E+03  0.16043670628E+03  0.00000000000E+00 0.  1.
          6    1    1    2  501    0 -0.89673120662E+02  0.26797625149E+02 -0.29584303978E+02  0.19890603893E+03  0.17300000000E+03 0.  1.
         -6    1    1    2    0  502  0.89673120662E+02 -0.26797625149E+02  0.16319954425E+03  0.25558261389E+03  0.17300000000E+03 0.  1.
<mgrwt>
<rscale>  2 0.19669362E+03</rscale>
<asrwt>0</asrwt>
<pdfrwt beam="1">  1       21 0.45238761E-01 0.19669362E+03</pdfrwt>
<pdfrwt beam="2">  1       21 0.24682570E-01 0.19669362E+03</pdfrwt>
<totfact> 0.72623173E+04</totfact>
</mgrwt>
</event>
<event>
 4    1  0.4053645E-001  0.2493724E+03  0.7546771E-02  0.1113702E+00
         21   -1    0    0  503  502  0.00000000000E+00  0.00000000000E+00  0.77861336039E+03  0.77861336039E+03  0.00000000000E+00 0. -1.
         21   -1    0    0  501  503 -0.00000000000E+00 -0.00000000000E+00 -0.82514475814E+02  0.82514475814E+02  0.00000000000E+00 0. -1.
          6    1    1    2  501    0 -0.88186951164E+02 -0.15646292669E+03  0.42515320082E+03  0.49289129629E+03  0.17300000000E+03 0. -1.
         -6    1    1    2    0  502  0.88186951164E+02  0.15646292669E+03  0.27094568375E+03  0.36823653992E+03  0.17300000000E+03 0. -1.
<mgrwt>
<rscale>  2 0.24937238E+03</rscale>
<asrwt>0</asrwt>
<pdfrwt beam="1">  1       21 0.11978667E+00 0.24937238E+03</pdfrwt>
<pdfrwt beam="2">  1       21 0.12694535E-01 0.24937238E+03</pdfrwt>
<totfact> 0.27280482E+04</totfact>
</mgrwt>
</event>
<event>
 4    1  0.4053645E-001  0.2310581E+03  0.7546771E-02  0.1125897E+00
         21   -1    0    0  503  502  0.00000000000E+00  0.00000000000E+00  0.19716451827E+03  0.19716451827E+03  0.00000000000E+00 0. -1.
         21   -1    0    0  501  503 -0.00000000000E+00 -0.00000000000E+00 -0.30522448887E+03  0.30522448887E+03  0.00000000000E+00 0.  1.
          6    1    1    2  501    0  0.11966039093E+03  0.95604627766E+02 -0.13841622670E+03  0.26934532820E+03  0.17300000000E+03 0. -1.
         -6    1    1    2    0  502 -0.11966039093E+03 -0.95604627766E+02  0.30356256101E+02  0.23304367894E+03  0.17300000000E+03 0. -1.
<mgrwt>
<rscale>  2 0.23105812E+03</rscale>
<asrwt>0</asrwt>
<pdfrwt beam="1">  1       21 0.30333003E-01 0.23105812E+03</pdfrwt>
<pdfrwt beam="2">  1       21 0.46957614E-01 0.23105812E+03</pdfrwt>
<totfact> 0.44449457E+04</totfact>
</mgrwt>
</event>
<event>
 4    1  0.4053645E-001  0.1859864E+03  0.7546771E-02  0.1162132E+00
         21   -1    0    0  503  502  0.00000000000E+00  0.00000000000E+00  0.47808442640E+02  0.47808442640E+02  0.00000000000E+00 0. -1.
         21   -1    0    0  501  503 -0.00000000000E+00 -0.00000000000E+00 -0.82741074050E+03  0.82741074050E+03  0.00000000000E+00 0. -1.
          6    1    1    2  501    0  0.49514265666E+02 -0.47013404042E+02 -0.54485775321E+03  0.57572640542E+03  0.17300000000E+03 0. -1.
         -6    1    1    2    0  502 -0.49514265666E+02  0.47013404042E+02 -0.23474454465E+03  0.29949277772E+03  0.17300000000E+03 0. -1.
<mgrwt>
<rscale>  2 0.18598635E+03</rscale>
<asrwt>0</asrwt>
<pdfrwt beam="1">  1       21 0.73551454E-02 0.18598635E+03</pdfrwt>
<pdfrwt beam="2">  1       21 0.12729395E+00 0.18598635E+03</pdfrwt>
<totfact> 0.63494855E+04</totfact>
</mgrwt>
</event>
<event>
 4    1  0.4053645E-001  0.2031314E+03  0.7546771E-02  0.1147124E+00
         21   -1    0    0  501  502  0.00000000000E+00  0.00000000000E+00  0.19287792467E+03  0.19287792467E+03  0.00000000000E+00 0.  1.
         21   -1    0    0  502  503 -0.00000000000E+00 -0.00000000000E+00 -0.51554226643E+03  0.51554226643E+03  0.00000000000E+00 0. -1.
          6    1    1    2  501    0  0.29200219477E+02 -0.10237527584E+03  0.10959551557E+03  0.23081058674E+03  0.17300000000E+03 0.  1.
         -6    1    1    2    0  503 -0.29200219477E+02  0.10237527584E+03 -0.43225985733E+03  0.47760960436E+03  0.17300000000E+03 0. -1.
<mgrwt>
<rscale>  2 0.20313136E+03</rscale>
<asrwt>0</asrwt>
<pdfrwt beam="1">  1       21 0.29673527E-01 0.20313136E+03</pdfrwt>
<pdfrwt beam="2">  1       21 0.79314195E-01 0.20313136E+03</pdfrwt>
<totfact> 0.15163268E+04</totfact>
</mgrwt>
</event>
<event>
 4    1  0.4053645E-001  0.2663816E+03  0.7546771E-02  0.1103369E+00
         21   -1    0    0  501  502  0.00000000000E+00  0.00000000000E+00  0.94759340178E+03  0.94759340178E+03  0.00000000000E+00 0.  1.
         21   -1    0    0  502  503 -0.00000000000E+00 -0.00000000000E+00 -0.79177047716E+02  0.79177047716E+02  0.00000000000E+00 0.  1.
          6    1    1    2  501    0 -0.20110069009E+03  0.24262036590E+02  0.55375845976E+03  0.61449781589E+03  0.17300000000E+03 0.  1.
         -6    1    1    2    0  503  0.20110069009E+03 -0.24262036590E+02  0.31465789431E+03  0.41227263361E+03  0.17300000000E+03 0.  1.
<mgrwt>
<rscale>  2 0.26638156E+03</rscale>
<asrwt>0</asrwt>
<pdfrwt beam="1">  1       21 0.14578359E+00 0.26638156E+03</pdfrwt>
<pdfrwt beam="2">  1       21 0.12181085E-01 0.26638156E+03</pdfrwt>
<totfact> 0.17607452E+04</totfact>
</mgrwt>
</event>
<event>
 4    1  0.4053645E-001  0.2253885E+03  0.7546771E-02  0.1129928E+00
         21   -1    0    0  501  502  0.00000000000E+00  0.00000000000E+00  0.61878334067E+03  0.61878334067E+03  0.00000000000E+00 0. -1.
         21   -1    0    0  502  503 -0.00000000000E+00 -0.00000000000E+00 -0.85641571379E+02  0.85641571379E+02  0.00000000000E+00 0. -1.
          6    1    1    2  501    0  0.14068741865E+03  0.32833330048E+02  0.33823006564E+03  0.40644748078E+03  0.17300000000E+03 0. -1.
         -6    1    1    2    0  503 -0.14068741865E+03 -0.32833330048E+02  0.19491170365E+03  0.29797743127E+03  0.17300000000E+03 0. -1.
<mgrwt>
<rscale>  2 0.22538850E+03</rscale>
<asrwt>0</asrwt>
<pdfrwt beam="1">  1       21 0.95197434E-01 0.22538850E+03</pdfrwt>
<pdfrwt beam="2">  1       21 0.13175627E-01 0.22538850E+03</pdfrwt>
<totfact> 0.44994986E+04</totfact>
</mgrwt>
</event>
<event>
 4    1  0.4053645E-001  0.3409467E+03  0.7546771E-02  0.1066393E+00
         21   -1    0    0  503  502  0.00000000000E+00  0.00000000000E+00  0.48508694776E+03  0.48508694776E+03  0.00000000000E+00 0. -1.
         21   -1    0    0  501  503 -0.00000000000E+00 -0.00000000000E+00 -0.24314747377E+03  0.24314747377E+03  0.00000000000E+00 0. -1.
          6    1    1    2  501    0  0.27016954492E+03 -0.11542997869E+03  0.77217100517E+02  0.34958138337E+03  0.17300000000E+03 0. -1.
         -6    1    1    2    0  502 -0.27016954492E+03  0.11542997869E+03  0.16472237347E+03  0.37865303816E+03  0.17300000000E+03 0. -1.
<mgrwt>
<rscale>  2 0.34094672E+03</rscale>
<asrwt>0</asrwt>
<pdfrwt beam="1">  1       21 0.74628761E-01 0.34094672E+03</pdfrwt>
<pdfrwt beam="2">  1       21 0.37407304E-01 0.34094672E+03</pdfrwt>
<totfact> 0.10253817E+04</totfact>
</mgrwt>
</event>
<event>
 4    1  0.4053645E-001  0.2021374E+03  0.7546771E-02  0.1147948E+00
         21   -1    0    0  501  502  0.00000000000E+00  0.00000000000E+00  0.46198544013E+03  0.46198544013E+03  0.00000000000E+00 0.  1.
         21   -1    0    0  502  503 -0.00000000000E+00 -0.00000000000E+00 -0.88792547076E+02  0.88792547076E+02  0.00000000000E+00 0.  1.
          6    1    1    2  501    0  0.25030179589E+02  0.10150870864E+03  0.20386714821E+03  0.28709117357E+03  0.17300000000E+03 0.  1.
         -6    1    1    2    0  503 -0.25030179589E+02 -0.10150870864E+03  0.16932574484E+03  0.26368681364E+03  0.17300000000E+03 0.  1.
<mgrwt>
<rscale>  2 0.20213740E+03</rscale>
<asrwt>0</asrwt>
<pdfrwt beam="1">  1       21 0.71074681E-01 0.20213740E+03</pdfrwt>
<pdfrwt beam="2">  1       21 0.13660392E-01 0.20213740E+03</pdfrwt>
<totfact> 0.82938262E+04</totfact>
</mgrwt>
</event>
<event>
 4    1  0.4053645E-001  0.3183007E+03  0.7546771E-02  0.1076434E+00
         21   -1    0    0  503  502  0.00000000000E+00  0.00000000000E+00  0.37314449198E+03  0.37314449198E+03  0.00000000000E+00 0.  1.
         21   -1    0    0  501  503 -0.00000000000E+00 -0.00000000000E+00 -0.29018542445E+03  0.29018542445E+03  0.00000000000E+00 0. -1.
          6    1    1    2  501    0  0.25927961370E+03  0.64501195577E+02  0.12560119759E+03  0.34218559752E+03  0.17300000000E+03 0.  1.
         -6    1    1    2    0  502 -0.25927961370E+03 -0.64501195577E+02 -0.42642130062E+02  0.32114431891E+03  0.17300000000E+03 0. -1.
<mgrwt>
<rscale>  2 0.31830068E+03</rscale>
<asrwt>0</asrwt>
<pdfrwt beam="1">  1       21 0.57406845E-01 0.31830068E+03</pdfrwt>
<pdfrwt beam="2">  1       21 0.44643911E-01 0.31830068E+03</pdfrwt>
<totfact> 0.12851979E+04</totfact>
</mgrwt>
</event>
<event>
 4    1  0.4053645E-001  0.2089233E+03  0.7546771E-02  0.1142421E+00
         21   -1    0    0  501  502  0.00000000000E+00  0.00000000000E+00  0.79417242227E+03  0.79417242227E+03  0.00000000000E+00 0. -1.
         21   -1    0    0  502  503 -0.00000000000E+00 -0.00000000000E+00 -0.55166207110E+02  0.55166207110E+02  0.00000000000E+00 0. -1.
          6    1    1    2  501    0 -0.11605078305E+03  0.15879956936E+02  0.34363799354E+03  0.40216418026E+03  0.17300000000E+03 0. -1.
         -6    1    1    2    0  503  0.11605078305E+03 -0.15879956936E+02  0.39536822162E+03  0.44717444912E+03  0.17300000000E+03 0. -1.
<mgrwt>
<rscale>  2 0.20892333E+03</rscale>
<asrwt>0</asrwt>
<pdfrwt beam="1">  1       21 0.12218036E+00 0.20892333E+03</pdfrwt>
<pdfrwt beam="2">  1       21 0.84871094E-02 0.20892333E+03</pdfrwt>
<totfact> 0.54203508E+04</totfact>
</mgrwt>
</event>
<event>
 4    1  0.4053645E-001  0.1904555E+03  0.7546771E-02  0.1158051E+00
         21   -1    0    0  501  502  0.00000000000E+00  0.00000000000E+00  0.78865432497E+02  0.78865432497E+02  0.00000000000E+00 0.  1.
         21   -1    0    0  502  503 -0.00000000000E+00 -0.00000000000E+00 -0.54050024581E+03  0.54050024581E+03  0.00000000000E+00 0. -1.
          6    1    1    2  501    0  0.60215852618E+02 -0.52137925679E+02 -0.11125863153E+03  0.22057151967E+03  0.17300000000E+03 0.  1.
         -6    1    1    2    0  503 -0.60215852618E+02  0.52137925679E+02 -0.35037618178E+03  0.39879415863E+03  0.17300000000E+03 0. -1.
<mgrwt>
<rscale>  2 0.19045554E+03</rscale>
<asrwt>0</asrwt>
<pdfrwt beam="1">  1       21 0.12133143E-01 0.19045554E+03</pdfrwt>
<pdfrwt beam="2">  1       21 0.83153885E-01 0.19045554E+03</pdfrwt>
<totfact> 0.72556007E+04</totfact>
</mgrwt>
</event>
<event>
 4    1  0.4053645E-001  0.1888458E+03  0.7546771E-02  0.1159506E+00
         21   -1    0    0  501  502  0.00000000000E+00  0.00000000000E+00  0.27199358344E+04  0.27199358344E+04  0.00000000000E+00 0. -1.
         21   -1    0    0  502  503 -0.00000000000E+00 -0.00000000000E+00 -0.13346512573E+02  0.13346512573E+02  0.00000000000E+00 0. -1.
          6    1    1    2  501    0 -0.35869326456E+02  0.66686771141E+02  0.11719871484E+04  0.11871042962E+04  0.17300000000E+03 0. -1.
         -6    1    1    2    0  503  0.35869326456E+02 -0.66686771141E+02  0.15346021735E+04  0.15461780508E+04  0.17300000000E+03 0. -1.
<mgrwt>
<rscale>  2 0.18884579E+03</rscale>
<asrwt>0</asrwt>
<pdfrwt beam="1">  1       21 0.41845122E+00 0.18884579E+03</pdfrwt>
<pdfrwt beam="2">  1       21 0.20533118E-02 0.18884579E+03</pdfrwt>
<totfact> 0.79049318E+03</totfact>
</mgrwt>
</event>
<event>
 4    1  0.4053645E-001  0.2192936E+03  0.7546771E-02  0.1134411E+00
         21   -1    0    0  503  502  0.00000000000E+00  0.00000000000E+00  0.55691153735E+02  0.55691153735E+02  0.00000000000E+00 0.  1.
         21   -1    0    0  501  503 -0.00000000000E+00 -0.00000000000E+00 -0.86546235467E+03  0.86546235467E+03  0.00000000000E+00 0.  1.
          6    1    1    2  501    0 -0.27932257110E+02  0.13183493913E+03 -0.38298942326E+03  0.44132817777E+03  0.17300000000E+03 0.  1.
         -6    1    1    2    0  502  0.27932257110E+02 -0.13183493913E+03 -0.42678177767E+03  0.47982533063E+03  0.17300000000E+03 0.  1.
<mgrwt>
<rscale>  2 0.21929355E+03</rscale>
<asrwt>0</asrwt>
<pdfrwt beam="1">  1       21 0.85678698E-02 0.21929355E+03</pdfrwt>
<pdfrwt beam="2">  1       21 0.13314805E+00 0.21929355E+03</pdfrwt>
<totfact> 0.42691281E+04</totfact>
</mgrwt>
</event>
<event>
 4    1  0.4053645E-001  0.1836705E+03  0.7546771E-02  0.1164297E+00
         21   -1    0    0  503  502  0.00000000000E+00  0.00000000000E+00  0.65619876122E+02  0.65619876122E+02  0.00000000000E+00 0. -1.
         21   -1    0    0  501  503 -0.00000000000E+00 -0.00000000000E+00 -0.51721216769E+03  0.51721216769E+03  0.00000000000E+00 0. -1.
          6    1    1    2  501    0 -0.34469649575E+02 -0.51163539846E+02 -0.24841881896E+03  0.30894461343E+03  0.17300000000E+03 0. -1.
         -6    1    1    2    0  502  0.34469649575E+02  0.51163539846E+02 -0.20317347260E+03  0.27388743038E+03  0.17300000000E+03 0. -1.
<mgrwt>
<rscale>  2 0.18367053E+03</rscale>
<asrwt>0</asrwt>
<pdfrwt beam="1">  1       21 0.10095365E-01 0.18367053E+03</pdfrwt>
<pdfrwt beam="2">  1       21 0.79571107E-01 0.18367053E+03</pdfrwt>
<totfact> 0.11146596E+05</totfact>
</mgrwt>
</event>
<event>
 4    1  0.4053645E-001  0.2261480E+03  0.7546771E-02  0.1129381E+00
         21   -1    0    0  501  502  0.00000000000E+00  0.00000000000E+00  0.60762135284E+03  0.60762135284E+03  0.00000000000E+00 0. -1.
         21   -1    0    0  502  503 -0.00000000000E+00 -0.00000000000E+00 -0.84186878138E+02  0.84186878138E+02  0.00000000000E+00 0. -1.
          6    1    1    2  501    0  0.14441437767E+03 -0.18931130061E+02  0.26675368391E+03  0.34971478099E+03  0.17300000000E+03 0. -1.
         -6    1    1    2    0  503 -0.14441437767E+03  0.18931130061E+02  0.25668079079E+03  0.34209344999E+03  0.17300000000E+03 0. -1.
<mgrwt>
<rscale>  2 0.22614796E+03</rscale>
<asrwt>0</asrwt>
<pdfrwt beam="1">  1       21 0.93480205E-01 0.22614796E+03</pdfrwt>
<pdfrwt beam="2">  1       21 0.12951828E-01 0.22614796E+03</pdfrwt>
<totfact> 0.48420394E+04</totfact>
</mgrwt>
</event>
<event>
 4    1  0.4053645E-001  0.1770043E+03  0.7546771E-02  0.1170734E+00
         21   -1    0    0  503  502  0.00000000000E+00  0.00000000000E+00  0.41318741455E+03  0.41318741455E+03  0.00000000000E+00 0. -1.
         21   -1    0    0  501  503 -0.00000000000E+00 -0.00000000000E+00 -0.19060827231E+03  0.19060827231E+03  0.00000000000E+00 0. -1.
          6    1    1    2  501    0 -0.19598582825E+01  0.37385425998E+02 -0.12298535227E+03  0.21553632639E+03  0.17300000000E+03 0. -1.
         -6    1    1    2    0  502  0.19598582825E+01 -0.37385425998E+02  0.34556449451E+03  0.38825936046E+03  0.17300000000E+03 0. -1.
<mgrwt>
<rscale>  2 0.17700427E+03</rscale>
<asrwt>0</asrwt>
<pdfrwt beam="1">  1       21 0.63567294E-01 0.17700427E+03</pdfrwt>
<pdfrwt beam="2">  1       21 0.29324350E-01 0.17700427E+03</pdfrwt>
<totfact> 0.25710091E+04</totfact>
</mgrwt>
</event>
<event>
 4    1  0.4053645E-001  0.2251790E+03  0.7546771E-02  0.1130080E+00
         21   -1    0    0  503  502  0.00000000000E+00  0.00000000000E+00  0.27181430397E+03  0.27181430397E+03  0.00000000000E+00 0. -1.
         21   -1    0    0  501  503 -0.00000000000E+00 -0.00000000000E+00 -0.18654767696E+03  0.18654767696E+03  0.00000000000E+00 0. -1.
          6    1    1    2  501    0  0.14361618443E+03 -0.12287406473E+02  0.43507750831E+02  0.22934365736E+03  0.17300000000E+03 0. -1.
         -6    1    1    2    0  502 -0.14361618443E+03  0.12287406473E+02  0.41758876177E+02  0.22901832356E+03  0.17300000000E+03 0. -1.
<mgrwt>
<rscale>  2 0.22517901E+03</rscale>
<asrwt>0</asrwt>
<pdfrwt beam="1">  1       21 0.41817585E-01 0.22517901E+03</pdfrwt>
<pdfrwt beam="2">  1       21 0.28699642E-01 0.22517901E+03</pdfrwt>
<totfact> 0.63025907E+04</totfact>
</mgrwt>
</event>
<event>
 4    1  0.4053645E-001  0.2471240E+03  0.7546771E-02  0.1115136E+00
         21   -1    0    0  501  502  0.00000000000E+00  0.00000000000E+00  0.66742559158E+02  0.66742559158E+02  0.00000000000E+00 0. -1.
         21   -1    0    0  502  503 -0.00000000000E+00 -0.00000000000E+00 -0.91517164427E+03  0.91517164427E+03  0.00000000000E+00 0. -1.
          6    1    1    2  501    0 -0.16558820213E+03  0.61006848246E+02 -0.43068501609E+03  0.49654795469E+03  0.17300000000E+03 0.  1.
         -6    1    1    2    0  503  0.16558820213E+03 -0.61006848246E+02 -0.41774406902E+03  0.48536624874E+03  0.17300000000E+03 0.  1.
<mgrwt>
<rscale>  2 0.24712403E+03</rscale>
<asrwt>0</asrwt>
<pdfrwt beam="1">  1       21 0.10268087E-01 0.24712403E+03</pdfrwt>
<pdfrwt beam="2">  1       21 0.14079563E+00 0.24712403E+03</pdfrwt>
<totfact> 0.26464103E+04</totfact>
</mgrwt>
</event>
<event>
 4    1  0.4053645E-001  0.1848046E+03  0.7546771E-02  0.1163233E+00
         21   -1    0    0  503  502  0.00000000000E+00  0.00000000000E+00  0.42177803607E+03  0.42177803607E+03  0.00000000000E+00 0. -1.
         21   -1    0    0  501  503 -0.00000000000E+00 -0.00000000000E+00 -0.10653289826E+03  0.10653289826E+03  0.00000000000E+00 0. -1.
          6    1    1    2  501    0  0.57681287451E+02 -0.29943327726E+02  0.28234193221E+02  0.18694893277E+03  0.17300000000E+03 0. -1.
         -6    1    1    2    0  502 -0.57681287451E+02  0.29943327726E+02  0.28701094458E+03  0.34136200156E+03  0.17300000000E+03 0. -1.
<mgrwt>
<rscale>  2 0.18480458E+03</rscale>
<asrwt>0</asrwt>
<pdfrwt beam="1">  1       21 0.64888928E-01 0.18480458E+03</pdfrwt>
<pdfrwt beam="2">  1       21 0.16389677E-01 0.18480458E+03</pdfrwt>
<totfact> 0.73231225E+04</totfact>
</mgrwt>
</event>
<event>
 4    1  0.4053645E-001  0.2254731E+03  0.7546771E-02  0.1129867E+00
         21   -1    0    0  501  502  0.00000000000E+00  0.00000000000E+00  0.40316492990E+03  0.40316492990E+03  0.00000000000E+00 0.  1.
         21   -1    0    0  502  503 -0.00000000000E+00 -0.00000000000E+00 -0.14258162830E+03  0.14258162830E+03  0.00000000000E+00 0. -1.
          6    1    1    2  501    0 -0.14388225716E+03  0.14387332827E+02  0.22307326130E+03  0.31717468243E+03  0.17300000000E+03 0.  1.
         -6    1    1    2    0  503  0.14388225716E+03 -0.14387332827E+02  0.37510040303E+02  0.22857187577E+03  0.17300000000E+03 0. -1.
<mgrwt>
<rscale>  2 0.22547306E+03</rscale>
<asrwt>0</asrwt>
<pdfrwt beam="1">  1       21 0.62025373E-01 0.22547306E+03</pdfrwt>
<pdfrwt beam="2">  1       21 0.21935635E-01 0.22547306E+03</pdfrwt>
<totfact> 0.46091232E+04</totfact>
</mgrwt>
</event>
<event>
 4    1  0.4053645E-001  0.1898458E+03  0.7546771E-02  0.1158600E+00
         21   -1    0    0  501  502  0.00000000000E+00  0.00000000000E+00  0.65229620909E+02  0.65229620909E+02  0.00000000000E+00 0. -1.
         21   -1    0    0  502  503 -0.00000000000E+00 -0.00000000000E+00 -0.56189488682E+03  0.56189488682E+03  0.00000000000E+00 0. -1.
          6    1    1    2  501    0  0.96392982064E+01  0.77585590417E+02 -0.20785587285E+03  0.28150577932E+03  0.17300000000E+03 0. -1.
         -6    1    1    2    0  503 -0.96392982064E+01 -0.77585590417E+02 -0.28880939306E+03  0.34561872841E+03  0.17300000000E+03 0. -1.
<mgrwt>
<rscale>  2 0.18984583E+03</rscale>
<asrwt>0</asrwt>
<pdfrwt beam="1">  1       21 0.10035327E-01 0.18984583E+03</pdfrwt>
<pdfrwt beam="2">  1       21 0.86445365E-01 0.18984583E+03</pdfrwt>
<totfact> 0.93074250E+04</totfact>
</mgrwt>
</event>
<event>
 4    1  0.4053645E-001  0.1861742E+03  0.7546771E-02  0.1161958E+00
         21   -1    0    0  503  502  0.00000000000E+00  0.00000000000E+00  0.75941004544E+02  0.75941004544E+02  0.00000000000E+00 0.  1.
         21   -1    0    0  501  503 -0.00000000000E+00 -0.00000000000E+00 -0.66876292963E+03  0.66876292963E+03  0.00000000000E+00 0. -1.
          6    1    1    2  501    0  0.14383869855E+02 -0.67267522370E+02 -0.50622708480E+03  0.53937619216E+03  0.17300000000E+03 0. -1.
         -6    1    1    2    0  502 -0.14383869855E+02  0.67267522370E+02 -0.86594840283E+02  0.20532774202E+03  0.17300000000E+03 0.  1.
<mgrwt>
<rscale>  2 0.18617415E+03</rscale>
<asrwt>0</asrwt>
<pdfrwt beam="1">  1       21 0.11683231E-01 0.18617415E+03</pdfrwt>
<pdfrwt beam="2">  1       21 0.10288661E+00 0.18617415E+03</pdfrwt>
<totfact> 0.47374302E+04</totfact>
</mgrwt>
</event>
<event>
 4    1  0.4053645E-001  0.2526447E+03  0.7546771E-02  0.1111645E+00
         21   -1    0    0  503  502  0.00000000000E+00  0.00000000000E+00  0.31339066552E+03  0.31339066552E+03  0.00000000000E+00 0. -1.
         21   -1    0    0  501  503 -0.00000000000E+00 -0.00000000000E+00 -0.20408557451E+03  0.20408557451E+03  0.00000000000E+00 0.  1.
          6    1    1    2  501    0  0.13772891127E+03  0.12219293333E+03  0.43025879917E+02  0.25628225124E+03  0.17300000000E+03 0.  1.
         -6    1    1    2    0  502 -0.13772891127E+03 -0.12219293333E+03  0.66279211102E+02  0.26119398879E+03  0.17300000000E+03 0. -1.
<mgrwt>
<rscale>  2 0.25264474E+03</rscale>
<asrwt>0</asrwt>
<pdfrwt beam="1">  1       21 0.48213949E-01 0.25264474E+03</pdfrwt>
<pdfrwt beam="2">  1       21 0.31397781E-01 0.25264474E+03</pdfrwt>
<totfact> 0.38954520E+04</totfact>
</mgrwt>
</event>
<event>
 4    1  0.4053645E-001  0.1925960E+03  0.7546771E-02  0.1156141E+00
         21   -1    0    0  501  502  0.00000000000E+00  0.00000000000E+00  0.42123553939E+03  0.42123553939E+03  0.00000000000E+00 0.  1.
         21   -1    0    0  502  503 -0.00000000000E+00 -0.00000000000E+00 -0.98407245429E+02  0.98407245429E+02  0.00000000000E+00 0.  1.
          6    1    1    2  501    0  0.84636145783E+02  0.96778889617E+00  0.24567250441E+03  0.31216693164E+03  0.17300000000E+03 0.  1.
         -6    1    1    2    0  503 -0.84636145783E+02 -0.96778889617E+00  0.77155789545E+02  0.20747585317E+03  0.17300000000E+03 0.  1.
<mgrwt>
<rscale>  2 0.19259599E+03</rscale>
<asrwt>0</asrwt>
<pdfrwt beam="1">  1       21 0.64805467E-01 0.19259599E+03</pdfrwt>
<pdfrwt beam="2">  1       21 0.15139576E-01 0.19259599E+03</pdfrwt>
<totfact> 0.84624582E+04</totfact>
</mgrwt>
</event>
<event>
 4    1  0.4053645E-001  0.1808846E+03  0.7546771E-02  0.1166950E+00
         21   -1    0    0  503  502  0.00000000000E+00  0.00000000000E+00  0.50283700699E+02  0.50283700699E+02  0.00000000000E+00 0. -1.
         21   -1    0    0  501  503 -0.00000000000E+00 -0.00000000000E+00 -0.68323447865E+03  0.68323447865E+03  0.00000000000E+00 0. -1.
          6    1    1    2  501    0  0.30452116250E+02 -0.43161485401E+02 -0.39651694997E+03  0.43582672798E+03  0.17300000000E+03 0. -1.
         -6    1    1    2    0  502 -0.30452116250E+02  0.43161485401E+02 -0.23643382798E+03  0.29769145137E+03  0.17300000000E+03 0. -1.
<mgrwt>
<rscale>  2 0.18088462E+03</rscale>
<asrwt>0</asrwt>
<pdfrwt beam="1">  1       21 0.77359547E-02 0.18088462E+03</pdfrwt>
<pdfrwt beam="2">  1       21 0.10511299E+00 0.18088462E+03</pdfrwt>
<totfact> 0.93169516E+04</totfact>
</mgrwt>
</event>
<event>
 4    1  0.4053645E-001  0.1800428E+03  0.7546771E-02  0.1167762E+00
         21   -1    0    0  501  502  0.00000000000E+00  0.00000000000E+00  0.75372915741E+02  0.75372915741E+02  0.00000000000E+00 0. -1.
         21   -1    0    0  502  503 -0.00000000000E+00 -0.00000000000E+00 -0.57927029699E+03  0.57927029699E+03  0.00000000000E+00 0. -1.
          6    1    1    2  501    0  0.24365254717E+02  0.43505706731E+02 -0.85828243392E+02  0.19945400352E+03  0.17300000000E+03 0. -1.
         -6    1    1    2    0  503 -0.24365254717E+02 -0.43505706731E+02 -0.41806913785E+03  0.45518920921E+03  0.17300000000E+03 0. -1.
<mgrwt>
<rscale>  2 0.18004281E+03</rscale>
<asrwt>0</asrwt>
<pdfrwt beam="1">  1       21 0.11595833E-01 0.18004281E+03</pdfrwt>
<pdfrwt beam="2">  1       21 0.89118509E-01 0.18004281E+03</pdfrwt>
<totfact> 0.67434120E+04</totfact>
</mgrwt>
</event>
<event>
 4    1  0.4053645E-001  0.1906213E+03  0.7546771E-02  0.1157902E+00
         21   -1    0    0  501  502  0.00000000000E+00  0.00000000000E+00  0.33493763138E+02  0.33493763138E+02  0.00000000000E+00 0. -1.
         21   -1    0    0  502  503 -0.00000000000E+00 -0.00000000000E+00 -0.11591804369E+04  0.11591804369E+04  0.00000000000E+00 0. -1.
          6    1    1    2  501    0  0.15176720048E+02 -0.78594752470E+02 -0.41185846379E+03  0.45383241637E+03  0.17300000000E+03 0. -1.
         -6    1    1    2    0  503 -0.15176720048E+02  0.78594752470E+02 -0.71382820992E+03  0.73884178362E+03  0.17300000000E+03 0. -1.
<mgrwt>
<rscale>  2 0.19062127E+03</rscale>
<asrwt>0</asrwt>
<pdfrwt beam="1">  1       21 0.51528881E-02 0.19062127E+03</pdfrwt>
<pdfrwt beam="2">  1       21 0.17833540E+00 0.19062127E+03</pdfrwt>
<totfact> 0.47799647E+04</totfact>
</mgrwt>
</event>
<event>
 4    1  0.4053645E-001  0.2668990E+03  0.7546771E-02  0.1103068E+00
         21   -1    0    0  501  502  0.00000000000E+00  0.00000000000E+00  0.29909100049E+03  0.29909100049E+03  0.00000000000E+00 0. -1.
         21   -1    0    0  502  503 -0.00000000000E+00 -0.00000000000E+00 -0.26931065821E+03  0.26931065821E+03  0.00000000000E+00 0. -1.
          6    1    1    2  501    0  0.20078330528E+03 -0.31498197244E+02  0.11152845503E+03  0.28926401157E+03  0.17300000000E+03 0. -1.
         -6    1    1    2    0  503 -0.20078330528E+03  0.31498197244E+02 -0.81748112746E+02  0.27913764713E+03  0.17300000000E+03 0. -1.
<mgrwt>
<rscale>  2 0.26689899E+03</rscale>
<asrwt>0</asrwt>
<pdfrwt beam="1">  1       21 0.46014000E-01 0.26689899E+03</pdfrwt>
<pdfrwt beam="2">  1       21 0.41432409E-01 0.26689899E+03</pdfrwt>
<totfact> 0.24456308E+04</totfact>
</mgrwt>
</event>
<event>
 4    1  0.4053645E-001  0.1826231E+03  0.7546771E-02  0.1165288E+00
         21   -1    0    0  501  502  0.00000000000E+00  0.00000000000E+00  0.24352300268E+03  0.24352300268E+03  0.00000000000E+00 0. -1.
         21   -1    0    0  502  503 -0.00000000000E+00 -0.00000000000E+00 -0.16870752523E+03  0.16870752523E+03  0.00000000000E+00 0. -1.
          6    1    1    2  501    0 -0.41109898727E+02  0.41619500320E+02  0.12683001424E+03  0.22234446045E+03  0.17300000000E+03 0. -1.
         -6    1    1    2    0  503  0.41109898727E+02 -0.41619500320E+02 -0.52014536779E+02  0.18988606746E+03  0.17300000000E+03 0. -1.
<mgrwt>
<rscale>  2 0.18262313E+03</rscale>
<asrwt>0</asrwt>
<pdfrwt beam="1">  1       21 0.37465078E-01 0.18262313E+03</pdfrwt>
<pdfrwt beam="2">  1       21 0.25955004E-01 0.18262313E+03</pdfrwt>
<totfact> 0.97240039E+04</totfact>
</mgrwt>
</event>
<event>
 4    1  0.4053645E-001  0.2864641E+03  0.7546771E-02  0.1092210E+00
         21   -1    0    0  503  502  0.00000000000E+00  0.00000000000E+00  0.20837873062E+03  0.20837873062E+03  0.00000000000E+00 0. -1.
         21   -1    0    0  501  503 -0.00000000000E+00 -0.00000000000E+00 -0.40855883920E+03  0.40855883920E+03  0.00000000000E+00 0. -1.
          6    1    1    2  501    0  0.81328761235E+02 -0.21335014946E+03 -0.15869860965E+03  0.32748572852E+03  0.17300000000E+03 0. -1.
         -6    1    1    2    0  502 -0.81328761235E+02  0.21335014946E+03 -0.41481498935E+02  0.28945184130E+03  0.17300000000E+03 0. -1.
<mgrwt>
<rscale>  2 0.28646405E+03</rscale>
<asrwt>0</asrwt>
<pdfrwt beam="1">  1       21 0.32058266E-01 0.28646405E+03</pdfrwt>
<pdfrwt beam="2">  1       21 0.62855206E-01 0.28646405E+03</pdfrwt>
<totfact> 0.20926533E+04</totfact>
</mgrwt>
</event>
<event>
 4    1  0.4053645E-001  0.1976706E+03  0.7546771E-02  0.1151719E+00
         21   -1    0    0  503  502  0.00000000000E+00  0.00000000000E+00  0.75594916782E+02  0.75594916782E+02  0.00000000000E+00 0. -1.
         21   -1    0    0  501  503 -0.00000000000E+00 -0.00000000000E+00 -0.59724939371E+03  0.59724939371E+03  0.00000000000E+00 0. -1.
          6    1    1    2  501    0 -0.25848595486E+02  0.92067915273E+02 -0.38423620151E+03  0.43210080938E+03  0.17300000000E+03 0. -1.
         -6    1    1    2    0  502  0.25848595486E+02 -0.92067915273E+02 -0.13741827542E+03  0.24074350112E+03  0.17300000000E+03 0. -1.
<mgrwt>
<rscale>  2 0.19767056E+03</rscale>
<asrwt>0</asrwt>
<pdfrwt beam="1">  1       21 0.11629988E-01 0.19767056E+03</pdfrwt>
<pdfrwt beam="2">  1       21 0.91884518E-01 0.19767056E+03</pdfrwt>
<totfact> 0.61989966E+04</totfact>
</mgrwt>
</event>
<event>
 4    1  0.4053645E-001  0.1997748E+03  0.7546771E-02  0.1149929E+00
         21   -1    0    0  503  502  0.00000000000E+00  0.00000000000E+00  0.13564385180E+03  0.13564385180E+03  0.00000000000E+00 0. -1.
         21   -1    0    0  501  503 -0.00000000000E+00 -0.00000000000E+00 -0.34789034044E+03  0.34789034044E+03  0.00000000000E+00 0. -1.
          6    1    1    2  501    0 -0.54370167171E+02 -0.83814411267E+02 -0.20107833015E+03  0.28344746509E+03  0.17300000000E+03 0. -1.
         -6    1    1    2    0  502  0.54370167171E+02  0.83814411267E+02 -0.11168158498E+02  0.20008672714E+03  0.17300000000E+03 0. -1.
<mgrwt>
<rscale>  2 0.19977480E+03</rscale>
<asrwt>0</asrwt>
<pdfrwt beam="1">  1       21 0.20868285E-01 0.19977480E+03</pdfrwt>
<pdfrwt beam="2">  1       21 0.53521591E-01 0.19977480E+03</pdfrwt>
<totfact> 0.70207752E+04</totfact>
</mgrwt>
</event>
<event>
 4    1  0.4053645E-001  0.2007949E+03  0.7546771E-02  0.1149070E+00
         21   -1    0    0  501  502  0.00000000000E+00  0.00000000000E+00  0.12135630109E+03  0.12135630109E+03  0.00000000000E+00 0. -1.
         21   -1    0    0  502  503 -0.00000000000E+00 -0.00000000000E+00 -0.40638611367E+03  0.40638611367E+03  0.00000000000E+00 0. -1.
          6    1    1    2  501    0 -0.69522006471E+02  0.74540424239E+02 -0.29798566340E+02  0.20299393780E+03  0.17300000000E+03 0. -1.
         -6    1    1    2    0  503  0.69522006471E+02 -0.74540424239E+02 -0.25523124624E+03  0.32474847696E+03  0.17300000000E+03 0. -1.
<mgrwt>
<rscale>  2 0.20079488E+03</rscale>
<asrwt>0</asrwt>
<pdfrwt beam="1">  1       21 0.18670200E-01 0.20079488E+03</pdfrwt>
<pdfrwt beam="2">  1       21 0.62520941E-01 0.20079488E+03</pdfrwt>
<totfact> 0.61982289E+04</totfact>
</mgrwt>
</event>
<event>
 4    1  0.4053645E-001  0.1846961E+03  0.7546771E-02  0.1163334E+00
         21   -1    0    0  501  502  0.00000000000E+00  0.00000000000E+00  0.48161623815E+03  0.48161623815E+03  0.00000000000E+00 0. -1.
         21   -1    0    0  502  503 -0.00000000000E+00 -0.00000000000E+00 -0.88490407351E+02  0.88490407351E+02  0.00000000000E+00 0. -1.
          6    1    1    2  501    0  0.60025761130E+02 -0.24094642626E+02  0.32390863497E+03  0.37286652788E+03  0.17300000000E+03 0. -1.
         -6    1    1    2    0  503 -0.60025761130E+02  0.24094642626E+02  0.69217195831E+02  0.19724011763E+03  0.17300000000E+03 0. -1.
<mgrwt>
<rscale>  2 0.18469608E+03</rscale>
<asrwt>0</asrwt>
<pdfrwt beam="1">  1       21 0.74094804E-01 0.18469608E+03</pdfrwt>
<pdfrwt beam="2">  1       21 0.13613909E-01 0.18469608E+03</pdfrwt>
<totfact> 0.76661487E+04</totfact>
</mgrwt>
</event>
<event>
 4    1  0.4053645E-001  0.2487293E+03  0.7546771E-02  0.1114111E+00
         21   -1    0    0  503  502  0.00000000000E+00  0.00000000000E+00  0.19528814901E+03  0.19528814901E+03  0.00000000000E+00 0.  1.
         21   -1    0    0  501  503 -0.00000000000E+00 -0.00000000000E+00 -0.34142830221E+03  0.34142830221E+03  0.00000000000E+00 0.  1.
          6    1    1    2  501    0 -0.22412183746E+02  0.17729903956E+03 -0.14515241986E+03  0.28798520865E+03  0.17300000000E+03 0.  1.
         -6    1    1    2    0  502  0.22412183746E+02 -0.17729903956E+03 -0.98773333027E+00  0.24873124256E+03  0.17300000000E+03 0.  1.
<mgrwt>
<rscale>  2 0.24872928E+03</rscale>
<asrwt>0</asrwt>
<pdfrwt beam="1">  1       21 0.30044331E-01 0.24872928E+03</pdfrwt>
<pdfrwt beam="2">  1       21 0.52527431E-01 0.24872928E+03</pdfrwt>
<totfact> 0.35540773E+04</totfact>
</mgrwt>
</event>
<event>
 4    1  0.4053645E-001  0.2502746E+03  0.7546771E-02  0.1113131E+00
         21   -1    0    0  501  502  0.00000000000E+00  0.00000000000E+00  0.79105174234E+02  0.79105174234E+02  0.00000000000E+00 0. -1.
         21   -1    0    0  502  503 -0.00000000000E+00 -0.00000000000E+00 -0.80288894289E+03  0.80288894289E+03  0.00000000000E+00 0.  1.
          6    1    1    2  501    0 -0.17486762356E+03  0.46148750248E+02 -0.31012187812E+03  0.39851345298E+03  0.17300000000E+03 0.  1.
         -6    1    1    2    0  503  0.17486762356E+03 -0.46148750248E+02 -0.41366189053E+03  0.48348066414E+03  0.17300000000E+03 0. -1.
<mgrwt>
<rscale>  2 0.25027463E+03</rscale>
<asrwt>0</asrwt>
<pdfrwt beam="1">  1       21 0.12170027E-01 0.25027463E+03</pdfrwt>
<pdfrwt beam="2">  1       21 0.12352137E+00 0.25027463E+03</pdfrwt>
<totfact> 0.27243757E+04</totfact>
</mgrwt>
</event>
<event>
 4    1  0.4053645E-001  0.1987548E+03  0.7546771E-02  0.1150794E+00
         21   -1    0    0  503  502  0.00000000000E+00  0.00000000000E+00  0.70709885742E+03  0.70709885742E+03  0.00000000000E+00 0.  1.
         21   -1    0    0  501  503 -0.00000000000E+00 -0.00000000000E+00 -0.56529089886E+02  0.56529089886E+02  0.00000000000E+00 0. -1.
          6    1    1    2  501    0  0.63991108903E+02  0.74024415051E+02  0.28396285469E+03  0.34660983669E+03  0.17300000000E+03 0. -1.
         -6    1    1    2    0  502 -0.63991108903E+02 -0.74024415051E+02  0.36660691284E+03  0.41701811062E+03  0.17300000000E+03 0.  1.
<mgrwt>
<rscale>  2 0.19875481E+03</rscale>
<asrwt>0</asrwt>
<pdfrwt beam="1">  1       21 0.10878443E+00 0.19875481E+03</pdfrwt>
<pdfrwt beam="2">  1       21 0.86967836E-02 0.19875481E+03</pdfrwt>
<totfact> 0.69384737E+04</totfact>
</mgrwt>
</event>
<event>
 4    1  0.4053645E-001  0.2591609E+03  0.7546771E-02  0.1107648E+00
         21   -1    0    0  501  502  0.00000000000E+00  0.00000000000E+00  0.11264438216E+04  0.11264438216E+04  0.00000000000E+00 0.  1.
         21   -1    0    0  502  503 -0.00000000000E+00 -0.00000000000E+00 -0.98746460566E+02  0.98746460566E+02  0.00000000000E+00 0. -1.
          6    1    1    2  501    0 -0.14210136294E+03  0.13054713998E+03  0.89943322538E+03  0.93602589708E+03  0.17300000000E+03 0.  1.
         -6    1    1    2    0  503  0.14210136294E+03 -0.13054713998E+03  0.12826413566E+03  0.28916438509E+03  0.17300000000E+03 0. -1.
<mgrwt>
<rscale>  2 0.25916086E+03</rscale>
<asrwt>0</asrwt>
<pdfrwt beam="1">  1       21 0.17329904E+00 0.25916086E+03</pdfrwt>
<pdfrwt beam="2">  1       21 0.15191764E-01 0.25916086E+03</pdfrwt>
<totfact> 0.73881141E+03</totfact>
</mgrwt>
</event>
<event>
 4    1  0.4053645E-001  0.1820625E+03  0.7546771E-02  0.1165822E+00
         21   -1    0    0  503  502  0.00000000000E+00  0.00000000000E+00  0.26851205817E+04  0.26851205817E+04  0.00000000000E+00 0.  1.
         21   -1    0    0  501  503 -0.00000000000E+00 -0.00000000000E+00 -0.12769909047E+02  0.12769909047E+02  0.00000000000E+00 0.  1.
          6    1    1    2  501    0 -0.43860076224E+02  0.35972877641E+02  0.10899969395E+04  0.11050973181E+04  0.17300000000E+03 0. -1.
         -6    1    1    2    0  502  0.43860076224E+02 -0.35972877641E+02  0.15823537331E+04  0.15927931727E+04  0.17300000000E+03 0. -1.
<mgrwt>
<rscale>  2 0.18206250E+03</rscale>
<asrwt>0</asrwt>
<pdfrwt beam="1">  1       21 0.41309503E+00 0.18206250E+03</pdfrwt>
<pdfrwt beam="2">  1       21 0.19646035E-02 0.18206250E+03</pdfrwt>
<totfact> 0.92713049E+03</totfact>
</mgrwt>
</event>
<event>
 4    1  0.4053645E-001  0.1898103E+03  0.7546771E-02  0.1158633E+00
         21   -1    0    0  503  502  0.00000000000E+00  0.00000000000E+00  0.12168988801E+03  0.12168988801E+03  0.00000000000E+00 0.  1.
         21   -1    0    0  501  503 -0.00000000000E+00 -0.00000000000E+00 -0.29854404345E+03  0.29854404345E+03  0.00000000000E+00 0.  1.
          6    1    1    2  501    0  0.77865451921E+02  0.59927939513E+01 -0.69274617791E+02  0.20205671197E+03  0.17300000000E+03 0.  1.
         -6    1    1    2    0  502 -0.77865451921E+02 -0.59927939513E+01 -0.10757953765E+03  0.21817721949E+03  0.17300000000E+03 0.  1.
<mgrwt>
<rscale>  2 0.18981028E+03</rscale>
<asrwt>0</asrwt>
<pdfrwt beam="1">  1       21 0.18721521E-01 0.18981028E+03</pdfrwt>
<pdfrwt beam="2">  1       21 0.45929853E-01 0.18981028E+03</pdfrwt>
<totfact> 0.11872791E+05</totfact>
</mgrwt>
</event>
<event>
 4    1  0.4053645E-001  0.2327161E+03  0.7546771E-02  0.1124743E+00
         21   -1    0    0  503  502  0.00000000000E+00  0.00000000000E+00  0.90192759325E+02  0.90192759325E+02  0.00000000000E+00 0.  1.
         21   -1    0    0  501  503 -0.00000000000E+00 -0.00000000000E+00 -0.63812915319E+03  0.63812915319E+03  0.00000000000E+00 0. -1.
          6    1    1    2  501    0 -0.14315241821E+03 -0.61116056333E+02 -0.36245017805E+03  0.43072835842E+03  0.17300000000E+03 0. -1.
         -6    1    1    2    0  502  0.14315241821E+03  0.61116056333E+02 -0.18548621581E+03  0.29759355409E+03  0.17300000000E+03 0. -1.
<mgrwt>
<rscale>  2 0.23271611E+03</rscale>
<asrwt>0</asrwt>
<pdfrwt beam="1">  1       21 0.13875810E-01 0.23271611E+03</pdfrwt>
<pdfrwt beam="2">  1       21 0.98173712E-01 0.23271611E+03</pdfrwt>
<totfact> 0.37957849E+04</totfact>
</mgrwt>
</event>
<event>
 4    1  0.4053645E-001  0.2333652E+03  0.7546771E-02  0.1124293E+00
         21   -1    0    0  501  502  0.00000000000E+00  0.00000000000E+00  0.10536820992E+03  0.10536820992E+03  0.00000000000E+00 0. -1.
         21   -1    0    0  502  503 -0.00000000000E+00 -0.00000000000E+00 -0.61276311235E+03  0.61276311235E+03  0.00000000000E+00 0. -1.
          6    1    1    2  501    0  0.14973616089E+03  0.45928173003E+02 -0.39575745083E+03  0.45943799891E+03  0.17300000000E+03 0. -1.
         -6    1    1    2    0  503 -0.14973616089E+03 -0.45928173003E+02 -0.11163745160E+03  0.25869332336E+03  0.17300000000E+03 0. -1.
<mgrwt>
<rscale>  2 0.23336520E+03</rscale>
<asrwt>0</asrwt>
<pdfrwt beam="1">  1       21 0.16210494E-01 0.23336520E+03</pdfrwt>
<pdfrwt beam="2">  1       21 0.94271248E-01 0.23336520E+03</pdfrwt>
<totfact> 0.31421219E+04</totfact>
</mgrwt>
</event>
<event>
 4    1  0.4053645E-001  0.2056558E+03  0.7546771E-02  0.1145053E+00
         21   -1    0    0  503  502  0.00000000000E+00  0.00000000000E+00  0.47324232369E+03  0.47324232369E+03  0.00000000000E+00 0.  1.
         21   -1    0    0  501  503 -0.00000000000E+00 -0.00000000000E+00 -0.11782444852E+03  0.11782444852E+03  0.00000000000E+00 0.  1.
          6    1    1    2  501    0 -0.33504888706E+02 -0.10603175810E+03  0.32479876440E+02  0.20820483584E+03  0.17300000000E+03 0.  1.
         -6    1    1    2    0  502  0.33504888706E+02  0.10603175810E+03  0.32293799874E+03  0.38286193637E+03  0.17300000000E+03 0.  1.
<mgrwt>
<rscale>  2 0.20565581E+03</rscale>
<asrwt>0</asrwt>
<pdfrwt beam="1">  1       21 0.72806510E-01 0.20565581E+03</pdfrwt>
<pdfrwt beam="2">  1       21 0.18126838E-01 0.20565581E+03</pdfrwt>
<totfact> 0.46766110E+04</totfact>
</mgrwt>
</event>
<event>
 4    1  0.4053645E-001  0.2643965E+03  0.7546771E-02  0.1104530E+00
         21   -1    0    0  501  502  0.00000000000E+00  0.00000000000E+00  0.49479228450E+03  0.49479228450E+03  0.00000000000E+00 0.  1.
         21   -1    0    0  502  503 -0.00000000000E+00 -0.00000000000E+00 -0.16480618342E+03  0.16480618342E+03  0.00000000000E+00 0.  1.
          6    1    1    2  501    0  0.13635019437E+03  0.14623655119E+03  0.40393836425E+02  0.26746432740E+03  0.17300000000E+03 0.  1.
         -6    1    1    2    0  503 -0.13635019437E+03 -0.14623655119E+03  0.28959226466E+03  0.39213414052E+03  0.17300000000E+03 0.  1.
<mgrwt>
<rscale>  2 0.26439649E+03</rscale>
<asrwt>0</asrwt>
<pdfrwt beam="1">  1       21 0.76121889E-01 0.26439649E+03</pdfrwt>
<pdfrwt beam="2">  1       21 0.25354798E-01 0.26439649E+03</pdfrwt>
<totfact> 0.21838108E+04</totfact>
</mgrwt>
</event>
<event>
 4    1  0.4053645E-001  0.2942926E+03  0.7546771E-02  0.1088129E+00
         21   -1    0    0  503  502  0.00000000000E+00  0.00000000000E+00  0.11301617852E+03  0.11301617852E+03  0.00000000000E+00 0. -1.
         21   -1    0    0  501  503 -0.00000000000E+00 -0.00000000000E+00 -0.83570830392E+03  0.83570830392E+03  0.00000000000E+00 0. -1.
          6    1    1    2  501    0 -0.91567828646E+02  0.21976004230E+03 -0.49801882808E+03  0.57847290045E+03  0.17300000000E+03 0. -1.
         -6    1    1    2    0  502  0.91567828646E+02 -0.21976004230E+03 -0.22467329733E+03  0.37025158199E+03  0.17300000000E+03 0. -1.
<mgrwt>
<rscale>  2 0.29429262E+03</rscale>
<asrwt>0</asrwt>
<pdfrwt beam="1">  1       21 0.17387105E-01 0.29429262E+03</pdfrwt>
<pdfrwt beam="2">  1       21 0.12857051E+00 0.29429262E+03</pdfrwt>
<totfact> 0.12539650E+04</totfact>
</mgrwt>
</event>
<event>
 4    1  0.4053645E-001  0.2054853E+03  0.7546771E-02  0.1145192E+00
         21   -1    0    0  501  502  0.00000000000E+00  0.00000000000E+00  0.11109872442E+03  0.11109872442E+03  0.00000000000E+00 0. -1.
         21   -1    0    0  502  503 -0.00000000000E+00 -0.00000000000E+00 -0.38842236406E+03  0.38842236406E+03  0.00000000000E+00 0.  1.
          6    1    1    2  501    0  0.91172546826E+02  0.63109295276E+02 -0.17530794127E+03  0.27010570286E+03  0.17300000000E+03 0. -1.
         -6    1    1    2    0  503 -0.91172546826E+02 -0.63109295276E+02 -0.10201569837E+03  0.22941538562E+03  0.17300000000E+03 0. -1.
<mgrwt>
<rscale>  2 0.20548532E+03</rscale>
<asrwt>0</asrwt>
<pdfrwt beam="1">  1       21 0.17092111E-01 0.20548532E+03</pdfrwt>
<pdfrwt beam="2">  1       21 0.59757287E-01 0.20548532E+03</pdfrwt>
<totfact> 0.80289152E+04</totfact>
</mgrwt>
</event>
<event>
 4    1  0.4053645E-001  0.2227509E+03  0.7546771E-02  0.1131849E+00
         21   -1    0    0  501  502  0.00000000000E+00  0.00000000000E+00  0.12669158618E+04  0.12669158618E+04  0.00000000000E+00 0.  1.
         21   -1    0    0  502  503 -0.00000000000E+00 -0.00000000000E+00 -0.40750713172E+02  0.40750713172E+02  0.00000000000E+00 0.  1.
          6    1    1    2  501    0 -0.84855826700E+02  0.11175168395E+03  0.74208539956E+03  0.77479590243E+03  0.17300000000E+03 0.  1.
         -6    1    1    2    0  503  0.84855826700E+02 -0.11175168395E+03  0.48407974904E+03  0.53287067251E+03  0.17300000000E+03 0.  1.
<mgrwt>
<rscale>  2 0.22275087E+03</rscale>
<asrwt>0</asrwt>
<pdfrwt beam="1">  1       21 0.19491010E+00 0.22275087E+03</pdfrwt>
<pdfrwt beam="2">  1       21 0.62693415E-02 0.22275087E+03</pdfrwt>
<totfact> 0.25942137E+04</totfact>
</mgrwt>
</event>
<event>
 4    1  0.4053645E-001  0.2074942E+03  0.7546771E-02  0.1143566E+00
         21   -1    0    0  503  502  0.00000000000E+00  0.00000000000E+00  0.30813885976E+03  0.30813885976E+03  0.00000000000E+00 0. -1.
         21   -1    0    0  501  503 -0.00000000000E+00 -0.00000000000E+00 -0.16402045402E+03  0.16402045402E+03  0.00000000000E+00 0.  1.
          6    1    1    2  501    0  0.12116924184E+02 -0.11392116770E+03 -0.18805815764E+02  0.20834469278E+03  0.17300000000E+03 0. -1.
         -6    1    1    2    0  502 -0.12116924184E+02  0.11392116770E+03  0.16292422151E+03  0.26381462101E+03  0.17300000000E+03 0. -1.
<mgrwt>
<rscale>  2 0.20749422E+03</rscale>
<asrwt>0</asrwt>
<pdfrwt beam="1">  1       21 0.47405979E-01 0.20749422E+03</pdfrwt>
<pdfrwt beam="2">  1       21 0.25233916E-01 0.20749422E+03</pdfrwt>
<totfact> 0.62902780E+04</totfact>
</mgrwt>
</event>
<event>
 4    1  0.4053645E-001  0.2077138E+03  0.7546771E-02  0.1143389E+00
         21   -1    0    0  501  502  0.00000000000E+00  0.00000000000E+00  0.29092086404E+03  0.29092086404E+03  0.00000000000E+00 0. -1.
         21   -1    0    0  502  503 -0.00000000000E+00 -0.00000000000E+00 -0.14890716729E+03  0.14890716729E+03  0.00000000000E+00 0.  1.
          6    1    1    2  501    0  0.85004280862E+02  0.77397026062E+02  0.84991219582E+02  0.22442935373E+03  0.17300000000E+03 0. -1.
         -6    1    1    2    0  503 -0.85004280862E+02 -0.77397026062E+02  0.57022477170E+02  0.21539867760E+03  0.17300000000E+03 0. -1.
<mgrwt>
<rscale>  2 0.20771381E+03</rscale>
<asrwt>0</asrwt>
<pdfrwt beam="1">  1       21 0.44757056E-01 0.20771381E+03</pdfrwt>
<pdfrwt beam="2">  1       21 0.22908795E-01 0.20771381E+03</pdfrwt>
<totfact> 0.85143565E+04</totfact>
</mgrwt>
</event>
<event>
 4    1  0.4053645E-001  0.2067327E+03  0.7546771E-02  0.1144180E+00
         21   -1    0    0  501  502  0.00000000000E+00  0.00000000000E+00  0.36469183298E+03  0.36469183298E+03  0.00000000000E+00 0. -1.
         21   -1    0    0  502  503 -0.00000000000E+00 -0.00000000000E+00 -0.12503238371E+03  0.12503238371E+03  0.00000000000E+00 0. -1.
          6    1    1    2  501    0  0.47314812389E+02  0.10281396946E+03  0.58506974100E+02  0.21485220456E+03  0.17300000000E+03 0. -1.
         -6    1    1    2    0  503 -0.47314812389E+02 -0.10281396946E+03  0.18115247517E+03  0.27487201212E+03  0.17300000000E+03 0. -1.
<mgrwt>
<rscale>  2 0.20673269E+03</rscale>
<asrwt>0</asrwt>
<pdfrwt beam="1">  1       21 0.56106435E-01 0.20673269E+03</pdfrwt>
<pdfrwt beam="2">  1       21 0.19235751E-01 0.20673269E+03</pdfrwt>
<totfact> 0.73765546E+04</totfact>
</mgrwt>
</event>
<event>
 4    1  0.4053645E-001  0.2816503E+03  0.7546771E-02  0.1094791E+00
         21   -1    0    0  503  502  0.00000000000E+00  0.00000000000E+00  0.34264813304E+03  0.34264813304E+03  0.00000000000E+00 0. -1.
         21   -1    0    0  501  503 -0.00000000000E+00 -0.00000000000E+00 -0.23983997039E+03  0.23983997039E+03  0.00000000000E+00 0.  1.
          6    1    1    2  501    0 -0.21702087807E+03  0.47956714183E+02 -0.28690196151E+01  0.28166494142E+03  0.17300000000E+03 0.  1.
         -6    1    1    2    0  502  0.21702087807E+03 -0.47956714183E+02  0.10567718226E+03  0.30082316201E+03  0.17300000000E+03 0. -1.
<mgrwt>
<rscale>  2 0.28165033E+03</rscale>
<asrwt>0</asrwt>
<pdfrwt beam="1">  1       21 0.52715097E-01 0.28165033E+03</pdfrwt>
<pdfrwt beam="2">  1       21 0.36898457E-01 0.28165033E+03</pdfrwt>
<totfact> 0.23119499E+04</totfact>
</mgrwt>
</event>
<event>
 4    1  0.4053645E-001  0.2210078E+03  0.7546771E-02  0.1133134E+00
         21   -1    0    0  501  502  0.00000000000E+00  0.00000000000E+00  0.13756930458E+03  0.13756930458E+03  0.00000000000E+00 0.  1.
         21   -1    0    0  502  503 -0.00000000000E+00 -0.00000000000E+00 -0.36570923263E+03  0.36570923263E+03  0.00000000000E+00 0.  1.
          6    1    1    2  501    0 -0.13751264750E+03  0.23918967529E+01 -0.71115912143E+02  0.23216787537E+03  0.17300000000E+03 0.  1.
         -6    1    1    2    0  503  0.13751264750E+03 -0.23918967529E+01 -0.15702401591E+03  0.27111066184E+03  0.17300000000E+03 0.  1.
<mgrwt>
<rscale>  2 0.22100780E+03</rscale>
<asrwt>0</asrwt>
<pdfrwt beam="1">  1       21 0.21164508E-01 0.22100780E+03</pdfrwt>
<pdfrwt beam="2">  1       21 0.56262959E-01 0.22100780E+03</pdfrwt>
<totfact> 0.60930915E+04</totfact>
</mgrwt>
</event>
<event>
 4    1  0.4053645E-001  0.2705393E+03  0.7546771E-02  0.1100971E+00
         21   -1    0    0  501  502  0.00000000000E+00  0.00000000000E+00  0.20695008094E+03  0.20695008094E+03  0.00000000000E+00 0. -1.
         21   -1    0    0  502  503 -0.00000000000E+00 -0.00000000000E+00 -0.39458794421E+03  0.39458794421E+03  0.00000000000E+00 0. -1.
          6    1    1    2  501    0  0.31249452110E+02 -0.20563556371E+03  0.30381696196E+01  0.27055635974E+03  0.17300000000E+03 0. -1.
         -6    1    1    2    0  503 -0.31249452110E+02  0.20563556371E+03 -0.19067603289E+03  0.33098166541E+03  0.17300000000E+03 0. -1.
<mgrwt>
<rscale>  2 0.27053930E+03</rscale>
<asrwt>0</asrwt>
<pdfrwt beam="1">  1       21 0.31838474E-01 0.27053930E+03</pdfrwt>
<pdfrwt beam="2">  1       21 0.60705837E-01 0.27053930E+03</pdfrwt>
<totfact> 0.23038656E+04</totfact>
</mgrwt>
</event>
<event>
 4    1  0.4053645E-001  0.2798603E+03  0.7546771E-02  0.1095765E+00
         21   -1    0    0  503  502  0.00000000000E+00  0.00000000000E+00  0.93884019692E+03  0.93884019692E+03  0.00000000000E+00 0.  1.
         21   -1    0    0  501  503 -0.00000000000E+00 -0.00000000000E+00 -0.84156268935E+02  0.84156268935E+02  0.00000000000E+00 0. -1.
          6    1    1    2  501    0 -0.17934625683E+03  0.12738810457E+03  0.47505475309E+03  0.55136088677E+03  0.17300000000E+03 0. -1.
         -6    1    1    2    0  502  0.17934625683E+03 -0.12738810457E+03  0.37962917489E+03  0.47163557908E+03  0.17300000000E+03 0.  1.
<mgrwt>
<rscale>  2 0.27986034E+03</rscale>
<asrwt>0</asrwt>
<pdfrwt beam="1">  1       21 0.14443695E+00 0.27986034E+03</pdfrwt>
<pdfrwt beam="2">  1       21 0.12947119E-01 0.27986034E+03</pdfrwt>
<totfact> 0.16049528E+04</totfact>
</mgrwt>
</event>
<event>
 4    1  0.4053645E-001  0.2533991E+03  0.7546771E-02  0.1111175E+00
         21   -1    0    0  501  502  0.00000000000E+00  0.00000000000E+00  0.49871857621E+03  0.49871857621E+03  0.00000000000E+00 0. -1.
         21   -1    0    0  502  503 -0.00000000000E+00 -0.00000000000E+00 -0.23008898596E+03  0.23008898596E+03  0.00000000000E+00 0.  1.
          6    1    1    2  501    0 -0.14090164796E+03 -0.12012002585E+03 -0.10751989773E+03  0.27526645894E+03  0.17300000000E+03 0.  1.
         -6    1    1    2    0  503  0.14090164796E+03  0.12012002585E+03  0.37614948798E+03  0.45354110323E+03  0.17300000000E+03 0. -1.
<mgrwt>
<rscale>  2 0.25339908E+03</rscale>
<asrwt>0</asrwt>
<pdfrwt beam="1">  1       21 0.76725934E-01 0.25339908E+03</pdfrwt>
<pdfrwt beam="2">  1       21 0.35398306E-01 0.25339908E+03</pdfrwt>
<totfact> 0.11203865E+04</totfact>
</mgrwt>
</event>
<event>
 4    1  0.4053645E-001  0.2637773E+03  0.7546771E-02  0.1104895E+00
         21   -1    0    0  503  502  0.00000000000E+00  0.00000000000E+00  0.86983756022E+03  0.86983756022E+03  0.00000000000E+00 0. -1.
         21   -1    0    0  501  503 -0.00000000000E+00 -0.00000000000E+00 -0.11279134349E+03  0.11279134349E+03  0.00000000000E+00 0. -1.
          6    1    1    2  501    0 -0.18533708858E+03 -0.72798694178E+02  0.11357177988E+03  0.28718815342E+03  0.17300000000E+03 0. -1.
         -6    1    1    2    0  502  0.18533708858E+03  0.72798694178E+02  0.64347443685E+03  0.69544075029E+03  0.17300000000E+03 0. -1.
<mgrwt>
<rscale>  2 0.26377734E+03</rscale>
<asrwt>0</asrwt>
<pdfrwt beam="1">  1       21 0.13382116E+00 0.26377734E+03</pdfrwt>
<pdfrwt beam="2">  1       21 0.17352515E-01 0.26377734E+03</pdfrwt>
<totfact> 0.11536918E+04</totfact>
</mgrwt>
</event>
<event>
 4    1  0.4053645E-001  0.1748348E+03  0.7546771E-02  0.1172898E+00
         21   -1    0    0  501  502  0.00000000000E+00  0.00000000000E+00  0.67752782014E+03  0.67752782014E+03  0.00000000000E+00 0. -1.
         21   -1    0    0  502  503 -0.00000000000E+00 -0.00000000000E+00 -0.55077296479E+02  0.55077296479E+02  0.00000000000E+00 0. -1.
          6    1    1    2  501    0  0.19164726647E+02  0.16460177187E+02  0.46700661407E+03  0.49866060779E+03  0.17300000000E+03 0. -1.
         -6    1    1    2    0  503 -0.19164726647E+02 -0.16460177187E+02  0.15544390959E+03  0.23394450883E+03  0.17300000000E+03 0. -1.
<mgrwt>
<rscale>  2 0.17483485E+03</rscale>
<asrwt>0</asrwt>
<pdfrwt beam="1">  1       21 0.10423504E+00 0.17483485E+03</pdfrwt>
<pdfrwt beam="2">  1       21 0.84734307E-02 0.17483485E+03</pdfrwt>
<totfact> 0.81358922E+04</totfact>
</mgrwt>
</event>
<event>
 4    1  0.4053645E-001  0.3361178E+03  0.7546771E-02  0.1068462E+00
         21   -1    0    0  503  502  0.00000000000E+00  0.00000000000E+00  0.32267540083E+03  0.32267540083E+03  0.00000000000E+00 0. -1.
         21   -1    0    0  501  503 -0.00000000000E+00 -0.00000000000E+00 -0.35179308228E+03  0.35179308228E+03  0.00000000000E+00 0. -1.
          6    1    1    2  501    0 -0.26556538255E+03  0.11189819416E+03 -0.37814022869E+02  0.33823819800E+03  0.17300000000E+03 0. -1.
         -6    1    1    2    0  502  0.26556538255E+03 -0.11189819416E+03  0.86963414162E+01  0.33623028510E+03  0.17300000000E+03 0. -1.
<mgrwt>
<rscale>  2 0.33611780E+03</rscale>
<asrwt>0</asrwt>
<pdfrwt beam="1">  1       21 0.49642369E-01 0.33611780E+03</pdfrwt>
<pdfrwt beam="2">  1       21 0.54122013E-01 0.33611780E+03</pdfrwt>
<totfact> 0.11597027E+04</totfact>
</mgrwt>
</event>
<event>
 4    1  0.4053645E-001  0.1989472E+03  0.7546771E-02  0.1150630E+00
         21   -1    0    0  503  502  0.00000000000E+00  0.00000000000E+00  0.13614898599E+03  0.13614898599E+03  0.00000000000E+00 0.  1.
         21   -1    0    0  501  503 -0.00000000000E+00 -0.00000000000E+00 -0.40838709485E+03  0.40838709485E+03  0.00000000000E+00 0.  1.
          6    1    1    2  501    0  0.37152215954E+02 -0.90943385414E+02 -0.28227115921E+03  0.34533605925E+03  0.17300000000E+03 0.  1.
         -6    1    1    2    0  502 -0.37152215954E+02  0.90943385414E+02  0.10033050343E+02  0.19920002159E+03  0.17300000000E+03 0.  1.
<mgrwt>
<rscale>  2 0.19894720E+03</rscale>
<asrwt>0</asrwt>
<pdfrwt beam="1">  1       21 0.20945998E-01 0.19894720E+03</pdfrwt>
<pdfrwt beam="2">  1       21 0.62828782E-01 0.19894720E+03</pdfrwt>
<totfact> 0.49516364E+04</totfact>
</mgrwt>
</event>
<event>
 4    1  0.4053645E-001  0.2795382E+03  0.7546771E-02  0.1095941E+00
         21   -1    0    0  503  502  0.00000000000E+00  0.00000000000E+00  0.51136701266E+03  0.51136701266E+03  0.00000000000E+00 0. -1.
         21   -1    0    0  501  503 -0.00000000000E+00 -0.00000000000E+00 -0.15432846635E+03  0.15432846635E+03  0.00000000000E+00 0. -1.
          6    1    1    2  501    0 -0.15638790310E+03 -0.15412793433E+03  0.14549478295E+03  0.31513541255E+03  0.17300000000E+03 0. -1.
         -6    1    1    2    0  502  0.15638790310E+03  0.15412793433E+03  0.21154376336E+03  0.35056006646E+03  0.17300000000E+03 0. -1.
<mgrwt>
<rscale>  2 0.27953818E+03</rscale>
<asrwt>0</asrwt>
<pdfrwt beam="1">  1       21 0.78671848E-01 0.27953818E+03</pdfrwt>
<pdfrwt beam="2">  1       21 0.23742841E-01 0.27953818E+03</pdfrwt>
<totfact> 0.22839941E+04</totfact>
</mgrwt>
</event>
<event>
 4    1  0.4053645E-001  0.1925861E+03  0.7546771E-02  0.1156149E+00
         21   -1    0    0  501  502  0.00000000000E+00  0.00000000000E+00  0.23008987509E+03  0.23008987509E+03  0.00000000000E+00 0.  1.
         21   -1    0    0  502  503 -0.00000000000E+00 -0.00000000000E+00 -0.16124625625E+03  0.16124625625E+03  0.00000000000E+00 0. -1.
          6    1    1    2  501    0 -0.77277475953E+02 -0.34476086469E+02  0.30943808847E+02  0.19505621788E+03  0.17300000000E+03 0. -1.
         -6    1    1    2    0  503  0.77277475953E+02  0.34476086469E+02  0.37899809992E+02  0.19627991345E+03  0.17300000000E+03 0. -1.
<mgrwt>
<rscale>  2 0.19258611E+03</rscale>
<asrwt>0</asrwt>
<pdfrwt beam="1">  1       21 0.35398442E-01 0.19258611E+03</pdfrwt>
<pdfrwt beam="2">  1       21 0.24807116E-01 0.19258611E+03</pdfrwt>
<totfact> 0.11829136E+05</totfact>
</mgrwt>
</event>
<event>
 4    1  0.4053645E-001  0.1804686E+03  0.7546771E-02  0.1167350E+00
         21   -1    0    0  501  502  0.00000000000E+00  0.00000000000E+00  0.53259686191E+03  0.53259686191E+03  0.00000000000E+00 0.  1.
         21   -1    0    0  502  503 -0.00000000000E+00 -0.00000000000E+00 -0.73089421597E+02  0.73089421597E+02  0.00000000000E+00 0.  1.
          6    1    1    2  501    0 -0.14670421645E+02 -0.49241069233E+02  0.35214808622E+03  0.39569834318E+03  0.17300000000E+03 0.  1.
         -6    1    1    2    0  503  0.14670421645E+02  0.49241069233E+02  0.10735935410E+03  0.20998794033E+03  0.17300000000E+03 0.  1.
<mgrwt>
<rscale>  2 0.18046857E+03</rscale>
<asrwt>0</asrwt>
<pdfrwt beam="1">  1       21 0.81937976E-01 0.18046857E+03</pdfrwt>
<pdfrwt beam="2">  1       21 0.11244527E-01 0.18046857E+03</pdfrwt>
<totfact> 0.86291366E+04</totfact>
</mgrwt>
</event>
<event>
 4    1  0.4053645E-001  0.1935435E+03  0.7546771E-02  0.1155304E+00
         21   -1    0    0  503  502  0.00000000000E+00  0.00000000000E+00  0.22021392997E+03  0.22021392997E+03  0.00000000000E+00 0. -1.
         21   -1    0    0  501  503 -0.00000000000E+00 -0.00000000000E+00 -0.17087007948E+03  0.17087007948E+03  0.00000000000E+00 0.  1.
          6    1    1    2  501    0  0.86223393009E+02  0.97774815271E+01  0.11571111095E+02  0.19388904884E+03  0.17300000000E+03 0. -1.
         -6    1    1    2    0  502 -0.86223393009E+02 -0.97774815271E+01  0.37772739394E+02  0.19719496061E+03  0.17300000000E+03 0.  1.
<mgrwt>
<rscale>  2 0.19354346E+03</rscale>
<asrwt>0</asrwt>
<pdfrwt beam="1">  1       21 0.33879066E-01 0.19354346E+03</pdfrwt>
<pdfrwt beam="2">  1       21 0.26287705E-01 0.19354346E+03</pdfrwt>
<totfact> 0.11545050E+05</totfact>
</mgrwt>
</event>
<event>
 4    1  0.4053645E-001  0.1928696E+03  0.7546771E-02  0.1155898E+00
         21   -1    0    0  503  502  0.00000000000E+00  0.00000000000E+00  0.11113415383E+03  0.11113415383E+03  0.00000000000E+00 0.  1.
         21   -1    0    0  501  503 -0.00000000000E+00 -0.00000000000E+00 -0.34333179188E+03  0.34333179188E+03  0.00000000000E+00 0. -1.
          6    1    1    2  501    0  0.60643039255E+02 -0.59934326897E+02 -0.15208939788E+03  0.24562142964E+03  0.17300000000E+03 0.  1.
         -6    1    1    2    0  502 -0.60643039255E+02  0.59934326897E+02 -0.80108240163E+02  0.20884451607E+03  0.17300000000E+03 0.  1.
<mgrwt>
<rscale>  2 0.19286965E+03</rscale>
<asrwt>0</asrwt>
<pdfrwt beam="1">  1       21 0.17097562E-01 0.19286965E+03</pdfrwt>
<pdfrwt beam="2">  1       21 0.52820275E-01 0.19286965E+03</pdfrwt>
<totfact> 0.10486041E+05</totfact>
</mgrwt>
</event>
<event>
 4    1  0.4053645E-001  0.1907519E+03  0.7546771E-02  0.1157785E+00
         21   -1    0    0  503  502  0.00000000000E+00  0.00000000000E+00  0.11659693435E+03  0.11659693435E+03  0.00000000000E+00 0. -1.
         21   -1    0    0  501  503 -0.00000000000E+00 -0.00000000000E+00 -0.33812745731E+03  0.33812745731E+03  0.00000000000E+00 0. -1.
          6    1    1    2  501    0 -0.79451252052E+02  0.12033103047E+02 -0.17388305264E+03  0.25811162898E+03  0.17300000000E+03 0. -1.
         -6    1    1    2    0  502  0.79451252052E+02 -0.12033103047E+02 -0.47647470321E+02  0.19661276268E+03  0.17300000000E+03 0. -1.
<mgrwt>
<rscale>  2 0.19075193E+03</rscale>
<asrwt>0</asrwt>
<pdfrwt beam="1">  1       21 0.17937990E-01 0.19075193E+03</pdfrwt>
<pdfrwt beam="2">  1       21 0.52019607E-01 0.19075193E+03</pdfrwt>
<totfact> 0.99183349E+04</totfact>
</mgrwt>
</event>
<event>
 4    1  0.4053645E-001  0.1991338E+03  0.7546771E-02  0.1150472E+00
         21   -1    0    0  501  502  0.00000000000E+00  0.00000000000E+00  0.70239126976E+03  0.70239126976E+03  0.00000000000E+00 0.  1.
         21   -1    0    0  502  503 -0.00000000000E+00 -0.00000000000E+00 -0.57638617379E+02  0.57638617379E+02  0.00000000000E+00 0.  1.
          6    1    1    2  501    0 -0.92185769448E+02 -0.35029411039E+02  0.26794528673E+03  0.33383971065E+03  0.17300000000E+03 0. -1.
         -6    1    1    2    0  503  0.92185769448E+02  0.35029411039E+02  0.37680736565E+03  0.42619017649E+03  0.17300000000E+03 0. -1.
<mgrwt>
<rscale>  2 0.19913381E+03</rscale>
<asrwt>0</asrwt>
<pdfrwt beam="1">  1       21 0.10806019E+00 0.19913381E+03</pdfrwt>
<pdfrwt beam="2">  1       21 0.88674801E-02 0.19913381E+03</pdfrwt>
<totfact> 0.68140300E+04</totfact>
</mgrwt>
</event>
<event>
 4    1  0.4053645E-001  0.2495124E+03  0.7546771E-02  0.1113613E+00
         21   -1    0    0  501  502  0.00000000000E+00  0.00000000000E+00  0.25976923176E+03  0.25976923176E+03  0.00000000000E+00 0. -1.
         21   -1    0    0  502  503 -0.00000000000E+00 -0.00000000000E+00 -0.25515539729E+03  0.25515539729E+03  0.00000000000E+00 0.  1.
          6    1    1    2  501    0  0.17215400191E+03 -0.51869329374E+02  0.65753091374E+02  0.25803080577E+03  0.17300000000E+03 0. -1.
         -6    1    1    2    0  503 -0.17215400191E+03  0.51869329374E+02 -0.61139256906E+02  0.25689382328E+03  0.17300000000E+03 0.  1.
<mgrwt>
<rscale>  2 0.24951238E+03</rscale>
<asrwt>0</asrwt>
<pdfrwt beam="1">  1       21 0.39964497E-01 0.24951238E+03</pdfrwt>
<pdfrwt beam="2">  1       21 0.39254676E-01 0.24951238E+03</pdfrwt>
<totfact> 0.36742206E+04</totfact>
</mgrwt>
</event>
<event>
 4    1  0.4053645E-001  0.1858021E+03  0.7546771E-02  0.1162303E+00
         21   -1    0    0  503  502  0.00000000000E+00  0.00000000000E+00  0.53447707238E+02  0.53447707238E+02  0.00000000000E+00 0.  1.
         21   -1    0    0  501  503 -0.00000000000E+00 -0.00000000000E+00 -0.69541182198E+03  0.69541182198E+03  0.00000000000E+00 0.  1.
          6    1    1    2  501    0 -0.30177405935E+02  0.60685660935E+02 -0.42088046194E+03  0.46006824332E+03  0.17300000000E+03 0.  1.
         -6    1    1    2    0  502  0.30177405935E+02 -0.60685660935E+02 -0.22108365280E+03  0.28879128589E+03  0.17300000000E+03 0.  1.
<mgrwt>
<rscale>  2 0.18580211E+03</rscale>
<asrwt>0</asrwt>
<pdfrwt beam="1">  1       21 0.82227246E-02 0.18580211E+03</pdfrwt>
<pdfrwt beam="2">  1       21 0.10698643E+00 0.18580211E+03</pdfrwt>
<totfact> 0.80138953E+04</totfact>
</mgrwt>
</event>
<event>
 4    1  0.4053645E-001  0.2671842E+03  0.7546771E-02  0.1102902E+00
         21   -1    0    0  501  502  0.00000000000E+00  0.00000000000E+00  0.72718236619E+03  0.72718236619E+03  0.00000000000E+00 0. -1.
         21   -1    0    0  502  503 -0.00000000000E+00 -0.00000000000E+00 -0.98681182449E+02  0.98681182449E+02  0.00000000000E+00 0. -1.
          6    1    1    2  501    0 -0.99158589844E+02  0.17783692853E+03  0.28452682237E+03  0.39031130106E+03  0.17300000000E+03 0. -1.
         -6    1    1    2    0  503  0.99158589844E+02 -0.17783692853E+03  0.34397436138E+03  0.43555224758E+03  0.17300000000E+03 0. -1.
<mgrwt>
<rscale>  2 0.26718420E+03</rscale>
<asrwt>0</asrwt>
<pdfrwt beam="1">  1       21 0.11187421E+00 0.26718420E+03</pdfrwt>
<pdfrwt beam="2">  1       21 0.15181721E-01 0.26718420E+03</pdfrwt>
<totfact> 0.23113436E+04</totfact>
</mgrwt>
</event>
<event>
 4    1  0.4053645E-001  0.2142365E+03  0.7546771E-02  0.1138254E+00
         21   -1    0    0  501  502  0.00000000000E+00  0.00000000000E+00  0.96536551883E+03  0.96536551883E+03  0.00000000000E+00 0. -1.
         21   -1    0    0  502  503 -0.00000000000E+00 -0.00000000000E+00 -0.47811279750E+02  0.47811279750E+02  0.00000000000E+00 0. -1.
          6    1    1    2  501    0 -0.63522993985E+02 -0.10923877103E+03  0.49665818613E+03  0.54089429070E+03  0.17300000000E+03 0. -1.
         -6    1    1    2    0  503  0.63522993985E+02  0.10923877103E+03  0.42089605295E+03  0.47228250788E+03  0.17300000000E+03 0. -1.
<mgrwt>
<rscale>  2 0.21423650E+03</rscale>
<asrwt>0</asrwt>
<pdfrwt beam="1">  1       21 0.14851776E+00 0.21423650E+03</pdfrwt>
<pdfrwt beam="2">  1       21 0.73555823E-02 0.21423650E+03</pdfrwt>
<totfact> 0.42072133E+04</totfact>
</mgrwt>
</event>
<event>
 4    1  0.4053645E-001  0.2122255E+03  0.7546771E-02  0.1139816E+00
         21   -1    0    0  503  502  0.00000000000E+00  0.00000000000E+00  0.61322190840E+03  0.61322190840E+03  0.00000000000E+00 0.  1.
         21   -1    0    0  501  503 -0.00000000000E+00 -0.00000000000E+00 -0.74848806848E+02  0.74848806848E+02  0.00000000000E+00 0. -1.
          6    1    1    2  501    0 -0.28954835767E+02 -0.11946663831E+03  0.31625892725E+03  0.38086660296E+03  0.17300000000E+03 0.  1.
         -6    1    1    2    0  502  0.28954835767E+02  0.11946663831E+03  0.22211417431E+03  0.30720411229E+03  0.17300000000E+03 0.  1.
<mgrwt>
<rscale>  2 0.21222549E+03</rscale>
<asrwt>0</asrwt>
<pdfrwt beam="1">  1       21 0.94341829E-01 0.21222549E+03</pdfrwt>
<pdfrwt beam="2">  1       21 0.11515201E-01 0.21222549E+03</pdfrwt>
<totfact> 0.58915407E+04</totfact>
</mgrwt>
</event>
<event>
 4    1  0.4053645E-001  0.2315498E+03  0.7546771E-02  0.1125554E+00
         21   -1    0    0  503  502  0.00000000000E+00  0.00000000000E+00  0.22559881342E+03  0.22559881342E+03  0.00000000000E+00 0.  1.
         21   -1    0    0  501  503 -0.00000000000E+00 -0.00000000000E+00 -0.36440763369E+03  0.36440763369E+03  0.00000000000E+00 0. -1.
          6    1    1    2  501    0  0.13956767558E+03 -0.64862876958E+02 -0.24338734103E+03  0.33593559896E+03  0.17300000000E+03 0. -1.
         -6    1    1    2    0  502 -0.13956767558E+03  0.64862876958E+02  0.10457852076E+03  0.25407084815E+03  0.17300000000E+03 0.  1.
<mgrwt>
<rscale>  2 0.23154984E+03</rscale>
<asrwt>0</asrwt>
<pdfrwt beam="1">  1       21 0.34707510E-01 0.23154984E+03</pdfrwt>
<pdfrwt beam="2">  1       21 0.56062713E-01 0.23154984E+03</pdfrwt>
<totfact> 0.23458517E+04</totfact>
</mgrwt>
</event>
<event>
 4    1  0.4053645E-001  0.1999853E+03  0.7546771E-02  0.1149751E+00
         21   -1    0    0  503  502  0.00000000000E+00  0.00000000000E+00  0.28198018941E+03  0.28198018941E+03  0.00000000000E+00 0. -1.
         21   -1    0    0  501  503 -0.00000000000E+00 -0.00000000000E+00 -0.14449804431E+03  0.14449804431E+03  0.00000000000E+00 0.  1.
          6    1    1    2  501    0  0.40066452646E+02  0.91977118121E+02  0.39782052231E+02  0.20390370905E+03  0.17300000000E+03 0. -1.
         -6    1    1    2    0  502 -0.40066452646E+02 -0.91977118121E+02  0.97700092872E+02  0.22257452467E+03  0.17300000000E+03 0.  1.
<mgrwt>
<rscale>  2 0.19998528E+03</rscale>
<asrwt>0</asrwt>
<pdfrwt beam="1">  1       21 0.43381568E-01 0.19998528E+03</pdfrwt>
<pdfrwt beam="2">  1       21 0.22230468E-01 0.19998528E+03</pdfrwt>
<totfact> 0.96390052E+04</totfact>
</mgrwt>
</event>
<event>
 4    1  0.4053645E-001  0.1896365E+03  0.7546771E-02  0.1158790E+00
         21   -1    0    0  501  502  0.00000000000E+00  0.00000000000E+00  0.42614604842E+03  0.42614604842E+03  0.00000000000E+00 0. -1.
         21   -1    0    0  502  503 -0.00000000000E+00 -0.00000000000E+00 -0.85290878370E+02  0.85290878370E+02  0.00000000000E+00 0. -1.
          6    1    1    2  501    0  0.14541566734E+02  0.76299109660E+02  0.14413093893E+03  0.23819265071E+03  0.17300000000E+03 0. -1.
         -6    1    1    2    0  503 -0.14541566734E+02 -0.76299109660E+02  0.19672423113E+03  0.27324427608E+03  0.17300000000E+03 0. -1.
<mgrwt>
<rscale>  2 0.18963652E+03</rscale>
<asrwt>0</asrwt>
<pdfrwt beam="1">  1       21 0.65560929E-01 0.18963652E+03</pdfrwt>
<pdfrwt beam="2">  1       21 0.13121674E-01 0.18963652E+03</pdfrwt>
<totfact> 0.10704578E+05</totfact>
</mgrwt>
</event>
<event>
 4    1  0.4053645E-001  0.1863718E+03  0.7546771E-02  0.1161775E+00
         21   -1    0    0  501  502  0.00000000000E+00  0.00000000000E+00  0.59035155785E+02  0.59035155785E+02  0.00000000000E+00 0. -1.
         21   -1    0    0  502  503 -0.00000000000E+00 -0.00000000000E+00 -0.71940434757E+03  0.71940434757E+03  0.00000000000E+00 0. -1.
          6    1    1    2  501    0 -0.19120691407E+02  0.66632299591E+02 -0.16407208883E+03  0.24830246580E+03  0.17300000000E+03 0. -1.
         -6    1    1    2    0  503  0.19120691407E+02 -0.66632299591E+02 -0.49629710295E+03  0.53013703756E+03  0.17300000000E+03 0. -1.
<mgrwt>
<rscale>  2 0.18637184E+03</rscale>
<asrwt>0</asrwt>
<pdfrwt beam="1">  1       21 0.90823318E-02 0.18637184E+03</pdfrwt>
<pdfrwt beam="2">  1       21 0.11067759E+00 0.18637184E+03</pdfrwt>
<totfact> 0.62045307E+04</totfact>
</mgrwt>
</event>
<event>
 4    1  0.4053645E-001  0.1888044E+03  0.7546771E-02  0.1159544E+00
         21   -1    0    0  503  502  0.00000000000E+00  0.00000000000E+00  0.89739877230E+03  0.89739877230E+03  0.00000000000E+00 0.  1.
         21   -1    0    0  501  503 -0.00000000000E+00 -0.00000000000E+00 -0.39734870666E+02  0.39734870666E+02  0.00000000000E+00 0.  1.
          6    1    1    2  501    0  0.75101458849E+02 -0.88249721408E+01  0.43702985324E+03  0.47606953471E+03  0.17300000000E+03 0. -1.
         -6    1    1    2    0  502 -0.75101458849E+02  0.88249721408E+01  0.42063404840E+03  0.46106410826E+03  0.17300000000E+03 0. -1.
<mgrwt>
<rscale>  2 0.18880442E+03</rscale>
<asrwt>0</asrwt>
<pdfrwt beam="1">  1       21 0.13806133E+00 0.18880442E+03</pdfrwt>
<pdfrwt beam="2">  1       21 0.61130577E-02 0.18880442E+03</pdfrwt>
<totfact> 0.70975557E+04</totfact>
</mgrwt>
</event>
<event>
 4    1  0.4053645E-001  0.1999073E+03  0.7546771E-02  0.1149817E+00
         21   -1    0    0  501  502  0.00000000000E+00  0.00000000000E+00  0.10622896495E+03  0.10622896495E+03  0.00000000000E+00 0.  1.
         21   -1    0    0  502  503 -0.00000000000E+00 -0.00000000000E+00 -0.37645276121E+03  0.37645276121E+03  0.00000000000E+00 0.  1.
          6    1    1    2  501    0  0.12151229048E+02  0.99429833302E+02 -0.14141104966E+03  0.24486737039E+03  0.17300000000E+03 0.  1.
         -6    1    1    2    0  503 -0.12151229048E+02 -0.99429833302E+02 -0.12881274661E+03  0.23781435576E+03  0.17300000000E+03 0.  1.
<mgrwt>
<rscale>  2 0.19990734E+03</rscale>
<asrwt>0</asrwt>
<pdfrwt beam="1">  1       21 0.16342918E-01 0.19990734E+03</pdfrwt>
<pdfrwt beam="2">  1       21 0.57915810E-01 0.19990734E+03</pdfrwt>
<totfact> 0.93459006E+04</totfact>
</mgrwt>
</event>
<event>
 4    1  0.4053645E-001  0.2017811E+03  0.7546771E-02  0.1148245E+00
         21   -1    0    0  503  502  0.00000000000E+00  0.00000000000E+00  0.21491231528E+03  0.21491231528E+03  0.00000000000E+00 0.  1.
         21   -1    0    0  501  503 -0.00000000000E+00 -0.00000000000E+00 -0.19840738009E+03  0.19840738009E+03  0.00000000000E+00 0.  1.
          6    1    1    2  501    0  0.55184096256E+02  0.87984882030E+02 -0.35652421855E+02  0.20490661075E+03  0.17300000000E+03 0.  1.
         -6    1    1    2    0  502 -0.55184096256E+02 -0.87984882030E+02  0.52157357044E+02  0.20841308462E+03  0.17300000000E+03 0.  1.
<mgrwt>
<rscale>  2 0.20178113E+03</rscale>
<asrwt>0</asrwt>
<pdfrwt beam="1">  1       21 0.33063433E-01 0.20178113E+03</pdfrwt>
<pdfrwt beam="2">  1       21 0.30524212E-01 0.20178113E+03</pdfrwt>
<totfact> 0.90389457E+04</totfact>
</mgrwt>
</event>
<event>
 4    1  0.4053645E-001  0.1905882E+03  0.7546771E-02  0.1157932E+00
         21   -1    0    0  501  502  0.00000000000E+00  0.00000000000E+00  0.35073395056E+03  0.35073395056E+03  0.00000000000E+00 0. -1.
         21   -1    0    0  502  503 -0.00000000000E+00 -0.00000000000E+00 -0.11245792076E+03  0.11245792076E+03  0.00000000000E+00 0.  1.
          6    1    1    2  501    0 -0.79582291588E+02  0.78444437367E+01  0.18426337306E+03  0.26509784435E+03  0.17300000000E+03 0. -1.
         -6    1    1    2    0  503  0.79582291588E+02 -0.78444437367E+01  0.54012656739E+02  0.19809402697E+03  0.17300000000E+03 0.  1.
<mgrwt>
<rscale>  2 0.19058824E+03</rscale>
<asrwt>0</asrwt>
<pdfrwt beam="1">  1       21 0.53959069E-01 0.19058824E+03</pdfrwt>
<pdfrwt beam="2">  1       21 0.17301219E-01 0.19058824E+03</pdfrwt>
<totfact> 0.98173811E+04</totfact>
</mgrwt>
</event>
<event>
 4    1  0.4053645E-001  0.1801059E+03  0.7546771E-02  0.1167701E+00
         21   -1    0    0  503  502  0.00000000000E+00  0.00000000000E+00  0.27915576559E+03  0.27915576559E+03  0.00000000000E+00 0. -1.
         21   -1    0    0  501  503 -0.00000000000E+00 -0.00000000000E+00 -0.11947345298E+03  0.11947345298E+03  0.00000000000E+00 0.  1.
          6    1    1    2  501    0 -0.47527172381E+02 -0.15820869141E+02  0.11282880257E+03  0.21252875265E+03  0.17300000000E+03 0. -1.
         -6    1    1    2    0  502  0.47527172381E+02  0.15820869141E+02  0.46853510041E+02  0.18610046593E+03  0.17300000000E+03 0.  1.
<mgrwt>
<rscale>  2 0.18010589E+03</rscale>
<asrwt>0</asrwt>
<pdfrwt beam="1">  1       21 0.42947041E-01 0.18010589E+03</pdfrwt>
<pdfrwt beam="2">  1       21 0.18380531E-01 0.18010589E+03</pdfrwt>
<totfact> 0.14141136E+05</totfact>
</mgrwt>
</event>
<event>
 4    1  0.4053645E-001  0.2586271E+03  0.7546771E-02  0.1107971E+00
         21   -1    0    0  501  502  0.00000000000E+00  0.00000000000E+00  0.25199940773E+03  0.25199940773E+03  0.00000000000E+00 0. -1.
         21   -1    0    0  502  503 -0.00000000000E+00 -0.00000000000E+00 -0.30295902599E+03  0.30295902599E+03  0.00000000000E+00 0. -1.
          6    1    1    2  501    0 -0.17989024796E+03 -0.67811980580E+02  0.72182636395E+02  0.26851126423E+03  0.17300000000E+03 0. -1.
         -6    1    1    2    0  503  0.17989024796E+03  0.67811980580E+02 -0.12314225466E+03  0.28644716949E+03  0.17300000000E+03 0. -1.
<mgrwt>
<rscale>  2 0.25862708E+03</rscale>
<asrwt>0</asrwt>
<pdfrwt beam="1">  1       21 0.38769140E-01 0.25862708E+03</pdfrwt>
<pdfrwt beam="2">  1       21 0.46609081E-01 0.25862708E+03</pdfrwt>
<totfact> 0.27359172E+04</totfact>
</mgrwt>
</event>
<event>
 4    1  0.4053645E-001  0.1736650E+03  0.7546771E-02  0.1174079E+00
         21   -1    0    0  503  502  0.00000000000E+00  0.00000000000E+00  0.67221771560E+02  0.67221771560E+02  0.00000000000E+00 0. -1.
         21   -1    0    0  501  503 -0.00000000000E+00 -0.00000000000E+00 -0.49660043591E+03  0.49660043591E+03  0.00000000000E+00 0. -1.
          6    1    1    2  501    0 -0.11645319556E+02  0.97434315339E+01 -0.30228269892E+03  0.34861781078E+03  0.17300000000E+03 0. -1.
         -6    1    1    2    0  502  0.11645319556E+02 -0.97434315339E+01 -0.12709596542E+03  0.21520439668E+03  0.17300000000E+03 0. -1.
<mgrwt>
<rscale>  2 0.17366505E+03</rscale>
<asrwt>0</asrwt>
<pdfrwt beam="1">  1       21 0.10341811E-01 0.17366505E+03</pdfrwt>
<pdfrwt beam="2">  1       21 0.76400067E-01 0.17366505E+03</pdfrwt>
<totfact> 0.11747791E+05</totfact>
</mgrwt>
</event>
<event>
 4    1  0.4053645E-001  0.2336842E+03  0.7546771E-02  0.1124073E+00
         21   -1    0    0  501  502  0.00000000000E+00  0.00000000000E+00  0.20987296844E+03  0.20987296844E+03  0.00000000000E+00 0. -1.
         21   -1    0    0  502  503 -0.00000000000E+00 -0.00000000000E+00 -0.38138336370E+03  0.38138336370E+03  0.00000000000E+00 0. -1.
          6    1    1    2  501    0  0.13006227390E+03  0.88108407229E+02  0.80889719722E+02  0.24728815838E+03  0.17300000000E+03 0. -1.
         -6    1    1    2    0  503 -0.13006227390E+03 -0.88108407229E+02 -0.25240011499E+03  0.34396817376E+03  0.17300000000E+03 0. -1.
<mgrwt>
<rscale>  2 0.23368416E+03</rscale>
<asrwt>0</asrwt>
<pdfrwt beam="1">  1       21 0.32288149E-01 0.23368416E+03</pdfrwt>
<pdfrwt beam="2">  1       21 0.58674363E-01 0.23368416E+03</pdfrwt>
<totfact> 0.24532139E+04</totfact>
</mgrwt>
</event>
<event>
 4    1  0.4053645E-001  0.1891594E+03  0.7546771E-02  0.1159222E+00
         21   -1    0    0  501  502  0.00000000000E+00  0.00000000000E+00  0.31849367219E+03  0.31849367219E+03  0.00000000000E+00 0. -1.
         21   -1    0    0  502  503 -0.00000000000E+00 -0.00000000000E+00 -0.16584309835E+03  0.16584309835E+03  0.00000000000E+00 0.  1.
          6    1    1    2  501    0  0.59825839004E+02  0.47677663708E+02  0.21386762418E+03  0.28551821536E+03  0.17300000000E+03 0. -1.
         -6    1    1    2    0  503 -0.59825839004E+02 -0.47677663708E+02 -0.61217050347E+02  0.19881855518E+03  0.17300000000E+03 0.  1.
<mgrwt>
<rscale>  2 0.18915943E+03</rscale>
<asrwt>0</asrwt>
<pdfrwt beam="1">  1       21 0.48999026E-01 0.18915943E+03</pdfrwt>
<pdfrwt beam="2">  1       21 0.25514323E-01 0.18915943E+03</pdfrwt>
<totfact> 0.57991510E+04</totfact>
</mgrwt>
</event>
<event>
 4    1  0.4053645E-001  0.2007138E+03  0.7546771E-02  0.1149138E+00
         21   -1    0    0  503  502  0.00000000000E+00  0.00000000000E+00  0.20346671455E+03  0.20346671455E+03  0.00000000000E+00 0.  1.
         21   -1    0    0  501  503 -0.00000000000E+00 -0.00000000000E+00 -0.25001598151E+03  0.25001598151E+03  0.00000000000E+00 0. -1.
          6    1    1    2  501    0 -0.96668461043E+02  0.31815828796E+02 -0.12669899608E+03  0.23735769196E+03  0.17300000000E+03 0. -1.
         -6    1    1    2    0  502  0.96668461043E+02 -0.31815828796E+02  0.80149729125E+02  0.21612500411E+03  0.17300000000E+03 0.  1.
<mgrwt>
<rscale>  2 0.20071382E+03</rscale>
<asrwt>0</asrwt>
<pdfrwt beam="1">  1       21 0.31302572E-01 0.20071382E+03</pdfrwt>
<pdfrwt beam="2">  1       21 0.38463997E-01 0.20071382E+03</pdfrwt>
<totfact> 0.63685683E+04</totfact>
</mgrwt>
</event>
<event>
 4    1  0.4053645E-001  0.2117271E+03  0.7546771E-02  0.1140206E+00
         21   -1    0    0  503  502  0.00000000000E+00  0.00000000000E+00  0.81600293685E+02  0.81600293685E+02  0.00000000000E+00 0. -1.
         21   -1    0    0  501  503 -0.00000000000E+00 -0.00000000000E+00 -0.70053419442E+03  0.70053419442E+03  0.00000000000E+00 0. -1.
          6    1    1    2  501    0  0.11661284578E+03 -0.36066608055E+02 -0.49113068274E+03  0.53482492794E+03  0.17300000000E+03 0. -1.
         -6    1    1    2    0  502 -0.11661284578E+03  0.36066608055E+02 -0.12780321799E+03  0.24730956016E+03  0.17300000000E+03 0. -1.
<mgrwt>
<rscale>  2 0.21172708E+03</rscale>
<asrwt>0</asrwt>
<pdfrwt beam="1">  1       21 0.12553891E-01 0.21172708E+03</pdfrwt>
<pdfrwt beam="2">  1       21 0.10777450E+00 0.21172708E+03</pdfrwt>
<totfact> 0.36751443E+04</totfact>
</mgrwt>
</event>
<event>
 4    1  0.4053645E-001  0.2677378E+03  0.7546771E-02  0.1102581E+00
         21   -1    0    0  503  502  0.00000000000E+00  0.00000000000E+00  0.23096608610E+03  0.23096608610E+03  0.00000000000E+00 0. -1.
         21   -1    0    0  501  503 -0.00000000000E+00 -0.00000000000E+00 -0.31036394894E+03  0.31036394894E+03  0.00000000000E+00 0. -1.
          6    1    1    2  501    0  0.88202659964E+02  0.18432252934E+03 -0.39490506053E+02  0.27063444739E+03  0.17300000000E+03 0. -1.
         -6    1    1    2    0  502 -0.88202659964E+02 -0.18432252934E+03 -0.39907356795E+02  0.27069558765E+03  0.17300000000E+03 0. -1.
<mgrwt>
<rscale>  2 0.26773775E+03</rscale>
<asrwt>0</asrwt>
<pdfrwt beam="1">  1       21 0.35533244E-01 0.26773775E+03</pdfrwt>
<pdfrwt beam="2">  1       21 0.47748299E-01 0.26773775E+03</pdfrwt>
<totfact> 0.30891232E+04</totfact>
</mgrwt>
</event>
<event>
 4    1  0.4053645E-001  0.1792386E+03  0.7546771E-02  0.1168542E+00
         21   -1    0    0  501  502  0.00000000000E+00  0.00000000000E+00  0.56092482563E+02  0.56092482563E+02  0.00000000000E+00 0. -1.
         21   -1    0    0  502  503 -0.00000000000E+00 -0.00000000000E+00 -0.57291997905E+03  0.57291997905E+03  0.00000000000E+00 0. -1.
          6    1    1    2  501    0 -0.38716050996E+02  0.26430126503E+02 -0.26396713911E+03  0.31906916918E+03  0.17300000000E+03 0. -1.
         -6    1    1    2    0  503  0.38716050996E+02 -0.26430126503E+02 -0.25286035738E+03  0.30994329244E+03  0.17300000000E+03 0. -1.
<mgrwt>
<rscale>  2 0.17923862E+03</rscale>
<asrwt>0</asrwt>
<pdfrwt beam="1">  1       21 0.86296122E-02 0.17923862E+03</pdfrwt>
<pdfrwt beam="2">  1       21 0.88141540E-01 0.17923862E+03</pdfrwt>
<totfact> 0.11651048E+05</totfact>
</mgrwt>
</event>
<event>
 4    1  0.4053645E-001  0.2756291E+03  0.7546771E-02  0.1098100E+00
         21   -1    0    0  501  502  0.00000000000E+00  0.00000000000E+00  0.28827433505E+03  0.28827433505E+03  0.00000000000E+00 0.  1.
         21   -1    0    0  502  503 -0.00000000000E+00 -0.00000000000E+00 -0.29931877342E+03  0.29931877342E+03  0.00000000000E+00 0. -1.
          6    1    1    2  501    0  0.19579236680E+03  0.87793834413E+02 -0.10710055074E+03  0.29570582718E+03  0.17300000000E+03 0. -1.
         -6    1    1    2    0  503 -0.19579236680E+03 -0.87793834413E+02  0.96056112358E+02  0.29188728129E+03  0.17300000000E+03 0.  1.
<mgrwt>
<rscale>  2 0.27562911E+03</rscale>
<asrwt>0</asrwt>
<pdfrwt beam="1">  1       21 0.44349898E-01 0.27562911E+03</pdfrwt>
<pdfrwt beam="2">  1       21 0.46049042E-01 0.27562911E+03</pdfrwt>
<totfact> 0.21148548E+04</totfact>
</mgrwt>
</event>
<event>
 4    1  0.4053645E-001  0.2088042E+03  0.7546771E-02  0.1142516E+00
         21   -1    0    0  503  502  0.00000000000E+00  0.00000000000E+00  0.16901271394E+03  0.16901271394E+03  0.00000000000E+00 0. -1.
         21   -1    0    0  501  503 -0.00000000000E+00 -0.00000000000E+00 -0.25865767125E+03  0.25865767125E+03  0.00000000000E+00 0. -1.
          6    1    1    2  501    0 -0.88552320486E+02 -0.76345724008E+02 -0.55896793667E+02  0.21615650483E+03  0.17300000000E+03 0. -1.
         -6    1    1    2    0  502  0.88552320486E+02  0.76345724008E+02 -0.33748163637E+02  0.21151388036E+03  0.17300000000E+03 0. -1.
<mgrwt>
<rscale>  2 0.20880417E+03</rscale>
<asrwt>0</asrwt>
<pdfrwt beam="1">  1       21 0.26001956E-01 0.20880417E+03</pdfrwt>
<pdfrwt beam="2">  1       21 0.39793488E-01 0.20880417E+03</pdfrwt>
<totfact> 0.84941105E+04</totfact>
</mgrwt>
</event>
<event>
 4    1  0.4053645E-001  0.1883424E+03  0.7546771E-02  0.1159965E+00
         21   -1    0    0  503  502  0.00000000000E+00  0.00000000000E+00  0.56282620514E+03  0.56282620514E+03  0.00000000000E+00 0. -1.
         21   -1    0    0  501  503 -0.00000000000E+00 -0.00000000000E+00 -0.63202125519E+02  0.63202125519E+02  0.00000000000E+00 0. -1.
          6    1    1    2  501    0 -0.41095430842E+02  0.62088919346E+02  0.26632047813E+03  0.32618930916E+03  0.17300000000E+03 0. -1.
         -6    1    1    2    0  502  0.41095430842E+02 -0.62088919346E+02  0.23330360149E+03  0.29983902149E+03  0.17300000000E+03 0. -1.
<mgrwt>
<rscale>  2 0.18834242E+03</rscale>
<asrwt>0</asrwt>
<pdfrwt beam="1">  1       21 0.86588644E-01 0.18834242E+03</pdfrwt>
<pdfrwt beam="2">  1       21 0.97234043E-02 0.18834242E+03</pdfrwt>
<totfact> 0.98091680E+04</totfact>
</mgrwt>
</event>
<event>
 4    1  0.4053645E-001  0.2055817E+03  0.7546771E-02  0.1145113E+00
         21   -1    0    0  501  502  0.00000000000E+00  0.00000000000E+00  0.35686956330E+03  0.35686956330E+03  0.00000000000E+00 0.  1.
         21   -1    0    0  502  503 -0.00000000000E+00 -0.00000000000E+00 -0.12040916154E+03  0.12040916154E+03  0.00000000000E+00 0.  1.
          6    1    1    2  501    0  0.49813876060E+02  0.99264321939E+02  0.87629947300E+02  0.22347893754E+03  0.17300000000E+03 0.  1.
         -6    1    1    2    0  503 -0.49813876060E+02 -0.99264321939E+02  0.14883045447E+03  0.25379978730E+03  0.17300000000E+03 0.  1.
<mgrwt>
<rscale>  2 0.20558168E+03</rscale>
<asrwt>0</asrwt>
<pdfrwt beam="1">  1       21 0.54903009E-01 0.20558168E+03</pdfrwt>
<pdfrwt beam="2">  1       21 0.18524487E-01 0.20558168E+03</pdfrwt>
<totfact> 0.82888858E+04</totfact>
</mgrwt>
</event>
<event>
 4    1  0.4053645E-001  0.1846720E+03  0.7546771E-02  0.1163357E+00
         21   -1    0    0  503  502  0.00000000000E+00  0.00000000000E+00  0.18101631001E+03  0.18101631001E+03  0.00000000000E+00 0.  1.
         21   -1    0    0  501  503 -0.00000000000E+00 -0.00000000000E+00 -0.19459265818E+03  0.19459265818E+03  0.00000000000E+00 0.  1.
          6    1    1    2  501    0 -0.64226873017E+02 -0.70466647165E+01 -0.40286894847E+02  0.18901529197E+03  0.17300000000E+03 0.  1.
         -6    1    1    2    0  502  0.64226873017E+02  0.70466647165E+01  0.26710546677E+02  0.18659367622E+03  0.17300000000E+03 0.  1.
<mgrwt>
<rscale>  2 0.18467200E+03</rscale>
<asrwt>0</asrwt>
<pdfrwt beam="1">  1       21 0.27848663E-01 0.18467200E+03</pdfrwt>
<pdfrwt beam="2">  1       21 0.29937332E-01 0.18467200E+03</pdfrwt>
<totfact> 0.13208724E+05</totfact>
</mgrwt>
</event>
<event>
 4    1  0.4053645E-001  0.1834641E+03  0.7546771E-02  0.1164492E+00
         21   -1    0    0  503  502  0.00000000000E+00  0.00000000000E+00  0.52742225325E+02  0.52742225325E+02  0.00000000000E+00 0.  1.
         21   -1    0    0  501  503 -0.00000000000E+00 -0.00000000000E+00 -0.88634242820E+03  0.88634242820E+03  0.00000000000E+00 0.  1.
          6    1    1    2  501    0  0.25115054552E+02  0.55671384355E+02 -0.66525147487E+03  0.69008593220E+03  0.17300000000E+03 0.  1.
         -6    1    1    2    0  502 -0.25115054552E+02 -0.55671384355E+02 -0.16834872800E+03  0.24899872133E+03  0.17300000000E+03 0.  1.
<mgrwt>
<rscale>  2 0.18346408E+03</rscale>
<asrwt>0</asrwt>
<pdfrwt beam="1">  1       21 0.81141890E-02 0.18346408E+03</pdfrwt>
<pdfrwt beam="2">  1       21 0.13636037E+00 0.18346408E+03</pdfrwt>
<totfact> 0.45059748E+04</totfact>
</mgrwt>
</event>
<event>
 4    1  0.4053645E-001  0.1860504E+03  0.7546771E-02  0.1162073E+00
         21   -1    0    0  501  502  0.00000000000E+00  0.00000000000E+00  0.42116952916E+02  0.42116952916E+02  0.00000000000E+00 0.  1.
         21   -1    0    0  502  503 -0.00000000000E+00 -0.00000000000E+00 -0.82463559135E+03  0.82463559135E+03  0.00000000000E+00 0.  1.
          6    1    1    2  501    0 -0.26058191748E+02  0.63298803549E+02 -0.36617357182E+03  0.41072844142E+03  0.17300000000E+03 0.  1.
         -6    1    1    2    0  503  0.26058191748E+02 -0.63298803549E+02 -0.41634506661E+03  0.45602410285E+03  0.17300000000E+03 0.  1.
<mgrwt>
<rscale>  2 0.18605044E+03</rscale>
<asrwt>0</asrwt>
<pdfrwt beam="1">  1       21 0.64795316E-02 0.18605044E+03</pdfrwt>
<pdfrwt beam="2">  1       21 0.12686701E+00 0.18605044E+03</pdfrwt>
<totfact> 0.79672693E+04</totfact>
</mgrwt>
</event>
<event>
 4    1  0.4053645E-001  0.3040032E+03  0.7546771E-02  0.1083256E+00
         21   -1    0    0  503  502  0.00000000000E+00  0.00000000000E+00  0.12800244175E+03  0.12800244175E+03  0.00000000000E+00 0. -1.
         21   -1    0    0  501  503 -0.00000000000E+00 -0.00000000000E+00 -0.76540911765E+03  0.76540911765E+03  0.00000000000E+00 0. -1.
          6    1    1    2  501    0 -0.10275670930E+02  0.24976657468E+03 -0.42508301264E+03  0.52260262042E+03  0.17300000000E+03 0. -1.
         -6    1    1    2    0  502  0.10275670930E+02 -0.24976657468E+03 -0.21232366326E+03  0.37080893897E+03  0.17300000000E+03 0. -1.
<mgrwt>
<rscale>  2 0.30400318E+03</rscale>
<asrwt>0</asrwt>
<pdfrwt beam="1">  1       21 0.19692684E-01 0.30400318E+03</pdfrwt>
<pdfrwt beam="2">  1       21 0.11775525E+00 0.30400318E+03</pdfrwt>
<totfact> 0.12347571E+04</totfact>
</mgrwt>
</event>
<event>
 4    1  0.4053645E-001  0.1735292E+03  0.7546771E-02  0.1174217E+00
         21   -1    0    0  503  502  0.00000000000E+00  0.00000000000E+00  0.11140942351E+03  0.11140942351E+03  0.00000000000E+00 0.  1.
         21   -1    0    0  501  503 -0.00000000000E+00 -0.00000000000E+00 -0.28077491568E+03  0.28077491568E+03  0.00000000000E+00 0.  1.
          6    1    1    2  501    0 -0.87333331964E+01 -0.10349734043E+02 -0.12258368681E+03  0.21245975708E+03  0.17300000000E+03 0.  1.
         -6    1    1    2    0  502  0.87333331964E+01  0.10349734043E+02 -0.46781805362E+02  0.17972458211E+03  0.17300000000E+03 0.  1.
<mgrwt>
<rscale>  2 0.17352921E+03</rscale>
<asrwt>0</asrwt>
<pdfrwt beam="1">  1       21 0.17139911E-01 0.17352921E+03</pdfrwt>
<pdfrwt beam="2">  1       21 0.43196141E-01 0.17352921E+03</pdfrwt>
<totfact> 0.15931294E+05</totfact>
</mgrwt>
</event>
<event>
 4    1  0.4053645E-001  0.1882701E+03  0.7546771E-02  0.1160031E+00
         21   -1    0    0  501  502  0.00000000000E+00  0.00000000000E+00  0.12523672768E+03  0.12523672768E+03  0.00000000000E+00 0. -1.
         21   -1    0    0  502  503 -0.00000000000E+00 -0.00000000000E+00 -0.29807932756E+03  0.29807932756E+03  0.00000000000E+00 0. -1.
          6    1    1    2  501    0 -0.73385876993E+02 -0.11452287282E+02 -0.13398109180E+03  0.23107698887E+03  0.17300000000E+03 0. -1.
         -6    1    1    2    0  503  0.73385876993E+02  0.11452287282E+02 -0.38861508085E+02  0.19223906636E+03  0.17300000000E+03 0. -1.
<mgrwt>
<rscale>  2 0.18827013E+03</rscale>
<asrwt>0</asrwt>
<pdfrwt beam="1">  1       21 0.19267189E-01 0.18827013E+03</pdfrwt>
<pdfrwt beam="2">  1       21 0.45858358E-01 0.18827013E+03</pdfrwt>
<totfact> 0.11297807E+05</totfact>
</mgrwt>
</event>
<event>
 4    1  0.4053645E-001  0.2107483E+03  0.7546771E-02  0.1140975E+00
         21   -1    0    0  501  502  0.00000000000E+00  0.00000000000E+00  0.71308237472E+03  0.71308237472E+03  0.00000000000E+00 0. -1.
         21   -1    0    0  502  503 -0.00000000000E+00 -0.00000000000E+00 -0.77595238571E+02  0.77595238571E+02  0.00000000000E+00 0. -1.
          6    1    1    2  501    0  0.59687678905E+00 -0.12035574734E+03  0.49334676494E+03  0.53647543528E+03  0.17300000000E+03 0. -1.
         -6    1    1    2    0  503 -0.59687678905E+00  0.12035574734E+03  0.14214037120E+03  0.25420217801E+03  0.17300000000E+03 0. -1.
<mgrwt>
<rscale>  2 0.21074834E+03</rscale>
<asrwt>0</asrwt>
<pdfrwt beam="1">  1       21 0.10970498E+00 0.21074834E+03</pdfrwt>
<pdfrwt beam="2">  1       21 0.11937730E-01 0.21074834E+03</pdfrwt>
<totfact> 0.38553584E+04</totfact>
</mgrwt>
</event>
<event>
 4    1  0.4053645E-001  0.2066530E+03  0.7546771E-02  0.1144244E+00
         21   -1    0    0  503  502  0.00000000000E+00  0.00000000000E+00  0.16747671209E+03  0.16747671209E+03  0.00000000000E+00 0. -1.
         21   -1    0    0  501  503 -0.00000000000E+00 -0.00000000000E+00 -0.25546074071E+03  0.25546074071E+03  0.00000000000E+00 0.  1.
          6    1    1    2  501    0 -0.53426936984E+02 -0.99609392338E+02 -0.34947891090E+02  0.20958726996E+03  0.17300000000E+03 0.  1.
         -6    1    1    2    0  502  0.53426936984E+02  0.99609392338E+02 -0.53036137528E+02  0.21335018285E+03  0.17300000000E+03 0.  1.
<mgrwt>
<rscale>  2 0.20665302E+03</rscale>
<asrwt>0</asrwt>
<pdfrwt beam="1">  1       21 0.25765648E-01 0.20665302E+03</pdfrwt>
<pdfrwt beam="2">  1       21 0.39301652E-01 0.20665302E+03</pdfrwt>
<totfact> 0.88720896E+04</totfact>
</mgrwt>
</event>
<event>
 4    1  0.4053645E-001  0.2294485E+03  0.7546771E-02  0.1127029E+00
         21   -1    0    0  501  502  0.00000000000E+00  0.00000000000E+00  0.54798789434E+02  0.54798789434E+02  0.00000000000E+00 0.  1.
         21   -1    0    0  502  503 -0.00000000000E+00 -0.00000000000E+00 -0.11163520816E+04  0.11163520816E+04  0.00000000000E+00 0. -1.
          6    1    1    2  501    0 -0.62587798709E+02  0.13711446010E+03 -0.31213957227E+03  0.38739865810E+03  0.17300000000E+03 0.  1.
         -6    1    1    2    0  503  0.62587798709E+02 -0.13711446010E+03 -0.74941371988E+03  0.78375221292E+03  0.17300000000E+03 0.  1.
<mgrwt>
<rscale>  2 0.22944849E+03</rscale>
<asrwt>0</asrwt>
<pdfrwt beam="1">  1       21 0.84305836E-02 0.22944849E+03</pdfrwt>
<pdfrwt beam="2">  1       21 0.17174646E+00 0.22944849E+03</pdfrwt>
<totfact> 0.22174065E+04</totfact>
</mgrwt>
</event>
<event>
 4    1  0.4053645E-001  0.1927113E+03  0.7546771E-02  0.1156038E+00
         21   -1    0    0  503  502  0.00000000000E+00  0.00000000000E+00  0.21898349629E+03  0.21898349629E+03  0.00000000000E+00 0. -1.
         21   -1    0    0  501  503 -0.00000000000E+00 -0.00000000000E+00 -0.24605760894E+03  0.24605760894E+03  0.00000000000E+00 0.  1.
          6    1    1    2  501    0 -0.69972109092E+02  0.48089138337E+02 -0.14315897874E+03  0.24006697914E+03  0.17300000000E+03 0.  1.
         -6    1    1    2    0  502  0.69972109092E+02 -0.48089138337E+02  0.11608486610E+03  0.22497412610E+03  0.17300000000E+03 0. -1.
<mgrwt>
<rscale>  2 0.19271134E+03</rscale>
<asrwt>0</asrwt>
<pdfrwt beam="1">  1       21 0.33689769E-01 0.19271134E+03</pdfrwt>
<pdfrwt beam="2">  1       21 0.37855017E-01 0.19271134E+03</pdfrwt>
<totfact> 0.57119627E+04</totfact>
</mgrwt>
</event>
<event>
 4    1  0.4053645E-001  0.2159112E+03  0.7546771E-02  0.1136969E+00
         21   -1    0    0  501  502  0.00000000000E+00  0.00000000000E+00  0.67905860987E+03  0.67905860987E+03  0.00000000000E+00 0.  1.
         21   -1    0    0  502  503 -0.00000000000E+00 -0.00000000000E+00 -0.68771034017E+02  0.68771034017E+02  0.00000000000E+00 0.  1.
          6    1    1    2  501    0 -0.12544134651E+03  0.30872864159E+02  0.28948522623E+03  0.36113620887E+03  0.17300000000E+03 0.  1.
         -6    1    1    2    0  503  0.12544134651E+03 -0.30872864159E+02  0.32080234962E+03  0.38669343501E+03  0.17300000000E+03 0.  1.
<mgrwt>
<rscale>  2 0.21591124E+03</rscale>
<asrwt>0</asrwt>
<pdfrwt beam="1">  1       21 0.10447055E+00 0.21591124E+03</pdfrwt>
<pdfrwt beam="2">  1       21 0.10580159E-01 0.21591124E+03</pdfrwt>
<totfact> 0.53682654E+04</totfact>
</mgrwt>
</event>
<event>
 4    1  0.4053645E-001  0.3041387E+03  0.7546771E-02  0.1083190E+00
         21   -1    0    0  503  502  0.00000000000E+00  0.00000000000E+00  0.59419554740E+03  0.59419554740E+03  0.00000000000E+00 0. -1.
         21   -1    0    0  501  503 -0.00000000000E+00 -0.00000000000E+00 -0.16101009520E+03  0.16101009520E+03  0.00000000000E+00 0.  1.
          6    1    1    2  501    0  0.26574566942E+02  0.24872702327E+03  0.28533942068E+03  0.41703587940E+03  0.17300000000E+03 0. -1.
         -6    1    1    2    0  502 -0.26574566942E+02 -0.24872702327E+03  0.14784603152E+03  0.33816976321E+03  0.17300000000E+03 0.  1.
<mgrwt>
<rscale>  2 0.30413868E+03</rscale>
<asrwt>0</asrwt>
<pdfrwt beam="1">  1       21 0.91414699E-01 0.30413868E+03</pdfrwt>
<pdfrwt beam="2">  1       21 0.24770784E-01 0.30413868E+03</pdfrwt>
<totfact> 0.14723636E+04</totfact>
</mgrwt>
</event>
<event>
 4    1  0.4053645E-001  0.2412940E+03  0.7546771E-02  0.1118934E+00
         21   -1    0    0  503  502  0.00000000000E+00  0.00000000000E+00  0.10008127844E+03  0.10008127844E+03  0.00000000000E+00 0. -1.
         21   -1    0    0  501  503 -0.00000000000E+00 -0.00000000000E+00 -0.72019160097E+03  0.72019160097E+03  0.00000000000E+00 0.  1.
          6    1    1    2  501    0 -0.16390970247E+03  0.37780946124E+02 -0.48987172566E+03  0.54607426057E+03  0.17300000000E+03 0.  1.
         -6    1    1    2    0  502  0.16390970247E+03 -0.37780946124E+02 -0.13023859687E+03  0.27419861883E+03  0.17300000000E+03 0. -1.
<mgrwt>
<rscale>  2 0.24129399E+03</rscale>
<asrwt>0</asrwt>
<pdfrwt beam="1">  1       21 0.15397121E-01 0.24129399E+03</pdfrwt>
<pdfrwt beam="2">  1       21 0.11079870E+00 0.24129399E+03</pdfrwt>
<totfact> 0.23351977E+04</totfact>
</mgrwt>
</event>
<event>
 4    1  0.4053645E-001  0.2080026E+03  0.7546771E-02  0.1143158E+00
         21   -1    0    0  503  502  0.00000000000E+00  0.00000000000E+00  0.14882018879E+03  0.14882018879E+03  0.00000000000E+00 0.  1.
         21   -1    0    0  501  503 -0.00000000000E+00 -0.00000000000E+00 -0.39728498492E+03  0.39728498492E+03  0.00000000000E+00 0.  1.
          6    1    1    2  501    0  0.61919366879E+02  0.97478490649E+02 -0.26564941686E+03  0.33739394899E+03  0.17300000000E+03 0.  1.
         -6    1    1    2    0  502 -0.61919366879E+02 -0.97478490649E+02  0.17184620732E+02  0.20871122472E+03  0.17300000000E+03 0.  1.
<mgrwt>
<rscale>  2 0.20800256E+03</rscale>
<asrwt>0</asrwt>
<pdfrwt beam="1">  1       21 0.22895414E-01 0.20800256E+03</pdfrwt>
<pdfrwt beam="2">  1       21 0.61120766E-01 0.20800256E+03</pdfrwt>
<totfact> 0.44235332E+04</totfact>
</mgrwt>
</event>
<event>
 4    1  0.4053645E-001  0.2070464E+03  0.7546771E-02  0.1143926E+00
         21   -1    0    0  501  502  0.00000000000E+00  0.00000000000E+00  0.49260224299E+02  0.49260224299E+02  0.00000000000E+00 0.  1.
         21   -1    0    0  502  503 -0.00000000000E+00 -0.00000000000E+00 -0.16964752029E+04  0.16964752029E+04  0.00000000000E+00 0. -1.
          6    1    1    2  501    0  0.11086641421E+03  0.25453108610E+02 -0.21445434158E+03  0.29809207832E+03  0.17300000000E+03 0.  1.
         -6    1    1    2    0  503 -0.11086641421E+03 -0.25453108610E+02 -0.14327606370E+04  0.14476433489E+04  0.17300000000E+03 0. -1.
<mgrwt>
<rscale>  2 0.20704643E+03</rscale>
<asrwt>0</asrwt>
<pdfrwt beam="1">  1       21 0.75784966E-02 0.20704643E+03</pdfrwt>
<pdfrwt beam="2">  1       21 0.26099617E+00 0.20704643E+03</pdfrwt>
<totfact> 0.74521947E+03</totfact>
</mgrwt>
</event>
<event>
 4    1  0.4053645E-001  0.2166005E+03  0.7546771E-02  0.1136443E+00
         21   -1    0    0  501  502  0.00000000000E+00  0.00000000000E+00  0.23786184309E+03  0.23786184309E+03  0.00000000000E+00 0. -1.
         21   -1    0    0  502  503 -0.00000000000E+00 -0.00000000000E+00 -0.30501509494E+03  0.30501509494E+03  0.00000000000E+00 0. -1.
          6    1    1    2  501    0  0.56894165533E+02  0.11725963228E+03  0.12777405629E+03  0.25147957550E+03  0.17300000000E+03 0. -1.
         -6    1    1    2    0  503 -0.56894165533E+02 -0.11725963228E+03 -0.19492730814E+03  0.29139736253E+03  0.17300000000E+03 0. -1.
<mgrwt>
<rscale>  2 0.21660048E+03</rscale>
<asrwt>0</asrwt>
<pdfrwt beam="1">  1       21 0.36594130E-01 0.21660048E+03</pdfrwt>
<pdfrwt beam="2">  1       21 0.46925399E-01 0.21660048E+03</pdfrwt>
<totfact> 0.30907387E+04</totfact>
</mgrwt>
</event>
<event>
 4    1  0.4053645E-001  0.2319727E+03  0.7546771E-02  0.1125259E+00
         21   -1    0    0  501  502  0.00000000000E+00  0.00000000000E+00  0.84206967974E+03  0.84206967974E+03  0.00000000000E+00 0.  1.
         21   -1    0    0  502  503 -0.00000000000E+00 -0.00000000000E+00 -0.86315980094E+02  0.86315980094E+02  0.00000000000E+00 0.  1.
          6    1    1    2  501    0  0.13026547813E+02 -0.15398910965E+03  0.61441228229E+03  0.65674484350E+03  0.17300000000E+03 0.  1.
         -6    1    1    2    0  503 -0.13026547813E+02  0.15398910965E+03  0.14134141736E+03  0.27164081633E+03  0.17300000000E+03 0.  1.
<mgrwt>
<rscale>  2 0.23197271E+03</rscale>
<asrwt>0</asrwt>
<pdfrwt beam="1">  1       21 0.12954918E+00 0.23197271E+03</pdfrwt>
<pdfrwt beam="2">  1       21 0.13279382E-01 0.23197271E+03</pdfrwt>
<totfact> 0.20827175E+04</totfact>
</mgrwt>
</event>
<event>
 4    1  0.4053645E-001  0.1755480E+03  0.7546771E-02  0.1172183E+00
         21   -1    0    0  501  502  0.00000000000E+00  0.00000000000E+00  0.14936746090E+04  0.14936746090E+04  0.00000000000E+00 0.  1.
         21   -1    0    0  502  503 -0.00000000000E+00 -0.00000000000E+00 -0.24897178895E+02  0.24897178895E+02  0.00000000000E+00 0.  1.
          6    1    1    2  501    0 -0.28362181440E+02  0.91485226410E+01  0.10486653068E+04  0.10632572757E+04  0.17300000000E+03 0.  1.
         -6    1    1    2    0  503  0.28362181440E+02 -0.91485226410E+01  0.42011212336E+03  0.45531451218E+03  0.17300000000E+03 0.  1.
<mgrwt>
<rscale>  2 0.17554802E+03</rscale>
<asrwt>0</asrwt>
<pdfrwt beam="1">  1       21 0.22979602E+00 0.17554802E+03</pdfrwt>
<pdfrwt beam="2">  1       21 0.38303364E-02 0.17554802E+03</pdfrwt>
<totfact> 0.37446123E+04</totfact>
</mgrwt>
</event>
<event>
 4    1  0.4053645E-001  0.1783537E+03  0.7546771E-02  0.1169406E+00
         21   -1    0    0  503  502  0.00000000000E+00  0.00000000000E+00  0.67239883299E+03  0.67239883299E+03  0.00000000000E+00 0. -1.
         21   -1    0    0  501  503 -0.00000000000E+00 -0.00000000000E+00 -0.64379767711E+02  0.64379767711E+02  0.00000000000E+00 0. -1.
          6    1    1    2  501    0 -0.37638654238E+01  0.43207510964E+02  0.11430943826E+03  0.21184122205E+03  0.17300000000E+03 0. -1.
         -6    1    1    2    0  502  0.37638654238E+01 -0.43207510964E+02  0.49370962703E+03  0.52493737865E+03  0.17300000000E+03 0. -1.
<mgrwt>
<rscale>  2 0.17835374E+03</rscale>
<asrwt>0</asrwt>
<pdfrwt beam="1">  1       21 0.10344597E+00 0.17835374E+03</pdfrwt>
<pdfrwt beam="2">  1       21 0.99045801E-02 0.17835374E+03</pdfrwt>
<totfact> 0.62918538E+04</totfact>
</mgrwt>
</event>
<event>
 4    1  0.4053645E-001  0.1818651E+03  0.7546771E-02  0.1166010E+00
         21   -1    0    0  501  502  0.00000000000E+00  0.00000000000E+00  0.22290461252E+03  0.22290461252E+03  0.00000000000E+00 0.  1.
         21   -1    0    0  502  503 -0.00000000000E+00 -0.00000000000E+00 -0.17330686691E+03  0.17330686691E+03  0.00000000000E+00 0. -1.
          6    1    1    2  501    0  0.55613241768E+02  0.72858820744E+01  0.99928305643E+02  0.20751044072E+03  0.17300000000E+03 0.  1.
         -6    1    1    2    0  503 -0.55613241768E+02 -0.72858820744E+01 -0.50330560042E+02  0.18870103871E+03  0.17300000000E+03 0. -1.
<mgrwt>
<rscale>  2 0.18186511E+03</rscale>
<asrwt>0</asrwt>
<pdfrwt beam="1">  1       21 0.34293017E-01 0.18186511E+03</pdfrwt>
<pdfrwt beam="2">  1       21 0.26662595E-01 0.18186511E+03</pdfrwt>
<totfact> 0.11014342E+05</totfact>
</mgrwt>
</event>
<event>
 4    1  0.4053645E-001  0.2429334E+03  0.7546771E-02  0.1117854E+00
         21   -1    0    0  503  502  0.00000000000E+00  0.00000000000E+00  0.73236163636E+03  0.73236163636E+03  0.00000000000E+00 0. -1.
         21   -1    0    0  501  503 -0.00000000000E+00 -0.00000000000E+00 -0.89414279271E+02  0.89414279271E+02  0.00000000000E+00 0.  1.
          6    1    1    2  501    0 -0.13606545624E+03  0.10282912376E+03  0.19234968225E+03  0.30986293314E+03  0.17300000000E+03 0.  1.
         -6    1    1    2    0  502  0.13606545624E+03 -0.10282912376E+03  0.45059767484E+03  0.51191298249E+03  0.17300000000E+03 0.  1.
<mgrwt>
<rscale>  2 0.24293340E+03</rscale>
<asrwt>0</asrwt>
<pdfrwt beam="1">  1       21 0.11267102E+00 0.24293340E+03</pdfrwt>
<pdfrwt beam="2">  1       21 0.13756043E-01 0.24293340E+03</pdfrwt>
<totfact> 0.27515145E+04</totfact>
</mgrwt>
</event>
<event>
 4    1  0.4053645E-001  0.2549399E+03  0.7546771E-02  0.1110222E+00
         21   -1    0    0  501  502  0.00000000000E+00  0.00000000000E+00  0.70416639409E+02  0.70416639409E+02  0.00000000000E+00 0. -1.
         21   -1    0    0  502  503 -0.00000000000E+00 -0.00000000000E+00 -0.92349477775E+03  0.92349477775E+03  0.00000000000E+00 0. -1.
          6    1    1    2  501    0  0.93234313424E+02 -0.16239677545E+03 -0.43807625545E+03  0.50685812164E+03  0.17300000000E+03 0. -1.
         -6    1    1    2    0  503 -0.93234313424E+02  0.16239677545E+03 -0.41500188289E+03  0.48705329552E+03  0.17300000000E+03 0. -1.
<mgrwt>
<rscale>  2 0.25493989E+03</rscale>
<asrwt>0</asrwt>
<pdfrwt beam="1">  1       21 0.10833329E-01 0.25493989E+03</pdfrwt>
<pdfrwt beam="2">  1       21 0.14207612E+00 0.25493989E+03</pdfrwt>
<totfact> 0.23395718E+04</totfact>
</mgrwt>
</event>
<event>
 4    1  0.4053645E-001  0.1900332E+03  0.7546771E-02  0.1158431E+00
         21   -1    0    0  503  502  0.00000000000E+00  0.00000000000E+00  0.82891792830E+02  0.82891792830E+02  0.00000000000E+00 0.  1.
         21   -1    0    0  501  503 -0.00000000000E+00 -0.00000000000E+00 -0.44909458739E+03  0.44909458739E+03  0.00000000000E+00 0. -1.
          6    1    1    2  501    0  0.77977307699E+02 -0.10157026284E+02 -0.22910758668E+03  0.29766241276E+03  0.17300000000E+03 0. -1.
         -6    1    1    2    0  502 -0.77977307699E+02  0.10157026284E+02 -0.13709520788E+03  0.23432396745E+03  0.17300000000E+03 0.  1.
<mgrwt>
<rscale>  2 0.19003322E+03</rscale>
<asrwt>0</asrwt>
<pdfrwt beam="1">  1       21 0.12752583E-01 0.19003322E+03</pdfrwt>
<pdfrwt beam="2">  1       21 0.69091476E-01 0.19003322E+03</pdfrwt>
<totfact> 0.10044715E+05</totfact>
</mgrwt>
</event>
<event>
 4    1  0.4053645E-001  0.2229151E+03  0.7546771E-02  0.1131728E+00
         21   -1    0    0  503  502  0.00000000000E+00  0.00000000000E+00  0.12819360714E+03  0.12819360714E+03  0.00000000000E+00 0.  1.
         21   -1    0    0  501  503 -0.00000000000E+00 -0.00000000000E+00 -0.39394368353E+03  0.39394368353E+03  0.00000000000E+00 0.  1.
          6    1    1    2  501    0 -0.91199911538E+02  0.10698000425E+03 -0.99813380930E+02  0.24424138917E+03  0.17300000000E+03 0.  1.
         -6    1    1    2    0  502  0.91199911538E+02 -0.10698000425E+03 -0.16593669546E+03  0.27789590150E+03  0.17300000000E+03 0.  1.
<mgrwt>
<rscale>  2 0.22291511E+03</rscale>
<asrwt>0</asrwt>
<pdfrwt beam="1">  1       21 0.19722094E-01 0.22291511E+03</pdfrwt>
<pdfrwt beam="2">  1       21 0.60606720E-01 0.22291511E+03</pdfrwt>
<totfact> 0.59261137E+04</totfact>
</mgrwt>
</event>
<event>
 4    1  0.4053645E-001  0.1774490E+03  0.7546771E-02  0.1170295E+00
         21   -1    0    0  503  502  0.00000000000E+00  0.00000000000E+00  0.41430287220E+03  0.41430287220E+03  0.00000000000E+00 0. -1.
         21   -1    0    0  501  503 -0.00000000000E+00 -0.00000000000E+00 -0.76171213205E+02  0.76171213205E+02  0.00000000000E+00 0. -1.
          6    1    1    2  501    0 -0.38373843919E+02 -0.93050745273E+01  0.18060061321E+03  0.25318909495E+03  0.17300000000E+03 0.  1.
         -6    1    1    2    0  502  0.38373843919E+02  0.93050745273E+01  0.15753104579E+03  0.23728499046E+03  0.17300000000E+03 0.  1.
<mgrwt>
<rscale>  2 0.17744897E+03</rscale>
<asrwt>0</asrwt>
<pdfrwt beam="1">  1       21 0.63738902E-01 0.17744897E+03</pdfrwt>
<pdfrwt beam="2">  1       21 0.11718648E-01 0.17744897E+03</pdfrwt>
<totfact> 0.13996771E+05</totfact>
</mgrwt>
</event>
<event>
 4    1  0.4053645E-001  0.2597613E+03  0.7546771E-02  0.1107287E+00
         21   -1    0    0  503  502  0.00000000000E+00  0.00000000000E+00  0.71247876045E+03  0.71247876045E+03  0.00000000000E+00 0.  1.
         21   -1    0    0  501  503 -0.00000000000E+00 -0.00000000000E+00 -0.11031606455E+03  0.11031606455E+03  0.00000000000E+00 0. -1.
          6    1    1    2  501    0  0.87842661962E+02 -0.17271541507E+03  0.14632594997E+03  0.29813961746E+03  0.17300000000E+03 0. -1.
         -6    1    1    2    0  502 -0.87842661962E+02  0.17271541507E+03  0.45583674592E+03  0.52465520754E+03  0.17300000000E+03 0.  1.
<mgrwt>
<rscale>  2 0.25976133E+03</rscale>
<asrwt>0</asrwt>
<pdfrwt beam="1">  1       21 0.10961211E+00 0.25976133E+03</pdfrwt>
<pdfrwt beam="2">  1       21 0.16971703E-01 0.25976133E+03</pdfrwt>
<totfact> 0.19852755E+04</totfact>
</mgrwt>
</event>
<event>
 4    1  0.4053645E-001  0.2214935E+03  0.7546771E-02  0.1132774E+00
         21   -1    0    0  503  502  0.00000000000E+00  0.00000000000E+00  0.63235573739E+02  0.63235573739E+02  0.00000000000E+00 0. -1.
         21   -1    0    0  501  503 -0.00000000000E+00 -0.00000000000E+00 -0.90116238473E+03  0.90116238473E+03  0.00000000000E+00 0.  1.
          6    1    1    2  501    0 -0.10603941476E+03 -0.88803148408E+02 -0.59879895582E+03  0.63845089564E+03  0.17300000000E+03 0.  1.
         -6    1    1    2    0  502  0.10603941476E+03  0.88803148408E+02 -0.23912785517E+03  0.32594706283E+03  0.17300000000E+03 0. -1.
<mgrwt>
<rscale>  2 0.22149347E+03</rscale>
<asrwt>0</asrwt>
<pdfrwt beam="1">  1       21 0.97285494E-02 0.22149347E+03</pdfrwt>
<pdfrwt beam="2">  1       21 0.13864037E+00 0.22149347E+03</pdfrwt>
<totfact> 0.30732452E+04</totfact>
</mgrwt>
</event>
<event>
 4    1  0.4053645E-001  0.1976802E+03  0.7546771E-02  0.1151711E+00
         21   -1    0    0  501  502  0.00000000000E+00  0.00000000000E+00  0.35027914196E+03  0.35027914196E+03  0.00000000000E+00 0.  1.
         21   -1    0    0  502  503 -0.00000000000E+00 -0.00000000000E+00 -0.11262083049E+03  0.11262083049E+03  0.00000000000E+00 0.  1.
          6    1    1    2  501    0 -0.85483348447E+02 -0.42907574527E+02  0.96375725651E+02  0.21992213010E+03  0.17300000000E+03 0.  1.
         -6    1    1    2    0  503  0.85483348447E+02  0.42907574527E+02  0.14128258582E+03  0.24297784234E+03  0.17300000000E+03 0.  1.
<mgrwt>
<rscale>  2 0.19768020E+03</rscale>
<asrwt>0</asrwt>
<pdfrwt beam="1">  1       21 0.53889098E-01 0.19768020E+03</pdfrwt>
<pdfrwt beam="2">  1       21 0.17326282E-01 0.19768020E+03</pdfrwt>
<totfact> 0.97900172E+04</totfact>
</mgrwt>
</event>
<event>
 4    1  0.4053645E-001  0.1837539E+03  0.7546771E-02  0.1164219E+00
         21   -1    0    0  501  502  0.00000000000E+00  0.00000000000E+00  0.48917260450E+03  0.48917260450E+03  0.00000000000E+00 0. -1.
         21   -1    0    0  502  503 -0.00000000000E+00 -0.00000000000E+00 -0.70443341219E+02  0.70443341219E+02  0.00000000000E+00 0. -1.
          6    1    1    2  501    0 -0.10952627357E+02  0.60963299454E+02  0.16967084772E+03  0.25010733794E+03  0.17300000000E+03 0. -1.
         -6    1    1    2    0  503  0.10952627357E+02 -0.60963299454E+02  0.24905841556E+03  0.30950860778E+03  0.17300000000E+03 0. -1.
<mgrwt>
<rscale>  2 0.18375387E+03</rscale>
<asrwt>0</asrwt>
<pdfrwt beam="1">  1       21 0.75257321E-01 0.18375387E+03</pdfrwt>
<pdfrwt beam="2">  1       21 0.10837437E-01 0.18375387E+03</pdfrwt>
<totfact> 0.11140337E+05</totfact>
</mgrwt>
</event>
<event>
 4    1  0.4053645E-001  0.1815685E+03  0.7546771E-02  0.1166294E+00
         21   -1    0    0  503  502  0.00000000000E+00  0.00000000000E+00  0.18684526007E+04  0.18684526007E+04  0.00000000000E+00 0.  1.
         21   -1    0    0  501  503 -0.00000000000E+00 -0.00000000000E+00 -0.17659542468E+02  0.17659542468E+02  0.00000000000E+00 0.  1.
          6    1    1    2  501    0  0.42124943441E+02 -0.35547362626E+02  0.89749056270E+03  0.91567266858E+03  0.17300000000E+03 0.  1.
         -6    1    1    2    0  502 -0.42124943441E+02  0.35547362626E+02  0.95330249553E+03  0.97043947458E+03  0.17300000000E+03 0.  1.
<mgrwt>
<rscale>  2 0.18156852E+03</rscale>
<asrwt>0</asrwt>
<pdfrwt beam="1">  1       21 0.28745409E+00 0.18156852E+03</pdfrwt>
<pdfrwt beam="2">  1       21 0.27168542E-02 0.18156852E+03</pdfrwt>
<totfact> 0.30359115E+04</totfact>
</mgrwt>
</event>
<event>
 4    1  0.4053645E-001  0.1738017E+03  0.7546771E-02  0.1173940E+00
         21   -1    0    0  501  502  0.00000000000E+00  0.00000000000E+00  0.10719829818E+04  0.10719829818E+04  0.00000000000E+00 0.  1.
         21   -1    0    0  502  503 -0.00000000000E+00 -0.00000000000E+00 -0.28226796433E+02  0.28226796433E+02  0.00000000000E+00 0.  1.
          6    1    1    2  501    0  0.15525070522E+02  0.60816086865E+01  0.54460177343E+03  0.57166258003E+03  0.17300000000E+03 0.  1.
         -6    1    1    2    0  503 -0.15525070522E+02 -0.60816086865E+01  0.49915441196E+03  0.52854719824E+03  0.17300000000E+03 0.  1.
<mgrwt>
<rscale>  2 0.17380165E+03</rscale>
<asrwt>0</asrwt>
<pdfrwt beam="1">  1       21 0.16492043E+00 0.17380165E+03</pdfrwt>
<pdfrwt beam="2">  1       21 0.43425849E-02 0.17380165E+03</pdfrwt>
<totfact> 0.79944053E+04</totfact>
</mgrwt>
</event>
<event>
 4    1  0.4053645E-001  0.2486673E+03  0.7546771E-02  0.1114150E+00
         21   -1    0    0  501  502  0.00000000000E+00  0.00000000000E+00  0.53481881524E+03  0.53481881524E+03  0.00000000000E+00 0. -1.
         21   -1    0    0  502  503 -0.00000000000E+00 -0.00000000000E+00 -0.12017559441E+03  0.12017559441E+03  0.00000000000E+00 0.  1.
          6    1    1    2  501    0 -0.14090142055E+03  0.10978706515E+03  0.27108955402E+03  0.36786540513E+03  0.17300000000E+03 0. -1.
         -6    1    1    2    0  503  0.14090142055E+03 -0.10978706515E+03  0.14355366681E+03  0.28712900453E+03  0.17300000000E+03 0.  1.
<mgrwt>
<rscale>  2 0.24866727E+03</rscale>
<asrwt>0</asrwt>
<pdfrwt beam="1">  1       21 0.82279817E-01 0.24866727E+03</pdfrwt>
<pdfrwt beam="2">  1       21 0.18488553E-01 0.24866727E+03</pdfrwt>
<totfact> 0.33527314E+04</totfact>
</mgrwt>
</event>
<event>
 4    1  0.4053645E-001  0.1853782E+03  0.7546771E-02  0.1162697E+00
         21   -1    0    0  501  502  0.00000000000E+00  0.00000000000E+00  0.22799638162E+04  0.22799638162E+04  0.00000000000E+00 0. -1.
         21   -1    0    0  502  503 -0.00000000000E+00 -0.00000000000E+00 -0.18604778919E+02  0.18604778919E+02  0.00000000000E+00 0. -1.
          6    1    1    2  501    0  0.34549006089E+02 -0.56942557653E+02  0.16314442141E+04  0.16419425424E+04  0.17300000000E+03 0. -1.
         -6    1    1    2    0  503 -0.34549006089E+02  0.56942557653E+02  0.62991482311E+03  0.65662605269E+03  0.17300000000E+03 0. -1.
<mgrwt>
<rscale>  2 0.18537823E+03</rscale>
<asrwt>0</asrwt>
<pdfrwt beam="1">  1       21 0.35076344E+00 0.18537823E+03</pdfrwt>
<pdfrwt beam="2">  1       21 0.28622755E-02 0.18537823E+03</pdfrwt>
<totfact> 0.11939391E+04</totfact>
</mgrwt>
</event>
<event>
 4    1  0.4053645E-001  0.2241872E+03  0.7546771E-02  0.1130799E+00
         21   -1    0    0  501  502  0.00000000000E+00  0.00000000000E+00  0.24451441225E+03  0.24451441225E+03  0.00000000000E+00 0.  1.
         21   -1    0    0  502  503 -0.00000000000E+00 -0.00000000000E+00 -0.20556346406E+03  0.20556346406E+03  0.00000000000E+00 0. -1.
          6    1    1    2  501    0 -0.20239994670E+02  0.14114256399E+03  0.17638598158E+02  0.22487996998E+03  0.17300000000E+03 0. -1.
         -6    1    1    2    0  503  0.20239994670E+02 -0.14114256399E+03  0.21312350028E+02  0.22519790633E+03  0.17300000000E+03 0. -1.
<mgrwt>
<rscale>  2 0.22418716E+03</rscale>
<asrwt>0</asrwt>
<pdfrwt beam="1">  1       21 0.37617602E-01 0.22418716E+03</pdfrwt>
<pdfrwt beam="2">  1       21 0.31625148E-01 0.22418716E+03</pdfrwt>
<totfact> 0.64608499E+04</totfact>
</mgrwt>
</event>
<event>
 4    1  0.4053645E-001  0.1748402E+03  0.7546771E-02  0.1172892E+00
         21   -1    0    0  501  502  0.00000000000E+00  0.00000000000E+00  0.16843428125E+04  0.16843428125E+04  0.00000000000E+00 0.  1.
         21   -1    0    0  502  503 -0.00000000000E+00 -0.00000000000E+00 -0.20297179449E+02  0.20297179449E+02  0.00000000000E+00 0.  1.
          6    1    1    2  501    0 -0.23014713592E+02  0.10508104531E+02  0.55474026921E+03  0.58164066535E+03  0.17300000000E+03 0.  1.
         -6    1    1    2    0  503  0.23014713592E+02 -0.10508104531E+02  0.11093053638E+04  0.11229993266E+04  0.17300000000E+03 0.  1.
<mgrwt>
<rscale>  2 0.17484021E+03</rscale>
<asrwt>0</asrwt>
<pdfrwt beam="1">  1       21 0.25912955E+00 0.17484021E+03</pdfrwt>
<pdfrwt beam="2">  1       21 0.31226443E-02 0.17484021E+03</pdfrwt>
<totfact> 0.35348287E+04</totfact>
</mgrwt>
</event>
<event>
 4    1  0.4053645E-001  0.2387878E+03  0.7546771E-02  0.1120603E+00
         21   -1    0    0  503  502  0.00000000000E+00  0.00000000000E+00  0.86791816122E+02  0.86791816122E+02  0.00000000000E+00 0.  1.
         21   -1    0    0  501  503 -0.00000000000E+00 -0.00000000000E+00 -0.67864082191E+03  0.67864082191E+03  0.00000000000E+00 0. -1.
          6    1    1    2  501    0  0.14031745617E+03 -0.86032684820E+02 -0.36431497705E+03  0.43559730700E+03  0.17300000000E+03 0.  1.
         -6    1    1    2    0  502 -0.14031745617E+03  0.86032684820E+02 -0.22753402874E+03  0.32983533103E+03  0.17300000000E+03 0. -1.
<mgrwt>
<rscale>  2 0.23878780E+03</rscale>
<asrwt>0</asrwt>
<pdfrwt beam="1">  1       21 0.13352587E-01 0.23878780E+03</pdfrwt>
<pdfrwt beam="2">  1       21 0.10440628E+00 0.23878780E+03</pdfrwt>
<totfact> 0.35021900E+04</totfact>
</mgrwt>
</event>
<event>
 4    1  0.4053645E-001  0.1941832E+03  0.7546771E-02  0.1154742E+00
         21   -1    0    0  503  502  0.00000000000E+00  0.00000000000E+00  0.64778381925E+03  0.64778381925E+03  0.00000000000E+00 0. -1.
         21   -1    0    0  501  503 -0.00000000000E+00 -0.00000000000E+00 -0.71063433394E+02  0.71063433394E+02  0.00000000000E+00 0. -1.
          6    1    1    2  501    0 -0.28265689820E+02  0.83541354835E+02  0.13549688722E+03  0.23678368532E+03  0.17300000000E+03 0. -1.
         -6    1    1    2    0  502  0.28265689820E+02 -0.83541354835E+02  0.44122349864E+03  0.48206356733E+03  0.17300000000E+03 0. -1.
<mgrwt>
<rscale>  2 0.19418318E+03</rscale>
<asrwt>0</asrwt>
<pdfrwt beam="1">  1       21 0.99659045E-01 0.19418318E+03</pdfrwt>
<pdfrwt beam="2">  1       21 0.10932836E-01 0.19418318E+03</pdfrwt>
<totfact> 0.57300802E+04</totfact>
</mgrwt>
</event>
<event>
 4    1  0.4053645E-001  0.2020930E+03  0.7546771E-02  0.1147985E+00
         21   -1    0    0  503  502  0.00000000000E+00  0.00000000000E+00  0.52070735382E+03  0.52070735382E+03  0.00000000000E+00 0.  1.
         21   -1    0    0  501  503 -0.00000000000E+00 -0.00000000000E+00 -0.11192263443E+03  0.11192263443E+03  0.00000000000E+00 0.  1.
          6    1    1    2  501    0  0.96292223623E+02 -0.40501741555E+02  0.37741553233E+03  0.42811688526E+03  0.17300000000E+03 0.  1.
         -6    1    1    2    0  502 -0.96292223623E+02  0.40501741555E+02  0.31369187058E+02  0.20451310299E+03  0.17300000000E+03 0.  1.
<mgrwt>
<rscale>  2 0.20209301E+03</rscale>
<asrwt>0</asrwt>
<pdfrwt beam="1">  1       21 0.80108822E-01 0.20209301E+03</pdfrwt>
<pdfrwt beam="2">  1       21 0.17218867E-01 0.20209301E+03</pdfrwt>
<totfact> 0.41574368E+04</totfact>
</mgrwt>
</event>
<event>
 4    1  0.4053645E-001  0.1821771E+03  0.7546771E-02  0.1165713E+00
         21   -1    0    0  501  502  0.00000000000E+00  0.00000000000E+00  0.17653602002E+04  0.17653602002E+04  0.00000000000E+00 0.  1.
         21   -1    0    0  502  503 -0.00000000000E+00 -0.00000000000E+00 -0.18833568378E+02  0.18833568378E+02  0.00000000000E+00 0.  1.
          6    1    1    2  501    0 -0.33293876056E+02  0.46379075143E+02  0.91101197599E+03  0.92904861078E+03  0.17300000000E+03 0.  1.
         -6    1    1    2    0  503  0.33293876056E+02 -0.46379075143E+02  0.83551465581E+03  0.85514515778E+03  0.17300000000E+03 0.  1.
<mgrwt>
<rscale>  2 0.18217711E+03</rscale>
<asrwt>0</asrwt>
<pdfrwt beam="1">  1       21 0.27159375E+00 0.18217711E+03</pdfrwt>
<pdfrwt beam="2">  1       21 0.28974735E-02 0.18217711E+03</pdfrwt>
<totfact> 0.33664112E+04</totfact>
</mgrwt>
</event>
<event>
 4    1  0.4053645E-001  0.2443325E+03  0.7546771E-02  0.1116940E+00
         21   -1    0    0  501  502  0.00000000000E+00  0.00000000000E+00  0.64934570301E+03  0.64934570301E+03  0.00000000000E+00 0.  1.
         21   -1    0    0  502  503 -0.00000000000E+00 -0.00000000000E+00 -0.10840098602E+03  0.10840098602E+03  0.00000000000E+00 0. -1.
          6    1    1    2  501    0  0.10159999150E+03  0.13945179210E+03  0.41812995753E+03  0.48428403027E+03  0.17300000000E+03 0.  1.
         -6    1    1    2    0  503 -0.10159999150E+03 -0.13945179210E+03  0.12281475946E+03  0.27346265876E+03  0.17300000000E+03 0. -1.
<mgrwt>
<rscale>  2 0.24433248E+03</rscale>
<asrwt>0</asrwt>
<pdfrwt beam="1">  1       21 0.99899336E-01 0.24433248E+03</pdfrwt>
<pdfrwt beam="2">  1       21 0.16677075E-01 0.24433248E+03</pdfrwt>
<totfact> 0.25857943E+04</totfact>
</mgrwt>
</event>
<event>
 4    1  0.4053645E-001  0.2394697E+03  0.7546771E-02  0.1120147E+00
         21   -1    0    0  501  502  0.00000000000E+00  0.00000000000E+00  0.15243744166E+03  0.15243744166E+03  0.00000000000E+00 0.  1.
         21   -1    0    0  502  503 -0.00000000000E+00 -0.00000000000E+00 -0.38569249927E+03  0.38569249927E+03  0.00000000000E+00 0. -1.
          6    1    1    2  501    0 -0.14630893966E+02  0.16493229596E+03 -0.74398325401E+02  0.25076051549E+03  0.17300000000E+03 0. -1.
         -6    1    1    2    0  503  0.14630893966E+02 -0.16493229596E+03 -0.15885673220E+03  0.28736942544E+03  0.17300000000E+03 0.  1.
<mgrwt>
<rscale>  2 0.23946968E+03</rscale>
<asrwt>0</asrwt>
<pdfrwt beam="1">  1       21 0.23451914E-01 0.23946968E+03</pdfrwt>
<pdfrwt beam="2">  1       21 0.59337308E-01 0.23946968E+03</pdfrwt>
<totfact> 0.44404869E+04</totfact>
</mgrwt>
</event>
<event>
 4    1  0.4053645E-001  0.1831073E+03  0.7546771E-02  0.1164829E+00
         21   -1    0    0  503  502  0.00000000000E+00  0.00000000000E+00  0.14530571027E+04  0.14530571027E+04  0.00000000000E+00 0.  1.
         21   -1    0    0  501  503 -0.00000000000E+00 -0.00000000000E+00 -0.26911095795E+02  0.26911095795E+02  0.00000000000E+00 0.  1.
          6    1    1    2  501    0  0.38868624499E+02 -0.45700378382E+02  0.99248194323E+03  0.10092317386E+04  0.17300000000E+03 0.  1.
         -6    1    1    2    0  502 -0.38868624499E+02  0.45700378382E+02  0.43366406369E+03  0.47073645991E+03  0.17300000000E+03 0.  1.
<mgrwt>
<rscale>  2 0.18310733E+03</rscale>
<asrwt>0</asrwt>
<pdfrwt beam="1">  1       21 0.22354719E+00 0.18310733E+03</pdfrwt>
<pdfrwt beam="2">  1       21 0.41401697E-02 0.18310733E+03</pdfrwt>
<totfact> 0.35648288E+04</totfact>
</mgrwt>
</event>
<event>
 4    1  0.4053645E-001  0.1927653E+03  0.7546771E-02  0.1155991E+00
         21   -1    0    0  501  502  0.00000000000E+00  0.00000000000E+00  0.11523612400E+03  0.11523612400E+03  0.00000000000E+00 0. -1.
         21   -1    0    0  502  503 -0.00000000000E+00 -0.00000000000E+00 -0.32246048525E+03  0.32246048525E+03  0.00000000000E+00 0.  1.
          6    1    1    2  501    0  0.65422605210E+02  0.54308004587E+02 -0.10271836900E+03  0.21842513584E+03  0.17300000000E+03 0.  1.
         -6    1    1    2    0  503 -0.65422605210E+02 -0.54308004587E+02 -0.10450599225E+03  0.21927147341E+03  0.17300000000E+03 0.  1.
<mgrwt>
<rscale>  2 0.19276534E+03</rscale>
<asrwt>0</asrwt>
<pdfrwt beam="1">  1       21 0.17728634E-01 0.19276534E+03</pdfrwt>
<pdfrwt beam="2">  1       21 0.49609305E-01 0.19276534E+03</pdfrwt>
<totfact> 0.11184158E+05</totfact>
</mgrwt>
</event>
<event>
 4    1  0.4053645E-001  0.2363175E+03  0.7546771E-02  0.1122271E+00
         21   -1    0    0  501  502  0.00000000000E+00  0.00000000000E+00  0.17360119783E+03  0.17360119783E+03  0.00000000000E+00 0.  1.
         21   -1    0    0  502  503 -0.00000000000E+00 -0.00000000000E+00 -0.37459273580E+03  0.37459273580E+03  0.00000000000E+00 0.  1.
          6    1    1    2  501    0  0.11995212706E+02  0.16053990219E+03  0.25095042840E+01  0.23633079134E+03  0.17300000000E+03 0.  1.
         -6    1    1    2    0  503 -0.11995212706E+02 -0.16053990219E+03 -0.20350104226E+03  0.31186314230E+03  0.17300000000E+03 0.  1.
<mgrwt>
<rscale>  2 0.23631747E+03</rscale>
<asrwt>0</asrwt>
<pdfrwt beam="1">  1       21 0.26707877E-01 0.23631747E+03</pdfrwt>
<pdfrwt beam="2">  1       21 0.57629651E-01 0.23631747E+03</pdfrwt>
<totfact> 0.36892491E+04</totfact>
</mgrwt>
</event>
<event>
 4    1  0.4053645E-001  0.1941556E+03  0.7546771E-02  0.1154766E+00
         21   -1    0    0  503  502  0.00000000000E+00  0.00000000000E+00  0.12360424181E+03  0.12360424181E+03  0.00000000000E+00 0.  1.
         21   -1    0    0  501  503 -0.00000000000E+00 -0.00000000000E+00 -0.30523705719E+03  0.30523705719E+03  0.00000000000E+00 0.  1.
          6    1    1    2  501    0  0.69785997515E+02 -0.53826796341E+02 -0.97079111901E+02  0.21707317527E+03  0.17300000000E+03 0.  1.
         -6    1    1    2    0  502 -0.69785997515E+02  0.53826796341E+02 -0.84553703477E+02  0.21176812372E+03  0.17300000000E+03 0.  1.
<mgrwt>
<rscale>  2 0.19415563E+03</rscale>
<asrwt>0</asrwt>
<pdfrwt beam="1">  1       21 0.19016037E-01 0.19415563E+03</pdfrwt>
<pdfrwt beam="2">  1       21 0.46959547E-01 0.19415563E+03</pdfrwt>
<totfact> 0.11000663E+05</totfact>
</mgrwt>
</event>
<event>
 4    1  0.4053645E-001  0.2340461E+03  0.7546771E-02  0.1123824E+00
         21   -1    0    0  501  502  0.00000000000E+00  0.00000000000E+00  0.23271044308E+03  0.23271044308E+03  0.00000000000E+00 0.  1.
         21   -1    0    0  502  503 -0.00000000000E+00 -0.00000000000E+00 -0.27173570054E+03  0.27173570054E+03  0.00000000000E+00 0.  1.
          6    1    1    2  501    0  0.26542585758E+02 -0.15538362624E+03  0.72732055151E+02  0.24508678465E+03  0.17300000000E+03 0.  1.
         -6    1    1    2    0  503 -0.26542585758E+02  0.15538362624E+03 -0.11175731261E+03  0.25935935897E+03  0.17300000000E+03 0.  1.
<mgrwt>
<rscale>  2 0.23404611E+03</rscale>
<asrwt>0</asrwt>
<pdfrwt beam="1">  1       21 0.35801607E-01 0.23404611E+03</pdfrwt>
<pdfrwt beam="2">  1       21 0.41805492E-01 0.23404611E+03</pdfrwt>
<totfact> 0.40616428E+04</totfact>
</mgrwt>
</event>
<event>
 4    1  0.4053645E-001  0.2441759E+03  0.7546771E-02  0.1117042E+00
         21   -1    0    0  501  502  0.00000000000E+00  0.00000000000E+00  0.12306533512E+04  0.12306533512E+04  0.00000000000E+00 0.  1.
         21   -1    0    0  502  503 -0.00000000000E+00 -0.00000000000E+00 -0.10467552012E+03  0.10467552012E+03  0.00000000000E+00 0. -1.
          6    1    1    2  501    0  0.16781064630E+03 -0.39146753729E+02  0.10523311416E+04  0.10802882545E+04  0.17300000000E+03 0.  1.
         -6    1    1    2    0  503 -0.16781064630E+03  0.39146753729E+02  0.73646689508E+02  0.25504061680E+03  0.17300000000E+03 0. -1.
<mgrwt>
<rscale>  2 0.24417592E+03</rscale>
<asrwt>0</asrwt>
<pdfrwt beam="1">  1       21 0.18933127E+00 0.24417592E+03</pdfrwt>
<pdfrwt beam="2">  1       21 0.16103927E-01 0.24417592E+03</pdfrwt>
<totfact> 0.52050387E+03</totfact>
</mgrwt>
</event>
<event>
 4    1  0.4053645E-001  0.1955738E+03  0.7546771E-02  0.1153528E+00
         21   -1    0    0  501  502  0.00000000000E+00  0.00000000000E+00  0.38916575608E+03  0.38916575608E+03  0.00000000000E+00 0.  1.
         21   -1    0    0  502  503 -0.00000000000E+00 -0.00000000000E+00 -0.98581823802E+02  0.98581823802E+02  0.00000000000E+00 0.  1.
          6    1    1    2  501    0  0.53084007880E+02  0.74176839389E+02  0.15867618459E+03  0.25184766616E+03  0.17300000000E+03 0.  1.
         -6    1    1    2    0  503 -0.53084007880E+02 -0.74176839389E+02  0.13190774770E+03  0.23589991373E+03  0.17300000000E+03 0.  1.
<mgrwt>
<rscale>  2 0.19557381E+03</rscale>
<asrwt>0</asrwt>
<pdfrwt beam="1">  1       21 0.59871654E-01 0.19557381E+03</pdfrwt>
<pdfrwt beam="2">  1       21 0.15166435E-01 0.19557381E+03</pdfrwt>
<totfact> 0.99969187E+04</totfact>
</mgrwt>
</event>
<event>
 4    1  0.4053645E-001  0.2260789E+03  0.7546771E-02  0.1129430E+00
         21   -1    0    0  501  502  0.00000000000E+00  0.00000000000E+00  0.40267399997E+02  0.40267399997E+02  0.00000000000E+00 0.  1.
         21   -1    0    0  502  503 -0.00000000000E+00 -0.00000000000E+00 -0.13428833241E+04  0.13428833241E+04  0.00000000000E+00 0. -1.
          6    1    1    2  501    0 -0.96148914661E+02 -0.10926150510E+03 -0.81318661867E+03  0.84402853451E+03  0.17300000000E+03 0. -1.
         -6    1    1    2    0  503  0.96148914661E+02  0.10926150510E+03 -0.48942930545E+03  0.53912218961E+03  0.17300000000E+03 0.  1.
<mgrwt>
<rscale>  2 0.22607895E+03</rscale>
<asrwt>0</asrwt>
<pdfrwt beam="1">  1       21 0.61949864E-02 0.22607895E+03</pdfrwt>
<pdfrwt beam="2">  1       21 0.20659738E+00 0.22607895E+03</pdfrwt>
<totfact> 0.22208389E+04</totfact>
</mgrwt>
</event>
<event>
 4    1  0.4053645E-001  0.3130637E+03  0.7546771E-02  0.1078887E+00
         21   -1    0    0  503  502  0.00000000000E+00  0.00000000000E+00  0.12449632470E+04  0.12449632470E+04  0.00000000000E+00 0.  1.
         21   -1    0    0  501  503 -0.00000000000E+00 -0.00000000000E+00 -0.81289822443E+02  0.81289822443E+02  0.00000000000E+00 0. -1.
          6    1    1    2  501    0 -0.11738934182E+03  0.23302283026E+03  0.46403171255E+03  0.55976274193E+03  0.17300000000E+03 0. -1.
         -6    1    1    2    0  502  0.11738934182E+03 -0.23302283026E+03  0.69964171200E+03  0.76649032751E+03  0.17300000000E+03 0.  1.
<mgrwt>
<rscale>  2 0.31306373E+03</rscale>
<asrwt>0</asrwt>
<pdfrwt beam="1">  1       21 0.19153279E+00 0.31306373E+03</pdfrwt>
<pdfrwt beam="2">  1       21 0.12506127E-01 0.31306373E+03</pdfrwt>
<totfact> 0.76538238E+03</totfact>
</mgrwt>
</event>
<event>
 4    1  0.4053645E-001  0.2179018E+03  0.7546771E-02  0.1135457E+00
         21   -1    0    0  501  502  0.00000000000E+00  0.00000000000E+00  0.22987550395E+03  0.22987550395E+03  0.00000000000E+00 0. -1.
         21   -1    0    0  502  503 -0.00000000000E+00 -0.00000000000E+00 -0.26270690937E+03  0.26270690937E+03  0.00000000000E+00 0. -1.
          6    1    1    2  501    0  0.13379648590E+02  0.13180729722E+03  0.97453988466E+02  0.23870160968E+03  0.17300000000E+03 0. -1.
         -6    1    1    2    0  503 -0.13379648590E+02 -0.13180729722E+03 -0.13028539388E+03  0.25388080364E+03  0.17300000000E+03 0. -1.
<mgrwt>
<rscale>  2 0.21790176E+03</rscale>
<asrwt>0</asrwt>
<pdfrwt beam="1">  1       21 0.35365462E-01 0.21790176E+03</pdfrwt>
<pdfrwt beam="2">  1       21 0.40416447E-01 0.21790176E+03</pdfrwt>
<totfact> 0.44914533E+04</totfact>
</mgrwt>
</event>
<event>
 4    1  0.4053645E-001  0.2081592E+03  0.7546771E-02  0.1143032E+00
         21   -1    0    0  503  502  0.00000000000E+00  0.00000000000E+00  0.11773981752E+03  0.11773981752E+03  0.00000000000E+00 0.  1.
         21   -1    0    0  501  503 -0.00000000000E+00 -0.00000000000E+00 -0.37257998707E+03  0.37257998707E+03  0.00000000000E+00 0.  1.
          6    1    1    2  501    0 -0.52595540400E+02  0.10312602714E+03 -0.15455063934E+03  0.25926081167E+03  0.17300000000E+03 0.  1.
         -6    1    1    2    0  502  0.52595540400E+02 -0.10312602714E+03 -0.10028953020E+03  0.23105899293E+03  0.17300000000E+03 0.  1.
<mgrwt>
<rscale>  2 0.20815924E+03</rscale>
<asrwt>0</asrwt>
<pdfrwt beam="1">  1       21 0.18113818E-01 0.20815924E+03</pdfrwt>
<pdfrwt beam="2">  1       21 0.57319997E-01 0.20815924E+03</pdfrwt>
<totfact> 0.78759444E+04</totfact>
</mgrwt>
</event>
<event>
 4    1  0.4053645E-001  0.1793615E+03  0.7546771E-02  0.1168422E+00
         21   -1    0    0  503  502  0.00000000000E+00  0.00000000000E+00  0.29097934475E+03  0.29097934475E+03  0.00000000000E+00 0.  1.
         21   -1    0    0  501  503 -0.00000000000E+00 -0.00000000000E+00 -0.11274954364E+03  0.11274954364E+03  0.00000000000E+00 0.  1.
          6    1    1    2  501    0  0.32075701754E+02 -0.34823550151E+02  0.60981060385E+02  0.18944450378E+03  0.17300000000E+03 0.  1.
         -6    1    1    2    0  502 -0.32075701754E+02  0.34823550151E+02  0.11724874073E+03  0.21428438461E+03  0.17300000000E+03 0.  1.
<mgrwt>
<rscale>  2 0.17936145E+03</rscale>
<asrwt>0</asrwt>
<pdfrwt beam="1">  1       21 0.44766053E-01 0.17936145E+03</pdfrwt>
<pdfrwt beam="2">  1       21 0.17346084E-01 0.17936145E+03</pdfrwt>
<totfact> 0.14460932E+05</totfact>
</mgrwt>
</event>
<event>
 4    1  0.4053645E-001  0.1834653E+03  0.7546771E-02  0.1164491E+00
         21   -1    0    0  503  502  0.00000000000E+00  0.00000000000E+00  0.69387358525E+03  0.69387358525E+03  0.00000000000E+00 0.  1.
         21   -1    0    0  501  503 -0.00000000000E+00 -0.00000000000E+00 -0.48709437304E+02  0.48709437304E+02  0.00000000000E+00 0.  1.
          6    1    1    2  501    0 -0.30322703060E+02  0.53019301696E+02  0.29879867133E+03  0.35062823426E+03  0.17300000000E+03 0.  1.
         -6    1    1    2    0  502  0.30322703060E+02 -0.53019301696E+02  0.34636547661E+03  0.39195478829E+03  0.17300000000E+03 0.  1.
<mgrwt>
<rscale>  2 0.18346529E+03</rscale>
<asrwt>0</asrwt>
<pdfrwt beam="1">  1       21 0.10674978E+00 0.18346529E+03</pdfrwt>
<pdfrwt beam="2">  1       21 0.74937601E-02 0.18346529E+03</pdfrwt>
<totfact> 0.94760997E+04</totfact>
</mgrwt>
</event>
<event>
 4    1  0.4053645E-001  0.1754130E+03  0.7546771E-02  0.1172318E+00
         21   -1    0    0  503  502  0.00000000000E+00  0.00000000000E+00  0.13301787137E+04  0.13301787137E+04  0.00000000000E+00 0.  1.
         21   -1    0    0  501  503 -0.00000000000E+00 -0.00000000000E+00 -0.29830366964E+02  0.29830366964E+02  0.00000000000E+00 0.  1.
          6    1    1    2  501    0  0.25887305393E+02 -0.13060505860E+02  0.32794406292E+03  0.37190998615E+03  0.17300000000E+03 0.  1.
         -6    1    1    2    0  502 -0.25887305393E+02  0.13060505860E+02  0.97240428380E+03  0.98809909450E+03  0.17300000000E+03 0.  1.
<mgrwt>
<rscale>  2 0.17541303E+03</rscale>
<asrwt>0</asrwt>
<pdfrwt beam="1">  1       21 0.20464283E+00 0.17541303E+03</pdfrwt>
<pdfrwt beam="2">  1       21 0.45892882E-02 0.17541303E+03</pdfrwt>
<totfact> 0.39477578E+04</totfact>
</mgrwt>
</event>
<event>
 4    1  0.4053645E-001  0.2059745E+03  0.7546771E-02  0.1144794E+00
         21   -1    0    0  503  502  0.00000000000E+00  0.00000000000E+00  0.40312704264E+02  0.40312704264E+02  0.00000000000E+00 0.  1.
         21   -1    0    0  501  503 -0.00000000000E+00 -0.00000000000E+00 -0.11681346122E+04  0.11681346122E+04  0.00000000000E+00 0. -1.
          6    1    1    2  501    0  0.10782367571E+03 -0.29504818830E+02 -0.75409092871E+03  0.78171517073E+03  0.17300000000E+03 0. -1.
         -6    1    1    2    0  502 -0.10782367571E+03  0.29504818830E+02 -0.37373097926E+03  0.42673214578E+03  0.17300000000E+03 0.  1.
<mgrwt>
<rscale>  2 0.20597446E+03</rscale>
<asrwt>0</asrwt>
<pdfrwt beam="1">  1       21 0.62019548E-02 0.20597446E+03</pdfrwt>
<pdfrwt beam="2">  1       21 0.17971301E+00 0.20597446E+03</pdfrwt>
<totfact> 0.33756326E+04</totfact>
</mgrwt>
</event>
<event>
 4    1  0.4053645E-001  0.2536445E+03  0.7546771E-02  0.1111023E+00
         21   -1    0    0  503  502  0.00000000000E+00  0.00000000000E+00  0.23932452065E+04  0.23932452065E+04  0.00000000000E+00 0.  1.
         21   -1    0    0  501  503 -0.00000000000E+00 -0.00000000000E+00 -0.36694944264E+02  0.36694944264E+02  0.00000000000E+00 0. -1.
          6    1    1    2  501    0  0.13069316978E+03  0.13162752166E+03  0.54998615966E+03  0.60565690362E+03  0.17300000000E+03 0. -1.
         -6    1    1    2    0  502 -0.13069316978E+03 -0.13162752166E+03  0.18065641025E+04  0.18242832471E+04  0.17300000000E+03 0.  1.
<mgrwt>
<rscale>  2 0.25364445E+03</rscale>
<asrwt>0</asrwt>
<pdfrwt beam="1">  1       21 0.36819145E+00 0.25364445E+03</pdfrwt>
<pdfrwt beam="2">  1       21 0.56453779E-02 0.25364445E+03</pdfrwt>
<totfact> 0.27725461E+03</totfact>
</mgrwt>
</event>
<event>
 4    1  0.4053645E-001  0.1754847E+03  0.7546771E-02  0.1172246E+00
         21   -1    0    0  503  502  0.00000000000E+00  0.00000000000E+00  0.10342000620E+04  0.10342000620E+04  0.00000000000E+00 0. -1.
         21   -1    0    0  501  503 -0.00000000000E+00 -0.00000000000E+00 -0.29892488623E+02  0.29892488623E+02  0.00000000000E+00 0. -1.
          6    1    1    2  501    0 -0.16231532657E+02  0.24543966481E+02  0.53529409310E+03  0.56332462671E+03  0.17300000000E+03 0. -1.
         -6    1    1    2    0  502  0.16231532657E+02 -0.24543966481E+02  0.46901348023E+03  0.50076792387E+03  0.17300000000E+03 0. -1.
<mgrwt>
<rscale>  2 0.17548467E+03</rscale>
<asrwt>0</asrwt>
<pdfrwt beam="1">  1       21 0.15910767E+00 0.17548467E+03</pdfrwt>
<pdfrwt beam="2">  1       21 0.45988452E-02 0.17548467E+03</pdfrwt>
<totfact> 0.79894756E+04</totfact>
</mgrwt>
</event>
<event>
 4    1  0.4053645E-001  0.1819837E+03  0.7546771E-02  0.1165897E+00
         21   -1    0    0  501  502  0.00000000000E+00  0.00000000000E+00  0.23746236129E+03  0.23746236129E+03  0.00000000000E+00 0. -1.
         21   -1    0    0  502  503 -0.00000000000E+00 -0.00000000000E+00 -0.14184615643E+03  0.14184615643E+03  0.00000000000E+00 0. -1.
          6    1    1    2  501    0  0.19651025403E+02 -0.52942376729E+02  0.72372476388E+02  0.19584645361E+03  0.17300000000E+03 0. -1.
         -6    1    1    2    0  503 -0.19651025403E+02  0.52942376729E+02  0.23243728475E+02  0.18346206411E+03  0.17300000000E+03 0. -1.
<mgrwt>
<rscale>  2 0.18198368E+03</rscale>
<asrwt>0</asrwt>
<pdfrwt beam="1">  1       21 0.36532671E-01 0.18198368E+03</pdfrwt>
<pdfrwt beam="2">  1       21 0.21822486E-01 0.18198368E+03</pdfrwt>
<totfact> 0.14212593E+05</totfact>
</mgrwt>
</event>
<event>
 4    1  0.4053645E-001  0.1816243E+03  0.7546771E-02  0.1166240E+00
         21   -1    0    0  501  502  0.00000000000E+00  0.00000000000E+00  0.81058405364E+02  0.81058405364E+02  0.00000000000E+00 0. -1.
         21   -1    0    0  502  503 -0.00000000000E+00 -0.00000000000E+00 -0.41970947930E+03  0.41970947930E+03  0.00000000000E+00 0. -1.
          6    1    1    2  501    0  0.38054210872E+02 -0.40128271234E+02 -0.21296758299E+03  0.27989746788E+03  0.17300000000E+03 0. -1.
         -6    1    1    2    0  503 -0.38054210872E+02  0.40128271234E+02 -0.12568349094E+03  0.22087041679E+03  0.17300000000E+03 0. -1.
<mgrwt>
<rscale>  2 0.18162434E+03</rscale>
<asrwt>0</asrwt>
<pdfrwt beam="1">  1       21 0.12470524E-01 0.18162434E+03</pdfrwt>
<pdfrwt beam="2">  1       21 0.64570690E-01 0.18162434E+03</pdfrwt>
<totfact> 0.12159449E+05</totfact>
</mgrwt>
</event>
<event>
 4    1  0.4053645E-001  0.1765110E+03  0.7546771E-02  0.1171223E+00
         21   -1    0    0  503  502  0.00000000000E+00  0.00000000000E+00  0.65028819162E+03  0.65028819162E+03  0.00000000000E+00 0. -1.
         21   -1    0    0  501  503 -0.00000000000E+00 -0.00000000000E+00 -0.52887704942E+02  0.52887704942E+02  0.00000000000E+00 0. -1.
          6    1    1    2  501    0  0.25100995467E+02  0.24435250706E+02  0.19085146594E+03  0.25996235017E+03  0.17300000000E+03 0. -1.
         -6    1    1    2    0  502 -0.25100995467E+02 -0.24435250706E+02  0.40654902074E+03  0.44321354640E+03  0.17300000000E+03 0. -1.
<mgrwt>
<rscale>  2 0.17651102E+03</rscale>
<asrwt>0</asrwt>
<pdfrwt beam="1">  1       21 0.10004433E+00 0.17651102E+03</pdfrwt>
<pdfrwt beam="2">  1       21 0.81365705E-02 0.17651102E+03</pdfrwt>
<totfact> 0.96203822E+04</totfact>
</mgrwt>
</event>
<event>
 4    1  0.4053645E-001  0.1830251E+03  0.7546771E-02  0.1164907E+00
         21   -1    0    0  501  502  0.00000000000E+00  0.00000000000E+00  0.75529633086E+03  0.75529633086E+03  0.00000000000E+00 0. -1.
         21   -1    0    0  502  503 -0.00000000000E+00 -0.00000000000E+00 -0.49908262017E+02  0.49908262017E+02  0.00000000000E+00 0. -1.
          6    1    1    2  501    0  0.48955265011E+02 -0.34242949343E+02  0.48703791087E+03  0.52029234491E+03  0.17300000000E+03 0. -1.
         -6    1    1    2    0  503 -0.48955265011E+02  0.34242949343E+02  0.21835015797E+03  0.28491224796E+03  0.17300000000E+03 0. -1.
<mgrwt>
<rscale>  2 0.18302513E+03</rscale>
<asrwt>0</asrwt>
<pdfrwt beam="1">  1       21 0.11619943E+00 0.18302513E+03</pdfrwt>
<pdfrwt beam="2">  1       21 0.76781947E-02 0.18302513E+03</pdfrwt>
<totfact> 0.73998781E+04</totfact>
</mgrwt>
</event>
<event>
 4    1  0.4053645E-001  0.2760379E+03  0.7546771E-02  0.1097873E+00
         21   -1    0    0  503  502  0.00000000000E+00  0.00000000000E+00  0.10880202602E+03  0.10880202602E+03  0.00000000000E+00 0.  1.
         21   -1    0    0  501  503 -0.00000000000E+00 -0.00000000000E+00 -0.71460656403E+03  0.71460656403E+03  0.00000000000E+00 0.  1.
          6    1    1    2  501    0 -0.18662128036E+03  0.10695988831E+03 -0.36110187724E+03  0.45452336104E+03  0.17300000000E+03 0.  1.
         -6    1    1    2    0  502  0.18662128036E+03 -0.10695988831E+03 -0.24470266078E+03  0.36888522901E+03  0.17300000000E+03 0.  1.
<mgrwt>
<rscale>  2 0.27603790E+03</rscale>
<asrwt>0</asrwt>
<pdfrwt beam="1">  1       21 0.16738773E-01 0.27603790E+03</pdfrwt>
<pdfrwt beam="2">  1       21 0.10993947E+00 0.27603790E+03</pdfrwt>
<totfact> 0.20065023E+04</totfact>
</mgrwt>
</event>
<event>
 4    1  0.4053645E-001  0.2559713E+03  0.7546771E-02  0.1109588E+00
         21   -1    0    0  503  502  0.00000000000E+00  0.00000000000E+00  0.27371696786E+03  0.27371696786E+03  0.00000000000E+00 0.  1.
         21   -1    0    0  501  503 -0.00000000000E+00 -0.00000000000E+00 -0.24129866373E+03  0.24129866373E+03  0.00000000000E+00 0. -1.
          6    1    1    2  501    0 -0.15858943026E+03  0.10218460962E+03 -0.67762805965E+01  0.25606096894E+03  0.17300000000E+03 0.  1.
         -6    1    1    2    0  502  0.15858943026E+03 -0.10218460962E+03  0.39194584730E+02  0.25895466265E+03  0.17300000000E+03 0. -1.
<mgrwt>
<rscale>  2 0.25597129E+03</rscale>
<asrwt>0</asrwt>
<pdfrwt beam="1">  1       21 0.42110303E-01 0.25597129E+03</pdfrwt>
<pdfrwt beam="2">  1       21 0.37122871E-01 0.25597129E+03</pdfrwt>
<totfact> 0.36865193E+04</totfact>
</mgrwt>
</event>
<event>
 4    1  0.4053645E-001  0.1943089E+03  0.7546771E-02  0.1154631E+00
         21   -1    0    0  503  502  0.00000000000E+00  0.00000000000E+00  0.10202244362E+03  0.10202244362E+03  0.00000000000E+00 0. -1.
         21   -1    0    0  501  503 -0.00000000000E+00 -0.00000000000E+00 -0.37014503478E+03  0.37014503478E+03  0.00000000000E+00 0. -1.
          6    1    1    2  501    0 -0.55577803044E+02  0.68833656929E+02 -0.13081586275E+03  0.23424080444E+03  0.17300000000E+03 0. -1.
         -6    1    1    2    0  502  0.55577803044E+02 -0.68833656929E+02 -0.13730672841E+03  0.23792667396E+03  0.17300000000E+03 0. -1.
<mgrwt>
<rscale>  2 0.19430894E+03</rscale>
<asrwt>0</asrwt>
<pdfrwt beam="1">  1       21 0.15695761E-01 0.19430894E+03</pdfrwt>
<pdfrwt beam="2">  1       21 0.56945390E-01 0.19430894E+03</pdfrwt>
<totfact> 0.10457572E+05</totfact>
</mgrwt>
</event>
<event>
 4    1  0.4053645E-001  0.1940512E+03  0.7546771E-02  0.1154857E+00
         21   -1    0    0  501  502  0.00000000000E+00  0.00000000000E+00  0.12242947972E+03  0.12242947972E+03  0.00000000000E+00 0.  1.
         21   -1    0    0  502  503 -0.00000000000E+00 -0.00000000000E+00 -0.33088648550E+03  0.33088648550E+03  0.00000000000E+00 0.  1.
          6    1    1    2  501    0  0.77619952181E+02  0.41255321701E+02 -0.44063208007E+02  0.19899101700E+03  0.17300000000E+03 0.  1.
         -6    1    1    2    0  503 -0.77619952181E+02 -0.41255321701E+02 -0.16439379778E+03  0.25432494823E+03  0.17300000000E+03 0.  1.
<mgrwt>
<rscale>  2 0.19405118E+03</rscale>
<asrwt>0</asrwt>
<pdfrwt beam="1">  1       21 0.18835305E-01 0.19405118E+03</pdfrwt>
<pdfrwt beam="2">  1       21 0.50905612E-01 0.19405118E+03</pdfrwt>
<totfact> 0.94690257E+04</totfact>
</mgrwt>
</event>
<event>
 4    1  0.4053645E-001  0.1797919E+03  0.7546771E-02  0.1168005E+00
         21   -1    0    0  503  502  0.00000000000E+00  0.00000000000E+00  0.22793804535E+03  0.22793804535E+03  0.00000000000E+00 0.  1.
         21   -1    0    0  501  503 -0.00000000000E+00 -0.00000000000E+00 -0.18138694222E+03  0.18138694222E+03  0.00000000000E+00 0. -1.
          6    1    1    2  501    0 -0.30881396623E+02  0.37979990468E+02 -0.72317510381E+02  0.19379102828E+03  0.17300000000E+03 0. -1.
         -6    1    1    2    0  502  0.30881396623E+02 -0.37979990468E+02  0.11886861351E+03  0.21553395930E+03  0.17300000000E+03 0.  1.
<mgrwt>
<rscale>  2 0.17979194E+03</rscale>
<asrwt>0</asrwt>
<pdfrwt beam="1">  1       21 0.35067392E-01 0.17979194E+03</pdfrwt>
<pdfrwt beam="2">  1       21 0.27905683E-01 0.17979194E+03</pdfrwt>
<totfact> 0.96607809E+04</totfact>
</mgrwt>
</event>
<event>
 4    1  0.4053645E-001  0.2408459E+03  0.7546771E-02  0.1119231E+00
         21   -1    0    0  503  502  0.00000000000E+00  0.00000000000E+00  0.41485344997E+03  0.41485344997E+03  0.00000000000E+00 0.  1.
         21   -1    0    0  501  503 -0.00000000000E+00 -0.00000000000E+00 -0.31375120171E+03  0.31375120171E+03  0.00000000000E+00 0.  1.
          6    1    1    2  501    0 -0.14679432237E+03  0.80803395058E+02 -0.22068786568E+03  0.32666480648E+03  0.17300000000E+03 0.  1.
         -6    1    1    2    0  502  0.14679432237E+03 -0.80803395058E+02  0.32179011394E+03  0.40193984521E+03  0.17300000000E+03 0.  1.
<mgrwt>
<rscale>  2 0.24084593E+03</rscale>
<asrwt>0</asrwt>
<pdfrwt beam="1">  1       21 0.63823608E-01 0.24084593E+03</pdfrwt>
<pdfrwt beam="2">  1       21 0.48269416E-01 0.24084593E+03</pdfrwt>
<totfact> 0.90117210E+03</totfact>
</mgrwt>
</event>
<event>
 4    1  0.4053645E-001  0.1926413E+03  0.7546771E-02  0.1156100E+00
         21   -1    0    0  501  502  0.00000000000E+00  0.00000000000E+00  0.17940232427E+03  0.17940232427E+03  0.00000000000E+00 0. -1.
         21   -1    0    0  502  503 -0.00000000000E+00 -0.00000000000E+00 -0.42590213752E+03  0.42590213752E+03  0.00000000000E+00 0. -1.
          6    1    1    2  501    0  0.58430384540E+02  0.61380514796E+02  0.93797947840E+02  0.21426323169E+03  0.17300000000E+03 0. -1.
         -6    1    1    2    0  503 -0.58430384540E+02 -0.61380514796E+02 -0.34029776109E+03  0.39104123010E+03  0.17300000000E+03 0. -1.
<mgrwt>
<rscale>  2 0.19264132E+03</rscale>
<asrwt>0</asrwt>
<pdfrwt beam="1">  1       21 0.27600358E-01 0.19264132E+03</pdfrwt>
<pdfrwt beam="2">  1       21 0.65523405E-01 0.19264132E+03</pdfrwt>
<totfact> 0.26831017E+04</totfact>
</mgrwt>
</event>
<event>
 4    1  0.4053645E-001  0.2310702E+03  0.7546771E-02  0.1125889E+00
         21   -1    0    0  503  502  0.00000000000E+00  0.00000000000E+00  0.20604509082E+03  0.20604509082E+03  0.00000000000E+00 0.  1.
         21   -1    0    0  501  503 -0.00000000000E+00 -0.00000000000E+00 -0.28644186944E+03  0.28644186944E+03  0.00000000000E+00 0.  1.
          6    1    1    2  501    0 -0.36681156861E+02 -0.14872433254E+03  0.35831572586E+02  0.23383185402E+03  0.17300000000E+03 0.  1.
         -6    1    1    2    0  502  0.36681156861E+02  0.14872433254E+03 -0.11622835120E+03  0.25865510624E+03  0.17300000000E+03 0.  1.
<mgrwt>
<rscale>  2 0.23107019E+03</rscale>
<asrwt>0</asrwt>
<pdfrwt beam="1">  1       21 0.31699245E-01 0.23107019E+03</pdfrwt>
<pdfrwt beam="2">  1       21 0.44067980E-01 0.23107019E+03</pdfrwt>
<totfact> 0.46478819E+04</totfact>
</mgrwt>
</event>
<event>
 4    1  0.4053645E-001  0.1780575E+03  0.7546771E-02  0.1169696E+00
         21   -1    0    0  503  502  0.00000000000E+00  0.00000000000E+00  0.48181829769E+03  0.48181829769E+03  0.00000000000E+00 0. -1.
         21   -1    0    0  501  503 -0.00000000000E+00 -0.00000000000E+00 -0.79793909402E+02  0.79793909402E+02  0.00000000000E+00 0. -1.
          6    1    1    2  501    0 -0.39275411841E+02  0.15261643757E+02  0.83423812933E+02  0.19663165643E+03  0.17300000000E+03 0. -1.
         -6    1    1    2    0  502  0.39275411841E+02 -0.15261643757E+02  0.31860057535E+03  0.36498055066E+03  0.17300000000E+03 0. -1.
<mgrwt>
<rscale>  2 0.17805751E+03</rscale>
<asrwt>0</asrwt>
<pdfrwt beam="1">  1       21 0.74125890E-01 0.17805751E+03</pdfrwt>
<pdfrwt beam="2">  1       21 0.12275986E-01 0.17805751E+03</pdfrwt>
<totfact> 0.92491455E+04</totfact>
</mgrwt>
</event>
<event>
 4    1  0.4053645E-001  0.1872985E+03  0.7546771E-02  0.1160921E+00
         21   -1    0    0  503  502  0.00000000000E+00  0.00000000000E+00  0.14408938498E+03  0.14408938498E+03  0.00000000000E+00 0.  1.
         21   -1    0    0  501  503 -0.00000000000E+00 -0.00000000000E+00 -0.25847277571E+03  0.25847277571E+03  0.00000000000E+00 0.  1.
          6    1    1    2  501    0  0.67120429460E+02  0.25427773100E+02 -0.86903754223E+01  0.18749999019E+03  0.17300000000E+03 0.  1.
         -6    1    1    2    0  502 -0.67120429460E+02 -0.25427773100E+02 -0.10569301531E+03  0.21506217050E+03  0.17300000000E+03 0.  1.
<mgrwt>
<rscale>  2 0.18729849E+03</rscale>
<asrwt>0</asrwt>
<pdfrwt beam="1">  1       21 0.22167598E-01 0.18729849E+03</pdfrwt>
<pdfrwt beam="2">  1       21 0.39765042E-01 0.18729849E+03</pdfrwt>
<totfact> 0.11621423E+05</totfact>
</mgrwt>
</event>
<event>
 4    1  0.4053645E-001  0.1809879E+03  0.7546771E-02  0.1166850E+00
         21   -1    0    0  501  502  0.00000000000E+00  0.00000000000E+00  0.22642977358E+04  0.22642977358E+04  0.00000000000E+00 0.  1.
         21   -1    0    0  502  503 -0.00000000000E+00 -0.00000000000E+00 -0.14468136243E+02  0.14468136243E+02  0.00000000000E+00 0.  1.
          6    1    1    2  501    0 -0.52155470142E+02  0.10365283292E+02  0.11130775442E+04  0.11276959925E+04  0.17300000000E+03 0.  1.
         -6    1    1    2    0  503  0.52155470142E+02 -0.10365283292E+02  0.11367520553E+04  0.11510698795E+04  0.17300000000E+03 0.  1.
<mgrwt>
<rscale>  2 0.18098793E+03</rscale>
<asrwt>0</asrwt>
<pdfrwt beam="1">  1       21 0.34835322E+00 0.18098793E+03</pdfrwt>
<pdfrwt beam="2">  1       21 0.22258689E-02 0.18098793E+03</pdfrwt>
<totfact> 0.18737045E+04</totfact>
</mgrwt>
</event>
<event>
 4    1  0.4053645E-001  0.2019029E+03  0.7546771E-02  0.1148143E+00
         21   -1    0    0  503  502  0.00000000000E+00  0.00000000000E+00  0.88873983913E+02  0.88873983913E+02  0.00000000000E+00 0. -1.
         21   -1    0    0  501  503 -0.00000000000E+00 -0.00000000000E+00 -0.46069323331E+03  0.46069323331E+03  0.00000000000E+00 0.  1.
          6    1    1    2  501    0  0.91529742501E+01 -0.10369190442E+03 -0.20407097589E+03  0.28707098631E+03  0.17300000000E+03 0. -1.
         -6    1    1    2    0  502 -0.91529742501E+01  0.10369190442E+03 -0.16774827351E+03  0.26249623091E+03  0.17300000000E+03 0. -1.
<mgrwt>
<rscale>  2 0.20190292E+03</rscale>
<asrwt>0</asrwt>
<pdfrwt beam="1">  1       21 0.13672921E-01 0.20190292E+03</pdfrwt>
<pdfrwt beam="2">  1       21 0.70875880E-01 0.20190292E+03</pdfrwt>
<totfact> 0.83324153E+04</totfact>
</mgrwt>
</event>
<event>
 4    1  0.4053645E-001  0.1784990E+03  0.7546771E-02  0.1169264E+00
         21   -1    0    0  503  502  0.00000000000E+00  0.00000000000E+00  0.49153678004E+02  0.49153678004E+02  0.00000000000E+00 0.  1.
         21   -1    0    0  501  503 -0.00000000000E+00 -0.00000000000E+00 -0.93479023881E+03  0.93479023881E+03  0.00000000000E+00 0.  1.
          6    1    1    2  501    0  0.40283531917E+02 -0.17610505448E+02 -0.71521795348E+03  0.73715575954E+03  0.17300000000E+03 0.  1.
         -6    1    1    2    0  502 -0.40283531917E+02  0.17610505448E+02 -0.17041860732E+03  0.24678815727E+03  0.17300000000E+03 0.  1.
<mgrwt>
<rscale>  2 0.17849900E+03</rscale>
<asrwt>0</asrwt>
<pdfrwt beam="1">  1       21 0.75621047E-02 0.17849900E+03</pdfrwt>
<pdfrwt beam="2">  1       21 0.14381388E+00 0.17849900E+03</pdfrwt>
<totfact> 0.44521508E+04</totfact>
</mgrwt>
</event>
<event>
 4    1  0.4053645E-001  0.2873258E+03  0.7546771E-02  0.1091754E+00
         21   -1    0    0  503  502  0.00000000000E+00  0.00000000000E+00  0.89014107811E+03  0.89014107811E+03  0.00000000000E+00 0. -1.
         21   -1    0    0  501  503 -0.00000000000E+00 -0.00000000000E+00 -0.93889043095E+02  0.93889043095E+02  0.00000000000E+00 0. -1.
          6    1    1    2  501    0  0.65075328842E+02 -0.21998249514E+03  0.45243856463E+03  0.53596338621E+03  0.17300000000E+03 0. -1.
         -6    1    1    2    0  502 -0.65075328842E+02  0.21998249514E+03  0.34381347038E+03  0.44806673499E+03  0.17300000000E+03 0. -1.
<mgrwt>
<rscale>  2 0.28732577E+03</rscale>
<asrwt>0</asrwt>
<pdfrwt beam="1">  1       21 0.13694478E+00 0.28732577E+03</pdfrwt>
<pdfrwt beam="2">  1       21 0.14444469E-01 0.28732577E+03</pdfrwt>
<totfact> 0.15063797E+04</totfact>
</mgrwt>
</event>
<event>
 4    1  0.4053645E-001  0.2435974E+03  0.7546771E-02  0.1117419E+00
         21   -1    0    0  501  502  0.00000000000E+00  0.00000000000E+00  0.38755181389E+03  0.38755181389E+03  0.00000000000E+00 0.  1.
         21   -1    0    0  502  503 -0.00000000000E+00 -0.00000000000E+00 -0.18278449399E+03  0.18278449399E+03  0.00000000000E+00 0.  1.
          6    1    1    2  501    0  0.17146934477E+03 -0.29926666134E+01  0.21727628558E+03  0.32641794762E+03  0.17300000000E+03 0.  1.
         -6    1    1    2    0  503 -0.17146934477E+03  0.29926666134E+01 -0.12508965684E+02  0.24391836026E+03  0.17300000000E+03 0.  1.
<mgrwt>
<rscale>  2 0.24359740E+03</rscale>
<asrwt>0</asrwt>
<pdfrwt beam="1">  1       21 0.59623356E-01 0.24359740E+03</pdfrwt>
<pdfrwt beam="2">  1       21 0.28120692E-01 0.24359740E+03</pdfrwt>
<totfact> 0.30927097E+04</totfact>
</mgrwt>
</event>
<event>
 4    1  0.4053645E-001  0.2116736E+03  0.7546771E-02  0.1140248E+00
         21   -1    0    0  501  502  0.00000000000E+00  0.00000000000E+00  0.58554981804E+03  0.58554981804E+03  0.00000000000E+00 0. -1.
         21   -1    0    0  502  503 -0.00000000000E+00 -0.00000000000E+00 -0.84627685668E+02  0.84627685668E+02  0.00000000000E+00 0.  1.
          6    1    1    2  501    0  0.12160025350E+03  0.94910654659E+01  0.35418480046E+03  0.41261674087E+03  0.17300000000E+03 0. -1.
         -6    1    1    2    0  503 -0.12160025350E+03 -0.94910654659E+01  0.14673733191E+03  0.25756076283E+03  0.17300000000E+03 0.  1.
<mgrwt>
<rscale>  2 0.21167357E+03</rscale>
<asrwt>0</asrwt>
<pdfrwt beam="1">  1       21 0.90084585E-01 0.21167357E+03</pdfrwt>
<pdfrwt beam="2">  1       21 0.13019644E-01 0.21167357E+03</pdfrwt>
<totfact> 0.52645046E+04</totfact>
</mgrwt>
</event>
<event>
 4    1  0.4053645E-001  0.2753435E+03  0.7546771E-02  0.1098260E+00
         21   -1    0    0  503  502  0.00000000000E+00  0.00000000000E+00  0.21782657664E+03  0.21782657664E+03  0.00000000000E+00 0.  1.
         21   -1    0    0  501  503 -0.00000000000E+00 -0.00000000000E+00 -0.36656030895E+03  0.36656030895E+03  0.00000000000E+00 0.  1.
          6    1    1    2  501    0 -0.13440497014E+02  0.21378583718E+03 -0.14003156904E+03  0.30890592656E+03  0.17300000000E+03 0.  1.
         -6    1    1    2    0  502  0.13440497014E+02 -0.21378583718E+03 -0.87021632597E+01  0.27548095902E+03  0.17300000000E+03 0.  1.
<mgrwt>
<rscale>  2 0.27534348E+03</rscale>
<asrwt>0</asrwt>
<pdfrwt beam="1">  1       21 0.33511782E-01 0.27534348E+03</pdfrwt>
<pdfrwt beam="2">  1       21 0.56393893E-01 0.27534348E+03</pdfrwt>
<totfact> 0.24346155E+04</totfact>
</mgrwt>
</event>
<event>
 4    1  0.4053645E-001  0.1874811E+03  0.7546771E-02  0.1160753E+00
         21   -1    0    0  501  502  0.00000000000E+00  0.00000000000E+00  0.39371334487E+03  0.39371334487E+03  0.00000000000E+00 0. -1.
         21   -1    0    0  502  503 -0.00000000000E+00 -0.00000000000E+00 -0.10919067416E+03  0.10919067416E+03  0.00000000000E+00 0. -1.
          6    1    1    2  501    0  0.66903288577E+02 -0.27278355137E+02  0.24964760850E+03  0.31220680183E+03  0.17300000000E+03 0. -1.
         -6    1    1    2    0  503 -0.66903288577E+02  0.27278355137E+02  0.34875062212E+02  0.19069721719E+03  0.17300000000E+03 0. -1.
<mgrwt>
<rscale>  2 0.18748109E+03</rscale>
<asrwt>0</asrwt>
<pdfrwt beam="1">  1       21 0.60571283E-01 0.18748109E+03</pdfrwt>
<pdfrwt beam="2">  1       21 0.16798565E-01 0.18748109E+03</pdfrwt>
<totfact> 0.81135179E+04</totfact>
</mgrwt>
</event>
<event>
 4    1  0.4053645E-001  0.1749904E+03  0.7546771E-02  0.1172741E+00
         21   -1    0    0  501  502  0.00000000000E+00  0.00000000000E+00  0.10856911526E+04  0.10856911526E+04  0.00000000000E+00 0. -1.
         21   -1    0    0  502  503 -0.00000000000E+00 -0.00000000000E+00 -0.39676865425E+02  0.39676865425E+02  0.00000000000E+00 0. -1.
          6    1    1    2  501    0 -0.25066271722E+02  0.80211567216E+01  0.82557130583E+03  0.84391328817E+03  0.17300000000E+03 0. -1.
         -6    1    1    2    0  503  0.25066271722E+02 -0.80211567216E+01  0.22044298132E+03  0.28145472984E+03  0.17300000000E+03 0. -1.
<mgrwt>
<rscale>  2 0.17499045E+03</rscale>
<asrwt>0</asrwt>
<pdfrwt beam="1">  1       21 0.16702939E+00 0.17499045E+03</pdfrwt>
<pdfrwt beam="2">  1       21 0.61041340E-02 0.17499045E+03</pdfrwt>
<totfact> 0.43345560E+04</totfact>
</mgrwt>
</event>
<event>
 4    1  0.4053645E-001  0.2895241E+03  0.7546771E-02  0.1090598E+00
         21   -1    0    0  501  502  0.00000000000E+00  0.00000000000E+00  0.18114724609E+04  0.18114724609E+04  0.00000000000E+00 0.  1.
         21   -1    0    0  502  503 -0.00000000000E+00 -0.00000000000E+00 -0.50145373474E+02  0.50145373474E+02  0.00000000000E+00 0.  1.
          6    1    1    2  501    0  0.34950720636E+02  0.22950738231E+03  0.11392906745E+04  0.11755030551E+04  0.17300000000E+03 0.  1.
         -6    1    1    2    0  503 -0.34950720636E+02 -0.22950738231E+03  0.62203641287E+03  0.68611477928E+03  0.17300000000E+03 0.  1.
<mgrwt>
<rscale>  2 0.28952408E+03</rscale>
<asrwt>0</asrwt>
<pdfrwt beam="1">  1       21 0.27868802E+00 0.28952408E+03</pdfrwt>
<pdfrwt beam="2">  1       21 0.77146742E-02 0.28952408E+03</pdfrwt>
<totfact> 0.53072376E+03</totfact>
</mgrwt>
</event>
<event>
 4    1  0.4053645E-001  0.2001147E+03  0.7546771E-02  0.1149642E+00
         21   -1    0    0  501  502  0.00000000000E+00  0.00000000000E+00  0.32748651611E+03  0.32748651611E+03  0.00000000000E+00 0.  1.
         21   -1    0    0  502  503 -0.00000000000E+00 -0.00000000000E+00 -0.12785678190E+03  0.12785678190E+03  0.00000000000E+00 0.  1.
          6    1    1    2  501    0  0.32965574227E+02  0.95027071102E+02  0.14735289112E+03  0.24851307380E+03  0.17300000000E+03 0.  1.
         -6    1    1    2    0  503 -0.32965574227E+02 -0.95027071102E+02  0.52276843085E+02  0.20683022422E+03  0.17300000000E+03 0.  1.
<mgrwt>
<rscale>  2 0.20011465E+03</rscale>
<asrwt>0</asrwt>
<pdfrwt beam="1">  1       21 0.50382541E-01 0.20011465E+03</pdfrwt>
<pdfrwt beam="2">  1       21 0.19670274E-01 0.20011465E+03</pdfrwt>
<totfact> 0.89017915E+04</totfact>
</mgrwt>
</event>
<event>
 4    1  0.4053645E-001  0.2053088E+03  0.7546771E-02  0.1145336E+00
         21   -1    0    0  503  502  0.00000000000E+00  0.00000000000E+00  0.11148658112E+03  0.11148658112E+03  0.00000000000E+00 0.  1.
         21   -1    0    0  501  503 -0.00000000000E+00 -0.00000000000E+00 -0.38107865299E+03  0.38107865299E+03  0.00000000000E+00 0. -1.
          6    1    1    2  501    0  0.36058985755E+02 -0.10451058904E+03 -0.11297749945E+03  0.23434083950E+03  0.17300000000E+03 0.  1.
         -6    1    1    2    0  502 -0.36058985755E+02  0.10451058904E+03 -0.15661457242E+03  0.25822439461E+03  0.17300000000E+03 0.  1.
<mgrwt>
<rscale>  2 0.20530883E+03</rscale>
<asrwt>0</asrwt>
<pdfrwt beam="1">  1       21 0.17151782E-01 0.20530883E+03</pdfrwt>
<pdfrwt beam="2">  1       21 0.58627485E-01 0.20530883E+03</pdfrwt>
<totfact> 0.83116659E+04</totfact>
</mgrwt>
</event>
<event>
 4    1  0.4053645E-001  0.2609789E+03  0.7546771E-02  0.1106557E+00
         21   -1    0    0  503  502  0.00000000000E+00  0.00000000000E+00  0.40082161709E+03  0.40082161709E+03  0.00000000000E+00 0.  1.
         21   -1    0    0  501  503 -0.00000000000E+00 -0.00000000000E+00 -0.16998882121E+03  0.16998882121E+03  0.00000000000E+00 0.  1.
          6    1    1    2  501    0  0.38584457282E+02  0.19155210883E+03  0.10992505570E+03  0.28318454868E+03  0.17300000000E+03 0.  1.
         -6    1    1    2    0  502 -0.38584457282E+02 -0.19155210883E+03  0.12090774018E+03  0.28762588961E+03  0.17300000000E+03 0.  1.
<mgrwt>
<rscale>  2 0.26097887E+03</rscale>
<asrwt>0</asrwt>
<pdfrwt beam="1">  1       21 0.61664864E-01 0.26097887E+03</pdfrwt>
<pdfrwt beam="2">  1       21 0.26152126E-01 0.26097887E+03</pdfrwt>
<totfact> 0.32847547E+04</totfact>
</mgrwt>
</event>
<event>
 4    1  0.4053645E-001  0.2838871E+03  0.7546771E-02  0.1093585E+00
         21   -1    0    0  501  502  0.00000000000E+00  0.00000000000E+00  0.23627144219E+03  0.23627144219E+03  0.00000000000E+00 0.  1.
         21   -1    0    0  502  503 -0.00000000000E+00 -0.00000000000E+00 -0.41423471519E+03  0.41423471519E+03  0.00000000000E+00 0.  1.
          6    1    1    2  501    0  0.13053148895E+03  0.18336955720E+03 -0.22564875535E+03  0.36264200654E+03  0.17300000000E+03 0.  1.
         -6    1    1    2    0  503 -0.13053148895E+03 -0.18336955720E+03  0.47685482357E+02  0.28786415085E+03  0.17300000000E+03 0.  1.
<mgrwt>
<rscale>  2 0.28388706E+03</rscale>
<asrwt>0</asrwt>
<pdfrwt beam="1">  1       21 0.36349453E-01 0.28388706E+03</pdfrwt>
<pdfrwt beam="2">  1       21 0.63728417E-01 0.28388706E+03</pdfrwt>
<totfact> 0.15815457E+04</totfact>
</mgrwt>
</event>
<event>
 4    1  0.4053645E-001  0.1765226E+03  0.7546771E-02  0.1171212E+00
         21   -1    0    0  501  502  0.00000000000E+00  0.00000000000E+00  0.50204220856E+03  0.50204220856E+03  0.00000000000E+00 0.  1.
         21   -1    0    0  502  503 -0.00000000000E+00 -0.00000000000E+00 -0.62661010275E+02  0.62661010275E+02  0.00000000000E+00 0.  1.
          6    1    1    2  501    0 -0.13630765976E+02  0.32333258600E+02  0.24718222762E+03  0.30374214565E+03  0.17300000000E+03 0.  1.
         -6    1    1    2    0  503  0.13630765976E+02 -0.32333258600E+02  0.19219897066E+03  0.26096107318E+03  0.17300000000E+03 0.  1.
<mgrwt>
<rscale>  2 0.17652263E+03</rscale>
<asrwt>0</asrwt>
<pdfrwt beam="1">  1       21 0.77237260E-01 0.17652263E+03</pdfrwt>
<pdfrwt beam="2">  1       21 0.96401558E-02 0.17652263E+03</pdfrwt>
<totfact> 0.12962011E+05</totfact>
</mgrwt>
</event>
<event>
 4    1  0.4053645E-001  0.1776319E+03  0.7546771E-02  0.1170115E+00
         21   -1    0    0  501  502  0.00000000000E+00  0.00000000000E+00  0.90054955686E+03  0.90054955686E+03  0.00000000000E+00 0.  1.
         21   -1    0    0  502  503 -0.00000000000E+00 -0.00000000000E+00 -0.36070522853E+02  0.36070522853E+02  0.00000000000E+00 0.  1.
          6    1    1    2  501    0  0.30352285237E+02 -0.26510830463E+02  0.51148846050E+03  0.54145501251E+03  0.17300000000E+03 0.  1.
         -6    1    1    2    0  503 -0.30352285237E+02  0.26510830463E+02  0.35299057351E+03  0.39516506720E+03  0.17300000000E+03 0.  1.
<mgrwt>
<rscale>  2 0.17763188E+03</rscale>
<asrwt>0</asrwt>
<pdfrwt beam="1">  1       21 0.13854607E+00 0.17763188E+03</pdfrwt>
<pdfrwt beam="2">  1       21 0.55493119E-02 0.17763188E+03</pdfrwt>
<totfact> 0.83427594E+04</totfact>
</mgrwt>
</event>
<event>
 4    1  0.4053645E-001  0.1984274E+03  0.7546771E-02  0.1151073E+00
         21   -1    0    0  501  502  0.00000000000E+00  0.00000000000E+00  0.81796173451E+02  0.81796173451E+02  0.00000000000E+00 0.  1.
         21   -1    0    0  502  503 -0.00000000000E+00 -0.00000000000E+00 -0.72555277037E+03  0.72555277037E+03  0.00000000000E+00 0.  1.
          6    1    1    2  501    0 -0.84480035972E+02  0.48037224214E+02 -0.87691347869E+02  0.21694059989E+03  0.17300000000E+03 0.  1.
         -6    1    1    2    0  503  0.84480035972E+02 -0.48037224214E+02 -0.55606524905E+03  0.59040834394E+03  0.17300000000E+03 0.  1.
<mgrwt>
<rscale>  2 0.19842745E+03</rscale>
<asrwt>0</asrwt>
<pdfrwt beam="1">  1       21 0.12584026E-01 0.19842745E+03</pdfrwt>
<pdfrwt beam="2">  1       21 0.11162351E+00 0.19842745E+03</pdfrwt>
<totfact> 0.33857539E+04</totfact>
</mgrwt>
</event>
<event>
 4    1  0.4053645E-001  0.2088434E+03  0.7546771E-02  0.1142485E+00
         21   -1    0    0  503  502  0.00000000000E+00  0.00000000000E+00  0.88278879633E+03  0.88278879633E+03  0.00000000000E+00 0.  1.
         21   -1    0    0  501  503 -0.00000000000E+00 -0.00000000000E+00 -0.66905170715E+02  0.66905170715E+02  0.00000000000E+00 0.  1.
          6    1    1    2  501    0 -0.11659226718E+03  0.96335311186E+01  0.65078480182E+03  0.68347378880E+03  0.17300000000E+03 0.  1.
         -6    1    1    2    0  502  0.11659226718E+03 -0.96335311186E+01  0.16509882379E+03  0.26622017825E+03  0.17300000000E+03 0.  1.
<mgrwt>
<rscale>  2 0.20884339E+03</rscale>
<asrwt>0</asrwt>
<pdfrwt beam="1">  1       21 0.13581365E+00 0.20884339E+03</pdfrwt>
<pdfrwt beam="2">  1       21 0.10293104E-01 0.20884339E+03</pdfrwt>
<totfact> 0.29538859E+04</totfact>
</mgrwt>
</event>
<event>
 4    1  0.4053645E-001  0.1738546E+03  0.7546771E-02  0.1173887E+00
         21   -1    0    0  501  502  0.00000000000E+00  0.00000000000E+00  0.53611215836E+02  0.53611215836E+02  0.00000000000E+00 0. -1.
         21   -1    0    0  502  503 -0.00000000000E+00 -0.00000000000E+00 -0.57223824582E+03  0.57223824582E+03  0.00000000000E+00 0. -1.
          6    1    1    2  501    0  0.78899565177E+01 -0.15302392800E+02 -0.29733770757E+03  0.34443450318E+03  0.17300000000E+03 0. -1.
         -6    1    1    2    0  503 -0.78899565177E+01  0.15302392800E+02 -0.22128932242E+03  0.28141495848E+03  0.17300000000E+03 0. -1.
<mgrwt>
<rscale>  2 0.17385458E+03</rscale>
<asrwt>0</asrwt>
<pdfrwt beam="1">  1       21 0.82478794E-02 0.17385458E+03</pdfrwt>
<pdfrwt beam="2">  1       21 0.88036653E-01 0.17385458E+03</pdfrwt>
<totfact> 0.12668027E+05</totfact>
</mgrwt>
</event>
<event>
 4    1  0.4053645E-001  0.1858104E+03  0.7546771E-02  0.1162295E+00
         21   -1    0    0  503  502  0.00000000000E+00  0.00000000000E+00  0.15791143632E+03  0.15791143632E+03  0.00000000000E+00 0. -1.
         21   -1    0    0  501  503 -0.00000000000E+00 -0.00000000000E+00 -0.25413856163E+03  0.25413856163E+03  0.00000000000E+00 0. -1.
          6    1    1    2  501    0  0.11286329059E+01  0.67788092363E+02 -0.12511520291E+03  0.22400739559E+03  0.17300000000E+03 0. -1.
         -6    1    1    2    0  502 -0.11286329059E+01 -0.67788092363E+02  0.28888077604E+02  0.18804260237E+03  0.17300000000E+03 0. -1.
<mgrwt>
<rscale>  2 0.18581039E+03</rscale>
<asrwt>0</asrwt>
<pdfrwt beam="1">  1       21 0.24294067E-01 0.18581039E+03</pdfrwt>
<pdfrwt beam="2">  1       21 0.39098240E-01 0.18581039E+03</pdfrwt>
<totfact> 0.10115009E+05</totfact>
</mgrwt>
</event>
<event>
 4    1  0.4053645E-001  0.1823789E+03  0.7546771E-02  0.1165520E+00
         21   -1    0    0  503  502  0.00000000000E+00  0.00000000000E+00  0.20183741748E+03  0.20183741748E+03  0.00000000000E+00 0.  1.
         21   -1    0    0  501  503 -0.00000000000E+00 -0.00000000000E+00 -0.20408927853E+03  0.20408927853E+03  0.00000000000E+00 0.  1.
          6    1    1    2  501    0  0.23760656260E+02  0.52616489045E+02 -0.90182279429E+02  0.20345738431E+03  0.17300000000E+03 0.  1.
         -6    1    1    2    0  502 -0.23760656260E+02 -0.52616489045E+02  0.87930418382E+02  0.20246931170E+03  0.17300000000E+03 0.  1.
<mgrwt>
<rscale>  2 0.18237890E+03</rscale>
<asrwt>0</asrwt>
<pdfrwt beam="1">  1       21 0.31051911E-01 0.18237890E+03</pdfrwt>
<pdfrwt beam="2">  1       21 0.31398350E-01 0.18237890E+03</pdfrwt>
<totfact> 0.97498390E+04</totfact>
</mgrwt>
</event>
<event>
 4    1  0.4053645E-001  0.2071491E+03  0.7546771E-02  0.1143844E+00
         21   -1    0    0  503  502  0.00000000000E+00  0.00000000000E+00  0.54862711914E+02  0.54862711914E+02  0.00000000000E+00 0.  1.
         21   -1    0    0  501  503 -0.00000000000E+00 -0.00000000000E+00 -0.85023640982E+03  0.85023640982E+03  0.00000000000E+00 0.  1.
          6    1    1    2  501    0  0.87132706982E+02 -0.73414208672E+02 -0.26962103101E+03  0.34000919844E+03  0.17300000000E+03 0.  1.
         -6    1    1    2    0  502 -0.87132706982E+02  0.73414208672E+02 -0.52575266689E+03  0.56508992329E+03  0.17300000000E+03 0.  1.
<mgrwt>
<rscale>  2 0.20714911E+03</rscale>
<asrwt>0</asrwt>
<pdfrwt beam="1">  1       21 0.84404180E-02 0.20714911E+03</pdfrwt>
<pdfrwt beam="2">  1       21 0.13080559E+00 0.20714911E+03</pdfrwt>
<totfact> 0.46143742E+04</totfact>
</mgrwt>
</event>
<event>
 4    1  0.4053645E-001  0.2867996E+03  0.7546771E-02  0.1092032E+00
         21   -1    0    0  503  502  0.00000000000E+00  0.00000000000E+00  0.18841310302E+03  0.18841310302E+03  0.00000000000E+00 0.  1.
         21   -1    0    0  501  503 -0.00000000000E+00 -0.00000000000E+00 -0.87785348848E+03  0.87785348848E+03  0.00000000000E+00 0. -1.
          6    1    1    2  501    0  0.16349178524E+03 -0.15998571396E+03 -0.72271652386E+03  0.77754303185E+03  0.17300000000E+03 0. -1.
         -6    1    1    2    0  502 -0.16349178524E+03  0.15998571396E+03  0.33276138396E+02  0.28872355965E+03  0.17300000000E+03 0.  1.
<mgrwt>
<rscale>  2 0.28679957E+03</rscale>
<asrwt>0</asrwt>
<pdfrwt beam="1">  1       21 0.28986631E-01 0.28679957E+03</pdfrwt>
<pdfrwt beam="2">  1       21 0.13505438E+00 0.28679957E+03</pdfrwt>
<totfact> 0.41843200E+03</totfact>
</mgrwt>
</event>
<event>
 4    1  0.4053645E-001  0.1780816E+03  0.7546771E-02  0.1169673E+00
         21   -1    0    0  503  502  0.00000000000E+00  0.00000000000E+00  0.18529460048E+03  0.18529460048E+03  0.00000000000E+00 0.  1.
         21   -1    0    0  501  503 -0.00000000000E+00 -0.00000000000E+00 -0.18153288225E+03  0.18153288225E+03  0.00000000000E+00 0.  1.
          6    1    1    2  501    0  0.20831556845E+02  0.36743831008E+02  0.45746590167E+02  0.18386357276E+03  0.17300000000E+03 0. -1.
         -6    1    1    2    0  502 -0.20831556845E+02 -0.36743831008E+02 -0.41984871934E+02  0.18296390996E+03  0.17300000000E+03 0. -1.
<mgrwt>
<rscale>  2 0.17808162E+03</rscale>
<asrwt>0</asrwt>
<pdfrwt beam="1">  1       21 0.28506862E-01 0.17808162E+03</pdfrwt>
<pdfrwt beam="2">  1       21 0.27928136E-01 0.17808162E+03</pdfrwt>
<totfact> 0.14477220E+05</totfact>
</mgrwt>
</event>
<event>
 4    1  0.4053645E-001  0.2139937E+03  0.7546771E-02  0.1138442E+00
         21   -1    0    0  501  502  0.00000000000E+00  0.00000000000E+00  0.21678006644E+04  0.21678006644E+04  0.00000000000E+00 0. -1.
         21   -1    0    0  502  503 -0.00000000000E+00 -0.00000000000E+00 -0.21407426894E+02  0.21407426894E+02  0.00000000000E+00 0.  1.
          6    1    1    2  501    0 -0.63991042836E+02  0.10848703242E+03  0.94731597928E+03  0.97118528323E+03  0.17300000000E+03 0.  1.
         -6    1    1    2    0  503  0.63991042836E+02 -0.10848703242E+03  0.11990772582E+04  0.12180228080E+04  0.17300000000E+03 0. -1.
<mgrwt>
<rscale>  2 0.21399367E+03</rscale>
<asrwt>0</asrwt>
<pdfrwt beam="1">  1       21 0.33350762E+00 0.21399367E+03</pdfrwt>
<pdfrwt beam="2">  1       21 0.32934520E-02 0.21399367E+03</pdfrwt>
<totfact> 0.11570019E+04</totfact>
</mgrwt>
</event>
<event>
 4    1  0.4053645E-001  0.1878735E+03  0.7546771E-02  0.1160393E+00
         21   -1    0    0  503  502  0.00000000000E+00  0.00000000000E+00  0.82237829617E+02  0.82237829617E+02  0.00000000000E+00 0.  1.
         21   -1    0    0  501  503 -0.00000000000E+00 -0.00000000000E+00 -0.43678730889E+03  0.43678730889E+03  0.00000000000E+00 0. -1.
          6    1    1    2  501    0 -0.36905547576E+02  0.63288634125E+02 -0.21147814124E+03  0.28287713741E+03  0.17300000000E+03 0.  1.
         -6    1    1    2    0  502  0.36905547576E+02 -0.63288634125E+02 -0.14307133803E+03  0.23614800109E+03  0.17300000000E+03 0. -1.
<mgrwt>
<rscale>  2 0.18787355E+03</rscale>
<asrwt>0</asrwt>
<pdfrwt beam="1">  1       21 0.12651974E-01 0.18787355E+03</pdfrwt>
<pdfrwt beam="2">  1       21 0.67198048E-01 0.18787355E+03</pdfrwt>
<totfact> 0.10837516E+05</totfact>
</mgrwt>
</event>
<event>
 4    1  0.4053645E-001  0.2127801E+03  0.7546771E-02  0.1139383E+00
         21   -1    0    0  503  502  0.00000000000E+00  0.00000000000E+00  0.38512912781E+03  0.38512912781E+03  0.00000000000E+00 0. -1.
         21   -1    0    0  501  503 -0.00000000000E+00 -0.00000000000E+00 -0.19421614560E+03  0.19421614560E+03  0.00000000000E+00 0. -1.
          6    1    1    2  501    0  0.50779272972E+02 -0.11299491966E+03  0.27744383771E+03  0.34964334616E+03  0.17300000000E+03 0. -1.
         -6    1    1    2    0  502 -0.50779272972E+02  0.11299491966E+03 -0.86530855498E+02  0.22970192726E+03  0.17300000000E+03 0. -1.
<mgrwt>
<rscale>  2 0.21278014E+03</rscale>
<asrwt>0</asrwt>
<pdfrwt beam="1">  1       21 0.59250635E-01 0.21278014E+03</pdfrwt>
<pdfrwt beam="2">  1       21 0.29879407E-01 0.21278014E+03</pdfrwt>
<totfact> 0.28275067E+04</totfact>
</mgrwt>
</event>
<event>
 4    1  0.4053645E-001  0.2068081E+03  0.7546771E-02  0.1144119E+00
         21   -1    0    0  501  502  0.00000000000E+00  0.00000000000E+00  0.24494070731E+03  0.24494070731E+03  0.00000000000E+00 0. -1.
         21   -1    0    0  502  503 -0.00000000000E+00 -0.00000000000E+00 -0.44741781657E+03  0.44741781657E+03  0.00000000000E+00 0. -1.
          6    1    1    2  501    0 -0.11330097700E+03  0.18625610090E+01  0.16907712888E+03  0.26712666665E+03  0.17300000000E+03 0. -1.
         -6    1    1    2    0  503  0.11330097700E+03 -0.18625610090E+01 -0.37155423815E+03  0.42523185724E+03  0.17300000000E+03 0. -1.
<mgrwt>
<rscale>  2 0.20680808E+03</rscale>
<asrwt>0</asrwt>
<pdfrwt beam="1">  1       21 0.37683186E-01 0.20680808E+03</pdfrwt>
<pdfrwt beam="2">  1       21 0.68833510E-01 0.20680808E+03</pdfrwt>
<totfact> 0.12938134E+04</totfact>
</mgrwt>
</event>
